INSANE! Membrane UpperLeaflet>DPPC:DIPC:CHOL=20.0:65.0:15.0 LowerLeaflet>DPPC:DIPC:CHOL=20.0:65.0:15.0
72637
    1DPPC   NC3    1  15.404  10.134   6.750 -0.1680  0.0836 -0.2204
    1DPPC   PO4    2  15.091   9.890   6.940 -0.0060  0.1182 -0.3389
    1DPPC   GL1    3  15.229   9.580   6.579 -0.0055 -0.1266  0.0775
    1DPPC   GL2    4  15.589   9.618   6.568 -0.0360 -0.1699 -0.0367
    1DPPC   C1A    5  15.173   9.469   6.091  0.0156  0.0915  0.3041
    1DPPC   C2A    6  14.950   9.453   5.767 -0.1276 -0.0808 -0.0082
    1DPPC   C3A    7  14.803   9.574   5.386 -0.0965  0.1585 -0.0458
    1DPPC   C4A    8  14.743   9.338   4.916 -0.0136  0.0965  0.0283
    1DPPC   C1B    9  15.570   9.304   6.213  0.0315  0.2543  0.1240
    1DPPC   C2B   10  15.441   9.275   5.775 -0.0539 -0.0134 -0.1793
    1DPPC   C3B   11  15.314   9.216   5.442 -0.1559  0.2043  0.0153
    1DPPC   C4B   12  15.408   9.278   5.050  0.3211 -0.1416 -0.0855
    1DPPC   NC3   13  13.599  20.418   6.860 -0.0487 -0.1945  0.0702
    1DPPC   PO4   14  13.637  20.817   6.538  0.1822  0.0691  0.1961
    1DPPC   GL1   15  13.863  20.982   6.161 -0.3500 -0.0380 -0.2763
    1DPPC   GL2   16  14.103  21.221   6.113  0.2935 -0.0057  0.0721
    1DPPC   C1A   17  13.667  20.933   5.821 -0.2843  0.0886  0.1061
    1DPPC   C2A   18  13.604  20.978   5.330  0.1968  0.2354 -0.1531
    1DPPC   C3A   19  13.586  21.308   5.009 -0.0009  0.0112 -0.1500
    1DPPC   C4A   20  13.186  21.536   4.810  0.0559  0.3215 -0.0300
    1DPPC   C1B   21  14.076  21.217   5.652 -0.2259  0.0026  0.0407
    1DPPC   C2B   22  14.086  21.058   5.265  0.2117  0.2349  0.0508
    1DPPC   C3B   23  13.989  20.948   4.903  0.2605 -0.0699  0.2208
    1DPPC   C4B   24  14.227  21.014   4.524  0.1104 -0.1844  0.1869
    1DPPC   NC3   25  14.212  15.218   7.224  0.2921  0.0096  0.0221
    1DPPC   PO4   26  14.229  15.547   6.853 -0.0212 -0.1033  0.2991
    1DPPC   GL1   27  14.323  15.691   6.434  0.0848 -0.0529  0.0914
    1DPPC   GL2   28  14.061  15.877   6.245 -0.0321  0.0301 -0.1898
    1DPPC   C1A   29  14.283  15.446   5.977 -0.2166 -0.2067 -0.1324
    1DPPC   C2A   30  14.281  15.479   5.574 -0.0569  0.0096  0.0797
    1DPPC   C3A   31  14.292  15.383   5.155 -0.1143  0.0792 -0.2920
    1DPPC   C4A   32  13.974  15.172   4.915  0.1009 -0.3495  0.0715
    1DPPC   C1B   33  13.900  15.828   5.843 -0.1099 -0.0980  0.0307
    1DPPC   C2B   34  13.919  15.720   5.432  0.2203 -0.0456  0.3293
    1DPPC   C3B   35  13.864  15.646   5.000  0.3558  0.0391  0.0905
    1DPPC   C4B   36  14.145  15.589   4.727  0.0488 -0.2384  0.0790
    1DPPC   NC3   37  16.557  15.154   6.442  0.3525 -0.0223  0.2563
    1DPPC   PO4   38  16.917  14.764   6.347  0.0657  0.0571  0.0646
    1DPPC   GL1   39  16.751  14.624   6.063 -0.0346 -0.0452 -0.3695
    1DPPC   GL2   40  16.573  14.928   5.932 -0.0643 -0.1298 -0.0539
    1DPPC   C1A   41  16.851  14.519   5.664 -0.3830 -0.1630 -0.3627
    1DPPC   C2A   42  16.892  14.478   5.229 -0.2508  0.1403  0.1826
    1DPPC   C3A   43  16.885  14.641   4.770 -0.0646  0.0853  0.3282
    1DPPC   C4A   44  16.675  14.796   4.370 -0.0237 -0.4080 -0.1309
    1DPPC   C1B   45  16.756  14.983   5.606  0.1208  0.0068  0.0744
    1DPPC   C2B   46  16.752  14.972   5.150 -0.1642 -0.0227  0.2443
    1DPPC   C3B   47  16.675  15.167   4.706  0.0064 -0.1055  0.0105
    1DPPC   C4B   48  16.622  15.417   4.398 -0.0998 -0.2311  0.2163
    1DPPC   NC3   49  14.629  22.879   6.010  0.0227 -0.0861 -0.0781
    1DPPC   PO4   50  15.060  22.926   6.031 -0.1380 -0.0876  0.1112
    1DPPC   GL1   51  15.010  22.942   5.561 -0.0407 -0.2341  0.0445
    1DPPC   GL2   52  14.847  23.113   5.605 -0.0218 -0.1206  0.0589
    1DPPC   C1A   53  15.060  22.967   5.152  0.0802  0.4258 -0.4278
    1DPPC   C2A   54  15.121  22.698   4.844 -0.0521 -0.2945  0.0302
    1DPPC   C3A   55  14.935  22.378   4.605 -0.2535 -0.2326  0.0483
    1DPPC   C4A   56  14.550  22.417   4.576  0.2200 -0.1063 -0.1634
    1DPPC   C1B   57  14.924  23.475   5.240 -0.2085  0.2934 -0.1937
    1DPPC   C2B   58  14.939  23.488   4.896  0.0129 -0.4862  0.2215
    1DPPC   C3B   59  15.267  23.256   4.739  0.1087 -0.0420 -0.0170
    1DPPC   C4B   60  15.695  23.229   4.436 -0.0637 -0.0411  0.1400
    1DPPC   NC3   61  18.469  19.808   6.779  0.2460 -0.1668  0.0361
    1DPPC   PO4   62  18.847  20.076   6.662  0.0697  0.0951  0.0355
    1DPPC   GL1   63  18.826  20.062   6.314 -0.2169  0.0090  0.1463
    1DPPC   GL2   64  18.914  20.312   6.128  0.1860  0.0953  0.2070
    1DPPC   C1A   65  18.739  19.764   5.926 -0.2603 -0.0658 -0.1462
    1DPPC   C2A   66  18.428  19.759   5.671  0.0335 -0.0542 -0.0724
    1DPPC   C3A   67  18.022  20.015   5.671 -0.2199 -0.1907 -0.0460
    1DPPC   C4A   68  17.758  20.279   5.303 -0.0956  0.2172  0.1832
    1DPPC   C1B   69  18.928  20.219   5.683 -0.0845 -0.0293  0.2593
    1DPPC   C2B   70  18.741  20.309   5.346  0.1178  0.0389  0.0755
    1DPPC   C3B   71  18.772  20.386   4.938 -0.2393 -0.2696  0.1046
    1DPPC   C4B   72  18.839  20.287   4.611 -0.1306 -0.0834  0.0620
    1DPPC   NC3   73  13.421   6.207   7.363 -0.1139 -0.3560  0.1918
    1DPPC   PO4   74  13.283   6.547   6.984 -0.1812  0.1799 -0.1263
    1DPPC   GL1   75  13.239   6.527   6.500 -0.0107 -0.1358  0.0833
    1DPPC   GL2   76  13.056   6.772   6.392 -0.4090  0.3691  0.0101
    1DPPC   C1A   77  13.226   6.353   6.116 -0.1433  0.1954  0.0518
    1DPPC   C2A   78  13.390   6.364   5.638  0.0257 -0.0928 -0.0403
    1DPPC   C3A   79  13.379   6.288   5.231  0.2371  0.3180 -0.2565
    1DPPC   C4A   80  13.476   6.097   4.848  0.2834 -0.2065 -0.0708
    1DPPC   C1B   81  13.020   6.798   5.907 -0.0561 -0.0738  0.1103
    1DPPC   C2B   82  12.955   6.808   5.486 -0.1451 -0.2186  0.0862
    1DPPC   C3B   83  12.709   6.885   5.248 -0.0862  0.0724 -0.1432
    1DPPC   C4B   84  12.299   7.006   5.225  0.2246 -0.0047  0.0659
    1DPPC   NC3   85   7.799  12.110   7.291 -0.0862  0.0626  0.2596
    1DPPC   PO4   86   7.876  12.172   6.797 -0.4765 -0.5906 -0.3205
    1DPPC   GL1   87   8.031  12.118   6.416 -0.3823  0.2532 -0.0446
    1DPPC   GL2   88   7.705  11.895   6.284  0.1316 -0.2810  0.0949
    1DPPC   C1A   89   8.242  12.293   6.125  0.1528  0.0895 -0.0249
    1DPPC   C2A   90   8.355  12.494   5.804  0.1265 -0.1363 -0.0101
    1DPPC   C3A   91   8.463  12.674   5.420 -0.0206  0.0193  0.2751
    1DPPC   C4A   92   8.291  12.649   5.049 -0.2583 -0.1683  0.0957
    1DPPC   C1B   93   7.985  11.851   5.978  0.1604  0.3251 -0.0217
    1DPPC   C2B   94   8.321  12.017   5.691 -0.2474 -0.0214 -0.0902
    1DPPC   C3B   95   8.480  12.207   5.384 -0.0916 -0.0078 -0.0632
    1DPPC   C4B   96   8.663  12.214   4.891  0.1252  0.0278 -0.2267
    1DPPC   NC3   97  16.736   8.413   6.571  0.1731  0.1042 -0.1794
    1DPPC   PO4   98  17.152   8.602   6.471 -0.1857  0.1460  0.5345
    1DPPC   GL1   99  17.397   8.642   6.140  0.1547 -0.5767 -0.1388
    1DPPC   GL2  100  17.328   8.881   6.020  0.2652 -0.4492 -0.0226
    1DPPC   C1A  101  17.395   8.599   5.608 -0.2806 -0.2521 -0.1875
    1DPPC   C2A  102  17.410   8.621   5.118 -0.2304  0.2180 -0.0077
    1DPPC   C3A  103  17.297   8.566   4.702  0.2024 -0.0816  0.0023
    1DPPC   C4A  104  17.641   8.406   4.421 -0.1192  0.1510 -0.2855
    1DPPC   C1B  105  17.212   9.096   5.668 -0.3272  0.2641 -0.1003
    1DPPC   C2B  106  17.138   9.094   5.188  0.3857  0.0342  0.0114
    1DPPC   C3B  107  17.045   9.017   4.800 -0.0094 -0.0633 -0.0517
    1DPPC   C4B  108  17.090   9.153   4.351 -0.1843 -0.3111  0.0350
    1DPPC   NC3  109  27.161  10.233   6.305  0.0881  0.2648  0.0228
    1DPPC   PO4  110  26.807   9.951   6.204 -0.0807 -0.4138  0.0322
    1DPPC   GL1  111  26.816  10.130   5.855  0.2191  0.1325 -0.2130
    1DPPC   GL2  112  26.565  10.374   5.742 -0.3464  0.1181 -0.1154
    1DPPC   C1A  113  26.923  10.004   5.384  0.1970  0.0462  0.0342
    1DPPC   C2A  114  27.036  10.010   4.952 -0.1693 -0.4150  0.0580
    1DPPC   C3A  115  27.113   9.756   4.605 -0.1129  0.2498  0.0646
    1DPPC   C4A  116  26.977   9.823   4.176  0.0696 -0.1534 -0.3601
    1DPPC   C1B  117  26.393  10.218   5.461  0.0362 -0.1771 -0.3057
    1DPPC   C2B  118  26.449  10.137   5.055  0.1871 -0.2101 -0.0757
    1DPPC   C3B  119  26.586  10.129   4.638 -0.0377 -0.0439 -0.1935
    1DPPC   C4B  120  26.723  10.352   4.305  0.2077  0.0258 -0.3139
    1DPPC   NC3  121  16.723  14.249   6.453  0.0934 -0.1215  0.1105
    1DPPC   PO4  122  16.314  14.021   6.507  0.1731 -0.1289 -0.2804
    1DPPC   GL1  123  16.117  14.272   6.317  0.1526  0.0919  0.1508
    1DPPC   GL2  124  16.358  14.363   6.069  0.0100  0.1345  0.0449
    1DPPC   C1A  125  15.814  14.262   6.030  0.1757  0.0162 -0.3635
    1DPPC   C2A  126  15.819  14.334   5.576 -0.0353  0.1492  0.0421
    1DPPC   C3A  127  15.829  14.323   5.175 -0.0352 -0.2012  0.1672
    1DPPC   C4A  128  15.983  14.234   4.754 -0.1006 -0.1296  0.1354
    1DPPC   C1B  129  16.270  14.265   5.749 -0.2414  0.1749 -0.1719
    1DPPC   C2B  130  16.361  14.322   5.323 -0.4124  0.0157  0.2757
    1DPPC   C3B  131  16.412  14.276   4.977 -0.1207 -0.3042  0.2297
    1DPPC   C4B  132  16.494  14.346   4.546  0.0427 -0.2414 -0.0811
    1DPPC   NC3  133  14.691  13.832   7.268  0.0266 -0.0152 -0.3411
    1DPPC   PO4  134  14.336  14.151   7.117 -0.1451 -0.1231 -0.1397
    1DPPC   GL1  135  14.168  14.184   6.705 -0.2131 -0.1056 -0.2668
    1DPPC   GL2  136  14.099  14.481   6.574  0.1556 -0.2224 -0.1913
    1DPPC   C1A  137  13.806  14.191   6.218  0.0639  0.1645  0.0823
    1DPPC   C2A  138  13.879  14.253   5.828 -0.2569  0.3287 -0.1145
    1DPPC   C3A  139  13.821  14.215   5.484  0.2072 -0.0961 -0.1291
    1DPPC   C4A  140  13.813  14.021   5.142 -0.0964  0.0131  0.0410
    1DPPC   C1B  141  14.096  14.785   6.260  0.1571  0.0258 -0.0176
    1DPPC   C2B  142  14.140  14.992   5.920  0.1766  0.0293 -0.0188
    1DPPC   C3B  143  14.128  15.031   5.443 -0.1099  0.1620 -0.1220
    1DPPC   C4B  144  14.282  14.738   5.213  0.4984 -0.2508  0.1947
    1DPPC   NC3  145  13.260  21.142   6.505 -0.2542  0.1133 -0.1548
    1DPPC   PO4  146  13.039  21.434   6.234  0.0552  0.0307 -0.1730
    1DPPC   GL1  147  12.824  21.187   5.877 -0.1930 -0.4117 -0.0414
    1DPPC   GL2  148  13.110  21.275   5.704  0.1466 -0.2017  0.1446
    1DPPC   C1A  149  12.731  20.946   5.433 -0.2486  0.0809 -0.0994
    1DPPC   C2A  150  12.771  20.861   5.040 -0.0537  0.0752 -0.3185
    1DPPC   C3A  151  12.763  21.159   4.784 -0.0605  0.1029 -0.2095
    1DPPC   C4A  152  12.943  21.222   4.376 -0.0211  0.0443 -0.1488
    1DPPC   C1B  153  13.139  21.247   5.253 -0.0895 -0.0363 -0.0630
    1DPPC   C2B  154  13.223  20.915   4.984 -0.0228 -0.0533 -0.1630
    1DPPC   C3B  155  13.409  21.095   4.547 -0.1093  0.3557 -0.3549
    1DPPC   C4B  156  13.774  21.066   4.408  0.0619  0.1583  0.2851
    1DPPC   NC3  157  12.296  10.576   7.419 -0.2491  0.0840 -0.1877
    1DPPC   PO4  158  12.358  10.437   7.027 -0.2794 -0.0818 -0.0616
    1DPPC   GL1  159  12.295  10.456   6.661  0.3622 -0.2228  0.2241
    1DPPC   GL2  160  11.987  10.599   6.620  0.0740 -0.0080  0.2888
    1DPPC   C1A  161  12.437  10.489   6.310  0.1660 -0.2510 -0.1447
    1DPPC   C2A  162  12.370  10.510   5.840 -0.0030  0.0271  0.0401
    1DPPC   C3A  163  12.074  10.800   5.575  0.1267 -0.0510 -0.0220
    1DPPC   C4A  164  11.860  10.735   5.231 -0.0177  0.4574  0.0744
    1DPPC   C1B  165  11.948  10.359   6.264  0.0663  0.3695 -0.0952
    1DPPC   C2B  166  11.864  10.496   5.935  0.0886 -0.0157 -0.2447
    1DPPC   C3B  167  11.608  10.577   5.684  0.0852  0.1010  0.0750
    1DPPC   C4B  168  11.351  10.472   5.240  0.0758 -0.3484 -0.0787
    1DPPC   NC3  169  13.825  14.164   7.130  0.2965  0.1393 -0.0266
    1DPPC   PO4  170  13.992  13.788   6.906 -0.2348 -0.0224  0.2372
    1DPPC   GL1  171  13.795  13.652   6.465 -0.1736 -0.0533  0.0036
    1DPPC   GL2  172  13.441  13.526   6.509 -0.2145 -0.0482  0.0213
    1DPPC   C1A  173  13.748  13.719   6.070  0.1264 -0.0380  0.1403
    1DPPC   C2A  174  13.706  13.742   5.598  0.0693 -0.0371 -0.3486
    1DPPC   C3A  175  13.757  13.553   5.198  0.0664  0.0521  0.2090
    1DPPC   C4A  176  13.699  13.602   4.794  0.0956  0.2235 -0.0342
    1DPPC   C1B  177  13.264  13.723   6.163  0.3605 -0.0394  0.2764
    1DPPC   C2B  178  13.180  13.537   5.708  0.4790 -0.0993  0.2214
    1DPPC   C3B  179  13.197  13.544   5.225  0.2060 -0.1736 -0.0975
    1DPPC   C4B  180  13.116  13.590   4.794 -0.2408  0.0321 -0.2101
    1DPPC   NC3  181  13.061  18.192   6.658  0.0666  0.1900  0.0091
    1DPPC   PO4  182  13.540  18.109   6.598  0.2568  0.0836 -0.0466
    1DPPC   GL1  183  13.629  17.921   6.230 -0.0821 -0.1225  0.0410
    1DPPC   GL2  184  13.621  18.155   6.060 -0.4337 -0.1312  0.1537
    1DPPC   C1A  185  13.690  17.590   5.928 -0.0808  0.0188 -0.2208
    1DPPC   C2A  186  13.811  17.331   5.618 -0.0139  0.0437 -0.0898
    1DPPC   C3A  187  13.924  17.314   5.186 -0.0596  0.2661 -0.0193
    1DPPC   C4A  188  13.918  17.299   4.730 -0.1250 -0.0778  0.1056
    1DPPC   C1B  189  13.672  18.055   5.651 -0.0413 -0.0275 -0.0395
    1DPPC   C2B  190  13.670  17.729   5.352  0.0713 -0.1621  0.2204
    1DPPC   C3B  191  13.587  17.709   4.931  0.0978  0.4870  0.2458
    1DPPC   C4B  192  13.671  17.697   4.445  0.1217 -0.2173 -0.0048
    1DPPC   NC3  193  12.301  18.680   6.661  0.2280  0.3560  0.0182
    1DPPC   PO4  194  11.901  18.616   6.790 -0.0476 -0.2040  0.0415
    1DPPC   GL1  195  11.608  18.429   6.502 -0.0682 -0.1490  0.0003
    1DPPC   GL2  196  11.386  18.576   6.602 -0.0371 -0.3066 -0.0536
    1DPPC   C1A  197  11.376  18.134   6.157  0.1383 -0.0542 -0.1481
    1DPPC   C2A  198  11.199  18.185   5.773 -0.2253 -0.1670 -0.0864
    1DPPC   C3A  199  11.176  18.239   5.315 -0.2485  0.0580 -0.2420
    1DPPC   C4A  200  11.053  18.177   4.854 -0.2144  0.0916 -0.1117
    1DPPC   C1B  201  11.385  18.607   6.147  0.2895 -0.1022  0.1177
    1DPPC   C2B  202  11.257  18.724   5.712 -0.0099  0.0913 -0.1747
    1DPPC   C3B  203  11.219  19.106   5.433 -0.0112  0.1576 -0.0844
    1DPPC   C4B  204  11.209  19.277   5.085  0.0614  0.2777 -0.2346
    1DPPC   NC3  205  28.836  13.826   6.086  0.0257  0.2881  0.0634
    1DPPC   PO4  206  29.067  14.174   6.225 -0.1718 -0.3794  0.0779
    1DPPC   GL1  207  29.037  14.197   5.769  0.2539 -0.0532 -0.0693
    1DPPC   GL2  208  28.924  13.870   5.598  0.1969 -0.0824  0.2596
    1DPPC   C1A  209  29.080  14.206   5.325  0.0902  0.4275  0.1631
    1DPPC   C2A  210  29.031  14.179   4.851  0.1931  0.0250 -0.0467
    1DPPC   C3A  211  28.986  14.463   4.449 -0.1162 -0.0429 -0.3757
    1DPPC   C4A  212  29.005  14.828   4.257 -0.0555 -0.0446  0.0770
    1DPPC   C1B  213  28.538  14.087   5.471 -0.1997 -0.1374 -0.0663
    1DPPC   C2B  214  28.535  14.145   5.011  0.1909 -0.0400  0.0578
    1DPPC   C3B  215  28.646  14.157   4.532 -0.0057  0.3268 -0.2227
    1DPPC   C4B  216  28.918  13.923   4.289 -0.1610  0.1564  0.1403
    1DPPC   NC3  217   8.830  15.977   6.253  0.1510 -0.0085  0.0363
    1DPPC   PO4  218   8.374  15.861   6.250 -0.2225 -0.4000 -0.2165
    1DPPC   GL1  219   8.413  15.617   5.892 -0.1098  0.0958 -0.1800
    1DPPC   GL2  220   8.223  15.733   5.667 -0.1060 -0.2068 -0.2830
    1DPPC   C1A  221   8.550  15.381   5.604 -0.2268  0.0128  0.0009
    1DPPC   C2A  222   8.585  15.246   5.262 -0.1423 -0.3236 -0.0364
    1DPPC   C3A  223   8.617  15.123   4.905  0.1032 -0.2337  0.0093
    1DPPC   C4A  224   8.566  14.918   4.612 -0.0522 -0.3092 -0.0153
    1DPPC   C1B  225   8.348  15.680   5.275  0.0140  0.3935  0.0309
    1DPPC   C2B  226   8.532  15.671   4.766 -0.1232 -0.1979  0.1195
    1DPPC   C3B  227   8.345  15.427   4.513 -0.1446  0.0980  0.0910
    1DPPC   C4B  228   8.146  15.123   4.350 -0.1174 -0.2479  0.1398
    1DPPC   NC3  229  21.154  17.436   6.906  0.1405 -0.0156 -0.1394
    1DPPC   PO4  230  21.034  17.849   7.060 -0.0988  0.0115  0.1438
    1DPPC   GL1  231  21.191  18.088   6.683 -0.1119 -0.0799 -0.3147
    1DPPC   GL2  232  20.927  18.298   6.627 -0.1154  0.1731  0.1544
    1DPPC   C1A  233  21.269  17.973   6.185 -0.0430 -0.1357 -0.0854
    1DPPC   C2A  234  21.218  18.178   5.833  0.1886 -0.2587 -0.0456
    1DPPC   C3A  235  21.347  18.426   5.440 -0.3617  0.0141 -0.0544
    1DPPC   C4A  236  21.307  18.552   5.101  0.3059  0.1926  0.0872
    1DPPC   C1B  237  20.673  18.228   6.247  0.2912 -0.0791 -0.1758
    1DPPC   C2B  238  20.613  18.191   5.860  0.1982  0.3015  0.2402
    1DPPC   C3B  239  20.758  18.165   5.444 -0.0735 -0.0744  0.0379
    1DPPC   C4B  240  20.845  18.298   4.922  0.1811  0.0227  0.0626
    1DPPC   NC3  241   9.059  11.457   7.351 -0.0160 -0.3260 -0.0791
    1DPPC   PO4  242   9.237  11.808   7.038  0.0293 -0.2291  0.0656
    1DPPC   GL1  243   9.301  11.939   6.644 -0.0003  0.0197  0.3485
    1DPPC   GL2  244   9.028  11.831   6.425  0.2305 -0.0907  0.0006
    1DPPC   C1A  245   9.573  12.131   6.388  0.2064 -0.0913  0.0921
    1DPPC   C2A  246   9.907  12.258   6.091 -0.2969  0.3781 -0.0462
    1DPPC   C3A  247  10.236  12.392   5.733  0.2051  0.0274  0.0462
    1DPPC   C4A  248  10.498  12.312   5.431 -0.1976 -0.2031  0.3464
    1DPPC   C1B  249   9.362  11.756   6.086  0.1677 -0.2134  0.2898
    1DPPC   C2B  250   9.723  11.797   6.020  0.0752 -0.1004  0.1409
    1DPPC   C3B  251   9.873  11.584   5.674 -0.2989  0.0110  0.0794
    1DPPC   C4B  252   9.808  11.215   5.342 -0.0044  0.1511 -0.3261
    1DPPC   NC3  253  10.155  14.708   6.967 -0.1642  0.0887 -0.1594
    1DPPC   PO4  254  10.320  14.343   6.802  0.0827  0.2214  0.0023
    1DPPC   GL1  255  10.201  14.533   6.479  0.1688  0.0118  0.0128
    1DPPC   GL2  256  10.430  14.732   6.363 -0.1261 -0.1423 -0.0347
    1DPPC   C1A  257   9.902  14.626   6.134  0.1761  0.0935 -0.1653
    1DPPC   C2A  258  10.008  14.632   5.747  0.0376  0.3363 -0.0605
    1DPPC   C3A  259  10.003  14.425   5.314  0.1342  0.0410  0.0388
    1DPPC   C4A  260   9.976  14.153   4.905 -0.0798  0.1866  0.3132
    1DPPC   C1B  261  10.350  14.396   6.023 -0.3876  0.0788 -0.4946
    1DPPC   C2B  262  10.445  14.307   5.564 -0.0577  0.0266 -0.2363
    1DPPC   C3B  263  10.464  14.139   5.125 -0.2378 -0.0777 -0.0367
    1DPPC   C4B  264  10.683  14.110   4.713  0.0621 -0.1134 -0.2375
    1DPPC   NC3  265  18.049  11.636   6.476 -0.1538  0.0548  0.0519
    1DPPC   PO4  266  18.143  12.130   6.716 -0.2152 -0.3115  0.0253
    1DPPC   GL1  267  18.137  12.341   6.281  0.0868  0.1401  0.0320
    1DPPC   GL2  268  18.002  12.016   6.049  0.0675  0.1081 -0.0903
    1DPPC   C1A  269  18.073  12.524   5.782 -0.2111  0.0039 -0.0764
    1DPPC   C2A  270  18.034  12.556   5.396  0.0418 -0.1887 -0.0749
    1DPPC   C3A  271  17.977  12.624   4.984  0.0593  0.1553 -0.0418
    1DPPC   C4A  272  17.751  12.415   4.661 -0.2484 -0.3243  0.0879
    1DPPC   C1B  273  18.044  11.786   5.716 -0.0468  0.2588 -0.4995
    1DPPC   C2B  274  17.978  11.826   5.405 -0.2482 -0.0505  0.1474
    1DPPC   C3B  275  18.029  11.845   5.028  0.1154  0.1602 -0.0500
    1DPPC   C4B  276  17.880  11.955   4.571  0.1381  0.2595  0.1275
    1DPPC   NC3  277  17.965  23.462   6.978 -0.0789 -0.3292  0.2270
    1DPPC   PO4  278  18.039  23.059   7.169  0.2426 -0.0452 -0.0964
    1DPPC   GL1  279  18.084  22.750   6.819 -0.2531 -0.1607 -0.0501
    1DPPC   GL2  280  17.739  22.621   6.780 -0.1060  0.3512  0.2438
    1DPPC   C1A  281  17.997  22.926   6.440  0.1319 -0.4460 -0.5435
    1DPPC   C2A  282  18.138  23.077   6.048 -0.1313  0.2661  0.3117
    1DPPC   C3A  283  18.221  23.285   5.733  0.1040 -0.0648  0.1182
    1DPPC   C4A  284  18.386  23.523   5.270  0.4075  0.3827  0.0288
    1DPPC   C1B  285  17.596  22.507   6.437 -0.2401  0.2108  0.0051
    1DPPC   C2B  286  17.605  22.395   6.103 -0.0952  0.1245  0.2138
    1DPPC   C3B  287  17.634  22.311   5.709  0.1816  0.3737  0.0015
    1DPPC   C4B  288  17.653  22.587   5.392  0.3248 -0.1086 -0.1614
    1DPPC   NC3  289   3.016   7.813   6.770  0.1061 -0.2468  0.0802
    1DPPC   PO4  290   2.772   7.404   6.639  0.1445 -0.1274  0.0174
    1DPPC   GL1  291   2.811   7.190   6.164  0.2123  0.1032 -0.4781
    1DPPC   GL2  292   2.780   6.895   6.127 -0.2296 -0.0160 -0.0042
    1DPPC   C1A  293   3.128   7.108   5.795 -0.0324 -0.2309 -0.0113
    1DPPC   C2A  294   3.154   7.003   5.394  0.1564  0.0704 -0.0858
    1DPPC   C3A  295   3.299   7.289   5.039 -0.2205  0.0398 -0.0106
    1DPPC   C4A  296   3.395   7.602   4.716  0.2424 -0.0183 -0.0749
    1DPPC   C1B  297   2.691   6.700   5.728 -0.0585  0.1947 -0.1219
    1DPPC   C2B  298   2.764   6.709   5.331 -0.0293  0.3014  0.3916
    1DPPC   C3B  299   3.003   6.674   4.996  0.1197 -0.2514 -0.1692
    1DPPC   C4B  300   3.389   6.823   4.877 -0.0691 -0.0534 -0.1111
    1DPPC   NC3  301  12.753  18.968   6.723  0.1524 -0.1189  0.3242
    1DPPC   PO4  302  12.453  19.164   6.488 -0.0782  0.0594 -0.2925
    1DPPC   GL1  303  12.617  18.934   6.166 -0.1735  0.0626  0.0414
    1DPPC   GL2  304  12.867  18.737   6.316  0.2078  0.3975 -0.1482
    1DPPC   C1A  305  12.519  18.485   6.090 -0.0619 -0.0697  0.1882
    1DPPC   C2A  306  12.348  18.232   5.788  0.0760  0.0778  0.1293
    1DPPC   C3A  307  12.241  18.230   5.347  0.0592  0.1340 -0.0932
    1DPPC   C4A  308  12.104  18.196   4.957  0.0531 -0.0550 -0.0826
    1DPPC   C1B  309  13.140  18.926   5.953 -0.1023 -0.0420 -0.0023
    1DPPC   C2B  310  13.104  18.947   5.472  0.0248  0.0364 -0.1389
    1DPPC   C3B  311  13.086  18.814   5.080  0.0189  0.0993  0.2060
    1DPPC   C4B  312  12.687  18.768   4.760  0.0673  0.0110 -0.3980
    1DPPC   NC3  313   4.139  26.732   6.264  0.0627 -0.1413  0.0952
    1DPPC   PO4  314   4.334  26.442   6.212 -0.1163  0.0487 -0.1247
    1DPPC   GL1  315   4.458  26.375   5.815 -0.1220  0.2953 -0.1077
    1DPPC   GL2  316   4.812  26.282   5.581 -0.1262  0.0285  0.3133
    1DPPC   C1A  317   4.500  26.565   5.402 -0.0773  0.0065  0.1000
    1DPPC   C2A  318   4.400  26.631   4.953 -0.0556 -0.1693  0.0818
    1DPPC   C3A  319   4.578  26.752   4.510  0.0011 -0.3032 -0.1068
    1DPPC   C4A  320   4.614  26.968   4.198  0.0618  0.0389  0.1160
    1DPPC   C1B  321   4.880  26.450   5.140  0.0739  0.2635  0.2745
    1DPPC   C2B  322   4.933  26.758   4.901 -0.2976  0.1917 -0.0123
    1DPPC   C3B  323   5.384  26.781   4.604  0.0869 -0.4593 -0.0090
    1DPPC   C4B  324   5.675  26.581   4.335  0.3769 -0.3550  0.1107
    1DPPC   NC3  325  14.443  20.780   7.072  0.1149 -0.1930  0.1206
    1DPPC   PO4  326  14.611  20.697   6.610 -0.4288 -0.0002  0.0233
    1DPPC   GL1  327  14.495  20.913   6.212  0.1201 -0.1119 -0.1397
    1DPPC   GL2  328  14.226  20.652   6.166 -0.1995 -0.1667  0.2111
    1DPPC   C1A  329  14.612  21.198   5.869 -0.1840  0.0884  0.2607
    1DPPC   C2A  330  14.633  21.076   5.390  0.1480  0.2015  0.1170
    1DPPC   C3A  331  14.471  21.268   5.028 -0.0119 -0.0572  0.0414
    1DPPC   C4A  332  14.540  21.641   5.003  0.2490 -0.2643 -0.2917
    1DPPC   C1B  333  14.199  20.771   5.777  0.0185 -0.2346  0.1165
    1DPPC   C2B  334  14.326  20.656   5.456  0.0914  0.0979  0.0241
    1DPPC   C3B  335  14.422  20.744   5.082  0.0945 -0.2961 -0.0728
    1DPPC   C4B  336  14.354  20.558   4.738 -0.0242 -0.0255  0.1361
    1DPPC   NC3  337  12.787  15.851   6.683 -0.3095  0.0940 -0.0136
    1DPPC   PO4  338  13.020  15.399   6.868  0.0810 -0.0508 -0.0691
    1DPPC   GL1  339  12.871  15.434   6.460 -0.1222 -0.1400  0.1004
    1DPPC   GL2  340  12.816  15.129   6.277  0.0986  0.1206 -0.1656
    1DPPC   C1A  341  13.013  15.645   6.073  0.0362 -0.1804 -0.0547
    1DPPC   C2A  342  12.913  15.989   5.842  0.0594  0.0463  0.1760
    1DPPC   C3A  343  12.926  16.003   5.386  0.0627  0.2783 -0.1734
    1DPPC   C4A  344  12.944  16.045   4.962  0.0200  0.0140 -0.0220
    1DPPC   C1B  345  12.674  15.335   5.916  0.1435 -0.0299 -0.1880
    1DPPC   C2B  346  12.895  15.432   5.620 -0.3233 -0.2566  0.0751
    1DPPC   C3B  347  13.094  15.333   5.231  0.3881 -0.0264  0.0319
    1DPPC   C4B  348  13.010  15.319   4.791 -0.2788 -0.0981 -0.2350
    1DPPC   NC3  349  24.662  19.875   6.529 -0.0839  0.0173  0.1302
    1DPPC   PO4  350  24.954  19.505   6.525  0.3469 -0.0062  0.2607
    1DPPC   GL1  351  25.201  19.364   6.101  0.1104  0.1187  0.1721
    1DPPC   GL2  352  25.505  19.309   6.165  0.3786 -0.1790  0.1141
    1DPPC   C1A  353  25.047  19.596   5.692 -0.2456 -0.2008  0.0840
    1DPPC   C2A  354  24.945  19.363   5.295  0.0637 -0.0461 -0.2321
    1DPPC   C3A  355  24.664  19.181   4.970  0.4018 -0.1190 -0.1698
    1DPPC   C4A  356  24.434  19.001   4.701  0.1262 -0.0727 -0.3875
    1DPPC   C1B  357  25.568  19.119   5.719  0.0449  0.1410 -0.0407
    1DPPC   C2B  358  25.390  19.139   5.317  0.0271 -0.2958 -0.1473
    1DPPC   C3B  359  25.391  19.279   4.897  0.1488  0.0164  0.2230
    1DPPC   C4B  360  25.051  19.718   4.697  0.0823  0.0319 -0.1598
    1DPPC   NC3  361  10.894  15.605   6.675 -0.0265  0.0290  0.2842
    1DPPC   PO4  362  11.316  15.523   6.855  0.2542  0.1545 -0.3193
    1DPPC   GL1  363  11.469  15.378   6.404 -0.0757 -0.1447  0.0097
    1DPPC   GL2  364  11.686  15.211   6.192 -0.0540 -0.1288 -0.3760
    1DPPC   C1A  365  11.180  15.161   6.047 -0.0795 -0.0609  0.0196
    1DPPC   C2A  366  11.182  15.020   5.561 -0.0433 -0.2159 -0.0398
    1DPPC   C3A  367  11.168  14.899   5.160  0.0650  0.1594  0.0463
    1DPPC   C4A  368  11.125  14.889   4.764 -0.1537 -0.0597  0.1514
    1DPPC   C1B  369  11.669  15.140   5.810 -0.0566 -0.1323 -0.0248
    1DPPC   C2B  370  11.639  15.230   5.391  0.0474 -0.2788  0.1137
    1DPPC   C3B  371  11.915  15.312   5.085  0.0020  0.0785  0.0213
    1DPPC   C4B  372  12.050  15.542   4.781 -0.5561  0.1626 -0.0438
    1DPPC   NC3  373  14.818  12.903   6.532  0.0370  0.2456 -0.0894
    1DPPC   PO4  374  14.713  12.468   6.796  0.1041 -0.1659 -0.0405
    1DPPC   GL1  375  14.677  12.414   6.457  0.4349 -0.3665  0.2245
    1DPPC   GL2  376  14.430  12.307   6.329 -0.0660 -0.1214  0.1432
    1DPPC   C1A  377  14.811  12.340   6.079  0.2823 -0.2437  0.0135
    1DPPC   C2A  378  14.833  12.205   5.633  0.2377 -0.2160  0.0989
    1DPPC   C3A  379  14.698  12.114   5.189  0.0819  0.3352 -0.1484
    1DPPC   C4A  380  14.572  12.140   4.821  0.1412 -0.0405 -0.3405
    1DPPC   C1B  381  14.296  12.407   5.922  0.0930  0.0844 -0.0817
    1DPPC   C2B  382  14.245  12.403   5.462 -0.3297  0.1685 -0.0200
    1DPPC   C3B  383  14.278  12.489   4.990  0.1064 -0.0800 -0.0533
    1DPPC   C4B  384  14.151  12.378   4.541 -0.3940 -0.2224 -0.2006
    1DPPC   NC3  385  19.887  16.063   7.310 -0.1247  0.0708  0.2855
    1DPPC   PO4  386  20.090  16.231   6.908 -0.1156  0.0191  0.0275
    1DPPC   GL1  387  19.970  16.183   6.471  0.1961  0.0080  0.0705
    1DPPC   GL2  388  19.764  15.968   6.378 -0.3462  0.3157  0.0220
    1DPPC   C1A  389  20.107  16.348   6.011  0.2379 -0.2074 -0.1930
    1DPPC   C2A  390  20.190  16.397   5.598  0.2928  0.0121 -0.2533
    1DPPC   C3A  391  20.281  16.343   5.243  0.0729 -0.3167 -0.1403
    1DPPC   C4A  392  20.325  16.701   4.914  0.0362  0.2110  0.0922
    1DPPC   C1B  393  19.679  16.069   5.935 -0.0632 -0.0731 -0.0758
    1DPPC   C2B  394  19.759  16.157   5.506  0.2231  0.3022 -0.3208
    1DPPC   C3B  395  19.758  16.219   5.067 -0.3663  0.1222  0.1372
    1DPPC   C4B  396  20.023  16.304   4.725  0.1253 -0.1294  0.1351
    1DPPC   NC3  397  15.871  14.762   6.498  0.2011  0.1811 -0.0131
    1DPPC   PO4  398  16.048  15.262   6.567  0.0727  0.1083 -0.0835
    1DPPC   GL1  399  15.911  15.586   6.292 -0.1772 -0.1515  0.0593
    1DPPC   GL2  400  16.237  15.755   6.283  0.0957  0.4201 -0.0163
    1DPPC   C1A  401  15.860  15.730   5.934  0.1905 -0.0062  0.2164
    1DPPC   C2A  402  15.819  15.759   5.419  0.0971 -0.1331  0.0169
    1DPPC   C3A  403  15.911  15.614   4.948 -0.1223 -0.0566 -0.0184
    1DPPC   C4A  404  15.700  15.472   4.602 -0.0951  0.0678 -0.0693
    1DPPC   C1B  405  16.321  15.788   5.912 -0.3463 -0.1821 -0.1797
    1DPPC   C2B  406  16.320  15.785   5.539 -0.0305  0.0163  0.0973
    1DPPC   C3B  407  16.279  15.881   5.132 -0.2987 -0.0948 -0.0971
    1DPPC   C4B  408  16.539  15.710   4.854 -0.5496 -0.1261  0.0431
    1DPPC   NC3  409  13.324  16.504   6.521 -0.0687 -0.0315 -0.2472
    1DPPC   PO4  410  13.286  16.062   6.686 -0.1223 -0.1328 -0.2829
    1DPPC   GL1  411  13.568  16.086   6.317 -0.1550 -0.0787  0.1679
    1DPPC   GL2  412  13.680  16.387   6.168 -0.0034 -0.0246 -0.3568
    1DPPC   C1A  413  13.468  15.840   6.032  0.0115 -0.2343  0.2373
    1DPPC   C2A  414  13.329  15.753   5.684  0.2854  0.1400  0.0135
    1DPPC   C3A  415  13.358  15.734   5.209  0.0183  0.1003 -0.1322
    1DPPC   C4A  416  13.433  15.877   4.780  0.1136  0.1308 -0.2547
    1DPPC   C1B  417  13.605  16.222   5.740 -0.3442  0.0523  0.0117
    1DPPC   C2B  418  13.647  16.159   5.385  0.1285 -0.0768 -0.1283
    1DPPC   C3B  419  13.799  16.175   5.010  0.0074 -0.1116 -0.1195
    1DPPC   C4B  420  13.998  16.102   4.673 -0.3649 -0.1717 -0.0526
    1DPPC   NC3  421  11.605  15.611   7.249 -0.2221  0.2641  0.0117
    1DPPC   PO4  422  11.412  15.998   6.942 -0.0778  0.3524 -0.0356
    1DPPC   GL1  423  11.555  15.970   6.417 -0.1970 -0.0377  0.0011
    1DPPC   GL2  424  11.280  15.884   6.452 -0.3430  0.0453  0.3262
    1DPPC   C1A  425  11.584  16.113   6.045 -0.2888 -0.2782  0.0296
    1DPPC   C2A  426  11.558  15.947   5.595 -0.2602 -0.0832 -0.3302
    1DPPC   C3A  427  11.630  15.750   5.138 -0.0904  0.1007  0.3397
    1DPPC   C4A  428  11.517  15.798   4.724 -0.0655 -0.0286  0.5535
    1DPPC   C1B  429  11.230  15.678   6.010  0.0669  0.0028  0.2341
    1DPPC   C2B  430  11.286  15.536   5.592  0.1963 -0.1126  0.1449
    1DPPC   C3B  431  11.227  15.395   5.130 -0.2210 -0.5539 -0.2323
    1DPPC   C4B  432  11.475  15.288   4.784  0.2453  0.2577 -0.1501
    1DPPC   NC3  433   7.920  15.690   6.024 -0.1099 -0.2255 -0.0576
    1DPPC   PO4  434   8.230  15.389   6.280 -0.1622 -0.0424 -0.1251
    1DPPC   GL1  435   8.255  15.105   5.992 -0.0910 -0.1520  0.1950
    1DPPC   GL2  436   8.469  14.887   5.907  0.0863  0.5196  0.1572
    1DPPC   C1A  437   7.924  14.886   5.723  0.0783  0.2588 -0.2539
    1DPPC   C2A  438   7.839  14.868   5.293 -0.0706  0.1379 -0.6668
    1DPPC   C3A  439   7.654  15.159   5.129  0.0587  0.0992 -0.0268
    1DPPC   C4A  440   7.409  15.432   5.206  0.1687 -0.1899 -0.6804
    1DPPC   C1B  441   8.364  14.771   5.512  0.3634 -0.0996 -0.2851
    1DPPC   C2B  442   8.276  14.754   5.098 -0.0351 -0.4512  0.4298
    1DPPC   C3B  443   7.897  14.839   4.703 -0.1705 -0.1905 -0.3344
    1DPPC   C4B  444   7.737  14.737   4.316 -0.1444  0.1258  0.0511
    1DPPC   NC3  445  15.389  18.625   7.434 -0.0826 -0.2667  0.0049
    1DPPC   PO4  446  15.220  18.413   7.049 -0.0174  0.2515 -0.0680
    1DPPC   GL1  447  15.400  18.604   6.680  0.0149 -0.0043 -0.1895
    1DPPC   GL2  448  15.433  18.413   6.430 -0.0859 -0.1995 -0.0611
    1DPPC   C1A  449  15.318  18.915   6.315 -0.0794  0.1356 -0.1792
    1DPPC   C2A  450  15.297  19.002   5.948  0.4535 -0.1504 -0.1927
    1DPPC   C3A  451  15.468  19.053   5.621  0.0820  0.1552  0.1277
    1DPPC   C4A  452  15.643  19.163   5.204  0.1271  0.0277 -0.0338
    1DPPC   C1B  453  15.484  18.518   6.001  0.2646  0.2662 -0.2150
    1DPPC   C2B  454  15.530  18.567   5.599  0.1228 -0.0368  0.1872
    1DPPC   C3B  455  15.455  18.596   5.187  0.0584  0.1259 -0.0747
    1DPPC   C4B  456  15.420  18.454   4.754  0.1669 -0.1199 -0.0725
    1DPPC   NC3  457  19.862  13.183   6.530  0.0938  0.0855  0.1544
    1DPPC   PO4  458  20.152  12.914   6.502 -0.3094  0.3237  0.1659
    1DPPC   GL1  459  20.166  13.260   6.153  0.0416  0.1334  0.0434
    1DPPC   GL2  460  20.504  13.316   6.067  0.0997 -0.2016  0.0392
    1DPPC   C1A  461  20.014  13.441   5.749  0.3524  0.1123 -0.0407
    1DPPC   C2A  462  20.065  13.446   5.293  0.1421 -0.0829 -0.1202
    1DPPC   C3A  463  20.066  13.522   4.877 -0.1297 -0.1691 -0.3309
    1DPPC   C4A  464  19.986  13.721   4.485  0.0855 -0.0825 -0.2730
    1DPPC   C1B  465  20.406  13.229   5.620  0.1989  0.1501  0.0528
    1DPPC   C2B  466  20.408  13.094   5.115  0.0146  0.0003  0.1546
    1DPPC   C3B  467  20.308  13.142   4.671 -0.1258  0.0510  0.1469
    1DPPC   C4B  468  20.478  13.211   4.283 -0.4186 -0.3285  0.1641
    1DPPC   NC3  469  16.491  14.191   6.940 -0.0982 -0.2784 -0.1597
    1DPPC   PO4  470  16.763  13.797   6.801  0.0071  0.0300  0.2817
    1DPPC   GL1  471  16.913  13.804   6.287  0.0907 -0.1125  0.0936
    1DPPC   GL2  472  17.177  14.054   6.247  0.0623 -0.2859  0.2232
    1DPPC   C1A  473  16.923  13.561   5.977 -0.0953 -0.1074  0.3377
    1DPPC   C2A  474  17.086  13.450   5.514 -0.0125 -0.1188  0.0425
    1DPPC   C3A  475  17.269  13.130   5.267 -0.1133 -0.0444 -0.1637
    1DPPC   C4A  476  17.259  13.140   4.774 -0.2667  0.1396 -0.0458
    1DPPC   C1B  477  17.351  14.086   5.801 -0.2020 -0.0330 -0.4361
    1DPPC   C2B  478  17.162  14.060   5.376  0.0549  0.2108  0.0267
    1DPPC   C3B  479  17.064  14.114   4.866 -0.0661 -0.1068 -0.1828
    1DPPC   C4B  480  17.011  14.191   4.468 -0.1200 -0.1248  0.0748
    1DPPC   NC3  481  18.379  22.081   7.354 -0.2008 -0.0249 -0.2185
    1DPPC   PO4  482  18.705  22.203   7.026 -0.2302 -0.1947 -0.0096
    1DPPC   GL1  483  18.707  22.298   6.523  0.0919 -0.0298 -0.4206
    1DPPC   GL2  484  19.010  22.436   6.404 -0.0076  0.1378  0.1052
    1DPPC   C1A  485  18.659  22.234   6.036 -0.1707 -0.0184  0.0521
    1DPPC   C2A  486  18.775  22.356   5.622  0.0791 -0.1818  0.0559
    1DPPC   C3A  487  19.015  22.164   5.276 -0.0621 -0.2160 -0.3787
    1DPPC   C4A  488  18.911  21.883   4.945  0.1397 -0.0934 -0.0019
    1DPPC   C1B  489  19.204  22.407   6.007 -0.0658 -0.1761  0.0854
    1DPPC   C2B  490  19.173  22.058   5.746 -0.1248  0.1052  0.3685
    1DPPC   C3B  491  19.165  21.709   5.523 -0.1543 -0.0679  0.0513
    1DPPC   C4B  492  19.194  21.404   5.160 -0.2800 -0.0297  0.3794
    1DPPC   NC3  493  23.170  26.885   6.232 -0.0195  0.3335  0.0335
    1DPPC   PO4  494  22.925  27.313   6.279 -0.2514  0.1578 -0.1698
    1DPPC   GL1  495  22.662  27.633   6.003  0.0365  0.0150 -0.0583
    1DPPC   GL2  496  22.362  27.712   6.062  0.0081 -0.0249  0.3927
    1DPPC   C1A  497  22.566  27.535   5.578  0.3693  0.0707 -0.0686
    1DPPC   C2A  498  22.778  27.504   5.162 -0.0053  0.0888 -0.2719
    1DPPC   C3A  499  23.015  27.174   5.019 -0.3757  0.0151  0.1340
    1DPPC   C4A  500  23.101  27.030   4.575  0.2087 -0.3518  0.1102
    1DPPC   C1B  501  22.047  27.504   5.746  0.3624  0.0963  0.0259
    1DPPC   C2B  502  22.056  27.366   5.385  0.4824  0.1108  0.1985
    1DPPC   C3B  503  21.963  27.351   4.920 -0.2900  0.1242  0.0853
    1DPPC   C4B  504  21.627  27.436   4.558  0.0748 -0.0578  0.0301
    1DPPC   NC3  505  15.562  15.604   6.686  0.0149 -0.0772 -0.0439
    1DPPC   PO4  506  15.165  15.791   6.723 -0.1448 -0.0141  0.1975
    1DPPC   GL1  507  15.167  15.789   6.320  0.3061  0.0474  0.0616
    1DPPC   GL2  508  14.984  16.165   6.227 -0.1555 -0.1478 -0.1180
    1DPPC   C1A  509  15.385  15.605   6.007  0.0920 -0.0219  0.0787
    1DPPC   C2A  510  15.294  15.636   5.618  0.1493 -0.1641 -0.0969
    1DPPC   C3A  511  15.355  15.716   5.166  0.1472 -0.1725 -0.4908
    1DPPC   C4A  512  15.219  15.743   4.682 -0.0049 -0.2655 -0.0270
    1DPPC   C1B  513  14.977  16.123   5.831 -0.1143  0.0209 -0.2238
    1DPPC   C2B  514  15.036  16.086   5.440 -0.2508 -0.0794  0.1000
    1DPPC   C3B  515  15.002  16.133   5.013 -0.0002  0.2043  0.0936
    1DPPC   C4B  516  15.094  16.209   4.526  0.0113 -0.3151 -0.2762
    1DPPC   NC3  517  19.799  17.779   6.762  0.1905  0.1190 -0.0026
    1DPPC   PO4  518  20.232  17.595   6.665 -0.1013 -0.1006  0.2926
    1DPPC   GL1  519  20.150  18.078   6.486  0.1341 -0.0606 -0.0390
    1DPPC   GL2  520  19.842  18.100   6.388  0.0534  0.0936 -0.1171
    1DPPC   C1A  521  20.159  18.456   6.151  0.1727  0.1169  0.3642
    1DPPC   C2A  522  20.269  18.439   5.739 -0.0096 -0.1048 -0.2636
    1DPPC   C3A  523  20.387  18.613   5.304  0.2592  0.3097  0.1705
    1DPPC   C4A  524  20.612  18.687   4.924 -0.3016  0.2066 -0.1103
    1DPPC   C1B  525  19.744  18.112   5.947 -0.0480 -0.1898  0.1663
    1DPPC   C2B  526  19.716  18.204   5.467  0.1703 -0.1301 -0.2227
    1DPPC   C3B  527  19.806  18.472   5.122 -0.1523  0.1208  0.0919
    1DPPC   C4B  528  20.065  18.638   4.844  0.1006  0.1512  0.0428
    1DPPC   NC3  529  12.889  16.849   6.985 -0.0723 -0.1001  0.2136
    1DPPC   PO4  530  12.887  16.428   6.748  0.1319 -0.1420  0.0953
    1DPPC   GL1  531  12.948  16.609   6.189 -0.0358 -0.3990 -0.4771
    1DPPC   GL2  532  13.090  16.480   5.981  0.0056 -0.3275 -0.0795
    1DPPC   C1A  533  13.054  16.886   5.765 -0.2731 -0.1194  0.2163
    1DPPC   C2A  534  13.095  16.932   5.315 -0.1601  0.1954 -0.2865
    1DPPC   C3A  535  13.053  16.964   5.027  0.2173 -0.1382 -0.0531
    1DPPC   C4A  536  13.116  16.737   4.706  0.1140  0.2707 -0.0825
    1DPPC   C1B  537  13.190  16.416   5.509  0.0187  0.2415  0.0126
    1DPPC   C2B  538  13.294  16.409   5.125  0.2681  0.0401 -0.0860
    1DPPC   C3B  539  13.424  16.370   4.784  0.1875 -0.1066  0.0572
    1DPPC   C4B  540  13.392  16.507   4.336 -0.5052  0.1617  0.2800
    1DPPC   NC3  541  14.587  18.926   6.920 -0.1351 -0.2032  0.2579
    1DPPC   PO4  542  14.179  18.932   6.822  0.1148  0.2140 -0.2217
    1DPPC   GL1  543  14.104  18.942   6.392  0.0395 -0.2163  0.1511
    1DPPC   GL2  544  14.089  19.244   6.232  0.1432 -0.0137  0.0200
    1DPPC   C1A  545  14.007  18.953   5.859  0.2092 -0.1850  0.0411
    1DPPC   C2A  546  14.027  18.900   5.417 -0.0692 -0.3238  0.0835
    1DPPC   C3A  547  14.043  18.789   4.928 -0.2743 -0.0928  0.0717
    1DPPC   C4A  548  13.922  18.531   4.569  0.1360 -0.1662 -0.2187
    1DPPC   C1B  549  13.892  19.431   5.863 -0.0227 -0.0463  0.0096
    1DPPC   C2B  550  13.766  19.369   5.421  0.0466 -0.1658 -0.1712
    1DPPC   C3B  551  13.867  19.300   5.088 -0.0213 -0.0530 -0.1650
    1DPPC   C4B  552  14.067  19.233   4.654 -0.0130  0.2027  0.0004
    1DPPC   NC3  553  11.912  13.656   7.388  0.0032  0.3447  0.0316
    1DPPC   PO4  554  11.655  13.762   7.008  0.1110 -0.0777  0.1781
    1DPPC   GL1  555  11.745  13.549   6.575 -0.1367 -0.2338 -0.2920
    1DPPC   GL2  556  11.976  13.406   6.395  0.1457 -0.0252 -0.0777
    1DPPC   C1A  557  11.680  13.707   6.148 -0.0566 -0.0757 -0.0848
    1DPPC   C2A  558  11.550  13.661   5.814  0.3607  0.2472 -0.3539
    1DPPC   C3A  559  11.429  14.019   5.574 -0.2772  0.1577  0.0456
    1DPPC   C4A  560  11.474  13.993   5.241  0.1537  0.1288  0.1635
    1DPPC   C1B  561  11.889  13.244   5.937  0.1206  0.0791 -0.1815
    1DPPC   C2B  562  11.809  13.355   5.525 -0.0159  0.2759 -0.0564
    1DPPC   C3B  563  11.852  13.616   5.259  0.0874  0.1861  0.3093
    1DPPC   C4B  564  11.769  13.826   4.893 -0.0350 -0.2867  0.4023
    1DPPC   NC3  565  11.925  16.894   6.753  0.2224 -0.0563  0.0754
    1DPPC   PO4  566  12.148  16.556   6.683  0.0883 -0.2240  0.1782
    1DPPC   GL1  567  12.112  16.709   6.280  0.2080  0.1098  0.1282
    1DPPC   GL2  568  12.015  16.374   6.166  0.0376 -0.0703  0.1508
    1DPPC   C1A  569  12.133  16.811   5.895 -0.3042  0.1899  0.0568
    1DPPC   C2A  570  12.106  16.722   5.467 -0.0423  0.3729 -0.0304
    1DPPC   C3A  571  12.315  16.635   5.195  0.1519 -0.2038 -0.3430
    1DPPC   C4A  572  12.253  16.482   4.818 -0.0917  0.0522  0.0335
    1DPPC   C1B  573  11.947  16.347   5.729 -0.0395  0.0973 -0.2063
    1DPPC   C2B  574  12.029  16.238   5.330 -0.1371  0.0338  0.1096
    1DPPC   C3B  575  11.975  16.016   4.890 -0.0129 -0.0695  0.1989
    1DPPC   C4B  576  12.055  15.952   4.434  0.1390 -0.1821 -0.0444
    1DPPC   NC3  577   7.262  11.457   6.862 -0.0993 -0.0545 -0.1107
    1DPPC   PO4  578   7.643  11.199   6.972 -0.0702  0.0321  0.2508
    1DPPC   GL1  579   7.566  11.257   6.515  0.0256  0.2062 -0.2243
    1DPPC   GL2  580   7.333  11.534   6.371  0.1352 -0.0817 -0.0852
    1DPPC   C1A  581   7.502  11.014   6.206 -0.0584  0.2409 -0.2426
    1DPPC   C2A  582   7.698  10.892   5.819 -0.1700 -0.1095 -0.2205
    1DPPC   C3A  583   8.041  10.764   5.765 -0.0756  0.1955  0.0994
    1DPPC   C4A  584   8.248  10.411   5.716 -0.2753  0.0159 -0.1581
    1DPPC   C1B  585   7.373  11.438   5.927  0.0092 -0.1323 -0.4072
    1DPPC   C2B  586   7.314  11.452   5.490  0.0591 -0.0053  0.0237
    1DPPC   C3B  587   7.301  11.771   5.225 -0.0865 -0.0696 -0.0804
    1DPPC   C4B  588   6.911  11.692   4.945  0.1254  0.0936  0.1588
    1DPPC   NC3  589  15.250  17.063   6.528 -0.0824  0.1490  0.1300
    1DPPC   PO4  590  14.822  17.237   6.442 -0.0884 -0.0749  0.1200
    1DPPC   GL1  591  15.004  17.281   6.112 -0.2727  0.1890  0.1395
    1DPPC   GL2  592  15.108  16.947   6.005  0.5094  0.0875  0.2340
    1DPPC   C1A  593  15.193  17.534   5.787  0.0442 -0.0061  0.1736
    1DPPC   C2A  594  15.306  17.501   5.375 -0.1188 -0.0067  0.5880
    1DPPC   C3A  595  15.413  17.560   4.994 -0.0454 -0.2530 -0.2341
    1DPPC   C4A  596  15.502  17.532   4.515  0.0586  0.3632  0.0904
    1DPPC   C1B  597  15.309  17.026   5.578 -0.2177 -0.0746 -0.3605
    1DPPC   C2B  598  15.406  17.033   5.134 -0.0818 -0.0955  0.2952
    1DPPC   C3B  599  15.724  17.083   4.845 -0.1870  0.1045  0.1255
    1DPPC   C4B  600  15.670  16.969   4.468  0.0779 -0.0129 -0.0264
    1DPPC   NC3  601  21.970  16.063   6.353  0.1640  0.0971  0.3904
    1DPPC   PO4  602  22.306  16.254   6.178  0.4219  0.1247  0.1475
    1DPPC   GL1  603  22.268  15.959   5.878  0.0594  0.1213 -0.1229
    1DPPC   GL2  604  22.120  16.082   5.564 -0.1457 -0.1956 -0.0322
    1DPPC   C1A  605  22.305  15.653   5.471 -0.1249  0.0001 -0.0197
    1DPPC   C2A  606  22.365  15.823   5.062  0.0960 -0.0185  0.1277
    1DPPC   C3A  607  22.391  15.686   4.631  0.2829 -0.1299 -0.2210
    1DPPC   C4A  608  22.321  15.629   4.190  0.0575 -0.0818  0.2122
    1DPPC   C1B  609  22.153  16.307   5.172  0.3210  0.2468  0.0753
    1DPPC   C2B  610  22.367  16.239   4.830 -0.0122 -0.1491  0.0121
    1DPPC   C3B  611  22.539  16.082   4.401  0.1244  0.1549  0.1181
    1DPPC   C4B  612  22.786  15.710   4.352 -0.0949  0.2923  0.3103
    1DPPC   NC3  613  18.861  11.585   6.508  0.2113 -0.4714  0.1965
    1DPPC   PO4  614  19.228  11.716   6.359  0.2889 -0.1099 -0.2886
    1DPPC   GL1  615  19.363  11.610   5.857  0.3839  0.0882 -0.2831
    1DPPC   GL2  616  19.417  11.901   5.680  0.1314  0.1780 -0.2990
    1DPPC   C1A  617  19.002  11.512   5.494  0.2148 -0.1733  0.1451
    1DPPC   C2A  618  19.054  11.563   5.065  0.1950  0.1971  0.1393
    1DPPC   C3A  619  19.023  11.446   4.698  0.3157 -0.2164 -0.0241
    1DPPC   C4A  620  19.331  11.347   4.388  0.0596  0.0509 -0.0253
    1DPPC   C1B  621  19.499  11.714   5.281  0.1835  0.2571  0.2517
    1DPPC   C2B  622  19.471  11.609   4.885  0.0604 -0.2266 -0.0085
    1DPPC   C3B  623  19.702  11.685   4.512 -0.0428  0.4657  0.0094
    1DPPC   C4B  624  20.125  11.954   4.433  0.0610  0.1291  0.4835
    1DPPC   NC3  625  13.503  11.775   7.100 -0.0885 -0.0210 -0.3387
    1DPPC   PO4  626  13.369  11.255   6.935  0.1407  0.2223 -0.3013
    1DPPC   GL1  627  13.180  11.320   6.566 -0.0207  0.0717  0.1834
    1DPPC   GL2  628  12.833  11.217   6.674 -0.0314  0.4210 -0.3450
    1DPPC   C1A  629  13.102  11.212   6.208  0.1068  0.0884 -0.2902
    1DPPC   C2A  630  12.919  11.394   5.936 -0.3519 -0.0618  0.0372
    1DPPC   C3A  631  12.765  11.335   5.560  0.0922 -0.1238 -0.0924
    1DPPC   C4A  632  12.655  11.166   5.135 -0.0991 -0.4031  0.0483
    1DPPC   C1B  633  12.583  11.198   6.225  0.0156  0.1754  0.0236
    1DPPC   C2B  634  12.394  11.134   5.861  0.2900 -0.0383  0.0203
    1DPPC   C3B  635  12.095  11.288   5.550  0.2206  0.1506  0.1292
    1DPPC   C4B  636  12.169  11.305   5.064  0.0930  0.1596  0.0043
    1DPPC   NC3  637   9.982  12.899   6.742  0.1551 -0.0248 -0.1749
    1DPPC   PO4  638  10.307  12.688   6.891 -0.1016  0.0637 -0.0314
    1DPPC   GL1  639  10.584  12.616   6.578 -0.4335 -0.0091  0.2498
    1DPPC   GL2  640  10.273  12.639   6.331 -0.0821  0.3003 -0.0804
    1DPPC   C1A  641  10.793  12.313   6.362 -0.3042 -0.3921 -0.2569
    1DPPC   C2A  642  10.673  12.175   5.949  0.1131 -0.1596 -0.6472
    1DPPC   C3A  643  10.889  12.018   5.653 -0.0107  0.2948  0.0368
    1DPPC   C4A  644  11.049  11.915   5.364  0.2296  0.1736 -0.0954
    1DPPC   C1B  645  10.556  12.647   6.040  0.1347  0.0965 -0.1516
    1DPPC   C2B  646  10.711  12.744   5.618  0.0315 -0.0497 -0.3800
    1DPPC   C3B  647  10.778  12.679   5.196 -0.1501 -0.0262 -0.0172
    1DPPC   C4B  648  10.556  12.619   4.852  0.2269 -0.0973 -0.1180
    1DPPC   NC3  649   4.243   7.810   6.649  0.0810  0.0074  0.0981
    1DPPC   PO4  650   4.518   7.487   6.556 -0.1109  0.3157  0.1201
    1DPPC   GL1  651   4.349   7.144   6.332 -0.2298  0.0295  0.2196
    1DPPC   GL2  652   4.464   6.965   6.086 -0.2321 -0.1228  0.1933
    1DPPC   C1A  653   3.999   7.108   6.067  0.0301  0.0819  0.0088
    1DPPC   C2A  654   3.630   7.107   5.798 -0.1619 -0.1608 -0.2635
    1DPPC   C3A  655   3.436   7.422   5.547 -0.1363  0.2520  0.1892
    1DPPC   C4A  656   3.031   7.489   5.463  0.0842  0.0130 -0.0572
    1DPPC   C1B  657   4.466   7.053   5.728  0.2577 -0.1084  0.0859
    1DPPC   C2B  658   4.180   6.909   5.433  0.1817  0.1375  0.1644
    1DPPC   C3B  659   4.094   6.839   4.953  0.3742  0.0831 -0.4782
    1DPPC   C4B  660   4.322   6.990   4.689  0.0970 -0.5393  0.2014
    1DPPC   NC3  661  20.370  14.612   6.393  0.3268 -0.2292 -0.4196
    1DPPC   PO4  662  20.848  14.520   6.333  0.1085  0.2182  0.1454
    1DPPC   GL1  663  20.730  14.658   5.958 -0.0371  0.1461 -0.0168
    1DPPC   GL2  664  20.456  14.551   5.879  0.0634 -0.0617  0.1612
    1DPPC   C1A  665  20.810  14.635   5.479 -0.1531  0.4203  0.1090
    1DPPC   C2A  666  20.872  14.528   5.225  0.1584  0.1215  0.2669
    1DPPC   C3A  667  21.198  14.660   4.895  0.1537  0.0807  0.2367
    1DPPC   C4A  668  21.073  14.668   4.465  0.0578 -0.0690  0.0324
    1DPPC   C1B  669  20.311  14.436   5.493  0.1154  0.0765  0.0432
    1DPPC   C2B  670  20.333  14.425   5.160 -0.1461 -0.0923  0.0963
    1DPPC   C3B  671  20.564  14.377   4.753 -0.2546  0.2074  0.0153
    1DPPC   C4B  672  20.726  14.354   4.325  0.1524  0.2959  0.1128
    1DPPC   NC3  673  19.306   9.171   6.279  0.1669  0.2775  0.1050
    1DPPC   PO4  674  19.649   8.815   6.149 -0.0630 -0.2025 -0.0875
    1DPPC   GL1  675  19.834   8.740   5.782 -0.1849  0.0380 -0.0872
    1DPPC   GL2  676  20.094   8.552   5.722  0.0281  0.0313  0.0164
    1DPPC   C1A  677  19.690   8.901   5.389 -0.2594  0.1503  0.2420
    1DPPC   C2A  678  19.545   9.008   4.978 -0.2012  0.0231  0.0114
    1DPPC   C3A  679  19.535   9.130   4.469  0.0898 -0.1428  0.0248
    1DPPC   C4A  680  19.957   9.206   4.199 -0.0960 -0.1501 -0.0963
    1DPPC   C1B  681  20.199   8.355   5.275  0.0031  0.0809 -0.0639
    1DPPC   C2B  682  20.206   8.116   4.829 -0.1343  0.0011  0.0837
    1DPPC   C3B  683  20.439   7.926   4.619  0.1301  0.0167 -0.1768
    1DPPC   C4B  684  20.408   7.632   4.259  0.2019  0.0337  0.1210
    1DPPC   NC3  685   1.965  15.287   6.283 -0.1680 -0.1416  0.1434
    1DPPC   PO4  686   2.070  14.887   6.098 -0.0783  0.1248 -0.2455
    1DPPC   GL1  687   2.165  14.799   5.682  0.1883 -0.2429  0.2092
    1DPPC   GL2  688   1.789  14.691   5.679  0.3041 -0.4261 -0.3908
    1DPPC   C1A  689   2.040  14.729   5.268  0.2494 -0.1312 -0.0890
    1DPPC   C2A  690   1.999  14.431   4.933 -0.2152 -0.1763 -0.1011
    1DPPC   C3A  691   1.750  14.271   4.501 -0.1826  0.2269  0.2256
    1DPPC   C4A  692   1.312  14.142   4.243 -0.1944  0.1006  0.0741
    1DPPC   C1B  693   1.639  14.969   5.279  0.0307 -0.1115  0.2693
    1DPPC   C2B  694   1.639  15.231   4.920  0.1274  0.1807  0.0922
    1DPPC   C3B  695   1.403  15.595   4.892 -0.1582  0.1490  0.0671
    1DPPC   C4B  696   1.337  15.995   5.153  0.1221  0.2271  0.0035
    1DPPC   NC3  697  15.601  21.457   6.416  0.3378 -0.0237 -0.0854
    1DPPC   PO4  698  15.521  21.014   6.398 -0.2404  0.0279  0.2180
    1DPPC   GL1  699  15.361  21.185   6.035  0.0653  0.1261  0.4232
    1DPPC   GL2  700  15.388  21.488   5.947  0.3266  0.1800  0.0339
    1DPPC   C1A  701  15.062  21.052   5.644 -0.0715 -0.1654  0.1543
    1DPPC   C2A  702  15.034  20.787   5.323  0.0269  0.1122  0.0575
    1DPPC   C3A  703  14.920  20.835   4.957  0.1301 -0.3003 -0.2726
    1DPPC   C4A  704  14.711  21.001   4.596 -0.0631 -0.0883  0.2913
    1DPPC   C1B  705  15.490  21.392   5.520  0.1210  0.0990 -0.0049
    1DPPC   C2B  706  15.587  21.490   5.160 -0.0397 -0.0878 -0.0124
    1DPPC   C3B  707  15.771  21.366   4.766  0.0539  0.0762 -0.1643
    1DPPC   C4B  708  15.985  21.137   4.339 -0.0059  0.2872 -0.2782
    1DPPC   NC3  709  20.309  10.554   6.217  0.0679 -0.0707 -0.2868
    1DPPC   PO4  710  20.663  10.272   6.331  0.0478 -0.2125  0.0804
    1DPPC   GL1  711  20.841  10.117   5.980  0.1312 -0.1437  0.0560
    1DPPC   GL2  712  21.057  10.289   5.779  0.1838  0.2106 -0.1960
    1DPPC   C1A  713  20.979   9.778   5.610 -0.2004 -0.1894 -0.1085
    1DPPC   C2A  714  21.040   9.620   5.204 -0.1263 -0.2060 -0.0102
    1DPPC   C3A  715  21.490   9.486   4.990 -0.1044 -0.0482 -0.1737
    1DPPC   C4A  716  21.908   9.713   4.985  0.0288 -0.0629  0.1429
    1DPPC   C1B  717  21.052  10.264   5.336  0.3060  0.0411 -0.0849
    1DPPC   C2B  718  21.066  10.091   4.897 -0.0555 -0.0264 -0.1190
    1DPPC   C3B  719  21.094   9.689   4.718 -0.4426 -0.1277 -0.1152
    1DPPC   C4B  720  21.267   9.246   4.611 -0.1140  0.1081  0.1346
    1DPPC   NC3  721   4.784  11.566   6.805 -0.0967 -0.3156  0.0723
    1DPPC   PO4  722   4.842  11.752   6.437  0.1184  0.0333 -0.0781
    1DPPC   GL1  723   4.900  11.528   6.041 -0.2067 -0.0048 -0.0404
    1DPPC   GL2  724   4.744  11.825   5.887  0.2041  0.0421  0.2640
    1DPPC   C1A  725   4.434  11.489   5.770  0.1646 -0.1194  0.0101
    1DPPC   C2A  726   4.230  11.379   5.355  0.2242  0.0162  0.2517
    1DPPC   C3A  727   4.042  11.502   5.039 -0.0417  0.4282  0.0147
    1DPPC   C4A  728   3.858  11.310   4.648 -0.2163 -0.4852 -0.0518
    1DPPC   C1B  729   4.521  11.886   5.438  0.0617 -0.0345 -0.4819
    1DPPC   C2B  730   4.310  11.943   5.029  0.1360  0.0037  0.1814
    1DPPC   C3B  731   4.039  12.296   4.923 -0.0343 -0.2371 -0.3462
    1DPPC   C4B  732   3.762  12.426   4.706 -0.3102  0.2103  0.1368
    1DPPC   NC3  733  19.726  19.157   7.069 -0.0100  0.1372  0.1874
    1DPPC   PO4  734  19.717  18.906   6.734 -0.3269 -0.0260  0.1074
    1DPPC   GL1  735  19.586  19.311   6.418  0.2078 -0.0625  0.0639
    1DPPC   GL2  736  19.442  19.160   6.286  0.1793  0.2667 -0.1258
    1DPPC   C1A  737  19.785  19.741   6.204  0.0913  0.1120  0.2576
    1DPPC   C2A  738  19.933  19.938   5.827  0.0077 -0.0763  0.3819
    1DPPC   C3A  739  20.178  19.845   5.459  0.1806 -0.0046 -0.0584
    1DPPC   C4A  740  20.174  19.634   5.151  0.1422 -0.1236 -0.0513
    1DPPC   C1B  741  19.453  19.255   5.834 -0.2039  0.0327 -0.1933
    1DPPC   C2B  742  19.376  19.165   5.410  0.2604 -0.1563  0.2017
    1DPPC   C3B  743  19.311  19.149   4.913  0.1536 -0.1027 -0.3128
    1DPPC   C4B  744  18.984  18.846   4.759 -0.0150  0.1093 -0.0971
    1DPPC   NC3  745  18.487   9.372   6.393  0.1924  0.1704  0.2345
    1DPPC   PO4  746  18.950   9.567   6.316  0.1586 -0.1535 -0.1866
    1DPPC   GL1  747  19.027   9.821   5.921  0.0503 -0.1170 -0.0564
    1DPPC   GL2  748  19.233   9.507   5.863  0.2831  0.2362  0.1535
    1DPPC   C1A  749  19.090   9.966   5.505  0.0563  0.1414 -0.4358
    1DPPC   C2A  750  19.074   9.995   5.131  0.0991 -0.0045 -0.1368
    1DPPC   C3A  751  19.185   9.974   4.642  0.2393 -0.0761  0.0533
    1DPPC   C4A  752  19.058   9.898   4.218 -0.0426  0.1862 -0.0373
    1DPPC   C1B  753  19.281   9.518   5.368 -0.1171  0.0150  0.0231
    1DPPC   C2B  754  19.314   9.493   4.917 -0.0859  0.0230  0.2025
    1DPPC   C3B  755  19.158   9.459   4.508 -0.5647 -0.1173  0.0715
    1DPPC   C4B  756  18.950   9.417   4.099 -0.2542 -0.1425 -0.0907
    1DPPC   NC3  757  14.946  19.429   6.659 -0.1293 -0.1192  0.3196
    1DPPC   PO4  758  15.299  19.406   6.998 -0.1129 -0.2633 -0.1458
    1DPPC   GL1  759  15.505  19.365   6.500  0.0975  0.1493 -0.0865
    1DPPC   GL2  760  15.659  19.646   6.508  0.1775 -0.2025 -0.0241
    1DPPC   C1A  761  15.635  19.355   6.094  0.1674  0.0485  0.0996
    1DPPC   C2A  762  15.800  19.367   5.665  0.0213  0.3074 -0.2217
    1DPPC   C3A  763  16.056  19.349   5.296 -0.0350  0.0763 -0.0701
    1DPPC   C4A  764  16.123  19.386   4.928 -0.1322  0.0380  0.0057
    1DPPC   C1B  765  15.694  19.844   6.193 -0.3136 -0.0784  0.0751
    1DPPC   C2B  766  15.697  19.816   5.744 -0.1479  0.0702 -0.1645
    1DPPC   C3B  767  15.659  19.704   5.278  0.1775 -0.0560 -0.1966
    1DPPC   C4B  768  15.703  19.883   4.872 -0.1096 -0.0585 -0.2383
    1DPPC   NC3  769  16.258  15.622   6.860  0.1081 -0.2653 -0.0406
    1DPPC   PO4  770  16.685  15.606   6.629  0.2022  0.2436 -0.1109
    1DPPC   GL1  771  16.946  15.950   6.366 -0.2789  0.0487  0.2139
    1DPPC   GL2  772  16.782  15.853   6.158  0.0534 -0.0516 -0.0737
    1DPPC   C1A  773  17.088  16.335   5.977 -0.4456  0.1701 -0.0230
    1DPPC   C2A  774  17.075  16.302   5.506  0.1148  0.2996 -0.3398
    1DPPC   C3A  775  17.442  16.403   5.256 -0.0567 -0.2984 -0.0414
    1DPPC   C4A  776  17.636  16.341   4.774 -0.0669  0.1247  0.0773
    1DPPC   C1B  777  16.817  15.914   5.687 -0.1804  0.1733  0.1264
    1DPPC   C2B  778  16.770  15.899   5.325  0.0308  0.3586 -0.0054
    1DPPC   C3B  779  17.024  16.075   5.053 -0.3045  0.0304 -0.1767
    1DPPC   C4B  780  17.079  16.505   4.755 -0.1713  0.0071 -0.2172
    1DPPC   NC3  781  12.386  16.131   6.870  0.1335 -0.3213  0.0919
    1DPPC   PO4  782  12.250  15.863   6.626  0.1198  0.1197  0.3561
    1DPPC   GL1  783  12.053  15.894   6.275 -0.4669  0.2967  0.0136
    1DPPC   GL2  784  11.924  15.630   6.283 -0.3734 -0.0200 -0.2578
    1DPPC   C1A  785  12.208  15.906   5.934  0.1244 -0.0190  0.1628
    1DPPC   C2A  786  12.512  15.818   5.640 -0.1483  0.2502 -0.2070
    1DPPC   C3A  787  12.665  15.566   5.223 -0.0035  0.0182 -0.0729
    1DPPC   C4A  788  12.594  15.590   4.837  0.0113 -0.3044 -0.1865
    1DPPC   C1B  789  11.749  15.623   5.896  0.2486 -0.2779  0.0429
    1DPPC   C2B  790  11.903  15.663   5.534 -0.1451 -0.1392 -0.1755
    1DPPC   C3B  791  12.220  15.780   5.238  0.2395  0.2012 -0.1063
    1DPPC   C4B  792  12.480  16.151   5.175 -0.1901  0.1702 -0.3467
    1DPPC   NC3  793  16.288   9.653   6.553 -0.0378 -0.0263  0.0161
    1DPPC   PO4  794  16.040   9.282   6.773 -0.1165 -0.2023 -0.1216
    1DPPC   GL1  795  16.121   9.109   6.373 -0.1172 -0.3779 -0.0291
    1DPPC   GL2  796  15.894   8.841   6.439  0.0134  0.1834  0.0587
    1DPPC   C1A  797  15.958   9.079   5.868  0.1253 -0.0376  0.0510
    1DPPC   C2A  798  15.823   9.068   5.472  0.2838  0.1167 -0.1083
    1DPPC   C3A  799  15.877   9.069   4.972 -0.0443 -0.0116 -0.0919
    1DPPC   C4A  800  15.613   8.929   4.656 -0.2274 -0.0838 -0.2247
    1DPPC   C1B  801  15.543   8.733   6.299 -0.0192  0.0117 -0.0935
    1DPPC   C2B  802  15.509   8.795   5.829 -0.2663  0.1851 -0.1390
    1DPPC   C3B  803  15.389   8.632   5.346 -0.0706 -0.0756  0.1383
    1DPPC   C4B  804  15.351   8.567   4.919  0.1485 -0.0820 -0.3390
    1DPPC   NC3  805  14.521  13.835   6.823  0.0855  0.1576  0.0872
    1DPPC   PO4  806  14.907  14.020   6.881  0.1755  0.0627  0.1492
    1DPPC   GL1  807  14.780  14.044   6.460 -0.0766  0.0616 -0.2758
    1DPPC   GL2  808  14.533  14.193   6.363  0.0432  0.0621 -0.0061
    1DPPC   C1A  809  14.854  14.087   6.037  0.0882  0.0945 -0.1120
    1DPPC   C2A  810  14.744  14.280   5.676  0.2979  0.0821  0.0712
    1DPPC   C3A  811  14.699  14.390   5.375  0.3439 -0.3022 -0.0425
    1DPPC   C4A  812  14.658  14.529   4.948 -0.1374 -0.1880 -0.0051
    1DPPC   C1B  813  14.363  14.402   6.035 -0.0369 -0.3373 -0.1223
    1DPPC   C2B  814  14.264  14.448   5.611 -0.1073 -0.0539 -0.3574
    1DPPC   C3B  815  14.274  14.264   5.240 -0.1514 -0.0724 -0.0435
    1DPPC   C4B  816  14.073  14.398   4.820  0.0818  0.0842  0.2823
    1DPPC   NC3  817  20.803   5.720   6.491 -0.1398 -0.1717 -0.1257
    1DPPC   PO4  818  20.377   5.864   6.383  0.1264  0.1742 -0.2835
    1DPPC   GL1  819  20.418   6.056   6.000 -0.1712 -0.3111 -0.0700
    1DPPC   GL2  820  20.295   6.306   6.028 -0.2710 -0.1600  0.1484
    1DPPC   C1A  821  20.525   6.100   5.606 -0.2517  0.2711 -0.0057
    1DPPC   C2A  822  20.764   5.918   5.214 -0.0093 -0.3965 -0.0810
    1DPPC   C3A  823  20.747   6.004   4.846  0.0708 -0.3293  0.0783
    1DPPC   C4A  824  20.393   5.992   4.501 -0.1334 -0.0358  0.1720
    1DPPC   C1B  825  20.279   6.548   5.572  0.1908  0.4803 -0.0108
    1DPPC   C2B  826  20.278   6.831   5.424 -0.1608 -0.0341  0.0113
    1DPPC   C3B  827  20.465   7.231   5.310  0.1891 -0.0006 -0.0993
    1DPPC   C4B  828  20.765   7.333   5.110 -0.0723 -0.3438  0.1062
    1DPPC   NC3  829  27.580   9.482   6.586 -0.0528 -0.1614 -0.2528
    1DPPC   PO4  830  27.309   9.779   6.369 -0.0320  0.0771  0.2553
    1DPPC   GL1  831  27.249   9.794   5.942 -0.0566 -0.0696 -0.1865
    1DPPC   GL2  832  27.308  10.176   5.841  0.2421  0.0304 -0.2211
    1DPPC   C1A  833  27.410   9.794   5.529 -0.0194  0.1745  0.1729
    1DPPC   C2A  834  27.441   9.750   5.093 -0.0304  0.0722 -0.2088
    1DPPC   C3A  835  27.550   9.525   4.781  0.1654  0.0312 -0.1046
    1DPPC   C4A  836  27.693   9.090   4.867  0.2061  0.1478  0.1069
    1DPPC   C1B  837  27.444  10.270   5.388  0.0168 -0.2057  0.0344
    1DPPC   C2B  838  27.692  10.509   4.964 -0.1703 -0.1060 -0.1893
    1DPPC   C3B  839  27.985  10.358   4.628  0.0901 -0.1538 -0.1086
    1DPPC   C4B  840  28.306  10.199   4.484  0.2315  0.1473 -0.0505
    1DPPC   NC3  841   9.239  16.679   6.570  0.1189 -0.0433 -0.2520
    1DPPC   PO4  842   9.328  16.372   6.278  0.0402 -0.1191  0.3159
    1DPPC   GL1  843   9.229  16.112   5.954  0.2157 -0.2136 -0.0239
    1DPPC   GL2  844   9.128  16.309   5.770  0.2013  0.0941 -0.0026
    1DPPC   C1A  845   9.314  15.834   5.581  0.2300  0.2091 -0.0701
    1DPPC   C2A  846   9.374  15.734   5.220  0.1185 -0.0002  0.2712
    1DPPC   C3A  847   9.513  15.511   4.908  0.1250 -0.3055  0.1292
    1DPPC   C4A  848   9.765  15.250   4.645 -0.0921  0.1505 -0.0905
    1DPPC   C1B  849   9.215  16.307   5.319  0.2220  0.4523  0.1394
    1DPPC   C2B  850   9.353  16.147   4.930 -0.2133  0.0552 -0.1891
    1DPPC   C3B  851   9.585  15.930   4.637 -0.2016 -0.0980 -0.0900
    1DPPC   C4B  852   9.569  15.648   4.343 -0.2540  0.1952 -0.0469
    1DPPC   NC3  853  18.297  19.004   7.489  0.1249 -0.0379  0.1563
    1DPPC   PO4  854  18.215  18.765   7.072 -0.0743  0.0960 -0.0592
    1DPPC   GL1  855  18.164  18.678   6.663 -0.2404  0.2039 -0.2682
    1DPPC   GL2  856  17.868  18.764   6.669 -0.2787  0.1040 -0.1075
    1DPPC   C1A  857  18.217  18.503   6.242 -0.1916 -0.0124 -0.1189
    1DPPC   C2A  858  18.001  18.566   5.863  0.0963 -0.1070  0.1423
    1DPPC   C3A  859  17.998  18.581   5.429  0.3118  0.0424 -0.1063
    1DPPC   C4A  860  18.069  18.634   4.960 -0.1975 -0.2993 -0.0114
    1DPPC   C1B  861  17.793  18.755   6.271 -0.0413 -0.1454 -0.3307
    1DPPC   C2B  862  17.706  18.937   5.901 -0.2748 -0.2695  0.2818
    1DPPC   C3B  863  17.818  19.032   5.506 -0.2346 -0.0199  0.1408
    1DPPC   C4B  864  17.975  19.096   5.098 -0.0720 -0.0034 -0.0978
    1DPPC   NC3  865  15.133  16.306   6.668  0.3387 -0.0249 -0.1490
    1DPPC   PO4  866  15.194  16.718   6.897  0.0137  0.1154  0.0212
    1DPPC   GL1  867  15.483  16.608   6.431  0.0767  0.0701 -0.0930
    1DPPC   GL2  868  15.752  16.516   6.384 -0.2579  0.2554  0.2064
    1DPPC   C1A  869  15.251  16.516   6.018  0.0499 -0.0725  0.1562
    1DPPC   C2A  870  15.068  16.562   5.646  0.2893 -0.0751  0.0526
    1DPPC   C3A  871  15.152  16.606   5.263  0.0635 -0.0939  0.1189
    1DPPC   C4A  872  15.355  16.636   4.846  0.0010 -0.0802 -0.2142
    1DPPC   C1B  873  15.668  16.720   5.929 -0.1996  0.0978  0.1972
    1DPPC   C2B  874  15.784  16.851   5.534 -0.1451 -0.0304  0.1292
    1DPPC   C3B  875  15.765  16.681   5.217 -0.0133 -0.0935 -0.0723
    1DPPC   C4B  876  15.866  16.597   4.723 -0.0866 -0.1248  0.2206
    1DPPC   NC3  877  20.229  11.829   6.799  0.3281  0.3040 -0.0647
    1DPPC   PO4  878  19.904  11.996   6.609 -0.1959 -0.0787  0.3228
    1DPPC   GL1  879  19.959  11.992   6.205 -0.0444 -0.1589  0.1290
    1DPPC   GL2  880  19.803  11.799   5.987  0.0417 -0.0905  0.0521
    1DPPC   C1A  881  20.143  12.193   5.862 -0.0682 -0.0480  0.2051
    1DPPC   C2A  882  20.097  12.333   5.522 -0.0122  0.2518  0.1360
    1DPPC   C3A  883  19.975  12.337   5.191  0.1706 -0.3375 -0.3759
    1DPPC   C4A  884  19.772  12.062   4.825  0.2504 -0.1280  0.0649
    1DPPC   C1B  885  19.882  11.910   5.558  0.2258 -0.1724  0.2159
    1DPPC   C2B  886  20.079  11.714   5.150 -0.1739  0.3925 -0.3805
    1DPPC   C3B  887  20.230  11.677   4.799  0.2301  0.3134 -0.2133
    1DPPC   C4B  888  20.220  11.502   4.278 -0.2669 -0.2058  0.4052
    1DPPC   NC3  889  19.365  12.335   6.603  0.0069 -0.0127 -0.0833
    1DPPC   PO4  890  19.485  12.854   6.511 -0.0046 -0.0616 -0.0596
    1DPPC   GL1  891  19.722  12.874   6.159  0.3043 -0.0350  0.0225
    1DPPC   GL2  892  19.804  12.489   6.181 -0.2789 -0.1923  0.1229
    1DPPC   C1A  893  19.461  12.803   5.731  0.0144 -0.1452  0.0525
    1DPPC   C2A  894  19.447  12.777   5.248 -0.0615 -0.2682 -0.1746
    1DPPC   C3A  895  19.537  12.622   4.895 -0.2066 -0.0059 -0.0824
    1DPPC   C4A  896  19.760  12.454   4.507 -0.2636 -0.1931  0.0657
    1DPPC   C1B  897  19.648  12.348   5.764 -0.0435 -0.0429  0.0718
    1DPPC   C2B  898  19.513  12.227   5.301 -0.2705 -0.0228 -0.0464
    1DPPC   C3B  899  19.217  12.041   4.956 -0.2563  0.0104 -0.1527
    1DPPC   C4B  900  19.251  12.135   4.492  0.2702 -0.1543  0.1193
    1DPPC   NC3  901  21.068  14.921   6.634 -0.1857 -0.1440 -0.3411
    1DPPC   PO4  902  21.358  14.780   6.335 -0.0312 -0.0090  0.0327
    1DPPC   GL1  903  21.070  15.066   6.004  0.2605  0.1211  0.1027
    1DPPC   GL2  904  21.101  15.457   5.949  0.2968 -0.0477 -0.0811
    1DPPC   C1A  905  20.946  15.112   5.580 -0.0367 -0.3212 -0.1763
    1DPPC   C2A  906  21.029  15.166   5.177 -0.1033  0.2440  0.1330
    1DPPC   C3A  907  21.106  15.164   4.784 -0.1828 -0.0721 -0.1533
    1DPPC   C4A  908  21.024  15.149   4.390 -0.2935 -0.0012  0.0017
    1DPPC   C1B  909  21.159  15.892   5.697 -0.0443 -0.4555 -0.1057
    1DPPC   C2B  910  21.174  16.157   5.358 -0.1159 -0.0134 -0.0203
    1DPPC   C3B  911  21.297  16.306   4.921 -0.0497 -0.1145  0.0609
    1DPPC   C4B  912  21.648  16.481   4.653  0.1128 -0.1967  0.0767
    1DPPC   NC3  913   9.141  13.882   7.013 -0.0164  0.0738  0.0072
    1DPPC   PO4  914   8.893  13.629   6.725 -0.1191  0.2094 -0.0222
    1DPPC   GL1  915   8.963  13.558   6.304  0.1258  0.1633  0.1693
    1DPPC   GL2  916   9.330  13.325   6.358  0.0032  0.2589 -0.0628
    1DPPC   C1A  917   8.590  13.481   5.939 -0.0918  0.1210 -0.1754
    1DPPC   C2A  918   8.722  13.511   5.503  0.1838  0.2399 -0.0590
    1DPPC   C3A  919   8.813  13.467   5.206  0.0975 -0.1881 -0.1118
    1DPPC   C4A  920   8.694  13.474   4.757  0.0365 -0.1284 -0.0557
    1DPPC   C1B  921   9.582  13.273   6.008 -0.1057 -0.2467 -0.0822
    1DPPC   C2B  922   9.709  13.122   5.620 -0.0645 -0.2089 -0.1053
    1DPPC   C3B  923   9.800  12.995   5.222  0.0187  0.3174 -0.1410
    1DPPC   C4B  924   9.972  13.144   4.899 -0.0303 -0.1326 -0.0365
    1DPPC   NC3  925  20.531   8.619   6.662 -0.0696  0.0471 -0.1272
    1DPPC   PO4  926  20.682   8.862   6.241 -0.0859  0.2776  0.1517
    1DPPC   GL1  927  20.559   8.755   5.917  0.4316  0.2728  0.2588
    1DPPC   GL2  928  20.667   8.388   5.879  0.3049  0.1378  0.2869
    1DPPC   C1A  929  20.596   8.661   5.442  0.2138 -0.1244  0.1278
    1DPPC   C2A  930  20.662   8.370   5.053 -0.1527  0.0955  0.1282
    1DPPC   C3A  931  20.849   8.192   4.676  0.1077 -0.2638  0.1476
    1DPPC   C4A  932  20.973   7.925   4.310 -0.1439 -0.0290 -0.1331
    1DPPC   C1B  933  20.634   8.072   5.469 -0.0585  0.0734  0.0241
    1DPPC   C2B  934  20.638   7.843   5.044 -0.1967 -0.1670 -0.2978
    1DPPC   C3B  935  20.878   7.628   4.735  0.1834 -0.5290 -0.1972
    1DPPC   C4B  936  20.872   7.287   4.620 -0.0831  0.5262  0.0928
    1DPPC   NC3  937  18.184  13.230   6.620 -0.1981 -0.0024  0.2825
    1DPPC   PO4  938  18.334  13.422   6.299 -0.0090 -0.2945  0.2162
    1DPPC   GL1  939  18.442  13.163   5.963 -0.1406  0.2482  0.0584
    1DPPC   GL2  940  18.174  13.023   5.753 -0.1036 -0.0285 -0.1788
    1DPPC   C1A  941  18.622  13.221   5.618 -0.2353  0.0061  0.2317
    1DPPC   C2A  942  18.602  13.297   5.134 -0.2384  0.2324  0.1562
    1DPPC   C3A  943  18.665  13.149   4.753  0.1439 -0.3194  0.1405
    1DPPC   C4A  944  18.727  13.054   4.346 -0.3053  0.4791 -0.0959
    1DPPC   C1B  945  18.201  13.106   5.338  0.0690 -0.1302 -0.0342
    1DPPC   C2B  946  18.164  13.119   4.957  0.1108  0.1970 -0.1609
    1DPPC   C3B  947  18.149  13.248   4.597  0.1361 -0.2057 -0.3018
    1DPPC   C4B  948  18.394  13.562   4.363  0.0207 -0.0636 -0.3286
    1DPPC   NC3  949  10.794  20.060   6.577 -0.0370 -0.1666 -0.3960
    1DPPC   PO4  950  10.856  19.744   6.508  0.1164 -0.3448  0.0197
    1DPPC   GL1  951  11.147  19.686   6.272 -0.0029 -0.3239 -0.2823
    1DPPC   GL2  952  11.372  19.979   6.328 -0.0112  0.1426  0.0926
    1DPPC   C1A  953  11.558  19.578   6.105  0.0350  0.1244  0.2304
    1DPPC   C2A  954  11.653  19.453   5.712  0.0011 -0.1435  0.3974
    1DPPC   C3A  955  11.687  19.328   5.218 -0.0342 -0.3649  0.0719
    1DPPC   C4A  956  11.606  19.546   4.886 -0.0065 -0.0103 -0.0935
    1DPPC   C1B  957  11.350  20.014   5.914  0.1545  0.1431  0.0016
    1DPPC   C2B  958  11.066  20.176   5.521 -0.0226  0.1000 -0.0682
    1DPPC   C3B  959  10.893  20.248   5.111  0.3388 -0.0165 -0.2657
    1DPPC   C4B  960  10.857  20.224   4.776  0.0352  0.0766 -0.0897
    1DPPC   NC3  961  15.665  14.642   6.999 -0.1791  0.0684 -0.2985
    1DPPC   PO4  962  15.364  14.839   6.690  0.2523 -0.2007  0.0487
    1DPPC   GL1  963  15.282  14.745   6.266 -0.0365 -0.0006 -0.3668
    1DPPC   GL2  964  15.599  14.707   6.066  0.1921  0.3538 -0.0752
    1DPPC   C1A  965  15.016  14.617   5.932 -0.0426 -0.1988 -0.1386
    1DPPC   C2A  966  15.036  14.734   5.477 -0.3626  0.0988  0.2898
    1DPPC   C3A  967  15.083  14.795   5.114  0.0952 -0.2609  0.1446
    1DPPC   C4A  968  15.095  14.771   4.735 -0.0274  0.1082 -0.0627
    1DPPC   C1B  969  15.592  14.787   5.690  0.1880 -0.1193  0.3270
    1DPPC   C2B  970  15.547  14.740   5.333  0.2407 -0.3045 -0.0581
    1DPPC   C3B  971  15.523  14.613   4.972 -0.2659  0.2696  0.1691
    1DPPC   C4B  972  15.680  14.704   4.596 -0.0022 -0.1620 -0.3276
    1DPPC   NC3  973  14.724  15.461   6.671  0.0032  0.4424  0.0514
    1DPPC   PO4  974  15.114  15.268   6.842  0.0865  0.1882  0.1176
    1DPPC   GL1  975  15.232  15.298   6.443  0.0073 -0.3041  0.1367
    1DPPC   GL2  976  15.588  15.174   6.433 -0.0998  0.0291 -0.2150
    1DPPC   C1A  977  15.114  15.185   6.140  0.3924  0.1678  0.0218
    1DPPC   C2A  978  15.204  15.136   5.712 -0.1164  0.4255  0.0125
    1DPPC   C3A  979  15.269  15.211   5.329  0.0049 -0.1410  0.0631
    1DPPC   C4A  980  15.117  15.301   4.932 -0.2796  0.0987  0.0736
    1DPPC   C1B  981  15.700  15.168   6.030 -0.1167 -0.1089  0.1613
    1DPPC   C2B  982  15.723  15.345   5.609 -0.0968  0.1317 -0.1119
    1DPPC   C3B  983  15.714  15.239   5.167  0.0614  0.0125 -0.1937
    1DPPC   C4B  984  15.566  15.101   4.878  0.1913 -0.0382  0.2875
    1DPPC   NC3  985  12.303  17.781   7.029  0.0967  0.1474  0.2668
    1DPPC   PO4  986  12.522  18.164   6.626  0.0730  0.0771  0.1899
    1DPPC   GL1  987  12.780  18.125   6.252 -0.0665 -0.0408  0.2685
    1DPPC   GL2  988  13.093  17.900   6.168  0.0294  0.0016  0.0225
    1DPPC   C1A  989  12.795  18.029   5.760  0.0696 -0.0846  0.0520
    1DPPC   C2A  990  12.715  18.004   5.403 -0.1574  0.0938 -0.1443
    1DPPC   C3A  991  12.679  18.465   5.162 -0.0654  0.0285 -0.1901
    1DPPC   C4A  992  12.571  18.871   5.238 -0.1165  0.1976 -0.1319
    1DPPC   C1B  993  13.223  17.807   5.909 -0.2393  0.0249  0.2002
    1DPPC   C2B  994  13.152  17.806   5.412  0.0845  0.0840  0.0909
    1DPPC   C3B  995  13.148  17.670   5.069  0.1378  0.0595 -0.0666
    1DPPC   C4B  996  13.172  17.788   4.573  0.0110 -0.2716 -0.2948
    1DPPC   NC3  997  15.524  24.013   5.989  0.1023 -0.1548 -0.1794
    1DPPC   PO4  998  15.446  23.640   6.080 -0.1319 -0.1210  0.2259
    1DPPC   GL1  999  15.526  23.296   5.882 -0.0355  0.2313 -0.0744
    1DPPC   GL2 1000  15.299  23.393   5.616  0.0590 -0.0808  0.0889
    1DPPC   C1A 1001  15.918  23.262   5.540 -0.4139 -0.1690  0.0741
    1DPPC   C2A 1002  16.136  23.217   5.182 -0.0668  0.0400  0.0907
    1DPPC   C3A 1003  16.446  23.045   4.993 -0.4132  0.0328  0.3226
    1DPPC   C4A 1004  16.678  23.313   4.764  0.0888  0.2686 -0.0011
    1DPPC   C1B 1005  15.448  23.436   5.186  0.2202  0.0124 -0.1430
    1DPPC   C2B 1006  15.776  23.568   4.947  0.2711 -0.0296 -0.3376
    1DPPC   C3B 1007  16.151  23.411   4.695 -0.1974 -0.0712  0.1395
    1DPPC   C4B 1008  16.362  23.132   4.389  0.0574 -0.4902  0.3311
    1DPPC   NC3 1009  15.875   7.980   6.653  0.1685 -0.1573  0.1153
    1DPPC   PO4 1010  15.501   7.791   6.912  0.3201 -0.3654  0.0004
    1DPPC   GL1 1011  15.246   7.874   6.478  0.0335  0.0649 -0.0123
    1DPPC   GL2 1012  15.270   8.306   6.479  0.4486 -0.2399  0.1163
    1DPPC   C1A 1013  15.462   8.002   6.180  0.2882 -0.2171 -0.1036
    1DPPC   C2A 1014  15.582   8.263   5.726  0.0657  0.2473  0.0760
    1DPPC   C3A 1015  15.652   8.240   5.345  0.1737 -0.3736 -0.0171
    1DPPC   C4A 1016  15.570   8.098   4.910  0.1696  0.2721  0.0949
    1DPPC   C1B 1017  15.195   8.432   5.996  0.0250 -0.1175  0.0531
    1DPPC   C2B 1018  15.064   8.288   5.647 -0.3642  0.1116 -0.1859
    1DPPC   C3B 1019  15.162   8.143   5.316 -0.1345  0.2709  0.1238
    1DPPC   C4B 1020  15.082   8.148   4.918 -0.0888 -0.0490 -0.0517
    1DPPC   NC3 1021  19.495  10.649   6.251 -0.1952  0.1261 -0.2807
    1DPPC   PO4 1022  19.852  10.508   6.059 -0.1705  0.1486  0.0164
    1DPPC   GL1 1023  20.122  10.460   5.702  0.0437 -0.0766 -0.3982
    1DPPC   GL2 1024  20.367  10.281   5.813  0.2368  0.2435 -0.1587
    1DPPC   C1A 1025  20.188  10.318   5.298 -0.0888  0.2485  0.0767
    1DPPC   C2A 1026  20.075  10.290   4.896 -0.0195 -0.1767  0.1112
    1DPPC   C3A 1027  20.207  10.243   4.531 -0.2081  0.2558  0.1176
    1DPPC   C4A 1028  20.306  10.083   4.076  0.1520 -0.1838 -0.1411
    1DPPC   C1B 1029  20.613  10.072   5.491  0.1365  0.0157  0.1964
    1DPPC   C2B 1030  20.549  10.096   5.013 -0.0072  0.4230 -0.0930
    1DPPC   C3B 1031  20.625   9.995   4.601  0.0690  0.2757 -0.0217
    1DPPC   C4B 1032  21.102  10.111   4.402 -0.1134 -0.1500  0.0608
    1DPPC   NC3 1033  17.900  16.988   6.680 -0.0927  0.1272 -0.2694
    1DPPC   PO4 1034  17.690  16.666   6.785  0.2789 -0.1074  0.1223
    1DPPC   GL1 1035  17.450  17.074   6.501  0.0695  0.0814  0.1880
    1DPPC   GL2 1036  17.108  17.270   6.642 -0.2232  0.2129 -0.0903
    1DPPC   C1A 1037  17.533  17.402   6.163 -0.2161  0.0905  0.2567
    1DPPC   C2A 1038  17.536  17.615   5.781  0.2815 -0.3570  0.0783
    1DPPC   C3A 1039  17.551  17.663   5.303 -0.0223  0.0377 -0.0415
    1DPPC   C4A 1040  17.515  17.401   4.946 -0.0977 -0.0909  0.1833
    1DPPC   C1B 1041  17.025  17.242   6.212 -0.2405 -0.0212  0.1954
    1DPPC   C2B 1042  17.160  17.274   5.823 -0.0113 -0.3623 -0.3727
    1DPPC   C3B 1043  17.224  17.300   5.419 -0.3520 -0.0498 -0.0143
    1DPPC   C4B 1044  16.975  17.193   5.143 -0.1820 -0.2518  0.1463
    1DPPC   NC3 1045   8.731  14.731   6.798  0.0658  0.1101  0.1235
    1DPPC   PO4 1046   8.357  14.427   6.696  0.2528  0.1449 -0.2181
    1DPPC   GL1 1047   8.498  14.477   6.280  0.2325 -0.1227 -0.1590
    1DPPC   GL2 1048   8.790  14.457   6.342 -0.0904  0.0635  0.2014
    1DPPC   C1A 1049   8.449  14.388   5.909  0.0562  0.1091  0.2065
    1DPPC   C2A 1050   8.646  14.294   5.591 -0.0668  0.1772 -0.2102
    1DPPC   C3A 1051   8.563  14.381   5.248  0.2785 -0.1255 -0.0445
    1DPPC   C4A 1052   8.663  14.512   4.834 -0.1142  0.0554  0.0038
    1DPPC   C1B 1053   8.933  14.554   5.951 -0.4216  0.2118 -0.0595
    1DPPC   C2B 1054   9.130  14.461   5.597 -0.1899  0.4321 -0.0137
    1DPPC   C3B 1055   9.082  14.254   5.187  0.3623 -0.0130 -0.2069
    1DPPC   C4B 1056   8.915  13.981   4.983 -0.2561  0.1291  0.0965
    1DPPC   NC3 1057  14.328  11.448   6.822 -0.0403  0.0574  0.0200
    1DPPC   PO4 1058  14.048  11.719   6.937  0.2264 -0.0156 -0.1790
    1DPPC   GL1 1059  14.072  11.706   6.461 -0.1115  0.1426  0.1422
    1DPPC   GL2 1060  14.284  11.874   6.478  0.0219 -0.0269 -0.0682
    1DPPC   C1A 1061  14.077  11.612   6.104  0.4554  0.0545 -0.1801
    1DPPC   C2A 1062  14.056  11.555   5.627  0.3281  0.2606  0.0502
    1DPPC   C3A 1063  13.714  11.722   5.400  0.2669 -0.0807 -0.2940
    1DPPC   C4A 1064  13.600  11.784   4.992  0.2462  0.0161  0.0133
    1DPPC   C1B 1065  13.937  12.069   6.134 -0.0895 -0.0834  0.0198
    1DPPC   C2B 1066  13.950  12.100   5.671 -0.0010  0.3258 -0.2244
    1DPPC   C3B 1067  13.770  12.218   5.306 -0.0661 -0.2384  0.0406
    1DPPC   C4B 1068  13.696  12.319   4.892  0.1850  0.2089 -0.1556
    1DPPC   NC3 1069  15.766  16.543   6.862 -0.0887  0.0223  0.1348
    1DPPC   PO4 1070  15.761  17.015   6.592 -0.2801 -0.1832 -0.1101
    1DPPC   GL1 1071  15.877  16.981   6.282 -0.1351  0.0932 -0.0309
    1DPPC   GL2 1072  15.572  17.169   6.096  0.1292 -0.1353  0.0168
    1DPPC   C1A 1073  16.156  17.093   5.887  0.1182  0.3271 -0.3686
    1DPPC   C2A 1074  16.386  17.119   5.578  0.2583 -0.1199  0.0071
    1DPPC   C3A 1075  16.433  17.265   5.152  0.1444 -0.0448 -0.1063
    1DPPC   C4A 1076  16.557  17.653   4.962  0.0579 -0.0215  0.1025
    1DPPC   C1B 1077  15.654  17.332   5.737  0.0978  0.0849 -0.5082
    1DPPC   C2B 1078  15.910  17.284   5.340  0.1421  0.2000 -0.0376
    1DPPC   C3B 1079  16.078  17.460   4.844  0.3784 -0.1514 -0.1827
    1DPPC   C4B 1080  15.980  17.574   4.454  0.0344 -0.4356  0.3067
    1DPPC   NC3 1081  22.961  18.121   7.119 -0.1229 -0.3399 -0.3096
    1DPPC   PO4 1082  23.193  18.270   6.710 -0.2851  0.1112 -0.1871
    1DPPC   GL1 1083  23.173  18.232   6.295  0.1144  0.0962  0.1174
    1DPPC   GL2 1084  23.172  17.900   6.126 -0.1079  0.0317 -0.0040
    1DPPC   C1A 1085  23.283  18.442   5.907 -0.1952  0.0741 -0.1405
    1DPPC   C2A 1086  23.218  18.749   5.618  0.2827  0.1960  0.0235
    1DPPC   C3A 1087  22.830  18.663   5.337 -0.2205  0.3385 -0.3644
    1DPPC   C4A 1088  22.605  18.764   5.116  0.2541 -0.0339 -0.1023
    1DPPC   C1B 1089  22.922  18.093   5.775  0.0453 -0.0012 -0.1311
    1DPPC   C2B 1090  22.647  18.138   5.397 -0.0753  0.1498 -0.0025
    1DPPC   C3B 1091  22.268  17.933   5.085  0.1168  0.3151 -0.1392
    1DPPC   C4B 1092  21.929  17.992   4.801  0.1790  0.2785  0.0936
    1DPPC   NC3 1093  21.337  23.234   7.017  0.1352  0.2182  0.0028
    1DPPC   PO4 1094  21.720  23.029   6.874 -0.1419  0.1792  0.1362
    1DPPC   GL1 1095  21.751  23.100   6.429 -0.0229 -0.0801 -0.0440
    1DPPC   GL2 1096  21.783  22.767   6.318 -0.1073 -0.0588 -0.1674
    1DPPC   C1A 1097  21.374  22.886   6.157 -0.2614 -0.2012 -0.0230
    1DPPC   C2A 1098  21.075  22.803   5.930  0.1586  0.1541 -0.2286
    1DPPC   C3A 1099  20.799  22.777   5.580 -0.1675  0.1613  0.0721
    1DPPC   C4A 1100  20.641  22.554   5.193 -0.1093 -0.1359  0.0457
    1DPPC   C1B 1101  21.857  22.858   5.930  0.0918  0.0804  0.0586
    1DPPC   C2B 1102  21.741  22.769   5.503 -0.0895  0.0691  0.2893
    1DPPC   C3B 1103  21.261  22.563   5.461  0.1222 -0.2815 -0.0528
    1DPPC   C4B 1104  20.836  22.288   5.571  0.0491  0.1767  0.1703
    1DPPC   NC3 1105  19.591  15.474   6.490  0.1553  0.0880  0.2567
    1DPPC   PO4 1106  19.436  15.093   6.684 -0.0211 -0.0733  0.0072
    1DPPC   GL1 1107  19.427  14.987   6.267  0.2093 -0.4298 -0.0550
    1DPPC   GL2 1108  19.380  14.717   6.107 -0.0410  0.1121  0.1516
    1DPPC   C1A 1109  19.599  15.100   5.902 -0.0103  0.0224  0.1230
    1DPPC   C2A 1110  19.656  15.118   5.451 -0.0142  0.2727 -0.1079
    1DPPC   C3A 1111  19.720  15.114   5.018  0.1078  0.1420 -0.0546
    1DPPC   C4A 1112  19.627  14.900   4.648 -0.1558  0.1684  0.1443
    1DPPC   C1B 1113  19.399  14.735   5.670 -0.1496 -0.0095  0.0384
    1DPPC   C2B 1114  19.464  14.676   5.257  0.1523 -0.2558 -0.2236
    1DPPC   C3B 1115  19.343  14.481   4.819  0.0204 -0.1526  0.3091
    1DPPC   C4B 1116  19.432  14.477   4.440  0.0110  0.2343 -0.2661
    1DPPC   NC3 1117  29.445  22.286   6.271  0.2318 -0.0281 -0.1295
    1DPPC   PO4 1118  29.007  22.104   6.412 -0.1166  0.0340  0.0091
    1DPPC   GL1 1119  29.096  21.972   6.008  0.1643 -0.3626  0.1066
    1DPPC   GL2 1120  28.832  21.722   5.815  0.2510  0.2285  0.0325
    1DPPC   C1A 1121  29.352  21.813   5.671 -0.2138 -0.2884  0.1831
    1DPPC   C2A 1122  29.236  21.399   5.456 -0.0427  0.0328  0.0235
    1DPPC   C3A 1123  29.053  21.245   5.086  0.0292  0.1392  0.4132
    1DPPC   C4A 1124  28.875  21.180   4.645  0.0397 -0.3357 -0.0565
    1DPPC   C1B 1125  28.900  21.853   5.431  0.3363  0.1726 -0.2641
    1DPPC   C2B 1126  28.768  22.175   5.147 -0.3489  0.0344  0.0310
    1DPPC   C3B 1127  28.640  22.066   4.668  0.1202  0.0976  0.3184
    1DPPC   C4B 1128  28.243  22.210   4.459  0.0741  0.5049  0.2385
    1DPPC   NC3 1129  23.468  16.511   6.315  0.1996  0.3167 -0.0097
    1DPPC   PO4 1130  23.884  16.577   6.306 -0.0604  0.0155 -0.3672
    1DPPC   GL1 1131  23.818  16.738   5.928 -0.0164 -0.0970 -0.0590
    1DPPC   GL2 1132  23.509  16.692   5.817  0.1078 -0.1854  0.0229
    1DPPC   C1A 1133  24.014  16.815   5.548 -0.1929  0.2338 -0.0009
    1DPPC   C2A 1134  24.187  16.863   5.068  0.3169  0.1351 -0.0926
    1DPPC   C3A 1135  24.000  16.788   4.707  0.1736  0.3431  0.3030
    1DPPC   C4A 1136  23.864  16.347   4.589  0.2179  0.0463  0.1880
    1DPPC   C1B 1137  23.538  16.734   5.499 -0.1455 -0.0483  0.0793
    1DPPC   C2B 1138  23.283  16.876   5.113 -0.0525 -0.0344  0.1819
    1DPPC   C3B 1139  22.923  16.766   4.771  0.1641 -0.0300 -0.0032
    1DPPC   C4B 1140  22.786  16.502   4.462  0.0194  0.0542 -0.1077
    1DPPC   NC3 1141  10.046  15.435   6.615 -0.1358  0.0549 -0.2243
    1DPPC   PO4 1142   9.747  15.127   6.714  0.1053 -0.0397 -0.3942
    1DPPC   GL1 1143   9.556  14.930   6.402  0.0563 -0.2355  0.1129
    1DPPC   GL2 1144   9.244  14.700   6.388 -0.1103 -0.1021 -0.1398
    1DPPC   C1A 1145   9.474  14.917   5.933  0.0956  0.0892  0.3941
    1DPPC   C2A 1146   9.546  14.742   5.453  0.3050 -0.1134 -0.0824
    1DPPC   C3A 1147   9.463  14.501   5.015  0.0004 -0.1592 -0.0307
    1DPPC   C4A 1148   9.601  14.321   4.617  0.1278  0.1528  0.0591
    1DPPC   C1B 1149   9.450  14.440   6.144  0.2549  0.3163 -0.4739
    1DPPC   C2B 1150   9.606  14.325   5.847  0.3277 -0.1170 -0.1115
    1DPPC   C3B 1151   9.566  14.142   5.412 -0.0098 -0.0072 -0.0149
    1DPPC   C4B 1152   9.465  13.973   5.009  0.0165 -0.2021  0.1060
    1DPPC   NC3 1153  18.882  11.082   6.382  0.2399 -0.1695 -0.0767
    1DPPC   PO4 1154  18.500  10.905   6.205  0.2264 -0.1944  0.0983
    1DPPC   GL1 1155  18.610  10.682   5.813  0.1222 -0.0592 -0.1164
    1DPPC   GL2 1156  18.800  10.422   5.882  0.0334 -0.1984  0.5246
    1DPPC   C1A 1157  18.888  10.897   5.430  0.0416  0.1190  0.0722
    1DPPC   C2A 1158  18.822  11.046   5.022 -0.1068  0.5180  0.3079
    1DPPC   C3A 1159  18.870  10.859   4.659  0.2560  0.0848 -0.1277
    1DPPC   C4A 1160  18.480  10.825   4.438  0.1033  0.2298 -0.1311
    1DPPC   C1B 1161  18.731  10.406   5.421  0.0365  0.1539  0.1709
    1DPPC   C2B 1162  18.611  10.559   5.071 -0.0603 -0.3690  0.1134
    1DPPC   C3B 1163  18.308  10.439   4.756 -0.0952 -0.0985  0.2767
    1DPPC   C4B 1164  18.065  10.265   4.386 -0.2706 -0.1424 -0.0125
    1DPPC   NC3 1165  13.108  19.700   6.999 -0.1564  0.1566 -0.1940
    1DPPC   PO4 1166  13.084  20.179   6.827  0.0014 -0.1632  0.0897
    1DPPC   GL1 1167  13.077  19.903   6.523 -0.2198  0.5917 -0.1979
    1DPPC   GL2 1168  13.405  19.970   6.355  0.1151 -0.1378  0.1256
    1DPPC   C1A 1169  12.949  19.570   6.240 -0.0857  0.1214  0.0702
    1DPPC   C2A 1170  12.791  19.339   5.928  0.1923 -0.0267 -0.1576
    1DPPC   C3A 1171  12.671  18.943   5.695 -0.0223  0.1942 -0.0277
    1DPPC   C4A 1172  12.754  18.515   5.623 -0.0548  0.1710  0.0620
    1DPPC   C1B 1173  13.764  19.893   5.944 -0.1598 -0.1103  0.1952
    1DPPC   C2B 1174  13.696  19.893   5.523  0.0114 -0.3078 -0.0516
    1DPPC   C3B 1175  13.556  19.947   5.125  0.1532  0.3294  0.1823
    1DPPC   C4B 1176  13.558  19.712   4.805 -0.2146 -0.0589  0.1751
    1DPPC   NC3 1177  15.571  11.595   7.253  0.1322  0.1695 -0.2782
    1DPPC   PO4 1178  15.624  11.396   6.834  0.0926  0.0619  0.1581
    1DPPC   GL1 1179  15.546  11.118   6.487 -0.2564  0.1409 -0.0077
    1DPPC   GL2 1180  15.631  11.316   6.278 -0.1231 -0.1787 -0.0682
    1DPPC   C1A 1181  15.410  10.807   6.221 -0.1555  0.0482  0.1523
    1DPPC   C2A 1182  15.322  10.770   5.774  0.2030 -0.2994  0.0154
    1DPPC   C3A 1183  15.234  10.784   5.369  0.0846  0.0935 -0.2472
    1DPPC   C4A 1184  15.437  10.728   4.925 -0.3992  0.1394  0.2211
    1DPPC   C1B 1185  15.627  11.144   5.826 -0.2043  0.0585  0.0513
    1DPPC   C2B 1186  15.623  11.136   5.378  0.3901  0.2461 -0.0253
    1DPPC   C3B 1187  15.544  11.226   4.964 -0.0820  0.0022 -0.0042
    1DPPC   C4B 1188  15.509  11.012   4.515  0.3332 -0.1622 -0.1599
    1DPPC   NC3 1189  18.521   7.088   6.495 -0.2362  0.1155  0.0520
    1DPPC   PO4 1190  18.655   7.529   6.530  0.0836  0.0670  0.0707
    1DPPC   GL1 1191  18.702   7.312   6.125  0.1008  0.3394 -0.1249
    1DPPC   GL2 1192  19.054   7.425   5.938  0.1988 -0.2471 -0.2121
    1DPPC   C1A 1193  18.439   7.371   5.743  0.1612 -0.0599 -0.2089
    1DPPC   C2A 1194  18.279   7.411   5.451 -0.0823  0.0664  0.4510
    1DPPC   C3A 1195  17.986   7.568   5.364  0.1306 -0.3004 -0.3170
    1DPPC   C4A 1196  17.563   7.543   5.529  0.0658  0.0952 -0.1430
    1DPPC   C1B 1197  19.222   7.446   5.569 -0.0178 -0.3713  0.0444
    1DPPC   C2B 1198  19.245   7.493   5.170  0.0658  0.0164 -0.0771
    1DPPC   C3B 1199  19.374   7.358   4.717  0.1769  0.1079  0.0417
    1DPPC   C4B 1200  19.499   7.403   4.295 -0.0887 -0.0463  0.1742
    1DPPC   NC3 1201  20.597  15.832   6.763  0.2744 -0.2334 -0.2731
    1DPPC   PO4 1202  20.423  15.422   6.526  0.2787  0.0909 -0.1700
    1DPPC   GL1 1203  20.175  15.649   6.191 -0.1128 -0.1645 -0.0011
    1DPPC   GL2 1204  19.814  15.567   6.038  0.0095 -0.1830  0.2983
    1DPPC   C1A 1205  20.133  15.805   5.748  0.1156  0.1127  0.2422
    1DPPC   C2A 1206  20.084  15.891   5.308  0.0548 -0.1019  0.0897
    1DPPC   C3A 1207  20.338  15.930   4.968  0.1088 -0.2712  0.0886
    1DPPC   C4A 1208  20.546  16.174   4.648  0.1242 -0.0741 -0.0190
    1DPPC   C1B 1209  19.596  15.627   5.650 -0.0234 -0.2489 -0.2571
    1DPPC   C2B 1210  19.589  15.758   5.145  0.3572  0.2392  0.0811
    1DPPC   C3B 1211  19.288  15.826   4.721  0.0011  0.1983  0.0223
    1DPPC   C4B 1212  19.027  16.127   4.479  0.0876  0.0481  0.1304
    1DPPC   NC3 1213  10.663  15.214   7.032  0.0009 -0.1126  0.0222
    1DPPC   PO4 1214  10.427  15.112   6.674 -0.1164 -0.0385  0.3633
    1DPPC   GL1 1215  10.466  15.356   6.311 -0.0396 -0.3468 -0.2642
    1DPPC   GL2 1216  10.818  15.500   6.194  0.1669  0.1537  0.2833
    1DPPC   C1A 1217  10.232  15.481   5.885  0.1263 -0.1145  0.2015
    1DPPC   C2A 1218  10.323  15.351   5.455  0.0397  0.2731  0.2339
    1DPPC   C3A 1219  10.505  15.558   5.117  0.2243  0.0537  0.0161
    1DPPC   C4A 1220  10.604  15.745   4.705 -0.0898 -0.1351 -0.0175
    1DPPC   C1B 1221  10.738  15.263   5.726 -0.2466 -0.0776  0.0879
    1DPPC   C2B 1222  10.800  15.175   5.288 -0.0183  0.0007  0.0090
    1DPPC   C3B 1223  10.853  15.319   4.799 -0.0929  0.1223  0.2883
    1DPPC   C4B 1224  11.109  15.579   4.560  0.1470  0.0944  0.1837
    1DPPC   NC3 1225  16.326  20.202   6.828  0.2282  0.3047 -0.1931
    1DPPC   PO4 1226  16.143  19.773   6.741 -0.2978 -0.1653 -0.1646
    1DPPC   GL1 1227  16.196  19.877   6.374  0.0541  0.0546 -0.1010
    1DPPC   GL2 1228  16.459  20.005   6.382  0.0548  0.2535 -0.0918
    1DPPC   C1A 1229  16.151  19.872   5.968  0.1564 -0.0671  0.1140
    1DPPC   C2A 1230  16.094  19.862   5.443 -0.2224  0.3604  0.0581
    1DPPC   C3A 1231  16.047  20.144   5.216  0.3137 -0.2613  0.1550
    1DPPC   C4A 1232  15.785  20.480   4.953  0.0990 -0.0344 -0.3673
    1DPPC   C1B 1233  16.570  20.215   6.032  0.2503  0.4216  0.0729
    1DPPC   C2B 1234  16.601  20.042   5.634 -0.1345  0.4131  0.1744
    1DPPC   C3B 1235  16.539  20.128   5.166  0.0478 -0.1049  0.3256
    1DPPC   C4B 1236  16.330  19.814   4.915 -0.0580  0.0047 -0.4745
    1DPPC   NC3 1237  21.784  14.303   6.675 -0.0851  0.1303  0.2281
    1DPPC   PO4 1238  21.991  14.683   6.513 -0.0600 -0.4023  0.2907
    1DPPC   GL1 1239  22.051  14.577   6.060 -0.0362  0.2183  0.0143
    1DPPC   GL2 1240  22.246  14.552   5.809  0.0351  0.0088  0.0434
    1DPPC   C1A 1241  21.777  14.355   5.689 -0.3347 -0.1264  0.0371
    1DPPC   C2A 1242  21.805  14.412   5.298 -0.0556 -0.0841  0.1978
    1DPPC   C3A 1243  21.755  14.514   4.781  0.1709  0.1051  0.1480
    1DPPC   C4A 1244  21.495  14.420   4.443 -0.1416 -0.1120 -0.0915
    1DPPC   C1B 1245  22.268  14.628   5.431 -0.0946 -0.1131  0.1184
    1DPPC   C2B 1246  22.482  14.668   5.076 -0.0033 -0.2259  0.1205
    1DPPC   C3B 1247  22.494  14.674   4.623 -0.0574 -0.2029  0.0967
    1DPPC   C4B 1248  22.677  14.795   4.289 -0.0018 -0.1024 -0.1545
    1DPPC   NC3 1249  12.911  23.687   6.080 -0.1721 -0.2503 -0.1619
    1DPPC   PO4 1250  12.802  23.246   6.262 -0.0241  0.0158 -0.0086
    1DPPC   GL1 1251  12.652  23.277   5.908 -0.1806 -0.0129  0.0177
    1DPPC   GL2 1252  12.256  23.370   5.764  0.0235  0.2997  0.3506
    1DPPC   C1A 1253  12.793  23.203   5.476  0.1761  0.0454  0.0787
    1DPPC   C2A 1254  12.780  23.168   5.141 -0.2503 -0.2849 -0.2983
    1DPPC   C3A 1255  12.817  22.758   4.832 -0.0125 -0.0316 -0.0967
    1DPPC   C4A 1256  12.838  22.509   4.499  0.0319 -0.1860 -0.0098
    1DPPC   C1B 1257  12.339  23.469   5.307  0.0183  0.0255  0.2421
    1DPPC   C2B 1258  12.253  23.382   4.969 -0.2569  0.3408  0.1540
    1DPPC   C3B 1259  12.090  23.342   4.649 -0.2031 -0.2580  0.3158
    1DPPC   C4B 1260  11.757  23.508   4.543  0.0556 -0.1704 -0.0048
    1DPPC   NC3 1261   7.830  18.036   6.429 -0.1546 -0.5205  0.2251
    1DPPC   PO4 1262   8.307  18.115   6.277  0.0102 -0.1005  0.1518
    1DPPC   GL1 1263   8.420  17.922   5.867 -0.1934 -0.0588 -0.2723
    1DPPC   GL2 1264   8.474  17.529   5.823 -0.1490 -0.1864 -0.1374
    1DPPC   C1A 1265   8.832  17.871   5.607 -0.2699  0.1329 -0.0598
    1DPPC   C2A 1266   8.856  17.902   5.120 -0.1841 -0.3578 -0.0732
    1DPPC   C3A 1267   8.852  18.264   4.915 -0.0494 -0.0404  0.1639
    1DPPC   C4A 1268   8.896  18.554   4.564  0.1386  0.0660 -0.1396
    1DPPC   C1B 1269   8.537  17.487   5.495 -0.1169  0.1347 -0.0940
    1DPPC   C2B 1270   8.394  17.635   5.120 -0.0879  0.2001 -0.2349
    1DPPC   C3B 1271   8.440  17.957   4.815 -0.1528 -0.0559 -0.0727
    1DPPC   C4B 1272   8.601  17.946   4.426  0.0203 -0.0792 -0.3947
    1DPPC   NC3 1273  16.331  18.488   7.039  0.1969  0.0059 -0.0664
    1DPPC   PO4 1274  16.533  18.119   6.692 -0.2613 -0.1060  0.2553
    1DPPC   GL1 1275  16.350  18.032   6.333 -0.0342 -0.1075  0.2441
    1DPPC   GL2 1276  16.518  17.741   6.306  0.1789 -0.0345  0.0295
    1DPPC   C1A 1277  16.372  18.330   6.002  0.0680 -0.0747 -0.1738
    1DPPC   C2A 1278  16.335  18.412   5.595 -0.0785  0.4250 -0.3938
    1DPPC   C3A 1279  16.351  18.488   5.157  0.0741 -0.0797 -0.1573
    1DPPC   C4A 1280  16.300  18.617   4.717 -0.2034  0.1937  0.2168
    1DPPC   C1B 1281  16.679  17.893   5.915 -0.1935  0.1642  0.1174
    1DPPC   C2B 1282  16.793  18.137   5.476  0.1766  0.1684 -0.3038
    1DPPC   C3B 1283  16.728  18.163   5.156 -0.2501 -0.1937  0.0295
    1DPPC   C4B 1284  16.711  18.189   4.616 -0.1302  0.0750 -0.0569
    1DPPC   NC3 1285  18.624  27.521   6.853  0.0515 -0.1085  0.0101
    1DPPC   PO4 1286  18.634  27.981   6.774 -0.1210  0.0709 -0.2901
    1DPPC   GL1 1287  18.510  27.859   6.325  0.1551 -0.1081 -0.2821
    1DPPC   GL2 1288  18.828  27.715   6.341  0.3883 -0.0680 -0.2108
    1DPPC   C1A 1289  18.469  27.740   5.919 -0.0386  0.3146 -0.1293
    1DPPC   C2A 1290  18.658  27.676   5.551 -0.0664  0.1128  0.1598
    1DPPC   C3A 1291  18.879  27.527   5.217  0.0763  0.2971 -0.1115
    1DPPC   C4A 1292  18.961  27.635   4.832 -0.0163  0.1511  0.2136
    1DPPC   C1B 1293  19.033  27.645   5.935  0.1019 -0.1028  0.0283
    1DPPC   C2B 1294  19.177  27.839   5.565  0.2455  0.3252 -0.0991
    1DPPC   C3B 1295  19.211  28.024   5.121 -0.1016 -0.0048  0.1452
    1DPPC   C4B 1296  19.315  28.479   4.868  0.0528  0.0448 -0.0129
    1DPPC   NC3 1297   0.398  12.932   6.535  0.0919  0.2645 -0.2500
    1DPPC   PO4 1298  -0.036  12.750   6.348 -0.2952 -0.3098  0.0249
    1DPPC   GL1 1299  -0.062  12.702   5.932  0.2441  0.0142 -0.1496
    1DPPC   GL2 1300  -0.250  12.638   5.587  0.1219 -0.5894  0.0502
    1DPPC   C1A 1301   0.218  12.890   5.708  0.2781 -0.0149 -0.0093
    1DPPC   C2A 1302   0.218  13.083   5.230 -0.4125 -0.1252  0.1964
    1DPPC   C3A 1303   0.397  13.259   4.783  0.0529  0.0220  0.3437
    1DPPC   C4A 1304   0.748  13.360   4.736 -0.1054  0.0406 -0.1771
    1DPPC   C1B 1305  -0.146  12.712   5.163 -0.1201 -0.3138 -0.1284
    1DPPC   C2B 1306   0.047  12.761   4.728 -0.1361 -0.2233 -0.2357
    1DPPC   C3B 1307   0.296  12.777   4.423 -0.1393  0.3986  0.0846
    1DPPC   C4B 1308   0.543  13.098   4.303 -0.1271 -0.0329 -0.1681
    1DPPC   NC3 1309  16.153  10.417   6.581  0.0634 -0.2188 -0.0382
    1DPPC   PO4 1310  15.867  10.068   6.520 -0.1397 -0.2866 -0.0196
    1DPPC   GL1 1311  15.641  10.125   6.111  0.1929  0.0101 -0.3992
    1DPPC   GL2 1312  15.375   9.975   6.137  0.1262  0.0680 -0.0626
    1DPPC   C1A 1313  15.539  10.303   5.744  0.0138 -0.2886  0.3230
    1DPPC   C2A 1314  15.371  10.373   5.249  0.1585  0.1030 -0.0663
    1DPPC   C3A 1315  15.411  10.178   4.876  0.1486  0.0521  0.1615
    1DPPC   C4A 1316  15.388  10.197   4.426  0.0068 -0.0945 -0.0428
    1DPPC   C1B 1317  15.198   9.931   5.689  0.1836  0.0270 -0.0313
    1DPPC   C2B 1318  15.106   9.914   5.235  0.0817 -0.3771 -0.1348
    1DPPC   C3B 1319  14.880   9.951   4.979 -0.0384 -0.1376 -0.2600
    1DPPC   C4B 1320  14.590  10.185   4.770 -0.1007  0.1153 -0.0346
    1DPPC   NC3 1321  11.132  20.823   6.879  0.4857 -0.0901 -0.0234
    1DPPC   PO4 1322  10.804  20.657   6.589  0.1575 -0.1500 -0.0889
    1DPPC   GL1 1323  10.688  20.691   6.152  0.3372  0.2119  0.0387
    1DPPC   GL2 1324  10.766  21.007   6.074  0.0680  0.1891  0.0529
    1DPPC   C1A 1325  10.668  20.507   5.712 -0.1440 -0.1785  0.3281
    1DPPC   C2A 1326  10.551  20.550   5.336  0.1885 -0.3772  0.0680
    1DPPC   C3A 1327  10.313  20.428   5.087 -0.0904  0.1494 -0.0944
    1DPPC   C4A 1328  10.302  20.354   4.712 -0.1691 -0.0427 -0.0481
    1DPPC   C1B 1329  11.109  21.028   5.782 -0.2531  0.1087 -0.0565
    1DPPC   C2B 1330  11.048  20.705   5.412  0.1207 -0.2605 -0.0456
    1DPPC   C3B 1331  10.893  20.733   4.998  0.3038 -0.2509  0.0855
    1DPPC   C4B 1332  11.002  20.743   4.582  0.0389 -0.1455  0.0951
    1DPPC   NC3 1333   9.565  19.476   6.442 -0.0492 -0.0551 -0.0888
    1DPPC   PO4 1334   9.852  19.135   6.442 -0.1940 -0.1246 -0.0562
    1DPPC   GL1 1335  10.055  19.267   6.079 -0.0590 -0.1888  0.1487
    1DPPC   GL2 1336   9.862  19.549   5.999  0.3866  0.0943 -0.0662
    1DPPC   C1A 1337  10.162  19.127   5.621  0.1175 -0.2492 -0.0784
    1DPPC   C2A 1338  10.231  18.868   5.228 -0.2875  0.3314  0.1917
    1DPPC   C3A 1339  10.404  18.757   4.832 -0.0149  0.0205 -0.1212
    1DPPC   C4A 1340  10.718  18.495   4.635  0.1284  0.2775  0.0393
    1DPPC   C1B 1341   9.787  19.506   5.545  0.4638 -0.1537 -0.2698
    1DPPC   C2B 1342   9.893  19.473   5.046 -0.3467 -0.1988 -0.0038
    1DPPC   C3B 1343  10.051  19.572   4.592  0.1897 -0.3108  0.0095
    1DPPC   C4B 1344   9.904  20.043   4.461 -0.2617 -0.0353 -0.2199
    1DPPC   NC3 1345  21.386  13.034   6.159 -0.2153  0.0028  0.0751
    1DPPC   PO4 1346  21.193  13.357   6.242 -0.1205  0.1059  0.0388
    1DPPC   GL1 1347  21.247  13.449   5.850 -0.0867 -0.0604 -0.2211
    1DPPC   GL2 1348  21.033  13.667   5.852  0.0205 -0.3219 -0.1713
    1DPPC   C1A 1349  21.603  13.500   5.517  0.0488  0.1230 -0.0119
    1DPPC   C2A 1350  21.628  13.536   5.009  0.1126 -0.0195 -0.1751
    1DPPC   C3A 1351  21.763  13.556   4.569  0.0828 -0.0685  0.1884
    1DPPC   C4A 1352  21.907  13.617   4.081  0.0819  0.2706 -0.0534
    1DPPC   C1B 1353  20.657  13.647   5.643 -0.0786  0.1017 -0.0649
    1DPPC   C2B 1354  20.565  13.555   5.213 -0.1788 -0.1222  0.1655
    1DPPC   C3B 1355  20.819  13.367   4.937  0.3585  0.0522  0.0048
    1DPPC   C4B 1356  20.900  13.327   4.513  0.0711 -0.0180 -0.0676
    1DPPC   NC3 1357   9.898  23.837   6.372  0.3072  0.1660 -0.0492
    1DPPC   PO4 1358   9.774  24.062   5.934  0.0192  0.2113  0.0571
    1DPPC   GL1 1359   9.566  23.997   5.588  0.1704  0.0721  0.0240
    1DPPC   GL2 1360   9.315  23.881   5.588 -0.3511  0.1839  0.1876
    1DPPC   C1A 1361   9.497  24.043   5.051 -0.0114 -0.1970 -0.2366
    1DPPC   C2A 1362   9.707  24.143   4.585  0.0695  0.2691  0.0537
    1DPPC   C3A 1363   9.796  23.769   4.409  0.0480  0.0766 -0.1554
    1DPPC   C4A 1364  10.027  23.381   4.462  0.0220  0.1228  0.3791
    1DPPC   C1B 1365   8.987  23.855   5.359  0.1313 -0.1632 -0.1421
    1DPPC   C2B 1366   8.919  23.721   4.962  0.0123 -0.2094 -0.0982
    1DPPC   C3B 1367   8.737  23.775   4.579  0.0416 -0.1738  0.3000
    1DPPC   C4B 1368   8.470  23.721   4.246 -0.1330 -0.4345 -0.0120
    1DPPC   NC3 1369  16.840  18.947   7.457  0.2983  0.0700 -0.0878
    1DPPC   PO4 1370  17.038  19.161   7.147  0.1415 -0.1522 -0.1319
    1DPPC   GL1 1371  17.024  19.211   6.702 -0.2007  0.0382  0.2379
    1DPPC   GL2 1372  16.799  19.050   6.476  0.1202 -0.3923  0.0948
    1DPPC   C1A 1373  17.115  19.612   6.418  0.1412 -0.1684 -0.1435
    1DPPC   C2A 1374  16.979  20.022   6.152 -0.1403  0.4131  0.1670
    1DPPC   C3A 1375  17.164  20.254   5.876 -0.1102  0.1088  0.0446
    1DPPC   C4A 1376  17.092  20.137   5.506 -0.0906 -0.0252  0.1406
    1DPPC   C1B 1377  16.482  19.070   6.128 -0.0370 -0.1125  0.1424
    1DPPC   C2B 1378  16.420  18.903   5.645 -0.1583  0.0432 -0.1140
    1DPPC   C3B 1379  16.428  18.969   5.239  0.0660 -0.0004 -0.2271
    1DPPC   C4B 1380  16.647  19.164   4.965  0.0816 -0.0677  0.2024
    1DPPC   NC3 1381  21.650  16.695   6.885 -0.1415 -0.0785 -0.1783
    1DPPC   PO4 1382  21.531  16.275   6.492  0.2129  0.3353  0.0443
    1DPPC   GL1 1383  21.605  16.310   6.055 -0.1167  0.1021  0.0757
    1DPPC   GL2 1384  21.925  16.395   5.906  0.0372  0.1512  0.2184
    1DPPC   C1A 1385  21.236  16.535   5.708 -0.1377  0.0587 -0.0460
    1DPPC   C2A 1386  21.276  16.777   5.252  0.2805 -0.3877  0.2151
    1DPPC   C3A 1387  21.220  16.915   4.857 -0.2206  0.2212 -0.0238
    1DPPC   C4A 1388  21.178  17.147   4.628 -0.0528  0.0142  0.1261
    1DPPC   C1B 1389  21.681  16.420   5.554 -0.0757  0.3688 -0.0845
    1DPPC   C2B 1390  21.683  16.587   5.146  0.0716 -0.1609  0.0183
    1DPPC   C3B 1391  21.977  16.811   4.779 -0.1662 -0.0542 -0.0926
    1DPPC   C4B 1392  22.296  16.643   4.562 -0.2474 -0.0931 -0.0143
    1DPPC   NC3 1393  14.592  12.041   7.033  0.0418  0.1532 -0.0158
    1DPPC   PO4 1394  14.753  11.702   6.736 -0.2694  0.3333  0.0548
    1DPPC   GL1 1395  14.784  11.940   6.381  0.1655  0.0152 -0.1908
    1DPPC   GL2 1396  14.979  11.876   6.180  0.1434 -0.2641 -0.0565
    1DPPC   C1A 1397  14.502  11.978   5.997  0.0015  0.1496 -0.0906
    1DPPC   C2A 1398  14.445  11.907   5.552 -0.0429 -0.1213 -0.2758
    1DPPC   C3A 1399  14.231  11.959   5.218  0.5220  0.1086 -0.1817
    1DPPC   C4A 1400  14.065  12.001   4.910  0.2140 -0.1339 -0.0435
    1DPPC   C1B 1401  15.014  11.764   5.875 -0.1239  0.0765  0.0380
    1DPPC   C2B 1402  15.065  11.799   5.412 -0.0845 -0.0768  0.3562
    1DPPC   C3B 1403  15.086  11.676   4.953 -0.0564  0.0971 -0.0579
    1DPPC   C4B 1404  14.912  11.791   4.569 -0.1987  0.1704  0.0839
    1DPPC   NC3 1405  14.302  17.032   6.478  0.0942 -0.0389 -0.1905
    1DPPC   PO4 1406  13.993  17.216   6.685 -0.0590  0.3603  0.1251
    1DPPC   GL1 1407  13.988  17.333   6.222 -0.0229 -0.0390 -0.0936
    1DPPC   GL2 1408  13.983  17.054   6.013  0.0810  0.1008  0.2217
    1DPPC   C1A 1409  14.198  17.444   5.847 -0.2671  0.0559  0.1611
    1DPPC   C2A 1410  14.355  17.343   5.423 -0.1915  0.0134 -0.0681
    1DPPC   C3A 1411  14.420  17.448   4.997 -0.1563  0.2282  0.3144
    1DPPC   C4A 1412  14.400  17.466   4.628  0.0420 -0.0576  0.0068
    1DPPC   C1B 1413  14.098  16.925   5.647 -0.2070  0.0721 -0.1114
    1DPPC   C2B 1414  14.276  16.908   5.251 -0.1397 -0.0440 -0.0904
    1DPPC   C3B 1415  14.405  16.973   4.847 -0.0708  0.1169 -0.0705
    1DPPC   C4B 1416  14.681  17.034   4.487 -0.0621 -0.0192 -0.0064
    1DPPC   NC3 1417  16.612  16.671   6.725 -0.0448  0.0401  0.4243
    1DPPC   PO4 1418  16.920  16.380   6.620 -0.1521  0.0462 -0.0068
    1DPPC   GL1 1419  16.601  16.351   6.318  0.0046 -0.0319  0.1229
    1DPPC   GL2 1420  16.275  16.465   6.430 -0.1879  0.0246 -0.0299
    1DPPC   C1A 1421  16.577  16.292   5.858 -0.1564 -0.0101 -0.2516
    1DPPC   C2A 1422  16.473  16.301   5.379 -0.4004 -0.1270 -0.0378
    1DPPC   C3A 1423  16.573  16.328   4.959  0.0465 -0.0390  0.0489
    1DPPC   C4A 1424  16.801  16.130   4.580  0.0130 -0.1372  0.4352
    1DPPC   C1B 1425  16.138  16.211   6.198  0.2411 -0.1745 -0.0313
    1DPPC   C2B 1426  16.139  16.182   5.679 -0.1134 -0.1266  0.1732
    1DPPC   C3B 1427  16.030  16.280   5.176  0.2159 -0.0234 -0.3771
    1DPPC   C4B 1428  16.140  16.102   4.680 -0.2208 -0.3099 -0.1138
    1DPPC   NC3 1429  11.294  15.016   6.674 -0.0448 -0.0290 -0.0492
    1DPPC   PO4 1430  11.643  14.757   6.695  0.0573  0.0745 -0.0200
    1DPPC   GL1 1431  11.699  14.382   6.434 -0.1295 -0.0843  0.1978
    1DPPC   GL2 1432  11.524  14.059   6.417  0.3153  0.0116  0.0924
    1DPPC   C1A 1433  11.829  14.235   6.082 -0.1662  0.0713  0.1398
    1DPPC   C2A 1434  11.895  14.198   5.640 -0.2141  0.2000 -0.2770
    1DPPC   C3A 1435  11.943  14.220   5.215  0.1571 -0.0722  0.1610
    1DPPC   C4A 1436  11.949  14.324   4.857 -0.1212  0.2943  0.0298
    1DPPC   C1B 1437  11.328  14.093   6.024 -0.0532  0.1300  0.0628
    1DPPC   C2B 1438  11.049  13.693   5.715  0.1443 -0.0262  0.1403
    1DPPC   C3B 1439  11.173  13.541   5.289  0.0841 -0.0387 -0.2305
    1DPPC   C4B 1440  11.433  13.369   5.102 -0.2121 -0.0120  0.2760
    1DPPC   NC3 1441  13.539  17.226   6.482  0.1512  0.3516 -0.3965
    1DPPC   PO4 1442  13.159  16.937   6.510 -0.1516  0.3322  0.0661
    1DPPC   GL1 1443  12.993  17.104   6.251  0.1801 -0.0280  0.1332
    1DPPC   GL2 1444  13.162  17.312   6.068  0.1540  0.0733  0.2425
    1DPPC   C1A 1445  12.664  17.015   6.005 -0.0261  0.0724 -0.2407
    1DPPC   C2A 1446  12.570  16.936   5.579  0.3253 -0.0269 -0.1478
    1DPPC   C3A 1447  12.596  17.012   5.148  0.0552 -0.0458 -0.1958
    1DPPC   C4A 1448  12.285  16.943   4.858  0.1011 -0.1306  0.1720
    1DPPC   C1B 1449  13.318  17.333   5.627  0.0526 -0.0118 -0.3582
    1DPPC   C2B 1450  13.417  17.326   5.270 -0.0324 -0.2412 -0.1717
    1DPPC   C3B 1451  13.437  17.194   4.806  0.2031  0.0452  0.1893
    1DPPC   C4B 1452  13.611  16.876   4.550  0.0095 -0.1312 -0.1060
    1DPPC   NC3 1453  12.939  11.185   7.301  0.0452  0.0506  0.1211
    1DPPC   PO4 1454  12.595  11.404   7.085  0.0001 -0.2287  0.0769
    1DPPC   GL1 1455  12.339  11.303   6.719 -0.3394  0.0009 -0.1772
    1DPPC   GL2 1456  12.386  10.955   6.620  0.0859 -0.1224  0.0744
    1DPPC   C1A 1457  11.861  11.117   6.562  0.2111 -0.0843 -0.2593
    1DPPC   C2A 1458  11.555  10.798   6.465 -0.0351  0.1773  0.2734
    1DPPC   C3A 1459  11.355  10.846   6.019 -0.3186  0.0433  0.2337
    1DPPC   C4A 1460  11.136  10.832   5.560  0.0958  0.1127  0.1307
    1DPPC   C1B 1461  12.125  10.911   6.248 -0.2390 -0.1033  0.1553
    1DPPC   C2B 1462  11.904  11.044   5.976 -0.1000 -0.3048  0.1432
    1DPPC   C3B 1463  11.639  11.052   5.634 -0.3299  0.1604 -0.0847
    1DPPC   C4B 1464  11.619  11.145   5.180  0.0830  0.0479  0.0365
    1DPPC   NC3 1465   6.093   2.723   7.412 -0.0488 -0.2782 -0.2269
    1DPPC   PO4 1466   6.355   2.463   7.065 -0.1719  0.2892  0.1989
    1DPPC   GL1 1467   6.371   2.723   6.652 -0.0371 -0.2022  0.2628
    1DPPC   GL2 1468   6.185   3.014   6.703 -0.1928 -0.0572  0.0035
    1DPPC   C1A 1469   6.393   2.852   6.256 -0.1704 -0.1570 -0.0106
    1DPPC   C2A 1470   6.297   2.762   5.868  0.0105  0.0091  0.1328
    1DPPC   C3A 1471   6.662   2.692   5.467 -0.0497  0.3368 -0.3039
    1DPPC   C4A 1472   6.948   2.514   5.239  0.1565  0.1235 -0.0677
    1DPPC   C1B 1473   6.054   3.291   6.474 -0.1023 -0.0925 -0.0988
    1DPPC   C2B 1474   5.941   3.523   6.113  0.1481 -0.1376 -0.1098
    1DPPC   C3B 1475   5.913   3.673   5.692 -0.1966 -0.0587 -0.2948
    1DPPC   C4B 1476   5.748   3.783   5.343 -0.1004 -0.0236 -0.3325
    1DPPC   NC3 1477  20.823  14.096   6.628 -0.0356  0.0855 -0.1672
    1DPPC   PO4 1478  20.436  14.088   6.450 -0.2351 -0.4106 -0.0378
    1DPPC   GL1 1479  20.228  14.165   6.119 -0.0499 -0.1417 -0.0619
    1DPPC   GL2 1480  20.238  13.855   6.003  0.0041 -0.1624 -0.0071
    1DPPC   C1A 1481  20.016  14.274   5.811  0.2089 -0.0627  0.0252
    1DPPC   C2A 1482  19.822  14.273   5.455  0.2865  0.1358  0.0955
    1DPPC   C3A 1483  19.827  14.492   4.973 -0.1614  0.1879  0.2231
    1DPPC   C4A 1484  19.948  14.479   4.552 -0.1970 -0.0586 -0.1151
    1DPPC   C1B 1485  20.209  13.892   5.614 -0.1562 -0.1663  0.1026
    1DPPC   C2B 1486  20.195  13.974   5.186 -0.1270  0.0421  0.2024
    1DPPC   C3B 1487  20.151  14.034   4.871 -0.0709 -0.0569 -0.3380
    1DPPC   C4B 1488  20.299  14.097   4.431 -0.2714  0.1454  0.3318
    1DPPC   NC3 1489  12.501  21.313   6.864 -0.0568  0.0342  0.0492
    1DPPC   PO4 1490  12.455  20.869   6.599  0.1885 -0.0383 -0.0951
    1DPPC   GL1 1491  12.370  20.584   6.242  0.0871  0.1310  0.0845
    1DPPC   GL2 1492  12.430  20.769   5.973 -0.0020 -0.0906  0.0373
    1DPPC   C1A 1493  12.239  20.257   6.018  0.0816  0.1092 -0.4819
    1DPPC   C2A 1494  12.222  20.245   5.585  0.0258 -0.0966  0.0735
    1DPPC   C3A 1495  12.165  20.332   5.250 -0.1106  0.4359 -0.1158
    1DPPC   C4A 1496  12.324  20.666   4.965  0.1365 -0.2503  0.2494
    1DPPC   C1B 1497  12.255  20.793   5.579 -0.2013  0.1369 -0.1006
    1DPPC   C2B 1498  11.961  20.808   5.262 -0.2768  0.1693  0.1258
    1DPPC   C3B 1499  11.899  20.865   4.849  0.5398 -0.1562 -0.2756
    1DPPC   C4B 1500  11.590  20.743   4.626  0.0977  0.2328 -0.2872
    1DPPC   NC3 1501   9.882  11.336   7.120 -0.0970  0.1453  0.0443
    1DPPC   PO4 1502   9.561  11.468   7.254  0.2920  0.1274  0.1694
    1DPPC   GL1 1503   9.466  11.291   6.849  0.0242 -0.0334  0.2533
    1DPPC   GL2 1504   9.050  11.310   6.836  0.2889  0.0616 -0.1289
    1DPPC   C1A 1505   9.587  11.474   6.459  0.2565 -0.2006 -0.2051
    1DPPC   C2A 1506   9.591  11.327   6.031 -0.2053  0.2564 -0.1305
    1DPPC   C3A 1507   9.407  11.432   5.709  0.2066  0.0720  0.2790
    1DPPC   C4A 1508   9.257  11.271   5.334 -0.0551  0.2938  0.0892
    1DPPC   C1B 1509   8.978  11.340   6.429  0.0979 -0.1887  0.3541
    1DPPC   C2B 1510   8.901  11.419   5.988  0.0377 -0.1059 -0.0549
    1DPPC   C3B 1511   8.810  11.421   5.543  0.0220  0.2914  0.0084
    1DPPC   C4B 1512   8.735  11.641   5.156 -0.3379  0.1650  0.2264
    1DPPC   NC3 1513   3.022  15.857   5.896  0.0480  0.1790 -0.4221
    1DPPC   PO4 1514   3.029  15.387   5.959 -0.0769 -0.2340  0.1874
    1DPPC   GL1 1515   2.854  15.488   5.526 -0.0990 -0.2215 -0.0924
    1DPPC   GL2 1516   3.006  15.852   5.398  0.0876 -0.1550 -0.0375
    1DPPC   C1A 1517   2.609  15.482   5.155 -0.0693  0.1721 -0.0326
    1DPPC   C2A 1518   2.346  15.480   4.763  0.0346 -0.4675  0.2799
    1DPPC   C3A 1519   2.332  15.849   4.497 -0.0643 -0.1422  0.1097
    1DPPC   C4A 1520   2.487  16.225   4.444 -0.3607  0.2838 -0.0634
    1DPPC   C1B 1521   2.825  15.873   4.986  0.2227 -0.1137  0.1087
    1DPPC   C2B 1522   2.873  15.922   4.569 -0.2176 -0.3698 -0.0661
    1DPPC   C3B 1523   3.139  15.574   4.397  0.0578  0.0273  0.1302
    1DPPC   C4B 1524   3.442  15.366   4.147  0.2702 -0.0153  0.1739
    1DPPC   NC3 1525  18.604   8.042   6.568  0.1175  0.1596  0.1509
    1DPPC   PO4 1526  18.262   7.796   6.487  0.1307  0.2992  0.1189
    1DPPC   GL1 1527  18.187   7.906   6.091 -0.0934  0.1384 -0.0614
    1DPPC   GL2 1528  18.553   7.858   6.064 -0.0371 -0.1234  0.0371
    1DPPC   C1A 1529  18.260   7.907   5.676  0.1364  0.1455 -0.0330
    1DPPC   C2A 1530  18.331   7.895   5.258  0.1122  0.1625  0.1916
    1DPPC   C3A 1531  18.382   7.756   4.810 -0.1188 -0.1959  0.3187
    1DPPC   C4A 1532  18.490   7.494   4.529 -0.0295  0.0084 -0.0347
    1DPPC   C1B 1533  18.759   7.761   5.685 -0.0890 -0.2201  0.3333
    1DPPC   C2B 1534  18.733   7.593   5.315  0.0106  0.0888  0.1046
    1DPPC   C3B 1535  18.861   7.578   4.891 -0.1353 -0.1228 -0.0712
    1DPPC   C4B 1536  19.000   7.445   4.410 -0.1375  0.0148  0.0486
    1DPPC   NC3 1537  17.333  17.698   7.389  0.0100  0.0078 -0.2257
    1DPPC   PO4 1538  17.263  17.644   6.985  0.0776 -0.1743  0.2121
    1DPPC   GL1 1539  17.359  17.863   6.660  0.1435  0.1958 -0.1522
    1DPPC   GL2 1540  17.059  17.987   6.552 -0.2580 -0.0440  0.1588
    1DPPC   C1A 1541  17.547  17.865   6.311 -0.2963  0.0691  0.1673
    1DPPC   C2A 1542  17.754  18.066   5.975 -0.1735 -0.0492  0.0586
    1DPPC   C3A 1543  17.696  18.094   5.550  0.0781  0.2097  0.3785
    1DPPC   C4A 1544  17.835  18.059   5.157 -0.0789  0.1789 -0.1330
    1DPPC   C1B 1545  17.123  17.704   6.097  0.0553 -0.1195  0.0488
    1DPPC   C2B 1546  17.125  17.835   5.650 -0.0882 -0.0684 -0.0927
    1DPPC   C3B 1547  17.255  18.082   5.310  0.0461 -0.0247 -0.1297
    1DPPC   C4B 1548  17.155  18.349   4.934 -0.2438 -0.0108 -0.0552
    1DPPC   NC3 1549  20.207   6.302   6.581 -0.2431  0.3455  0.2538
    1DPPC   PO4 1550  19.801   6.162   6.349  0.0594  0.1392 -0.2856
    1DPPC   GL1 1551  19.854   6.392   6.076  0.1746  0.2071 -0.0908
    1DPPC   GL2 1552  19.991   6.619   6.258 -0.2059  0.2118  0.1305
    1DPPC   C1A 1553  19.780   6.669   5.799  0.1289  0.0382 -0.1178
    1DPPC   C2A 1554  19.780   6.595   5.338  0.0445 -0.0465  0.0459
    1DPPC   C3A 1555  20.126   6.691   4.970  0.1232  0.3049  0.0586
    1DPPC   C4A 1556  20.523   6.401   4.695 -0.3059 -0.2182  0.0355
    1DPPC   C1B 1557  19.970   7.010   6.036 -0.0004  0.2464 -0.0463
    1DPPC   C2B 1558  20.003   7.192   5.645 -0.4110  0.1193 -0.1272
    1DPPC   C3B 1559  19.956   7.110   5.240 -0.0198  0.0113  0.0280
    1DPPC   C4B 1560  19.750   7.159   4.875 -0.0600 -0.1288  0.0465
    1DPPC   NC3 1561  14.808  20.213   6.632 -0.1504 -0.0733 -0.4312
    1DPPC   PO4 1562  14.562  19.829   6.487  0.1292  0.1250  0.0890
    1DPPC   GL1 1563  14.675  19.499   6.132 -0.1004 -0.2440 -0.1101
    1DPPC   GL2 1564  15.005  19.283   6.139 -0.1423 -0.1421  0.0429
    1DPPC   C1A 1565  14.377  19.314   5.819  0.0895 -0.2094  0.0204
    1DPPC   C2A 1566  14.309  19.310   5.380 -0.2848  0.1806 -0.0964
    1DPPC   C3A 1567  14.446  19.306   4.958 -0.0173  0.0710  0.0370
    1DPPC   C4A 1568  14.881  19.400   4.767 -0.3014 -0.0979 -0.0581
    1DPPC   C1B 1569  14.889  19.263   5.732  0.1534 -0.2188 -0.1022
    1DPPC   C2B 1570  14.824  19.205   5.298 -0.1112 -0.0867  0.0522
    1DPPC   C3B 1571  15.225  19.069   4.970  0.3885  0.0951 -0.1342
    1DPPC   C4B 1572  15.524  18.907   4.690  0.1683  0.3246 -0.0705
    1DPPC   NC3 1573  11.052   7.407   7.036  0.1729 -0.0662  0.1950
    1DPPC   PO4 1574  11.499   7.433   7.117 -0.0414 -0.1099 -0.0378
    1DPPC   GL1 1575  11.410   7.362   6.667  0.1957  0.2654  0.1913
    1DPPC   GL2 1576  11.492   7.649   6.473 -0.1525  0.1575 -0.0380
    1DPPC   C1A 1577  11.202   7.215   6.313  0.0406 -0.1263 -0.0702
    1DPPC   C2A 1578  11.134   7.292   5.884 -0.0044  0.0686  0.1975
    1DPPC   C3A 1579  10.910   7.309   5.670 -0.1688  0.0809  0.1738
    1DPPC   C4A 1580  10.526   7.153   5.598 -0.3482 -0.2238  0.3494
    1DPPC   C1B 1581  11.367   7.698   6.130  0.0892 -0.0725 -0.3925
    1DPPC   C2B 1582  11.363   7.897   5.779  0.1077 -0.3251 -0.1268
    1DPPC   C3B 1583  11.212   7.907   5.392  0.1691 -0.2473 -0.0009
    1DPPC   C4B 1584  11.102   8.046   4.988 -0.0337  0.3304  0.3749
    1DPPC   NC3 1585   9.320  15.435   6.873 -0.0451  0.0262 -0.1062
    1DPPC   PO4 1586   9.059  15.636   6.539 -0.0398  0.0389 -0.1673
    1DPPC   GL1 1587   9.225  15.647   6.085 -0.0821 -0.0223 -0.0871
    1DPPC   GL2 1588   8.919  15.642   5.854  0.0284 -0.1829  0.2009
    1DPPC   C1A 1589   9.386  15.360   5.832 -0.1243  0.0248 -0.0627
    1DPPC   C2A 1590   9.523  15.262   5.364  0.0257 -0.0203  0.1817
    1DPPC   C3A 1591   9.536  15.024   5.016 -0.2353 -0.0230 -0.0088
    1DPPC   C4A 1592   9.551  14.798   4.572  0.2337  0.1594 -0.0202
    1DPPC   C1B 1593   8.983  15.499   5.465  0.1431 -0.1626 -0.1483
    1DPPC   C2B 1594   9.081  15.310   5.051  0.3249 -0.1217  0.0639
    1DPPC   C3B 1595   9.065  15.320   4.599 -0.1537  0.2305  0.0615
    1DPPC   C4B 1596   8.817  15.568   4.311  0.0070 -0.1046 -0.1195
    1DPPC   NC3 1597  16.851  12.488   6.442 -0.1021  0.1082 -0.0527
    1DPPC   PO4 1598  16.774  12.959   6.534  0.1354  0.2226  0.3024
    1DPPC   GL1 1599  16.930  13.063   6.133 -0.2251 -0.1456 -0.0505
    1DPPC   GL2 1600  17.126  12.766   6.055 -0.1570 -0.0440 -0.2927
    1DPPC   C1A 1601  17.293  13.232   5.896  0.1173  0.0820 -0.0964
    1DPPC   C2A 1602  17.583  13.590   5.799  0.3092  0.1690 -0.1610
    1DPPC   C3A 1603  17.512  13.558   5.313 -0.2099  0.2168  0.0887
    1DPPC   C4A 1604  17.178  13.624   5.025  0.2616 -0.1876 -0.2283
    1DPPC   C1B 1605  17.061  12.840   5.626  0.1999  0.0956  0.0267
    1DPPC   C2B 1606  16.979  12.693   5.222 -0.2052  0.0396  0.3287
    1DPPC   C3B 1607  16.818  12.858   4.881 -0.1021 -0.3558  0.1540
    1DPPC   C4B 1608  16.820  13.043   4.465  0.1170  0.0070  0.0187
    1DPPC   NC3 1609   8.575  17.742   6.448  0.0724  0.2125 -0.0306
    1DPPC   PO4 1610   8.966  17.540   6.532  0.0950 -0.1205  0.3214
    1DPPC   GL1 1611   9.364  17.691   6.256 -0.0481  0.4396 -0.1694
    1DPPC   GL2 1612   9.612  17.855   6.314  0.1195  0.5223 -0.1716
    1DPPC   C1A 1613   9.313  18.013   5.834 -0.1137 -0.0496  0.0730
    1DPPC   C2A 1614   9.290  18.017   5.395  0.0887 -0.1195 -0.3273
    1DPPC   C3A 1615   9.342  17.969   4.957  0.0939  0.1182 -0.4607
    1DPPC   C4A 1616   9.143  17.905   4.643 -0.0155 -0.1153  0.0197
    1DPPC   C1B 1617   9.726  17.705   5.899 -0.0474  0.0368  0.0030
    1DPPC   C2B 1618   9.685  17.734   5.471  0.0738  0.1006 -0.1069
    1DPPC   C3B 1619   9.649  17.593   4.998  0.0108  0.1150 -0.2786
    1DPPC   C4B 1620   9.880  17.370   4.665 -0.1040 -0.1914 -0.1123
    1DPPC   NC3 1621   8.645  19.651   6.067 -0.0862 -0.1021 -0.0050
    1DPPC   PO4 1622   8.511  20.021   6.128 -0.2978 -0.1382 -0.2851
    1DPPC   GL1 1623   8.819  20.031   5.766 -0.0593 -0.0463 -0.1555
    1DPPC   GL2 1624   8.741  19.760   5.569  0.1821  0.2624 -0.0070
    1DPPC   C1A 1625   9.125  20.133   5.438  0.1981  0.2235 -0.1652
    1DPPC   C2A 1626   9.431  20.150   5.097  0.3582 -0.1252 -0.2982
    1DPPC   C3A 1627   9.574  19.834   4.829 -0.1117  0.0016  0.0677
    1DPPC   C4A 1628   9.569  19.618   4.388  0.2131  0.0245  0.2498
    1DPPC   C1B 1629   8.738  19.895   5.139 -0.1463  0.5571  0.1387
    1DPPC   C2B 1630   9.080  19.898   4.852 -0.0684 -0.3911  0.1189
    1DPPC   C3B 1631   9.302  20.186   4.485 -0.1176  0.1566  0.0799
    1DPPC   C4B 1632   9.566  20.271   4.127 -0.1934 -0.2509  0.3249
    1DPPC   NC3 1633  18.876  21.508   7.234  0.1279 -0.1661 -0.0107
    1DPPC   PO4 1634  18.622  21.694   7.107  0.1891 -0.0515 -0.0257
    1DPPC   GL1 1635  18.751  21.469   6.719 -0.3112 -0.2194  0.1061
    1DPPC   GL2 1636  18.768  21.781   6.520 -0.1165 -0.0630 -0.0476
    1DPPC   C1A 1637  19.169  21.411   6.431 -0.0923 -0.3804 -0.1138
    1DPPC   C2A 1638  19.561  21.486   6.514 -0.1152 -0.0656  0.0575
    1DPPC   C3A 1639  19.793  21.773   6.263 -0.1012  0.0762 -0.0878
    1DPPC   C4A 1640  20.006  21.754   5.843 -0.2617 -0.0015 -0.3635
    1DPPC   C1B 1641  18.849  21.774   6.031 -0.0557 -0.1733 -0.1291
    1DPPC   C2B 1642  18.747  21.476   5.765 -0.2281  0.0489  0.1102
    1DPPC   C3B 1643  18.611  21.205   5.340 -0.0384  0.2989  0.0022
    1DPPC   C4B 1644  18.767  20.905   4.995  0.0078 -0.1024 -0.3888
    1DPPC   NC3 1645  18.818  13.267   6.923 -0.1681  0.0144 -0.0360
    1DPPC   PO4 1646  18.778  13.509   6.552 -0.2316 -0.1749 -0.1388
    1DPPC   GL1 1647  18.915  13.525   6.120 -0.1023 -0.2328 -0.2202
    1DPPC   GL2 1648  18.657  13.620   5.913 -0.0801  0.0163  0.0612
    1DPPC   C1A 1649  19.255  13.351   5.795  0.2415 -0.1430  0.1713
    1DPPC   C2A 1650  19.460  13.310   5.441  0.2286  0.0863  0.1443
    1DPPC   C3A 1651  19.496  13.278   4.998 -0.0733 -0.2483 -0.2396
    1DPPC   C4A 1652  19.484  13.467   4.686 -0.2854 -0.2034 -0.2398
    1DPPC   C1B 1653  18.598  13.808   5.586  0.1134  0.4129 -0.0567
    1DPPC   C2B 1654  18.651  13.830   5.124 -0.0688  0.1134  0.1303
    1DPPC   C3B 1655  18.678  13.883   4.715 -0.2997  0.0199  0.0824
    1DPPC   C4B 1656  18.656  13.987   4.365  0.0172 -0.1887  0.0805
    1DPPC   NC3 1657  18.767  10.049   6.550 -0.3346 -0.4417 -0.2404
    1DPPC   PO4 1658  18.444   9.868   6.444  0.1052  0.0228 -0.1309
    1DPPC   GL1 1659  18.615  10.002   6.094 -0.1214 -0.1846 -0.1579
    1DPPC   GL2 1660  18.332  10.263   5.960  0.1930  0.1045 -0.2636
    1DPPC   C1A 1661  18.597   9.968   5.660 -0.3819 -0.1993 -0.0293
    1DPPC   C2A 1662  18.590   9.995   5.196  0.3009 -0.0590  0.2387
    1DPPC   C3A 1663  18.709  10.126   4.781  0.2324  0.1833 -0.1044
    1DPPC   C4A 1664  18.662  10.209   4.334 -0.1735  0.2389 -0.0147
    1DPPC   C1B 1665  18.098  10.106   5.556 -0.1756 -0.1410 -0.1269
    1DPPC   C2B 1666  18.040   9.994   5.178 -0.3133  0.4027  0.3338
    1DPPC   C3B 1667  18.236   9.902   4.768  0.1384  0.1011  0.2257
    1DPPC   C4B 1668  18.220   9.793   4.273 -0.3522 -0.1929  0.0525
    1DPPC   NC3 1669   8.683  13.195   6.644  0.2839  0.1875 -0.0710
    1DPPC   PO4 1670   8.274  13.115   6.766  0.1131  0.4010 -0.0107
    1DPPC   GL1 1671   8.404  13.004   6.325  0.0223  0.1055  0.0405
    1DPPC   GL2 1672   8.472  12.713   6.277 -0.4302 -0.1709  0.0246
    1DPPC   C1A 1673   8.391  13.001   5.860  0.0622  0.0925  0.2318
    1DPPC   C2A 1674   8.807  13.055   5.560  0.4766  0.0548 -0.3408
    1DPPC   C3A 1675   8.793  12.847   5.127  0.1732  0.1005 -0.3140
    1DPPC   C4A 1676   9.066  12.592   4.835  0.0947  0.1021 -0.1470
    1DPPC   C1B 1677   8.826  12.669   6.000 -0.1022 -0.1812 -0.1601
    1DPPC   C2B 1678   8.885  12.504   5.483 -0.1085 -0.1517 -0.2438
    1DPPC   C3B 1679   9.053  12.241   5.196 -0.2483 -0.0234 -0.1098
    1DPPC   C4B 1680   9.467  12.208   4.995 -0.0519 -0.6258 -0.1228
    1DPPC   NC3 1681  10.408  18.726   7.015  0.1218  0.0712 -0.0314
    1DPPC   PO4 1682  10.655  19.076   6.867 -0.0300 -0.1553  0.0373
    1DPPC   GL1 1683  10.443  18.965   6.506  0.0840 -0.3075  0.1828
    1DPPC   GL2 1684  10.768  18.736   6.372 -0.1314  0.2793 -0.0335
    1DPPC   C1A 1685  10.388  18.879   6.041  0.0489  0.1101 -0.0424
    1DPPC   C2A 1686  10.758  18.677   5.869 -0.1408  0.1004 -0.0128
    1DPPC   C3A 1687  10.797  18.513   5.587  0.1732  0.3501 -0.1255
    1DPPC   C4A 1688  10.674  18.422   5.146 -0.1074  0.4418 -0.2260
    1DPPC   C1B 1689  11.081  18.952   6.126  0.0477 -0.0136 -0.0640
    1DPPC   C2B 1690  11.181  19.327   5.956  0.0733  0.2064 -0.0234
    1DPPC   C3B 1691  11.167  19.583   5.617  0.2537  0.2884  0.1877
    1DPPC   C4B 1692  11.427  19.823   5.380 -0.1495  0.4025 -0.2511
    1DPPC   NC3 1693  15.075  12.181   6.752  0.4409  0.1625  0.0606
    1DPPC   PO4 1694  15.188  12.538   6.592 -0.1553 -0.2557  0.0591
    1DPPC   GL1 1695  15.189  12.692   6.198 -0.2172 -0.0650  0.0586
    1DPPC   GL2 1696  15.568  12.681   6.121  0.1817 -0.2379  0.0362
    1DPPC   C1A 1697  15.108  12.702   5.684  0.1459  0.0488 -0.1238
    1DPPC   C2A 1698  15.046  12.535   5.255 -0.0038 -0.2693  0.1925
    1DPPC   C3A 1699  14.864  12.628   4.929  0.0616 -0.2447 -0.1040
    1DPPC   C4A 1700  14.885  12.862   4.546 -0.0173  0.1129 -0.2492
    1DPPC   C1B 1701  15.711  12.860   5.803  0.0203  0.0546  0.1765
    1DPPC   C2B 1702  15.536  12.821   5.362  0.2179  0.1107  0.2694
    1DPPC   C3B 1703  15.435  12.631   4.899 -0.0109 -0.1399  0.0528
    1DPPC   C4B 1704  15.249  12.559   4.514 -0.0085  0.0160  0.0642
    1DPPC   NC3 1705  18.558  26.098   7.057  0.2747 -0.4839  0.1187
    1DPPC   PO4 1706  18.776  26.353   6.778 -0.0421 -0.2960  0.0701
    1DPPC   GL1 1707  19.013  26.279   6.450 -0.3142  0.0101 -0.3108
    1DPPC   GL2 1708  19.311  26.065   6.416 -0.1067 -0.0478 -0.1563
    1DPPC   C1A 1709  18.983  26.284   6.012 -0.1518  0.1014  0.1451
    1DPPC   C2A 1710  18.901  26.316   5.484  0.2563  0.0055 -0.0826
    1DPPC   C3A 1711  18.850  26.571   5.177 -0.2190  0.4644 -0.4704
    1DPPC   C4A 1712  18.915  27.008   5.068 -0.1127 -0.1223  0.0277
    1DPPC   C1B 1713  19.365  25.885   6.015 -0.1642 -0.0308 -0.3026
    1DPPC   C2B 1714  19.407  25.997   5.584  0.3312  0.2650  0.3480
    1DPPC   C3B 1715  19.358  26.314   5.329  0.1431  0.1591 -0.0906
    1DPPC   C4B 1716  19.294  26.773   5.296  0.1153 -0.0034  0.1734
    1DPPC   NC3 1717   3.255  18.432   5.903  0.0421  0.1333 -0.0436
    1DPPC   PO4 1718   3.795  18.510   5.896 -0.1454 -0.0367 -0.0271
    1DPPC   GL1 1719   3.588  18.579   5.517 -0.2996  0.0960 -0.0070
    1DPPC   GL2 1720   3.578  18.375   5.171 -0.1215 -0.1743  0.3667
    1DPPC   C1A 1721   3.257  18.746   5.345  0.1898 -0.1047  0.0725
    1DPPC   C2A 1722   3.079  18.542   5.035  0.0973  0.1913 -0.1716
    1DPPC   C3A 1723   2.783  18.395   4.711 -0.0887 -0.1084 -0.1153
    1DPPC   C4A 1724   2.820  18.065   4.477  0.0039  0.0288  0.1102
    1DPPC   C1B 1725   3.897  18.280   4.936 -0.1082 -0.1990 -0.2016
    1DPPC   C2B 1726   4.105  18.458   4.556 -0.1948  0.0728  0.0423
    1DPPC   C3B 1727   4.339  18.449   4.139  0.0975  0.2342 -0.1671
    1DPPC   C4B 1728   4.645  18.496   3.843  0.2381  0.0962  0.1359
    1DPPC   NC3 1729  21.475  18.160   7.101 -0.0435  0.0127  0.3637
    1DPPC   PO4 1730  21.339  18.557   6.961 -0.0954  0.1517 -0.0545
    1DPPC   GL1 1731  21.175  18.750   6.623 -0.0257  0.1804 -0.0828
    1DPPC   GL2 1732  21.251  19.070   6.632 -0.4366 -0.1146 -0.0366
    1DPPC   C1A 1733  21.008  18.996   6.200 -0.0861  0.0604 -0.0774
    1DPPC   C2A 1734  20.810  19.035   5.703 -0.0342 -0.1244 -0.2824
    1DPPC   C3A 1735  20.808  19.115   5.262 -0.0456 -0.0711  0.1750
    1DPPC   C4A 1736  21.079  18.994   4.964  0.0852 -0.1132  0.1281
    1DPPC   C1B 1737  21.490  19.105   6.207  0.1307  0.2264 -0.0007
    1DPPC   C2B 1738  21.420  19.180   5.795 -0.3367  0.1200 -0.1755
    1DPPC   C3B 1739  21.253  18.964   5.418  0.0249 -0.2392 -0.1362
    1DPPC   C4B 1740  20.885  18.602   5.361 -0.1849 -0.1269 -0.0080
    1DPPC   NC3 1741  12.685  17.712   6.532  0.0727  0.1756 -0.3933
    1DPPC   PO4 1742  12.372  17.422   6.658 -0.1639  0.0466  0.0300
    1DPPC   GL1 1743  12.208  17.744   6.413 -0.1096  0.0351 -0.0427
    1DPPC   GL2 1744  11.962  17.841   6.647  0.0885 -0.0472 -0.1772
    1DPPC   C1A 1745  12.296  17.796   6.036  0.0570 -0.0741 -0.0158
    1DPPC   C2A 1746  12.281  17.785   5.561  0.2136 -0.1309  0.0484
    1DPPC   C3A 1747  12.332  17.781   5.151  0.1637 -0.1583 -0.1856
    1DPPC   C4A 1748  12.535  17.930   4.951  0.1419  0.3237 -0.3471
    1DPPC   C1B 1749  11.736  17.769   6.231 -0.0249  0.0896  0.0686
    1DPPC   C2B 1750  11.813  17.741   5.757  0.1570 -0.1595  0.1415
    1DPPC   C3B 1751  11.891  17.890   5.335 -0.1964  0.1384  0.0272
    1DPPC   C4B 1752  11.750  17.854   4.901 -0.0175  0.0010  0.1421
    1DPPC   NC3 1753  16.599  21.647   7.186 -0.1340 -0.1635  0.0761
    1DPPC   PO4 1754  16.541  22.130   6.980  0.2059  0.0621  0.3193
    1DPPC   GL1 1755  16.700  21.944   6.569 -0.0320 -0.0359 -0.3012
    1DPPC   GL2 1756  16.550  21.796   6.389 -0.0887 -0.0747  0.0101
    1DPPC   C1A 1757  16.991  22.092   6.343  0.0128  0.0916 -0.1579
    1DPPC   C2A 1758  17.291  21.992   6.064  0.2829 -0.3290 -0.2253
    1DPPC   C3A 1759  17.243  21.923   5.737 -0.1904 -0.2446 -0.4113
    1DPPC   C4A 1760  17.430  21.896   5.319 -0.0765  0.0811  0.1622
    1DPPC   C1B 1761  16.742  21.854   6.010 -0.1930  0.0759  0.1477
    1DPPC   C2B 1762  16.759  21.859   5.569  0.1552  0.2069 -0.0682
    1DPPC   C3B 1763  16.858  21.892   5.116  0.1915  0.1677  0.1314
    1DPPC   C4B 1764  16.944  22.153   4.875  0.0374  0.5525 -0.2417
    1DPPC   NC3 1765  12.921  13.898   7.589 -0.1202 -0.1729 -0.3269
    1DPPC   PO4 1766  12.895  13.890   7.082  0.0058  0.4964 -0.1218
    1DPPC   GL1 1767  12.584  13.743   6.745 -0.1703 -0.0137  0.0783
    1DPPC   GL2 1768  12.542  14.067   6.523  0.0026 -0.1196  0.0701
    1DPPC   C1A 1769  12.460  13.586   6.479  0.5646  0.1276 -0.2057
    1DPPC   C2A 1770  12.387  13.227   6.213 -0.1370 -0.0374  0.1077
    1DPPC   C3A 1771  12.312  13.169   5.705  0.0625  0.2347 -0.3287
    1DPPC   C4A 1772  12.237  13.216   5.310  0.1568 -0.0448 -0.0766
    1DPPC   C1B 1773  12.703  13.973   6.067 -0.4319 -0.0081 -0.0267
    1DPPC   C2B 1774  12.823  13.883   5.612  0.3857 -0.1460  0.4372
    1DPPC   C3B 1775  12.823  13.957   5.171  0.0251  0.0941  0.0707
    1DPPC   C4B 1776  12.773  14.225   4.698  0.3127  0.1137 -0.0259
    1DPPC   NC3 1777  19.965  14.172   6.547  0.0783  0.0795 -0.0629
    1DPPC   PO4 1778  19.518  14.080   6.557 -0.2620 -0.0905 -0.1644
    1DPPC   GL1 1779  19.638  14.247   6.197 -0.0326 -0.1512 -0.0870
    1DPPC   GL2 1780  19.849  14.519   6.165  0.0054 -0.1221 -0.3114
    1DPPC   C1A 1781  19.461  14.232   5.870  0.4439 -0.2461  0.0115
    1DPPC   C2A 1782  19.359  14.178   5.422  0.0230  0.2451 -0.0514
    1DPPC   C3A 1783  19.185  13.971   5.081 -0.0237  0.2548  0.1778
    1DPPC   C4A 1784  19.158  14.021   4.666  0.0008  0.3184  0.0157
    1DPPC   C1B 1785  19.923  14.740   5.726  0.1227 -0.2978  0.2464
    1DPPC   C2B 1786  20.022  14.826   5.329 -0.2364 -0.1927 -0.0124
    1DPPC   C3B 1787  20.147  14.913   4.851  0.2275  0.0027 -0.0975
    1DPPC   C4B 1788  20.232  15.219   4.491 -0.0356 -0.1293  0.0403
    1DPPC   NC3 1789  22.508  14.425   6.230  0.1970  0.1512 -0.0833
    1DPPC   PO4 1790  22.654  14.055   6.094  0.1159  0.0250 -0.0689
    1DPPC   GL1 1791  22.448  13.718   5.878 -0.1268  0.0802  0.0480
    1DPPC   GL2 1792  22.401  13.477   5.690  0.0233  0.2578 -0.0318
    1DPPC   C1A 1793  21.979  13.833   5.716  0.0231 -0.2212  0.2727
    1DPPC   C2A 1794  21.847  13.913   5.351 -0.0342 -0.0595  0.0801
    1DPPC   C3A 1795  21.717  14.026   4.939 -0.0871 -0.0084 -0.0352
    1DPPC   C4A 1796  21.932  14.059   4.442  0.2022 -0.2289 -0.1405
    1DPPC   C1B 1797  22.112  13.354   5.349 -0.2184  0.0476 -0.0764
    1DPPC   C2B 1798  22.156  13.427   4.895  0.2446  0.2156 -0.3032
    1DPPC   C3B 1799  22.270  13.603   4.611  0.3282  0.1922  0.1149
    1DPPC   C4B 1800  22.426  13.947   4.427  0.0981  0.2552 -0.0359
    1DPPC   NC3 1801   9.259  13.047   7.380  0.3325 -0.0591  0.2359
    1DPPC   PO4 1802   9.509  12.948   7.072  0.1521 -0.1437  0.1427
    1DPPC   GL1 1803   9.397  12.901   6.593 -0.0621 -0.0546  0.0938
    1DPPC   GL2 1804   9.035  12.893   6.479 -0.4563  0.0271  0.0575
    1DPPC   C1A 1805   9.428  12.799   6.166  0.1587 -0.2045  0.0409
    1DPPC   C2A 1806   9.261  12.871   5.747 -0.0767  0.1094 -0.2313
    1DPPC   C3A 1807   9.277  12.730   5.307 -0.0174  0.1252 -0.0094
    1DPPC   C4A 1808   9.490  12.816   4.819 -0.0183  0.1058  0.0154
    1DPPC   C1B 1809   8.924  13.110   6.076 -0.0340 -0.1050  0.4228
    1DPPC   C2B 1810   9.106  13.397   5.785 -0.1609  0.0229 -0.1821
    1DPPC   C3B 1811   9.237  13.234   5.310 -0.1799  0.0905 -0.1414
    1DPPC   C4B 1812   9.038  13.125   4.779  0.1007  0.1335 -0.2047
    1DPPC   NC3 1813  23.282  15.568   6.234 -0.1866 -0.1142 -0.0970
    1DPPC   PO4 1814  23.231  16.031   6.304  0.0258  0.1486  0.5445
    1DPPC   GL1 1815  23.211  16.059   5.822 -0.1984 -0.0703 -0.1776
    1DPPC   GL2 1816  23.196  16.353   5.618  0.1956  0.0092  0.1039
    1DPPC   C1A 1817  23.161  15.850   5.411  0.1300  0.2104  0.1465
    1DPPC   C2A 1818  23.327  15.450   5.351  0.0299  0.1227  0.2977
    1DPPC   C3A 1819  23.391  15.185   4.962 -0.0046  0.0797  0.0883
    1DPPC   C4A 1820  23.462  14.887   4.731  0.1092 -0.0545  0.0970
    1DPPC   C1B 1821  23.281  16.321   5.262  0.4059 -0.2241 -0.0096
    1DPPC   C2B 1822  23.364  16.370   4.762 -0.2309 -0.0058  0.0371
    1DPPC   C3B 1823  23.468  16.726   4.603  0.0053  0.1431 -0.0958
    1DPPC   C4B 1824  23.641  17.142   4.689 -0.1284  0.1003 -0.0357
    1DPPC   NC3 1825  17.195  23.282   7.362  0.2328  0.0708 -0.0914
    1DPPC   PO4 1826  16.999  23.220   6.934  0.1186 -0.1498 -0.0691
    1DPPC   GL1 1827  16.863  22.953   6.605 -0.2059  0.2489 -0.0272
    1DPPC   GL2 1828  16.844  23.049   6.278  0.1984 -0.2411 -0.0565
    1DPPC   C1A 1829  17.098  22.605   6.349  0.0384 -0.3763  0.1775
    1DPPC   C2A 1830  17.178  22.697   5.916  0.0222 -0.3340 -0.0177
    1DPPC   C3A 1831  17.182  22.941   5.542  0.1087  0.0274 -0.1559
    1DPPC   C4A 1832  17.467  22.961   5.172 -0.0175 -0.0908  0.2704
    1DPPC   C1B 1833  17.057  23.235   6.046 -0.0380  0.1950 -0.1116
    1DPPC   C2B 1834  17.170  23.430   5.786 -0.4197 -0.1846  0.1059
    1DPPC   C3B 1835  17.343  23.418   5.377  0.0476 -0.0552 -0.1900
    1DPPC   C4B 1836  17.451  23.465   5.056 -0.0878 -0.1906  0.0678
    1DPPC   NC3 1837   7.900  13.336   6.346  0.1158 -0.0656  0.2672
    1DPPC   PO4 1838   7.931  13.785   6.635  0.2464  0.0722  0.1538
    1DPPC   GL1 1839   7.909  13.818   6.108 -0.1527 -0.1903 -0.0285
    1DPPC   GL2 1840   8.199  13.942   6.135  0.1169 -0.1427 -0.1461
    1DPPC   C1A 1841   7.905  13.741   5.669 -0.2168  0.0831 -0.3514
    1DPPC   C2A 1842   7.978  13.831   5.173  0.0953  0.1968 -0.0032
    1DPPC   C3A 1843   8.130  13.599   4.726  0.0964 -0.2854  0.2197
    1DPPC   C4A 1844   8.389  13.731   4.345  0.1230  0.0884 -0.1407
    1DPPC   C1B 1845   8.373  13.887   5.676  0.1485  0.1606 -0.1530
    1DPPC   C2B 1846   8.499  13.857   5.242  0.2879  0.0276  0.1207
    1DPPC   C3B 1847   8.319  14.066   4.880  0.2934  0.1298 -0.0983
    1DPPC   C4B 1848   8.246  14.466   4.569  0.1382 -0.1936 -0.4357
    1DPPC   NC3 1849  10.998  10.615   7.131  0.4035 -0.1103  0.0601
    1DPPC   PO4 1850  11.326  10.285   7.047 -0.0903  0.1010  0.0290
    1DPPC   GL1 1851  11.170  10.379   6.690 -0.0959 -0.0579  0.0956
    1DPPC   GL2 1852  11.225  10.415   6.269 -0.0132  0.2231  0.1988
    1DPPC   C1A 1853  10.868  10.140   6.405  0.2067  0.1086  0.1313
    1DPPC   C2A 1854  10.786  10.000   6.066 -0.0056 -0.1089  0.1073
    1DPPC   C3A 1855  10.655   9.899   5.626 -0.0583 -0.2490  0.0783
    1DPPC   C4A 1856  10.382   9.892   5.277  0.1408  0.2501 -0.2266
    1DPPC   C1B 1857  11.096  10.286   5.824 -0.1920 -0.1102 -0.0505
    1DPPC   C2B 1858  10.862  10.401   5.473 -0.0235 -0.1006  0.1947
    1DPPC   C3B 1859  10.443  10.378   5.319 -0.0761 -0.2733 -0.1260
    1DPPC   C4B 1860   9.984  10.249   5.148  0.1435  0.3357  0.2699
    1DPPC   NC3 1861   2.272  13.672   6.132 -0.1346  0.3115  0.0690
    1DPPC   PO4 1862   1.980  13.998   6.115 -0.0150 -0.3616 -0.0230
    1DPPC   GL1 1863   2.206  14.201   5.790 -0.1018  0.1313  0.1053
    1DPPC   GL2 1864   2.540  13.996   5.718  0.0545  0.0220  0.4304
    1DPPC   C1A 1865   2.248  14.163   5.296  0.2141 -0.1018  0.1435
    1DPPC   C2A 1866   2.278  14.107   4.761  0.2062  0.3876 -0.2557
    1DPPC   C3A 1867   2.214  14.040   4.273  0.0149  0.0935  0.0421
    1DPPC   C4A 1868   2.156  14.244   4.000 -0.0696  0.0210  0.1492
    1DPPC   C1B 1869   3.014  13.878   5.614  0.1467 -0.0462 -0.2312
    1DPPC   C2B 1870   3.308  13.578   5.367 -0.0106 -0.3051 -0.3258
    1DPPC   C3B 1871   3.631  13.378   5.280  0.0687 -0.0476 -0.3086
    1DPPC   C4B 1872   3.875  13.220   4.881  0.1209 -0.1870  0.0893
    1DPPC   NC3 1873  15.820  19.396   6.881  0.3771  0.2237 -0.2076
    1DPPC   PO4 1874  16.145  18.945   6.963 -0.0614  0.2512 -0.0602
    1DPPC   GL1 1875  16.215  19.203   6.593 -0.0880  0.0574 -0.1602
    1DPPC   GL2 1876  16.486  19.434   6.476  0.1654  0.0233 -0.2125
    1DPPC   C1A 1877  16.138  19.375   6.134 -0.1423  0.4760  0.1222
    1DPPC   C2A 1878  16.374  19.406   5.726  0.1487 -0.1454 -0.2221
    1DPPC   C3A 1879  16.552  19.501   5.352 -0.2400 -0.0897  0.0972
    1DPPC   C4A 1880  16.793  19.674   4.951 -0.2537 -0.5412 -0.0092
    1DPPC   C1B 1881  16.628  19.572   6.127 -0.0111  0.0351  0.1289
    1DPPC   C2B 1882  16.882  19.666   5.772 -0.0483 -0.1179  0.0793
    1DPPC   C3B 1883  17.002  19.629   5.380 -0.0429 -0.2232 -0.0598
    1DPPC   C4B 1884  17.150  19.293   5.190  0.0612  0.0505 -0.1641
    1DPPC   NC3 1885  10.419  19.503   6.600  0.1559 -0.0703  0.2084
    1DPPC   PO4 1886  10.016  19.631   6.457  0.3514 -0.1323  0.2400
    1DPPC   GL1 1887  10.363  19.712   6.130  0.0051 -0.6174  0.0765
    1DPPC   GL2 1888  10.538  19.994   6.212  0.0784 -0.0408 -0.0480
    1DPPC   C1A 1889  10.255  19.640   5.679 -0.0947  0.5004 -0.3484
    1DPPC   C2A 1890  10.360  19.551   5.242  0.1836 -0.0364 -0.2223
    1DPPC   C3A 1891  10.395  19.250   4.917  0.1605 -0.0609  0.2028
    1DPPC   C4A 1892  10.517  19.454   4.597  0.0689  0.1691 -0.1380
    1DPPC   C1B 1893  10.373  20.103   5.807  0.0607 -0.1587  0.1673
    1DPPC   C2B 1894  10.561  20.017   5.401  0.0132  0.1890 -0.0877
    1DPPC   C3B 1895  10.838  19.752   5.234  0.0267  0.2710 -0.0698
    1DPPC   C4B 1896  10.828  19.527   4.944 -0.0328  0.1782 -0.0415
    1DPPC   NC3 1897   8.829  19.537   6.804 -0.0905 -0.0909  0.1343
    1DPPC   PO4 1898   8.999  19.812   6.425 -0.2698  0.2243 -0.0364
    1DPPC   GL1 1899   9.130  19.640   5.991 -0.1945  0.1324  0.1477
    1DPPC   GL2 1900   9.363  19.750   5.798 -0.0600 -0.3708  0.1174
    1DPPC   C1A 1901   9.117  19.324   5.607  0.2568 -0.1021 -0.0380
    1DPPC   C2A 1902   8.808  19.210   5.352 -0.0738  0.2117 -0.1297
    1DPPC   C3A 1903   8.651  19.321   5.043 -0.0779 -0.0866  0.1670
    1DPPC   C4A 1904   8.715  19.631   4.719  0.0027  0.1005 -0.1515
    1DPPC   C1B 1905   9.354  19.709   5.298 -0.4282  0.1464  0.0558
    1DPPC   C2B 1906   9.230  19.416   5.074 -0.0953 -0.0764 -0.0541
    1DPPC   C3B 1907   9.149  19.381   4.617 -0.1130 -0.2577  0.0264
    1DPPC   C4B 1908   9.254  19.244   4.214  0.0008 -0.1818  0.0971
    1DPPC   NC3 1909  16.733   7.894   6.645  0.1565  0.0350  0.2109
    1DPPC   PO4 1910  17.151   8.141   6.585  0.1944  0.1850 -0.1176
    1DPPC   GL1 1911  17.297   8.146   6.217 -0.2409 -0.0285 -0.0553
    1DPPC   GL2 1912  17.041   8.328   6.069  0.0945  0.0986  0.0110
    1DPPC   C1A 1913  17.393   8.100   5.811  0.1153 -0.1035 -0.1014
    1DPPC   C2A 1914  17.260   8.193   5.370 -0.2852 -0.1148  0.2860
    1DPPC   C3A 1915  17.140   8.124   4.960 -0.0088  0.1277  0.1013
    1DPPC   C4A 1916  17.017   7.739   4.760  0.0743 -0.1966 -0.0835
    1DPPC   C1B 1917  16.927   8.635   5.799  0.0805 -0.0322  0.0106
    1DPPC   C2B 1918  16.968   8.679   5.307 -0.0466  0.2501 -0.2943
    1DPPC   C3B 1919  16.750   8.578   4.923  0.1093  0.1568 -0.3641
    1DPPC   C4B 1920  16.520   8.382   4.627 -0.0828  0.0326 -0.0565
    1DPPC   NC3 1921   5.487   9.521   6.713  0.1639  0.0265 -0.0013
    1DPPC   PO4 1922   5.394   9.110   6.596  0.3632 -0.1342  0.1784
    1DPPC   GL1 1923   5.552   8.850   6.310  0.1266  0.1027 -0.0125
    1DPPC   GL2 1924   5.819   8.615   6.448 -0.1399  0.1046  0.1264
    1DPPC   C1A 1925   5.601   8.927   5.900  0.2040 -0.0112 -0.0157
    1DPPC   C2A 1926   5.601   8.695   5.559 -0.1079  0.2364  0.2846
    1DPPC   C3A 1927   5.391   8.575   5.136  0.0732 -0.1341 -0.2303
    1DPPC   C4A 1928   5.256   8.546   4.798  0.1259  0.1225 -0.1056
    1DPPC   C1B 1929   5.885   8.462   6.034 -0.1170  0.1898 -0.0787
    1DPPC   C2B 1930   6.008   8.408   5.662 -0.1556 -0.2066 -0.2724
    1DPPC   C3B 1931   5.931   8.245   5.249 -0.2043  0.0076  0.0583
    1DPPC   C4B 1932   5.937   7.959   4.904  0.2575 -0.4915 -0.0548
    1DPPC   NC3 1933  18.630  15.859   6.611  0.0069 -0.2415  0.1704
    1DPPC   PO4 1934  18.389  15.409   6.522 -0.0135 -0.2759  0.1607
    1DPPC   GL1 1935  18.130  15.270   6.159 -0.0571 -0.3263 -0.1289
    1DPPC   GL2 1936  17.754  15.365   6.265  0.0829  0.0215 -0.0124
    1DPPC   C1A 1937  18.101  15.188   5.783 -0.2983 -0.1920 -0.0563
    1DPPC   C2A 1938  18.181  15.172   5.359  0.3282 -0.0109 -0.1071
    1DPPC   C3A 1939  18.196  15.115   4.904  0.0672 -0.1689  0.0690
    1DPPC   C4A 1940  18.170  14.990   4.461  0.1670  0.0649 -0.1125
    1DPPC   C1B 1941  17.705  15.458   5.853 -0.3989 -0.2993  0.0997
    1DPPC   C2B 1942  17.795  15.500   5.418  0.0912  0.3400  0.1407
    1DPPC   C3B 1943  17.895  15.499   5.105 -0.1330 -0.1178 -0.0734
    1DPPC   C4B 1944  17.719  15.355   4.663  0.0109 -0.3628  0.0171
    1DPPC   NC3 1945  26.803  23.596   6.857  0.0144  0.0757 -0.0845
    1DPPC   PO4 1946  26.930  23.203   6.688 -0.2444  0.2638  0.4284
    1DPPC   GL1 1947  26.835  23.059   6.186  0.1021  0.1408 -0.0053
    1DPPC   GL2 1948  26.630  23.012   5.929  0.1925 -0.2328  0.0630
    1DPPC   C1A 1949  27.065  22.958   5.665 -0.1235 -0.0185 -0.1639
    1DPPC   C2A 1950  26.956  22.843   5.306 -0.2429 -0.0454  0.3893
    1DPPC   C3A 1951  26.859  22.652   4.940  0.0247 -0.0434  0.0371
    1DPPC   C4A 1952  26.439  22.432   4.919  0.2460 -0.3582  0.0914
    1DPPC   C1B 1953  26.573  23.066   5.527 -0.0598  0.0860  0.0617
    1DPPC   C2B 1954  26.728  23.270   5.131 -0.1782 -0.0889 -0.3890
    1DPPC   C3B 1955  26.854  23.545   4.733 -0.1754  0.2820 -0.0456
    1DPPC   C4B 1956  26.780  23.988   4.793 -0.1146 -0.1623  0.0050
    1DPPC   NC3 1957  21.150  12.164   6.440 -0.0022  0.0474  0.1465
    1DPPC   PO4 1958  20.856  11.901   6.223 -0.0578  0.0571  0.3454
    1DPPC   GL1 1959  20.591  11.937   5.867 -0.0370 -0.1599 -0.1468
    1DPPC   GL2 1960  20.364  11.700   5.838  0.0701  0.1737 -0.0899
    1DPPC   C1A 1961  20.392  11.925   5.406 -0.2060  0.0487  0.1305
    1DPPC   C2A 1962  20.449  12.070   4.954  0.2354 -0.0370  0.0160
    1DPPC   C3A 1963  20.631  11.922   4.594 -0.0050 -0.0788  0.1888
    1DPPC   C4A 1964  21.052  11.843   4.464  0.1754 -0.2423 -0.1723
    1DPPC   C1B 1965  20.424  11.461   5.492  0.0667 -0.0460  0.1010
    1DPPC   C2B 1966  20.394  11.267   5.136 -0.1168 -0.0336  0.0337
    1DPPC   C3B 1967  20.468  11.170   4.730  0.3119 -0.1988  0.4168
    1DPPC   C4B 1968  20.451  11.029   4.244  0.2393 -0.2145  0.2072
    1DPPC   NC3 1969  12.706  20.423   6.555 -0.2185  0.2956 -0.2031
    1DPPC   PO4 1970  13.117  20.652   6.663 -0.2301  0.1434  0.1432
    1DPPC   GL1 1971  13.144  20.450   6.266 -0.0769 -0.2449 -0.0067
    1DPPC   GL2 1972  13.338  20.699   6.164 -0.0282  0.0101  0.1604
    1DPPC   C1A 1973  13.363  20.213   5.912 -0.3272 -0.1336  0.0585
    1DPPC   C2A 1974  13.224  20.152   5.545 -0.0632  0.0460  0.3503
    1DPPC   C3A 1975  13.092  19.875   5.191  0.2276  0.1952  0.0419
    1DPPC   C4A 1976  13.038  19.660   4.899  0.1424  0.1053 -0.1817
    1DPPC   C1B 1977  13.135  20.825   5.865 -0.0142  0.0028  0.0471
    1DPPC   C2B 1978  13.208  20.660   5.417  0.0441  0.1967  0.0603
    1DPPC   C3B 1979  13.145  20.419   5.094 -0.0057  0.2217  0.1403
    1DPPC   C4B 1980  13.262  20.201   4.770 -0.0814 -0.0902 -0.0260
    1DPPC   NC3 1981  15.178  20.760   6.580 -0.1287 -0.1562  0.1161
    1DPPC   PO4 1982  15.253  20.380   6.876  0.0151  0.2203  0.0194
    1DPPC   GL1 1983  15.272  20.059   6.472 -0.1894 -0.3318  0.2543
    1DPPC   GL2 1984  15.134  19.756   6.316  0.1756 -0.0293  0.2108
    1DPPC   C1A 1985  15.203  20.119   6.033  0.2475  0.2859  0.0190
    1DPPC   C2A 1986  15.221  20.025   5.532 -0.0930 -0.0365 -0.0236
    1DPPC   C3A 1987  15.181  20.032   5.076 -0.1546 -0.1504 -0.0250
    1DPPC   C4A 1988  15.342  20.019   4.612 -0.0144 -0.0425  0.1115
    1DPPC   C1B 1989  15.265  19.621   5.950  0.1226 -0.1128  0.3823
    1DPPC   C2B 1990  15.257  19.517   5.444 -0.0568 -0.0463 -0.0395
    1DPPC   C3B 1991  15.361  19.527   4.980  0.0207 -0.0089  0.0385
    1DPPC   C4B 1992  15.526  19.379   4.653  0.1349 -0.2544  0.0998
    1DPPC   NC3 1993  19.953   9.693   6.426 -0.2827  0.0103 -0.2423
    1DPPC   PO4 1994  19.525   9.685   6.330 -0.0138  0.0612  0.2641
    1DPPC   GL1 1995  19.712   9.531   5.974  0.2397  0.0873  0.1860
    1DPPC   GL2 1996  19.717   9.228   5.885 -0.1363 -0.0892 -0.1788
    1DPPC   C1A 1997  19.751   9.545   5.513  0.3174  0.1090  0.2321
    1DPPC   C2A 1998  19.874   9.406   5.114 -0.2210 -0.2199  0.1204
    1DPPC   C3A 1999  20.070   9.286   4.694 -0.0341 -0.0651 -0.1120
    1DPPC   C4A 2000  20.303   8.946   4.445  0.1780 -0.2855 -0.0414
    1DPPC   C1B 2001  19.262   9.086   5.624  0.0346 -0.1212 -0.2440
    1DPPC   C2B 2002  19.111   9.025   5.269  0.3020 -0.3235 -0.2520
    1DPPC   C3B 2003  19.066   9.053   4.834  0.2614  0.1326 -0.0065
    1DPPC   C4B 2004  19.099   8.854   4.391 -0.0265 -0.4630 -0.1356
    1DPPC   NC3 2005   7.491  13.932   6.593 -0.0390 -0.1444 -0.3910
    1DPPC   PO4 2006   7.453  13.533   6.612 -0.1340 -0.2441  0.1146
    1DPPC   GL1 2007   7.332  13.537   6.162 -0.2698  0.0416 -0.1066
    1DPPC   GL2 2008   7.602  13.381   5.944  0.0706 -0.0761  0.2775
    1DPPC   C1A 2009   7.140  13.526   5.651 -0.3785  0.2084 -0.1944
    1DPPC   C2A 2010   7.115  13.539   5.202 -0.3273 -0.1287 -0.0205
    1DPPC   C3A 2011   7.303  13.131   4.973 -0.0159  0.1667 -0.0447
    1DPPC   C4A 2012   7.480  12.868   4.554 -0.1358  0.1907 -0.0322
    1DPPC   C1B 2013   7.552  13.234   5.567 -0.0309  0.1288 -0.1960
    1DPPC   C2B 2014   7.668  13.444   5.251  0.0445  0.0268 -0.0040
    1DPPC   C3B 2015   7.799  13.350   4.968 -0.1800  0.0868  0.0038
    1DPPC   C4B 2016   7.956  13.060   4.669  0.0616  0.1342  0.1024
    1DPPC   NC3 2017  19.047  23.115   7.400 -0.0685  0.0330  0.1562
    1DPPC   PO4 2018  19.149  23.036   7.031 -0.1671 -0.2019 -0.0158
    1DPPC   GL1 2019  19.397  23.070   6.690  0.0178  0.0084  0.2111
    1DPPC   GL2 2020  19.650  22.886   6.588 -0.0217 -0.0652 -0.2195
    1DPPC   C1A 2021  19.374  23.153   6.235  0.1074 -0.3624  0.0303
    1DPPC   C2A 2022  19.251  23.442   5.790  0.0938 -0.2913  0.1285
    1DPPC   C3A 2023  19.211  23.899   5.800 -0.0840  0.1666  0.1118
    1DPPC   C4A 2024  19.551  24.204   5.962 -0.1718  0.1241 -0.0766
    1DPPC   C1B 2025  19.638  22.737   6.164  0.3375  0.1667 -0.2277
    1DPPC   C2B 2026  19.625  22.586   5.702 -0.1276  0.0544 -0.3526
    1DPPC   C3B 2027  19.476  22.264   5.383  0.0724 -0.1759 -0.0708
    1DPPC   C4B 2028  19.389  21.855   5.055  0.1588  0.0736 -0.1021
    1DPPC   NC3 2029   9.997  17.120   6.716  0.0549  0.0615 -0.0399
    1DPPC   PO4 2030  10.239  17.391   6.876  0.3015  0.3501  0.3676
    1DPPC   GL1 2031  10.224  17.542   6.398 -0.0695 -0.2027  0.1222
    1DPPC   GL2 2032   9.947  17.450   6.308 -0.0005 -0.0304 -0.0635
    1DPPC   C1A 2033  10.513  17.475   6.081 -0.2355 -0.0547 -0.0219
    1DPPC   C2A 2034  10.540  17.468   5.750  0.1143 -0.0346  0.1174
    1DPPC   C3A 2035  10.462  17.393   5.326 -0.0968  0.1616 -0.0515
    1DPPC   C4A 2036  10.464  17.389   4.886  0.1958 -0.1381 -0.0245
    1DPPC   C1B 2037  10.042  17.377   5.915  0.1745  0.1207 -0.0949
    1DPPC   C2B 2038   9.982  17.317   5.514 -0.1590 -0.0268  0.0321
    1DPPC   C3B 2039  10.141  17.071   5.135 -0.0617  0.1748  0.0498
    1DPPC   C4B 2040  10.027  16.831   4.727 -0.2282 -0.1335 -0.1153
    1DPPC   NC3 2041  17.671  12.313   6.874  0.0458 -0.0253 -0.2453
    1DPPC   PO4 2042  17.271  12.429   6.746  0.1609 -0.2141 -0.2159
    1DPPC   GL1 2043  17.302  12.317   6.351  0.0194  0.1422 -0.0962
    1DPPC   GL2 2044  17.027  12.206   6.087  0.0910  0.0018 -0.2796
    1DPPC   C1A 2045  17.496  12.114   5.923 -0.0226 -0.1821  0.0382
    1DPPC   C2A 2046  17.707  12.184   5.575 -0.0462 -0.1441  0.2693
    1DPPC   C3A 2047  17.673  12.210   5.102  0.0111  0.0670 -0.0169
    1DPPC   C4A 2048  17.430  12.066   4.828 -0.2106  0.1969  0.0013
    1DPPC   C1B 2049  16.895  12.275   5.666 -0.2247 -0.0102  0.0631
    1DPPC   C2B 2050  17.154  12.147   5.288 -0.0404  0.1153  0.0395
    1DPPC   C3B 2051  16.845  12.202   4.937 -0.1571  0.1047 -0.3322
    1DPPC   C4B 2052  16.778  12.396   4.637  0.0264 -0.2501 -0.2944
    1DPPC   NC3 2053  19.330  16.721   7.106  0.1430  0.1204 -0.0358
    1DPPC   PO4 2054  19.011  16.999   6.888 -0.0105 -0.0999 -0.0944
    1DPPC   GL1 2055  18.933  17.084   6.573 -0.1449  0.1113  0.1227
    1DPPC   GL2 2056  18.603  17.090   6.589 -0.2929 -0.1039 -0.3442
    1DPPC   C1A 2057  19.269  17.082   6.208  0.0453 -0.0700  0.0344
    1DPPC   C2A 2058  19.440  17.094   5.832 -0.1360  0.0342 -0.2895
    1DPPC   C3A 2059  19.533  17.284   5.513 -0.1168  0.0494  0.0643
    1DPPC   C4A 2060  19.552  17.209   5.076  0.2324  0.0655 -0.2668
    1DPPC   C1B 2061  18.602  17.150   6.213 -0.2517  0.1931 -0.0775
    1DPPC   C2B 2062  18.616  17.131   5.754  0.0069 -0.1536 -0.1581
    1DPPC   C3B 2063  18.644  17.354   5.387 -0.1028 -0.0756 -0.1100
    1DPPC   C4B 2064  18.608  17.492   4.991 -0.3730  0.4157  0.0160
    1DPPC   NC3 2065  16.488   9.130   6.953  0.0255  0.1393  0.0286
    1DPPC   PO4 2066  16.461   8.812   6.557 -0.0563  0.0358 -0.2652
    1DPPC   GL1 2067  16.437   8.571   6.175 -0.1272 -0.4257  0.0807
    1DPPC   GL2 2068  16.146   8.681   6.037 -0.0543 -0.3514 -0.2020
    1DPPC   C1A 2069  16.429   8.509   5.682  0.1070  0.1524  0.2219
    1DPPC   C2A 2070  16.319   8.381   5.295  0.0731 -0.3786  0.0666
    1DPPC   C3A 2071  16.056   8.195   4.893  0.0026 -0.1958  0.2509
    1DPPC   C4A 2072  15.949   7.839   4.667  0.0409  0.0099  0.2400
    1DPPC   C1B 2073  15.965   8.601   5.568  0.0882  0.0914 -0.2669
    1DPPC   C2B 2074  15.868   8.607   5.102  0.2041 -0.0819 -0.0480
    1DPPC   C3B 2075  16.148   8.709   4.736  0.1225 -0.1692  0.2752
    1DPPC   C4B 2076  16.241   8.972   4.439 -0.2483 -0.0747 -0.2572
    1DPPC   NC3 2077  20.631  11.385   6.189  0.0378  0.0202 -0.0768
    1DPPC   PO4 2078  20.509  11.049   6.280 -0.1898  0.3996 -0.0062
    1DPPC   GL1 2079  20.563  11.114   5.812  0.1205 -0.0462 -0.1873
    1DPPC   GL2 2080  20.214  11.004   5.781 -0.0759  0.1071  0.1682
    1DPPC   C1A 2081  20.838  11.025   5.420  0.1838  0.0141  0.0849
    1DPPC   C2A 2082  20.839  11.090   5.026 -0.0836 -0.0486  0.0353
    1DPPC   C3A 2083  21.001  10.995   4.666  0.3136 -0.2482 -0.0455
    1DPPC   C4A 2084  20.922  10.891   4.302 -0.0453  0.0703 -0.1898
    1DPPC   C1B 2085  20.217  10.896   5.430 -0.0644 -0.2199 -0.0210
    1DPPC   C2B 2086  20.236  10.816   4.975  0.2135  0.4078  0.1987
    1DPPC   C3B 2087  20.124  10.754   4.590  0.1039 -0.4222 -0.0580
    1DPPC   C4B 2088  20.017  10.588   4.190 -0.2146 -0.0166 -0.1317
    1DPPC   NC3 2089  16.035   8.344   7.188 -0.0456  0.0270  0.0835
    1DPPC   PO4 2090  16.352   8.068   6.888 -0.0457  0.3284  0.3429
    1DPPC   GL1 2091  16.353   8.037   6.339 -0.1599  0.2162  0.0547
    1DPPC   GL2 2092  16.320   7.726   6.462  0.1719  0.0104  0.1169
    1DPPC   C1A 2093  16.663   8.059   5.966 -0.0575  0.2184  0.0304
    1DPPC   C2A 2094  16.703   8.111   5.474  0.2882 -0.0603  0.0637
    1DPPC   C3A 2095  16.681   7.984   5.084 -0.0533 -0.1499 -0.1922
    1DPPC   C4A 2096  16.470   7.902   4.708  0.0643  0.1953 -0.1732
    1DPPC   C1B 2097  16.260   7.534   5.998 -0.0070 -0.0435 -0.0346
    1DPPC   C2B 2098  16.523   7.588   5.562  0.3149 -0.4630  0.1310
    1DPPC   C3B 2099  16.691   7.467   5.114 -0.1831 -0.1120 -0.0775
    1DPPC   C4B 2100  17.041   7.290   4.913 -0.2267 -0.0677 -0.1961
    1DPPC   NC3 2101  21.021   9.246   6.192  0.0460 -0.2156  0.2261
    1DPPC   PO4 2102  20.753   9.565   6.245  0.0921  0.0525 -0.0543
    1DPPC   GL1 2103  20.543   9.746   5.919  0.0618 -0.1701  0.1008
    1DPPC   GL2 2104  20.194   9.625   5.984 -0.3563 -0.0735 -0.0217
    1DPPC   C1A 2105  20.418   9.593   5.517 -0.0170 -0.1544 -0.1248
    1DPPC   C2A 2106  20.595   9.637   5.103  0.0866  0.2559 -0.0161
    1DPPC   C3A 2107  20.628   9.478   4.690  0.1202  0.0352  0.2576
    1DPPC   C4A 2108  20.481   9.444   4.265  0.1073  0.1357  0.1794
    1DPPC   C1B 2109  20.068   9.951   5.640  0.1898 -0.0055 -0.1460
    1DPPC   C2B 2110  20.154   9.814   5.148  0.2863  0.1353 -0.1860
    1DPPC   C3B 2111  20.152   9.765   4.791 -0.3823 -0.1220  0.1257
    1DPPC   C4B 2112  20.175   9.793   4.408  0.1048  0.3425 -0.2549
    1DPPC   NC3 2113  23.410  27.457   6.489  0.1049 -0.4989 -0.0590
    1DPPC   PO4 2114  23.653  27.093   6.555 -0.1111 -0.0733 -0.1912
    1DPPC   GL1 2115  23.801  27.182   6.201  0.2106 -0.0553  0.2588
    1DPPC   GL2 2116  23.963  27.431   6.226  0.0065  0.3345  0.0240
    1DPPC   C1A 2117  23.685  27.264   5.659  0.0837 -0.0082 -0.1288
    1DPPC   C2A 2118  23.489  27.088   5.338 -0.1871 -0.2484  0.0312
    1DPPC   C3A 2119  23.177  26.743   5.121 -0.2748 -0.1244 -0.3628
    1DPPC   C4A 2120  22.875  26.569   5.346 -0.0974  0.2154 -0.2140
    1DPPC   C1B 2121  24.085  27.534   5.778 -0.0501  0.0016 -0.1446
    1DPPC   C2B 2122  23.912  27.692   5.400 -0.1817 -0.0889 -0.0429
    1DPPC   C3B 2123  23.905  27.521   4.995  0.0676  0.2606  0.1607
    1DPPC   C4B 2124  23.893  27.036   4.947  0.2096 -0.2006  0.1006
    1DPPC   NC3 2125  18.167  15.382   6.985  0.1591 -0.3407  0.0292
    1DPPC   PO4 2126  18.207  15.905   6.828  0.0979  0.2353 -0.2456
    1DPPC   GL1 2127  18.251  16.074   6.386  0.3540 -0.2552 -0.0574
    1DPPC   GL2 2128  17.989  15.846   6.331  0.2187  0.0263 -0.0310
    1DPPC   C1A 2129  18.101  16.321   6.126  0.1737  0.2074  0.1962
    1DPPC   C2A 2130  18.236  16.300   5.675  0.1434  0.2233  0.1588
    1DPPC   C3A 2131  18.325  16.223   5.221 -0.2376  0.0472 -0.0265
    1DPPC   C4A 2132  18.664  16.187   4.859  0.1861  0.2081 -0.0148
    1DPPC   C1B 2133  17.817  15.969   5.997  0.0228 -0.1342  0.5051
    1DPPC   C2B 2134  17.849  16.054   5.582  0.0962  0.2773 -0.1363
    1DPPC   C3B 2135  17.901  16.058   5.164  0.0168  0.4427  0.1115
    1DPPC   C4B 2136  17.990  16.042   4.694 -0.0173 -0.0325  0.0752
    1DPPC   NC3 2137  15.265  22.809   6.497  0.2393  0.3339  0.2759
    1DPPC   PO4 2138  15.371  22.414   6.454 -0.0013 -0.0643  0.0034
    1DPPC   GL1 2139  15.285  22.442   6.030  0.1200 -0.0232 -0.1136
    1DPPC   GL2 2140  15.272  22.073   6.006 -0.2401 -0.1790 -0.0433
    1DPPC   C1A 2141  15.231  22.397   5.633 -0.1048  0.2963  0.1613
    1DPPC   C2A 2142  15.276  22.501   5.293 -0.2569 -0.0873  0.2762
    1DPPC   C3A 2143  15.446  22.367   4.872  0.3191  0.0651 -0.6556
    1DPPC   C4A 2144  15.510  22.513   4.465 -0.1637 -0.0958 -0.0399
    1DPPC   C1B 2145  15.367  21.882   5.630  0.0733  0.0846 -0.0422
    1DPPC   C2B 2146  15.423  21.932   5.144  0.1530 -0.2428 -0.1289
    1DPPC   C3B 2147  15.663  21.942   4.747 -0.0002  0.1572 -0.0005
    1DPPC   C4B 2148  15.989  21.787   4.501 -0.0314 -0.0664 -0.2789
    1DPPC   NC3 2149  13.042  13.473   6.814  0.2228 -0.1407 -0.0900
    1DPPC   PO4 2150  13.190  13.092   6.809  0.0306  0.0671 -0.0263
    1DPPC   GL1 2151  13.166  13.148   6.415 -0.1038  0.1522 -0.3415
    1DPPC   GL2 2152  12.922  13.349   6.346  0.1100 -0.1007 -0.0654
    1DPPC   C1A 2153  13.101  13.085   5.976  0.0809  0.0307 -0.0548
    1DPPC   C2A 2154  13.087  13.001   5.497 -0.0302  0.1679  0.1398
    1DPPC   C3A 2155  12.992  12.975   5.037 -0.3198 -0.3455 -0.1544
    1DPPC   C4A 2156  13.142  13.112   4.619 -0.2080  0.2279 -0.0964
    1DPPC   C1B 2157  12.714  13.463   5.972 -0.0551  0.0299 -0.0132
    1DPPC   C2B 2158  12.731  13.347   5.574 -0.1668  0.1850 -0.1131
    1DPPC   C3B 2159  12.693  13.370   5.126  0.0306  0.0309  0.1209
    1DPPC   C4B 2160  12.243  13.508   4.871  0.1615  0.0382  0.0924
    1DPPC   NC3 2161  10.478  13.742   6.895 -0.1458 -0.3210 -0.1817
    1DPPC   PO4 2162  10.233  13.396   6.771 -0.2348  0.0964 -0.0706
    1DPPC   GL1 2163  10.201  13.181   6.325  0.0651 -0.0669  0.1367
    1DPPC   GL2 2164   9.888  13.033   6.279 -0.2133 -0.2510  0.0936
    1DPPC   C1A 2165  10.322  13.035   5.910  0.1548 -0.1085 -0.2182
    1DPPC   C2A 2166  10.166  12.810   5.553 -0.0892  0.0600  0.0075
    1DPPC   C3A 2167  10.217  12.652   5.178 -0.1978 -0.4778 -0.0827
    1DPPC   C4A 2168   9.962  12.613   4.865 -0.4384  0.0389 -0.2452
    1DPPC   C1B 2169   9.909  12.740   5.997 -0.0266 -0.1410  0.2145
    1DPPC   C2B 2170   9.699  12.649   5.679  0.0600  0.0902  0.0847
    1DPPC   C3B 2171   9.769  12.431   5.326 -0.1231  0.1573  0.0303
    1DPPC   C4B 2172   9.977  12.209   5.156 -0.0651  0.1563  0.0280
    1DPPC   NC3 2173   8.769  18.344   6.371  0.0499 -0.0209 -0.0554
    1DPPC   PO4 2174   8.966  18.625   6.683  0.3105 -0.1476  0.2914
    1DPPC   GL1 2175   9.050  18.748   6.213  0.1614 -0.0979 -0.1804
    1DPPC   GL2 2176   9.272  18.520   6.123  0.0125  0.3212 -0.0015
    1DPPC   C1A 2177   9.104  18.833   5.772  0.0695  0.1224  0.2009
    1DPPC   C2A 2178   9.047  18.810   5.353 -0.1104  0.3161  0.0451
    1DPPC   C3A 2179   9.113  18.874   4.919 -0.1367 -0.0009 -0.2539
    1DPPC   C4A 2180   9.281  18.844   4.518 -0.1966  0.1074 -0.0113
    1DPPC   C1B 2181   9.552  18.534   5.739  0.0111 -0.1037 -0.0914
    1DPPC   C2B 2182   9.382  18.495   5.257 -0.1393 -0.2262  0.0129
    1DPPC   C3B 2183   9.433  18.471   4.771 -0.0827  0.2586 -0.3656
    1DPPC   C4B 2184   9.449  18.344   4.377  0.2187 -0.2016  0.1024
    1DPPC   NC3 2185  13.648  12.935   7.234 -0.0549 -0.3463  0.0147
    1DPPC   PO4 2186  13.538  12.563   6.807 -0.1638  0.1907 -0.3543
    1DPPC   GL1 2187  13.366  12.684   6.522  0.0837  0.0211  0.1179
    1DPPC   GL2 2188  13.102  12.588   6.477  0.0886 -0.2499 -0.1258
    1DPPC   C1A 2189  13.266  12.648   6.041 -0.2688  0.2237 -0.0080
    1DPPC   C2A 2190  13.138  12.512   5.705 -0.2219 -0.2032  0.0620
    1DPPC   C3A 2191  12.879  12.446   5.369 -0.0943 -0.1124  0.1383
    1DPPC   C4A 2192  12.645  12.351   5.057  0.0289 -0.1215 -0.0687
    1DPPC   C1B 2193  12.929  12.267   6.168 -0.1464  0.1023  0.0645
    1DPPC   C2B 2194  12.731  12.237   5.813 -0.1964 -0.0142  0.0794
    1DPPC   C3B 2195  12.402  12.259   5.544  0.0860  0.0247  0.0948
    1DPPC   C4B 2196  12.193  12.589   5.225  0.0538 -0.1121 -0.1348
    1DPPC   NC3 2197  17.583   8.417   6.625 -0.0880  0.1681  0.1108
    1DPPC   PO4 2198  17.825   8.747   6.370 -0.1097  0.1760  0.0153
    1DPPC   GL1 2199  18.064   8.672   5.997  0.0331  0.1072  0.1541
    1DPPC   GL2 2200  17.909   8.772   5.827  0.5767 -0.2459 -0.5704
    1DPPC   C1A 2201  18.302   8.485   5.711  0.1733  0.0184 -0.1459
    1DPPC   C2A 2202  18.291   8.336   5.382  0.3671  0.0539  0.0390
    1DPPC   C3A 2203  18.293   8.250   4.926  0.0916  0.2211  0.2984
    1DPPC   C4A 2204  17.979   8.134   4.643 -0.3412  0.1790  0.1488
    1DPPC   C1B 2205  17.992   8.740   5.396  0.1209  0.0404 -0.1595
    1DPPC   C2B 2206  17.922   8.630   4.960 -0.0136  0.1241 -0.1199
    1DPPC   C3B 2207  18.064   8.680   4.590  0.0332  0.0150  0.0586
    1DPPC   C4B 2208  18.272   8.987   4.404  0.0316  0.0580 -0.0287
    1DPPC   NC3 2209   6.188   9.176   7.230 -0.0329  0.2868  0.0474
    1DPPC   PO4 2210   5.906   9.519   7.015 -0.1217 -0.0053 -0.3045
    1DPPC   GL1 2211   5.950   9.219   6.643 -0.1215  0.1365 -0.1179
    1DPPC   GL2 2212   6.319   9.371   6.440 -0.1648 -0.0566 -0.1732
    1DPPC   C1A 2213   6.112   8.988   6.349 -0.0787 -0.1042  0.1082
    1DPPC   C2A 2214   6.130   8.867   5.900  0.0828  0.2152 -0.1127
    1DPPC   C3A 2215   6.059   8.945   5.558  0.0713  0.1283  0.2500
    1DPPC   C4A 2216   6.255   9.141   5.230 -0.1265 -0.3148  0.1413
    1DPPC   C1B 2217   6.345   9.281   5.964  0.0774 -0.1369 -0.1918
    1DPPC   C2B 2218   6.211   9.469   5.568  0.1382  0.1549 -0.1248
    1DPPC   C3B 2219   5.976   9.568   5.135 -0.0458  0.2752 -0.1076
    1DPPC   C4B 2220   5.722   9.856   4.937  0.0749  0.2457 -0.0228
    1DPPC   NC3 2221  10.585  12.725   7.339  0.0283  0.1116  0.0534
    1DPPC   PO4 2222  10.982  12.909   7.245  0.0241 -0.0465  0.1744
    1DPPC   GL1 2223  11.035  12.827   6.686  0.0834 -0.3050 -0.0554
    1DPPC   GL2 2224  10.883  13.038   6.475 -0.0102  0.0459 -0.0909
    1DPPC   C1A 2225  11.221  12.552   6.413  0.0436 -0.0998 -0.0884
    1DPPC   C2A 2226  11.257  12.199   6.038 -0.1788 -0.3286 -0.0481
    1DPPC   C3A 2227  11.461  11.977   5.711  0.2488  0.0326  0.0229
    1DPPC   C4A 2228  11.916  11.785   5.515 -0.0375 -0.0017 -0.3304
    1DPPC   C1B 2229  10.960  12.883   6.138 -0.0905  0.2239  0.0456
    1DPPC   C2B 2230  11.061  12.619   5.898  0.2626 -0.0717 -0.0895
    1DPPC   C3B 2231  11.167  12.388   5.370  0.1977 -0.2670  0.2454
    1DPPC   C4B 2232  11.432  12.034   5.076  0.2196  0.1889 -0.0299
    1DPPC   NC3 2233  11.523  12.827   7.223  0.0795  0.0717 -0.0443
    1DPPC   PO4 2234  11.947  12.787   7.084 -0.2276 -0.1517 -0.2733
    1DPPC   GL1 2235  11.881  12.816   6.698  0.1267 -0.3920  0.1171
    1DPPC   GL2 2236  12.123  12.772   6.456 -0.2393 -0.0644 -0.1626
    1DPPC   C1A 2237  11.629  12.843   6.437  0.1847  0.1957 -0.1135
    1DPPC   C2A 2238  11.511  12.699   6.043 -0.2323  0.1739  0.1415
    1DPPC   C3A 2239  11.526  12.573   5.626  0.0734  0.2540  0.3764
    1DPPC   C4A 2240  11.723  12.350   5.370 -0.0522  0.1695 -0.3474
    1DPPC   C1B 2241  12.025  12.758   6.028 -0.2664  0.3321  0.1568
    1DPPC   C2B 2242  11.932  12.851   5.622  0.0278 -0.1529 -0.0236
    1DPPC   C3B 2243  11.760  12.946   5.279 -0.1399  0.0824 -0.0980
    1DPPC   C4B 2244  11.964  13.061   4.934 -0.0861 -0.1560 -0.2353
    1DPPC   NC3 2245  20.603   7.992   6.650  0.0172  0.0412 -0.0480
    1DPPC   PO4 2246  20.874   8.294   6.359 -0.3640  0.0634 -0.1084
    1DPPC   GL1 2247  21.093   8.592   6.119  0.2024  0.1691 -0.0137
    1DPPC   GL2 2248  21.320   8.745   6.220 -0.0902 -0.1197  0.1295
    1DPPC   C1A 2249  21.008   8.738   5.693  0.0201 -0.1792  0.0094
    1DPPC   C2A 2250  21.062   8.650   5.202  0.1060 -0.0245 -0.0569
    1DPPC   C3A 2251  21.300   8.596   4.826  0.1950  0.4511  0.3760
    1DPPC   C4A 2252  21.355   8.778   4.473 -0.0612 -0.0552 -0.0378
    1DPPC   C1B 2253  21.505   8.558   5.844  0.0607 -0.0765  0.1854
    1DPPC   C2B 2254  21.556   8.500   5.247 -0.0491 -0.2479 -0.0422
    1DPPC   C3B 2255  21.737   8.318   4.839  0.2030 -0.1942  0.0704
    1DPPC   C4B 2256  22.074   8.128   4.559 -0.2227  0.1342  0.1894
    1DPPC   NC3 2257  15.458   9.477   7.079 -0.0789 -0.1520  0.1384
    1DPPC   PO4 2258  15.056   9.341   6.955  0.2493 -0.4153 -0.0556
    1DPPC   GL1 2259  14.772   9.612   6.710  0.2591 -0.1197 -0.5282
    1DPPC   GL2 2260  14.746   9.462   6.387 -0.2520  0.1319 -0.0646
    1DPPC   C1A 2261  14.356   9.725   6.360 -0.0944  0.3644 -0.0982
    1DPPC   C2A 2262  14.100   9.722   5.937  0.2231 -0.1789 -0.0495
    1DPPC   C3A 2263  14.059   9.742   5.512 -0.0581  0.0293 -0.0928
    1DPPC   C4A 2264  13.884   9.859   5.133 -0.2176 -0.0306 -0.3316
    1DPPC   C1B 2265  14.651   9.246   6.094 -0.2919 -0.2029 -0.0311
    1DPPC   C2B 2266  14.500   9.359   5.685 -0.1810  0.1675  0.0199
    1DPPC   C3B 2267  14.324   9.313   5.274 -0.1243 -0.2176 -0.1536
    1DPPC   C4B 2268  14.223   9.370   4.868  0.0433  0.1895 -0.0173
    1DPPC   NC3 2269  20.305  16.680   7.051 -0.0310 -0.4452 -0.0704
    1DPPC   PO4 2270  19.906  16.692   6.751  0.4105  0.1712  0.0040
    1DPPC   GL1 2271  19.937  16.963   6.399 -0.1086  0.0849 -0.4976
    1DPPC   GL2 2272  20.225  16.862   6.290 -0.0027 -0.1789 -0.3908
    1DPPC   C1A 2273  19.951  17.269   6.173  0.0038  0.0901  0.2569
    1DPPC   C2A 2274  19.979  17.347   5.777 -0.0674  0.1371  0.1859
    1DPPC   C3A 2275  20.008  17.369   5.356 -0.1375  0.1507  0.1865
    1DPPC   C4A 2276  20.182  17.208   4.913 -0.1888 -0.0734 -0.3016
    1DPPC   C1B 2277  20.321  16.901   5.863 -0.1242 -0.2640  0.0652
    1DPPC   C2B 2278  20.441  16.837   5.376  0.1999  0.2311 -0.2115
    1DPPC   C3B 2279  20.728  16.988   5.029  0.1274 -0.1030 -0.0187
    1DPPC   C4B 2280  20.671  17.309   4.758 -0.1414  0.0549  0.2896
    1DPPC   NC3 2281  11.206  13.802   6.772 -0.0296  0.0962 -0.1239
    1DPPC   PO4 2282  10.920  13.549   6.807  0.0077  0.0910  0.0668
    1DPPC   GL1 2283  10.602  13.504   6.442  0.0207  0.0159  0.6037
    1DPPC   GL2 2284  10.443  13.769   6.361  0.0111 -0.3161 -0.2172
    1DPPC   C1A 2285  10.773  13.355   6.051 -0.0128  0.0220 -0.1228
    1DPPC   C2A 2286  10.724  13.273   5.721  0.0867  0.0357  0.0608
    1DPPC   C3A 2287  10.806  13.256   5.341 -0.0674  0.1419  0.3093
    1DPPC   C4A 2288  11.003  13.248   4.910 -0.1043  0.3323  0.1248
    1DPPC   C1B 2289  10.647  13.863   5.950 -0.0825  0.0987  0.1095
    1DPPC   C2B 2290  10.600  13.841   5.616 -0.2247  0.0775 -0.2328
    1DPPC   C3B 2291  10.688  13.702   5.249  0.1239  0.0975 -0.0366
    1DPPC   C4B 2292  10.645  13.642   4.817 -0.2751  0.0839 -0.2773
    1DPPC   NC3 2293  19.080  18.720   7.269 -0.1567 -0.0074  0.0572
    1DPPC   PO4 2294  18.646  18.509   7.018  0.0045  0.1087  0.1030
    1DPPC   GL1 2295  18.669  18.493   6.551 -0.0865  0.0754  0.1216
    1DPPC   GL2 2296  18.969  18.194   6.539  0.1397 -0.0141  0.2114
    1DPPC   C1A 2297  18.698  18.681   6.086  0.1331 -0.0111  0.1672
    1DPPC   C2A 2298  18.466  18.585   5.745 -0.3761  0.0113 -0.1844
    1DPPC   C3A 2299  18.492  18.663   5.336 -0.2682  0.3265 -0.1940
    1DPPC   C4A 2300  18.489  18.985   5.046 -0.1908 -0.2813 -0.4472
    1DPPC   C1B 2301  18.749  18.052   6.139 -0.1951  0.4728  0.0467
    1DPPC   C2B 2302  18.790  18.196   5.811 -0.2467 -0.0182  0.2717
    1DPPC   C3B 2303  18.864  18.354   5.429 -0.1056  0.2007 -0.2939
    1DPPC   C4B 2304  18.976  18.481   5.061  0.1262 -0.0837 -0.2598
    1DPPC   NC3 2305  15.183  21.740   6.332  0.0318  0.0767  0.1971
    1DPPC   PO4 2306  15.071  21.303   6.404  0.2788 -0.3993  0.1489
    1DPPC   GL1 2307  14.987  20.905   6.131  0.1093 -0.0758  0.2523
    1DPPC   GL2 2308  14.922  20.527   6.147  0.3073  0.3615 -0.0691
    1DPPC   C1A 2309  14.710  20.745   5.731 -0.0244 -0.0221  0.0512
    1DPPC   C2A 2310  14.814  20.381   5.499 -0.0802  0.1028  0.0567
    1DPPC   C3A 2311  14.776  20.342   5.059 -0.0742 -0.3472  0.4900
    1DPPC   C4A 2312  14.896  20.466   4.681 -0.1754  0.1895  0.2968
    1DPPC   C1B 2313  15.226  20.532   5.766 -0.1260  0.2382 -0.1804
    1DPPC   C2B 2314  15.539  20.854   5.613 -0.1630 -0.2176 -0.0934
    1DPPC   C3B 2315  15.465  20.973   5.187 -0.0228  0.0142 -0.0919
    1DPPC   C4B 2316  15.492  20.912   4.781  0.0014 -0.3135 -0.5834
    1DPPC   NC3 2317   8.658   2.341   7.537  0.2629  0.1588 -0.0154
    1DPPC   PO4 2318   8.764   1.922   7.301 -0.1203  0.1015 -0.0854
    1DPPC   GL1 2319   8.924   1.902   6.851  0.3700  0.0478 -0.3147
    1DPPC   GL2 2320   8.917   1.624   6.682  0.2765  0.2602 -0.1208
    1DPPC   C1A 2321   9.139   2.091   6.530  0.2436  0.0138  0.0459
    1DPPC   C2A 2322   9.189   2.386   6.084 -0.1980  0.1719  0.3226
    1DPPC   C3A 2323   9.064   2.344   5.675  0.0545  0.0329 -0.1140
    1DPPC   C4A 2324   9.036   2.258   5.268  0.2885  0.1903  0.2083
    1DPPC   C1B 2325   8.917   1.676   6.248  0.0650 -0.0344  0.1209
    1DPPC   C2B 2326   8.836   1.926   5.899 -0.0768 -0.2297 -0.1011
    1DPPC   C3B 2327   8.695   2.105   5.580 -0.1169  0.1490  0.1467
    1DPPC   C4B 2328   8.649   2.539   5.406  0.1814  0.0749  0.0604
    1DPPC   NC3 2329   8.234  24.184   5.902 -0.1529 -0.0485  0.3232
    1DPPC   PO4 2330   8.043  23.762   5.972 -0.1814 -0.0890  0.0182
    1DPPC   GL1 2331   7.855  23.949   5.577  0.2495  0.0407  0.0768
    1DPPC   GL2 2332   7.583  23.827   5.426 -0.1167 -0.2387  0.0983
    1DPPC   C1A 2333   7.954  24.156   5.127  0.4391 -0.2356  0.1394
    1DPPC   C2A 2334   7.932  24.323   4.720  0.0162 -0.2863  0.2215
    1DPPC   C3A 2335   7.668  24.673   4.438  0.3468 -0.0402 -0.0873
    1DPPC   C4A 2336   7.472  24.999   4.306  0.1273 -0.0403  0.1390
    1DPPC   C1B 2337   7.431  24.026   4.988 -0.1439 -0.1613  0.0581
    1DPPC   C2B 2338   7.397  24.190   4.534 -0.0463 -0.1952  0.0171
    1DPPC   C3B 2339   7.242  24.441   4.250  0.0293  0.0450 -0.1776
    1DPPC   C4B 2340   7.104  24.700   4.007  0.0879  0.0382  0.1261
    1DPPC   NC3 2341   6.534  12.078   7.164  0.3672 -0.0401 -0.1900
    1DPPC   PO4 2342   6.560  11.810   6.766  0.0587 -0.2417 -0.0922
    1DPPC   GL1 2343   6.818  11.636   6.433  0.3132 -0.0120  0.4110
    1DPPC   GL2 2344   6.996  11.889   6.242  0.0534 -0.0763 -0.1106
    1DPPC   C1A 2345   6.769  11.631   5.876  0.0916 -0.1034 -0.0929
    1DPPC   C2A 2346   6.596  11.615   5.468 -0.0377 -0.0512 -0.0794
    1DPPC   C3A 2347   6.476  11.960   5.169  0.1751 -0.3528 -0.0123
    1DPPC   C4A 2348   6.680  12.133   4.788 -0.0320 -0.0943  0.1204
    1DPPC   C1B 2349   7.254  11.934   6.015 -0.2589 -0.2424 -0.1266
    1DPPC   C2B 2350   7.568  11.806   5.638 -0.0650  0.1265 -0.1821
    1DPPC   C3B 2351   7.925  11.788   5.401  0.0253 -0.3203  0.2025
    1DPPC   C4B 2352   8.258  11.639   5.140 -0.0117 -0.0230 -0.0080
    1DPPC   NC3 2353  11.468  14.255   6.939 -0.1288  0.1922  0.1235
    1DPPC   PO4 2354  11.213  14.462   6.690  0.0652  0.2827  0.1720
    1DPPC   GL1 2355  10.955  14.594   6.356  0.0432  0.1566  0.1456
    1DPPC   GL2 2356  10.846  14.303   6.217 -0.3477  0.2551 -0.0993
    1DPPC   C1A 2357  10.852  14.745   5.888 -0.2582 -0.0846 -0.0221
    1DPPC   C2A 2358  10.891  14.601   5.460 -0.0643 -0.1574 -0.0686
    1DPPC   C3A 2359  10.917  14.523   4.995  0.1660  0.1525 -0.2916
    1DPPC   C4A 2360  11.278  14.323   4.735 -0.2602 -0.1796 -0.2578
    1DPPC   C1B 2361  10.983  14.189   5.736 -0.3083 -0.4788 -0.2654
    1DPPC   C2B 2362  10.922  14.158   5.336 -0.0237  0.0769 -0.4080
    1DPPC   C3B 2363  11.067  13.931   4.970 -0.0948 -0.0252  0.0411
    1DPPC   C4B 2364  11.276  13.691   4.765  0.2202  0.2352  0.0732
    1DPPC   NC3 2365  17.994  10.082   6.317  0.0756 -0.3349  0.0227
    1DPPC   PO4 2366  18.025   9.622   6.335 -0.0782 -0.1180 -0.1982
    1DPPC   GL1 2367  18.137   9.725   5.932  0.1511 -0.2982 -0.1774
    1DPPC   GL2 2368  17.828   9.821   5.816 -0.1665  0.0261  0.3626
    1DPPC   C1A 2369  18.285   9.522   5.593 -0.0691  0.1954  0.1295
    1DPPC   C2A 2370  18.234   9.484   5.188 -0.1794 -0.1230  0.1248
    1DPPC   C3A 2371  18.238   9.422   4.699 -0.0311  0.1929 -0.1120
    1DPPC   C4A 2372  17.925   9.355   4.223  0.2443 -0.0413 -0.0115
    1DPPC   C1B 2373  17.767   9.700   5.435  0.1233  0.1627  0.3861
    1DPPC   C2B 2374  17.770   9.647   4.925 -0.3661 -0.1065  0.2779
    1DPPC   C3B 2375  17.806   9.863   4.490 -0.1826  0.1889 -0.1778
    1DPPC   C4B 2376  17.715   9.977   4.145 -0.0553  0.3583 -0.0339
    1DPPC   NC3 2377  11.124  16.427   6.473 -0.1178 -0.0798  0.0857
    1DPPC   PO4 2378  10.837  16.069   6.391  0.2596  0.2815 -0.1265
    1DPPC   GL1 2379  11.054  16.140   6.012 -0.0472 -0.2148  0.0177
    1DPPC   GL2 2380  10.883  16.418   5.956 -0.0847 -0.0749 -0.0346
    1DPPC   C1A 2381  11.266  16.315   5.653 -0.1257  0.0308  0.1850
    1DPPC   C2A 2382  11.431  16.325   5.250 -0.0540 -0.2794 -0.3398
    1DPPC   C3A 2383  11.446  16.385   4.791  0.0567  0.1980 -0.1729
    1DPPC   C4A 2384  11.600  16.234   4.533 -0.0347  0.0836 -0.1158
    1DPPC   C1B 2385  10.692  16.326   5.612 -0.0282 -0.1758  0.0984
    1DPPC   C2B 2386  10.806  16.460   5.106  0.0647  0.1285  0.0151
    1DPPC   C3B 2387  11.014  16.578   4.857 -0.3147 -0.0216 -0.1175
    1DPPC   C4B 2388  10.889  16.730   4.495 -0.3273  0.4100 -0.1903
    1DPPC   NC3 2389  18.184  17.721   6.932 -0.1785  0.0473 -0.2588
    1DPPC   PO4 2390  18.269  17.291   6.879 -0.0536  0.0024 -0.5344
    1DPPC   GL1 2391  18.360  17.547   6.527 -0.0627 -0.1049 -0.0473
    1DPPC   GL2 2392  18.102  17.756   6.364  0.1955 -0.0021 -0.0167
    1DPPC   C1A 2393  18.484  17.614   6.133  0.1215  0.0048 -0.0898
    1DPPC   C2A 2394  18.561  17.760   5.681 -0.0764 -0.1436 -0.4130
    1DPPC   C3A 2395  18.732  17.896   5.301 -0.1503 -0.0921  0.1914
    1DPPC   C4A 2396  18.856  18.014   4.905  0.0688 -0.3131  0.0717
    1DPPC   C1B 2397  18.246  18.019   6.002 -0.1318  0.1344 -0.0790
    1DPPC   C2B 2398  18.257  18.151   5.553  0.1802  0.0592 -0.3087
    1DPPC   C3B 2399  18.317  18.200   5.104 -0.1833 -0.1857  0.1562
    1DPPC   C4B 2400  18.390  17.890   4.822 -0.1319  0.0775  0.2034
    1DPPC   NC3 2401  16.033  23.183   6.657  0.2385 -0.2388 -0.2080
    1DPPC   PO4 2402  16.244  23.578   6.553 -0.0176  0.1524  0.0534
    1DPPC   GL1 2403  16.379  23.893   6.156  0.0404  0.2337 -0.0421
    1DPPC   GL2 2404  16.404  24.200   6.232 -0.2810  0.1139 -0.0956
    1DPPC   C1A 2405  16.592  24.009   5.806  0.0394 -0.1946  0.0938
    1DPPC   C2A 2406  16.501  23.940   5.438  0.0521 -0.0002 -0.2569
    1DPPC   C3A 2407  16.474  24.259   5.057 -0.0692  0.1265 -0.2860
    1DPPC   C4A 2408  16.695  24.614   4.946  0.0302 -0.1542 -0.3816
    1DPPC   C1B 2409  16.894  24.421   6.089 -0.0893 -0.0569 -0.1601
    1DPPC   C2B 2410  17.244  24.344   5.744 -0.0715  0.0085 -0.6097
    1DPPC   C3B 2411  17.365  24.188   5.330 -0.2911  0.0635 -0.1066
    1DPPC   C4B 2412  17.474  23.934   4.872 -0.0181 -0.0505 -0.0202
    1DPPC   NC3 2413  22.377  15.669   6.256 -0.3188  0.2056  0.0945
    1DPPC   PO4 2414  22.822  15.391   6.301 -0.1442 -0.0969 -0.2322
    1DPPC   GL1 2415  22.810  15.440   5.911 -0.2322 -0.1252 -0.0003
    1DPPC   GL2 2416  23.136  15.465   5.752 -0.1766  0.1461  0.3146
    1DPPC   C1A 2417  22.741  15.479   5.459 -0.0313  0.1796  0.0123
    1DPPC   C2A 2418  22.858  15.561   4.989  0.0463  0.1763  0.2114
    1DPPC   C3A 2419  23.089  15.381   4.571 -0.1209 -0.0213  0.1480
    1DPPC   C4A 2420  23.024  15.137   4.211 -0.2256 -0.4229 -0.1416
    1DPPC   C1B 2421  22.954  15.062   5.665  0.1812 -0.0413  0.1274
    1DPPC   C2B 2422  22.726  14.702   5.684 -0.0009 -0.0697 -0.0682
    1DPPC   C3B 2423  22.660  14.370   5.500  0.0482  0.0463 -0.2407
    1DPPC   C4B 2424  22.342  14.095   5.466  0.1693  0.0479 -0.0307
    1DPPC   NC3 2425   9.744  12.196   7.271  0.0464  0.2451 -0.1116
    1DPPC   PO4 2426  10.030  11.809   7.267  0.4654  0.1380 -0.3144
    1DPPC   GL1 2427  10.220  11.811   6.933  0.1419  0.0291  0.0310
    1DPPC   GL2 2428  10.529  12.064   6.704  0.2325 -0.0660  0.0225
    1DPPC   C1A 2429  10.019  11.821   6.499 -0.0109  0.0494  0.0009
    1DPPC   C2A 2430  10.071  11.412   6.246 -0.1598  0.0699 -0.0553
    1DPPC   C3A 2431  10.011  11.157   5.833  0.1535 -0.0404 -0.1801
    1DPPC   C4A 2432  10.274  11.159   5.521 -0.1770  0.1966  0.0796
    1DPPC   C1B 2433  10.345  12.120   6.341  0.1091 -0.2495 -0.1501
    1DPPC   C2B 2434  10.218  11.911   5.912  0.0361  0.0653  0.0933
    1DPPC   C3B 2435  10.351  11.845   5.497  0.1011 -0.0700 -0.1706
    1DPPC   C4B 2436  10.179  11.530   5.186 -0.1921  0.1138  0.1047
    1DPPC   NC3 2437  14.009  12.636   6.925 -0.1892 -0.1767  0.1401
    1DPPC   PO4 2438  14.325  12.799   6.641 -0.2071 -0.0549  0.1858
    1DPPC   GL1 2439  14.124  12.820   6.286  0.2152 -0.0702 -0.3341
    1DPPC   GL2 2440  13.945  12.513   6.395 -0.0300  0.0793  0.1295
    1DPPC   C1A 2441  14.162  12.880   5.905 -0.2620  0.1844  0.0650
    1DPPC   C2A 2442  14.000  12.816   5.580 -0.0046  0.0011 -0.0715
    1DPPC   C3A 2443  13.904  12.762   5.175  0.0858  0.0770  0.1302
    1DPPC   C4A 2444  13.886  12.730   4.742 -0.0282 -0.1043 -0.0528
    1DPPC   C1B 2445  13.809  12.547   5.993 -0.1766 -0.1029  0.2295
    1DPPC   C2B 2446  13.580  12.534   5.580 -0.2350  0.1153 -0.0354
    1DPPC   C3B 2447  13.384  12.626   5.234  0.3485 -0.0582 -0.1094
    1DPPC   C4B 2448  13.296  12.578   4.787 -0.2948 -0.4999  0.1140
    1DPPC   NC3 2449  20.038   8.468   6.594  0.0588  0.0042  0.1778
    1DPPC   PO4 2450  20.086   8.065   6.658 -0.1347  0.2830  0.2108
    1DPPC   GL1 2451  20.050   7.948   6.138  0.2492 -0.2519  0.0189
    1DPPC   GL2 2452  19.844   8.258   6.111  0.0677 -0.1962 -0.1469
    1DPPC   C1A 2453  20.208   8.000   5.683  0.4211 -0.0869  0.2022
    1DPPC   C2A 2454  20.216   7.713   5.473 -0.2506  0.2843  0.1680
    1DPPC   C3A 2455  20.192   7.678   5.106 -0.0055  0.0510 -0.0299
    1DPPC   C4A 2456  20.292   7.353   4.890  0.1901  0.1198  0.0744
    1DPPC   C1B 2457  19.741   8.059   5.710 -0.1538 -0.0072  0.1295
    1DPPC   C2B 2458  19.750   8.197   5.302 -0.3204 -0.1163 -0.2225
    1DPPC   C3B 2459  19.824   8.498   4.914  0.0771 -0.0973  0.2386
    1DPPC   C4B 2460  19.682   8.624   4.503  0.1132 -0.1984  0.0727
    1DPPC   NC3 2461  21.205  16.604   6.361 -0.2467  0.2127 -0.0261
    1DPPC   PO4 2462  20.838  16.281   6.577 -0.1809  0.0986 -0.1059
    1DPPC   GL1 2463  20.767  16.465   6.175 -0.0344  0.1973  0.1259
    1DPPC   GL2 2464  20.956  16.204   6.083 -0.0720  0.2768  0.0387
    1DPPC   C1A 2465  20.730  16.589   5.724 -0.0263 -0.0387 -0.1598
    1DPPC   C2A 2466  20.800  16.492   5.313 -0.0666  0.1075 -0.2795
    1DPPC   C3A 2467  20.848  16.517   4.870 -0.1956 -0.0382  0.0458
    1DPPC   C4A 2468  21.112  16.542   4.513 -0.1589  0.1668  0.1777
    1DPPC   C1B 2469  20.701  16.013   5.788  0.0916  0.1671 -0.2146
    1DPPC   C2B 2470  20.613  15.998   5.416 -0.3018 -0.0919 -0.0340
    1DPPC   C3B 2471  20.801  16.025   5.008 -0.1430 -0.0395  0.0726
    1DPPC   C4B 2472  21.022  16.012   4.596 -0.2111 -0.1106  0.2824
    1DPPC   NC3 2473   9.437  15.916   6.450 -0.4014  0.2541  0.0474
    1DPPC   PO4 2474   9.600  15.490   6.417  0.1697 -0.1890  0.0969
    1DPPC   GL1 2475   9.819  15.333   6.131 -0.0693 -0.0984 -0.2845
    1DPPC   GL2 2476  10.054  15.057   6.280 -0.2721 -0.0562  0.1972
    1DPPC   C1A 2477   9.876  15.186   5.675  0.1928 -0.4050 -0.0944
    1DPPC   C2A 2478   9.956  14.922   5.312 -0.3710  0.0797  0.0420
    1DPPC   C3A 2479   9.975  14.745   4.952  0.2154  0.2189  0.0955
    1DPPC   C4A 2480  10.312  14.453   4.703  0.2347 -0.2024  0.0732
    1DPPC   C1B 2481  10.324  14.954   5.939 -0.2215  0.1107  0.2768
    1DPPC   C2B 2482  10.442  14.893   5.533 -0.1320  0.2140 -0.0144
    1DPPC   C3B 2483  10.447  14.785   5.128  0.1800  0.0673  0.0291
    1DPPC   C4B 2484  10.633  14.865   4.781 -0.1848  0.0066 -0.3421
    1DPPC   NC3 2485  13.336  15.218   7.207 -0.0952 -0.1655 -0.1554
    1DPPC   PO4 2486  13.798  15.401   7.067 -0.1418 -0.2010 -0.2699
    1DPPC   GL1 2487  13.505  15.140   6.749  0.2043 -0.0349  0.4309
    1DPPC   GL2 2488  13.612  14.826   6.608 -0.0041  0.0169 -0.0715
    1DPPC   C1A 2489  13.286  14.947   6.297  0.2495  0.2270 -0.0509
    1DPPC   C2A 2490  13.251  14.814   5.844 -0.0192  0.0058 -0.0612
    1DPPC   C3A 2491  13.261  14.757   5.436 -0.1172  0.1501  0.1418
    1DPPC   C4A 2492  13.298  14.844   5.008 -0.1313 -0.2331 -0.0425
    1DPPC   C1B 2493  13.668  14.798   6.087 -0.2822  0.0813  0.1602
    1DPPC   C2B 2494  13.758  14.698   5.644 -0.0126 -0.0330 -0.0349
    1DPPC   C3B 2495  13.777  14.711   5.217  0.3450  0.1268 -0.1077
    1DPPC   C4B 2496  13.560  14.440   5.029  0.3916  0.1524 -0.0200
    1DPPC   NC3 2497  12.420  14.643   7.406  0.2928 -0.1291  0.1843
    1DPPC   PO4 2498  12.502  14.537   6.902  0.1607  0.1857  0.0786
    1DPPC   GL1 2499  12.606  14.573   6.512 -0.0027  0.2182 -0.3378
    1DPPC   GL2 2500  12.871  14.569   6.332 -0.4194  0.2253  0.0339
    1DPPC   C1A 2501  12.472  14.785   6.065  0.2138  0.1147  0.0525
    1DPPC   C2A 2502  12.641  14.846   5.678 -0.0893 -0.0751  0.0322
    1DPPC   C3A 2503  12.833  14.891   5.191 -0.0604 -0.0324 -0.1547
    1DPPC   C4A 2504  12.855  14.775   4.749  0.2148 -0.1696  0.1197
    1DPPC   C1B 2505  12.885  14.447   5.894  0.0487 -0.1428 -0.3282
    1DPPC   C2B 2506  12.925  14.459   5.469 -0.1161  0.2739  0.2665
    1DPPC   C3B 2507  13.021  14.368   5.093 -0.0863 -0.1860  0.1048
    1DPPC   C4B 2508  13.210  14.451   4.652 -0.1289 -0.0538 -0.0812
    1DPPC   NC3 2509  14.929  13.604   6.586 -0.1633 -0.1690 -0.1762
    1DPPC   PO4 2510  15.082  13.282   6.499  0.1126 -0.0591  0.1319
    1DPPC   GL1 2511  14.874  13.249   6.150 -0.0273 -0.3133 -0.1524
    1DPPC   GL2 2512  14.726  13.565   6.114  0.2417 -0.0958  0.2263
    1DPPC   C1A 2513  14.952  13.249   5.754  0.1758  0.0427  0.0257
    1DPPC   C2A 2514  15.192  13.160   5.440  0.0102 -0.2412 -0.1375
    1DPPC   C3A 2515  15.218  13.127   4.989  0.0721 -0.3451  0.2118
    1DPPC   C4A 2516  15.445  13.203   4.664  0.5203  0.2266  0.0505
    1DPPC   C1B 2517  14.790  13.706   5.709  0.0272 -0.1984  0.2061
    1DPPC   C2B 2518  14.759  13.882   5.223  0.3554 -0.1337 -0.1775
    1DPPC   C3B 2519  14.490  13.998   4.839 -0.1217 -0.3756  0.3365
    1DPPC   C4B 2520  14.154  13.910   4.777  0.2383 -0.1767 -0.0900
    1DPPC   NC3 2521  10.656   8.150   7.565 -0.3300 -0.3083  0.2269
    1DPPC   PO4 2522  10.654   7.768   7.338  0.0398 -0.1301 -0.0135
    1DPPC   GL1 2523  10.575   7.570   6.949  0.0901  0.0968 -0.0678
    1DPPC   GL2 2524  10.471   7.835   6.864 -0.2988 -0.1208 -0.1988
    1DPPC   C1A 2525  10.420   7.599   6.493  0.1195  0.2563  0.0147
    1DPPC   C2A 2526  10.332   7.458   5.972 -0.0025 -0.2571  0.1658
    1DPPC   C3A 2527  10.255   7.565   5.562  0.2998  0.0115 -0.2735
    1DPPC   C4A 2528  10.615   7.566   5.361  0.1301  0.0204 -0.1252
    1DPPC   C1B 2529  10.584   8.095   6.498  0.1630 -0.1370 -0.5081
    1DPPC   C2B 2530  10.572   8.194   6.019  0.1865 -0.3032  0.2325
    1DPPC   C3B 2531  10.351   8.494   5.780  0.0974 -0.1381  0.4262
    1DPPC   C4B 2532  10.171   8.727   5.507  0.0482 -0.2089  0.0501
    1DPPC   NC3 2533   8.921  12.210   6.861 -0.2135  0.2280 -0.1482
    1DPPC   PO4 2534   8.440  12.157   6.867  0.1306 -0.0203  0.2512
    1DPPC   GL1 2535   8.509  11.773   6.572  0.1172  0.1856  0.0006
    1DPPC   GL2 2536   8.224  11.716   6.625 -0.0543 -0.4181  0.0773
    1DPPC   C1A 2537   8.484  11.648   6.127 -0.0403  0.0398 -0.2560
    1DPPC   C2A 2538   8.308  11.542   5.727 -0.1375  0.2329 -0.1312
    1DPPC   C3A 2539   8.323  11.194   5.411  0.0916  0.3823 -0.1281
    1DPPC   C4A 2540   8.321  10.710   5.286 -0.0049 -0.2336  0.4412
    1DPPC   C1B 2541   8.036  11.477   6.411  0.0617 -0.2425 -0.0182
    1DPPC   C2B 2542   7.852  11.319   6.066 -0.1799 -0.1141  0.1741
    1DPPC   C3B 2543   7.802  11.396   5.689 -0.1434  0.3377  0.0104
    1DPPC   C4B 2544   7.690  11.334   5.245 -0.1824 -0.1426 -0.0696
    1DPPC   NC3 2545  15.647  13.833   6.977  0.4038 -0.0875 -0.0886
    1DPPC   PO4 2546  15.784  13.895   6.524  0.1888  0.0645  0.0272
    1DPPC   GL1 2547  15.566  13.766   6.148 -0.0429  0.0059 -0.2270
    1DPPC   GL2 2548  15.264  13.748   6.111 -0.1424  0.0598 -0.1442
    1DPPC   C1A 2549  15.658  13.780   5.753  0.0768 -0.1558  0.1445
    1DPPC   C2A 2550  15.621  13.907   5.235  0.1964  0.2911 -0.0300
    1DPPC   C3A 2551  15.532  14.072   4.842  0.0359 -0.1024  0.0199
    1DPPC   C4A 2552  15.345  14.393   4.484 -0.1057 -0.0383  0.1752
    1DPPC   C1B 2553  15.241  13.609   5.536  0.0295  0.1137 -0.2582
    1DPPC   C2B 2554  15.156  13.720   5.008 -0.0405 -0.0773 -0.1652
    1DPPC   C3B 2555  15.229  13.642   4.570 -0.3975  0.2219 -0.0802
    1DPPC   C4B 2556  15.593  13.838   4.397 -0.2674 -0.0066  0.0507
    1DPPC   NC3 2557  12.104  14.863   6.969  0.1026 -0.1688 -0.2791
    1DPPC   PO4 2558  11.992  15.227   6.649 -0.3529 -0.1459 -0.2681
    1DPPC   GL1 2559  12.146  14.908   6.412  0.1755  0.0263  0.0164
    1DPPC   GL2 2560  12.125  14.564   6.583 -0.1285  0.2527 -0.0377
    1DPPC   C1A 2561  11.966  14.738   6.138  0.0581  0.0407  0.0937
    1DPPC   C2A 2562  12.056  14.670   5.748  0.0305 -0.2600  0.0746
    1DPPC   C3A 2563  12.001  14.675   5.277 -0.4590  0.0973 -0.0026
    1DPPC   C4A 2564  12.175  14.825   4.884 -0.1042 -0.2505 -0.0092
    1DPPC   C1B 2565  12.287  14.366   6.210  0.1893  0.0280 -0.0961
    1DPPC   C2B 2566  12.413  14.326   5.820 -0.0585 -0.0359  0.1236
    1DPPC   C3B 2567  12.407  14.296   5.404  0.2684  0.0979  0.1883
    1DPPC   C4B 2568  12.526  14.482   5.093 -0.3694 -0.3146  0.0667
    1DPPC   NC3 2569   9.764  15.588   6.958 -0.2771 -0.2077  0.0154
    1DPPC   PO4 2570   9.894  15.908   6.604 -0.2423 -0.1923 -0.0039
    1DPPC   GL1 2571   9.989  15.839   6.171 -0.0606 -0.0231  0.1894
    1DPPC   GL2 2572   9.714  15.882   6.033 -0.0133 -0.1249 -0.0437
    1DPPC   C1A 2573  10.206  15.970   5.780 -0.1021  0.0601  0.0306
    1DPPC   C2A 2574  10.371  15.931   5.436 -0.1205  0.0860 -0.2220
    1DPPC   C3A 2575  10.490  16.079   5.082 -0.0362 -0.1745 -0.0436
    1DPPC   C4A 2576  10.658  16.200   4.709 -0.2321 -0.0786  0.0995
    1DPPC   C1B 2577   9.743  15.686   5.715  0.3844  0.1905  0.0853
    1DPPC   C2B 2578   9.907  15.556   5.262  0.2092 -0.1563 -0.1628
    1DPPC   C3B 2579  10.057  15.330   5.043  0.1704  0.1065  0.1501
    1DPPC   C4B 2580  10.314  15.274   4.679 -0.1172  0.2178 -0.1484
    1DPPC   NC3 2581  17.162  10.217   6.498 -0.1555  0.2010  0.0128
    1DPPC   PO4 2582  17.529  10.276   6.471 -0.3109  0.0834  0.0356
    1DPPC   GL1 2583  17.633  10.566   6.135  0.1269 -0.2549  0.0728
    1DPPC   GL2 2584  17.259  10.614   6.082 -0.0177  0.0203 -0.1765
    1DPPC   C1A 2585  17.666  10.531   5.730  0.3944 -0.1464  0.1524
    1DPPC   C2A 2586  17.649  10.229   5.503  0.0537 -0.1453 -0.0798
    1DPPC   C3A 2587  17.537  10.096   5.125  0.0291 -0.1727 -0.0415
    1DPPC   C4A 2588  17.334   9.948   4.684 -0.1968 -0.0320 -0.1325
    1DPPC   C1B 2589  17.146  10.599   5.668  0.2603 -0.1283 -0.2808
    1DPPC   C2B 2590  17.343  10.598   5.286  0.1794  0.1540  0.1635
    1DPPC   C3B 2591  17.201  10.418   4.911  0.0507  0.3021 -0.1002
    1DPPC   C4B 2592  17.124  10.464   4.488  0.2231 -0.1052  0.1712
    1DPPC   NC3 2593  14.358  16.409   7.244 -0.0281  0.1000 -0.0908
    1DPPC   PO4 2594  14.693  16.397   6.873  0.0511  0.1980 -0.2828
    1DPPC   GL1 2595  14.520  16.396   6.395 -0.1284  0.0038  0.0605
    1DPPC   GL2 2596  14.149  16.335   6.295 -0.1020  0.0361 -0.5224
    1DPPC   C1A 2597  14.655  16.499   5.994 -0.3309  0.0244 -0.0239
    1DPPC   C2A 2598  14.594  16.538   5.627 -0.0683  0.0504  0.0879
    1DPPC   C3A 2599  14.721  16.472   5.217  0.0078 -0.3600 -0.3337
    1DPPC   C4A 2600  14.762  16.501   4.781  0.1475  0.1318 -0.3138
    1DPPC   C1B 2601  14.063  16.431   5.851  0.0056 -0.2598  0.1189
    1DPPC   C2B 2602  14.137  16.414   5.430  0.1185 -0.0131 -0.1760
    1DPPC   C3B 2603  14.216  16.415   5.107 -0.3700 -0.0627  0.0437
    1DPPC   C4B 2604  14.225  16.519   4.624  0.0341  0.0749 -0.0216
    1DPPC   NC3 2605  16.903   9.995   7.006 -0.3608  0.1346  0.0260
    1DPPC   PO4 2606  16.748   9.971   6.579 -0.0543  0.3026 -0.1243
    1DPPC   GL1 2607  16.402  10.026   6.227  0.0623  0.0107  0.0122
    1DPPC   GL2 2608  16.442   9.716   6.094 -0.1077 -0.3309 -0.0826
    1DPPC   C1A 2609  16.080  10.136   5.907  0.3443  0.3758 -0.0588
    1DPPC   C2A 2610  15.994  10.149   5.487 -0.0063  0.1993  0.2359
    1DPPC   C3A 2611  15.851  10.241   5.123  0.2835  0.0604  0.0189
    1DPPC   C4A 2612  15.788  10.443   4.788 -0.1049  0.0026  0.1730
    1DPPC   C1B 2613  16.234   9.479   5.645  0.0917 -0.1946  0.0598
    1DPPC   C2B 2614  16.169   9.415   5.247  0.0237  0.2144 -0.1197
    1DPPC   C3B 2615  16.158   9.461   4.757  0.0622  0.1289 -0.3182
    1DPPC   C4B 2616  16.129   9.589   4.309 -0.1883 -0.0301 -0.0217
    1DPPC   NC3 2617   9.505  18.697   6.607 -0.1423 -0.3744  0.0623
    1DPPC   PO4 2618   9.718  18.227   6.679  0.1363 -0.0010  0.0953
    1DPPC   GL1 2619   9.703  18.386   6.317 -0.2223  0.1552  0.1235
    1DPPC   GL2 2620   9.803  18.696   6.176 -0.2654 -0.1247  0.0399
    1DPPC   C1A 2621   9.817  18.235   5.988 -0.0036  0.4570  0.4094
    1DPPC   C2A 2622   9.882  18.186   5.629  0.0560  0.2136  0.1470
    1DPPC   C3A 2623   9.766  18.136   5.172 -0.0553  0.1559 -0.0133
    1DPPC   C4A 2624   9.769  18.140   4.740  0.0794 -0.0279 -0.0909
    1DPPC   C1B 2625  10.053  18.637   5.818 -0.1963  0.1215  0.1340
    1DPPC   C2B 2626   9.852  18.590   5.361  0.0964  0.3244  0.1207
    1DPPC   C3B 2627   9.905  18.617   4.899  0.0095  0.2178  0.2133
    1DPPC   C4B 2628   9.861  18.770   4.505 -0.1660 -0.2305 -0.0903
    1DPPC   NC3 2629  17.282  12.896   6.522  0.0749  0.0118  0.1983
    1DPPC   PO4 2630  17.672  13.200   6.601  0.0992 -0.0636  0.1750
    1DPPC   GL1 2631  17.597  13.039   6.203 -0.0879  0.0469 -0.0606
    1DPPC   GL2 2632  17.838  13.257   6.084 -0.1945  0.2822 -0.0314
    1DPPC   C1A 2633  17.576  12.695   5.937  0.0834 -0.0506  0.2273
    1DPPC   C2A 2634  17.524  12.701   5.434 -0.1382 -0.1424  0.0988
    1DPPC   C3A 2635  17.450  12.703   5.032  0.0552 -0.0819  0.0442
    1DPPC   C4A 2636  17.259  12.539   4.747  0.0323  0.1532  0.0789
    1DPPC   C1B 2637  17.740  13.110   5.648  0.1456  0.0229 -0.0823
    1DPPC   C2B 2638  17.737  13.139   5.162  0.1219  0.3387  0.3495
    1DPPC   C3B 2639  17.713  13.358   4.830  0.0945 -0.1463  0.1038
    1DPPC   C4B 2640  17.782  13.616   4.437  0.1315  0.0270 -0.3847
    1DPPC   NC3 2641  11.190  17.407   6.886 -0.1418  0.2178  0.0601
    1DPPC   PO4 2642  10.942  17.841   6.713  0.4447  0.2847  0.0608
    1DPPC   GL1 2643  11.066  17.618   6.281 -0.2603  0.1986 -0.0785
    1DPPC   GL2 2644  11.199  17.365   6.399 -0.0603  0.3772  0.0683
    1DPPC   C1A 2645  11.305  17.604   5.921 -0.1535  0.0358 -0.1612
    1DPPC   C2A 2646  11.393  17.735   5.511 -0.0278 -0.1583 -0.2379
    1DPPC   C3A 2647  11.251  17.768   5.051 -0.0241  0.1024 -0.0324
    1DPPC   C4A 2648  10.968  17.679   4.699 -0.0048 -0.1116  0.0065
    1DPPC   C1B 2649  10.967  17.248   5.991  0.2734 -0.1001 -0.4667
    1DPPC   C2B 2650  10.966  17.306   5.549  0.1364  0.0584 -0.0617
    1DPPC   C3B 2651  11.006  17.337   5.170  0.0670 -0.0805 -0.1559
    1DPPC   C4B 2652  10.943  17.097   4.871 -0.0685 -0.1684 -0.2025
    1DPPC   NC3 2653   9.947  16.634   6.773  0.0078 -0.0495 -0.2845
    1DPPC   PO4 2654   9.711  16.806   6.417 -0.2479  0.3676 -0.0575
    1DPPC   GL1 2655   9.566  17.069   6.178 -0.2767 -0.0484 -0.1072
    1DPPC   GL2 2656   9.267  16.921   6.180 -0.0777  0.0473 -0.1015
    1DPPC   C1A 2657   9.581  17.180   5.728  0.0536 -0.0921 -0.2651
    1DPPC   C2A 2658   9.582  17.159   5.282  0.0465 -0.0795 -0.1843
    1DPPC   C3A 2659   9.517  17.121   4.899 -0.1383  0.2334  0.1519
    1DPPC   C4A 2660   9.585  16.927   4.509 -0.2161 -0.0601 -0.3721
    1DPPC   C1B 2661   9.139  16.854   5.739  0.0824  0.1155  0.0784
    1DPPC   C2B 2662   9.201  16.826   5.214  0.0523 -0.0609  0.0071
    1DPPC   C3B 2663   9.200  16.594   4.849  0.2632  0.0944 -0.0562
    1DPPC   C4B 2664   9.051  16.432   4.543 -0.0345  0.0622 -0.1146
    1DPPC   NC3 2665  19.201  15.503   6.905 -0.0278  0.2102  0.2200
    1DPPC   PO4 2666  19.107  15.837   6.782  0.0122  0.0696  0.1001
    1DPPC   GL1 2667  19.203  16.021   6.420 -0.1051 -0.1240  0.1438
    1DPPC   GL2 2668  19.305  15.821   6.191  0.1125  0.1892 -0.0157
    1DPPC   C1A 2669  19.242  16.335   6.153 -0.1827  0.2787 -0.0774
    1DPPC   C2A 2670  19.321  16.395   5.794  0.1659  0.0535 -0.0146
    1DPPC   C3A 2671  19.332  16.557   5.475 -0.1129  0.4444  0.1979
    1DPPC   C4A 2672  19.392  16.748   5.080  0.2026 -0.1846  0.0777
    1DPPC   C1B 2673  19.135  15.955   5.836  0.1252 -0.1502 -0.1937
    1DPPC   C2B 2674  19.179  16.032   5.460 -0.2613 -0.2325  0.1217
    1DPPC   C3B 2675  19.239  16.196   5.030  0.0015 -0.0741 -0.0542
    1DPPC   C4B 2676  19.372  16.435   4.605  0.0331  0.3223 -0.1496
    1DPPC   NC3 2677  12.754  12.007   7.082  0.0396  0.0344  0.1892
    1DPPC   PO4 2678  13.160  12.101   7.220  0.0346  0.2522  0.2241
    1DPPC   GL1 2679  13.221  12.139   6.770 -0.1626 -0.1990  0.3396
    1DPPC   GL2 2680  13.020  12.058   6.627  0.2790 -0.5798 -0.3516
    1DPPC   C1A 2681  13.423  12.170   6.308 -0.3167  0.1844  0.0417
    1DPPC   C2A 2682  13.445  12.171   5.950 -0.0871  0.1169 -0.1169
    1DPPC   C3A 2683  13.342  12.105   5.540  0.0733 -0.1998 -0.0579
    1DPPC   C4A 2684  13.229  12.158   5.086  0.3952 -0.0508 -0.2115
    1DPPC   C1B 2685  13.031  11.714   6.318 -0.0829 -0.2051 -0.0301
    1DPPC   C2B 2686  13.011  11.862   5.891  0.0330 -0.1296 -0.1714
    1DPPC   C3B 2687  12.790  11.951   5.447 -0.5461  0.0362  0.4322
    1DPPC   C4B 2688  12.811  11.919   4.969  0.1093  0.2215  0.1130
    1DPPC   NC3 2689  16.492  17.373   7.213  0.3098  0.0673  0.0676
    1DPPC   PO4 2690  16.717  17.108   6.929  0.0432  0.2136  0.1332
    1DPPC   GL1 2691  16.606  17.221   6.436 -0.1223  0.0834 -0.0013
    1DPPC   GL2 2692  16.363  16.982   6.325 -0.1036  0.0813 -0.3066
    1DPPC   C1A 2693  16.636  17.398   6.024 -0.1548 -0.6065 -0.0130
    1DPPC   C2A 2694  16.749  17.501   5.616 -0.0001 -0.2407  0.2692
    1DPPC   C3A 2695  17.014  17.681   5.231 -0.1114  0.1762 -0.1573
    1DPPC   C4A 2696  17.165  17.799   4.900 -0.0788 -0.0694 -0.0572
    1DPPC   C1B 2697  16.172  16.628   5.991 -0.0387 -0.2963 -0.2015
    1DPPC   C2B 2698  16.198  16.626   5.540 -0.4669  0.3317  0.1609
    1DPPC   C3B 2699  16.357  16.745   5.146 -0.2519 -0.1678 -0.2139
    1DPPC   C4B 2700  16.214  16.936   4.733 -0.2313  0.0438  0.0893
    1DPPC   NC3 2701  15.451  12.927   6.633 -0.0609 -0.2427 -0.0501
    1DPPC   PO4 2702  15.855  12.944   6.480 -0.2640 -0.0020 -0.4425
    1DPPC   GL1 2703  16.067  13.016   6.145 -0.3268 -0.0384  0.0186
    1DPPC   GL2 2704  16.398  13.166   6.141  0.0942  0.0588  0.1550
    1DPPC   C1A 2705  16.209  12.966   5.713  0.0902  0.6018 -0.1006
    1DPPC   C2A 2706  16.048  12.945   5.260  0.2604  0.1310  0.0733
    1DPPC   C3A 2707  15.808  13.004   4.904  0.2657 -0.2345  0.2353
    1DPPC   C4A 2708  15.702  12.826   4.524 -0.1557 -0.0163 -0.1847
    1DPPC   C1B 2709  16.651  13.150   5.709 -0.0453  0.1523 -0.0486
    1DPPC   C2B 2710  16.713  13.185   5.287 -0.1722  0.0246 -0.0120
    1DPPC   C3B 2711  16.813  13.355   4.874 -0.2094 -0.1360  0.0145
    1DPPC   C4B 2712  17.010  13.688   4.565  0.1938  0.2416  0.0609
    1DPPC   NC3 2713  13.669  18.874   6.933 -0.0629  0.1712  0.3526
    1DPPC   PO4 2714  13.711  19.153   6.587 -0.0194 -0.0428  0.0447
    1DPPC   GL1 2715  13.611  19.006   6.189  0.2862  0.1312 -0.3058
    1DPPC   GL2 2716  13.656  18.708   6.210  0.2953  0.1023  0.1715
    1DPPC   C1A 2717  13.558  18.905   5.678 -0.1093 -0.1602  0.0843
    1DPPC   C2A 2718  13.580  18.854   5.259 -0.2062 -0.0226  0.0954
    1DPPC   C3A 2719  13.475  18.625   4.927 -0.2481 -0.1395 -0.1397
    1DPPC   C4A 2720  13.149  18.599   4.639 -0.1319  0.0231  0.1790
    1DPPC   C1B 2721  13.871  18.527   5.795 -0.0254 -0.0104 -0.0641
    1DPPC   C2B 2722  13.858  18.421   5.329 -0.3112  0.0407 -0.1255
    1DPPC   C3B 2723  13.722  18.165   4.979  0.0789 -0.2784  0.0419
    1DPPC   C4B 2724  13.494  18.167   4.620 -0.0508 -0.3169  0.0423
    1DPPC   NC3 2725  18.021  11.133   6.312  0.1055 -0.2216  0.0317
    1DPPC   PO4 2726  18.431  11.380   6.220 -0.2391  0.1228 -0.0846
    1DPPC   GL1 2727  18.160  11.278   5.872  0.2230 -0.2174  0.0493
    1DPPC   GL2 2728  18.458  11.205   5.735  0.1326  0.0112 -0.0002
    1DPPC   C1A 2729  18.015  11.292   5.524 -0.1292  0.3191 -0.0928
    1DPPC   C2A 2730  17.977  11.290   5.115  0.1363 -0.0078 -0.0487
    1DPPC   C3A 2731  17.951  11.414   4.674 -0.2143  0.2172 -0.0314
    1DPPC   C4A 2732  17.773  11.279   4.294 -0.0753  0.1407 -0.2433
    1DPPC   C1B 2733  18.398  11.033   5.340  0.0856  0.0183 -0.3043
    1DPPC   C2B 2734  18.347  10.952   4.900  0.0396 -0.1018  0.0639
    1DPPC   C3B 2735  18.049  10.919   4.645  0.1206  0.1562 -0.1155
    1DPPC   C4B 2736  18.070  10.908   4.182 -0.0220  0.2064 -0.2813
    1DPPC   NC3 2737  15.349  10.531   7.408  0.0262 -0.2473  0.2217
    1DPPC   PO4 2738  14.943  10.394   7.158 -0.1063 -0.1066 -0.1866
    1DPPC   GL1 2739  14.958  10.383   6.647  0.1135 -0.0373  0.0096
    1DPPC   GL2 2740  15.143  10.368   6.366  0.0987  0.0433 -0.1358
    1DPPC   C1A 2741  14.681  10.427   6.253 -0.0534 -0.2349 -0.2458
    1DPPC   C2A 2742  14.564  10.550   5.874 -0.1479  0.0744  0.3562
    1DPPC   C3A 2743  14.425  10.585   5.399 -0.0792 -0.1822 -0.2557
    1DPPC   C4A 2744  14.501  10.644   4.996  0.3925 -0.0298  0.3240
    1DPPC   C1B 2745  15.060  10.345   5.926  0.1916  0.0439 -0.2841
    1DPPC   C2B 2746  14.994  10.425   5.568 -0.3399  0.0712 -0.0269
    1DPPC   C3B 2747  14.886  10.446   5.194 -0.0982  0.1223  0.0303
    1DPPC   C4B 2748  15.008  10.505   4.805 -0.1376  0.1180  0.2831
    1DPPC   NC3 2749  16.751  10.590   7.246  0.0927 -0.2474 -0.1354
    1DPPC   PO4 2750  16.646  10.433   6.765 -0.0241  0.0684  0.1164
    1DPPC   GL1 2751  16.620  10.441   6.365 -0.3369  0.1099  0.2591
    1DPPC   GL2 2752  16.848  10.320   6.104  0.0989  0.2573  0.1079
    1DPPC   C1A 2753  16.279  10.583   5.994  0.2033  0.0356 -0.3680
    1DPPC   C2A 2754  16.208  10.609   5.451 -0.0692 -0.1583 -0.0488
    1DPPC   C3A 2755  16.345  10.312   5.136 -0.1621  0.1717  0.3753
    1DPPC   C4A 2756  16.289  10.205   4.743 -0.3932 -0.1499 -0.1754
    1DPPC   C1B 2757  16.566  10.246   5.801  0.2273 -0.1170 -0.0765
    1DPPC   C2B 2758  16.401   9.915   5.530 -0.1524  0.1579  0.1515
    1DPPC   C3B 2759  16.494   9.812   5.051  0.0683  0.0105 -0.0510
    1DPPC   C4B 2760  16.487   9.783   4.631 -0.0478  0.0185  0.3612
    1DPPC   NC3 2761  11.111   6.591   7.310 -0.2092 -0.0800 -0.0795
    1DPPC   PO4 2762  11.493   6.576   7.016 -0.2554  0.0103 -0.0330
    1DPPC   GL1 2763  11.312   6.503   6.621  0.1421  0.1224  0.2227
    1DPPC   GL2 2764  11.432   6.164   6.655 -0.1626  0.2499  0.2131
    1DPPC   C1A 2765  11.242   6.406   6.139  0.3649 -0.1142  0.1617
    1DPPC   C2A 2766  11.185   6.387   5.750 -0.0403  0.1362 -0.1888
    1DPPC   C3A 2767  11.239   6.447   5.315  0.1044  0.1120 -0.4411
    1DPPC   C4A 2768  11.390   6.781   5.064  0.0010  0.2612  0.3828
    1DPPC   C1B 2769  11.274   5.817   6.324  0.0044  0.0871 -0.0373
    1DPPC   C2B 2770  11.326   5.892   5.934 -0.0724 -0.0758 -0.0438
    1DPPC   C3B 2771  11.317   5.922   5.447 -0.0874 -0.1395  0.2465
    1DPPC   C4B 2772  11.674   5.937   5.227  0.1106  0.3030  0.3076
    1DPPC   NC3 2773  15.876  22.301   6.666  0.4402 -0.0486  0.0816
    1DPPC   PO4 2774  15.524  21.913   6.661  0.1117 -0.1764  0.0109
    1DPPC   GL1 2775  15.747  22.003   6.272  0.0770  0.0208  0.0991
    1DPPC   GL2 2776  15.956  21.757   6.221 -0.1560  0.2649  0.0568
    1DPPC   C1A 2777  15.698  22.256   5.891 -0.1649  0.0346  0.1813
    1DPPC   C2A 2778  15.735  22.349   5.496 -0.0888  0.2478  0.2449
    1DPPC   C3A 2779  15.880  22.300   5.089  0.0223  0.1144  0.1060
    1DPPC   C4A 2780  15.946  22.295   4.591  0.0340  0.1567 -0.2043
    1DPPC   C1B 2781  15.826  21.738   5.813 -0.0617  0.1670 -0.0903
    1DPPC   C2B 2782  15.901  21.860   5.333 -0.2354 -0.1448 -0.0854
    1DPPC   C3B 2783  16.149  21.574   5.022  0.0502  0.3362 -0.3788
    1DPPC   C4B 2784  16.431  21.283   4.751 -0.1883 -0.0810  0.2078
    1DPPC   NC3 2785  14.005  19.648   6.575  0.1491  0.2126 -0.0011
    1DPPC   PO4 2786  13.913  20.073   6.585 -0.3349  0.2822 -0.2228
    1DPPC   GL1 2787  14.204  20.120   6.235  0.2590 -0.1417  0.0120
    1DPPC   GL2 2788  14.268  19.802   6.058 -0.3119 -0.1726 -0.1524
    1DPPC   C1A 2789  14.396  20.294   5.838 -0.4070 -0.1192 -0.0062
    1DPPC   C2A 2790  14.387  20.192   5.322 -0.2671 -0.2644  0.0289
    1DPPC   C3A 2791  14.046  20.177   5.013 -0.0274  0.2341 -0.0461
    1DPPC   C4A 2792  13.774  20.124   4.640  0.1437  0.1624  0.4687
    1DPPC   C1B 2793  14.149  19.860   5.657  0.1011  0.2672  0.1440
    1DPPC   C2B 2794  14.102  19.738   5.298 -0.1795 -0.1477 -0.2930
    1DPPC   C3B 2795  14.190  19.732   4.900  0.1832  0.1385  0.0735
    1DPPC   C4B 2796  14.274  20.043   4.485  0.1070  0.0349 -0.0686
    1DPPC   NC3 2797  11.416  16.593   6.922  0.0950  0.2653 -0.0456
    1DPPC   PO4 2798  11.393  16.937   6.609  0.1370 -0.0178 -0.2454
    1DPPC   GL1 2799  11.382  16.864   6.295  0.1135  0.0076 -0.1954
    1DPPC   GL2 2800  11.099  16.813   6.185  0.0482 -0.0888 -0.0500
    1DPPC   C1A 2801  11.590  16.661   5.920  0.4288  0.2335 -0.1796
    1DPPC   C2A 2802  11.575  16.712   5.464  0.1738 -0.4209  0.1531
    1DPPC   C3A 2803  11.833  16.686   5.073 -0.1354  0.0403  0.0406
    1DPPC   C4A 2804  11.813  16.760   4.699 -0.0837  0.0664  0.0832
    1DPPC   C1B 2805  11.099  16.811   5.714 -0.1861 -0.0960  0.2681
    1DPPC   C2B 2806  11.065  16.830   5.376 -0.0327  0.1736 -0.1923
    1DPPC   C3B 2807  11.374  16.880   5.056  0.0280  0.0835  0.0194
    1DPPC   C4B 2808  11.354  16.866   4.625 -0.1166  0.2444 -0.1270
    1DPPC   NC3 2809  19.722  13.551   7.145 -0.1092  0.0291  0.1505
    1DPPC   PO4 2810  19.780  13.625   6.703  0.1669  0.4394  0.4867
    1DPPC   GL1 2811  19.779  13.756   6.269 -0.0353 -0.0302  0.1561
    1DPPC   GL2 2812  19.371  13.798   6.158  0.2671 -0.1733 -0.1196
    1DPPC   C1A 2813  19.748  13.843   5.814 -0.2379  0.2451 -0.1303
    1DPPC   C2A 2814  19.702  13.802   5.375  0.2841 -0.1051  0.1186
    1DPPC   C3A 2815  19.687  13.876   4.949  0.0124 -0.0097 -0.0697
    1DPPC   C4A 2816  19.641  14.074   4.517 -0.0382 -0.0613  0.2533
    1DPPC   C1B 2817  19.182  13.825   5.735  0.1373 -0.1213 -0.1868
    1DPPC   C2B 2818  18.999  13.516   5.386  0.1977  0.0182 -0.1072
    1DPPC   C3B 2819  19.035  13.482   4.875 -0.2309  0.0418 -0.1789
    1DPPC   C4B 2820  18.943  13.498   4.449  0.0928 -0.1790 -0.1621
    1DPPC   NC3 2821  19.778   7.546   6.774  0.1205  0.1535  0.2918
    1DPPC   PO4 2822  19.432   7.229   6.643 -0.1649 -0.1475  0.1410
    1DPPC   GL1 2823  19.620   7.379   6.292  0.1151 -0.0853 -0.1044
    1DPPC   GL2 2824  19.984   7.476   6.175  0.0895  0.1063 -0.0274
    1DPPC   C1A 2825  19.558   7.200   5.857  0.2150  0.0559 -0.2773
    1DPPC   C2A 2826  19.504   6.967   5.550  0.1205 -0.0160 -0.1721
    1DPPC   C3A 2827  19.415   6.948   5.145 -0.1180  0.1134 -0.2472
    1DPPC   C4A 2828  18.974   7.124   4.977  0.2216  0.4186  0.1639
    1DPPC   C1B 2829  19.821   7.585   5.875  0.0635  0.1103 -0.1889
    1DPPC   C2B 2830  19.689   7.650   5.392 -0.2985 -0.0539  0.2689
    1DPPC   C3B 2831  19.683   7.847   4.940  0.1358 -0.1808 -0.2775
    1DPPC   C4B 2832  19.795   8.053   4.595  0.2786  0.0280  0.1130
    1DPPC   NC3 2833  18.014  22.568   7.298 -0.0288 -0.5554 -0.0287
    1DPPC   PO4 2834  18.431  22.656   7.174  0.0266  0.0402 -0.1815
    1DPPC   GL1 2835  18.525  22.735   6.693 -0.3599  0.1954  0.1528
    1DPPC   GL2 2836  18.558  23.000   6.715  0.1315 -0.1084  0.3096
    1DPPC   C1A 2837  18.486  22.719   6.217  0.2364 -0.0586  0.0854
    1DPPC   C2A 2838  18.488  22.887   5.774 -0.1259 -0.3227  0.0018
    1DPPC   C3A 2839  18.506  22.839   5.328  0.0716  0.0944  0.1032
    1DPPC   C4A 2840  18.839  23.096   5.185  0.2055  0.0976 -0.0338
    1DPPC   C1B 2841  18.513  23.215   6.307  0.1887  0.0871 -0.2178
    1DPPC   C2B 2842  18.556  23.465   6.013 -0.0084 -0.0163 -0.0055
    1DPPC   C3B 2843  18.796  23.570   5.571  0.0729  0.1045  0.0077
    1DPPC   C4B 2844  19.211  23.434   5.280 -0.2520  0.0635  0.0336
    1DPPC   NC3 2845  13.896   9.219   6.950 -0.2618 -0.3255  0.0608
    1DPPC   PO4 2846  14.400   9.378   6.915 -0.0272  0.0748  0.2421
    1DPPC   GL1 2847  14.225   9.234   6.521  0.0507 -0.1295 -0.4247
    1DPPC   GL2 2848  13.850   9.056   6.440  0.2660  0.2233 -0.2518
    1DPPC   C1A 2849  14.123   9.281   6.019  0.2446  0.0320  0.4845
    1DPPC   C2A 2850  14.002   9.201   5.662 -0.0101 -0.1557 -0.1715
    1DPPC   C3A 2851  13.819   9.349   5.287 -0.4382 -0.1747 -0.1819
    1DPPC   C4A 2852  13.514   9.118   4.999 -0.1858  0.0712  0.3283
    1DPPC   C1B 2853  13.834   8.850   6.004  0.0505 -0.3126  0.3478
    1DPPC   C2B 2854  14.024   8.694   5.630 -0.1577 -0.0396 -0.1736
    1DPPC   C3B 2855  13.892   8.875   5.191  0.0574  0.2388  0.1599
    1DPPC   C4B 2856  13.998   8.929   4.884  0.2907  0.0405 -0.2171
    1DPPC   NC3 2857  11.773  19.831   6.733  0.4147  0.0891  0.0113
    1DPPC   PO4 2858  12.260  19.656   6.706  0.1602 -0.1039 -0.1186
    1DPPC   GL1 2859  12.398  19.786   6.296 -0.0904  0.0278  0.0999
    1DPPC   GL2 2860  12.656  20.024   6.300  0.2315  0.1059  0.0847
    1DPPC   C1A 2861  12.413  19.829   5.824 -0.1688 -0.0392  0.0268
    1DPPC   C2A 2862  12.381  19.798   5.392  0.2789 -0.0512 -0.2484
    1DPPC   C3A 2863  12.406  19.736   5.057  0.0213 -0.0286 -0.0302
    1DPPC   C4A 2864  12.471  19.785   4.582  0.2035 -0.1207  0.1063
    1DPPC   C1B 2865  12.905  19.961   5.896 -0.1611  0.0252  0.0944
    1DPPC   C2B 2866  12.845  19.718   5.586  0.1417 -0.1315  0.2000
    1DPPC   C3B 2867  12.780  19.345   5.225 -0.1425 -0.0178 -0.0835
    1DPPC   C4B 2868  12.499  19.301   4.799 -0.0494 -0.1220 -0.2078
    1DPPC   NC3 2869   6.700  16.632   5.883  0.2533 -0.0608 -0.0402
    1DPPC   PO4 2870   6.319  16.492   5.744 -0.1827  0.1782 -0.0029
    1DPPC   GL1 2871   6.207  16.419   5.295  0.1159 -0.1868 -0.4095
    1DPPC   GL2 2872   6.367  16.138   5.203  0.0490 -0.0110 -0.3375
    1DPPC   C1A 2873   6.218  16.621   4.898 -0.1694 -0.1551 -0.0081
    1DPPC   C2A 2874   6.370  16.361   4.515  0.0950 -0.1162 -0.0767
    1DPPC   C3A 2875   6.463  16.057   4.182 -0.0316  0.3068  0.2431
    1DPPC   C4A 2876   6.461  15.927   3.754  0.0229 -0.2002 -0.0800
    1DPPC   C1B 2877   6.664  16.004   4.777  0.0414 -0.0747 -0.2706
    1DPPC   C2B 2878   7.026  15.682   4.590  0.1780 -0.1648 -0.1711
    1DPPC   C3B 2879   7.249  15.928   4.852  0.1370  0.0243 -0.1411
    1DPPC   C4B 2880   7.317  16.345   4.754 -0.0124  0.0346  0.1250
    1DPPC   NC3 2881  19.476  14.588   6.592 -0.1044  0.1643  0.2114
    1DPPC   PO4 2882  19.907  14.744   6.618  0.3418 -0.0058  0.1643
    1DPPC   GL1 2883  19.943  15.099   6.284 -0.0935  0.0482  0.1997
    1DPPC   GL2 2884  20.241  14.966   6.086 -0.0391 -0.1846  0.0903
    1DPPC   C1A 2885  20.079  15.279   5.787 -0.0119  0.0523 -0.3758
    1DPPC   C2A 2886  20.106  15.369   5.365 -0.1071 -0.2018 -0.1178
    1DPPC   C3A 2887  20.074  15.467   4.894  0.1996  0.0088  0.0760
    1DPPC   C4A 2888  19.817  15.793   4.721  0.3111  0.0559  0.2620
    1DPPC   C1B 2889  20.439  14.967   5.619  0.0625  0.2324  0.0591
    1DPPC   C2B 2890  20.559  15.013   5.182  0.0442 -0.0191 -0.0094
    1DPPC   C3B 2891  20.674  14.874   4.816 -0.0181 -0.0624  0.0144
    1DPPC   C4B 2892  20.580  14.878   4.463 -0.1266 -0.0376  0.2194
    1DPPC   NC3 2893  14.599  12.980   7.004 -0.0048 -0.0812 -0.0708
    1DPPC   PO4 2894  14.569  13.324   6.633 -0.1555  0.2803  0.0991
    1DPPC   GL1 2895  14.370  13.289   6.256  0.1827  0.0348 -0.1617
    1DPPC   GL2 2896  14.044  13.354   6.128  0.1517  0.2749 -0.2152
    1DPPC   C1A 2897  14.460  13.261   5.870 -0.1454  0.0280  0.0790
    1DPPC   C2A 2898  14.527  13.393   5.495 -0.0805 -0.0168 -0.0967
    1DPPC   C3A 2899  14.806  13.363   5.185  0.1322  0.2261  0.1085
    1DPPC   C4A 2900  14.820  13.354   4.720 -0.0623  0.0007 -0.2736
    1DPPC   C1B 2901  14.010  13.312   5.673  0.1024 -0.0089  0.0754
    1DPPC   C2B 2902  14.119  13.167   5.254  0.0113  0.0626  0.0465
    1DPPC   C3B 2903  13.968  13.177   4.833  0.3265 -0.1246  0.0413
    1DPPC   C4B 2904  13.619  13.066   4.502 -0.0637 -0.1216 -0.1935
    1DPPC   NC3 2905  11.861   6.824   7.436  0.2091 -0.0390 -0.1264
    1DPPC   PO4 2906  12.014   6.668   7.091 -0.1758 -0.0693 -0.1082
    1DPPC   GL1 2907  11.769   6.992   6.843 -0.0630 -0.3286  0.2637
    1DPPC   GL2 2908  11.882   7.398   6.797  0.0236  0.0350 -0.2230
    1DPPC   C1A 2909  11.531   6.881   6.432  0.0033 -0.1183  0.2876
    1DPPC   C2A 2910  11.422   6.840   5.966  0.0321 -0.0129 -0.0350
    1DPPC   C3A 2911  11.426   6.932   5.541  0.0043  0.1661 -0.1041
    1DPPC   C4A 2912  11.743   7.075   5.337  0.1252  0.1418 -0.1302
    1DPPC   C1B 2913  11.781   7.307   6.275  0.2349  0.0641  0.0168
    1DPPC   C2B 2914  11.648   7.287   5.851  0.1771  0.0276 -0.0069
    1DPPC   C3B 2915  11.426   7.450   5.504  0.0080 -0.1086 -0.0243
    1DPPC   C4B 2916  11.261   7.266   5.143  0.1052  0.0003 -0.0400
    1DPPC   NC3 2917  19.457  18.373   6.679  0.1293  0.2291 -0.0534
    1DPPC   PO4 2918  19.134  18.653   6.803 -0.0973 -0.2700 -0.0579
    1DPPC   GL1 2919  19.121  18.737   6.452 -0.2364 -0.0333  0.1093
    1DPPC   GL2 2920  18.958  19.001   6.415 -0.1066 -0.1353 -0.0749
    1DPPC   C1A 2921  19.177  18.461   6.082 -0.2603  0.1999 -0.0093
    1DPPC   C2A 2922  19.334  18.474   5.741 -0.0064  0.1242  0.2028
    1DPPC   C3A 2923  19.347  18.573   5.341 -0.0698  0.0869  0.0362
    1DPPC   C4A 2924  19.444  18.706   4.894 -0.1537  0.0447  0.0620
    1DPPC   C1B 2925  19.099  18.952   6.003 -0.1406 -0.1930  0.2035
    1DPPC   C2B 2926  18.969  18.791   5.661 -0.0931  0.1049  0.3415
    1DPPC   C3B 2927  18.961  18.910   5.290 -0.0450 -0.0397 -0.1215
    1DPPC   C4B 2928  18.867  19.321   5.036 -0.2378 -0.0409  0.0385
    1DPPC   NC3 2929  17.827  19.314   6.906  0.5763 -0.2143  0.1958
    1DPPC   PO4 2930  17.923  19.600   6.871 -0.2263  0.0115  0.0970
    1DPPC   GL1 2931  17.930  19.426   6.449 -0.1476 -0.1011  0.2919
    1DPPC   GL2 2932  17.549  19.343   6.449  0.0738 -0.0160  0.0503
    1DPPC   C1A 2933  17.961  19.491   6.002 -0.1714  0.0367 -0.1262
    1DPPC   C2A 2934  17.951  19.497   5.582 -0.1819  0.1902 -0.0216
    1DPPC   C3A 2935  17.981  19.768   5.158  0.1041 -0.1003 -0.2001
    1DPPC   C4A 2936  17.719  19.869   4.874 -0.0919  0.2453 -0.0185
    1DPPC   C1B 2937  17.472  19.374   6.124 -0.2617  0.1295 -0.2046
    1DPPC   C2B 2938  17.393  19.327   5.676  0.0264  0.3437 -0.1450
    1DPPC   C3B 2939  17.336  18.922   5.501 -0.0907  0.0926 -0.0230
    1DPPC   C4B 2940  17.527  18.947   5.046 -0.1895 -0.1796 -0.1718
    1DPPC   NC3 2941  15.164  11.274   6.899  0.0495  0.2372  0.0113
    1DPPC   PO4 2942  14.717  11.047   6.813  0.0461 -0.1186  0.1191
    1DPPC   GL1 2943  14.890  10.874   6.477 -0.0790  0.0169  0.0456
    1DPPC   GL2 2944  15.002  11.211   6.405  0.2033  0.1876  0.0322
    1DPPC   C1A 2945  14.872  10.849   6.061 -0.3205 -0.2032 -0.1808
    1DPPC   C2A 2946  14.860  10.870   5.648  0.0266  0.1792  0.0101
    1DPPC   C3A 2947  14.747  10.991   5.149  0.1231 -0.0077 -0.1072
    1DPPC   C4A 2948  14.381  11.108   4.922  0.0739 -0.2223 -0.1366
    1DPPC   C1B 2949  15.199  11.329   6.019 -0.3415  0.1146 -0.1264
    1DPPC   C2B 2950  15.115  11.251   5.700 -0.1134  0.1325  0.2296
    1DPPC   C3B 2951  15.142  11.237   5.278 -0.1556 -0.3618  0.0186
    1DPPC   C4B 2952  15.084  11.010   4.796 -0.1841  0.0229 -0.0021
    1DPPC   NC3 2953  25.460   8.934   6.965 -0.1491  0.1236 -0.0630
    1DPPC   PO4 2954  25.332   8.641   6.587  0.0444 -0.1271 -0.1613
    1DPPC   GL1 2955  25.316   8.801   6.240  0.0676 -0.0384  0.0039
    1DPPC   GL2 2956  25.658   8.892   6.032 -0.1677  0.1878  0.0506
    1DPPC   C1A 2957  25.129   9.116   6.087 -0.0904 -0.3881  0.3054
    1DPPC   C2A 2958  24.844   9.326   5.842 -0.0787 -0.1375  0.2130
    1DPPC   C3A 2959  24.612   9.458   5.500 -0.0042  0.0211  0.1214
    1DPPC   C4A 2960  24.778   9.611   5.099  0.0705 -0.0111  0.2885
    1DPPC   C1B 2961  25.774   8.882   5.573  0.2523 -0.0350 -0.3531
    1DPPC   C2B 2962  25.881   8.693   5.228  0.0691  0.1288 -0.0407
    1DPPC   C3B 2963  25.696   8.414   5.023  0.0558  0.1022 -0.0857
    1DPPC   C4B 2964  25.215   8.251   5.120 -0.3374 -0.0106  0.2131
    1DPPC   NC3 2965  11.254   9.142   7.524 -0.1908 -0.1126 -0.0587
    1DPPC   PO4 2966  11.353   8.873   7.223  0.1447 -0.1725  0.0116
    1DPPC   GL1 2967  11.184   9.031   6.833 -0.1915 -0.2250  0.0536
    1DPPC   GL2 2968  10.912   9.045   6.716  0.0527  0.0976 -0.0901
    1DPPC   C1A 2969  11.252   8.931   6.405 -0.0227 -0.4109 -0.0599
    1DPPC   C2A 2970  11.144   8.948   6.013 -0.2182 -0.0312 -0.0097
    1DPPC   C3A 2971  11.147   8.925   5.537  0.1271 -0.1203 -0.4588
    1DPPC   C4A 2972  10.946   9.073   5.121  0.1782 -0.0652 -0.1084
    1DPPC   C1B 2973  10.485   9.059   6.510 -0.3050 -0.1345 -0.1462
    1DPPC   C2B 2974  10.340   9.068   6.095 -0.0864  0.0631  0.1182
    1DPPC   C3B 2975  10.237   9.196   5.642  0.2311  0.0533 -0.1465
    1DPPC   C4B 2976  10.164   9.421   5.361  0.2492  0.1324  0.1706
    1DPPC   NC3 2977  17.610   9.226   6.289  0.0569  0.0677  0.1226
    1DPPC   PO4 2978  17.168   9.279   6.498  0.1355 -0.0927 -0.0370
    1DPPC   GL1 2979  16.980   9.353   6.120 -0.0478  0.0348  0.2425
    1DPPC   GL2 2980  17.254   9.491   5.987 -0.0469 -0.0377 -0.3712
    1DPPC   C1A 2981  16.745   9.536   5.730 -0.1009  0.1179  0.1198
    1DPPC   C2A 2982  16.845   9.493   5.342 -0.0308 -0.0858  0.3417
    1DPPC   C3A 2983  16.846   9.485   4.950 -0.0684  0.1784 -0.0376
    1DPPC   C4A 2984  16.955   9.650   4.554 -0.1205 -0.0071 -0.0289
    1DPPC   C1B 2985  17.237   9.574   5.540 -0.0106  0.1950 -0.2268
    1DPPC   C2B 2986  17.350   9.526   5.152  0.1182  0.0587  0.0316
    1DPPC   C3B 2987  17.380   9.386   4.738  0.0628  0.0468  0.1020
    1DPPC   C4B 2988  17.463   9.511   4.352  0.3029  0.0309 -0.2688
    1DPPC   NC3 2989   0.114  19.812   6.408 -0.1424  0.0350  0.0834
    1DPPC   PO4 2990   0.315  19.433   6.196  0.1717  0.1502 -0.0492
    1DPPC   GL1 2991   0.379  19.508   5.742 -0.1757 -0.0789 -0.0993
    1DPPC   GL2 2992   0.260  19.296   5.586 -0.1220 -0.2485  0.2353
    1DPPC   C1A 2993   0.196  19.852   5.486 -0.0598  0.1088 -0.0711
    1DPPC   C2A 2994   0.490  20.129   5.188  0.1108 -0.2611 -0.4163
    1DPPC   C3A 2995   0.675  20.517   5.110  0.2014  0.2053  0.0161
    1DPPC   C4A 2996   0.819  20.846   5.143 -0.3273  0.2145 -0.0347
    1DPPC   C1B 2997   0.173  19.419   5.253  0.0202 -0.1191  0.2487
    1DPPC   C2B 2998  -0.077  19.563   4.840 -0.0411  0.1006  0.2148
    1DPPC   C3B 2999  -0.176  19.323   4.552  0.2364 -0.0743 -0.5031
    1DPPC   C4B 3000   0.099  19.148   4.316 -0.2567 -0.1648 -0.2223
    1DPPC   NC3 3001  19.902   4.211   6.273 -0.0714  0.0365 -0.1398
    1DPPC   PO4 3002  19.605   4.386   6.236 -0.1039 -0.1203  0.1043
    1DPPC   GL1 3003  19.441   4.128   5.917 -0.1452 -0.0341  0.1053
    1DPPC   GL2 3004  19.289   3.817   5.805 -0.2813  0.1834 -0.1856
    1DPPC   C1A 3005  19.619   4.079   5.435 -0.0472  0.0954  0.0098
    1DPPC   C2A 3006  19.812   4.407   5.123  0.2373 -0.0623  0.0328
    1DPPC   C3A 3007  19.776   4.376   4.751  0.0198 -0.0826  0.1017
    1DPPC   C4A 3008  19.802   4.487   4.319  0.0972  0.0438 -0.1493
    1DPPC   C1B 3009  19.166   3.781   5.390  0.2184 -0.2088  0.0702
    1DPPC   C2B 3010  18.915   3.846   5.101  0.0441  0.2191 -0.1698
    1DPPC   C3B 3011  18.975   3.929   4.598 -0.0867 -0.1317  0.0418
    1DPPC   C4B 3012  18.858   4.034   4.206 -0.0923 -0.0427  0.1584
    1DPPC   NC3 3013  16.705  22.741   7.079  0.1895 -0.0836 -0.1667
    1DPPC   PO4 3014  16.278  22.697   6.823  0.2082 -0.0914 -0.1245
    1DPPC   GL1 3015  16.395  22.755   6.365  0.2083  0.1224 -0.3845
    1DPPC   GL2 3016  16.296  23.050   6.259 -0.0873  0.3639  0.3345
    1DPPC   C1A 3017  16.705  22.415   6.142  0.1339 -0.1333  0.0772
    1DPPC   C2A 3018  16.934  22.285   5.853  0.0981 -0.0949  0.0266
    1DPPC   C3A 3019  17.198  22.336   5.450 -0.3043  0.1742 -0.1660
    1DPPC   C4A 3020  17.339  22.340   5.059 -0.3389 -0.0089  0.2873
    1DPPC   C1B 3021  16.109  22.936   5.822 -0.1747 -0.3446  0.0136
    1DPPC   C2B 3022  16.268  22.867   5.584 -0.1936  0.0682 -0.0020
    1DPPC   C3B 3023  16.171  22.653   5.150  0.3280 -0.0344 -0.0223
    1DPPC   C4B 3024  16.316  22.548   4.804  0.0032  0.0308  0.1918
    1DPPC   NC3 3025  18.553  13.887   6.353 -0.2204 -0.0806 -0.2130
    1DPPC   PO4 3026  18.100  14.122   6.506 -0.1891 -0.0836 -0.1185
    1DPPC   GL1 3027  18.073  14.154   6.096  0.1419  0.0831  0.0785
    1DPPC   GL2 3028  18.332  14.074   5.926  0.1570  0.2911  0.0781
    1DPPC   C1A 3029  17.880  14.030   5.732  0.0561 -0.0515 -0.2460
    1DPPC   C2A 3030  17.833  14.074   5.272  0.4777  0.1185  0.1414
    1DPPC   C3A 3031  17.631  13.911   4.901 -0.3705 -0.0065  0.1150
    1DPPC   C4A 3032  17.435  13.947   4.542  0.1810  0.0165  0.1911
    1DPPC   C1B 3033  18.272  14.176   5.485  0.3321  0.0276 -0.0313
    1DPPC   C2B 3034  18.286  14.119   5.094 -0.1924 -0.3327 -0.3020
    1DPPC   C3B 3035  18.377  14.304   4.696  0.0628 -0.2478  0.1276
    1DPPC   C4B 3036  18.251  14.465   4.343 -0.3476 -0.1906 -0.0317
    1DPPC   NC3 3037  28.151   3.151   6.880 -0.0206 -0.3190 -0.0527
    1DPPC   PO4 3038  27.930   3.386   6.630 -0.0279 -0.2047 -0.1869
    1DPPC   GL1 3039  27.608   3.372   6.208 -0.2915  0.1310  0.1781
    1DPPC   GL2 3040  27.310   3.347   6.269 -0.0719  0.1296  0.0500
    1DPPC   C1A 3041  27.880   3.206   5.872 -0.0191  0.2683 -0.2293
    1DPPC   C2A 3042  27.948   3.325   5.535  0.0393 -0.2177  0.0905
    1DPPC   C3A 3043  28.059   3.707   5.239 -0.2000  0.2228 -0.0994
    1DPPC   C4A 3044  27.777   3.921   4.893  0.0634 -0.2669 -0.2685
    1DPPC   C1B 3045  27.264   3.128   5.898  0.1104 -0.1265 -0.2076
    1DPPC   C2B 3046  27.499   3.008   5.550  0.0889  0.1114  0.1016
    1DPPC   C3B 3047  27.583   2.906   5.142  0.1765  0.1147  0.2685
    1DPPC   C4B 3048  27.574   3.150   4.741 -0.1169 -0.0923 -0.2926
    1DPPC   NC3 3049  16.654  13.311   6.907 -0.0935  0.0257  0.0462
    1DPPC   PO4 3050  16.548  13.428   6.540 -0.0592  0.0118  0.2424
    1DPPC   GL1 3051  16.438  13.709   6.153  0.0065 -0.0878 -0.2823
    1DPPC   GL2 3052  16.046  13.872   6.024 -0.0420  0.4001  0.1657
    1DPPC   C1A 3053  16.291  13.513   5.771 -0.2450  0.0369  0.0448
    1DPPC   C2A 3054  16.235  13.402   5.360 -0.0827 -0.0944 -0.1276
    1DPPC   C3A 3055  16.229  13.347   4.925  0.2336  0.0891 -0.1446
    1DPPC   C4A 3056  16.239  12.805   4.835 -0.0283  0.0724  0.1265
    1DPPC   C1B 3057  16.081  13.883   5.514 -0.0074 -0.1009  0.0696
    1DPPC   C2B 3058  16.151  13.861   5.170  0.1466 -0.1624 -0.0094
    1DPPC   C3B 3059  16.107  13.790   4.735  0.2407  0.0560 -0.0952
    1DPPC   C4B 3060  16.113  13.921   4.374  0.0467 -0.3192 -0.0468
    1DPPC   NC3 3061  16.485   5.806   6.880  0.3067 -0.3308  0.0922
    1DPPC   PO4 3062  16.164   5.562   6.799  0.0866  0.0286  0.3959
    1DPPC   GL1 3063  15.800   5.762   6.495  0.5128 -0.1006 -0.0712
    1DPPC   GL2 3064  15.625   5.456   6.338 -0.3888  0.1403  0.0880
    1DPPC   C1A 3065  15.652   5.979   6.108  0.0457  0.0626 -0.1366
    1DPPC   C2A 3066  15.574   6.037   5.649  0.1311 -0.1662  0.3185
    1DPPC   C3A 3067  15.437   6.321   5.353  0.0954 -0.2114 -0.0049
    1DPPC   C4A 3068  15.319   6.607   5.110 -0.1924  0.0433  0.0501
    1DPPC   C1B 3069  15.359   5.538   5.935  0.0713 -0.3944  0.1418
    1DPPC   C2B 3070  15.187   5.763   5.573  0.0908  0.1627  0.1073
    1DPPC   C3B 3071  15.091   6.027   5.191  0.0581 -0.2029 -0.1582
    1DPPC   C4B 3072  14.790   6.342   5.009  0.1304 -0.2099  0.1335
    1DPPC   NC3 3073  14.536  22.242   6.686  0.0560 -0.0837 -0.1206
    1DPPC   PO4 3074  14.045  22.207   6.456 -0.0237 -0.1770  0.0977
    1DPPC   GL1 3075  14.181  22.015   5.878 -0.2073  0.1106 -0.0811
    1DPPC   GL2 3076  14.414  21.737   5.891  0.0559 -0.1843  0.3270
    1DPPC   C1A 3077  14.008  21.752   5.603  0.1557  0.0345  0.2099
    1DPPC   C2A 3078  14.097  21.503   5.243 -0.1927 -0.2142  0.0428
    1DPPC   C3A 3079  14.043  21.472   4.808 -0.0180 -0.0844 -0.0003
    1DPPC   C4A 3080  14.296  21.504   4.544 -0.0098 -0.0826 -0.1276
    1DPPC   C1B 3081  14.468  21.863   5.437 -0.1471 -0.0954 -0.2752
    1DPPC   C2B 3082  14.166  21.921   5.000  0.1104  0.1205 -0.1070
    1DPPC   C3B 3083  14.144  22.038   4.520  0.1237  0.0848 -0.1143
    1DPPC   C4B 3084  14.330  21.796   4.148 -0.2345 -0.2167  0.1056
    1DPPC   NC3 3085  21.736  15.169   6.424 -0.2811 -0.1441  0.0782
    1DPPC   PO4 3086  21.699  15.582   6.219 -0.3256  0.0216  0.3374
    1DPPC   GL1 3087  21.608  15.227   5.937  0.0677  0.0918  0.2465
    1DPPC   GL2 3088  21.721  14.912   5.947  0.0172 -0.0753 -0.0426
    1DPPC   C1A 3089  21.427  15.374   5.544 -0.0325 -0.0931  0.0777
    1DPPC   C2A 3090  21.243  15.643   5.291  0.1743  0.1744 -0.0954
    1DPPC   C3A 3091  21.229  15.731   5.016 -0.0405  0.3151 -0.2923
    1DPPC   C4A 3092  21.363  15.574   4.614  0.1060  0.2694  0.3328
    1DPPC   C1B 3093  21.885  14.867   5.542 -0.1767  0.1195 -0.1356
    1DPPC   C2B 3094  21.997  14.910   5.088  0.0690  0.0092  0.1558
    1DPPC   C3B 3095  22.057  14.975   4.635  0.2809  0.2834 -0.2505
    1DPPC   C4B 3096  22.071  15.152   4.229 -0.1572 -0.0783  0.0887
    1DPPC   NC3 3097  15.675  17.546   6.624  0.1870  0.0506  0.4140
    1DPPC   PO4 3098  15.954  17.855   6.632 -0.0052 -0.0703  0.0952
    1DPPC   GL1 3099  15.854  18.039   6.295 -0.0063 -0.0173 -0.1415
    1DPPC   GL2 3100  15.650  17.866   6.218  0.2307  0.0388  0.0014
    1DPPC   C1A 3101  15.851  18.193   5.902 -0.0564  0.0540  0.0060
    1DPPC   C2A 3102  15.905  18.264   5.452  0.0744 -0.1134 -0.1444
    1DPPC   C3A 3103  15.873  18.352   5.002  0.0667 -0.1347  0.1765
    1DPPC   C4A 3104  15.873  18.629   4.545 -0.1968 -0.1095 -0.1382
    1DPPC   C1B 3105  15.593  17.817   5.778  0.1363  0.1429  0.0295
    1DPPC   C2B 3106  15.733  17.774   5.300  0.0351  0.0552 -0.0733
    1DPPC   C3B 3107  15.802  17.841   4.903  0.0302  0.0656  0.0352
    1DPPC   C4B 3108  15.705  18.043   4.553  0.0914 -0.0607  0.0318
    1DPPC   NC3 3109  11.554   7.935   7.158  0.2299  0.0545 -0.2719
    1DPPC   PO4 3110  11.248   7.853   6.890  0.0930 -0.0061 -0.0934
    1DPPC   GL1 3111  11.313   8.389   6.894  0.1321 -0.2530  0.0239
    1DPPC   GL2 3112  10.974   8.434   6.645  0.2986  0.0561  0.0779
    1DPPC   C1A 3113  11.457   8.493   6.480 -0.3597  0.1278 -0.1250
    1DPPC   C2A 3114  11.641   8.208   6.116 -0.1277 -0.2087 -0.3712
    1DPPC   C3A 3115  11.653   8.265   5.649  0.2996  0.2238  0.0917
    1DPPC   C4A 3116  11.534   8.341   5.258 -0.3522  0.0297 -0.2281
    1DPPC   C1B 3117  10.837   8.673   6.322  0.2000  0.1296  0.1095
    1DPPC   C2B 3118  10.713   8.864   5.895 -0.0613 -0.1734 -0.2581
    1DPPC   C3B 3119  10.620   8.905   5.467 -0.0522 -0.0142  0.1930
    1DPPC   C4B 3120  10.591   8.541   5.170  0.2134 -0.5074  0.1517
    1DPPC   NC3 3121  14.379  21.919   6.325  0.3399 -0.0723  0.1152
    1DPPC   PO4 3122  14.778  22.000   6.286 -0.0382  0.2742 -0.1340
    1DPPC   GL1 3123  14.802  22.181   5.901 -0.1999  0.0628 -0.2016
    1DPPC   GL2 3124  14.771  22.438   5.833  0.1834  0.1662 -0.1080
    1DPPC   C1A 3125  14.940  22.063   5.467  0.0621  0.0008 -0.2954
    1DPPC   C2A 3126  14.938  21.954   5.041 -0.0586  0.0211 -0.0405
    1DPPC   C3A 3127  15.213  21.805   4.632  0.2518 -0.2772  0.2501
    1DPPC   C4A 3128  15.437  21.946   4.287  0.0523 -0.1086 -0.0279
    1DPPC   C1B 3129  14.798  22.508   5.383  0.0646 -0.2091 -0.1390
    1DPPC   C2B 3130  14.580  22.253   5.052 -0.3633 -0.0691 -0.0883
    1DPPC   C3B 3131  14.671  21.906   4.587  0.1040  0.2398  0.4723
    1DPPC   C4B 3132  14.784  21.492   4.553 -0.0205  0.1007  0.0811
    1DPPC   NC3 3133  16.430  11.595   7.166 -0.1500  0.1675  0.0167
    1DPPC   PO4 3134  16.566  11.356   6.760 -0.0286 -0.1669 -0.1185
    1DPPC   GL1 3135  16.507  11.426   6.325  0.4012  0.0960  0.1178
    1DPPC   GL2 3136  16.702  11.665   6.280  0.1115  0.1563  0.1876
    1DPPC   C1A 3137  16.428  11.508   5.874  0.2508 -0.0204  0.0208
    1DPPC   C2A 3138  16.601  11.400   5.531  0.0741 -0.0698  0.1918
    1DPPC   C3A 3139  16.738  11.363   5.147 -0.2659 -0.1122  0.3416
    1DPPC   C4A 3140  16.652  11.234   4.714  0.0089  0.1635  0.1443
    1DPPC   C1B 3141  16.848  11.730   5.928  0.3046 -0.1262 -0.0389
    1DPPC   C2B 3142  16.969  11.733   5.549  0.0511 -0.1617  0.2061
    1DPPC   C3B 3143  17.028  11.729   5.096 -0.2308  0.0514  0.2458
    1DPPC   C4B 3144  17.125  11.408   4.846  0.0760 -0.1337 -0.1324
    1DPPC   NC3 3145  11.937  19.193   6.752  0.2121 -0.1420 -0.0729
    1DPPC   PO4 3146  11.541  19.001   6.784  0.2328  0.1718  0.2570
    1DPPC   GL1 3147  11.543  18.981   6.393  0.2456 -0.1895 -0.2622
    1DPPC   GL2 3148  11.940  18.948   6.309 -0.2973 -0.0002  0.3209
    1DPPC   C1A 3149  11.580  19.014   5.928  0.2364  0.3013  0.3499
    1DPPC   C2A 3150  11.800  18.972   5.504 -0.0168 -0.1069 -0.1182
    1DPPC   C3A 3151  11.535  18.853   5.183 -0.0508  0.2219 -0.1271
    1DPPC   C4A 3152  11.249  18.740   5.004  0.1095  0.0939  0.1190
    1DPPC   C1B 3153  12.124  18.833   6.012  0.1497  0.1103 -0.0446
    1DPPC   C2B 3154  12.202  18.664   5.676 -0.3466 -0.0067  0.1052
    1DPPC   C3B 3155  12.113  18.671   5.224  0.2090  0.2398  0.3451
    1DPPC   C4B 3156  11.962  18.597   4.720  0.0899 -0.1547 -0.0182
    1DPPC   NC3 3157   1.992   4.266   6.522 -0.2092 -0.0153 -0.1159
    1DPPC   PO4 3158   2.423   4.253   6.208 -0.1283  0.1688  0.0606
    1DPPC   GL1 3159   2.155   4.071   5.937  0.2887 -0.1111 -0.1684
    1DPPC   GL2 3160   1.880   3.956   6.001  0.1845  0.5024  0.0550
    1DPPC   C1A 3161   2.138   3.893   5.472 -0.1099 -0.2083 -0.1631
    1DPPC   C2A 3162   2.208   3.758   5.075 -0.1134  0.3523  0.0108
    1DPPC   C3A 3163   2.410   3.778   4.706 -0.1347 -0.3091 -0.1509
    1DPPC   C4A 3164   2.710   3.956   4.405 -0.2012 -0.1197 -0.0966
    1DPPC   C1B 3165   1.731   4.352   5.776 -0.1744  0.1732  0.1775
    1DPPC   C2B 3166   1.426   4.614   5.466  0.0010 -0.1058  0.1441
    1DPPC   C3B 3167   1.353   4.540   5.099 -0.3301  0.3472  0.0173
    1DPPC   C4B 3168   1.545   4.751   4.758  0.0061 -0.0774  0.1334
    1DPPC   NC3 3169   7.297  17.235   5.542  0.1012  0.2420  0.1501
    1DPPC   PO4 3170   7.535  17.570   5.683  0.3145 -0.2939 -0.2019
    1DPPC   GL1 3171   7.609  17.956   5.492 -0.1209 -0.0133 -0.0069
    1DPPC   GL2 3172   7.264  17.956   5.412  0.3721 -0.1199 -0.1167
    1DPPC   C1A 3173   7.785  17.915   5.058  0.4809  0.0586 -0.0626
    1DPPC   C2A 3174   7.996  17.670   4.709  0.0220 -0.2803 -0.0376
    1DPPC   C3A 3175   8.262  17.593   4.382 -0.0779 -0.0993  0.0001
    1DPPC   C4A 3176   8.497  17.460   4.087  0.1691  0.0207  0.5993
    1DPPC   C1B 3177   7.298  17.849   5.002  0.1203  0.1537  0.0230
    1DPPC   C2B 3178   7.521  17.572   4.683  0.1122 -0.0895 -0.0174
    1DPPC   C3B 3179   7.756  17.410   4.330  0.1897  0.2855  0.0183
    1DPPC   C4B 3180   8.028  17.261   4.092 -0.0453 -0.1469 -0.1309
    1DPPC   NC3 3181  19.001   8.526   6.359 -0.0929  0.5805 -0.0925
    1DPPC   PO4 3182  19.165   8.104   6.434  0.4099 -0.2720  0.2115
    1DPPC   GL1 3183  19.033   8.024   6.093  0.0832 -0.2083 -0.2879
    1DPPC   GL2 3184  19.359   7.863   6.006 -0.1019 -0.2435 -0.2117
    1DPPC   C1A 3185  18.829   8.229   5.743 -0.0405  0.0466  0.0044
    1DPPC   C2A 3186  18.765   8.176   5.274  0.2025  0.4190  0.1778
    1DPPC   C3A 3187  18.817   8.125   4.909 -0.0589  0.0092  0.0677
    1DPPC   C4A 3188  18.757   7.905   4.489  0.0642  0.0240  0.0693
    1DPPC   C1B 3189  19.243   7.941   5.569  0.1672 -0.3253 -0.0712
    1DPPC   C2B 3190  19.258   7.973   5.127  0.0828 -0.2883 -0.0076
    1DPPC   C3B 3191  19.218   7.861   4.670  0.1757  0.0961  0.0742
    1DPPC   C4B 3192  19.225   7.892   4.222 -0.2586 -0.0552  0.0121
    1DPPC   NC3 3193   8.071  14.786   6.320  0.3093  0.2696  0.0421
    1DPPC   PO4 3194   7.636  14.710   6.358  0.0806 -0.2365 -0.1580
    1DPPC   GL1 3195   7.636  14.600   6.014  0.0459  0.0450  0.2939
    1DPPC   GL2 3196   7.975  14.412   5.961 -0.1956 -0.2395  0.0948
    1DPPC   C1A 3197   7.549  14.557   5.555 -0.3731  0.1201  0.1062
    1DPPC   C2A 3198   7.445  14.462   5.143 -0.1690  0.1224  0.2575
    1DPPC   C3A 3199   7.403  14.829   4.791  0.0132 -0.0662 -0.3581
    1DPPC   C4A 3200   7.381  15.285   4.626 -0.3657  0.0788 -0.2141
    1DPPC   C1B 3201   8.056  14.218   5.534  0.0290  0.0012  0.3347
    1DPPC   C2B 3202   7.938  14.338   5.026 -0.0567  0.1781  0.1781
    1DPPC   C3B 3203   7.643  14.373   4.718  0.1341 -0.2473 -0.0424
    1DPPC   C4B 3204   7.286  14.456   4.388  0.2308  0.3387 -0.0562
    1DPPC   NC3 3205  18.526  16.900   7.028 -0.1913 -0.0527 -0.0074
    1DPPC   PO4 3206  18.192  16.648   6.892 -0.0828  0.1131 -0.2057
    1DPPC   GL1 3207  18.294  16.749   6.414 -0.1001  0.0220  0.3151
    1DPPC   GL2 3208  18.401  16.610   6.372  0.0119 -0.1343 -0.0822
    1DPPC   C1A 3209  18.282  16.813   5.945 -0.1996  0.0240 -0.1913
    1DPPC   C2A 3210  18.285  16.854   5.499 -0.1754 -0.5303  0.1894
    1DPPC   C3A 3211  18.469  16.753   5.174  0.2028  0.0017  0.1906
    1DPPC   C4A 3212  18.315  16.554   4.794  0.1385 -0.3768  0.1832
    1DPPC   C1B 3213  18.852  16.682   6.214 -0.0092 -0.0943 -0.1655
    1DPPC   C2B 3214  19.016  16.834   5.869 -0.0139  0.1773 -0.1584
    1DPPC   C3B 3215  19.109  17.017   5.442 -0.1727  0.0894  0.2468
    1DPPC   C4B 3216  18.984  17.136   5.081  0.1268  0.0843 -0.3072
    1DPPC   NC3 3217   9.729  18.095   7.149  0.0695  0.0182  0.2257
    1DPPC   PO4 3218  10.158  18.247   6.985  0.1648 -0.2926  0.0374
    1DPPC   GL1 3219  10.172  18.283   6.465  0.0039  0.0722 -0.0158
    1DPPC   GL2 3220  10.268  18.462   6.296  0.0225 -0.0927  0.0884
    1DPPC   C1A 3221  10.203  17.945   6.120  0.1016 -0.2510  0.0281
    1DPPC   C2A 3222  10.225  17.824   5.722 -0.2349  0.1403  0.0764
    1DPPC   C3A 3223  10.173  17.861   5.332 -0.2958 -0.0241 -0.0323
    1DPPC   C4A 3224  10.090  17.737   4.907 -0.2716 -0.1708  0.1482
    1DPPC   C1B 3225  10.413  18.299   5.827 -0.2766  0.1551 -0.0847
    1DPPC   C2B 3226  10.341  18.302   5.464  0.2128 -0.4171 -0.0787
    1DPPC   C3B 3227  10.254  18.245   5.011 -0.0204 -0.3434 -0.1604
    1DPPC   C4B 3228  10.224  18.316   4.577 -0.1439 -0.3561 -0.5044
    1DPPC   NC3 3229   1.477  15.506   5.903  0.1988  0.0131 -0.0205
    1DPPC   PO4 3230   1.466  15.862   6.175  0.0037  0.6022  0.0794
    1DPPC   GL1 3231   1.704  16.191   5.839 -0.1359 -0.0486 -0.1974
    1DPPC   GL2 3232   1.448  16.338   5.791  0.2096  0.2351 -0.0441
    1DPPC   C1A 3233   1.812  16.031   5.426  0.1654 -0.1809  0.2014
    1DPPC   C2A 3234   1.938  15.859   5.019  0.2728  0.1073 -0.0407
    1DPPC   C3A 3235   1.907  15.672   4.683 -0.0089  0.0163  0.0112
    1DPPC   C4A 3236   1.900  15.309   4.459  0.0731  0.1483 -0.1277
    1DPPC   C1B 3237   1.469  16.438   5.314 -0.2263  0.1592  0.1558
    1DPPC   C2B 3238   1.628  16.495   4.877 -0.0489 -0.1250  0.4571
    1DPPC   C3B 3239   1.954  16.311   4.711 -0.2305  0.0500 -0.2048
    1DPPC   C4B 3240   1.975  16.155   4.340  0.1941  0.1246 -0.0822
    1DPPC   NC3 3241  18.720  12.327   7.027 -0.1030 -0.0159 -0.0256
    1DPPC   PO4 3242  18.922  12.144   6.612 -0.1103 -0.1980  0.4398
    1DPPC   GL1 3243  18.931  12.160   6.159  0.2355 -0.1915  0.0626
    1DPPC   GL2 3244  18.981  12.015   5.948  0.0404 -0.2670 -0.0082
    1DPPC   C1A 3245  18.498  12.196   5.926 -0.1835 -0.1746 -0.0617
    1DPPC   C2A 3246  18.336  12.163   5.503  0.0442 -0.2433 -0.2356
    1DPPC   C3A 3247  18.345  12.243   5.072 -0.0197 -0.0339  0.1467
    1DPPC   C4A 3248  18.269  12.278   4.649 -0.0788 -0.0625  0.1588
    1DPPC   C1B 3249  18.940  12.003   5.398 -0.2342 -0.0114 -0.1279
    1DPPC   C2B 3250  18.730  12.054   4.928 -0.0834  0.0466  0.0555
    1DPPC   C3B 3251  18.765  12.052   4.579  0.0044 -0.0876 -0.0453
    1DPPC   C4B 3252  18.426  11.768   4.481  0.1907 -0.2612  0.0635
    1DPPC   NC3 3253  15.122   8.466   7.097  0.2673 -0.0292 -0.1576
    1DPPC   PO4 3254  15.094   8.738   6.833 -0.0417 -0.0790  0.0193
    1DPPC   GL1 3255  14.794   8.578   6.438  0.1341 -0.1249  0.1164
    1DPPC   GL2 3256  14.515   8.492   6.522  0.0663 -0.0098 -0.0151
    1DPPC   C1A 3257  14.641   8.453   5.953 -0.0517  0.1433 -0.4391
    1DPPC   C2A 3258  14.566   8.387   5.549  0.1300 -0.1976  0.0512
    1DPPC   C3A 3259  14.507   8.250   5.121 -0.2780 -0.0585 -0.0068
    1DPPC   C4A 3260  14.601   8.099   4.674  0.0601 -0.2284 -0.1604
    1DPPC   C1B 3261  14.336   8.862   6.259 -0.4763  0.1816 -0.0757
    1DPPC   C2B 3262  14.391   8.891   5.823  0.2365  0.2549 -0.2939
    1DPPC   C3B 3263  14.478   8.832   5.365  0.0949  0.0615  0.2418
    1DPPC   C4B 3264  14.479   8.816   5.009 -0.4185 -0.2929 -0.1271
    1DPPC   NC3 3265  19.832  11.062   6.691  0.3032 -0.1249  0.0486
    1DPPC   PO4 3266  19.973  10.964   6.240  0.0894 -0.2263  0.0775
    1DPPC   GL1 3267  19.707  11.036   5.944 -0.1335  0.2885  0.0371
    1DPPC   GL2 3268  19.727  10.810   5.645  0.0383  0.0044  0.0612
    1DPPC   C1A 3269  19.425  11.121   5.692  0.0474 -0.1166  0.0710
    1DPPC   C2A 3270  19.318  11.197   5.312 -0.0457 -0.0462  0.3096
    1DPPC   C3A 3271  19.336  11.084   4.893 -0.1194 -0.0383 -0.0534
    1DPPC   C4A 3272  19.498  10.827   4.477 -0.0262 -0.0548  0.1094
    1DPPC   C1B 3273  19.822  10.608   5.289  0.0262  0.1656 -0.1984
    1DPPC   C2B 3274  19.675  10.614   4.905  0.0016 -0.1059 -0.0908
    1DPPC   C3B 3275  19.607  10.333   4.506  0.0607  0.0060 -0.1570
    1DPPC   C4B 3276  19.516  10.407   4.128  0.0879 -0.1877  0.0671
    1DPPC   NC3 3277  18.577  12.476   6.492  0.0866  0.0323  0.1371
    1DPPC   PO4 3278  19.011  12.603   6.343 -0.0630  0.1450 -0.3031
    1DPPC   GL1 3279  19.080  12.639   5.997  0.0510 -0.0921  0.0243
    1DPPC   GL2 3280  18.917  13.003   5.990  0.0503 -0.0153  0.0507
    1DPPC   C1A 3281  19.129  12.428   5.674  0.1779 -0.1696  0.1358
    1DPPC   C2A 3282  19.107  12.464   5.201  0.0721  0.0976 -0.1253
    1DPPC   C3A 3283  19.024  12.525   4.827 -0.3218 -0.2882  0.2230
    1DPPC   C4A 3284  18.730  12.529   4.545 -0.0662 -0.2228 -0.1260
    1DPPC   C1B 3285  19.071  12.981   5.569  0.1098  0.0910 -0.0279
    1DPPC   C2B 3286  19.025  12.978   5.035 -0.1193 -0.0625  0.0583
    1DPPC   C3B 3287  19.231  12.995   4.683  0.0588 -0.0021 -0.2149
    1DPPC   C4B 3288  19.312  12.653   4.441  0.2512 -0.1645 -0.1359
    1DPPC   NC3 3289  15.763  12.440   6.520 -0.3605 -0.0341  0.1021
    1DPPC   PO4 3290  16.130  12.196   6.511  0.0759  0.1166 -0.1898
    1DPPC   GL1 3291  15.965  12.123   6.057 -0.0195  0.2718  0.2775
    1DPPC   GL2 3292  16.084  12.407   5.940  0.0482 -0.1617  0.0357
    1DPPC   C1A 3293  15.914  11.937   5.790 -0.0381 -0.1043 -0.1145
    1DPPC   C2A 3294  15.863  11.976   5.297 -0.1667 -0.4001 -0.2544
    1DPPC   C3A 3295  16.038  11.911   4.933  0.3376  0.1439  0.1503
    1DPPC   C4A 3296  15.985  11.878   4.549  0.0188 -0.1603 -0.3145
    1DPPC   C1B 3297  15.952  12.452   5.599  0.2487 -0.2645  0.1819
    1DPPC   C2B 3298  15.874  12.493   5.081 -0.3269 -0.0908 -0.0530
    1DPPC   C3B 3299  15.646  12.232   4.708  0.1354 -0.2092 -0.2286
    1DPPC   C4B 3300  15.723  12.307   4.345 -0.0031  0.1966 -0.1338
    1DPPC   NC3 3301  17.958  21.649   7.209  0.0912  0.0775 -0.1150
    1DPPC   PO4 3302  17.882  22.067   7.147  0.0944 -0.1208  0.1046
    1DPPC   GL1 3303  17.780  21.823   6.811 -0.0027  0.2396 -0.0185
    1DPPC   GL2 3304  17.532  21.630   6.924  0.2387  0.3463 -0.1225
    1DPPC   C1A 3305  17.646  22.013   6.394  0.0071 -0.0664 -0.1748
    1DPPC   C2A 3306  17.727  21.886   5.964 -0.1862  0.1149 -0.0766
    1DPPC   C3A 3307  17.942  21.913   5.476  0.2272 -0.2914  0.0822
    1DPPC   C4A 3308  17.842  21.869   5.055  0.0367 -0.1802 -0.0865
    1DPPC   C1B 3309  17.294  21.687   6.509 -0.0133 -0.0708 -0.3680
    1DPPC   C2B 3310  17.366  21.509   6.021  0.0106 -0.1988 -0.1176
    1DPPC   C3B 3311  17.604  21.506   5.645  0.1372  0.0531  0.0857
    1DPPC   C4B 3312  17.786  21.488   5.277 -0.1785  0.0124  0.0714
    1DPPC   NC3 3313  10.629  16.963   7.112  0.1031  0.0432 -0.0101
    1DPPC   PO4 3314  10.428  16.853   6.742 -0.1214  0.1192 -0.0674
    1DPPC   GL1 3315  10.215  16.702   6.350  0.0078 -0.2171 -0.0497
    1DPPC   GL2 3316  10.119  17.023   6.221 -0.2284  0.5595 -0.1262
    1DPPC   C1A 3317  10.189  16.492   5.945  0.0881  0.1422 -0.2286
    1DPPC   C2A 3318  10.229  16.448   5.570  0.3864 -0.1034  0.3653
    1DPPC   C3A 3319  10.186  16.540   5.136 -0.0861 -0.3387 -0.2813
    1DPPC   C4A 3320  10.175  16.348   4.678 -0.0211  0.1236 -0.2723
    1DPPC   C1B 3321   9.940  16.848   5.718  0.1331 -0.0519 -0.1207
    1DPPC   C2B 3322   9.672  16.666   5.408  0.1142  0.0171  0.1161
    1DPPC   C3B 3323   9.714  16.578   5.010 -0.0363  0.1168 -0.1428
    1DPPC   C4B 3324   9.582  16.392   4.570 -0.0976 -0.3946 -0.0166
    1DPPC   NC3 3325  21.957  15.783   6.920  0.0102 -0.1386 -0.1571
    1DPPC   PO4 3326  22.029  15.524   6.575 -0.2089 -0.0736  0.4383
    1DPPC   GL1 3327  22.134  15.299   6.089  0.1323 -0.2101 -0.2931
    1DPPC   GL2 3328  22.026  15.487   5.880  0.1062 -0.0985  0.0422
    1DPPC   C1A 3329  22.367  15.106   5.678 -0.0730 -0.0029  0.0797
    1DPPC   C2A 3330  22.413  15.133   5.300 -0.2603  0.3952  0.1254
    1DPPC   C3A 3331  22.486  15.225   4.815 -0.0882 -0.0751 -0.1169
    1DPPC   C4A 3332  22.548  15.225   4.460  0.0657  0.0038 -0.2562
    1DPPC   C1B 3333  21.885  15.355   5.415 -0.0438  0.1882 -0.2695
    1DPPC   C2B 3334  22.053  15.414   4.980  0.1713  0.3154 -0.0244
    1DPPC   C3B 3335  21.855  15.470   4.575 -0.0889  0.0647 -0.0127
    1DPPC   C4B 3336  21.849  15.776   4.238  0.0269  0.0946 -0.0042
    1DPPC   NC3 3337  19.020  13.931   6.467  0.0320 -0.1285 -0.4162
    1DPPC   PO4 3338  18.965  14.399   6.431  0.1675 -0.0339  0.1390
    1DPPC   GL1 3339  18.764  14.749   6.227 -0.0694 -0.2503 -0.0753
    1DPPC   GL2 3340  18.537  14.961   6.349  0.0655  0.2616  0.0264
    1DPPC   C1A 3341  18.907  14.832   5.852 -0.0797 -0.1120  0.0413
    1DPPC   C2A 3342  18.952  14.914   5.444  0.0865  0.0117  0.0237
    1DPPC   C3A 3343  19.063  14.789   4.998  0.1431 -0.0456 -0.1179
    1DPPC   C4A 3344  19.110  14.883   4.567 -0.2626 -0.3205  0.1111
    1DPPC   C1B 3345  18.641  15.208   5.955 -0.1756 -0.1166 -0.0937
    1DPPC   C2B 3346  18.652  15.331   5.495 -0.2096  0.0236 -0.2244
    1DPPC   C3B 3347  18.654  15.333   5.064 -0.0022  0.0026  0.1939
    1DPPC   C4B 3348  18.648  15.278   4.572  0.1260 -0.1352  0.1722
    1DPPC   NC3 3349  15.951  12.261   7.025  0.0750  0.0394 -0.2174
    1DPPC   PO4 3350  15.555  12.050   6.842 -0.0447 -0.1336 -0.2308
    1DPPC   GL1 3351  15.728  11.814   6.444  0.0235 -0.3081  0.1458
    1DPPC   GL2 3352  16.092  11.716   6.366  0.0386  0.0316 -0.1302
    1DPPC   C1A 3353  15.497  11.744   6.051  0.0311  0.1605  0.1365
    1DPPC   C2A 3354  15.532  11.595   5.634  0.0575 -0.4124  0.0172
    1DPPC   C3A 3355  15.571  11.659   5.136  0.2726 -0.2328 -0.0237
    1DPPC   C4A 3356  15.541  11.763   4.721  0.0870  0.0556  0.1374
    1DPPC   C1B 3357  15.962  11.476   5.947  0.1850  0.0532  0.0236
    1DPPC   C2B 3358  16.023  11.463   5.520  0.0442 -0.0820  0.1047
    1DPPC   C3B 3359  16.093  11.419   5.056  0.1465  0.0865 -0.0002
    1DPPC   C4B 3360  16.233  11.508   4.735  0.0635 -0.0039  0.2616
    1DPPC   NC3 3361  26.514  10.401   6.240  0.0584 -0.0384 -0.2973
    1DPPC   PO4 3362  26.930  10.573   6.077 -0.0793  0.0186  0.1349
    1DPPC   GL1 3363  27.035  10.557   5.676 -0.0771  0.0269  0.3412
    1DPPC   GL2 3364  27.314  10.680   5.722  0.2860  0.3659  0.1060
    1DPPC   C1A 3365  26.937  10.473   5.213  0.2132  0.0931  0.0187
    1DPPC   C2A 3366  26.981  10.509   4.832 -0.1917 -0.1450 -0.0256
    1DPPC   C3A 3367  27.207  10.226   4.532 -0.2727  0.2392  0.1651
    1DPPC   C4A 3368  27.588  10.058   4.661 -0.1058 -0.2601 -0.2581
    1DPPC   C1B 3369  27.104  10.935   5.361 -0.0339 -0.0263 -0.1732
    1DPPC   C2B 3370  26.788  10.972   5.091  0.0876 -0.2073  0.0940
    1DPPC   C3B 3371  26.635  10.962   4.726 -0.0305  0.2992  0.1883
    1DPPC   C4B 3372  26.487  10.906   4.211 -0.0086 -0.0177  0.1773
    1DPPC   NC3 3373  23.001   3.769   7.371  0.1285 -0.3266  0.0005
    1DPPC   PO4 3374  22.959   3.685   6.908 -0.1433  0.3446  0.0995
    1DPPC   GL1 3375  22.923   3.813   6.448 -0.1123  0.1519  0.0754
    1DPPC   GL2 3376  23.146   3.685   6.442  0.2442 -0.0575 -0.2540
    1DPPC   C1A 3377  22.844   3.934   5.987 -0.1445  0.2246 -0.1840
    1DPPC   C2A 3378  22.882   4.005   5.575  0.2820  0.0232  0.0498
    1DPPC   C3A 3379  22.956   3.757   5.235  0.0219  0.1648  0.1657
    1DPPC   C4A 3380  23.073   3.331   5.073  0.1345 -0.2665  0.0736
    1DPPC   C1B 3381  23.194   3.556   5.969  0.1242  0.2020 -0.0370
    1DPPC   C2B 3382  23.399   3.820   5.592 -0.1098 -0.2120 -0.0842
    1DPPC   C3B 3383  23.382   4.122   5.415 -0.3462 -0.1643  0.0064
    1DPPC   C4B 3384  23.444   4.485   5.396  0.0851 -0.3790 -0.0579
    1DPPC   NC3 3385   1.559  14.155   6.478  0.0366 -0.3020  0.0120
    1DPPC   PO4 3386   1.311  14.012   6.197 -0.0659 -0.0458 -0.0666
    1DPPC   GL1 3387   1.390  14.011   5.807 -0.1259  0.4260 -0.0070
    1DPPC   GL2 3388   1.679  14.143   5.659 -0.0886 -0.1842 -0.1622
    1DPPC   C1A 3389   1.408  13.638   5.578 -0.1533  0.0929 -0.3398
    1DPPC   C2A 3390   1.322  13.644   5.142  0.1250  0.3374  0.0811
    1DPPC   C3A 3391   1.336  13.345   4.772 -0.4741  0.2748 -0.0545
    1DPPC   C4A 3392   1.102  13.126   4.417 -0.1100  0.1031 -0.2782
    1DPPC   C1B 3393   1.797  13.930   5.269 -0.0278 -0.0511 -0.0328
    1DPPC   C2B 3394   1.831  13.885   4.906 -0.1203 -0.0117  0.2485
    1DPPC   C3B 3395   1.405  13.907   4.671 -0.0494 -0.0771  0.2270
    1DPPC   C4B 3396   1.043  13.647   4.446 -0.3636 -0.2858  0.2784
    1DPPC   NC3 3397   6.387   5.297   7.191  0.0883 -0.1555  0.1469
    1DPPC   PO4 3398   6.602   4.901   7.180  0.0675  0.2673  0.0656
    1DPPC   GL1 3399   6.558   4.901   6.780  0.1771 -0.1956 -0.0231
    1DPPC   GL2 3400   6.798   4.700   6.590  0.0793  0.1752  0.0845
    1DPPC   C1A 3401   6.607   5.037   6.319 -0.0618 -0.1055 -0.0436
    1DPPC   C2A 3402   6.988   5.082   6.191  0.0309 -0.1714  0.0554
    1DPPC   C3A 3403   7.185   5.220   5.756  0.3633 -0.2206  0.0991
    1DPPC   C4A 3404   7.377   5.223   5.345 -0.1399 -0.1065 -0.1264
    1DPPC   C1B 3405   7.165   4.631   6.419  0.1363 -0.2859 -0.0511
    1DPPC   C2B 3406   7.465   4.817   6.109 -0.1901 -0.0931 -0.1423
    1DPPC   C3B 3407   7.591   4.885   5.692  0.0754 -0.0698  0.0911
    1DPPC   C4B 3408   7.537   4.754   5.355  0.0358 -0.0774  0.0039
    1DPPC   NC3 3409  17.192  10.708   6.576 -0.0457 -0.0656  0.0341
    1DPPC   PO4 3410  17.531  10.978   6.380 -0.0093 -0.0057  0.1745
    1DPPC   GL1 3411  17.510  11.034   6.027 -0.0514 -0.0388  0.0252
    1DPPC   GL2 3412  17.165  11.241   6.089 -0.3231  0.0765 -0.0142
    1DPPC   C1A 3413  17.568  11.001   5.595 -0.0955 -0.0515 -0.1247
    1DPPC   C2A 3414  17.611  10.993   5.186  0.1916  0.2250 -0.0320
    1DPPC   C3A 3415  17.526  10.977   4.679  0.2586 -0.2280  0.1285
    1DPPC   C4A 3416  17.617  10.607   4.456 -0.0162  0.1030  0.0711
    1DPPC   C1B 3417  17.062  11.304   5.738 -0.2541 -0.1858 -0.1813
    1DPPC   C2B 3418  17.106  11.087   5.349 -0.0621  0.0159 -0.1154
    1DPPC   C3B 3419  17.033  10.939   5.006  0.1093  0.1353  0.0461
    1DPPC   C4B 3420  17.004  10.924   4.602  0.2998  0.1488 -0.0571
    1DPPC   NC3 3421  11.977  21.292   6.305 -0.0492 -0.0197  0.0060
    1DPPC   PO4 3422  11.676  21.631   6.208  0.1878  0.1321 -0.0427
    1DPPC   GL1 3423  11.764  21.437   5.773 -0.0832 -0.1264 -0.2382
    1DPPC   GL2 3424  12.017  21.203   5.778 -0.0481 -0.0843 -0.1859
    1DPPC   C1A 3425  11.571  21.043   5.519 -0.0269  0.1381 -0.3373
    1DPPC   C2A 3426  11.407  20.862   5.129 -0.1434  0.0553  0.1763
    1DPPC   C3A 3427  11.276  21.102   4.820 -0.0074 -0.0950 -0.0636
    1DPPC   C4A 3428  11.171  21.212   4.504 -0.0813  0.0197 -0.1187
    1DPPC   C1B 3429  12.287  21.249   5.458 -0.0742 -0.2555 -0.3100
    1DPPC   C2B 3430  12.397  21.184   5.119  0.0553  0.1213  0.1050
    1DPPC   C3B 3431  12.285  21.179   4.727  0.1357 -0.0520 -0.0277
    1DPPC   C4B 3432  12.504  21.145   4.248 -0.3452  0.1720  0.2180
    1DPPC   NC3 3433  14.564  10.072   7.521 -0.0704 -0.0076 -0.2428
    1DPPC   PO4 3434  14.227  10.096   7.176  0.2711 -0.0825 -0.0113
    1DPPC   GL1 3435  14.085  10.146   6.684 -0.2188  0.1833 -0.2262
    1DPPC   GL2 3436  14.283  10.325   6.555  0.1873  0.4473 -0.0474
    1DPPC   C1A 3437  13.768  10.051   6.342 -0.0423 -0.2676  0.2082
    1DPPC   C2A 3438  13.677  10.056   5.984 -0.1696 -0.0498  0.4294
    1DPPC   C3A 3439  13.633  10.051   5.561 -0.1779  0.1881  0.0159
    1DPPC   C4A 3440  13.559  10.262   5.148  0.0771  0.0773  0.1810
    1DPPC   C1B 3441  14.264  10.247   6.183 -0.1102  0.0195  0.1360
    1DPPC   C2B 3442  14.187  10.190   5.722  0.0284  0.1222 -0.4616
    1DPPC   C3B 3443  14.047  10.264   5.344 -0.3040  0.0388 -0.1517
    1DPPC   C4B 3444  14.058  10.252   4.878 -0.0941  0.0527  0.0940
    1DPPC   NC3 3445  20.617  12.678   6.556 -0.2131 -0.1175 -0.0010
    1DPPC   PO4 3446  21.086  12.670   6.498  0.1621  0.0918 -0.0417
    1DPPC   GL1 3447  20.850  12.925   6.138 -0.1202 -0.0336 -0.0705
    1DPPC   GL2 3448  20.923  13.057   5.941 -0.0523  0.1623 -0.0405
    1DPPC   C1A 3449  20.643  12.689   5.672 -0.1350  0.0391  0.0466
    1DPPC   C2A 3450  20.434  12.553   5.229  0.0656  0.1517  0.2301
    1DPPC   C3A 3451  20.203  12.595   4.807  0.3267  0.0931 -0.1457
    1DPPC   C4A 3452  20.425  12.325   4.429 -0.0377 -0.2256  0.2110
    1DPPC   C1B 3453  20.892  13.205   5.454 -0.2323 -0.0288  0.1015
    1DPPC   C2B 3454  21.115  13.604   5.292  0.2416  0.2422  0.1781
    1DPPC   C3B 3455  21.193  13.737   4.873 -0.0093  0.0502 -0.3909
    1DPPC   C4B 3456  21.449  13.930   4.556  0.0177  0.0597 -0.1131
    1DPPC   NC3 3457  17.916  13.666   6.383 -0.0870 -0.1397 -0.0852
    1DPPC   PO4 3458  17.617  13.969   6.426  0.0261  0.2321 -0.2394
    1DPPC   GL1 3459  17.583  14.401   6.175  0.2445  0.0553  0.1838
    1DPPC   GL2 3460  17.518  14.787   6.245 -0.0825  0.2817 -0.1617
    1DPPC   C1A 3461  17.844  14.533   5.795  0.3097  0.1076 -0.1943
    1DPPC   C2A 3462  17.929  14.530   5.423  0.0436  0.1287 -0.1495
    1DPPC   C3A 3463  18.070  14.576   5.025 -0.0382 -0.3604  0.0288
    1DPPC   C4A 3464  17.901  14.309   4.780  0.2884 -0.3233  0.4996
    1DPPC   C1B 3465  17.684  14.969   5.951 -0.0212  0.0041  0.2051
    1DPPC   C2B 3466  17.753  14.980   5.503 -0.0828  0.1359  0.0224
    1DPPC   C3B 3467  17.742  14.979   5.145  0.0586  0.0138  0.1410
    1DPPC   C4B 3468  17.726  14.876   4.718 -0.1408  0.0791 -0.0225
    1DPPC   NC3 3469  19.025   8.861   6.870  0.0749  0.0195  0.1376
    1DPPC   PO4 3470  18.905   8.995   6.530  0.0217  0.2446  0.2101
    1DPPC   GL1 3471  18.852   8.994   6.060 -0.3294 -0.0265  0.1611
    1DPPC   GL2 3472  18.921   8.834   5.844  0.1550  0.2143  0.0743
    1DPPC   C1A 3473  18.450   9.002   5.749 -0.0437  0.0021  0.0232
    1DPPC   C2A 3474  18.439   9.016   5.305  0.1349  0.1929 -0.1724
    1DPPC   C3A 3475  18.458   9.037   4.850 -0.1998  0.1957 -0.2134
    1DPPC   C4A 3476  18.705   9.229   4.517  0.1065  0.0990 -0.1336
    1DPPC   C1B 3477  18.773   8.657   5.478 -0.0114 -0.2119 -0.1866
    1DPPC   C2B 3478  18.775   8.683   5.007  0.0768 -0.0407 -0.0374
    1DPPC   C3B 3479  18.609   8.513   4.611 -0.0377  0.0476 -0.0329
    1DPPC   C4B 3480  18.342   8.397   4.276  0.2396  0.0025 -0.2533
    1DPPC   NC3 3481  18.930  15.050   6.690  0.0762  0.1459 -0.2394
    1DPPC   PO4 3482  19.005  15.442   6.423  0.2477 -0.1865 -0.2706
    1DPPC   GL1 3483  18.830  15.685   6.146  0.2816  0.2783 -0.0805
    1DPPC   GL2 3484  18.499  15.716   6.171 -0.2942 -0.0070  0.1639
    1DPPC   C1A 3485  18.616  15.778   5.709 -0.0621 -0.1128 -0.3540
    1DPPC   C2A 3486  18.744  15.819   5.272  0.1473  0.0166 -0.0530
    1DPPC   C3A 3487  18.874  15.669   4.808  0.0586 -0.1844 -0.1384
    1DPPC   C4A 3488  18.836  15.685   4.345  0.1131 -0.1083 -0.3073
    1DPPC   C1B 3489  18.154  15.652   5.846 -0.3985 -0.1047  0.1829
    1DPPC   C2B 3490  18.208  15.704   5.472 -0.2563  0.3099  0.3535
    1DPPC   C3B 3491  18.323  15.734   4.998 -0.0620  0.1007  0.0454
    1DPPC   C4B 3492  18.201  15.541   4.673 -0.3519  0.2037 -0.1627
    1DPPC   NC3 3493  19.167  17.481   6.859  0.2161 -0.0588 -0.0878
    1DPPC   PO4 3494  19.249  17.930   6.799 -0.1668 -0.1481 -0.0039
    1DPPC   GL1 3495  19.386  17.829   6.511  0.2357  0.1288  0.2396
    1DPPC   GL2 3496  19.548  17.462   6.438  0.4079  0.3536  0.0793
    1DPPC   C1A 3497  19.299  17.964   6.097  0.0496  0.0831  0.1215
    1DPPC   C2A 3498  19.311  18.016   5.695  0.4307  0.2802  0.1928
    1DPPC   C3A 3499  19.217  18.043   5.284 -0.1963 -0.4909  0.0216
    1DPPC   C4A 3500  19.470  18.137   4.929  0.0835 -0.2770 -0.1100
    1DPPC   C1B 3501  19.583  17.589   6.085 -0.0456  0.1223 -0.3668
    1DPPC   C2B 3502  19.729  17.707   5.588  0.0487 -0.0751 -0.1039
    1DPPC   C3B 3503  19.692  17.771   5.179  0.0849 -0.3569 -0.1532
    1DPPC   C4B 3504  19.757  17.508   4.795  0.2210 -0.0943 -0.3210
    1DPPC   NC3 3505  17.198  15.600   6.666  0.1700  0.0275 -0.0503
    1DPPC   PO4 3506  17.425  15.956   6.644 -0.0321  0.2096  0.1221
    1DPPC   GL1 3507  17.466  16.330   6.403  0.0729 -0.1085  0.3454
    1DPPC   GL2 3508  17.376  16.611   6.439  0.0733  0.0795  0.3381
    1DPPC   C1A 3509  17.547  16.376   5.912 -0.0054  0.0597  0.2542
    1DPPC   C2A 3510  17.848  16.585   5.580  0.2860  0.2104  0.0663
    1DPPC   C3A 3511  17.962  16.538   5.183 -0.1122 -0.0552 -0.0835
    1DPPC   C4A 3512  17.766  16.805   4.805  0.0495 -0.2702  0.0899
    1DPPC   C1B 3513  17.274  16.798   6.050 -0.0916 -0.1563 -0.1521
    1DPPC   C2B 3514  17.323  16.760   5.571 -0.0190 -0.1896 -0.1784
    1DPPC   C3B 3515  17.363  16.881   5.142  0.3582  0.5213  0.0566
    1DPPC   C4B 3516  17.320  16.978   4.633  0.0667  0.0078  0.1160
    1DPPC   NC3 3517  14.451  10.642   6.990  0.1336 -0.2529  0.0528
    1DPPC   PO4 3518  14.078  10.924   6.935  0.1893 -0.0667  0.1019
    1DPPC   GL1 3519  14.171  11.055   6.552  0.0203  0.0099 -0.2437
    1DPPC   GL2 3520  14.363  10.823   6.514 -0.1468 -0.1496  0.2498
    1DPPC   C1A 3521  13.926  11.169   6.234 -0.2106 -0.0698  0.2267
    1DPPC   C2A 3522  13.859  11.200   5.881 -0.0121  0.1434 -0.0133
    1DPPC   C3A 3523  13.688  11.191   5.516 -0.1961  0.2170  0.1902
    1DPPC   C4A 3524  13.638  11.296   5.103  0.2494  0.3214 -0.1520
    1DPPC   C1B 3525  14.386  10.899   6.133  0.0268 -0.2970 -0.1586
    1DPPC   C2B 3526  14.308  10.992   5.773  0.0345  0.0447 -0.0597
    1DPPC   C3B 3527  14.213  11.145   5.383  0.0309 -0.0973 -0.3585
    1DPPC   C4B 3528  14.079  11.484   5.098 -0.1454 -0.0812 -0.0026
    1DPPC   NC3 3529  15.630  20.688   6.813  0.0626  0.2526 -0.2093
    1DPPC   PO4 3530  16.048  20.671   6.908  0.1086  0.0430 -0.1633
    1DPPC   GL1 3531  16.086  20.601   6.495  0.0138  0.4216  0.1215
    1DPPC   GL2 3532  16.086  20.802   6.269  0.3881 -0.0313  0.1335
    1DPPC   C1A 3533  16.091  20.363   6.120 -0.1687 -0.0031 -0.0169
    1DPPC   C2A 3534  15.679  20.306   5.793  0.1452  0.2114  0.1710
    1DPPC   C3A 3535  15.538  20.374   5.365 -0.2712  0.3809  0.1452
    1DPPC   C4A 3536  15.315  20.500   5.022  0.2716  0.0272 -0.3654
    1DPPC   C1B 3537  16.014  20.792   5.882  0.3273 -0.0686  0.0857
    1DPPC   C2B 3538  15.985  20.627   5.491  0.1998 -0.0311 -0.1674
    1DPPC   C3B 3539  16.250  20.580   5.116  0.0365  0.3066 -0.0248
    1DPPC   C4B 3540  16.261  20.397   4.835  0.2091  0.1591 -0.2779
    1DPPC   NC3 3541  13.190  10.248   7.599  0.4278 -0.1373  0.0386
    1DPPC   PO4 3542  13.330  10.416   7.124 -0.3140 -0.0124 -0.1269
    1DPPC   GL1 3543  13.339  10.458   6.648  0.0944 -0.0370 -0.3182
    1DPPC   GL2 3544  13.385  10.811   6.568 -0.0874 -0.0028  0.3047
    1DPPC   C1A 3545  13.378  10.402   6.305  0.3327  0.2812 -0.0693
    1DPPC   C2A 3546  13.333  10.404   5.920 -0.0405 -0.0334 -0.2257
    1DPPC   C3A 3547  13.418  10.649   5.499  0.0799 -0.3880 -0.0787
    1DPPC   C4A 3548  13.440  10.786   5.149  0.1192 -0.0606  0.0849
    1DPPC   C1B 3549  13.525  10.948   6.276  0.1335  0.2872  0.3117
    1DPPC   C2B 3550  13.455  10.901   5.894  0.1786 -0.0648  0.0341
    1DPPC   C3B 3551  13.180  11.106   5.568 -0.1090 -0.2351 -0.2864
    1DPPC   C4B 3552  13.179  11.219   5.114  0.2494  0.0838 -0.0033
    1DPPC   NC3 3553  16.047  11.311   6.619  0.1464  0.1604 -0.2892
    1DPPC   PO4 3554  15.877  10.872   6.796 -0.4088  0.0202 -0.2566
    1DPPC   GL1 3555  15.960  10.866   6.367  0.0509  0.0905  0.0444
    1DPPC   GL2 3556  16.148  11.050   6.223  0.1823  0.0769 -0.1786
    1DPPC   C1A 3557  15.837  10.724   5.915 -0.0319 -0.0895  0.1320
    1DPPC   C2A 3558  15.733  10.647   5.487 -0.1159 -0.0251 -0.0149
    1DPPC   C3A 3559  15.882  10.857   5.124  0.1870 -0.0620  0.0002
    1DPPC   C4A 3560  15.962  10.979   4.762  0.0211  0.0844 -0.1064
    1DPPC   C1B 3561  16.208  11.069   5.715 -0.1142  0.0635  0.0337
    1DPPC   C2B 3562  16.360  11.028   5.244  0.0281 -0.0875  0.3336
    1DPPC   C3B 3563  16.337  10.695   4.841  0.2241  0.1262  0.4572
    1DPPC   C4B 3564  16.164  10.597   4.436  0.0579 -0.2553 -0.2635
    1DPPC   NC3 3565   9.715  13.397   7.284  0.2071 -0.2216  0.2539
    1DPPC   PO4 3566   9.599  13.771   7.085 -0.1995  0.1346 -0.0983
    1DPPC   GL1 3567   9.501  13.775   6.649 -0.0882 -0.0114  0.1153
    1DPPC   GL2 3568   9.627  14.036   6.502 -0.3058  0.2125  0.1174
    1DPPC   C1A 3569   9.427  13.830   6.116  0.1919  0.0074 -0.1448
    1DPPC   C2A 3570   9.635  13.733   5.760 -0.0237 -0.2037 -0.3086
    1DPPC   C3A 3571   9.681  13.602   5.425  0.0113  0.0813 -0.1595
    1DPPC   C4A 3572   9.775  13.586   5.047  0.2564  0.3923 -0.1986
    1DPPC   C1B 3573   9.971  14.105   6.169  0.0345  0.0473  0.1714
    1DPPC   C2B 3574  10.065  13.975   5.801  0.0278 -0.0912  0.3872
    1DPPC   C3B 3575  10.106  13.867   5.322 -0.0977 -0.2924  0.2132
    1DPPC   C4B 3576  10.196  13.728   4.915  0.1294 -0.0267 -0.1843
    1DPPC   NC3 3577  17.255  14.727   6.759 -0.2026  0.0258 -0.0140
    1DPPC   PO4 3578  17.508  15.081   6.604  0.3476 -0.1053 -0.1891
    1DPPC   GL1 3579  17.236  15.198   6.245 -0.1626 -0.1587 -0.4501
    1DPPC   GL2 3580  16.991  15.356   6.261 -0.1552 -0.0438  0.2431
    1DPPC   C1A 3581  17.244  15.173   5.812  0.0957 -0.1396 -0.0378
    1DPPC   C2A 3582  17.330  15.236   5.316  0.2741  0.0292 -0.0764
    1DPPC   C3A 3583  17.261  15.044   4.896 -0.2078  0.1243 -0.1872
    1DPPC   C4A 3584  17.224  15.198   4.516  0.2265  0.0100 -0.0977
    1DPPC   C1B 3585  16.829  15.409   5.892 -0.2630 -0.3108 -0.4140
    1DPPC   C2B 3586  16.882  15.443   5.483  0.1254  0.1979 -0.0841
    1DPPC   C3B 3587  16.939  15.461   5.062  0.4114 -0.0811 -0.0122
    1DPPC   C4B 3588  17.049  15.633   4.687  0.0213 -0.2141  0.1055
    1DPPC   NC3 3589  10.395  11.037   7.697 -0.0393 -0.1495 -0.1026
    1DPPC   PO4 3590  10.757  11.074   7.332  0.0189  0.0982  0.0069
    1DPPC   GL1 3591  10.575  11.349   6.927 -0.2110  0.2152  0.0475
    1DPPC   GL2 3592  10.921  11.510   6.780 -0.1032 -0.2828  0.1067
    1DPPC   C1A 3593  10.454  11.557   6.539 -0.0201 -0.0876  0.0142
    1DPPC   C2A 3594  10.578  11.607   6.082 -0.0369  0.2001  0.1902
    1DPPC   C3A 3595  10.730  11.596   5.783  0.0879 -0.0935  0.3299
    1DPPC   C4A 3596  10.697  11.499   5.308  0.0650  0.1284  0.0457
    1DPPC   C1B 3597  10.867  11.326   6.365  0.6152  0.2062  0.1471
    1DPPC   C2B 3598  10.999  11.212   6.015  0.1642 -0.0893 -0.0541
    1DPPC   C3B 3599  11.155  11.340   5.725 -0.3316  0.0334  0.0335
    1DPPC   C4B 3600  11.394  11.575   5.406  0.0173  0.1458  0.3087
    1DPPC   NC3 3601  14.789  17.670   6.712  0.1250  0.0204  0.0808
    1DPPC   PO4 3602  15.185  17.616   6.500  0.0342  0.1183  0.1996
    1DPPC   GL1 3603  14.963  17.768   6.145  0.2530  0.1537  0.0892
    1DPPC   GL2 3604  14.765  18.055   6.044  0.2283  0.0083 -0.2719
    1DPPC   C1A 3605  14.671  17.573   5.872 -0.1006 -0.0372 -0.1409
    1DPPC   C2A 3606  14.785  17.601   5.419 -0.0697 -0.1220 -0.0780
    1DPPC   C3A 3607  14.933  17.647   5.131  0.0166 -0.0648  0.0403
    1DPPC   C4A 3608  14.912  17.490   4.818  0.3838 -0.4869 -0.0164
    1DPPC   C1B 3609  14.755  18.072   5.669 -0.4020 -0.2355 -0.1066
    1DPPC   C2B 3610  14.718  18.122   5.230 -0.0405 -0.1681 -0.2631
    1DPPC   C3B 3611  14.649  17.984   4.848  0.1709 -0.2390  0.1961
    1DPPC   C4B 3612  14.536  17.879   4.376  0.3061 -0.1318 -0.1415
    1DPPC   NC3 3613  23.761  17.272   6.035 -0.1150  0.0931 -0.1097
    1DPPC   PO4 3614  23.561  17.596   6.071 -0.2281 -0.0702 -0.2191
    1DPPC   GL1 3615  23.497  17.407   5.632 -0.1364 -0.0156  0.0450
    1DPPC   GL2 3616  23.757  17.178   5.504  0.3696  0.0148 -0.1389
    1DPPC   C1A 3617  23.330  17.302   5.290 -0.2790  0.0997 -0.1268
    1DPPC   C2A 3618  23.415  17.463   4.931 -0.0940  0.1999 -0.1798
    1DPPC   C3A 3619  23.645  17.625   4.536  0.3044  0.1838 -0.1561
    1DPPC   C4A 3620  23.498  17.886   4.143 -0.0335 -0.1233  0.1269
    1DPPC   C1B 3621  23.850  17.267   5.121 -0.2187 -0.1818  0.0701
    1DPPC   C2B 3622  24.137  17.524   4.864 -0.1166  0.1706  0.1553
    1DPPC   C3B 3623  24.205  17.846   4.618 -0.0631 -0.0578 -0.1440
    1DPPC   C4B 3624  24.444  17.704   4.130 -0.2220 -0.1220 -0.0777
    1DPPC   NC3 3625  14.085  18.054   6.538 -0.0084 -0.0773  0.0391
    1DPPC   PO4 3626  14.505  18.094   6.539 -0.0801 -0.2912  0.0705
    1DPPC   GL1 3627  14.480  18.451   6.337  0.1724 -0.2576  0.1983
    1DPPC   GL2 3628  14.132  18.444   6.219  0.0423 -0.0667  0.3346
    1DPPC   C1A 3629  14.456  18.843   6.102 -0.0393  0.1898 -0.0596
    1DPPC   C2A 3630  14.557  18.900   5.655  0.2930 -0.0624 -0.2112
    1DPPC   C3A 3631  14.477  18.852   5.108  0.0729  0.1183  0.1729
    1DPPC   C4A 3632  14.786  18.893   4.743  0.0610  0.0848 -0.0129
    1DPPC   C1B 3633  14.358  18.409   5.801 -0.0554  0.2005  0.1424
    1DPPC   C2B 3634  14.331  18.428   5.448  0.0377 -0.0799 -0.0203
    1DPPC   C3B 3635  14.277  18.380   5.043  0.3163  0.2420  0.2995
    1DPPC   C4B 3636  14.413  18.374   4.616  0.1782  0.2292  0.2154
    1DPPC   NC3 3637  15.044   6.895   7.050  0.0953 -0.2707  0.1749
    1DPPC   PO4 3638  15.419   7.024   6.844 -0.2636  0.0061  0.2564
    1DPPC   GL1 3639  15.354   6.872   6.394 -0.0898  0.0205 -0.1143
    1DPPC   GL2 3640  15.689   6.800   6.340  0.1448 -0.0319  0.3486
    1DPPC   C1A 3641  15.092   6.917   5.953  0.0105 -0.1693  0.0518
    1DPPC   C2A 3642  14.708   6.858   5.922  0.3036  0.0600 -0.1652
    1DPPC   C3A 3643  14.356   6.985   5.634  0.0784  0.0913 -0.2501
    1DPPC   C4A 3644  14.259   7.350   5.535  0.0584  0.0311 -0.3029
    1DPPC   C1B 3645  15.541   7.153   5.995 -0.0766  0.0095 -0.1897
    1DPPC   C2B 3646  15.231   7.214   5.599  0.1789  0.2945 -0.0289
    1DPPC   C3B 3647  15.112   7.618   5.397 -0.0948 -0.0161 -0.1481
    1DPPC   C4B 3648  15.252   7.653   5.052  0.1327  0.1963  0.0041
    1DIPC   NC3 3649   5.149  15.607   5.833  0.0197  0.0141 -0.0674
    1DIPC   PO4 3650   4.744  15.663   5.931  0.0304 -0.1456 -0.0173
    1DIPC   GL1 3651   4.769  15.549   5.541 -0.0948  0.0526 -0.1496
    1DIPC   GL2 3652   4.814  15.678   5.265  0.3523 -0.4359  0.2297
    1DIPC   C1A 3653   5.129  15.340   5.244 -0.4945 -0.0786  0.0225
    1DIPC   D2A 3654   5.323  15.229   4.828 -0.1597 -0.1455  0.2286
    1DIPC   D3A 3655   4.945  15.297   4.515  0.0774  0.1107 -0.0737
    1DIPC   C4A 3656   4.653  15.739   4.472  0.1088  0.0868 -0.2954
    1DIPC   C1B 3657   5.046  15.726   4.836  0.2030 -0.0735 -0.2801
    1DIPC   D2B 3658   5.378  15.717   4.433 -0.1714 -0.3416  0.0195
    1DIPC   D3B 3659   5.034  15.799   4.078  0.2182 -0.2993 -0.0852
    1DIPC   C4B 3660   4.623  16.131   4.153 -0.1270 -0.0897 -0.2606
    1DIPC   NC3 3661   4.428  14.188   6.299 -0.1450  0.0995  0.1290
    1DIPC   PO4 3662   4.913  14.127   6.351 -0.1442 -0.0585  0.1981
    1DIPC   GL1 3663   4.785  13.879   6.078  0.2258 -0.0296 -0.1925
    1DIPC   GL2 3664   4.805  14.000   5.782  0.0565  0.0036 -0.2135
    1DIPC   C1A 3665   4.996  13.523   5.690 -0.0315  0.1908 -0.0536
    1DIPC   D2A 3666   5.260  13.163   5.387 -0.0392  0.0239  0.1120
    1DIPC   D3A 3667   4.918  13.529   5.221  0.0594  0.0755 -0.0589
    1DIPC   C4A 3668   5.091  13.750   4.839  0.0553 -0.0319 -0.1933
    1DIPC   C1B 3669   4.744  14.078   5.323 -0.2746  0.0601  0.3110
    1DIPC   D2B 3670   4.479  14.234   4.952  0.0341  0.3871 -0.0156
    1DIPC   D3B 3671   4.410  14.538   4.596 -0.1210  0.0390  0.0499
    1DIPC   C4B 3672   4.015  14.792   4.366 -0.0328 -0.0243  0.0329
    1DIPC   NC3 3673  11.756  24.357   6.136 -0.0491 -0.1483  0.1658
    1DIPC   PO4 3674  11.237  24.252   6.094  0.0354  0.0757  0.2058
    1DIPC   GL1 3675  11.340  24.545   5.812 -0.3184  0.1908  0.2682
    1DIPC   GL2 3676  11.096  24.586   5.565 -0.2002  0.0764 -0.1541
    1DIPC   C1A 3677  11.489  24.872   5.388 -0.0589  0.1631  0.1194
    1DIPC   D2A 3678  11.248  25.033   4.991  0.0205  0.0476 -0.1280
    1DIPC   D3A 3679  11.245  25.414   4.802  0.1237  0.0622  0.0052
    1DIPC   C4A 3680  11.664  25.655   4.519 -0.0882 -0.3347  0.0193
    1DIPC   C1B 3681  10.857  24.686   5.075 -0.5168 -0.1707 -0.3600
    1DIPC   D2B 3682  10.849  24.935   4.698 -0.0000  0.0217  0.1438
    1DIPC   D3B 3683  11.230  24.977   4.438 -0.2218  0.2028  0.0591
    1DIPC   C4B 3684  11.578  25.103   4.649 -0.0102 -0.0489 -0.3714
    1DIPC   NC3 3685  16.199   4.326   6.397 -0.0666 -0.1846  0.1620
    1DIPC   PO4 3686  16.613   4.154   6.413 -0.0272  0.0609  0.0035
    1DIPC   GL1 3687  16.473   4.139   6.031 -0.0612  0.0701  0.0842
    1DIPC   GL2 3688  16.117   4.004   6.048 -0.0147  0.0204  0.0968
    1DIPC   C1A 3689  16.535   3.731   5.710 -0.1753 -0.5592 -0.3250
    1DIPC   D2A 3690  16.439   3.334   5.709  0.2170  0.0955  0.0923
    1DIPC   D3A 3691  16.389   2.988   5.370 -0.2084 -0.0337 -0.4368
    1DIPC   C4A 3692  16.665   2.877   4.995  0.3104 -0.0056 -0.3329
    1DIPC   C1B 3693  15.907   3.780   5.788 -0.1499  0.1596  0.0371
    1DIPC   D2B 3694  15.687   3.841   5.393 -0.5896  0.2592  0.1216
    1DIPC   D3B 3695  15.536   3.426   5.201 -0.1688  0.0792 -0.0608
    1DIPC   C4B 3696  15.358   3.536   4.732 -0.4527  0.1282  0.4906
    1DIPC   NC3 3697   0.698  21.510   5.977 -0.1034  0.0167 -0.2813
    1DIPC   PO4 3698   0.937  21.862   6.005  0.1976  0.0030 -0.0253
    1DIPC   GL1 3699   0.729  21.882   5.638  0.0764  0.2738  0.0682
    1DIPC   GL2 3700   1.033  21.783   5.467  0.1567  0.0165 -0.2198
    1DIPC   C1A 3701   0.537  21.619   5.315 -0.0107  0.3831 -0.1939
    1DIPC   D2A 3702   0.539  21.345   5.039  0.0523 -0.3904 -0.0376
    1DIPC   D3A 3703   0.790  21.147   4.758 -0.1019  0.0221  0.2705
    1DIPC   C4A 3704   1.156  20.822   4.772 -0.0731 -0.4462  0.2994
    1DIPC   C1B 3705   0.936  21.757   5.056 -0.0400 -0.0571  0.1870
    1DIPC   D2B 3706   0.739  21.665   4.693  0.2376  0.1538 -0.3373
    1DIPC   D3B 3707   0.488  21.772   4.367  0.0196  0.3300  0.0123
    1DIPC   C4B 3708   0.064  21.940   4.539  0.0058  0.2901  0.1862
    1DIPC   NC3 3709   2.753  16.389   6.538 -0.1568  0.0330  0.0168
    1DIPC   PO4 3710   2.712  16.114   6.160  0.1352 -0.1360  0.1997
    1DIPC   GL1 3711   2.607  16.237   5.709 -0.0528 -0.3579 -0.0054
    1DIPC   GL2 3712   2.898  16.403   5.583  0.0797  0.1084 -0.0998
    1DIPC   C1A 3713   2.545  15.944   5.477 -0.1714  0.2773  0.1865
    1DIPC   D2A 3714   2.187  15.714   5.417  0.1498 -0.2139 -0.0315
    1DIPC   D3A 3715   2.105  15.223   5.321 -0.0959  0.0229  0.1028
    1DIPC   C4A 3716   2.104  15.061   4.855 -0.1942 -0.0452  0.0093
    1DIPC   C1B 3717   2.616  16.694   5.432  0.1078 -0.4458  0.1493
    1DIPC   D2B 3718   2.624  17.121   5.178  0.1071 -0.3025 -0.0714
    1DIPC   D3B 3719   3.124  17.226   5.074  0.1316  0.4932  0.3884
    1DIPC   C4B 3720   3.277  17.486   4.774  0.0259  0.1159 -0.1027
    1DIPC   NC3 3721   0.025  21.784   5.937  0.1931 -0.1022 -0.2168
    1DIPC   PO4 3722  -0.018  22.144   6.090 -0.0330  0.1740  0.2412
    1DIPC   GL1 3723   0.169  22.153   5.619  0.2435  0.0799  0.0478
    1DIPC   GL2 3724   0.160  21.781   5.465 -0.0138 -0.0007  0.0436
    1DIPC   C1A 3725   0.465  22.176   5.302 -0.2000  0.0497  0.2058
    1DIPC   D2A 3726   0.629  22.285   4.865  0.0835 -0.0650  0.0581
    1DIPC   D3A 3727   0.949  22.327   5.074 -0.1708 -0.2451 -0.1539
    1DIPC   C4A 3728   1.230  22.577   4.934 -0.1878  0.0373  0.1291
    1DIPC   C1B 3729   0.180  21.810   4.959 -0.0917  0.1241 -0.0362
    1DIPC   D2B 3730   0.187  21.521   4.684  0.1811 -0.2199  0.1833
    1DIPC   D3B 3731   0.243  21.076   4.546  0.1712 -0.2174  0.2919
    1DIPC   C4B 3732   0.338  20.904   4.853 -0.1236  0.1202  0.0955
    1DIPC   NC3 3733  15.713   0.141   7.180  0.1632 -0.1507 -0.1414
    1DIPC   PO4 3734  16.035  -0.209   7.220  0.1541  0.3857 -0.1089
    1DIPC   GL1 3735  16.012  -0.271   6.824  0.0768  0.0968 -0.0441
    1DIPC   GL2 3736  15.683  -0.105   6.755 -0.3981 -0.1951 -0.2104
    1DIPC   C1A 3737  15.941  -0.509   6.485 -0.1290 -0.1917  0.1500
    1DIPC   D2A 3738  15.838  -0.546   6.072  0.0655  0.1547 -0.0440
    1DIPC   D3A 3739  16.126  -0.279   5.730  0.2070  0.0205 -0.2687
    1DIPC   C4A 3740  16.222  -0.559   5.268  0.1283  0.5319  0.0447
    1DIPC   C1B 3741  15.546  -0.140   6.374  0.2177  0.1680  0.1524
    1DIPC   D2B 3742  15.345  -0.263   5.955 -0.0484 -0.0169  0.0567
    1DIPC   D3B 3743  15.143   0.035   5.671  0.2220 -0.0754 -0.2228
    1DIPC   C4B 3744  14.739  -0.006   5.351  0.0012 -0.1875  0.2370
    1DIPC   NC3 3745  27.389  24.889   6.765 -0.3699  0.0826  0.0639
    1DIPC   PO4 3746  27.556  25.125   6.515 -0.0324 -0.0205 -0.2747
    1DIPC   GL1 3747  27.661  25.175   6.120  0.2635  0.3370  0.2748
    1DIPC   GL2 3748  27.845  25.449   6.180  0.0812  0.0382  0.3695
    1DIPC   C1A 3749  27.884  25.210   5.734 -0.2774 -0.2576 -0.0723
    1DIPC   D2A 3750  27.791  25.096   5.229  0.1079  0.1980 -0.4235
    1DIPC   D3A 3751  28.070  25.226   5.003  0.0298 -0.2738  0.0358
    1DIPC   C4A 3752  27.884  25.117   4.665  0.1942  0.1350 -0.0524
    1DIPC   C1B 3753  27.848  25.786   5.915  0.1171 -0.0760 -0.0672
    1DIPC   D2B 3754  27.988  25.891   5.611  0.1732  0.0402 -0.0089
    1DIPC   D3B 3755  27.780  25.628   5.412  0.3062  0.2156 -0.2556
    1DIPC   C4B 3756  27.761  25.621   4.960 -0.0240 -0.1702  0.1754
    1DIPC   NC3 3757  29.248   4.462   6.868  0.0658  0.0300  0.1425
    1DIPC   PO4 3758  29.571   4.655   6.683  0.2883 -0.0581  0.0348
    1DIPC   GL1 3759  29.466   4.482   6.343 -0.1204  0.0344  0.0305
    1DIPC   GL2 3760  29.792   4.547   6.039 -0.0011  0.3376 -0.0044
    1DIPC   C1A 3761  29.355   4.693   5.950 -0.2282 -0.1922  0.2931
    1DIPC   D2A 3762  29.152   4.862   5.602  0.1325  0.2727 -0.0736
    1DIPC   D3A 3763  29.409   5.194   5.451 -0.2153 -0.0045 -0.0564
    1DIPC   C4A 3764  29.275   5.632   5.588 -0.1952  0.0246  0.2052
    1DIPC   C1B 3765  29.591   4.608   5.565 -0.2986 -0.0477  0.3089
    1DIPC   D2B 3766  29.738   4.452   5.147  0.1685  0.0769  0.0646
    1DIPC   D3B 3767  29.289   4.282   5.082 -0.3766 -0.0894  0.0494
    1DIPC   C4B 3768  29.087   4.422   5.447  0.1221  0.0650  0.2286
    1DIPC   NC3 3769  21.031   8.814   6.644 -0.0144 -0.0291  0.3712
    1DIPC   PO4 3770  21.393   9.131   6.494 -0.0909 -0.0175  0.1684
    1DIPC   GL1 3771  21.550   9.258   6.101  0.2834  0.0024  0.1636
    1DIPC   GL2 3772  21.366   9.048   5.869  0.1702  0.2749 -0.3997
    1DIPC   C1A 3773  21.775   9.391   5.773 -0.0257  0.1193  0.0761
    1DIPC   D2A 3774  21.832   9.273   5.266 -0.0191  0.2228 -0.2172
    1DIPC   D3A 3775  21.638   8.949   5.490 -0.2428  0.0029 -0.0489
    1DIPC   C4A 3776  21.982   8.535   5.602  0.2561 -0.2017 -0.3113
    1DIPC   C1B 3777  21.296   9.341   5.637  0.4612 -0.0033  0.0830
    1DIPC   D2B 3778  21.551   9.718   5.483  0.0484  0.0223  0.0176
    1DIPC   D3B 3779  21.483  10.023   5.115  0.1250 -0.1819 -0.0190
    1DIPC   C4B 3780  21.587  10.018   4.704  0.0231 -0.1984 -0.2760
    1DIPC   NC3 3781  11.125  26.356   6.523  0.1462  0.2919  0.0649
    1DIPC   PO4 3782  11.430  25.983   6.325 -0.0261  0.1764  0.0325
    1DIPC   GL1 3783  11.489  25.844   5.963 -0.1334  0.0699  0.1306
    1DIPC   GL2 3784  11.673  26.120   5.852  0.0010 -0.0302  0.1000
    1DIPC   C1A 3785  11.240  26.063   5.591  0.1511 -0.1768  0.0222
    1DIPC   D2A 3786  10.998  26.291   5.302 -0.1932  0.0460 -0.0870
    1DIPC   D3A 3787  11.335  26.470   5.299 -0.1580 -0.0523 -0.1866
    1DIPC   C4A 3788  11.551  26.189   5.139  0.1191 -0.2894  0.2798
    1DIPC   C1B 3789  12.176  25.976   5.791 -0.0399  0.0708 -0.0906
    1DIPC   D2B 3790  12.504  26.172   5.695  0.1570 -0.2944  0.2869
    1DIPC   D3B 3791  12.450  26.607   5.424  0.2787 -0.4813  0.1150
    1DIPC   C4B 3792  12.713  26.908   5.329 -0.0397 -0.1959 -0.0047
    1DIPC   NC3 3793   9.844   0.803   7.335 -0.1746 -0.1690  0.1330
    1DIPC   PO4 3794   9.966   0.884   6.945 -0.0343  0.0906 -0.0591
    1DIPC   GL1 3795  10.162   0.720   6.576 -0.2945 -0.0856 -0.3195
    1DIPC   GL2 3796  10.400   0.692   6.371 -0.2467  0.0103  0.1603
    1DIPC   C1A 3797   9.957   0.503   6.184 -0.1783 -0.2289  0.1697
    1DIPC   D2A 3798   9.697   0.637   5.808 -0.1268  0.2147 -0.0934
    1DIPC   D3A 3799  10.050   0.625   5.569 -0.0388  0.1441 -0.2014
    1DIPC   C4A 3800  10.400   0.356   5.638  0.3786 -0.2809  0.0831
    1DIPC   C1B 3801  10.490   0.925   6.028  0.1760  0.3030  0.0439
    1DIPC   D2B 3802  10.533   0.854   5.607  0.0208  0.2313 -0.0326
    1DIPC   D3B 3803  10.934   0.707   5.764  0.0945  0.2640  0.1209
    1DIPC   C4B 3804  11.227   0.582   5.362  0.2382 -0.1416  0.0045
    1DIPC   NC3 3805  29.126   0.659   6.282  0.0347 -0.0760  0.1069
    1DIPC   PO4 3806  28.726   0.686   6.258 -0.0260 -0.0277  0.0202
    1DIPC   GL1 3807  28.625   0.411   5.971 -0.1193 -0.0462 -0.2628
    1DIPC   GL2 3808  28.378   0.297   5.878  0.0857  0.1138 -0.0954
    1DIPC   C1A 3809  28.947   0.259   5.709 -0.1091  0.2290  0.1846
    1DIPC   D2A 3810  29.310   0.090   5.394 -0.0682  0.3827  0.0884
    1DIPC   D3A 3811  29.318  -0.285   5.235  0.0707  0.3809 -0.3448
    1DIPC   C4A 3812  29.384  -0.807   5.267  0.0487  0.0832  0.2606
    1DIPC   C1B 3813  28.355   0.154   5.426 -0.2734 -0.1754  0.1913
    1DIPC   D2B 3814  28.289   0.019   5.060 -0.2773  0.0432  0.0507
    1DIPC   D3B 3815  28.467  -0.427   5.014  0.0874 -0.1784  0.1503
    1DIPC   C4B 3816  28.229  -0.640   4.756 -0.0539 -0.0154 -0.0996
    1DIPC   NC3 3817  22.317  28.109   6.411  0.0086  0.3018  0.1212
    1DIPC   PO4 3818  22.731  27.956   6.432  0.0079  0.1875  0.2231
    1DIPC   GL1 3819  22.848  28.090   6.032 -0.0280 -0.1025 -0.0811
    1DIPC   GL2 3820  22.537  28.346   5.912  0.0435  0.0603  0.1602
    1DIPC   C1A 3821  22.815  28.022   5.602  0.1574  0.0566 -0.1484
    1DIPC   D2A 3822  23.054  27.932   5.257 -0.0934  0.0127 -0.0730
    1DIPC   D3A 3823  23.468  28.097   5.367 -0.1247 -0.0616  0.3096
    1DIPC   C4A 3824  23.785  28.054   5.061 -0.0164  0.2042 -0.1911
    1DIPC   C1B 3825  22.639  28.453   5.535 -0.2547  0.2239 -0.1899
    1DIPC   D2B 3826  22.848  28.375   5.123  0.0439  0.1934 -0.1119
    1DIPC   D3B 3827  22.508  28.606   5.016 -0.1325  0.0953  0.0347
    1DIPC   C4B 3828  22.126  28.675   4.944  0.2376 -0.1422 -0.1586
    1DIPC   NC3 3829  21.647  10.634   6.513 -0.0298 -0.2582  0.1688
    1DIPC   PO4 3830  21.910  10.321   6.316  0.3061 -0.0979  0.2364
    1DIPC   GL1 3831  21.903  10.214   5.844  0.0874  0.0426 -0.2159
    1DIPC   GL2 3832  21.527  10.386   5.714  0.1490 -0.3258  0.0889
    1DIPC   C1A 3833  21.978   9.938   5.482  0.1928 -0.1168 -0.0712
    1DIPC   D2A 3834  22.235  10.073   5.213 -0.2475 -0.0715  0.2139
    1DIPC   D3A 3835  22.367  10.060   4.811  0.0912  0.1292 -0.2784
    1DIPC   C4A 3836  22.605   9.685   4.824 -0.0631  0.3971  0.2040
    1DIPC   C1B 3837  21.684  10.474   5.399 -0.1599 -0.4638  0.0577
    1DIPC   D2B 3838  21.863  10.336   5.055  0.0986 -0.0963 -0.1875
    1DIPC   D3B 3839  21.844  10.573   4.639  0.3215 -0.0842 -0.0293
    1DIPC   C4B 3840  21.668  10.370   4.242  0.0659 -0.0446  0.0353
    1DIPC   NC3 3841  27.400   0.942   7.015  0.1362  0.2516 -0.1531
    1DIPC   PO4 3842  27.355   1.176   6.597  0.1005  0.1029  0.1886
    1DIPC   GL1 3843  27.471   1.000   6.131 -0.2734 -0.0645 -0.0875
    1DIPC   GL2 3844  27.372   0.871   5.913 -0.0333 -0.2757 -0.1349
    1DIPC   C1A 3845  27.853   0.910   5.880 -0.1908 -0.1263 -0.1741
    1DIPC   D2A 3846  27.838   1.041   5.497  0.0875 -0.1267  0.1236
    1DIPC   D3A 3847  27.546   1.091   5.444  0.0518  0.1537  0.1372
    1DIPC   C4A 3848  27.521   1.378   5.822  0.0722  0.2583 -0.2438
    1DIPC   C1B 3849  27.053   1.178   5.760  0.2564 -0.0980  0.2675
    1DIPC   D2B 3850  27.185   1.559   5.528  0.0989 -0.1204  0.0537
    1DIPC   D3B 3851  27.144   1.254   5.256 -0.2460  0.1435 -0.0595
    1DIPC   C4B 3852  27.291   0.971   4.958 -0.0221  0.1519 -0.0958
    1DIPC   NC3 3853  16.296  28.066   7.014  0.3548 -0.1377 -0.0078
    1DIPC   PO4 3854  15.982  28.268   6.933 -0.1021  0.1062  0.1912
    1DIPC   GL1 3855  16.035  27.991   6.520  0.0248 -0.0531 -0.0508
    1DIPC   GL2 3856  15.781  27.808   6.550 -0.0870  0.0434  0.0496
    1DIPC   C1A 3857  16.174  28.178   6.169  0.0123 -0.0452 -0.0748
    1DIPC   D2A 3858  16.445  28.434   5.894  0.0610 -0.2014  0.1859
    1DIPC   D3A 3859  16.430  28.834   6.070 -0.0291  0.0492 -0.1006
    1DIPC   C4A 3860  16.270  29.179   5.882 -0.0209 -0.6672 -0.0313
    1DIPC   C1B 3861  15.822  27.771   6.093 -0.2520  0.0133  0.0961
    1DIPC   D2B 3862  16.059  27.423   5.769  0.2770 -0.3298  0.0416
    1DIPC   D3B 3863  15.920  27.409   5.440 -0.1523 -0.1057  0.1398
    1DIPC   C4B 3864  15.916  27.107   5.096  0.0434  0.1266  0.1843
    1DIPC   NC3 3865   5.396   0.998   7.212  0.0160  0.0686  0.0435
    1DIPC   PO4 3866   5.389   1.295   6.965 -0.0310  0.2247  0.0023
    1DIPC   GL1 3867   5.667   1.309   6.665  0.0219  0.1026  0.0256
    1DIPC   GL2 3868   5.926   1.046   6.618 -0.0291 -0.1302 -0.2063
    1DIPC   C1A 3869   5.957   1.656   6.344 -0.0434 -0.1622 -0.1733
    1DIPC   D2A 3870   6.261   1.436   6.034  0.0687 -0.1256 -0.0906
    1DIPC   D3A 3871   6.365   1.842   6.175 -0.2320 -0.2527 -0.1723
    1DIPC   C4A 3872   6.710   1.657   6.196 -0.0293  0.0080 -0.3774
    1DIPC   C1B 3873   6.284   1.063   6.326  0.0131  0.1558  0.0648
    1DIPC   D2B 3874   6.585   0.678   6.142 -0.0856  0.0891  0.1305
    1DIPC   D3B 3875   6.680   0.636   5.654 -0.0772 -0.0207  0.1739
    1DIPC   C4B 3876   7.072   0.439   5.372  0.0298 -0.0459 -0.2256
    1DIPC   NC3 3877   5.013  14.752   6.074  0.0488 -0.3062 -0.0683
    1DIPC   PO4 3878   5.410  14.825   5.968  0.4160 -0.1838 -0.0060
    1DIPC   GL1 3879   5.327  14.750   5.542 -0.1168 -0.1586 -0.2432
    1DIPC   GL2 3880   5.484  14.974   5.369 -0.1207  0.3248  0.2157
    1DIPC   C1A 3881   5.189  14.667   5.079  0.1995 -0.2735  0.0379
    1DIPC   D2A 3882   5.242  14.355   4.765  0.1948  0.0384  0.2292
    1DIPC   D3A 3883   5.530  13.928   4.751  0.2782  0.0008  0.2051
    1DIPC   C4A 3884   5.657  14.028   5.091 -0.1622  0.2361  0.1040
    1DIPC   C1B 3885   5.737  14.896   4.911 -0.1747 -0.1721 -0.1599
    1DIPC   D2B 3886   5.875  14.985   4.559  0.0182  0.0838  0.0416
    1DIPC   D3B 3887   6.027  14.687   4.307  0.2671  0.0154  0.3880
    1DIPC   C4B 3888   6.095  14.791   3.889  0.1711 -0.0843  0.0362
    1DIPC   NC3 3889  22.222   5.824   7.157  0.0503  0.0114  0.0892
    1DIPC   PO4 3890  22.446   6.151   6.840 -0.1257  0.1836 -0.1918
    1DIPC   GL1 3891  22.399   6.394   6.495 -0.1946 -0.2179  0.0670
    1DIPC   GL2 3892  22.131   6.361   6.284  0.1417  0.0154  0.2077
    1DIPC   C1A 3893  22.619   6.576   6.152  0.3258 -0.2146  0.0182
    1DIPC   D2A 3894  22.820   6.515   5.698 -0.0596  0.0141 -0.1616
    1DIPC   D3A 3895  23.104   6.851   5.516 -0.2170  0.1563  0.0945
    1DIPC   C4A 3896  23.295   6.783   5.079 -0.1271 -0.0860  0.0578
    1DIPC   C1B 3897  21.970   6.272   5.877  0.0902 -0.2903 -0.1339
    1DIPC   D2B 3898  21.924   6.121   5.447 -0.1710  0.0282 -0.0073
    1DIPC   D3B 3899  21.565   6.219   5.202 -0.3331  0.1180 -0.2640
    1DIPC   C4B 3900  21.242   5.968   4.911  0.2297 -0.0232  0.4223
    1DIPC   NC3 3901   4.878   3.340   7.079 -0.0693  0.0152 -0.0569
    1DIPC   PO4 3902   5.000   3.058   6.942  0.0868 -0.1454 -0.2573
    1DIPC   GL1 3903   5.196   3.004   6.584 -0.3297 -0.1813 -0.0529
    1DIPC   GL2 3904   5.438   3.099   6.672  0.3061 -0.0950 -0.0382
    1DIPC   C1A 3905   5.100   3.142   6.219  0.0699  0.4284 -0.0954
    1DIPC   D2A 3906   5.052   3.437   5.880  0.0429  0.0448  0.2546
    1DIPC   D3A 3907   5.325   3.432   5.408 -0.1047  0.0770 -0.0534
    1DIPC   C4A 3908   5.091   3.376   5.085 -0.0551 -0.3142 -0.0479
    1DIPC   C1B 3909   5.544   3.460   6.446 -0.0064  0.2989  0.0572
    1DIPC   D2B 3910   5.821   3.889   6.525  0.1724  0.1361  0.2514
    1DIPC   D3B 3911   6.251   3.776   6.515 -0.3986 -0.1702  0.3174
    1DIPC   C4B 3912   6.487   3.800   6.052  0.0061 -0.0377 -0.1092
    1DIPC   NC3 3913  27.553   4.689   6.642  0.0074 -0.0200  0.0682
    1DIPC   PO4 3914  27.231   4.654   6.314  0.2440  0.0855 -0.0677
    1DIPC   GL1 3915  27.241   4.821   5.918 -0.0766 -0.0982  0.0406
    1DIPC   GL2 3916  26.969   5.030   5.732 -0.0189 -0.2916  0.1344
    1DIPC   C1A 3917  27.540   4.847   5.543  0.2709  0.1007  0.0402
    1DIPC   D2A 3918  27.430   4.791   5.107  0.1710  0.0212  0.0509
    1DIPC   D3A 3919  27.081   5.047   5.110  0.0119  0.0931  0.1989
    1DIPC   C4A 3920  27.115   5.287   4.717 -0.0517 -0.0636  0.0920
    1DIPC   C1B 3921  27.202   5.379   5.792 -0.3694 -0.2146  0.0057
    1DIPC   D2B 3922  27.271   5.856   5.598  0.0930  0.0440 -0.1244
    1DIPC   D3B 3923  27.313   5.982   5.176 -0.2263  0.0783 -0.0737
    1DIPC   C4B 3924  27.756   5.700   5.007  0.1998  0.0031 -0.0651
    1DIPC   NC3 3925   1.300  23.453   5.568 -0.0718  0.4438  0.1765
    1DIPC   PO4 3926   1.619  23.194   5.463 -0.2224 -0.0386 -0.0449
    1DIPC   GL1 3927   1.625  23.303   5.102  0.2310  0.3019  0.0525
    1DIPC   GL2 3928   1.957  23.323   4.950 -0.2238 -0.0974 -0.0590
    1DIPC   C1A 3929   1.454  23.059   4.825 -0.1275 -0.0592  0.3815
    1DIPC   D2A 3930   1.085  22.986   4.632  0.3449 -0.1786 -0.2405
    1DIPC   D3A 3931   0.937  22.559   4.540 -0.4006  0.2749 -0.1192
    1DIPC   C4A 3932   1.039  22.123   4.610 -0.0042 -0.0024 -0.1931
    1DIPC   C1B 3933   1.901  23.309   4.535  0.3594 -0.0288  0.2183
    1DIPC   D2B 3934   1.732  23.549   4.027 -0.2611  0.0023  0.1839
    1DIPC   D3B 3935   2.079  23.756   3.744  0.0637 -0.0651 -0.0319
    1DIPC   C4B 3936   2.403  23.839   3.710  0.0625  0.2241 -0.0066
    1DIPC   NC3 3937   9.090  21.731   6.610 -0.1445 -0.0114  0.2023
    1DIPC   PO4 3938   9.160  21.537   6.168 -0.2727  0.0415 -0.0780
    1DIPC   GL1 3939   9.202  21.467   5.660 -0.2471 -0.4206 -0.0856
    1DIPC   GL2 3940   9.011  21.604   5.383  0.0897  0.3647  0.0531
    1DIPC   C1A 3941   9.309  21.114   5.453 -0.4463  0.0796 -0.3194
    1DIPC   D2A 3942   9.144  20.888   5.237  0.1282 -0.3513 -0.1460
    1DIPC   D3A 3943   9.465  20.933   4.995 -0.2033  0.2873 -0.2074
    1DIPC   C4A 3944   9.323  20.655   4.566  0.3944 -0.4210  0.0100
    1DIPC   C1B 3945   9.300  21.468   5.070 -0.1743  0.2545 -0.1454
    1DIPC   D2B 3946   9.506  21.428   4.753 -0.1410  0.0019  0.1684
    1DIPC   D3B 3947   9.068  21.542   4.646 -0.1278 -0.0218  0.1284
    1DIPC   C4B 3948   8.975  21.896   5.024 -0.0929  0.1650 -0.1938
    1DIPC   NC3 3949   8.773   0.485   7.508 -0.0710  0.4563 -0.1299
    1DIPC   PO4 3950   9.067   0.655   7.280  0.6207  0.0544 -0.1467
    1DIPC   GL1 3951   8.928   0.634   6.842 -0.4834 -0.2081  0.2732
    1DIPC   GL2 3952   8.595   0.589   6.596 -0.0935 -0.1951 -0.3224
    1DIPC   C1A 3953   9.142   0.749   6.504 -0.1859 -0.2592 -0.2135
    1DIPC   D2A 3954   9.305   0.763   6.148  0.0207  0.0907  0.2758
    1DIPC   D3A 3955   9.648   0.885   6.397 -0.2448  0.1478  0.1535
    1DIPC   C4A 3956  10.066   1.096   6.253 -0.0346  0.1404  0.0487
    1DIPC   C1B 3957   8.291   0.778   6.395  0.2321 -0.2665 -0.0339
    1DIPC   D2B 3958   8.100   0.763   6.060 -0.2438 -0.0068  0.1813
    1DIPC   D3B 3959   8.139   0.446   5.725 -0.0971  0.0159  0.1745
    1DIPC   C4B 3960   8.457   0.421   5.377  0.2949  0.3008 -0.0849
    1DIPC   NC3 3961  12.027  28.497   7.159 -0.0368  0.0611  0.2560
    1DIPC   PO4 3962  12.195  28.877   7.097 -0.5276  0.4098 -0.0040
    1DIPC   GL1 3963  12.265  29.054   6.694  0.0073  0.1633  0.0683
    1DIPC   GL2 3964  12.463  29.370   6.602  0.2818 -0.0098 -0.0424
    1DIPC   C1A 3965  12.441  29.016   6.284  0.1085 -0.3492  0.1266
    1DIPC   D2A 3966  12.828  29.150   6.027 -0.0310 -0.2109 -0.2250
    1DIPC   D3A 3967  12.579  29.317   5.800 -0.1326  0.0454  0.2063
    1DIPC   C4A 3968  12.635  29.483   5.429  0.3370  0.0147 -0.1176
    1DIPC   C1B 3969  12.472  29.579   6.218  0.0156  0.0934 -0.1208
    1DIPC   D2B 3970  12.524  29.835   5.876  0.3529 -0.0655  0.2518
    1DIPC   D3B 3971  12.139  29.569   5.619  0.0810  0.3142 -0.1731
    1DIPC   C4B 3972  12.232  29.107   5.495  0.0604 -0.1764 -0.2307
    1DIPC   NC3 3973   9.657   7.021   7.205 -0.2599 -0.1975  0.0248
    1DIPC   PO4 3974   9.799   7.432   7.189 -0.2799  0.0410  0.2734
    1DIPC   GL1 3975  10.033   7.470   6.887 -0.3437  0.0078  0.1991
    1DIPC   GL2 3976  10.166   7.216   6.650 -0.1177 -0.1564  0.5648
    1DIPC   C1A 3977   9.845   7.585   6.485 -0.0493 -0.3701 -0.1856
    1DIPC   D2A 3978   9.545   7.883   6.434  0.0857  0.0099  0.1592
    1DIPC   D3A 3979   9.632   8.235   6.795  0.1809  0.0019 -0.1346
    1DIPC   C4A 3980   9.943   8.565   6.655 -0.1352  0.0961 -0.1355
    1DIPC   C1B 3981  10.069   7.136   6.232 -0.0066  0.2337  0.2122
    1DIPC   D2B 3982   9.731   7.234   5.899  0.1209  0.2349 -0.1260
    1DIPC   D3B 3983   9.770   7.654   5.987  0.2036 -0.2164  0.2802
    1DIPC   C4B 3984  10.128   7.897   6.054 -0.2484  0.3576  0.0420
    1DIPC   NC3 3985  27.234   2.937   6.541 -0.1757  0.0356 -0.0859
    1DIPC   PO4 3986  26.834   3.026   6.424 -0.2651 -0.2272  0.1404
    1DIPC   GL1 3987  26.758   2.846   6.031  0.1270  0.0679 -0.0932
    1DIPC   GL2 3988  27.022   2.589   5.896 -0.1347  0.0351  0.0022
    1DIPC   C1A 3989  26.873   2.970   5.570 -0.0525 -0.0727 -0.2404
    1DIPC   D2A 3990  26.674   3.167   5.203 -0.0934 -0.2977  0.1510
    1DIPC   D3A 3991  26.582   2.806   4.873  0.0263  0.2525 -0.0719
    1DIPC   C4A 3992  26.221   2.563   4.998  0.1180  0.1229  0.4628
    1DIPC   C1B 3993  27.418   2.471   5.952  0.2004 -0.4030  0.0710
    1DIPC   D2B 3994  27.763   2.183   6.034 -0.0028  0.0122  0.0606
    1DIPC   D3B 3995  27.603   2.163   5.509  0.2696 -0.2228  0.0604
    1DIPC   C4B 3996  27.881   2.074   5.194  0.0024 -0.1356  0.5114
    1DIPC   NC3 3997  18.826  24.029   7.255 -0.0762  0.1855  0.1608
    1DIPC   PO4 3998  19.039  24.375   6.999 -0.2278  0.3877  0.1248
    1DIPC   GL1 3999  19.343  24.113   6.760  0.1684  0.0849 -0.2582
    1DIPC   GL2 4000  19.346  23.961   7.062 -0.1258  0.0709  0.0344
    1DIPC   C1A 4001  19.503  23.987   6.377 -0.0979 -0.1283 -0.0820
    1DIPC   D2A 4002  19.672  23.633   6.032  0.3601 -0.0510  0.0513
    1DIPC   D3A 4003  19.786  23.830   5.693 -0.1416 -0.1141 -0.2480
    1DIPC   C4A 4004  19.506  23.820   5.392  0.0047  0.2560  0.0708
    1DIPC   C1B 4005  19.273  23.605   6.679 -0.1185 -0.1594 -0.0244
    1DIPC   D2B 4006  18.930  23.422   6.585 -0.1238  0.2455 -0.1931
    1DIPC   D3B 4007  18.839  23.822   6.602  0.1172 -0.2724  0.1930
    1DIPC   C4B 4008  18.502  23.907   6.275  0.0509 -0.1035 -0.1852
    1DIPC   NC3 4009   6.369  19.056   5.915  0.0190  0.0628  0.0785
    1DIPC   PO4 4010   6.572  18.577   5.983  0.0384 -0.1437 -0.2968
    1DIPC   GL1 4011   6.779  18.542   5.516 -0.0088  0.2805 -0.2709
    1DIPC   GL2 4012   6.540  18.585   5.320  0.0494 -0.0578  0.1096
    1DIPC   C1A 4013   7.083  18.789   5.272  0.0978 -0.0143  0.2938
    1DIPC   D2A 4014   7.160  18.999   4.978  0.1710  0.1605  0.3891
    1DIPC   D3A 4015   7.302  18.729   4.615  0.1716  0.2836 -0.1538
    1DIPC   C4A 4016   7.642  18.591   4.405  0.0331  0.1701 -0.0926
    1DIPC   C1B 4017   6.800  18.676   4.831  0.1042  0.0036 -0.4057
    1DIPC   D2B 4018   6.912  18.810   4.345  0.3593  0.1524  0.0219
    1DIPC   D3B 4019   7.139  19.172   4.509  0.1118 -0.1731 -0.0842
    1DIPC   C4B 4020   7.488  19.447   4.350 -0.2796  0.1262 -0.0903
    1DIPC   NC3 4021  17.683   2.243   6.435 -0.1363  0.1358 -0.0573
    1DIPC   PO4 4022  17.706   2.690   6.250  0.1699 -0.1607  0.0394
    1DIPC   GL1 4023  17.400   2.586   5.867  0.0702 -0.1000  0.2350
    1DIPC   GL2 4024  17.026   2.562   5.834  0.2817  0.3205  0.2109
    1DIPC   C1A 4025  17.466   2.657   5.397  0.1976  0.2561 -0.0488
    1DIPC   D2A 4026  17.572   2.509   5.015 -0.2489 -0.2141  0.2015
    1DIPC   D3A 4027  17.572   2.088   4.977 -0.1792 -0.0600 -0.1181
    1DIPC   C4A 4028  17.595   1.541   4.843 -0.2196  0.0858  0.6672
    1DIPC   C1B 4029  16.733   2.341   5.507  0.0014 -0.1719 -0.0897
    1DIPC   D2B 4030  16.741   2.164   5.034 -0.0569  0.0953 -0.2198
    1DIPC   D3B 4031  17.033   2.517   5.147 -0.0327 -0.0760 -0.1642
    1DIPC   C4B 4032  16.888   2.865   5.476  0.2068  0.0039 -0.0487
    1DIPC   NC3 4033  23.746   9.194   6.733  0.1187  0.0661  0.1950
    1DIPC   PO4 4034  23.987   9.564   6.617  0.1970 -0.5201 -0.1032
    1DIPC   GL1 4035  23.995   9.336   6.261  0.0809  0.0539 -0.1057
    1DIPC   GL2 4036  23.894   9.079   6.193 -0.1372  0.0399 -0.3534
    1DIPC   C1A 4037  24.114   9.510   5.870  0.2617 -0.1023 -0.0185
    1DIPC   D2A 4038  24.118   9.365   5.374  0.3534 -0.1890  0.0347
    1DIPC   D3A 4039  24.282   9.505   4.982 -0.2456  0.3383  0.2482
    1DIPC   C4A 4040  24.597   9.570   4.627 -0.0090 -0.0360 -0.1834
    1DIPC   C1B 4041  23.796   8.971   5.828  0.0796 -0.0277  0.0534
    1DIPC   D2B 4042  23.650   8.953   5.439 -0.3072  0.2395 -0.0449
    1DIPC   D3B 4043  24.008   8.805   5.225  0.1137 -0.0363  0.0343
    1DIPC   C4B 4044  24.410   8.645   5.133  0.1669 -0.0999 -0.0947
    1DIPC   NC3 4045  28.253   8.121   6.165  0.3939  0.1062  0.1063
    1DIPC   PO4 4046  27.783   8.131   6.002  0.2597  0.0297 -0.0272
    1DIPC   GL1 4047  28.031   8.282   5.695  0.2679 -0.2762  0.1654
    1DIPC   GL2 4048  28.289   8.348   5.682  0.1067 -0.2232 -0.0666
    1DIPC   C1A 4049  27.956   8.296   5.233 -0.1412  0.0482 -0.2872
    1DIPC   D2A 4050  27.675   8.137   4.933 -0.2935  0.0903 -0.0083
    1DIPC   D3A 4051  27.394   7.749   4.781 -0.1562 -0.1455  0.0216
    1DIPC   C4A 4052  27.494   7.296   4.617  0.2936  0.0194  0.1025
    1DIPC   C1B 4053  28.439   8.542   5.270 -0.0724 -0.2172  0.2228
    1DIPC   D2B 4054  28.612   8.715   4.843  0.2782  0.2767  0.0603
    1DIPC   D3B 4055  28.771   8.316   4.904  0.0614  0.0819 -0.0142
    1DIPC   C4B 4056  28.933   8.071   4.600 -0.0120  0.0729  0.1378
    1DIPC   NC3 4057  29.734  20.411   6.543  0.1360  0.0261 -0.1886
    1DIPC   PO4 4058  29.470  20.413   6.223 -0.1620 -0.0843 -0.2770
    1DIPC   GL1 4059  29.724  20.545   5.875 -0.1722  0.2393  0.0138
    1DIPC   GL2 4060  29.902  20.833   5.856  0.0617 -0.0020 -0.1581
    1DIPC   C1A 4061  29.876  20.332   5.455  0.0614  0.3524 -0.2933
    1DIPC   D2A 4062  30.072  20.433   4.995 -0.5623  0.0759  0.0465
    1DIPC   D3A 4063  29.966  20.105   4.674 -0.0812 -0.0069  0.0722
    1DIPC   C4A 4064  30.206  20.157   4.287 -0.0332 -0.0884 -0.4076
    1DIPC   C1B 4065  29.674  20.782   5.426  0.0944 -0.0613  0.0626
    1DIPC   D2B 4066  29.757  20.824   5.058  0.0152 -0.0278 -0.0751
    1DIPC   D3B 4067  29.448  20.882   4.842  0.2854  0.0001 -0.0972
    1DIPC   C4B 4068  29.042  20.662   4.771 -0.0319 -0.2469 -0.3453
    1DIPC   NC3 4069  11.147   3.226   7.998 -0.4052 -0.0311 -0.0107
    1DIPC   PO4 4070  11.111   3.371   7.478 -0.3857 -0.2933  0.0118
    1DIPC   GL1 4071  11.075   3.480   7.034 -0.1231  0.0453 -0.0112
    1DIPC   GL2 4072  10.841   3.698   6.982  0.1448 -0.2856  0.2606
    1DIPC   C1A 4073  11.150   3.413   6.601  0.2332 -0.0141  0.1899
    1DIPC   D2A 4074  11.202   3.403   6.153 -0.1143  0.1624  0.2109
    1DIPC   D3A 4075  11.530   3.128   6.130  0.1984 -0.0956  0.0317
    1DIPC   C4A 4076  11.946   3.369   6.156  0.0757 -0.0236  0.1794
    1DIPC   C1B 4077  11.217   3.859   6.763 -0.1097  0.0722 -0.1802
    1DIPC   D2B 4078  11.557   4.048   6.504  0.1612 -0.0574 -0.1945
    1DIPC   D3B 4079  11.687   3.945   6.081 -0.0801 -0.0913 -0.1317
    1DIPC   C4B 4080  11.505   4.382   5.844  0.0510 -0.0104 -0.0913
    1DIPC   NC3 4081   7.302   2.830   7.084 -0.1437 -0.0403  0.2691
    1DIPC   PO4 4082   7.567   3.122   7.360 -0.1829 -0.2122 -0.2171
    1DIPC   GL1 4083   7.935   3.029   6.994  0.1721 -0.0299  0.0800
    1DIPC   GL2 4084   7.956   2.700   6.901  0.2403  0.1064  0.1384
    1DIPC   C1A 4085   8.303   2.946   6.699  0.0377 -0.3951  0.1641
    1DIPC   D2A 4086   8.357   2.948   6.218 -0.2269  0.0113 -0.0397
    1DIPC   D3A 4087   7.831   3.190   6.050  0.2157 -0.1840 -0.0799
    1DIPC   C4A 4088   7.617   3.150   5.758  0.2399 -0.0319  0.3551
    1DIPC   C1B 4089   7.747   2.663   6.463 -0.0229  0.0173 -0.1864
    1DIPC   D2B 4090   7.414   2.807   6.045 -0.1789  0.0137  0.0080
    1DIPC   D3B 4091   7.783   2.711   5.747  0.4561  0.2347 -0.1812
    1DIPC   C4B 4092   7.799   2.398   5.475 -0.2402 -0.3123  0.0786
    1DIPC   NC3 4093  13.410   7.982   6.676 -0.0097  0.0368  0.1975
    1DIPC   PO4 4094  13.081   7.817   6.949 -0.1129 -0.3017 -0.3859
    1DIPC   GL1 4095  13.133   7.598   6.558 -0.4190 -0.1008 -0.0423
    1DIPC   GL2 4096  12.902   7.268   6.425  0.2946  0.2490 -0.2904
    1DIPC   C1A 4097  12.916   7.651   6.110  0.2833  0.1722  0.0169
    1DIPC   D2A 4098  12.969   7.543   5.699 -0.0701 -0.2524 -0.3016
    1DIPC   D3A 4099  13.205   7.671   5.431 -0.1651  0.3693  0.3160
    1DIPC   C4A 4100  12.915   7.834   5.149 -0.2605 -0.1032 -0.0822
    1DIPC   C1B 4101  13.202   7.267   6.163 -0.0114  0.2371 -0.0035
    1DIPC   D2B 4102  13.273   7.206   5.678  0.0760  0.3919 -0.0101
    1DIPC   D3B 4103  13.467   6.852   5.650 -0.2129 -0.1821  0.3973
    1DIPC   C4B 4104  13.561   6.798   5.211 -0.2815  0.0677  0.1008
    1DIPC   NC3 4105  15.342  29.015   7.200 -0.0813  0.0266  0.1684
    1DIPC   PO4 4106  15.115  28.910   6.874  0.1907 -0.2643  0.0579
    1DIPC   GL1 4107  15.279  28.827   6.477  0.0254 -0.0184  0.0438
    1DIPC   GL2 4108  15.196  28.515   6.451  0.0211  0.0343  0.0465
    1DIPC   C1A 4109  15.634  28.791   6.177  0.0889  0.4408  0.2410
    1DIPC   D2A 4110  16.003  28.620   6.130 -0.4550 -0.2061  0.4405
    1DIPC   D3A 4111  15.917  28.896   5.722  0.1334  0.1040  0.1003
    1DIPC   C4A 4112  16.135  28.559   5.469  0.0681 -0.1603  0.1714
    1DIPC   C1B 4113  15.145  28.744   6.000 -0.3915  0.3728 -0.1823
    1DIPC   D2B 4114  15.087  28.907   5.640  0.1754 -0.0931  0.3238
    1DIPC   D3B 4115  14.663  29.019   5.656  0.0889 -0.1000  0.2792
    1DIPC   C4B 4116  14.474  29.421   5.385  0.2510  0.1031 -0.1942
    1DIPC   NC3 4117   2.911  19.763   6.492 -0.0679 -0.2293 -0.0303
    1DIPC   PO4 4118   3.004  19.692   6.053 -0.0110 -0.2872  0.1550
    1DIPC   GL1 4119   3.023  20.109   5.927  0.3138  0.1948 -0.2979
    1DIPC   GL2 4120   2.656  20.148   5.803 -0.3339  0.0721  0.0765
    1DIPC   C1A 4121   3.351  20.393   5.793  0.3260 -0.1202 -0.0140
    1DIPC   D2A 4122   3.497  20.712   5.557  0.1976 -0.0851  0.2573
    1DIPC   D3A 4123   3.835  20.448   5.558  0.0255 -0.0335 -0.1178
    1DIPC   C4A 4124   3.793  20.387   5.235 -0.1575  0.2385  0.0418
    1DIPC   C1B 4125   2.883  20.084   5.462 -0.0167  0.3107  0.0379
    1DIPC   D2B 4126   3.246  19.918   5.506 -0.1051 -0.0830 -0.0337
    1DIPC   D3B 4127   3.112  19.608   5.478  0.2119  0.1632 -0.0456
    1DIPC   C4B 4128   2.967  19.204   5.331  0.0964  0.0448  0.0286
    1DIPC   NC3 4129  12.744   6.223   7.126  0.2824  0.1260 -0.1357
    1DIPC   PO4 4130  13.045   5.957   7.231  0.1293 -0.1520  0.3403
    1DIPC   GL1 4131  13.046   5.709   6.962 -0.0979 -0.0841  0.0922
    1DIPC   GL2 4132  13.249   5.524   6.952 -0.0449 -0.3153 -0.0038
    1DIPC   C1A 4133  12.815   5.543   6.615  0.1177 -0.2068 -0.0547
    1DIPC   D2A 4134  12.579   5.031   6.645 -0.2112  0.1919  0.1153
    1DIPC   D3A 4135  13.025   4.899   6.510 -0.0691 -0.0735  0.2258
    1DIPC   C4A 4136  13.436   5.035   6.285  0.1218  0.1077 -0.0441
    1DIPC   C1B 4137  13.303   5.435   6.495 -0.0931 -0.1136  0.1074
    1DIPC   D2B 4138  13.387   5.551   6.105  0.0362 -0.0202  0.1267
    1DIPC   D3B 4139  13.032   5.304   6.099  0.1850 -0.2686  0.2972
    1DIPC   C4B 4140  12.686   5.452   6.166  0.0012 -0.4419  0.0275
    1DIPC   NC3 4141  26.529  17.128   6.363  0.0644  0.1939 -0.2215
    1DIPC   PO4 4142  26.833  16.783   6.155  0.0784 -0.0464  0.3325
    1DIPC   GL1 4143  26.566  17.024   5.828 -0.1785 -0.1315 -0.1687
    1DIPC   GL2 4144  26.411  17.266   5.845 -0.4006 -0.2226 -0.2824
    1DIPC   C1A 4145  26.420  17.109   5.398  0.2866 -0.2686  0.1288
    1DIPC   D2A 4146  26.447  17.481   5.116 -0.0488  0.2119  0.1491
    1DIPC   D3A 4147  26.710  17.766   4.937  0.1492  0.1463 -0.0176
    1DIPC   C4A 4148  27.103  17.523   4.906  0.2444  0.1644 -0.3648
    1DIPC   C1B 4149  26.413  17.699   5.643 -0.1102  0.2976  0.0481
    1DIPC   D2B 4150  26.702  18.093   5.783  0.1390 -0.2692 -0.0235
    1DIPC   D3B 4151  26.631  18.041   5.359  0.2295  0.4699 -0.1213
    1DIPC   C4B 4152  26.711  18.335   4.997 -0.1065  0.0983  0.3179
    1DIPC   NC3 4153  29.570   2.810   6.571  0.1027 -0.0059  0.0468
    1DIPC   PO4 4154  29.147   2.741   6.482  0.2588 -0.0898 -0.0184
    1DIPC   GL1 4155  29.324   2.714   6.126 -0.3836  0.0939  0.1680
    1DIPC   GL2 4156  29.227   3.020   6.002 -0.1266 -0.3414  0.0122
    1DIPC   C1A 4157  29.321   2.585   5.748 -0.1463  0.0248  0.1962
    1DIPC   D2A 4158  29.270   2.211   5.467  0.0022  0.0499  0.2523
    1DIPC   D3A 4159  29.715   2.321   5.275  0.0054  0.0262  0.0344
    1DIPC   C4A 4160  29.737   2.364   4.881  0.1712  0.1065 -0.0660
    1DIPC   C1B 4161  29.125   2.917   5.507 -0.1165 -0.0505 -0.0633
    1DIPC   D2B 4162  29.225   2.750   5.162 -0.0272 -0.2490  0.4436
    1DIPC   D3B 4163  29.041   2.495   5.031  0.0671 -0.0149  0.1021
    1DIPC   C4B 4164  29.239   2.191   4.859 -0.1436  0.1926  0.3109
    1DIPC   NC3 4165  10.113  25.791   6.298 -0.1967 -0.2682 -0.1331
    1DIPC   PO4 4166  10.531  25.507   6.186 -0.1084 -0.1328  0.2058
    1DIPC   GL1 4167  10.482  25.790   5.796 -0.0115 -0.1596  0.0428
    1DIPC   GL2 4168  10.353  26.059   5.926  0.0560  0.1631  0.0890
    1DIPC   C1A 4169  10.558  26.079   5.399  0.0976 -0.1139 -0.1393
    1DIPC   D2A 4170  10.540  26.538   5.301 -0.1128  0.3224  0.0900
    1DIPC   D3A 4171  10.497  26.409   4.917  0.1213 -0.1230 -0.1711
    1DIPC   C4A 4172  10.585  26.049   4.813 -0.0983 -0.4356 -0.2282
    1DIPC   C1B 4173  10.111  26.272   5.590  0.0178 -0.1184 -0.2550
    1DIPC   D2B 4174  10.020  26.554   5.285  0.0571 -0.2107  0.0776
    1DIPC   D3B 4175   9.588  26.751   5.352 -0.1290  0.0894 -0.2509
    1DIPC   C4B 4176   9.299  26.500   4.962  0.1388 -0.0058  0.0536
    1DIPC   NC3 4177   3.582  29.194   6.113 -0.2361 -0.2604  0.0497
    1DIPC   PO4 4178   3.686  28.703   6.180  0.1065 -0.1123  0.0281
    1DIPC   GL1 4179   3.967  28.470   5.930 -0.1475  0.3018  0.3408
    1DIPC   GL2 4180   3.597  28.420   5.690 -0.0337  0.0373 -0.2503
    1DIPC   C1A 4181   4.072  28.322   5.601 -0.0552 -0.0940  0.0821
    1DIPC   D2A 4182   4.097  27.908   5.255  0.4115  0.0057  0.0626
    1DIPC   D3A 4183   3.663  28.020   5.165  0.1311 -0.4207  0.0860
    1DIPC   C4A 4184   3.617  28.256   4.894  0.0003 -0.1015 -0.0595
    1DIPC   C1B 4185   3.747  28.543   5.300 -0.1787 -0.1794  0.1035
    1DIPC   D2B 4186   4.077  28.341   5.063 -0.1455  0.5072  0.2142
    1DIPC   D3B 4187   4.043  28.029   4.765 -0.2037 -0.0684  0.2029
    1DIPC   C4B 4188   4.317  27.781   4.665  0.0015  0.1592 -0.2754
    1DIPC   NC3 4189   5.590  21.722   5.497 -0.1316  0.1469  0.0569
    1DIPC   PO4 4190   5.197  21.613   5.424 -0.0045  0.0779 -0.1329
    1DIPC   GL1 4191   4.889  21.348   5.258  0.2199  0.0053 -0.2305
    1DIPC   GL2 4192   5.055  21.069   5.282 -0.0671 -0.0831 -0.2421
    1DIPC   C1A 4193   4.719  21.129   4.969  0.1798  0.7119 -0.2499
    1DIPC   D2A 4194   4.784  20.967   4.549  0.1645 -0.1369 -0.3849
    1DIPC   D3A 4195   4.560  20.557   4.393 -0.4216 -0.1888 -0.2328
    1DIPC   C4A 4196   4.335  20.582   3.969  0.2619  0.0217  0.3267
    1DIPC   C1B 4197   5.206  20.904   4.841 -0.0929  0.4116  0.0799
    1DIPC   D2B 4198   5.535  21.034   4.555  0.1687 -0.1865  0.1570
    1DIPC   D3B 4199   5.641  21.348   4.282  0.1261  0.3414 -0.0272
    1DIPC   C4B 4200   5.630  21.121   3.939 -0.3424  0.1067  0.2587
    1DIPC   NC3 4201   8.293  16.387   6.221  0.0087  0.0181 -0.2359
    1DIPC   PO4 4202   8.789  16.494   6.302 -0.1663 -0.0126 -0.0978
    1DIPC   GL1 4203   8.771  16.644   5.954 -0.0721  0.1850  0.1857
    1DIPC   GL2 4204   8.397  16.616   5.713 -0.0759 -0.1557  0.0523
    1DIPC   C1A 4205   8.864  16.632   5.463  0.3329 -0.1170 -0.0230
    1DIPC   D2A 4206   8.744  16.494   5.076 -0.0934  0.0136 -0.1753
    1DIPC   D3A 4207   8.620  16.580   4.749  0.1952 -0.0129 -0.1052
    1DIPC   C4A 4208   8.677  16.146   4.539 -0.1026 -0.0809  0.1339
    1DIPC   C1B 4209   8.331  16.738   5.401  0.1386  0.1954 -0.5388
    1DIPC   D2B 4210   8.247  16.566   5.097  0.1376  0.0936 -0.1810
    1DIPC   D3B 4211   8.357  16.157   4.930 -0.0346 -0.2836 -0.1071
    1DIPC   C4B 4212   8.212  16.025   4.536 -0.0493  0.2519  0.2565
    1DIPC   NC3 4213  26.732   8.918   6.363 -0.2152  0.3991 -0.0885
    1DIPC   PO4 4214  26.569   8.750   6.064  0.0703 -0.0977 -0.1463
    1DIPC   GL1 4215  26.619   8.637   5.670 -0.0587 -0.1947 -0.2092
    1DIPC   GL2 4216  26.280   8.829   5.574 -0.2685  0.0184  0.0352
    1DIPC   C1A 4217  26.734   8.451   5.259 -0.4895  0.2595 -0.1271
    1DIPC   D2A 4218  26.598   8.038   5.116 -0.2674 -0.1752  0.0723
    1DIPC   D3A 4219  26.645   8.369   4.746  0.2515  0.1606  0.0993
    1DIPC   C4A 4220  26.701   8.260   4.216  0.0048  0.1016  0.0508
    1DIPC   C1B 4221  26.405   8.804   5.189 -0.0698 -0.0854  0.1755
    1DIPC   D2B 4222  26.076   8.950   4.848  0.1161 -0.2699 -0.1771
    1DIPC   D3B 4223  25.975   9.381   4.825  0.0052  0.1142  0.4381
    1DIPC   C4B 4224  25.616   9.602   4.740 -0.2744  0.0688 -0.2790
    1DIPC   NC3 4225  26.555   9.323   5.951 -0.1127  0.1833  0.2318
    1DIPC   PO4 4226  26.371   9.595   6.263 -0.2922 -0.1793 -0.3268
    1DIPC   GL1 4227  26.351  10.021   6.000 -0.1304 -0.0663 -0.0528
    1DIPC   GL2 4228  26.477   9.783   5.690 -0.1450 -0.0226  0.1074
    1DIPC   C1A 4229  25.992  10.080   5.795  0.1040  0.0983 -0.2389
    1DIPC   D2A 4230  25.685   9.860   5.662 -0.1186  0.0444  0.2494
    1DIPC   D3A 4231  25.251  10.028   5.596  0.0361 -0.3160 -0.2232
    1DIPC   C4A 4232  24.867   9.837   5.903  0.2802 -0.2719 -0.0693
    1DIPC   C1B 4233  26.500   9.694   5.277 -0.1775  0.1168  0.1463
    1DIPC   D2B 4234  26.795   9.637   4.982 -0.1121  0.2292 -0.2936
    1DIPC   D3B 4235  27.107   9.306   4.945  0.2000 -0.1679 -0.0731
    1DIPC   C4B 4236  27.366   8.999   5.195  0.0532 -0.1522  0.1399
    1DIPC   NC3 4237  24.275   4.291   7.249  0.0492  0.1176  0.2217
    1DIPC   PO4 4238  24.310   4.089   6.943 -0.0121 -0.0494 -0.5323
    1DIPC   GL1 4239  24.432   4.056   6.529  0.4135  0.1723  0.2298
    1DIPC   GL2 4240  24.691   3.886   6.561  0.1358  0.0806 -0.1648
    1DIPC   C1A 4241  24.550   4.183   6.237  0.0776 -0.1948  0.0215
    1DIPC   D2A 4242  24.749   4.301   5.849  0.2159  0.1015  0.1873
    1DIPC   D3A 4243  25.036   4.087   6.126  0.1918 -0.0165  0.1829
    1DIPC   C4A 4244  25.080   3.610   6.200  0.1962  0.3385  0.0107
    1DIPC   C1B 4245  24.563   3.668   6.080 -0.0982  0.0724 -0.1873
    1DIPC   D2B 4246  24.492   3.259   5.972  0.1886 -0.1086  0.0015
    1DIPC   D3B 4247  24.279   3.502   5.631 -0.3349  0.1443  0.2825
    1DIPC   C4B 4248  24.016   3.301   5.166 -0.0558  0.0387 -0.1570
    1DIPC   NC3 4249  26.597  22.174   6.204  0.1983  0.1889  0.0622
    1DIPC   PO4 4250  26.754  22.534   6.340 -0.2922  0.0644  0.1087
    1DIPC   GL1 4251  26.762  22.503   5.817 -0.1167 -0.0685 -0.0088
    1DIPC   GL2 4252  27.035  22.268   5.826  0.0280 -0.1797  0.0020
    1DIPC   C1A 4253  26.868  22.251   5.340  0.1136 -0.2613  0.1434
    1DIPC   D2A 4254  26.917  21.936   5.140  0.1611 -0.0274 -0.1220
    1DIPC   D3A 4255  26.899  21.470   5.135  0.2643  0.0617  0.0541
    1DIPC   C4A 4256  26.852  21.300   4.712 -0.1863  0.2243  0.1477
    1DIPC   C1B 4257  27.327  22.193   5.447  0.1840  0.2047 -0.2953
    1DIPC   D2B 4258  27.715  22.103   5.359  0.1509  0.1260 -0.1969
    1DIPC   D3B 4259  28.062  22.435   5.496 -0.0071  0.0852 -0.0533
    1DIPC   C4B 4260  28.003  22.799   5.320  0.1061 -0.3167 -0.0478
    1DIPC   NC3 4261  22.154  28.566   6.941 -0.0380 -0.0675 -0.0901
    1DIPC   PO4 4262  22.613  28.370   6.701  0.1800 -0.1818 -0.0186
    1DIPC   GL1 4263  22.349  28.608   6.324 -0.1066 -0.0419  0.3048
    1DIPC   GL2 4264  22.091  28.534   6.398 -0.0491 -0.0674 -0.0573
    1DIPC   C1A 4265  22.270  28.787   5.961  0.1132  0.0382  0.2171
    1DIPC   D2A 4266  21.838  28.965   5.584 -0.2004 -0.2892  0.0821
    1DIPC   D3A 4267  21.695  29.386   5.414 -0.1865 -0.0456  0.0202
    1DIPC   C4A 4268  21.889  29.797   5.361 -0.0275 -0.2573 -0.0066
    1DIPC   C1B 4269  21.837  28.901   6.158  0.1586 -0.1412 -0.0616
    1DIPC   D2B 4270  21.461  29.136   5.999  0.0630  0.0632 -0.3247
    1DIPC   D3B 4271  21.345  29.039   5.585 -0.0184 -0.2911  0.0994
    1DIPC   C4B 4272  21.204  29.428   5.376  0.2973  0.1424 -0.0771
    1DIPC   NC3 4273  22.180  23.317   6.483  0.0575  0.1150  0.1804
    1DIPC   PO4 4274  21.741  23.604   6.572  0.2783 -0.0632 -0.0371
    1DIPC   GL1 4275  21.574  23.469   6.162 -0.1026  0.4860 -0.5010
    1DIPC   GL2 4276  21.887  23.330   5.993  0.1495 -0.3360  0.1619
    1DIPC   C1A 4277  21.321  23.231   5.807  0.1658 -0.0281 -0.1233
    1DIPC   D2A 4278  21.360  23.114   5.360 -0.1605  0.0542 -0.5177
    1DIPC   D3A 4279  21.080  22.817   5.060 -0.2620 -0.1754  0.0336
    1DIPC   C4A 4280  20.932  23.073   4.838 -0.0568  0.1697 -0.0277
    1DIPC   C1B 4281  21.800  23.249   5.544  0.0516  0.3684  0.4075
    1DIPC   D2B 4282  21.668  23.576   5.221 -0.2632 -0.1028 -0.2255
    1DIPC   D3B 4283  21.636  23.849   4.884 -0.0164 -0.0469  0.0930
    1DIPC   C4B 4284  21.378  24.277   4.939  0.0909  0.3561 -0.0508
    1DIPC   NC3 4285  10.675   0.879   6.715  0.0438 -0.1014 -0.0848
    1DIPC   PO4 4286  11.086   1.005   6.898  0.1009  0.1235 -0.0090
    1DIPC   GL1 4287  11.168   0.994   6.491 -0.1172 -0.0271 -0.0845
    1DIPC   GL2 4288  10.849   1.134   6.316  0.0003  0.0822 -0.1401
    1DIPC   C1A 4289  11.431   1.175   6.240 -0.2008 -0.2986  0.0087
    1DIPC   D2A 4290  11.442   1.388   5.908 -0.2285  0.1467 -0.1864
    1DIPC   D3A 4291  11.796   1.345   5.579 -0.0070 -0.2582 -0.1177
    1DIPC   C4A 4292  12.051   1.757   5.519 -0.0696  0.1163  0.1775
    1DIPC   C1B 4293  10.792   1.249   5.844  0.0228  0.2680  0.0926
    1DIPC   D2B 4294  10.825   1.505   5.524  0.4403 -0.1462 -0.0387
    1DIPC   D3B 4295  11.054   1.097   5.457  0.1562  0.1402 -0.1048
    1DIPC   C4B 4296  11.475   1.108   5.270  0.1788 -0.0083 -0.0355
    1DIPC   NC3 4297  25.990  28.749   6.863  0.0514  0.0313 -0.0653
    1DIPC   PO4 4298  25.646  28.895   7.065  0.0206  0.3085 -0.0268
    1DIPC   GL1 4299  25.530  28.988   6.648  0.0224  0.4194 -0.0318
    1DIPC   GL2 4300  25.736  28.824   6.370 -0.0252  0.0351 -0.1916
    1DIPC   C1A 4301  25.060  29.100   6.455  0.4452  0.1630 -0.0374
    1DIPC   D2A 4302  24.580  29.126   6.414 -0.3844 -0.4030 -0.1307
    1DIPC   D3A 4303  24.727  28.819   6.200 -0.1114 -0.0109 -0.1523
    1DIPC   C4A 4304  24.935  28.579   6.580 -0.0137 -0.0907 -0.1041
    1DIPC   C1B 4305  25.497  29.120   6.128 -0.3460  0.2417  0.4586
    1DIPC   D2B 4306  25.499  29.219   5.650  0.3199  0.2502  0.1389
    1DIPC   D3B 4307  25.181  28.910   5.370 -0.1031  0.1612 -0.3478
    1DIPC   C4B 4308  25.264  28.679   4.953  0.0543 -0.0648 -0.1900
    1DIPC   NC3 4309   3.758   1.159   6.601  0.0919 -0.2048  0.1946
    1DIPC   PO4 4310   4.188   1.235   6.737  0.1218  0.1433  0.1470
    1DIPC   GL1 4311   4.510   1.158   6.506  0.1273  0.1434 -0.2002
    1DIPC   GL2 4312   4.634   0.885   6.456  0.0066 -0.1183  0.0584
    1DIPC   C1A 4313   4.535   1.241   6.066  0.0520  0.2934 -0.4544
    1DIPC   D2A 4314   4.943   1.314   5.860 -0.1953 -0.1780 -0.1380
    1DIPC   D3A 4315   5.283   1.599   5.710 -0.2011  0.0058  0.1355
    1DIPC   C4A 4316   5.653   1.710   5.395 -0.0662 -0.0439  0.1249
    1DIPC   C1B 4317   4.806   0.830   6.076 -0.0871 -0.0260  0.3152
    1DIPC   D2B 4318   4.516   0.793   5.707 -0.1195  0.2522 -0.0139
    1DIPC   D3B 4319   4.285   0.977   5.371 -0.0708 -0.0514  0.0985
    1DIPC   C4B 4320   4.185   0.835   5.012 -0.2679 -0.0772 -0.4060
    1DIPC   NC3 4321  29.285  27.334   6.849 -0.2076  0.1419  0.0109
    1DIPC   PO4 4322  28.977  27.228   6.463  0.1159  0.3183  0.0518
    1DIPC   GL1 4323  28.986  27.441   6.123  0.0030  0.1401 -0.2491
    1DIPC   GL2 4324  29.047  27.211   5.842 -0.6066 -0.0754  0.2160
    1DIPC   C1A 4325  29.227  27.661   5.943 -0.0269  0.0292 -0.0739
    1DIPC   D2A 4326  29.370  27.684   5.587 -0.2199  0.1391 -0.0842
    1DIPC   D3A 4327  29.111  27.438   5.291  0.0130  0.0567 -0.4504
    1DIPC   C4A 4328  29.311  27.245   4.904 -0.0912  0.0736 -0.1661
    1DIPC   C1B 4329  28.797  27.570   5.663  0.0011  0.0811 -0.3346
    1DIPC   D2B 4330  28.508  27.594   5.302  0.3738  0.1516 -0.2456
    1DIPC   D3B 4331  28.169  27.854   5.323 -0.0237  0.2893  0.2208
    1DIPC   C4B 4332  27.715  27.789   5.284  0.1443 -0.2002 -0.1751
    1DIPC   NC3 4333  14.667  25.963   6.814 -0.1334  0.1108 -0.3342
    1DIPC   PO4 4334  14.434  25.594   6.778 -0.1042  0.2502 -0.2579
    1DIPC   GL1 4335  14.512  25.572   6.425  0.3034 -0.2196 -0.0405
    1DIPC   GL2 4336  14.342  25.898   6.400 -0.0166 -0.0736  0.2989
    1DIPC   C1A 4337  14.881  25.435   6.235  0.0394  0.0927  0.0409
    1DIPC   D2A 4338  15.151  25.079   5.922  0.1709  0.2194 -0.2874
    1DIPC   D3A 4339  15.618  25.195   5.855 -0.0536 -0.0738  0.2057
    1DIPC   C4A 4340  15.927  24.897   5.905  0.0692  0.1215  0.0708
    1DIPC   C1B 4341  14.127  25.923   5.951  0.2496  0.2030 -0.1647
    1DIPC   D2B 4342  13.917  26.082   5.613  0.0691 -0.0967 -0.2369
    1DIPC   D3B 4343  14.020  26.150   5.219 -0.1446 -0.2557  0.0547
    1DIPC   C4B 4344  13.821  26.008   4.838  0.0253 -0.0290 -0.1415
    1DIPC   NC3 4345  18.004   5.188   6.428  0.0923 -0.1175  0.1646
    1DIPC   PO4 4346  17.608   5.164   6.265  0.1662 -0.1120 -0.2077
    1DIPC   GL1 4347  17.781   4.994   5.850 -0.1630  0.0855  0.4032
    1DIPC   GL2 4348  17.581   4.726   5.715  0.3936 -0.2644  0.1348
    1DIPC   C1A 4349  18.252   5.029   5.666 -0.1329 -0.4110  0.0579
    1DIPC   D2A 4350  18.433   4.742   5.283  0.1158 -0.3088  0.0600
    1DIPC   D3A 4351  18.499   4.967   4.808 -0.0776  0.1907 -0.0487
    1DIPC   C4A 4352  18.167   5.033   4.582  0.2241  0.1789  0.2188
    1DIPC   C1B 4353  17.186   4.519   5.685 -0.1953  0.0419  0.2215
    1DIPC   D2B 4354  17.179   4.291   5.405  0.0555  0.2049 -0.1595
    1DIPC   D3B 4355  16.963   4.267   5.022  0.0251 -0.2039  0.3699
    1DIPC   C4B 4356  16.578   4.294   4.906  0.1719 -0.2507  0.2801
    1DIPC   NC3 4357  11.072  25.536   6.316 -0.0890  0.0164 -0.2324
    1DIPC   PO4 4358  10.946  25.127   6.210 -0.3868 -0.0072  0.0653
    1DIPC   GL1 4359  10.896  25.436   5.824  0.0240 -0.0579  0.1209
    1DIPC   GL2 4360  10.983  25.743   5.823  0.1230  0.0881 -0.2850
    1DIPC   C1A 4361  10.759  25.538   5.420  0.4409 -0.1994 -0.1008
    1DIPC   D2A 4362  10.525  25.625   5.106 -0.0432  0.3467  0.1358
    1DIPC   D3A 4363  10.755  25.409   4.819 -0.1111 -0.0262 -0.1341
    1DIPC   C4A 4364  10.776  25.668   4.462 -0.0568 -0.0533 -0.1454
    1DIPC   C1B 4365  10.843  26.207   5.915  0.0213  0.1098  0.0610
    1DIPC   D2B 4366  10.496  26.516   5.850  0.2409  0.0687 -0.0105
    1DIPC   D3B 4367  10.868  26.602   5.650 -0.1919 -0.1172  0.1651
    1DIPC   C4B 4368  10.993  26.852   5.306 -0.1270 -0.0662 -0.2656
    1DIPC   NC3 4369  17.747  24.296   7.300  0.0553 -0.1210 -0.1138
    1DIPC   PO4 4370  17.843  23.909   7.036  0.2258  0.2409  0.2459
    1DIPC   GL1 4371  18.152  23.946   6.768 -0.4403 -0.1116 -0.0410
    1DIPC   GL2 4372  18.091  24.026   6.498  0.1367  0.1444  0.3270
    1DIPC   C1A 4373  18.544  24.221   6.641  0.1591 -0.0606  0.0282
    1DIPC   D2A 4374  19.001  24.322   6.530  0.0767 -0.1197 -0.0242
    1DIPC   D3A 4375  19.073  24.066   6.246 -0.0616 -0.2113 -0.1552
    1DIPC   C4A 4376  19.010  23.663   6.172  0.1819  0.1131  0.3441
    1DIPC   C1B 4377  17.703  24.068   6.275 -0.1607 -0.0945 -0.1332
    1DIPC   D2B 4378  17.391  23.918   6.013 -0.2925 -0.1506  0.0338
    1DIPC   D3B 4379  17.666  24.067   5.756 -0.1125  0.0457  0.3405
    1DIPC   C4B 4380  17.661  24.555   5.668 -0.0080 -0.2146  0.0145
    1DIPC   NC3 4381  24.651   7.371   7.107 -0.1451 -0.1156  0.0449
    1DIPC   PO4 4382  24.967   7.105   7.203  0.1809  0.1733  0.1121
    1DIPC   GL1 4383  24.880   7.053   6.817 -0.2129 -0.0829 -0.1309
    1DIPC   GL2 4384  25.000   7.186   6.592  0.0500 -0.0485  0.1890
    1DIPC   C1A 4385  24.685   6.740   6.534  0.0310 -0.0942  0.0877
    1DIPC   D2A 4386  24.280   6.856   6.300 -0.1622 -0.0440  0.1180
    1DIPC   D3A 4387  24.257   7.231   6.190 -0.1108  0.0801 -0.0085
    1DIPC   C4A 4388  24.114   7.630   6.090  0.1654  0.0341 -0.1686
    1DIPC   C1B 4389  24.845   7.055   6.186  0.4770 -0.3308 -0.0244
    1DIPC   D2B 4390  24.585   7.094   5.847 -0.0211  0.1056  0.1570
    1DIPC   D3B 4391  24.756   6.921   5.476  0.1265 -0.2033  0.3180
    1DIPC   C4B 4392  25.091   7.066   5.172 -0.1541  0.1178  0.0277
    1DIPC   NC3 4393  29.499  18.086   6.853  0.0143  0.1574  0.2832
    1DIPC   PO4 4394  29.181  17.911   6.596  0.0079  0.2587 -0.3708
    1DIPC   GL1 4395  29.202  17.703   6.220  0.1574  0.1023 -0.2555
    1DIPC   GL2 4396  29.009  17.495   6.017 -0.3076  0.0098  0.1864
    1DIPC   C1A 4397  29.505  17.510   5.852  0.2737  0.3825  0.4068
    1DIPC   D2A 4398  29.888  17.629   5.536  0.1066 -0.0647 -0.2609
    1DIPC   D3A 4399  29.844  17.509   5.134  0.0687 -0.1862 -0.0603
    1DIPC   C4A 4400  29.616  17.824   4.966 -0.0941 -0.0205 -0.1319
    1DIPC   C1B 4401  29.095  17.414   5.571  0.0282  0.0521 -0.0016
    1DIPC   D2B 4402  29.251  17.424   5.020 -0.0109 -0.3033  0.1644
    1DIPC   D3B 4403  29.297  17.617   4.608  0.1063 -0.0013 -0.0062
    1DIPC   C4B 4404  29.383  18.043   4.575  0.0359 -0.3859  0.1279
    1DIPC   NC3 4405  11.505   9.856   6.977 -0.1005  0.0545 -0.1504
    1DIPC   PO4 4406  11.784   9.654   6.767  0.1294  0.2093 -0.2385
    1DIPC   GL1 4407  11.557   9.712   6.491 -0.1192  0.0823  0.1964
    1DIPC   GL2 4408  11.321   9.874   6.505  0.1975 -0.3430  0.3277
    1DIPC   C1A 4409  11.730   9.928   6.151  0.0492  0.3983  0.2071
    1DIPC   D2A 4410  11.743  10.002   5.738 -0.0630 -0.1836 -0.0956
    1DIPC   D3A 4411  11.758   9.797   5.276 -0.1978 -0.0001 -0.0277
    1DIPC   C4A 4412  12.127   9.764   5.169 -0.1650  0.0533  0.0996
    1DIPC   C1B 4413  11.284   9.846   6.026  0.0937  0.2685  0.1811
    1DIPC   D2B 4414  11.117   9.698   5.641 -0.0884 -0.0519 -0.1210
    1DIPC   D3B 4415  11.172  10.009   5.380  0.1295  0.1443 -0.1815
    1DIPC   C4B 4416  11.041  10.016   5.018 -0.3076  0.2953  0.1659
    1DIPC   NC3 4417  28.958  25.449   6.313 -0.1197 -0.0463  0.1632
    1DIPC   PO4 4418  28.770  25.891   6.296  0.1663  0.0478 -0.1058
    1DIPC   GL1 4419  28.836  25.769   5.920 -0.0266  0.2981  0.0588
    1DIPC   GL2 4420  28.863  25.407   5.787 -0.0734 -0.0216  0.0887
    1DIPC   C1A 4421  28.804  25.963   5.664  0.1605  0.1343 -0.0587
    1DIPC   D2A 4422  28.940  26.102   5.342 -0.0706 -0.3455  0.0966
    1DIPC   D3A 4423  29.459  25.992   5.196  0.0924  0.0199 -0.1789
    1DIPC   C4A 4424  29.671  26.315   4.900 -0.0976 -0.3223  0.1676
    1DIPC   C1B 4425  28.980  25.072   5.458 -0.1139  0.1772 -0.0091
    1DIPC   D2B 4426  29.141  24.696   5.360 -0.1957 -0.1824  0.1186
    1DIPC   D3B 4427  28.613  24.605   5.403  0.0661  0.0568  0.0366
    1DIPC   C4B 4428  28.378  24.431   5.771 -0.1953 -0.1559 -0.0014
    1DIPC   NC3 4429   9.033  20.789   6.343 -0.1928 -0.1791 -0.1733
    1DIPC   PO4 4430   9.392  20.676   6.080  0.2202 -0.1424 -0.2364
    1DIPC   GL1 4431   9.378  20.667   5.625  0.0146 -0.0128  0.0097
    1DIPC   GL2 4432   9.635  20.898   5.700 -0.0481  0.0782 -0.4100
    1DIPC   C1A 4433   9.559  20.574   5.290 -0.0765 -0.1038  0.1078
    1DIPC   D2A 4434   9.839  20.484   4.909 -0.2604  0.1856  0.0349
    1DIPC   D3A 4435   9.917  20.855   4.737  0.2372  0.0306 -0.4108
    1DIPC   C4A 4436  10.151  20.978   4.309 -0.1594  0.1369 -0.0558
    1DIPC   C1B 4437   9.950  21.214   5.697 -0.1271 -0.0421 -0.2155
    1DIPC   D2B 4438  10.251  21.374   5.465 -0.3217  0.1798 -0.1021
    1DIPC   D3B 4439  10.133  21.758   5.466 -0.1089  0.0816  0.0927
    1DIPC   C4B 4440  10.225  22.064   5.157  0.2044  0.1816 -0.1129
    1DIPC   NC3 4441   1.711   2.646   6.828 -0.0034 -0.2797 -0.1100
    1DIPC   PO4 4442   1.952   2.456   6.547 -0.1467  0.0044  0.0977
    1DIPC   GL1 4443   2.074   2.264   6.130  0.0091 -0.2869 -0.1326
    1DIPC   GL2 4444   2.059   2.424   5.925 -0.0243 -0.1404 -0.2065
    1DIPC   C1A 4445   2.545   2.262   5.991  0.0914  0.1422 -0.0621
    1DIPC   D2A 4446   3.021   2.401   5.746  0.3183  0.3561 -0.0772
    1DIPC   D3A 4447   2.546   2.477   5.563  0.0137 -0.0070  0.0205
    1DIPC   C4A 4448   2.377   2.830   5.709 -0.0272  0.0912  0.1742
    1DIPC   C1B 4449   2.286   2.083   5.627  0.1840 -0.0533  0.0058
    1DIPC   D2B 4450   2.391   1.713   5.293 -0.0936 -0.2144 -0.0277
    1DIPC   D3B 4451   2.669   2.140   5.250 -0.1064  0.2268  0.2528
    1DIPC   C4B 4452   2.658   2.552   5.064  0.0945 -0.0137 -0.0456
    1DIPC   NC3 4453  12.349   4.051   7.651  0.2820  0.0612  0.1750
    1DIPC   PO4 4454  12.194   4.340   7.338  0.2208 -0.2736 -0.2037
    1DIPC   GL1 4455  12.117   4.194   6.921  0.0160 -0.0275  0.2078
    1DIPC   GL2 4456  11.919   3.964   6.828  0.1699  0.4266 -0.0091
    1DIPC   C1A 4457  12.414   4.123   6.592  0.1368  0.0192  0.1082
    1DIPC   D2A 4458  12.715   3.849   6.382 -0.0791  0.1028  0.0337
    1DIPC   D3A 4459  12.370   3.537   6.371 -0.2511 -0.0368  0.1341
    1DIPC   C4A 4460  12.135   3.481   6.769  0.2102 -0.0003  0.0496
    1DIPC   C1B 4461  12.038   3.882   6.436 -0.0611  0.0774  0.2003
    1DIPC   D2B 4462  12.224   3.881   6.073 -0.0236 -0.1193 -0.0382
    1DIPC   D3B 4463  11.975   3.721   5.749 -0.1640  0.3786 -0.0351
    1DIPC   C4B 4464  11.797   4.073   5.615  0.0265  0.2195  0.1664
    1DIPC   NC3 4465  11.109  28.518   7.650  0.0371 -0.0931 -0.2378
    1DIPC   PO4 4466  11.356  28.810   7.334  0.1055  0.1644  0.2648
    1DIPC   GL1 4467  11.317  28.833   7.041  0.1030 -0.0455  0.1735
    1DIPC   GL2 4468  11.023  28.618   6.929  0.4164 -0.0015 -0.0819
    1DIPC   C1A 4469  11.254  29.158   6.756 -0.1095 -0.0483  0.4666
    1DIPC   D2A 4470  11.568  29.191   6.403  0.1715 -0.0542  0.0326
    1DIPC   D3A 4471  11.458  28.768   6.468 -0.1909 -0.1680  0.0124
    1DIPC   C4A 4472  11.741  28.385   6.204  0.0949  0.2129 -0.0602
    1DIPC   C1B 4473  10.891  28.667   6.508 -0.0372 -0.1086 -0.0434
    1DIPC   D2B 4474  10.999  28.724   6.128  0.1349  0.4710  0.2278
    1DIPC   D3B 4475  11.279  28.407   6.188 -0.0213  0.2727  0.2799
    1DIPC   C4B 4476  11.283  28.204   6.577 -0.3327 -0.1191  0.0796
    1DIPC   NC3 4477  22.396  21.746   6.844  0.2194 -0.0489  0.3568
    1DIPC   PO4 4478  22.055  22.007   6.808 -0.0431  0.2579 -0.4072
    1DIPC   GL1 4479  21.877  22.029   6.413  0.0358  0.3136 -0.1451
    1DIPC   GL2 4480  21.586  21.815   6.460 -0.2022 -0.0577  0.1884
    1DIPC   C1A 4481  22.044  22.046   5.996 -0.1116  0.1835 -0.1187
    1DIPC   D2A 4482  22.147  21.963   5.517  0.1373  0.0595  0.0176
    1DIPC   D3A 4483  22.055  21.792   5.082 -0.0009 -0.0336  0.0441
    1DIPC   C4A 4484  21.867  21.407   5.011 -0.3188 -0.0130  0.0430
    1DIPC   C1B 4485  21.551  21.880   6.063 -0.3091  0.2772 -0.0785
    1DIPC   D2B 4486  21.721  21.709   5.684 -0.0621  0.0303 -0.4117
    1DIPC   D3B 4487  21.277  21.575   5.635  0.0653 -0.2937 -0.0334
    1DIPC   C4B 4488  21.190  21.972   5.409  0.0713 -0.2701  0.2455
    1DIPC   NC3 4489   3.040  23.595   5.825  0.3101  0.2327 -0.2286
    1DIPC   PO4 4490   3.465  23.648   5.811 -0.2581  0.0818 -0.0859
    1DIPC   GL1 4491   3.430  23.687   5.408  0.0901 -0.0549 -0.0181
    1DIPC   GL2 4492   3.104  23.603   5.294  0.0207 -0.1558  0.0490
    1DIPC   C1A 4493   3.830  23.691   5.114 -0.0897  0.0849  0.2721
    1DIPC   D2A 4494   3.987  23.851   4.701 -0.0706  0.0257  0.0128
    1DIPC   D3A 4495   4.024  24.195   4.914  0.3543  0.0244  0.0723
    1DIPC   C4A 4496   3.894  24.311   5.371  0.3691  0.1660  0.0231
    1DIPC   C1B 4497   3.065  23.564   4.849 -0.3780 -0.2142 -0.0179
    1DIPC   D2B 4498   3.342  23.834   4.560 -0.1996 -0.1926  0.0373
    1DIPC   D3B 4499   3.203  23.919   4.244 -0.0729  0.0604  0.2927
    1DIPC   C4B 4500   3.463  24.152   4.045 -0.1593 -0.0916  0.1444
    1DIPC   NC3 4501   4.555  24.434   6.033 -0.1067  0.2544 -0.0306
    1DIPC   PO4 4502   4.939  24.267   5.799 -0.0042  0.0138 -0.4196
    1DIPC   GL1 4503   4.920  24.309   5.362  0.0430 -0.1857 -0.0092
    1DIPC   GL2 4504   5.228  24.140   5.266  0.1693 -0.4246  0.1661
    1DIPC   C1A 4505   5.073  24.425   4.944  0.3725 -0.1945  0.2102
    1DIPC   D2A 4506   5.151  24.633   4.609  0.0002  0.1916  0.0829
    1DIPC   D3A 4507   5.535  24.827   4.596 -0.2125  0.2516 -0.0578
    1DIPC   C4A 4508   5.716  25.223   4.477 -0.1107 -0.2342  0.0393
    1DIPC   C1B 4509   5.545  23.927   4.983 -0.1793  0.0611  0.2752
    1DIPC   D2B 4510   5.642  23.656   4.603  0.0756  0.0246 -0.3559
    1DIPC   D3B 4511   5.913  23.897   4.595 -0.1427 -0.1438  0.0229
    1DIPC   C4B 4512   5.928  24.224   4.310  0.0616 -0.0729  0.0284
    1DIPC   NC3 4513   8.680   3.585   7.377  0.2563 -0.0514  0.1716
    1DIPC   PO4 4514   8.339   3.628   6.974 -0.0915  0.2701 -0.0479
    1DIPC   GL1 4515   8.695   3.437   6.635  0.4517  0.3592  0.0438
    1DIPC   GL2 4516   9.021   3.708   6.539  0.0988 -0.2687  0.0629
    1DIPC   C1A 4517   8.823   3.021   6.467 -0.0635  0.0337 -0.3394
    1DIPC   D2A 4518   9.175   2.699   6.430 -0.2584 -0.1441 -0.1116
    1DIPC   D3A 4519   8.863   2.439   6.779  0.2786  0.2384 -0.2824
    1DIPC   C4A 4520   8.527   2.601   6.942  0.1513 -0.2147 -0.2422
    1DIPC   C1B 4521   9.076   3.399   6.252  0.5168  0.1255  0.0669
    1DIPC   D2B 4522   9.311   3.011   6.114 -0.0236  0.1488  0.1633
    1DIPC   D3B 4523   9.771   2.958   5.957  0.2092 -0.0648  0.2291
    1DIPC   C4B 4524  10.074   2.785   5.593 -0.1162  0.0946 -0.1330
    1DIPC   NC3 4525   8.924  25.224   6.355 -0.1177  0.1745 -0.3722
    1DIPC   PO4 4526   8.633  25.476   6.111 -0.1439 -0.2132  0.3972
    1DIPC   GL1 4527   8.616  25.403   5.709 -0.1009 -0.0370  0.1672
    1DIPC   GL2 4528   8.387  25.430   5.533 -0.0751 -0.1463  0.0829
    1DIPC   C1A 4529   8.754  25.261   5.262 -0.1664 -0.0665 -0.0297
    1DIPC   D2A 4530   8.680  25.259   4.786  0.1893  0.0269 -0.1082
    1DIPC   D3A 4531   8.992  25.178   4.486  0.4072  0.0630  0.2893
    1DIPC   C4A 4532   8.934  25.193   4.037  0.0583  0.0772 -0.0282
    1DIPC   C1B 4533   8.630  25.800   5.403  0.0873  0.0520 -0.2997
    1DIPC   D2B 4534   8.618  25.999   5.040  0.0058  0.0565  0.2484
    1DIPC   D3B 4535   8.257  26.086   4.797  0.1099 -0.0596 -0.1643
    1DIPC   C4B 4536   8.200  26.129   4.371  0.0887 -0.1270  0.1387
    1DIPC   NC3 4537  14.522  25.078   6.734 -0.1260 -0.0605 -0.3344
    1DIPC   PO4 4538  14.651  24.616   6.411  0.0049 -0.2326  0.0671
    1DIPC   GL1 4539  14.633  24.703   5.927 -0.2107  0.1722 -0.0155
    1DIPC   GL2 4540  14.917  24.688   5.783 -0.1645 -0.1676 -0.0277
    1DIPC   C1A 4541  14.633  25.078   5.518  0.1523 -0.0014  0.0965
    1DIPC   D2A 4542  14.530  25.317   5.229 -0.1752 -0.0522 -0.0749
    1DIPC   D3A 4543  14.150  25.057   5.113  0.4698 -0.2218 -0.0835
    1DIPC   C4A 4544  14.175  24.961   4.690 -0.1434 -0.0679 -0.1881
    1DIPC   C1B 4545  15.267  24.802   5.551  0.4930  0.1829 -0.2081
    1DIPC   D2B 4546  15.615  24.806   5.217 -0.0781 -0.0276 -0.1224
    1DIPC   D3B 4547  15.878  25.085   5.386  0.2083 -0.0738  0.1292
    1DIPC   C4B 4548  16.182  25.051   5.099 -0.1433  0.0425 -0.0152
    1DIPC   NC3 4549  20.748   1.173   6.837 -0.1682 -0.0884 -0.0916
    1DIPC   PO4 4550  21.222   1.210   6.654  0.1770  0.1385 -0.2704
    1DIPC   GL1 4551  21.143   1.139   6.266 -0.2006  0.0765  0.1592
    1DIPC   GL2 4552  21.053   1.430   6.179  0.0418  0.2220  0.0863
    1DIPC   C1A 4553  21.226   1.254   5.740 -0.0330 -0.1414 -0.4168
    1DIPC   D2A 4554  21.580   1.208   5.432 -0.2743 -0.2512 -0.1671
    1DIPC   D3A 4555  21.284   1.544   5.373 -0.3326 -0.1617 -0.1932
    1DIPC   C4A 4556  21.055   1.563   5.003 -0.2573  0.1627 -0.0357
    1DIPC   C1B 4557  20.733   1.053   5.832  0.0660  0.2836 -0.0704
    1DIPC   D2B 4558  20.590   0.921   5.520 -0.0874 -0.1507 -0.4647
    1DIPC   D3B 4559  20.898   1.087   5.257  0.1631 -0.0565 -0.0500
    1DIPC   C4B 4560  20.812   0.703   4.985  0.1427  0.0103 -0.1199
    1DIPC   NC3 4561   4.127  28.331   6.481  0.1491 -0.1074  0.1159
    1DIPC   PO4 4562   4.372  28.059   6.555  0.1056 -0.1624  0.1927
    1DIPC   GL1 4563   4.317  27.904   6.178  0.0451  0.1531  0.3442
    1DIPC   GL2 4564   4.226  27.652   5.925  0.2038  0.2759 -0.2463
    1DIPC   C1A 4565   4.411  28.067   5.806  0.0451 -0.0802  0.1186
    1DIPC   D2A 4566   4.598  28.309   5.329  0.1413 -0.1109 -0.2813
    1DIPC   D3A 4567   4.709  27.984   4.996  0.0529  0.1030 -0.1079
    1DIPC   C4A 4568   4.433  27.596   5.078  0.3833 -0.1725 -0.0720
    1DIPC   C1B 4569   4.521  27.674   5.562 -0.1859  0.2247  0.0687
    1DIPC   D2B 4570   4.897  27.889   5.409 -0.0186  0.1737  0.2597
    1DIPC   D3B 4571   5.232  28.017   5.052 -0.1136  0.1701 -0.1124
    1DIPC   C4B 4572   5.041  28.092   4.647 -0.0890  0.3750 -0.1410
    1DIPC   NC3 4573   6.930  28.551   6.485  0.0999  0.1732  0.0937
    1DIPC   PO4 4574   7.183  28.295   6.666  0.1111 -0.1504  0.6096
    1DIPC   GL1 4575   7.293  28.261   6.271 -0.0443  0.0224  0.1617
    1DIPC   GL2 4576   7.281  28.521   6.141 -0.0065  0.0055  0.0435
    1DIPC   C1A 4577   7.412  28.106   5.932  0.0566 -0.2268  0.1272
    1DIPC   D2A 4578   7.264  28.369   5.581  0.0683  0.1750 -0.0362
    1DIPC   D3A 4579   6.890  28.617   5.239  0.2454  0.1274  0.1251
    1DIPC   C4A 4580   6.489  28.424   5.001 -0.0789 -0.0920  0.2625
    1DIPC   C1B 4581   7.620  28.657   6.240  0.0435  0.1222  0.0724
    1DIPC   D2B 4582   7.800  29.059   6.017 -0.1857  0.1386 -0.2221
    1DIPC   D3B 4583   7.801  28.948   5.591 -0.0431  0.1610  0.0930
    1DIPC   C4B 4584   8.106  29.018   5.261 -0.2274 -0.0669 -0.3799
    1DIPC   NC3 4585  26.916  13.874   6.184  0.0484 -0.1248 -0.1034
    1DIPC   PO4 4586  26.722  13.374   5.986 -0.2144 -0.1602  0.0523
    1DIPC   GL1 4587  26.806  13.344   5.496  0.0287 -0.1772  0.0912
    1DIPC   GL2 4588  26.540  13.457   5.242 -0.1684  0.1500  0.0701
    1DIPC   C1A 4589  27.061  13.343   5.296 -0.1871  0.2721 -0.0722
    1DIPC   D2A 4590  27.466  13.269   5.259 -0.0975 -0.1515  0.1868
    1DIPC   D3A 4591  27.555  13.761   5.150  0.3635 -0.1011  0.0402
    1DIPC   C4A 4592  27.922  13.745   4.831  0.0770 -0.1736 -0.3170
    1DIPC   C1B 4593  26.796  13.369   4.873  0.0441 -0.3233 -0.1483
    1DIPC   D2B 4594  27.018  13.541   4.524  0.1260  0.0470  0.1654
    1DIPC   D3B 4595  27.402  13.639   4.624  0.4167  0.0037  0.6027
    1DIPC   C4B 4596  27.678  13.381   4.381 -0.1037  0.3871  0.2164
    1DIPC   NC3 4597   7.579  22.613   5.986  0.0676 -0.0117 -0.0445
    1DIPC   PO4 4598   7.809  22.934   5.711  0.3605 -0.1795 -0.1938
    1DIPC   GL1 4599   7.801  22.834   5.316 -0.0999 -0.0938 -0.0180
    1DIPC   GL2 4600   8.084  22.821   5.207  0.0604 -0.2764  0.0357
    1DIPC   C1A 4601   7.689  23.019   4.868 -0.1891 -0.2578 -0.1264
    1DIPC   D2A 4602   7.427  23.231   4.666 -0.0566 -0.2714 -0.1318
    1DIPC   D3A 4603   7.384  22.978   4.374 -0.1661 -0.0845 -0.1909
    1DIPC   C4A 4604   7.161  22.638   4.408 -0.4477 -0.1014  0.1292
    1DIPC   C1B 4605   8.076  23.222   4.942  0.2108 -0.0177  0.0771
    1DIPC   D2B 4606   8.281  23.467   4.669  0.0941  0.1478 -0.4517
    1DIPC   D3B 4607   8.418  23.120   4.358  0.0882  0.0560  0.0416
    1DIPC   C4B 4608   8.768  23.311   4.028 -0.2726  0.0718  0.1371
    1DIPC   NC3 4609  17.435   5.552   6.523 -0.1552  0.1050  0.1741
    1DIPC   PO4 4610  17.292   5.762   6.071  0.1051  0.1056 -0.0154
    1DIPC   GL1 4611  17.473   5.417   5.764 -0.3032  0.1405 -0.0170
    1DIPC   GL2 4612  17.336   5.108   5.597 -0.0921 -0.2285 -0.0480
    1DIPC   C1A 4613  17.838   5.422   5.485 -0.2147  0.0952  0.3094
    1DIPC   D2A 4614  18.008   5.504   5.060 -0.1111  0.0912  0.2813
    1DIPC   D3A 4615  18.128   5.089   5.096 -0.0401 -0.1055 -0.2761
    1DIPC   C4A 4616  17.864   4.830   5.314  0.3024  0.1047  0.2490
    1DIPC   C1B 4617  17.364   4.774   5.300 -0.0487 -0.0018 -0.3786
    1DIPC   D2B 4618  17.151   4.759   4.962 -0.0918 -0.0360 -0.0345
    1DIPC   D3B 4619  17.083   5.300   4.920 -0.2682 -0.1227  0.1695
    1DIPC   C4B 4620  17.185   5.652   4.700 -0.2257  0.3737 -0.1335
    1DIPC   NC3 4621   0.934   2.356   7.024  0.1285  0.1934 -0.0256
    1DIPC   PO4 4622   1.273   2.349   6.710 -0.4112  0.0232 -0.0368
    1DIPC   GL1 4623   1.100   2.252   6.279  0.0026 -0.1369 -0.1604
    1DIPC   GL2 4624   0.898   2.425   6.090  0.2614 -0.2121 -0.0513
    1DIPC   C1A 4625   1.390   2.379   5.873  0.0050  0.3575 -0.3146
    1DIPC   D2A 4626   1.350   2.673   5.576  0.0019  0.2896 -0.4124
    1DIPC   D3A 4627   1.400   3.188   5.791  0.0150 -0.1647  0.1353
    1DIPC   C4A 4628   1.246   3.501   5.425  0.0407 -0.1359  0.0936
    1DIPC   C1B 4629   0.817   2.433   5.633  0.0554  0.2417  0.5070
    1DIPC   D2B 4630   0.689   2.698   5.280 -0.1660 -0.4093 -0.2537
    1DIPC   D3B 4631   0.591   3.148   5.438  0.1199 -0.0324  0.3630
    1DIPC   C4B 4632   0.709   3.476   5.466  0.5282 -0.1433  0.1844
    1DIPC   NC3 4633   7.456   1.995   7.188  0.0691  0.1838  0.0557
    1DIPC   PO4 4634   7.205   2.319   7.117 -0.2316  0.1775 -0.0147
    1DIPC   GL1 4635   7.245   2.145   6.721  0.1007 -0.1526 -0.2845
    1DIPC   GL2 4636   7.621   2.081   6.666 -0.2749 -0.0138 -0.0506
    1DIPC   C1A 4637   7.334   2.348   6.295  0.0531 -0.0240 -0.1197
    1DIPC   D2A 4638   7.723   2.330   6.117 -0.0799  0.0510 -0.0360
    1DIPC   D3A 4639   8.220   2.059   6.120  0.2449 -0.1412 -0.2504
    1DIPC   C4A 4640   8.413   1.696   6.183 -0.2124  0.2555 -0.1761
    1DIPC   C1B 4641   8.112   2.064   6.608  0.2628 -0.1535  0.2686
    1DIPC   D2B 4642   8.285   2.490   6.469 -0.1840  0.2099  0.1187
    1DIPC   D3B 4643   8.199   2.553   5.958  0.1868 -0.0612 -0.1462
    1DIPC   C4B 4644   8.238   2.874   5.657 -0.0552 -0.3432  0.2057
    1DIPC   NC3 4645  27.711  12.552   6.391  0.0959 -0.1122 -0.2490
    1DIPC   PO4 4646  27.617  12.896   5.975  0.0283 -0.0533 -0.1267
    1DIPC   GL1 4647  27.809  12.944   5.622 -0.0657  0.1855 -0.2211
    1DIPC   GL2 4648  27.826  13.223   5.559  0.2837 -0.1154  0.0876
    1DIPC   C1A 4649  27.822  12.919   5.192  0.1170 -0.0735 -0.0087
    1DIPC   D2A 4650  27.753  13.014   4.773  0.0619 -0.1681 -0.0151
    1DIPC   D3A 4651  27.467  12.705   4.687 -0.2321  0.1052  0.0474
    1DIPC   C4A 4652  27.400  12.418   4.957 -0.1913 -0.2372  0.0707
    1DIPC   C1B 4653  27.975  13.346   5.059  0.2988 -0.3292 -0.5012
    1DIPC   D2B 4654  28.171  13.362   4.606 -0.0711  0.1852 -0.1320
    1DIPC   D3B 4655  28.016  12.879   4.355 -0.0907 -0.2145 -0.3694
    1DIPC   C4B 4656  27.972  12.809   3.875 -0.1212 -0.0741 -0.0237
    1DIPC   NC3 4657  14.137  29.202   6.823 -0.0020 -0.3428  0.0936
    1DIPC   PO4 4658  14.007  29.604   7.103  0.2017  0.1739 -0.0936
    1DIPC   GL1 4659  13.789  29.632   6.677  0.0787  0.0885  0.1724
    1DIPC   GL2 4660  13.436  29.713   6.673  0.0869 -0.0954 -0.0339
    1DIPC   C1A 4661  13.780  29.632   6.290 -0.0558  0.0249  0.0888
    1DIPC   D2A 4662  14.153  29.558   6.022  0.0878 -0.3847  0.1321
    1DIPC   D3A 4663  14.296  29.868   5.676 -0.1510  0.2068 -0.1982
    1DIPC   C4A 4664  14.189  29.828   5.318 -0.0663  0.0386  0.1474
    1DIPC   C1B 4665  13.528  29.268   6.518  0.0122  0.0488  0.0184
    1DIPC   D2B 4666  13.308  28.870   6.351  0.0624  0.0513  0.1191
    1DIPC   D3B 4667  13.176  28.780   5.913 -0.0988 -0.0656  0.0317
    1DIPC   C4B 4668  13.275  28.346   5.772  0.1827  0.2415  0.2887
    1DIPC   NC3 4669  22.293   0.630   6.927  0.1054  0.0341  0.1243
    1DIPC   PO4 4670  22.691   0.632   7.053  0.0842  0.1946  0.0915
    1DIPC   GL1 4671  22.782   0.570   6.585  0.2955 -0.0832 -0.5368
    1DIPC   GL2 4672  22.527   0.788   6.508  0.0804  0.0025 -0.0114
    1DIPC   C1A 4673  22.764   0.427   6.137  0.2068 -0.1868  0.3435
    1DIPC   D2A 4674  22.809   0.524   5.767 -0.2127  0.1652  0.3856
    1DIPC   D3A 4675  23.250   0.319   5.712  0.4263 -0.0668  0.1041
    1DIPC   C4A 4676  23.465  -0.093   5.824 -0.0587 -0.3048 -0.3025
    1DIPC   C1B 4677  22.705   0.957   6.100  0.1170  0.2224 -0.0148
    1DIPC   D2B 4678  22.938   1.263   5.951 -0.0663 -0.1280  0.1028
    1DIPC   D3B 4679  23.355   1.300   5.964  0.1233  0.1679  0.2446
    1DIPC   C4B 4680  23.439   1.309   6.530  0.3440 -0.0624  0.0539
    1DIPC   NC3 4681   9.684  25.681   6.572  0.0988  0.1973 -0.1232
    1DIPC   PO4 4682   9.614  26.024   6.230 -0.1217  0.2401  0.1462
    1DIPC   GL1 4683   9.847  25.853   5.825  0.1893 -0.0240  0.0594
    1DIPC   GL2 4684   9.957  25.615   5.902  0.0610  0.1570  0.1649
    1DIPC   C1A 4685  10.068  25.841   5.414 -0.0472 -0.3790 -0.0999
    1DIPC   D2A 4686  10.138  26.082   5.085 -0.0661  0.0138 -0.0871
    1DIPC   D3A 4687   9.847  26.214   4.830 -0.0999  0.4018 -0.0285
    1DIPC   C4A 4688   9.770  26.665   4.830  0.2178  0.1630 -0.1265
    1DIPC   C1B 4689  10.226  25.393   5.516  0.1004  0.2006  0.1687
    1DIPC   D2B 4690  10.444  25.107   5.045 -0.0035  0.4933 -0.0648
    1DIPC   D3B 4691  10.300  25.270   4.643 -0.0453  0.3062  0.1583
    1DIPC   C4B 4692  10.398  25.477   4.259 -0.0566  0.1096 -0.0736
    1DIPC   NC3 4693  22.879   5.949   6.879 -0.2557  0.0074 -0.0170
    1DIPC   PO4 4694  23.048   5.746   6.529  0.1987 -0.0399 -0.3216
    1DIPC   GL1 4695  23.277   5.602   6.149 -0.1747 -0.1941 -0.2383
    1DIPC   GL2 4696  23.592   5.806   6.144 -0.2056 -0.1250  0.0143
    1DIPC   C1A 4697  23.339   5.602   5.620 -0.2475 -0.1591 -0.0476
    1DIPC   D2A 4698  23.488   5.429   5.223 -0.1369 -0.0155 -0.0990
    1DIPC   D3A 4699  23.861   5.773   5.278 -0.0085  0.2503 -0.0287
    1DIPC   C4A 4700  23.638   6.031   5.546  0.0024 -0.0875  0.0659
    1DIPC   C1B 4701  23.823   5.508   5.736  0.0226  0.0420  0.3313
    1DIPC   D2B 4702  24.308   5.456   5.652 -0.1309 -0.2052  0.1659
    1DIPC   D3B 4703  23.976   5.272   5.305 -0.1285 -0.3601  0.0858
    1DIPC   C4B 4704  23.931   4.778   5.390 -0.0246 -0.2964 -0.2890
    1DIPC   NC3 4705  10.490   6.784   6.624 -0.1082  0.0539  0.0817
    1DIPC   PO4 4706  10.364   6.490   6.926  0.3002  0.3498 -0.1811
    1DIPC   GL1 4707  10.346   6.287   6.517 -0.1557  0.0211  0.0799
    1DIPC   GL2 4708  10.448   6.028   6.347  0.2963 -0.0757  0.0484
    1DIPC   C1A 4709   9.939   6.087   6.299 -0.0130  0.0814 -0.1196
    1DIPC   D2A 4710   9.602   5.824   6.362  0.0996 -0.1398  0.2379
    1DIPC   D3A 4711   9.311   5.462   6.175  0.0571 -0.2556  0.1233
    1DIPC   C4A 4712   9.406   5.416   5.749 -0.0456  0.1267 -0.0098
    1DIPC   C1B 4713  10.367   5.816   6.028 -0.0739  0.2542  0.0545
    1DIPC   D2B 4714  10.412   5.383   6.043 -0.1115 -0.3642 -0.1681
    1DIPC   D3B 4715  10.623   5.527   5.605 -0.0715  0.0192  0.1514
    1DIPC   C4B 4716  10.387   5.842   5.498  0.0243  0.1186 -0.3857
    1DIPC   NC3 4717  24.482  22.946   6.479  0.0981  0.1863 -0.1165
    1DIPC   PO4 4718  23.993  22.848   6.650  0.1832 -0.0056  0.0257
    1DIPC   GL1 4719  23.805  22.620   6.221 -0.0248 -0.1717 -0.1849
    1DIPC   GL2 4720  23.708  22.834   5.986 -0.5417  0.1373 -0.0813
    1DIPC   C1A 4721  23.866  22.316   6.045  0.3377 -0.3015  0.1297
    1DIPC   D2A 4722  23.982  21.837   5.910  0.0836  0.0577  0.2299
    1DIPC   D3A 4723  23.588  21.986   5.585 -0.2023 -0.1672 -0.0482
    1DIPC   C4A 4724  23.482  22.241   5.207 -0.2012  0.4401  0.0936
    1DIPC   C1B 4725  23.852  22.435   5.537  0.2283 -0.2588 -0.0543
    1DIPC   D2B 4726  24.116  22.119   5.508  0.1593 -0.2321 -0.0797
    1DIPC   D3B 4727  24.500  22.059   5.183  0.0624 -0.2022 -0.1304
    1DIPC   C4B 4728  24.859  22.274   5.061 -0.3253  0.2079 -0.1257
    1DIPC   NC3 4729  25.707  21.373   6.781 -0.1350 -0.1099  0.0872
    1DIPC   PO4 4730  25.999  21.574   6.745  0.1132 -0.0025 -0.1918
    1DIPC   GL1 4731  25.920  21.491   6.349  0.0543 -0.1205  0.2489
    1DIPC   GL2 4732  25.685  21.550   6.192 -0.0168 -0.0992  0.0835
    1DIPC   C1A 4733  26.222  21.597   6.028 -0.0782  0.1418 -0.0104
    1DIPC   D2A 4734  26.263  21.585   5.512  0.0740  0.1350 -0.1004
    1DIPC   D3A 4735  26.133  21.104   5.324  0.0715  0.1985  0.0300
    1DIPC   C4A 4736  26.031  21.000   4.853 -0.3005  0.1704 -0.1507
    1DIPC   C1B 4737  25.560  21.509   5.914  0.3779  0.0246 -0.3576
    1DIPC   D2B 4738  25.808  21.406   5.575 -0.0308 -0.1702 -0.3133
    1DIPC   D3B 4739  25.684  21.417   5.143  0.0627  0.1006  0.1922
    1DIPC   C4B 4740  25.281  21.300   5.023 -0.0039  0.0186 -0.2012
    1DIPC   NC3 4741   7.250  25.533   6.056 -0.2649 -0.4280 -0.2242
    1DIPC   PO4 4742   6.919  25.706   6.263 -0.0179 -0.0438  0.1632
    1DIPC   GL1 4743   6.820  25.860   5.818  0.1124 -0.2088  0.2351
    1DIPC   GL2 4744   6.902  25.727   5.578 -0.0143 -0.0953  0.0818
    1DIPC   C1A 4745   6.875  26.291   5.688 -0.0854 -0.1099  0.0754
    1DIPC   D2A 4746   6.755  26.642   5.454  0.4717 -0.3752  0.1725
    1DIPC   D3A 4747   7.026  26.861   5.124  0.0018 -0.0190  0.0268
    1DIPC   C4A 4748   7.065  27.270   5.200  0.0372  0.0560  0.2747
    1DIPC   C1B 4749   7.206  25.957   5.381  0.1121 -0.1879 -0.0409
    1DIPC   D2B 4750   7.323  25.869   4.933  0.1532 -0.1167  0.1103
    1DIPC   D3B 4751   7.064  25.803   4.577 -0.0092 -0.2114  0.1751
    1DIPC   C4B 4752   7.118  26.060   4.212 -0.1151  0.0227  0.0764
    1DIPC   NC3 4753  13.914   3.569   7.290 -0.0655 -0.3335  0.0440
    1DIPC   PO4 4754  14.314   3.688   7.045 -0.0875 -0.1942 -0.0148
    1DIPC   GL1 4755  14.590   3.865   6.753  0.2538  0.3104  0.1412
    1DIPC   GL2 4756  14.636   3.501   6.595 -0.1644  0.1330 -0.1250
    1DIPC   C1A 4757  14.651   3.910   6.323 -0.0987  0.1553 -0.0143
    1DIPC   D2A 4758  14.930   4.124   5.976  0.1193  0.0267 -0.0993
    1DIPC   D3A 4759  14.625   4.291   5.583  0.0064 -0.1792  0.3585
    1DIPC   C4A 4760  14.686   4.178   5.129  0.1494  0.1201  0.1776
    1DIPC   C1B 4761  14.927   3.479   6.492  0.0173 -0.6260 -0.0294
    1DIPC   D2B 4762  15.308   3.212   6.259 -0.1443  0.0328 -0.2438
    1DIPC   D3B 4763  15.248   2.773   6.320  0.1257 -0.1820 -0.0811
    1DIPC   C4B 4764  15.426   2.546   5.985  0.2171 -0.1843 -0.1609
    1DIPC   NC3 4765   0.563  16.207   6.350  0.0683 -0.1807  0.2643
    1DIPC   PO4 4766   0.699  16.496   6.178 -0.0278 -0.1718 -0.2318
    1DIPC   GL1 4767   0.399  16.394   5.802 -0.0587 -0.0631  0.2500
    1DIPC   GL2 4768   0.286  16.671   5.930 -0.2083  0.0208 -0.0152
    1DIPC   C1A 4769   0.465  16.170   5.526  0.2465  0.1263 -0.4658
    1DIPC   D2A 4770   0.590  16.087   5.132  0.1193 -0.1768  0.0921
    1DIPC   D3A 4771   0.517  16.498   5.116  0.0611 -0.0303 -0.1325
    1DIPC   C4A 4772   0.652  16.758   4.732 -0.1874  0.2219 -0.0793
    1DIPC   C1B 4773   0.179  16.757   5.523 -0.0352  0.1038 -0.3226
    1DIPC   D2B 4774   0.072  16.869   5.166 -0.3698  0.1945 -0.0509
    1DIPC   D3B 4775  -0.078  16.597   4.935 -0.2380 -0.2151  0.2224
    1DIPC   C4B 4776   0.239  16.472   4.611  0.3701  0.0087  0.1223
    1DIPC   NC3 4777  12.266   5.336   7.437 -0.0061  0.2873  0.0869
    1DIPC   PO4 4778  12.150   5.796   7.357 -0.0184 -0.0632  0.0273
    1DIPC   GL1 4779  12.032   5.712   6.931  0.2357 -0.1886  0.2059
    1DIPC   GL2 4780  11.880   5.817   6.770 -0.1578 -0.3277 -0.3306
    1DIPC   C1A 4781  12.270   5.458   6.531 -0.4064 -0.1450  0.1721
    1DIPC   D2A 4782  12.333   5.195   6.234 -0.1024  0.2551  0.0404
    1DIPC   D3A 4783  11.971   5.422   6.094 -0.2891  0.1902 -0.2400
    1DIPC   C4A 4784  11.598   5.459   6.164 -0.0096  0.0167  0.1146
    1DIPC   C1B 4785  11.825   5.886   6.458  0.2620 -0.0084 -0.1241
    1DIPC   D2B 4786  11.819   5.936   6.113 -0.2353  0.2296 -0.0743
    1DIPC   D3B 4787  11.712   5.673   5.658 -0.1662 -0.2916 -0.1164
    1DIPC   C4B 4788  11.998   5.552   5.394 -0.0584  0.3146  0.1591
    1DIPC   NC3 4789  11.725   4.880   7.666 -0.2790 -0.0656 -0.0374
    1DIPC   PO4 4790  11.434   4.914   7.416 -0.0537  0.1579 -0.1963
    1DIPC   GL1 4791  11.426   5.162   7.000  0.0516 -0.1776  0.1061
    1DIPC   GL2 4792  11.101   5.093   6.734 -0.3875  0.2045 -0.0761
    1DIPC   C1A 4793  11.603   5.117   6.605 -0.1613 -0.0883  0.1174
    1DIPC   D2A 4794  11.953   4.889   6.327  0.1423 -0.1516 -0.0826
    1DIPC   D3A 4795  11.897   4.817   5.913 -0.1657 -0.3164 -0.1309
    1DIPC   C4A 4796  12.176   5.065   5.782  0.0424 -0.0336 -0.1195
    1DIPC   C1B 4797  11.142   5.279   6.336 -0.0022 -0.1230 -0.3238
    1DIPC   D2B 4798  11.028   5.543   5.948 -0.0001 -0.2212  0.0516
    1DIPC   D3B 4799  11.314   5.417   5.781  0.3149  0.2066 -0.0981
    1DIPC   C4B 4800  11.707   5.172   5.630  0.1528  0.0330 -0.0265
    1DIPC   NC3 4801  13.332   4.213   7.233  0.4225  0.1392 -0.0300
    1DIPC   PO4 4802  13.418   3.766   7.168 -0.0887 -0.0014  0.0141
    1DIPC   GL1 4803  13.373   3.731   6.783  0.2044 -0.1809  0.3091
    1DIPC   GL2 4804  13.180   3.738   6.597  0.2497 -0.0582  0.1651
    1DIPC   C1A 4805  13.697   3.632   6.430 -0.2444  0.1093 -0.3325
    1DIPC   D2A 4806  14.145   3.654   6.535 -0.1476  0.0346 -0.0120
    1DIPC   D3A 4807  14.116   3.850   6.166  0.0930 -0.0233  0.2795
    1DIPC   C4A 4808  13.913   3.578   5.836 -0.2234  0.1114  0.0221
    1DIPC   C1B 4809  13.258   3.663   6.162 -0.2760  0.0066 -0.1359
    1DIPC   D2B 4810  13.224   3.615   5.782 -0.0495  0.0080 -0.1741
    1DIPC   D3B 4811  13.107   3.163   5.879 -0.1671  0.0991  0.2865
    1DIPC   C4B 4812  13.434   2.820   6.024 -0.1484  0.0928 -0.1442
    1DIPC   NC3 4813  26.514  18.992   6.807  0.0324  0.1719 -0.0969
    1DIPC   PO4 4814  26.521  18.923   6.281 -0.0100  0.1828 -0.4068
    1DIPC   GL1 4815  26.690  19.084   6.030  0.5044 -0.0922 -0.0792
    1DIPC   GL2 4816  26.457  19.292   5.865 -0.1892 -0.0397 -0.5174
    1DIPC   C1A 4817  26.978  19.115   5.724 -0.4507  0.3275  0.2417
    1DIPC   D2A 4818  27.089  19.253   5.352  0.1693 -0.1748  0.2461
    1DIPC   D3A 4819  26.818  19.349   5.039 -0.1235 -0.2661  0.2952
    1DIPC   C4A 4820  26.796  19.569   4.652 -0.2043 -0.0341  0.3587
    1DIPC   C1B 4821  26.514  18.993   5.551  0.1759  0.0261 -0.0111
    1DIPC   D2B 4822  26.335  18.860   5.216 -0.0352  0.0750  0.1800
    1DIPC   D3B 4823  26.811  18.890   5.137  0.1458  0.1240 -0.2258
    1DIPC   C4B 4824  26.932  18.749   4.806 -0.1449  0.0618 -0.1341
    1DIPC   NC3 4825  13.659  26.401   6.687  0.2274  0.0739  0.0177
    1DIPC   PO4 4826  13.758  25.934   6.585  0.0010  0.2264 -0.1801
    1DIPC   GL1 4827  13.717  25.936   6.216  0.0398 -0.0092  0.2009
    1DIPC   GL2 4828  13.435  25.874   6.097 -0.0065  0.0409 -0.1215
    1DIPC   C1A 4829  13.609  26.308   5.931 -0.0422  0.4279  0.1508
    1DIPC   D2A 4830  13.358  26.606   5.840  0.1506  0.2869  0.2801
    1DIPC   D3A 4831  13.332  26.672   5.375 -0.0465 -0.0630 -0.1094
    1DIPC   C4A 4832  13.264  26.979   5.199  0.0870 -0.2680  0.0548
    1DIPC   C1B 4833  13.430  25.742   5.664  0.2014 -0.3539  0.2186
    1DIPC   D2B 4834  13.153  25.524   5.362  0.3007 -0.0444  0.0317
    1DIPC   D3B 4835  13.341  25.816   5.137 -0.1000 -0.2268 -0.1492
    1DIPC   C4B 4836  13.685  25.797   5.281 -0.0609  0.2172  0.2007
    1DIPC   NC3 4837   5.773  11.678   6.327 -0.0554  0.0625 -0.0067
    1DIPC   PO4 4838   5.767  11.206   6.201 -0.0245  0.2868 -0.1090
    1DIPC   GL1 4839   5.677  11.221   5.758  0.0432  0.0331  0.0174
    1DIPC   GL2 4840   5.303  11.252   5.880  0.1044 -0.2002 -0.3403
    1DIPC   C1A 4841   5.804  11.233   5.314  0.2918  0.3954  0.0746
    1DIPC   D2A 4842   5.880  11.513   4.997  0.2149 -0.1325 -0.0561
    1DIPC   D3A 4843   6.010  11.430   4.538  0.1731  0.0124 -0.1487
    1DIPC   C4A 4844   6.240  11.053   4.411 -0.0391  0.0532  0.1021
    1DIPC   C1B 4845   5.265  11.063   5.466 -0.0346  0.1503  0.2649
    1DIPC   D2B 4846   5.332  10.671   5.318  0.2074  0.1622  0.2036
    1DIPC   D3B 4847   5.521  10.843   4.917  0.2049  0.2257 -0.3392
    1DIPC   C4B 4848   5.147  10.978   4.680  0.0586 -0.1856  0.1955
    1DIPC   NC3 4849   4.589  19.516   5.905  0.0628  0.0101 -0.0430
    1DIPC   PO4 4850   4.049  19.600   5.928 -0.0875  0.0475 -0.0098
    1DIPC   GL1 4851   3.819  19.645   5.472 -0.3463  0.1718 -0.2691
    1DIPC   GL2 4852   3.688  19.901   5.424 -0.0861 -0.2468  0.1324
    1DIPC   C1A 4853   3.464  19.279   5.280  0.0165 -0.2764  0.2459
    1DIPC   D2A 4854   3.319  19.045   4.967  0.2335 -0.0262  0.0099
    1DIPC   D3A 4855   3.339  19.398   4.784  0.1884  0.2165  0.1813
    1DIPC   C4A 4856   3.250  19.786   4.988 -0.0492  0.0387 -0.0630
    1DIPC   C1B 4857   3.771  19.973   4.962 -0.1298  0.0031 -0.0012
    1DIPC   D2B 4858   3.833  19.990   4.579 -0.3845  0.0444  0.2506
    1DIPC   D3B 4859   4.182  19.744   4.264  0.1969 -0.0671  0.0239
    1DIPC   C4B 4860   4.186  19.897   3.763  0.2813 -0.1185 -0.1637
    1DIPC   NC3 4861  25.834  16.104   6.199  0.2402 -0.2892 -0.1323
    1DIPC   PO4 4862  26.178  16.258   6.183 -0.4197 -0.1800 -0.1135
    1DIPC   GL1 4863  26.081  16.373   5.812 -0.2819  0.2267  0.0207
    1DIPC   GL2 4864  26.103  16.741   5.651 -0.0677  0.0749  0.3454
    1DIPC   C1A 4865  25.808  16.413   5.390  0.1430  0.1417  0.2104
    1DIPC   D2A 4866  25.572  16.264   5.008 -0.2106  0.1971 -0.0979
    1DIPC   D3A 4867  25.233  16.077   4.855 -0.2201  0.1821  0.0676
    1DIPC   C4A 4868  25.164  16.115   4.391 -0.0941  0.1382 -0.0753
    1DIPC   C1B 4869  26.055  16.827   5.226 -0.1738  0.0163 -0.1264
    1DIPC   D2B 4870  26.125  17.032   4.873 -0.0087 -0.0022  0.1247
    1DIPC   D3B 4871  26.515  16.786   4.989 -0.1236  0.0392  0.2518
    1DIPC   C4B 4872  26.923  16.905   4.970  0.0077 -0.1904 -0.1874
    1DIPC   NC3 4873   7.458   4.865   7.137  0.2686  0.1463 -0.0176
    1DIPC   PO4 4874   7.727   5.245   6.942  0.2235  0.0080 -0.0958
    1DIPC   GL1 4875   7.924   5.451   6.544  0.2995 -0.1509 -0.0378
    1DIPC   GL2 4876   7.775   5.236   6.282  0.0653  0.0047 -0.2069
    1DIPC   C1A 4877   7.843   5.810   6.249 -0.0189 -0.2264 -0.2464
    1DIPC   D2A 4878   8.055   6.209   6.054 -0.0561  0.1120  0.0957
    1DIPC   D3A 4879   8.221   6.210   5.544  0.1878 -0.4873 -0.1114
    1DIPC   C4A 4880   7.952   5.926   5.189 -0.1385 -0.0031  0.2321
    1DIPC   C1B 4881   8.176   5.431   6.011 -0.2256 -0.1874  0.2303
    1DIPC   D2B 4882   8.191   5.781   5.825 -0.3883  0.3016 -0.1328
    1DIPC   D3B 4883   7.841   5.893   5.702 -0.0026  0.2076 -0.0688
    1DIPC   C4B 4884   7.508   6.010   5.866  0.0931  0.1621  0.0238
    1DIPC   NC3 4885  21.588   2.803   6.844 -0.1167  0.2304  0.4571
    1DIPC   PO4 4886  21.342   2.956   6.486 -0.1271  0.1480 -0.3434
    1DIPC   GL1 4887  21.370   3.082   6.148 -0.0753  0.1516 -0.0009
    1DIPC   GL2 4888  20.989   3.227   5.923 -0.1557 -0.2058 -0.3304
    1DIPC   C1A 4889  21.298   2.792   5.711 -0.1145 -0.0539  0.1268
    1DIPC   D2A 4890  21.278   2.778   5.294  0.1774 -0.0596  0.3374
    1DIPC   D3A 4891  21.566   2.481   5.061 -0.0612 -0.5076  0.1645
    1DIPC   C4A 4892  21.412   2.126   4.817 -0.0764 -0.0590 -0.1314
    1DIPC   C1B 4893  21.026   3.129   5.454  0.0501 -0.1297  0.1278
    1DIPC   D2B 4894  20.974   3.030   4.908 -0.0857 -0.2684  0.0936
    1DIPC   D3B 4895  21.222   3.227   4.663  0.1839 -0.1183 -0.0305
    1DIPC   C4B 4896  21.351   3.051   4.404 -0.1310  0.0012  0.0889
    1DIPC   NC3 4897  28.085  27.719   7.161 -0.0462  0.1464 -0.0961
    1DIPC   PO4 4898  28.069  27.832   6.699 -0.1046 -0.2341  0.0160
    1DIPC   GL1 4899  28.013  27.879   6.310  0.1741  0.1687  0.1669
    1DIPC   GL2 4900  28.128  28.237   6.144 -0.0648 -0.1679  0.2451
    1DIPC   C1A 4901  28.152  27.671   5.870 -0.0147 -0.1904 -0.0402
    1DIPC   D2A 4902  28.266  27.303   5.737 -0.2286 -0.1917 -0.2807
    1DIPC   D3A 4903  27.998  27.425   5.453  0.2909  0.1503 -0.1874
    1DIPC   C4A 4904  27.738  27.255   5.189 -0.1560 -0.2815 -0.0754
    1DIPC   C1B 4905  27.795  28.042   5.861 -0.0996  0.0799 -0.1130
    1DIPC   D2B 4906  27.400  28.067   5.809  0.1306 -0.1718 -0.4292
    1DIPC   D3B 4907  27.349  28.198   5.391  0.2948 -0.0806  0.1790
    1DIPC   C4B 4908  27.518  28.183   4.918  0.0105 -0.0395 -0.1424
    1DIPC   NC3 4909   5.588  19.431   6.179  0.0985 -0.0313 -0.0154
    1DIPC   PO4 4910   5.924  19.496   5.772  0.0817 -0.3157  0.0596
    1DIPC   GL1 4911   5.694  19.706   5.469  0.0547  0.3576  0.0545
    1DIPC   GL2 4912   5.325  19.875   5.364  0.0838  0.0711  0.0143
    1DIPC   C1A 4913   5.717  19.798   5.034  0.0353 -0.3438  0.1960
    1DIPC   D2A 4914   5.622  19.685   4.655  0.2908  0.1006  0.0112
    1DIPC   D3A 4915   6.029  19.979   4.571  0.2875 -0.2350 -0.2688
    1DIPC   C4A 4916   6.172  20.155   4.954 -0.2108 -0.1079 -0.1985
    1DIPC   C1B 4917   5.270  19.949   4.935  0.3315  0.2271 -0.2798
    1DIPC   D2B 4918   5.140  19.807   4.491  0.1141 -0.3361  0.1422
    1DIPC   D3B 4919   4.868  20.181   4.387  0.1311  0.3052  0.3527
    1DIPC   C4B 4920   4.912  20.432   3.940 -0.0388 -0.4607 -0.2483
    1DIPC   NC3 4921  20.071  20.471   6.662 -0.3582 -0.0370 -0.0587
    1DIPC   PO4 4922  20.364  20.622   6.914  0.2379  0.4805 -0.2857
    1DIPC   GL1 4923  20.590  20.593   6.525 -0.0837 -0.0961  0.2321
    1DIPC   GL2 4924  20.654  20.265   6.490 -0.0727  0.2180  0.2256
    1DIPC   C1A 4925  20.437  20.710   6.129 -0.2152 -0.1190  0.0792
    1DIPC   D2A 4926  20.267  20.697   5.812  0.1686 -0.2895 -0.2411
    1DIPC   D3A 4927  20.527  20.953   5.695  0.0795 -0.2443 -0.0802
    1DIPC   C4A 4928  20.568  20.973   5.407 -0.0926 -0.1377 -0.0381
    1DIPC   C1B 4929  20.883  20.478   6.155 -0.0461 -0.0466 -0.0882
    1DIPC   D2B 4930  21.306  20.244   5.883  0.0717 -0.0783  0.3256
    1DIPC   D3B 4931  21.150  20.404   5.445  0.2857  0.1295 -0.3029
    1DIPC   C4B 4932  21.061  20.781   5.322  0.1859  0.1994  0.0157
    1DIPC   NC3 4933  26.264   2.816   6.146 -0.1054  0.1321 -0.1407
    1DIPC   PO4 4934  26.450   2.416   6.310 -0.0585  0.1221 -0.1442
    1DIPC   GL1 4935  26.131   2.294   5.926  0.0183  0.0071 -0.0592
    1DIPC   GL2 4936  26.141   2.528   5.756  0.3041  0.2520 -0.2930
    1DIPC   C1A 4937  26.162   2.216   5.378  0.0071  0.0543  0.0818
    1DIPC   D2A 4938  26.566   2.110   5.198  0.2758 -0.0536 -0.2464
    1DIPC   D3A 4939  26.844   2.422   5.125 -0.1497 -0.0733 -0.1783
    1DIPC   C4A 4940  27.221   2.257   5.057 -0.2811  0.1295  0.1349
    1DIPC   C1B 4941  25.826   2.557   5.498  0.0701 -0.1075  0.2739
    1DIPC   D2B 4942  25.648   2.524   5.065  0.0548 -0.3060  0.0158
    1DIPC   D3B 4943  25.376   2.886   5.070 -0.0964  0.1889  0.3252
    1DIPC   C4B 4944  25.020   3.050   4.924 -0.0178 -0.4177 -0.2696
    1DIPC   NC3 4945  19.741  21.277   7.078  0.0186  0.3888  0.0294
    1DIPC   PO4 4946  19.829  20.852   6.882 -0.0401 -0.0727  0.0025
    1DIPC   GL1 4947  19.776  20.962   6.516  0.2882 -0.1215  0.2104
    1DIPC   GL2 4948  19.871  20.836   6.286 -0.3376 -0.1315  0.2238
    1DIPC   C1A 4949  19.733  21.278   6.085 -0.0314  0.0205  0.1254
    1DIPC   D2A 4950  20.010  21.285   5.717  0.0764 -0.2646 -0.1906
    1DIPC   D3A 4951  19.889  21.330   5.185 -0.1013 -0.1568 -0.1230
    1DIPC   C4A 4952  20.089  21.163   4.869  0.4371  0.2440 -0.0173
    1DIPC   C1B 4953  19.816  20.401   6.107 -0.0600  0.0420  0.2993
    1DIPC   D2B 4954  19.570  20.321   5.944  0.0448 -0.0094 -0.0401
    1DIPC   D3B 4955  19.301  20.459   5.492 -0.2395  0.0569  0.2670
    1DIPC   C4B 4956  19.185  20.068   5.179  0.5319 -0.0755  0.1026
    1DIPC   NC3 4957   3.939  13.393   6.144  0.0202 -0.0604 -0.2129
    1DIPC   PO4 4958   3.848  12.992   6.056 -0.2694 -0.0143 -0.0603
    1DIPC   GL1 4959   3.949  13.125   5.674 -0.3225 -0.1622 -0.1724
    1DIPC   GL2 4960   3.952  13.524   5.616  0.0475  0.0069  0.2813
    1DIPC   C1A 4961   4.212  13.191   5.231  0.3268 -0.3447 -0.3622
    1DIPC   D2A 4962   4.417  13.141   4.887  0.0268  0.1395  0.2220
    1DIPC   D3A 4963   4.335  13.519   4.640  0.0257  0.0428  0.1247
    1DIPC   C4A 4964   4.562  13.764   4.736  0.1239  0.2538  0.3410
    1DIPC   C1B 4965   3.873  13.943   5.522  0.0632  0.0353  0.0194
    1DIPC   D2B 4966   4.058  14.218   5.279 -0.1302 -0.1067 -0.2017
    1DIPC   D3B 4967   4.374  14.384   5.419  0.0789 -0.1045 -0.0589
    1DIPC   C4B 4968   4.699  14.615   5.157 -0.1897 -0.1955  0.0034
    1DIPC   NC3 4969  12.102  25.357   6.329 -0.1312 -0.2855  0.0660
    1DIPC   PO4 4970  11.889  25.009   6.168  0.1025 -0.1339 -0.1234
    1DIPC   GL1 4971  11.909  25.191   5.818 -0.0851 -0.0750 -0.1057
    1DIPC   GL2 4972  11.840  25.478   5.950 -0.0092  0.0572 -0.0258
    1DIPC   C1A 4973  11.946  25.095   5.401 -0.0749 -0.0950  0.1326
    1DIPC   D2A 4974  11.734  25.307   5.070 -0.5060  0.0619  0.2173
    1DIPC   D3A 4975  11.629  25.711   5.020  0.0619  0.3267 -0.1700
    1DIPC   C4A 4976  11.197  25.798   5.110  0.1834 -0.2301 -0.0743
    1DIPC   C1B 4977  11.776  25.658   5.489  0.2434  0.0147  0.0820
    1DIPC   D2B 4978  12.017  25.918   5.230  0.0459 -0.1294  0.0627
    1DIPC   D3B 4979  12.098  25.670   4.875  0.1463 -0.0045  0.0754
    1DIPC   C4B 4980  12.320  25.257   4.937  0.0560  0.3128  0.2397
    1DIPC   NC3 4981  14.783   1.290   7.220 -0.1102  0.2522 -0.0203
    1DIPC   PO4 4982  15.189   1.110   7.224  0.1726  0.0626  0.0175
    1DIPC   GL1 4983  15.209   1.234   6.845  0.0370  0.3921 -0.1993
    1DIPC   GL2 4984  15.416   0.965   6.752 -0.1305  0.0729  0.2416
    1DIPC   C1A 4985  14.976   1.448   6.550  0.0343 -0.0286  0.1795
    1DIPC   D2A 4986  14.984   1.486   6.079  0.2711  0.1492 -0.2019
    1DIPC   D3A 4987  14.811   1.433   5.633  0.0247  0.1255 -0.3187
    1DIPC   C4A 4988  14.589   1.709   5.538  0.1100 -0.0040  0.0630
    1DIPC   C1B 4989  15.586   0.895   6.304 -0.0950 -0.0473  0.3990
    1DIPC   D2B 4990  15.407   1.070   5.993  0.0802 -0.2247  0.0948
    1DIPC   D3B 4991  15.565   0.896   5.678  0.1388  0.1823 -0.2623
    1DIPC   C4B 4992  15.859   0.685   5.910 -0.3431 -0.2431  0.0778
    1DIPC   NC3 4993  27.001   8.844   6.814 -0.0071 -0.0758 -0.2579
    1DIPC   PO4 4994  27.038   8.570   6.446  0.1417  0.1617 -0.0890
    1DIPC   GL1 4995  27.206   8.718   5.995 -0.0987 -0.1817  0.2483
    1DIPC   GL2 4996  27.041   9.043   5.927  0.1034 -0.0381 -0.1458
    1DIPC   C1A 4997  27.485   8.779   5.645  0.0076 -0.1603 -0.3309
    1DIPC   D2A 4998  27.886   8.756   5.282 -0.2329  0.1845  0.1305
    1DIPC   D3A 4999  28.106   8.672   4.929  0.4397  0.2522  0.1088
    1DIPC   C4A 5000  28.254   8.271   4.839 -0.2734 -0.1324 -0.0118
    1DIPC   C1B 5001  27.018   8.849   5.506  0.0937  0.1134  0.2110
    1DIPC   D2B 5002  26.922   8.823   5.046 -0.1594  0.0306  0.1134
    1DIPC   D3B 5003  27.203   8.904   4.703 -0.0042  0.1324 -0.3114
    1DIPC   C4B 5004  27.279   9.313   4.427  0.0544  0.4987 -0.4380
    1DIPC   NC3 5005   1.675   3.657   6.766 -0.1659 -0.1424 -0.0812
    1DIPC   PO4 5006   1.956   3.750   6.458  0.0188  0.0481  0.3003
    1DIPC   GL1 5007   1.812   3.475   6.128 -0.3337 -0.0980  0.0591
    1DIPC   GL2 5008   2.123   3.339   5.939 -0.2420  0.0571  0.0592
    1DIPC   C1A 5009   1.696   3.578   5.686 -0.1178  0.0275  0.1663
    1DIPC   D2A 5010   1.834   3.418   5.227  0.0765  0.0088 -0.1427
    1DIPC   D3A 5011   1.678   3.751   5.149 -0.3783  0.2663 -0.2435
    1DIPC   C4A 5012   1.486   3.987   5.491 -0.0253 -0.2239 -0.1126
    1DIPC   C1B 5013   1.899   3.154   5.686  0.0076  0.2250  0.1183
    1DIPC   D2B 5014   1.881   2.731   5.614 -0.0621 -0.2545  0.2415
    1DIPC   D3B 5015   1.688   2.598   5.228 -0.1395 -0.4262 -0.1523
    1DIPC   C4B 5016   1.631   2.247   4.989  0.1806 -0.3314  0.0724
    1DIPC   NC3 5017  18.605  29.492   6.369  0.1057  0.0708 -0.0223
    1DIPC   PO4 5018  19.006  29.727   6.363 -0.2630 -0.0733  0.2981
    1DIPC   GL1 5019  18.875  29.875   5.990  0.1018  0.3054 -0.0224
    1DIPC   GL2 5020  18.630  29.869   5.875  0.1988 -0.0233 -0.0257
    1DIPC   C1A 5021  18.937  29.637   5.565 -0.1078  0.1254  0.2026
    1DIPC   D2A 5022  18.987  29.966   5.191  0.2830 -0.2513  0.1989
    1DIPC   D3A 5023  18.916  30.183   5.628 -0.1657  0.1263  0.3292
    1DIPC   C4A 5024  19.057  30.588   5.909  0.3924 -0.1053 -0.3236
    1DIPC   C1B 5025  18.482  29.717   5.461  0.2414 -0.1115 -0.1007
    1DIPC   D2B 5026  18.095  29.751   5.332 -0.1229 -0.0179 -0.0136
    1DIPC   D3B 5027  18.118  29.974   4.945 -0.2092 -0.0087 -0.2269
    1DIPC   C4B 5028  18.433  30.160   5.142  0.4088  0.1376  0.1683
    1DIPC   NC3 5029   6.285  21.087   6.343  0.0649 -0.1569 -0.2119
    1DIPC   PO4 5030   6.388  20.951   5.889 -0.1488  0.1624 -0.2179
    1DIPC   GL1 5031   6.418  20.739   5.496  0.0392 -0.0864  0.0373
    1DIPC   GL2 5032   6.684  20.705   5.281  0.1081 -0.3624  0.1180
    1DIPC   C1A 5033   6.148  20.585   5.200  0.1830 -0.3013 -0.0368
    1DIPC   D2A 5034   5.796  20.696   5.093  0.1566 -0.4389  0.2755
    1DIPC   D3A 5035   5.390  20.631   5.329  0.0420 -0.3046  0.1992
    1DIPC   C4A 5036   5.186  20.341   5.198 -0.0812  0.0737 -0.1734
    1DIPC   C1B 5037   6.505  20.547   4.883  0.0796 -0.0597  0.1194
    1DIPC   D2B 5038   6.435  20.896   4.497  0.0080  0.0289 -0.0758
    1DIPC   D3B 5039   6.488  20.671   4.099 -0.1759  0.0603 -0.3123
    1DIPC   C4B 5040   6.128  20.378   3.899  0.1059  0.3778 -0.2102
    1DIPC   NC3 5041  14.203  26.206   7.451  0.0645  0.0306  0.1900
    1DIPC   PO4 5042  14.082  26.439   7.056  0.2462 -0.3272 -0.0535
    1DIPC   GL1 5043  14.438  26.423   6.684  0.0145  0.0248 -0.0260
    1DIPC   GL2 5044  14.157  26.329   6.536 -0.1736 -0.1963  0.0859
    1DIPC   C1A 5045  14.685  26.470   6.322  0.3345  0.4704  0.1055
    1DIPC   D2A 5046  15.029  26.275   6.056  0.2622 -0.1724  0.2059
    1DIPC   D3A 5047  15.025  26.639   5.842 -0.0777 -0.2094 -0.0089
    1DIPC   C4A 5048  15.250  26.645   5.395  0.1481 -0.0570 -0.4884
    1DIPC   C1B 5049  14.143  26.365   6.152 -0.4493  0.2470  0.3868
    1DIPC   D2B 5050  14.059  26.632   5.899  0.0733  0.0199  0.3619
    1DIPC   D3B 5051  13.835  26.569   5.511  0.0820  0.2937  0.0571
    1DIPC   C4B 5052  14.005  26.606   4.992  0.0334  0.1309 -0.2806
    1DIPC   NC3 5053  10.243  26.663   6.383  0.3008 -0.1272  0.1044
    1DIPC   PO4 5054  10.504  26.996   6.531 -0.2829  0.1765  0.1409
    1DIPC   GL1 5055  10.614  26.908   6.128 -0.2037 -0.2569 -0.2008
    1DIPC   GL2 5056  10.386  27.115   5.996  0.4649 -0.0438  0.1704
    1DIPC   C1A 5057  10.771  27.072   5.756  0.0640  0.0189 -0.2748
    1DIPC   D2A 5058  10.767  27.356   5.455  0.0929 -0.1430 -0.0457
    1DIPC   D3A 5059  10.869  27.337   4.983  0.2767  0.1830  0.0559
    1DIPC   C4A 5060  11.240  27.110   4.927  0.0999 -0.0985 -0.0268
    1DIPC   C1B 5061  10.317  26.890   5.626 -0.3196 -0.2838  0.0868
    1DIPC   D2B 5062  10.411  27.035   5.235  0.6012  0.0858 -0.0019
    1DIPC   D3B 5063  10.161  27.446   5.226 -0.3341  0.1902 -0.1957
    1DIPC   C4B 5064  10.008  27.505   4.784 -0.0405 -0.2298 -0.2079
    1DIPC   NC3 5065  10.634  27.708   6.995  0.2199  0.0912 -0.0324
    1DIPC   PO4 5066  10.900  27.306   6.925  0.0505 -0.1455 -0.0405
    1DIPC   GL1 5067  10.991  27.509   6.518  0.0455 -0.4929  0.1706
    1DIPC   GL2 5068  10.841  27.344   6.262 -0.2734  0.0864  0.1666
    1DIPC   C1A 5069  11.176  27.756   6.191  0.0316  0.0480  0.2361
    1DIPC   D2A 5070  11.368  28.060   5.861  0.1377 -0.1520  0.2364
    1DIPC   D3A 5071  11.381  28.095   5.427  0.0872 -0.2845  0.2577
    1DIPC   C4A 5072  11.633  27.816   5.204  0.2848  0.1335  0.0045
    1DIPC   C1B 5073  10.806  27.571   5.903  0.2311 -0.1803 -0.1072
    1DIPC   D2B 5074  10.931  27.864   5.628  0.1693  0.0564  0.0139
    1DIPC   D3B 5075  10.915  28.269   5.309  0.0818  0.0337 -0.0551
    1DIPC   C4B 5076  10.667  28.622   5.319 -0.2908 -0.0161 -0.2818
    1DIPC   NC3 5077  28.850   7.194   6.741 -0.1155  0.0750  0.0484
    1DIPC   PO4 5078  29.127   7.398   6.498  0.3344 -0.0369 -0.0117
    1DIPC   GL1 5079  29.292   7.351   6.143 -0.2627 -0.3232 -0.2224
    1DIPC   GL2 5080  29.360   6.997   6.121 -0.0802  0.2288  0.0885
    1DIPC   C1A 5081  29.641   7.422   5.884 -0.0738 -0.4732  0.3376
    1DIPC   D2A 5082  29.739   7.440   5.534  0.1153  0.0977 -0.0087
    1DIPC   D3A 5083  29.429   7.418   5.271  0.0623  0.1955  0.1780
    1DIPC   C4A 5084  29.088   7.313   5.620 -0.4222  0.1268  0.2017
    1DIPC   C1B 5085  29.289   6.826   5.740  0.1736  0.1918 -0.0522
    1DIPC   D2B 5086  29.107   6.852   5.306  0.2623 -0.1334  0.0935
    1DIPC   D3B 5087  29.365   7.008   4.957  0.2057 -0.2435  0.0686
    1DIPC   C4B 5088  29.262   6.763   4.553 -0.0971 -0.1170 -0.1620
    1DIPC   NC3 5089  23.733   8.365   7.060 -0.2640  0.0339 -0.0168
    1DIPC   PO4 5090  23.676   8.734   6.862 -0.3267 -0.2670  0.1680
    1DIPC   GL1 5091  23.782   8.640   6.445 -0.1570  0.1875  0.4113
    1DIPC   GL2 5092  23.748   8.256   6.506  0.1867 -0.0003  0.2121
    1DIPC   C1A 5093  23.474   8.546   6.085 -0.0744 -0.0621  0.1442
    1DIPC   D2A 5094  23.355   8.274   5.726  0.0748 -0.0830 -0.1032
    1DIPC   D3A 5095  23.239   8.617   5.613  0.0123  0.0561 -0.0820
    1DIPC   C4A 5096  23.126   8.978   5.848 -0.3940  0.0074 -0.2236
    1DIPC   C1B 5097  23.842   8.185   6.056  0.0151  0.1225  0.4509
    1DIPC   D2B 5098  23.967   7.919   5.642 -0.4394  0.2811  0.0619
    1DIPC   D3B 5099  23.683   7.967   5.236  0.0846  0.1688  0.0793
    1DIPC   C4B 5100  23.522   8.505   5.250  0.0833 -0.0667 -0.2609
    1DIPC   NC3 5101   2.610  26.234   5.958  0.1805 -0.1625  0.1576
    1DIPC   PO4 5102   2.855  26.572   5.674  0.0800  0.3733 -0.1033
    1DIPC   GL1 5103   2.725  26.519   5.377  0.0873 -0.0228  0.1526
    1DIPC   GL2 5104   2.507  26.291   5.388 -0.2231  0.3173 -0.1673
    1DIPC   C1A 5105   2.653  26.765   5.046  0.0654 -0.0588  0.0768
    1DIPC   D2A 5106   2.499  27.043   4.717 -0.1517  0.0474  0.1817
    1DIPC   D3A 5107   2.895  26.753   4.451  0.2036 -0.0452  0.0933
    1DIPC   C4A 5108   3.154  27.007   4.464  0.2583 -0.2542 -0.1697
    1DIPC   C1B 5109   2.394  26.313   5.048  0.1013  0.1033 -0.0711
    1DIPC   D2B 5110   2.391  26.537   4.699 -0.2189 -0.3375 -0.0241
    1DIPC   D3B 5111   1.909  26.432   4.584 -0.1427  0.1706 -0.1485
    1DIPC   C4B 5112   1.783  26.190   4.873  0.0093  0.4391  0.1502
    1DIPC   NC3 5113   2.488  14.974   6.397  0.1759 -0.1877  0.0536
    1DIPC   PO4 5114   2.784  14.967   6.106 -0.1718  0.2374  0.0163
    1DIPC   GL1 5115   2.783  14.917   5.737  0.1256  0.2194 -0.2130
    1DIPC   GL2 5116   3.036  14.976   5.494  0.1337 -0.1636 -0.2779
    1DIPC   C1A 5117   2.556  15.060   5.423  0.1699 -0.0994 -0.1812
    1DIPC   D2A 5118   2.583  15.041   4.959 -0.2219 -0.1956 -0.0530
    1DIPC   D3A 5119   2.476  15.088   4.491 -0.0350  0.1462  0.2010
    1DIPC   C4A 5120   2.686  15.444   4.246 -0.3073  0.1033 -0.3354
    1DIPC   C1B 5121   3.023  15.139   5.078  0.2569 -0.0201  0.0164
    1DIPC   D2B 5122   2.897  15.343   4.758  0.0153 -0.0801  0.1917
    1DIPC   D3B 5123   3.351  15.183   4.652  0.1407 -0.1697 -0.2058
    1DIPC   C4B 5124   3.509  14.756   4.579  0.0487  0.1920 -0.3346
    1DIPC   NC3 5125  25.905   9.755   7.143 -0.1768 -0.2679 -0.0539
    1DIPC   PO4 5126  25.547   9.450   6.873  0.3339  0.1493  0.1900
    1DIPC   GL1 5127  25.387   9.561   6.511 -0.1045  0.0067 -0.2871
    1DIPC   GL2 5128  25.545   9.460   6.201  0.0033 -0.1349 -0.4886
    1DIPC   C1A 5129  24.933   9.537   6.285  0.1730  0.1552 -0.2778
    1DIPC   D2A 5130  24.524   9.515   6.161 -0.0474  0.0975 -0.2426
    1DIPC   D3A 5131  24.447   9.163   6.075 -0.0170  0.0001  0.0795
    1DIPC   C4A 5132  24.762   8.754   5.981 -0.5792 -0.0455  0.1861
    1DIPC   C1B 5133  25.356   9.891   6.069 -0.4580  0.1663  0.0087
    1DIPC   D2B 5134  25.082  10.309   5.949 -0.0043 -0.2551 -0.1643
    1DIPC   D3B 5135  24.779  10.315   5.666  0.1447 -0.0981 -0.1271
    1DIPC   C4B 5136  24.821  10.110   5.284  0.2794 -0.1344  0.2006
    1DIPC   NC3 5137  28.402  23.473   6.659 -0.3024 -0.1794 -0.1800
    1DIPC   PO4 5138  28.127  23.206   6.421  0.2039  0.1152 -0.0138
    1DIPC   GL1 5139  28.163  23.450   6.040 -0.2333  0.0726 -0.1918
    1DIPC   GL2 5140  27.921  23.436   5.733 -0.3340 -0.2449 -0.3862
    1DIPC   C1A 5141  28.419  23.331   5.736  0.4331 -0.2738 -0.1068
    1DIPC   D2A 5142  28.510  23.640   5.423  0.1031 -0.2586  0.1590
    1DIPC   D3A 5143  28.474  23.669   5.043 -0.0324  0.0871 -0.0357
    1DIPC   C4A 5144  28.582  24.103   4.952  0.0753 -0.2500  0.1521
    1DIPC   C1B 5145  27.990  23.699   5.390  0.0053 -0.1824  0.0814
    1DIPC   D2B 5146  27.759  24.061   5.443  0.2402 -0.1787  0.1062
    1DIPC   D3B 5147  27.478  24.204   5.106  0.1592  0.0056  0.2442
    1DIPC   C4B 5148  27.041  24.375   5.208 -0.1360  0.0138 -0.1236
    1DIPC   NC3 5149   3.334  22.030   5.865  0.4330  0.1576 -0.0705
    1DIPC   PO4 5150   3.701  22.306   5.892 -0.1192 -0.3971  0.2156
    1DIPC   GL1 5151   3.643  22.388   5.399 -0.1951 -0.0274  0.2511
    1DIPC   GL2 5152   3.335  22.302   5.335  0.1325 -0.0054 -0.1542
    1DIPC   C1A 5153   3.886  22.615   5.030  0.0836  0.0173 -0.1719
    1DIPC   D2A 5154   4.267  22.714   4.834 -0.0143 -0.1462  0.3237
    1DIPC   D3A 5155   4.414  23.076   4.711  0.3193  0.0075  0.1545
    1DIPC   C4A 5156   4.061  23.388   4.569 -0.2772 -0.0740 -0.1050
    1DIPC   C1B 5157   3.154  22.087   4.972  0.0986 -0.0461  0.0244
    1DIPC   D2B 5158   3.220  22.001   4.513  0.0302  0.1997  0.2462
    1DIPC   D3B 5159   3.275  21.644   4.187 -0.1473 -0.0121 -0.3505
    1DIPC   C4B 5160   3.717  21.462   3.978  0.2770 -0.1434 -0.1878
    1DIPC   NC3 5161   1.280  17.512   6.398 -0.1513  0.2024  0.2365
    1DIPC   PO4 5162   1.099  17.013   6.444 -0.1218  0.4198 -0.1095
    1DIPC   GL1 5163   1.295  17.160   6.020 -0.4414 -0.4955 -0.0039
    1DIPC   GL2 5164   1.576  17.256   5.987 -0.1041  0.0880 -0.1101
    1DIPC   C1A 5165   0.979  17.287   5.666  0.2555  0.3893  0.1914
    1DIPC   D2A 5166   0.825  17.459   5.323 -0.1154 -0.1308 -0.1335
    1DIPC   D3A 5167   0.829  17.463   4.824 -0.1835 -0.2461  0.0384
    1DIPC   C4A 5168   1.146  17.580   4.542 -0.0109 -0.0165  0.3514
    1DIPC   C1B 5169   1.656  17.144   5.594  0.1097  0.2699  0.0540
    1DIPC   D2B 5170   1.697  16.880   5.229 -0.2757  0.0414  0.1717
    1DIPC   D3B 5171   1.710  16.914   4.715  0.1741  0.2014  0.2675
    1DIPC   C4B 5172   2.093  16.744   4.450 -0.0177 -0.0472  0.2421
    1DIPC   NC3 5173   8.198  20.954   6.098 -0.0323  0.1992 -0.3013
    1DIPC   PO4 5174   8.718  21.049   6.112  0.0303 -0.1442 -0.2186
    1DIPC   GL1 5175   8.569  21.019   5.693  0.0357  0.1017 -0.0601
    1DIPC   GL2 5176   8.787  21.091   5.485  0.3154 -0.2109  0.2528
    1DIPC   C1A 5177   8.451  20.740   5.272  0.1745 -0.2126  0.3311
    1DIPC   D2A 5178   8.279  20.473   5.026  0.1226  0.2855  0.1289
    1DIPC   D3A 5179   8.248  20.547   4.548  0.1001 -0.2332 -0.1559
    1DIPC   C4A 5180   8.301  20.941   4.296 -0.4405 -0.2335 -0.0820
    1DIPC   C1B 5181   8.841  21.241   5.057  0.1046  0.0668 -0.0655
    1DIPC   D2B 5182   9.044  21.049   4.760  0.1530  0.2153  0.2250
    1DIPC   D3B 5183   8.863  20.683   4.841  0.1998 -0.0387  0.1706
    1DIPC   C4B 5184   9.032  20.415   5.025  0.1240  0.2269  0.0211
    1DIPC   NC3 5185   3.157  17.545   5.639  0.0605  0.0734 -0.2375
    1DIPC   PO4 5186   3.445  17.355   5.414  0.1268  0.2187 -0.1610
    1DIPC   GL1 5187   3.753  17.414   5.131 -0.2152  0.2460  0.3957
    1DIPC   GL2 5188   4.106  17.482   5.251 -0.0746 -0.0874 -0.0308
    1DIPC   C1A 5189   3.765  17.368   4.722 -0.0422 -0.1109  0.1777
    1DIPC   D2A 5190   3.721  17.152   4.234 -0.1363 -0.0525  0.1026
    1DIPC   D3A 5191   4.204  17.081   4.326 -0.1929 -0.2850 -0.2524
    1DIPC   C4A 5192   4.292  17.390   4.648 -0.0319 -0.0648 -0.2342
    1DIPC   C1B 5193   4.381  17.258   5.191 -0.2146 -0.3568  0.1341
    1DIPC   D2B 5194   4.448  16.918   4.841  0.1159  0.0281 -0.1228
    1DIPC   D3B 5195   4.741  16.621   5.095  0.3933 -0.4073  0.2241
    1DIPC   C4B 5196   5.085  16.404   4.965 -0.1901 -0.0161 -0.1617
    1DIPC   NC3 5197  28.924   6.278   6.669 -0.1646  0.2246  0.0059
    1DIPC   PO4 5198  29.409   6.336   6.762 -0.1509 -0.0083  0.0005
    1DIPC   GL1 5199  29.540   6.235   6.267  0.1011 -0.0157 -0.1043
    1DIPC   GL2 5200  29.271   6.241   6.155 -0.0387  0.0720  0.1683
    1DIPC   C1A 5201  29.606   6.432   5.899 -0.0723 -0.0096  0.1007
    1DIPC   D2A 5202  29.797   6.419   5.487 -0.0588 -0.2803  0.0150
    1DIPC   D3A 5203  29.529   6.538   5.260  0.1195  0.0932 -0.0257
    1DIPC   C4A 5204  29.544   6.443   4.842  0.1515  0.0737  0.0390
    1DIPC   C1B 5205  29.314   6.086   5.721  0.1413 -0.3357 -0.0225
    1DIPC   D2B 5206  29.306   6.077   5.243 -0.0615 -0.0868  0.0838
    1DIPC   D3B 5207  29.151   5.697   4.992  0.2375  0.0841  0.1594
    1DIPC   C4B 5208  29.134   5.298   4.807 -0.1653 -0.3089 -0.0881
    1DIPC   NC3 5209  25.306  27.992   7.407 -0.2806 -0.0850  0.4269
    1DIPC   PO4 5210  25.224  27.747   6.942  0.0667 -0.1681 -0.2762
    1DIPC   GL1 5211  25.070  27.815   6.441  0.2265 -0.0332  0.0483
    1DIPC   GL2 5212  25.078  27.594   6.262  0.1693 -0.5140 -0.1847
    1DIPC   C1A 5213  25.081  28.070   6.063  0.0213 -0.1259  0.2591
    1DIPC   D2A 5214  24.995  28.132   5.489  0.0070 -0.3540  0.1502
    1DIPC   D3A 5215  24.984  27.907   5.100 -0.2224 -0.2028 -0.0933
    1DIPC   C4A 5216  25.270  28.048   4.885 -0.1363  0.3582 -0.1519
    1DIPC   C1B 5217  25.022  27.594   5.702  0.3547 -0.3022  0.0120
    1DIPC   D2B 5218  24.770  27.521   5.314  0.2483 -0.1244  0.1323
    1DIPC   D3B 5219  24.368  27.405   5.159 -0.0372 -0.0487 -0.0485
    1DIPC   C4B 5220  24.138  27.141   5.423  0.1264 -0.0296 -0.1859
    1DIPC   NC3 5221   9.914   4.574   6.919 -0.1937  0.0244  0.1546
    1DIPC   PO4 5222   9.896   4.158   6.952 -0.1592  0.2470  0.0482
    1DIPC   GL1 5223   9.656   3.892   6.701 -0.0105  0.1491  0.3626
    1DIPC   GL2 5224   9.434   3.932   6.471  0.3663 -0.0261  0.2526
    1DIPC   C1A 5225   9.835   3.780   6.238 -0.1393 -0.4841  0.0611
    1DIPC   D2A 5226   9.619   3.416   5.906  0.3515 -0.0625 -0.0254
    1DIPC   D3A 5227   9.504   3.103   5.545 -0.0456  0.2990  0.1314
    1DIPC   C4A 5228   9.086   2.843   5.534  0.0155 -0.1551 -0.0605
    1DIPC   C1B 5229   9.206   3.827   6.085 -0.0989 -0.3808  0.0985
    1DIPC   D2B 5230   9.116   3.783   5.684 -0.0573 -0.3177 -0.4480
    1DIPC   D3B 5231   9.226   3.860   5.347  0.1239 -0.0886  0.2332
    1DIPC   C4B 5232   9.403   4.198   5.233 -0.1996  0.0129  0.2606
    1DIPC   NC3 5233  20.980   3.310   6.439 -0.2391 -0.2595  0.1388
    1DIPC   PO4 5234  20.753   2.916   6.687 -0.3771  0.0241 -0.1333
    1DIPC   GL1 5235  20.886   2.799   6.216  0.1755  0.0014 -0.1474
    1DIPC   GL2 5236  21.094   2.582   6.193 -0.3132  0.0712 -0.1443
    1DIPC   C1A 5237  20.830   2.728   5.725 -0.1314  0.3636  0.0370
    1DIPC   D2A 5238  20.916   2.488   5.390 -0.1587 -0.0820  0.2306
    1DIPC   D3A 5239  20.858   2.582   4.973  0.3066 -0.0537  0.0718
    1DIPC   C4A 5240  20.532   2.687   4.681 -0.0237 -0.0300  0.1813
    1DIPC   C1B 5241  21.080   2.238   5.896 -0.0466 -0.0440  0.5856
    1DIPC   D2B 5242  20.815   2.029   5.515 -0.2206 -0.0260  0.1948
    1DIPC   D3B 5243  20.980   2.086   5.024  0.1316 -0.0159 -0.0263
    1DIPC   C4B 5244  20.687   2.218   4.729  0.2001  0.0047  0.1425
    1DIPC   NC3 5245   8.755  21.524   5.863  0.1660 -0.1070 -0.3806
    1DIPC   PO4 5246   8.278  21.421   5.712 -0.0771  0.0842  0.2013
    1DIPC   GL1 5247   8.414  21.393   5.368 -0.2989  0.0022  0.2292
    1DIPC   GL2 5248   8.282  21.235   5.196 -0.2081  0.1497  0.1382
    1DIPC   C1A 5249   8.544  21.597   4.979 -0.1064  0.0902 -0.1899
    1DIPC   D2A 5250   8.572  21.745   4.658  0.1413  0.1423  0.0073
    1DIPC   D3A 5251   8.596  21.290   4.545  0.1251  0.0963  0.1039
    1DIPC   C4A 5252   8.499  20.969   4.797  0.2232 -0.0343 -0.1735
    1DIPC   C1B 5253   8.138  21.386   4.826  0.0041  0.2772 -0.0103
    1DIPC   D2B 5254   7.933  21.170   4.561  0.2639  0.1603 -0.1990
    1DIPC   D3B 5255   7.616  20.852   4.674  0.0645  0.0418 -0.1370
    1DIPC   C4B 5256   7.314  20.782   4.356 -0.0054 -0.1673 -0.1961
    1DIPC   NC3 5257   8.729  26.915   6.489 -0.0274 -0.5090  0.0459
    1DIPC   PO4 5258   8.934  27.229   6.557 -0.0034  0.0656  0.0082
    1DIPC   GL1 5259   9.136  27.232   6.192  0.1005 -0.2559 -0.1335
    1DIPC   GL2 5260   9.464  27.313   6.188  0.0202 -0.0151  0.0960
    1DIPC   C1A 5261   9.339  27.269   5.680  0.0548  0.0074  0.1178
    1DIPC   D2A 5262   9.459  27.401   5.308  0.2702 -0.1509 -0.1966
    1DIPC   D3A 5263   9.764  27.151   5.047 -0.1700  0.1198  0.1136
    1DIPC   C4A 5264   9.695  27.115   4.606  0.3505 -0.0883 -0.2656
    1DIPC   C1B 5265   9.932  27.481   6.111 -0.1240  0.2738  0.1268
    1DIPC   D2B 5266  10.222  27.582   5.806  0.3440 -0.1025  0.0615
    1DIPC   D3B 5267  10.454  27.726   5.568  0.0837  0.2784  0.0904
    1DIPC   C4B 5268  10.224  27.949   5.307 -0.1823 -0.0745 -0.0769
    1DIPC   NC3 5269   1.734   6.774   7.091  0.2506 -0.2448  0.1164
    1DIPC   PO4 5270   2.032   7.040   6.918  0.1058 -0.0488 -0.1412
    1DIPC   GL1 5271   1.876   6.902   6.534 -0.0045  0.0826  0.1495
    1DIPC   GL2 5272   1.619   6.787   6.316  0.0201 -0.0177  0.1072
    1DIPC   C1A 5273   1.905   7.193   6.128  0.3343 -0.0222 -0.2097
    1DIPC   D2A 5274   2.315   7.471   6.031 -0.2772 -0.0281 -0.0566
    1DIPC   D3A 5275   2.620   7.234   5.659 -0.2178 -0.2708 -0.1014
    1DIPC   C4A 5276   2.402   7.126   5.292  0.0822 -0.0312 -0.0734
    1DIPC   C1B 5277   1.746   6.812   5.863 -0.2991 -0.1890  0.2027
    1DIPC   D2B 5278   1.938   7.022   5.682 -0.3072 -0.2169 -0.0921
    1DIPC   D3B 5279   1.621   7.216   5.668 -0.3786  0.1349 -0.3231
    1DIPC   C4B 5280   1.543   7.273   5.135  0.1935  0.0907 -0.1415
    1DIPC   NC3 5281  22.493  11.166   6.442 -0.3502  0.0097 -0.1922
    1DIPC   PO4 5282  22.059  11.297   6.291 -0.2035 -0.2148 -0.0245
    1DIPC   GL1 5283  22.092  11.099   5.830 -0.0891  0.2151 -0.0944
    1DIPC   GL2 5284  22.070  10.688   5.869 -0.0177 -0.0876  0.2368
    1DIPC   C1A 5285  21.749  11.086   5.451 -0.1114  0.1554  0.1467
    1DIPC   D2A 5286  21.796  10.951   5.065 -0.3348 -0.1098 -0.1414
    1DIPC   D3A 5287  21.607  11.103   4.568 -0.1662 -0.0062  0.0146
    1DIPC   C4A 5288  21.786  10.944   4.145  0.0598 -0.1768  0.2248
    1DIPC   C1B 5289  22.095  10.654   5.398 -0.0027  0.1816 -0.0776
    1DIPC   D2B 5290  22.228  10.629   4.943  0.3726 -0.0827 -0.3908
    1DIPC   D3B 5291  22.530  10.606   4.704  0.0663  0.0504 -0.0822
    1DIPC   C4B 5292  22.511  10.315   4.347  0.0369  0.0542  0.0646
    1DIPC   NC3 5293  10.275   3.965   7.440 -0.0767 -0.1458  0.0509
    1DIPC   PO4 5294  10.416   3.910   7.081 -0.0805 -0.0838 -0.2220
    1DIPC   GL1 5295  10.267   3.770   6.642 -0.2168 -0.0388 -0.0057
    1DIPC   GL2 5296  10.081   3.562   6.557  0.0880  0.0940  0.0225
    1DIPC   C1A 5297  10.569   3.501   6.391 -0.0713  0.1215  0.0837
    1DIPC   D2A 5298  10.659   3.350   6.064  0.0620 -0.2340  0.0513
    1DIPC   D3A 5299  10.993   3.581   5.740  0.0452  0.1391  0.0922
    1DIPC   C4A 5300  11.403   3.631   5.713  0.3232  0.0956 -0.0464
    1DIPC   C1B 5301  10.145   3.341   6.184 -0.0482 -0.1312  0.1608
    1DIPC   D2B 5302  10.100   3.322   5.664  0.0580 -0.2855 -0.1781
    1DIPC   D3B 5303   9.792   3.473   5.438 -0.0102  0.1343  0.2866
    1DIPC   C4B 5304   9.805   3.812   5.274 -0.3040  0.3884  0.0192
    1DIPC   NC3 5305   1.079   6.680   6.566  0.2604 -0.1449  0.3933
    1DIPC   PO4 5306   1.458   6.495   6.799 -0.1008  0.1412  0.0187
    1DIPC   GL1 5307   1.533   6.258   6.435 -0.0679 -0.2036 -0.1244
    1DIPC   GL2 5308   1.852   6.389   6.471 -0.1870 -0.1187  0.0190
    1DIPC   C1A 5309   1.568   6.284   6.006  0.0530  0.0903  0.0099
    1DIPC   D2A 5310   1.802   6.372   5.597 -0.1092  0.3275  0.2157
    1DIPC   D3A 5311   1.991   6.121   5.282 -0.1960  0.0199  0.1126
    1DIPC   C4A 5312   1.897   5.726   5.129  0.1701 -0.1312 -0.3426
    1DIPC   C1B 5313   2.135   6.646   6.211  0.2491 -0.0833 -0.0387
    1DIPC   D2B 5314   2.272   6.900   6.060  0.4628  0.2716 -0.4106
    1DIPC   D3B 5315   2.243   6.638   5.701  0.0704 -0.3305 -0.3082
    1DIPC   C4B 5316   2.071   6.701   5.286  0.2802  0.3898  0.0815
    1DIPC   NC3 5317   0.582   6.179   6.665  0.1730  0.0479 -0.1169
    1DIPC   PO4 5318   0.601   6.608   6.558 -0.4775  0.1250  0.3658
    1DIPC   GL1 5319   0.669   6.626   6.187  0.1486  0.3324  0.1659
    1DIPC   GL2 5320   0.738   6.281   6.175 -0.1876  0.0221 -0.0166
    1DIPC   C1A 5321   0.762   6.807   5.711 -0.1981  0.1439  0.1861
    1DIPC   D2A 5322   1.001   6.855   5.259 -0.4121 -0.0423  0.2088
    1DIPC   D3A 5323   1.335   6.866   5.407  0.1781 -0.0469 -0.1959
    1DIPC   C4A 5324   1.257   6.647   5.759  0.1299  0.0561 -0.2860
    1DIPC   C1B 5325   0.904   6.300   5.901  0.0373 -0.2156  0.1508
    1DIPC   D2B 5326   0.760   6.317   5.515 -0.0744 -0.0446 -0.2526
    1DIPC   D3B 5327   1.037   6.285   5.236 -0.2028 -0.3314  0.0637
    1DIPC   C4B 5328   1.517   6.483   5.175  0.2274  0.1567  0.2010
    1DIPC   NC3 5329  19.263  19.858   6.798  0.1992  0.1458 -0.2289
    1DIPC   PO4 5330  18.832  19.500   6.744  0.4740  0.0815 -0.2389
    1DIPC   GL1 5331  18.648  19.520   6.375 -0.0291  0.3234  0.3664
    1DIPC   GL2 5332  18.349  19.659   6.226  0.1663 -0.0932  0.2285
    1DIPC   C1A 5333  18.743  19.314   6.105 -0.2424 -0.0154  0.2222
    1DIPC   D2A 5334  18.966  19.324   5.681  0.1753 -0.1472 -0.2243
    1DIPC   D3A 5335  18.953  19.676   5.493  0.0614 -0.2027 -0.3911
    1DIPC   C4A 5336  19.304  19.589   5.133 -0.2656 -0.1654  0.0052
    1DIPC   C1B 5337  18.020  19.949   6.281 -0.1605  0.1491 -0.1427
    1DIPC   D2B 5338  17.881  20.268   6.493  0.0702 -0.0783  0.3758
    1DIPC   D3B 5339  18.068  20.386   6.049  0.2689  0.0871 -0.1046
    1DIPC   C4B 5340  17.959  20.744   5.996  0.0997 -0.1422  0.2530
    1DIPC   NC3 5341  28.620   2.963   6.568  0.3136  0.0999  0.0965
    1DIPC   PO4 5342  28.460   3.448   6.586 -0.0433 -0.0075 -0.0948
    1DIPC   GL1 5343  28.469   3.286   6.157 -0.1964 -0.0537 -0.0570
    1DIPC   GL2 5344  28.716   3.062   5.933 -0.0630 -0.0179  0.0403
    1DIPC   C1A 5345  28.388   3.567   5.778  0.2334  0.4101 -0.0347
    1DIPC   D2A 5346  28.543   3.864   5.488  0.0138  0.1188 -0.1051
    1DIPC   D3A 5347  28.747   3.612   5.272  0.1747  0.3027  0.2141
    1DIPC   C4A 5348  28.432   3.303   5.253  0.0048  0.1624  0.1790
    1DIPC   C1B 5349  28.794   3.228   5.610 -0.1040  0.2078  0.1156
    1DIPC   D2B 5350  29.155   3.492   5.528  0.1492  0.1406 -0.1441
    1DIPC   D3B 5351  29.069   3.943   5.573  0.1572 -0.1335 -0.4289
    1DIPC   C4B 5352  29.434   4.178   5.819 -0.3238 -0.0397  0.1871
    1DIPC   NC3 5353   9.437  27.798   7.145  0.1831  0.0694  0.0416
    1DIPC   PO4 5354   9.024  27.880   7.045 -0.2125  0.2892  0.2354
    1DIPC   GL1 5355   9.264  27.984   6.614  0.0711 -0.1389  0.2546
    1DIPC   GL2 5356   9.192  27.651   6.511  0.0003  0.0946  0.1177
    1DIPC   C1A 5357   9.320  28.196   6.207 -0.0322  0.0157  0.2110
    1DIPC   D2A 5358   9.609  28.334   5.966 -0.1668  0.0232  0.2029
    1DIPC   D3A 5359   9.748  28.673   5.716  0.2339 -0.0688  0.1458
    1DIPC   C4A 5360   9.726  28.714   5.258 -0.0945 -0.0866  0.0859
    1DIPC   C1B 5361   8.830  27.920   6.320 -0.1283  0.0713 -0.2060
    1DIPC   D2B 5362   8.864  28.107   5.895  0.2455 -0.2143 -0.1711
    1DIPC   D3B 5363   8.731  27.817   5.621  0.1449 -0.0512  0.0377
    1DIPC   C4B 5364   8.386  27.850   5.349  0.1877 -0.0290  0.1009
    1DIPC   NC3 5365  16.368  27.248   7.497  0.3769 -0.1268 -0.1452
    1DIPC   PO4 5366  16.632  27.222   7.067  0.1135 -0.3150 -0.0130
    1DIPC   GL1 5367  16.546  27.233   6.634  0.1539  0.2796 -0.1180
    1DIPC   GL2 5368  16.390  27.161   6.322  0.0554 -0.1812 -0.2360
    1DIPC   C1A 5369  16.879  27.212   6.300  0.0139  0.0002  0.1107
    1DIPC   D2A 5370  17.192  26.960   6.057 -0.0015 -0.2272  0.0469
    1DIPC   D3A 5371  17.341  27.091   5.659 -0.3356 -0.1648 -0.2632
    1DIPC   C4A 5372  17.441  26.986   5.262  0.2450 -0.3777  0.0619
    1DIPC   C1B 5373  16.456  27.224   6.012 -0.0495 -0.1628  0.3110
    1DIPC   D2B 5374  16.805  27.008   5.734  0.0143 -0.0348  0.1480
    1DIPC   D3B 5375  17.052  26.693   5.626  0.1209  0.1352 -0.0670
    1DIPC   C4B 5376  16.785  26.462   5.248 -0.0871 -0.0370 -0.2938
    1DIPC   NC3 5377   6.391  19.956   5.931 -0.1615 -0.0765  0.1799
    1DIPC   PO4 5378   6.817  19.963   5.910 -0.0041  0.2111  0.0715
    1DIPC   GL1 5379   6.780  19.923   5.418  0.0579  0.1926  0.0483
    1DIPC   GL2 5380   7.055  19.964   5.181 -0.4250 -0.0090 -0.0625
    1DIPC   C1A 5381   6.572  19.873   5.070 -0.3142 -0.0062 -0.1931
    1DIPC   D2A 5382   6.503  19.889   4.545  0.2101  0.0034  0.1987
    1DIPC   D3A 5383   6.399  20.257   4.464  0.1720 -0.2103  0.1106
    1DIPC   C4A 5384   6.073  20.456   4.506  0.0453 -0.1197  0.0188
    1DIPC   C1B 5385   6.921  20.156   4.788 -0.0416  0.0802  0.0421
    1DIPC   D2B 5386   6.973  20.596   4.655 -0.2073 -0.3677  0.2146
    1DIPC   D3B 5387   7.125  20.531   5.002  0.0231  0.1538 -0.0502
    1DIPC   C4B 5388   7.284  20.891   5.138  0.0705  0.0208 -0.3530
    1DIPC   NC3 5389  21.092  21.430   7.143 -0.2327 -0.1382 -0.1593
    1DIPC   PO4 5390  21.022  21.769   7.308 -0.1438  0.1030  0.3183
    1DIPC   GL1 5391  20.818  21.827   6.927  0.0888  0.0279  0.2234
    1DIPC   GL2 5392  21.105  21.827   6.709  0.1740  0.0746  0.0750
    1DIPC   C1A 5393  20.678  21.900   6.492  0.0003  0.0963 -0.0022
    1DIPC   D2A 5394  20.292  21.969   6.411 -0.0261 -0.3703 -0.0582
    1DIPC   D3A 5395  20.340  22.254   6.124 -0.2445  0.0769 -0.1664
    1DIPC   C4A 5396  20.095  22.625   6.070 -0.1624  0.3599 -0.2547
    1DIPC   C1B 5397  21.132  21.924   6.328 -0.1969  0.0465 -0.1994
    1DIPC   D2B 5398  21.186  22.136   5.931 -0.1976 -0.2634  0.0780
    1DIPC   D3B 5399  20.874  22.338   6.193  0.1631 -0.1644 -0.0665
    1DIPC   C4B 5400  20.604  22.645   6.044 -0.2884 -0.1646 -0.1975
    1DIPC   NC3 5401  11.125   0.025   6.903 -0.0718 -0.0907 -0.0120
    1DIPC   PO4 5402  10.871  -0.209   7.228 -0.4132 -0.2890  0.1700
    1DIPC   GL1 5403  10.803  -0.461   6.929  0.1384 -0.4422 -0.2194
    1DIPC   GL2 5404  10.491  -0.276   6.847 -0.2784 -0.0164  0.1016
    1DIPC   C1A 5405  10.820  -0.604   6.537 -0.2122  0.0201  0.2115
    1DIPC   D2A 5406  11.155  -0.672   6.131  0.0038  0.1843 -0.2609
    1DIPC   D3A 5407  10.949  -0.834   5.712  0.3546 -0.0391 -0.1833
    1DIPC   C4A 5408  11.125  -0.865   5.350  0.2655  0.0808  0.1419
    1DIPC   C1B 5409  10.397  -0.310   6.473  0.0092  0.0909 -0.1593
    1DIPC   D2B 5410  10.438  -0.384   6.095 -0.0012  0.3859  0.1752
    1DIPC   D3B 5411  10.441  -0.156   5.727 -0.0881 -0.3311  0.1797
    1DIPC   C4B 5412  10.817   0.126   5.717  0.1019 -0.1769  0.1413
    1DIPC   NC3 5413  29.819  25.625   6.166  0.1667 -0.1958 -0.0623
    1DIPC   PO4 5414  29.313  25.717   6.059 -0.2176  0.0395 -0.0568
    1DIPC   GL1 5415  29.347  25.799   5.608 -0.1681  0.4948 -0.3267
    1DIPC   GL2 5416  29.644  25.793   5.707 -0.1522 -0.0812  0.2406
    1DIPC   C1A 5417  29.259  25.531   5.250  0.0054  0.2661  0.2502
    1DIPC   D2A 5418  29.412  25.480   4.829  0.3038  0.0973 -0.0245
    1DIPC   D3A 5419  29.528  25.931   4.598 -0.1035  0.0411  0.3373
    1DIPC   C4A 5420  29.426  26.313   4.336 -0.0170 -0.1867  0.1218
    1DIPC   C1B 5421  29.813  25.623   5.356  0.2193  0.1191  0.2493
    1DIPC   D2B 5422  29.915  25.875   4.843  0.3482 -0.3640 -0.0703
    1DIPC   D3B 5423  29.939  25.531   4.532 -0.1444  0.4776  0.2982
    1DIPC   C4B 5424  30.250  25.295   4.226 -0.1872 -0.2330 -0.0168
    1DIPC   NC3 5425   0.185  24.225   6.255  0.2368  0.0154 -0.3076
    1DIPC   PO4 5426  -0.185  23.934   6.214 -0.2578  0.4097 -0.0293
    1DIPC   GL1 5427  -0.046  23.882   5.858 -0.1447 -0.0243 -0.1079
    1DIPC   GL2 5428  -0.090  23.549   5.789 -0.0082 -0.4313  0.1289
    1DIPC   C1A 5429  -0.034  24.118   5.412  0.1810 -0.1024 -0.1486
    1DIPC   D2A 5430   0.013  24.306   5.112 -0.0817  0.0250 -0.0374
    1DIPC   D3A 5431   0.032  23.965   4.851 -0.0153  0.2764  0.0384
    1DIPC   C4A 5432  -0.262  23.892   4.542 -0.0447 -0.0292 -0.2789
    1DIPC   C1B 5433   0.072  23.290   5.408  0.2737  0.0767  0.1928
    1DIPC   D2B 5434  -0.132  23.534   5.050 -0.1143 -0.0729  0.1101
    1DIPC   D3B 5435   0.022  23.518   4.637 -0.1245  0.1942 -0.0431
    1DIPC   C4B 5436   0.484  23.503   4.666 -0.0345  0.1476  0.2061
    1DIPC   NC3 5437   5.065   7.959   7.109 -0.0480 -0.0793 -0.2078
    1DIPC   PO4 5438   5.358   8.156   6.873 -0.1338  0.2576 -0.1393
    1DIPC   GL1 5439   5.570   8.114   6.546 -0.1688  0.1298 -0.1155
    1DIPC   GL2 5440   5.316   8.325   6.436  0.5252 -0.0026 -0.0144
    1DIPC   C1A 5441   5.909   7.859   6.348 -0.0946 -0.0954 -0.0709
    1DIPC   D2A 5442   5.791   7.484   6.201 -0.3328 -0.1394 -0.1150
    1DIPC   D3A 5443   5.824   7.379   5.778 -0.1640 -0.1424 -0.1701
    1DIPC   C4A 5444   5.447   7.311   5.424 -0.2831  0.4074  0.2612
    1DIPC   C1B 5445   5.293   8.401   5.960  0.1121  0.1433  0.0458
    1DIPC   D2B 5446   5.541   8.192   5.529  0.2444  0.0385 -0.0345
    1DIPC   D3B 5447   5.454   7.925   5.237 -0.3542 -0.0242 -0.2490
    1DIPC   C4B 5448   5.047   8.095   5.081 -0.0346 -0.6352  0.2193
    1DIPC   NC3 5449   2.644  13.805   6.769 -0.0317 -0.0182 -0.1473
    1DIPC   PO4 5450   2.754  13.605   6.363 -0.1980 -0.0314 -0.2893
    1DIPC   GL1 5451   2.712  13.464   5.910 -0.0244  0.1975  0.2795
    1DIPC   GL2 5452   3.029  13.382   5.767  0.0870 -0.0315  0.0263
    1DIPC   C1A 5453   2.711  13.524   5.495  0.0871  0.1353  0.2033
    1DIPC   D2A 5454   2.909  13.465   5.122  0.0590  0.0829  0.0158
    1DIPC   D3A 5455   2.964  13.859   5.035 -0.1963  0.1282  0.0502
    1DIPC   C4A 5456   2.703  14.175   5.139  0.0841 -0.0791  0.1672
    1DIPC   C1B 5457   2.984  13.053   5.448 -0.1376 -0.1386  0.1095
    1DIPC   D2B 5458   3.119  13.029   5.012  0.1198  0.0328  0.1819
    1DIPC   D3B 5459   3.143  12.658   4.745 -0.3068  0.0463 -0.2606
    1DIPC   C4B 5460   3.140  12.240   4.879 -0.5130 -0.0990  0.0519
    1DIPC   NC3 5461   7.244  17.344   6.028  0.0522  0.0211  0.4288
    1DIPC   PO4 5462   6.890  17.089   5.676  0.0541  0.3930 -0.2733
    1DIPC   GL1 5463   6.913  17.154   5.264 -0.0463  0.0638 -0.0427
    1DIPC   GL2 5464   7.057  17.430   5.188 -0.2298 -0.2098  0.1321
    1DIPC   C1A 5465   6.806  16.891   4.966 -0.0634 -0.0777 -0.1284
    1DIPC   D2A 5466   6.797  16.493   4.750 -0.0568 -0.3383 -0.5575
    1DIPC   D3A 5467   7.105  16.751   4.579  0.3432 -0.0693  0.0109
    1DIPC   C4A 5468   7.165  16.806   4.162  0.0863  0.1217 -0.4715
    1DIPC   C1B 5469   6.930  17.355   4.751  0.4087  0.1659 -0.1045
    1DIPC   D2B 5470   6.961  17.231   4.366 -0.0024 -0.0024 -0.0678
    1DIPC   D3B 5471   7.304  17.427   4.175  0.0393  0.0846  0.1162
    1DIPC   C4B 5472   7.352  17.849   4.085  0.1816  0.2926  0.3912
    1DIPC   NC3 5473  25.367   2.733   6.395 -0.2244  0.1517 -0.0133
    1DIPC   PO4 5474  25.439   2.424   6.558 -0.1785  0.1433  0.1111
    1DIPC   GL1 5475  25.497   2.484   6.038  0.0432  0.0539  0.0968
    1DIPC   GL2 5476  25.244   2.628   5.903  0.1054 -0.1331  0.0659
    1DIPC   C1A 5477  25.449   2.212   5.630  0.1923  0.1343  0.1261
    1DIPC   D2A 5478  25.816   1.999   5.677  0.1147  0.0071 -0.2056
    1DIPC   D3A 5479  25.667   1.805   5.348  0.1158 -0.1349  0.0780
    1DIPC   C4A 5480  25.777   2.046   4.970 -0.0777 -0.0773  0.1670
    1DIPC   C1B 5481  24.949   2.397   5.592 -0.1012 -0.2123  0.0345
    1DIPC   D2B 5482  24.675   2.472   5.330 -0.2931  0.2111 -0.0280
    1DIPC   D3B 5483  24.901   2.553   4.952  0.2782 -0.1071 -0.1783
    1DIPC   C4B 5484  25.279   2.521   4.677  0.5169 -0.0952  0.0837
    1DIPC   NC3 5485  27.465  11.984   6.240 -0.2506  0.0030 -0.0385
    1DIPC   PO4 5486  27.874  11.906   5.907  0.2936 -0.2246 -0.1802
    1DIPC   GL1 5487  27.779  11.800   5.426 -0.1977 -0.0493 -0.0810
    1DIPC   GL2 5488  27.685  12.007   5.140 -0.2920  0.0053  0.2358
    1DIPC   C1A 5489  28.046  11.464   5.120  0.2263 -0.0632  0.2694
    1DIPC   D2A 5490  28.096  11.242   4.684 -0.1042 -0.1810  0.0202
    1DIPC   D3A 5491  27.567  11.319   4.716 -0.2718  0.2449  0.3641
    1DIPC   C4A 5492  27.328  10.896   4.938 -0.0462  0.0965 -0.0691
    1DIPC   C1B 5493  27.544  11.966   4.703 -0.0591 -0.2546 -0.4533
    1DIPC   D2B 5494  27.621  11.926   4.313 -0.1054 -0.1201 -0.0435
    1DIPC   D3B 5495  27.835  11.609   4.357 -0.0441  0.2015 -0.0296
    1DIPC   C4B 5496  27.939  11.385   4.046 -0.1029 -0.1843  0.2033
    1DIPC   NC3 5497  20.498  22.910   7.007  0.1195 -0.0684  0.1748
    1DIPC   PO4 5498  20.961  22.908   6.863  0.3713  0.1411 -0.0800
    1DIPC   GL1 5499  20.766  22.932   6.487  0.0453  0.1415  0.0266
    1DIPC   GL2 5500  20.964  23.153   6.229  0.2868  0.0155  0.0604
    1DIPC   C1A 5501  20.441  23.090   6.208 -0.1980  0.0752 -0.1191
    1DIPC   D2A 5502  20.246  23.048   5.795 -0.1553 -0.1138  0.2423
    1DIPC   D3A 5503  20.003  23.427   5.572  0.0641  0.0203 -0.1525
    1DIPC   C4A 5504  20.210  23.542   5.192 -0.1258  0.1011  0.0887
    1DIPC   C1B 5505  20.779  23.280   5.856 -0.0261 -0.0608  0.0356
    1DIPC   D2B 5506  20.678  23.357   5.472  0.2758  0.0509 -0.5261
    1DIPC   D3B 5507  20.671  23.812   5.223  0.4103 -0.3247 -0.0150
    1DIPC   C4B 5508  20.991  24.153   5.280  0.2155  0.0057  0.0273
    1DIPC   NC3 5509   7.118  24.818   6.522  0.0096 -0.0316 -0.0845
    1DIPC   PO4 5510   6.771  24.545   6.505 -0.4216  0.2774  0.2661
    1DIPC   GL1 5511   6.828  24.664   6.128 -0.0597  0.1639  0.0243
    1DIPC   GL2 5512   6.792  24.330   5.977 -0.1052 -0.1534  0.1678
    1DIPC   C1A 5513   6.491  24.907   5.793 -0.0846 -0.1216 -0.2223
    1DIPC   D2A 5514   6.539  24.950   5.323 -0.0961 -0.1214 -0.3211
    1DIPC   D3A 5515   6.266  24.690   5.311 -0.0928 -0.0958  0.0416
    1DIPC   C4A 5516   5.895  24.712   5.456 -0.2997  0.2147 -0.0004
    1DIPC   C1B 5517   6.556  24.381   5.605 -0.0631  0.0573  0.0307
    1DIPC   D2B 5518   6.482  24.173   5.148  0.2925 -0.1899  0.0682
    1DIPC   D3B 5519   6.881  24.113   4.873  0.2976  0.2024 -0.0155
    1DIPC   C4B 5520   6.961  24.427   4.655  0.0628  0.1104 -0.0103
    1DIPC   NC3 5521  21.223   3.911   6.781 -0.1226 -0.1209  0.1941
    1DIPC   PO4 5522  21.207   3.751   6.360  0.1815  0.0595 -0.4257
    1DIPC   GL1 5523  21.526   3.618   6.071 -0.0465  0.0695  0.0863
    1DIPC   GL2 5524  21.284   3.588   5.838 -0.5109  0.0125  0.0860
    1DIPC   C1A 5525  21.803   3.647   5.746  0.0856 -0.0146  0.2597
    1DIPC   D2A 5526  21.959   3.698   5.427  0.0451 -0.1396  0.1669
    1DIPC   D3A 5527  21.734   4.033   5.191 -0.2879 -0.0974  0.1504
    1DIPC   C4A 5528  21.445   4.397   5.379  0.0417  0.0596 -0.2146
    1DIPC   C1B 5529  21.467   3.235   5.662  0.0782  0.0147 -0.1200
    1DIPC   D2B 5530  21.756   3.021   5.483 -0.5603  0.0448 -0.1234
    1DIPC   D3B 5531  21.830   3.256   5.101  0.0761 -0.0216  0.1701
    1DIPC   C4B 5532  21.932   3.561   4.930  0.0153 -0.1968 -0.0074
    1DIPC   NC3 5533  29.651   6.706   6.480 -0.1525  0.3076  0.0707
    1DIPC   PO4 5534  29.182   6.771   6.552 -0.0717  0.3107 -0.1700
    1DIPC   GL1 5535  28.895   6.764   6.234 -0.0067 -0.2254  0.1080
    1DIPC   GL2 5536  28.643   6.685   6.318 -0.0388  0.0618 -0.4590
    1DIPC   C1A 5537  28.796   7.029   5.869  0.0856  0.2257  0.0621
    1DIPC   D2A 5538  28.663   6.979   5.430 -0.0498  0.2017  0.1183
    1DIPC   D3A 5539  28.796   7.208   5.203  0.4503  0.0057 -0.1504
    1DIPC   C4A 5540  28.922   6.951   4.847 -0.0624  0.1044  0.0492
    1DIPC   C1B 5541  28.921   6.492   5.836 -0.1351  0.0305 -0.2563
    1DIPC   D2B 5542  28.832   6.401   5.503 -0.2817 -0.0268 -0.0959
    1DIPC   D3B 5543  28.697   6.597   5.115 -0.2839 -0.1343  0.2829
    1DIPC   C4B 5544  29.041   6.494   5.012 -0.2054  0.1008 -0.1509
    1DIPC   NC3 5545  16.439   6.038   6.449 -0.1588 -0.0567  0.0039
    1DIPC   PO4 5546  16.276   5.648   6.294 -0.0824 -0.3362  0.1588
    1DIPC   GL1 5547  16.160   5.541   5.946 -0.1932  0.3167 -0.0801
    1DIPC   GL2 5548  15.818   5.598   5.898 -0.0245 -0.4279 -0.1650
    1DIPC   C1A 5549  16.304   5.383   5.660  0.1298  0.4372  0.0121
    1DIPC   D2A 5550  16.366   5.143   5.252 -0.1248 -0.0436  0.1183
    1DIPC   D3A 5551  16.559   5.239   4.877 -0.0457 -0.0553  0.2028
    1DIPC   C4A 5552  16.496   5.516   4.490 -0.0247  0.2856  0.0770
    1DIPC   C1B 5553  16.100   5.852   5.543  0.0713 -0.1461 -0.0812
    1DIPC   D2B 5554  16.359   6.101   5.301  0.0861  0.0400 -0.1555
    1DIPC   D3B 5555  16.709   6.171   5.267  0.0102 -0.1158 -0.0867
    1DIPC   C4B 5556  17.066   6.035   4.994  0.0617 -0.0495  0.1559
    1DIPC   NC3 5557   8.938   1.482   7.133 -0.2333  0.3872  0.2008
    1DIPC   PO4 5558   8.624   1.154   6.996 -0.1805  0.1447 -0.0167
    1DIPC   GL1 5559   8.673   1.148   6.670 -0.2715 -0.0300  0.1304
    1DIPC   GL2 5560   8.497   1.300   6.498 -0.0745 -0.1401 -0.1925
    1DIPC   C1A 5561   9.001   1.171   6.328  0.0317  0.2565 -0.1099
    1DIPC   D2A 5562   9.413   1.360   6.233 -0.1175  0.0868  0.2560
    1DIPC   D3A 5563   9.621   1.090   5.926  0.3266 -0.0738  0.0818
    1DIPC   C4A 5564   9.998   1.084   5.739  0.0785 -0.2383  0.1440
    1DIPC   C1B 5565   8.536   1.181   6.070 -0.0530  0.2068  0.0565
    1DIPC   D2B 5566   8.610   1.511   5.672  0.1608 -0.5803 -0.0909
    1DIPC   D3B 5567   8.231   1.705   5.753 -0.0909 -0.1985  0.0497
    1DIPC   C4B 5568   8.211   2.141   5.621 -0.0811 -0.1079  0.0233
    1DIPC   NC3 5569  20.906  29.262   6.937 -0.1866  0.2461  0.2369
    1DIPC   PO4 5570  21.194  28.851   6.876  0.4264 -0.2383  0.1862
    1DIPC   GL1 5571  21.177  28.711   6.329  0.0616 -0.0358  0.0472
    1DIPC   GL2 5572  21.521  28.586   6.244 -0.1400  0.2726  0.2219
    1DIPC   C1A 5573  20.997  28.829   5.898  0.1068 -0.2314  0.1764
    1DIPC   D2A 5574  20.914  28.769   5.544  0.1395 -0.0311  0.0372
    1DIPC   D3A 5575  21.005  29.019   5.208  0.2065 -0.1021  0.1561
    1DIPC   C4A 5576  21.125  28.802   4.889  0.1755  0.0756  0.0525
    1DIPC   C1B 5577  21.426  28.636   5.774 -0.1699 -0.1066 -0.2075
    1DIPC   D2B 5578  21.323  28.648   5.324 -0.2076  0.2412  0.0427
    1DIPC   D3B 5579  20.836  28.393   5.227 -0.0701  0.1799  0.0061
    1DIPC   C4B 5580  20.623  28.778   4.995 -0.0797  0.0659  0.3276
    1DIPC   NC3 5581  27.614  13.383   6.024 -0.1919  0.6607  0.0370
    1DIPC   PO4 5582  27.966  13.571   6.228 -0.0715  0.5160 -0.1958
    1DIPC   GL1 5583  28.178  13.576   5.783 -0.3204  0.0822  0.1605
    1DIPC   GL2 5584  28.472  13.639   5.654 -0.1961  0.0797 -0.1966
    1DIPC   C1A 5585  27.991  13.826   5.399  0.1172 -0.3259 -0.2533
    1DIPC   D2A 5586  27.974  14.172   5.064 -0.1597  0.0026  0.0295
    1DIPC   D3A 5587  28.140  14.112   4.613  0.1223  0.1755  0.2765
    1DIPC   C4A 5588  28.163  14.421   4.345  0.2754  0.0099 -0.4750
    1DIPC   C1B 5589  28.427  13.585   5.194  0.0447  0.0944 -0.0908
    1DIPC   D2B 5590  28.566  13.249   4.909 -0.3179  0.0525 -0.0472
    1DIPC   D3B 5591  28.734  13.344   4.514 -0.1596 -0.1712 -0.0648
    1DIPC   C4B 5592  28.758  12.937   4.362 -0.3064 -0.1134 -0.1878
    1DIPC   NC3 5593  29.906   2.386   7.087  0.1835 -0.4815 -0.3112
    1DIPC   PO4 5594  30.200   2.431   6.759 -0.1088  0.1312 -0.0026
    1DIPC   GL1 5595  30.252   2.416   6.159  0.2064 -0.0867  0.2392
    1DIPC   GL2 5596  30.236   2.352   5.821 -0.0499  0.1288 -0.0478
    1DIPC   C1A 5597  30.450   2.787   5.784  0.0924 -0.2129 -0.0768
    1DIPC   D2A 5598  30.898   2.973   5.699 -0.2063 -0.1907 -0.2397
    1DIPC   D3A 5599  31.047   3.036   5.260  0.0880 -0.2293  0.1424
    1DIPC   C4A 5600  31.382   3.106   5.318  0.1196 -0.0679 -0.1740
    1DIPC   C1B 5601  30.154   2.573   5.438 -0.1766 -0.0633  0.0964
    1DIPC   D2B 5602  30.028   2.952   5.271 -0.1463 -0.0837  0.0703
    1DIPC   D3B 5603  29.689   2.969   5.395 -0.2336  0.1205 -0.1053
    1DIPC   C4B 5604  29.549   3.271   5.721  0.2348 -0.2602  0.1076
    1DIPC   NC3 5605  27.362  15.233   5.920 -0.1815  0.1709  0.4371
    1DIPC   PO4 5606  26.909  15.369   5.669 -0.2059 -0.1566 -0.0645
    1DIPC   GL1 5607  26.812  15.361   5.230  0.1075  0.2617 -0.1476
    1DIPC   GL2 5608  26.742  15.084   5.238 -0.0913  0.0521  0.1370
    1DIPC   C1A 5609  26.448  15.385   5.031  0.0731 -0.1224  0.2507
    1DIPC   D2A 5610  26.112  15.522   4.833  0.1052  0.0174  0.0325
    1DIPC   D3A 5611  26.211  15.747   4.415  0.0179 -0.4123  0.1445
    1DIPC   C4A 5612  26.354  16.215   4.412 -0.0523  0.0846 -0.0865
    1DIPC   C1B 5613  26.941  14.712   5.050 -0.1757 -0.3909 -0.3152
    1DIPC   D2B 5614  27.137  14.646   4.659  0.2738  0.3929  0.1012
    1DIPC   D3B 5615  27.128  14.800   4.256 -0.1096 -0.3497 -0.2212
    1DIPC   C4B 5616  27.381  14.490   4.189  0.1694  0.2977 -0.1165
    1DIPC   NC3 5617  21.809  24.640   7.056 -0.1381 -0.0404 -0.0136
    1DIPC   PO4 5618  21.839  24.936   6.751 -0.0239 -0.0872  0.0313
    1DIPC   GL1 5619  21.911  24.866   6.355  0.2034  0.0897 -0.0107
    1DIPC   GL2 5620  22.329  24.848   6.350  0.1602 -0.1552 -0.2290
    1DIPC   C1A 5621  21.589  25.103   6.003  0.4492  0.0351 -0.2120
    1DIPC   D2A 5622  21.192  25.277   6.023 -0.2709  0.1257 -0.0283
    1DIPC   D3A 5623  21.082  25.481   5.570 -0.0101  0.0433  0.1335
    1DIPC   C4A 5624  20.527  25.389   5.360  0.1812 -0.2250 -0.0232
    1DIPC   C1B 5625  22.109  24.902   5.924 -0.0268  0.4548  0.0318
    1DIPC   D2B 5626  22.392  24.931   5.527  0.0054 -0.3664  0.1957
    1DIPC   D3B 5627  22.184  24.566   5.239 -0.0011 -0.0253  0.0329
    1DIPC   C4B 5628  21.865  24.593   4.926 -0.1375 -0.2201  0.1797
    1DIPC   NC3 5629  22.785  11.994   6.137 -0.2705 -0.1696 -0.0204
    1DIPC   PO4 5630  22.505  11.672   6.151  0.0007 -0.1442 -0.0068
    1DIPC   GL1 5631  22.240  11.597   5.873 -0.0024  0.0053  0.3494
    1DIPC   GL2 5632  22.190  11.896   5.833 -0.0450 -0.3250  0.0467
    1DIPC   C1A 5633  21.980  11.492   5.516 -0.2071  0.1815  0.1407
    1DIPC   D2A 5634  21.660  11.409   5.102  0.1884 -0.1926 -0.1176
    1DIPC   D3A 5635  21.993  11.508   4.850  0.1868 -0.1040  0.0086
    1DIPC   C4A 5636  22.039  11.802   4.531 -0.2328  0.0601  0.1338
    1DIPC   C1B 5637  21.891  12.097   5.514 -0.0795  0.4719  0.1741
    1DIPC   D2B 5638  21.880  11.953   5.074 -0.3714 -0.1664 -0.2181
    1DIPC   D3B 5639  22.080  12.234   4.790  0.0159 -0.1428  0.1213
    1DIPC   C4B 5640  21.895  12.589   4.569 -0.0244 -0.2719  0.0135
    1DIPC   NC3 5641  16.121  20.860   7.359 -0.0699  0.2292 -0.3380
    1DIPC   PO4 5642  16.255  21.321   7.070 -0.2133  0.1106  0.0228
    1DIPC   GL1 5643  16.371  21.436   6.643 -0.1035  0.1444  0.0407
    1DIPC   GL2 5644  16.238  21.385   6.365  0.0046 -0.1053  0.0147
    1DIPC   C1A 5645  16.691  21.250   6.340  0.0799 -0.0382 -0.1679
    1DIPC   D2A 5646  17.012  21.249   6.268  0.2787  0.0217  0.0560
    1DIPC   D3A 5647  16.849  21.387   5.864 -0.1363  0.0488 -0.1506
    1DIPC   C4A 5648  17.160  21.480   5.479  0.0969  0.2804 -0.0389
    1DIPC   C1B 5649  16.336  21.651   5.893 -0.0696 -0.0292 -0.1768
    1DIPC   D2B 5650  16.324  21.636   5.520  0.1154 -0.0800 -0.0298
    1DIPC   D3B 5651  16.552  21.395   5.271  0.0224 -0.1856 -0.2459
    1DIPC   C4B 5652  17.010  21.404   5.020  0.0826 -0.1288 -0.0936
    1DIPC   NC3 5653   8.071  27.050   6.472 -0.1266 -0.3084  0.1452
    1DIPC   PO4 5654   8.358  26.881   6.135 -0.3663 -0.1021 -0.0818
    1DIPC   GL1 5655   8.501  26.968   5.750  0.4603  0.1256 -0.0608
    1DIPC   GL2 5656   8.846  27.143   5.705  0.0809  0.1979  0.1996
    1DIPC   C1A 5657   8.666  26.821   5.357 -0.0182 -0.0255  0.4188
    1DIPC   D2A 5658   8.771  26.536   5.060  0.0942 -0.0841 -0.1307
    1DIPC   D3A 5659   8.816  26.874   4.748  0.1536 -0.1745  0.1968
    1DIPC   C4A 5660   9.141  27.150   4.368  0.4874 -0.0622  0.2010
    1DIPC   C1B 5661   8.869  27.410   5.384 -0.1501  0.1849 -0.1334
    1DIPC   D2B 5662   8.863  27.793   5.114 -0.0345  0.3682  0.0012
    1DIPC   D3B 5663   9.236  27.801   5.108  0.1090 -0.3625  0.0487
    1DIPC   C4B 5664   9.401  28.242   4.971 -0.1522  0.3783  0.1064
    1DIPC   NC3 5665  24.716  11.366   6.528 -0.0173 -0.1244 -0.0373
    1DIPC   PO4 5666  24.896  11.615   6.315  0.0841  0.0605 -0.2779
    1DIPC   GL1 5667  24.982  11.739   5.908  0.1933 -0.1483  0.5022
    1DIPC   GL2 5668  25.219  11.871   5.842  0.1252  0.0847 -0.3589
    1DIPC   C1A 5669  24.770  11.790   5.555  0.1035 -0.1364  0.1491
    1DIPC   D2A 5670  24.563  11.682   5.194  0.4075 -0.0193 -0.0315
    1DIPC   D3A 5671  24.888  11.489   5.129  0.1879  0.0565  0.0777
    1DIPC   C4A 5672  25.042  11.353   5.417  0.1714  0.0263  0.2640
    1DIPC   C1B 5673  25.203  11.895   5.393  0.0118  0.2017  0.1607
    1DIPC   D2B 5674  24.919  11.956   5.048  0.2352  0.1693  0.0320
    1DIPC   D3B 5675  24.619  12.315   4.950  0.2049  0.3467 -0.2164
    1DIPC   C4B 5676  24.246  12.288   4.751 -0.0919 -0.1459  0.1177
    1DIPC   NC3 5677  24.127   6.967   6.866 -0.3735  0.1045 -0.2091
    1DIPC   PO4 5678  23.875   6.652   6.667 -0.0200 -0.0324  0.1230
    1DIPC   GL1 5679  23.895   6.559   6.283 -0.1721 -0.2016  0.1625
    1DIPC   GL2 5680  23.689   6.697   6.206  0.0762 -0.2035 -0.2628
    1DIPC   C1A 5681  24.085   6.522   5.908  0.2421 -0.0429  0.0459
    1DIPC   D2A 5682  24.126   6.903   5.716 -0.0117 -0.2282  0.1827
    1DIPC   D3A 5683  24.201   6.974   5.370  0.4901  0.1247  0.0973
    1DIPC   C4A 5684  24.543   7.212   5.173  0.0269 -0.1323 -0.1806
    1DIPC   C1B 5685  23.532   6.874   5.777 -0.0679 -0.2243  0.1436
    1DIPC   D2B 5686  23.704   7.045   5.460  0.0510  0.0853  0.1182
    1DIPC   D3B 5687  23.748   6.569   5.432 -0.1510 -0.3252 -0.0426
    1DIPC   C4B 5688  23.941   6.276   5.118 -0.0531  0.2620 -0.1958
    1DIPC   NC3 5689  24.509  25.025   7.104  0.2123 -0.1963 -0.0733
    1DIPC   PO4 5690  24.533  24.673   6.925  0.1540 -0.0165  0.0273
    1DIPC   GL1 5691  24.779  24.506   6.449  0.0297 -0.2042 -0.2124
    1DIPC   GL2 5692  24.839  24.713   6.197  0.1536 -0.0625 -0.1998
    1DIPC   C1A 5693  24.498  24.259   6.202 -0.1540 -0.2464 -0.2031
    1DIPC   D2A 5694  24.176  24.315   5.922 -0.1201 -0.1072 -0.1519
    1DIPC   D3A 5695  24.387  24.259   5.601 -0.1874 -0.1261 -0.3524
    1DIPC   C4A 5696  24.796  24.109   5.588 -0.1292 -0.4058  0.0517
    1DIPC   C1B 5697  24.658  24.583   5.864  0.0918  0.0666 -0.1521
    1DIPC   D2B 5698  24.585  24.754   5.554  0.1079  0.1071  0.1269
    1DIPC   D3B 5699  24.217  24.720   5.573 -0.0269  0.0629  0.0912
    1DIPC   C4B 5700  24.038  24.853   5.216  0.0646  0.0616 -0.4652
    1DIPC   NC3 5701   7.554   4.432   7.504  0.1336 -0.1906  0.2618
    1DIPC   PO4 5702   7.809   4.549   7.240  0.0125 -0.2254 -0.5440
    1DIPC   GL1 5703   7.803   4.499   6.791  0.0855 -0.2760  0.0409
    1DIPC   GL2 5704   8.082   4.368   6.596 -0.2338  0.0628  0.2197
    1DIPC   C1A 5705   7.594   4.383   6.394  0.0649 -0.1450 -0.0161
    1DIPC   D2A 5706   7.660   4.191   5.928 -0.1144  0.1587 -0.0125
    1DIPC   D3A 5707   7.350   4.394   5.617 -0.0500 -0.0390  0.3855
    1DIPC   C4A 5708   7.255   4.374   5.105  0.0545 -0.0137 -0.1178
    1DIPC   C1B 5709   7.955   3.904   6.491 -0.2432  0.0144  0.3582
    1DIPC   D2B 5710   7.666   3.568   6.438  0.1911 -0.2421  0.3113
    1DIPC   D3B 5711   7.655   3.724   6.134 -0.0058  0.1893  0.1071
    1DIPC   C4B 5712   7.377   3.678   5.824  0.1069  0.0537 -0.2875
    1DIPC   NC3 5713  24.880  27.389   6.717  0.1679 -0.2088  0.1975
    1DIPC   PO4 5714  24.518  27.347   6.349 -0.1630 -0.0488  0.0779
    1DIPC   GL1 5715  24.818  27.153   6.169  0.0339 -0.2539 -0.3867
    1DIPC   GL2 5716  24.643  26.771   6.143 -0.0600  0.1067  0.0462
    1DIPC   C1A 5717  24.995  26.966   5.773  0.2128  0.3072  0.1158
    1DIPC   D2A 5718  24.996  27.058   5.321  0.0094  0.0645  0.0732
    1DIPC   D3A 5719  24.736  27.092   4.814  0.1608  0.0930 -0.1130
    1DIPC   C4A 5720  24.425  26.876   4.607  0.1115  0.3394 -0.3054
    1DIPC   C1B 5721  24.534  26.720   5.671 -0.1083 -0.3793  0.1437
    1DIPC   D2B 5722  24.480  26.912   5.216  0.1595  0.0410 -0.1590
    1DIPC   D3B 5723  24.409  26.545   5.054  0.1577  0.0460  0.1316
    1DIPC   C4B 5724  24.705  26.179   5.071  0.0926  0.0393  0.2115
    1DIPC   NC3 5725  21.973   6.560   6.707 -0.2877 -0.0952  0.2276
    1DIPC   PO4 5726  21.658   6.781   6.564  0.0016  0.0534  0.1674
    1DIPC   GL1 5727  21.403   6.597   6.274 -0.2764 -0.1174  0.1665
    1DIPC   GL2 5728  21.541   6.798   5.990 -0.0965  0.1354 -0.0240
    1DIPC   C1A 5729  21.092   6.512   5.962 -0.1434 -0.1734 -0.3557
    1DIPC   D2A 5730  20.959   6.032   5.747 -0.1509 -0.5498  0.2092
    1DIPC   D3A 5731  20.995   6.339   5.404  0.0077 -0.2616  0.0470
    1DIPC   C4A 5732  20.576   6.420   5.154 -0.1896  0.3196  0.0392
    1DIPC   C1B 5733  21.351   6.799   5.565 -0.0032  0.1775 -0.3056
    1DIPC   D2B 5734  21.047   6.840   5.146  0.1313  0.2004  0.1605
    1DIPC   D3B 5735  21.036   6.394   4.874 -0.0348  0.1553  0.1600
    1DIPC   C4B 5736  20.968   6.310   4.472  0.0227 -0.0761 -0.0309
    1DIPC   NC3 5737  21.953  29.258   6.841 -0.0630  0.0559 -0.1371
    1DIPC   PO4 5738  22.334  28.974   6.739 -0.0145 -0.1651  0.1142
    1DIPC   GL1 5739  22.297  29.138   6.352 -0.1504  0.0280 -0.0731
    1DIPC   GL2 5740  22.331  29.446   6.521 -0.1294 -0.2883 -0.0505
    1DIPC   C1A 5741  22.199  29.310   6.021 -0.2995  0.1576 -0.1083
    1DIPC   D2A 5742  22.046  29.700   5.827  0.2795  0.2083  0.1554
    1DIPC   D3A 5743  21.661  29.829   5.756  0.0276 -0.0073  0.5283
    1DIPC   C4A 5744  21.469  30.141   5.925  0.3833  0.3155  0.2403
    1DIPC   C1B 5745  22.013  29.859   6.320  0.0250 -0.1905 -0.2972
    1DIPC   D2B 5746  21.949  30.160   6.109 -0.1009 -0.0076  0.2646
    1DIPC   D3B 5747  21.981  30.220   5.638 -0.3117 -0.1465 -0.0642
    1DIPC   C4B 5748  21.641  30.327   5.347 -0.0004  0.0915 -0.2517
    1DIPC   NC3 5749   5.806  10.724   6.486 -0.2076  0.0218 -0.0070
    1DIPC   PO4 5750   5.412  10.505   6.609  0.0196  0.0693 -0.2508
    1DIPC   GL1 5751   5.230  10.475   6.212  0.0009 -0.2052 -0.2615
    1DIPC   GL2 5752   5.019  10.705   6.073 -0.3298 -0.1278 -0.0527
    1DIPC   C1A 5753   5.110  10.288   5.802  0.0535 -0.2647 -0.0120
    1DIPC   D2A 5754   5.243  10.156   5.392  0.2748 -0.1313 -0.2156
    1DIPC   D3A 5755   4.906  10.400   5.318 -0.0256 -0.0175 -0.3328
    1DIPC   C4A 5756   4.913  10.738   5.601  0.1744 -0.0842 -0.3111
    1DIPC   C1B 5757   5.413  10.692   5.829 -0.1839 -0.1889  0.2601
    1DIPC   D2B 5758   5.735  10.665   5.627 -0.0540 -0.0213  0.0353
    1DIPC   D3B 5759   5.681  10.319   5.450  0.0560  0.2180  0.1149
    1DIPC   C4B 5760   6.050   9.968   5.483 -0.1869  0.4469 -0.0873
    1DIPC   NC3 5761   6.366  18.234   5.661 -0.0011 -0.2424 -0.0147
    1DIPC   PO4 5762   6.095  18.614   5.697  0.2861  0.0822  0.1988
    1DIPC   GL1 5763   6.013  18.418   5.303  0.2168  0.0827 -0.0468
    1DIPC   GL2 5764   6.107  18.079   5.181  0.1101 -0.1603  0.0183
    1DIPC   C1A 5765   5.843  18.460   4.916  0.3864  0.1023  0.1414
    1DIPC   D2A 5766   5.921  18.359   4.563 -0.1528  0.0773  0.0898
    1DIPC   D3A 5767   5.547  18.610   4.302  0.3525 -0.0465 -0.2328
    1DIPC   C4A 5768   5.709  18.952   4.028  0.3177  0.0833 -0.2464
    1DIPC   C1B 5769   6.455  18.146   4.977 -0.0566 -0.3080 -0.2162
    1DIPC   D2B 5770   6.533  18.073   4.573 -0.0621  0.0631  0.0384
    1DIPC   D3B 5771   6.404  18.258   4.224  0.2213  0.0468  0.1482
    1DIPC   C4B 5772   6.454  18.586   4.462 -0.3213 -0.3173  0.1834
    1DIPC   NC3 5773  24.826  21.229   7.216  0.2253 -0.0180  0.1810
    1DIPC   PO4 5774  24.843  21.305   6.783 -0.0375  0.1959  0.0325
    1DIPC   GL1 5775  25.187  21.181   6.446 -0.0025 -0.1591 -0.0357
    1DIPC   GL2 5776  25.477  21.162   6.395  0.2353 -0.0781  0.0212
    1DIPC   C1A 5777  25.122  21.238   6.009 -0.0858  0.0500  0.3233
    1DIPC   D2A 5778  25.076  21.568   5.757 -0.1200 -0.0444 -0.0282
    1DIPC   D3A 5779  25.189  21.143   5.534  0.1873 -0.1720  0.0656
    1DIPC   C4A 5780  24.915  20.757   5.646 -0.1011  0.0695  0.1360
    1DIPC   C1B 5781  25.740  20.981   6.085 -0.0654 -0.3370 -0.0803
    1DIPC   D2B 5782  26.121  20.628   5.997  0.0281 -0.1281 -0.0515
    1DIPC   D3B 5783  26.239  21.055   5.958  0.3079 -0.0506  0.0774
    1DIPC   C4B 5784  26.559  21.237   5.698 -0.3118  0.0949  0.1493
    1DIPC   NC3 5785   9.476  26.379   6.520 -0.1786  0.1095  0.1331
    1DIPC   PO4 5786   9.793  26.645   6.686  0.3896  0.0465 -0.2392
    1DIPC   GL1 5787   9.701  26.780   6.220 -0.2208 -0.1398 -0.0603
    1DIPC   GL2 5788   9.896  26.982   5.922  0.2624  0.1226 -0.1547
    1DIPC   C1A 5789   9.258  26.803   5.873  0.3198 -0.1185 -0.5565
    1DIPC   D2A 5790   9.114  26.564   5.487 -0.0634 -0.3408  0.2199
    1DIPC   D3A 5791   9.149  26.948   5.211  0.0092  0.2034 -0.0626
    1DIPC   C4A 5792   9.240  27.097   4.915 -0.2774 -0.2930  0.2623
    1DIPC   C1B 5793   9.913  27.169   5.619  0.1279  0.1195 -0.0241
    1DIPC   D2B 5794   9.717  27.652   5.627 -0.0357 -0.0927  0.1165
    1DIPC   D3B 5795   9.554  27.843   5.945  0.0843  0.0617 -0.1791
    1DIPC   C4B 5796   9.148  27.714   5.979  0.1073 -0.0303  0.1943
    1DIPC   NC3 5797   6.134  25.063   6.354  0.2125  0.3346 -0.0185
    1DIPC   PO4 5798   6.049  25.479   6.333 -0.0035  0.0227 -0.1456
    1DIPC   GL1 5799   6.050  25.397   5.889  0.1066  0.2903 -0.0501
    1DIPC   GL2 5800   6.053  25.112   5.776  0.1066  0.0997  0.1485
    1DIPC   C1A 5801   5.784  25.550   5.572  0.0436  0.3018 -0.0294
    1DIPC   D2A 5802   5.504  25.842   5.266 -0.1152  0.0250 -0.1992
    1DIPC   D3A 5803   5.214  25.631   4.991  0.3937 -0.1137 -0.0783
    1DIPC   C4A 5804   4.878  25.729   4.563  0.0535 -0.2047  0.1637
    1DIPC   C1B 5805   6.079  25.136   5.390 -0.3256 -0.0574  0.1582
    1DIPC   D2B 5806   5.865  25.027   4.943 -0.3681  0.0533 -0.2690
    1DIPC   D3B 5807   5.696  25.469   4.973 -0.1099 -0.1490 -0.1494
    1DIPC   C4B 5808   5.941  25.752   5.094 -0.1604  0.0812  0.3556
    1DIPC   NC3 5809  26.184  24.867   6.851 -0.4164  0.1622 -0.2173
    1DIPC   PO4 5810  26.566  24.898   6.614  0.0081  0.0256  0.1236
    1DIPC   GL1 5811  26.783  24.784   6.176  0.0084 -0.1617  0.2587
    1DIPC   GL2 5812  26.652  24.990   5.941  0.1554  0.0410  0.1970
    1DIPC   C1A 5813  27.054  24.513   5.948 -0.1026 -0.3420 -0.3925
    1DIPC   D2A 5814  27.357  24.572   5.608 -0.1935 -0.1299  0.3071
    1DIPC   D3A 5815  27.397  24.747   5.215  0.2175 -0.3146  0.2789
    1DIPC   C4A 5816  26.981  24.833   4.923  0.1157  0.0358  0.2109
    1DIPC   C1B 5817  27.170  25.124   5.917  0.0516 -0.1278  0.2039
    1DIPC   D2B 5818  27.352  25.149   5.514  0.1632  0.0745 -0.1922
    1DIPC   D3B 5819  27.144  25.270   5.108  0.3203  0.2788  0.0360
    1DIPC   C4B 5820  27.419  25.302   4.792  0.1879  0.0930 -0.0545
    1DIPC   NC3 5821  19.519  28.196   6.763  0.2028 -0.2252  0.2233
    1DIPC   PO4 5822  19.449  28.601   6.867  0.1083  0.3110 -0.0639
    1DIPC   GL1 5823  19.728  28.582   6.432  0.0427  0.1250 -0.2354
    1DIPC   GL2 5824  19.745  28.213   6.266 -0.0509  0.2551 -0.0067
    1DIPC   C1A 5825  19.788  28.702   5.976  0.2217  0.3524  0.0579
    1DIPC   D2A 5826  19.625  28.712   5.545  0.0313  0.1044  0.1434
    1DIPC   D3A 5827  19.775  28.824   5.178  0.2427 -0.0174 -0.3041
    1DIPC   C4A 5828  19.680  29.190   4.881  0.1336 -0.1694 -0.1957
    1DIPC   C1B 5829  19.598  28.200   5.833  0.1023  0.2440 -0.0624
    1DIPC   D2B 5830  19.330  28.323   5.498  0.0329  0.1109  0.0196
    1DIPC   D3B 5831  19.691  28.320   5.167  0.0741 -0.1856 -0.0149
    1DIPC   C4B 5832  19.961  27.951   5.061 -0.0987 -0.1709  0.3234
    1DIPC   NC3 5833  24.535  19.229   6.675  0.1044 -0.3450 -0.2263
    1DIPC   PO4 5834  24.248  19.508   6.844 -0.3201 -0.0749 -0.2364
    1DIPC   GL1 5835  24.290  19.468   6.306  0.1187  0.2110 -0.1638
    1DIPC   GL2 5836  24.569  19.512   6.196  0.1814 -0.4362 -0.1059
    1DIPC   C1A 5837  24.194  19.582   5.866 -0.0148  0.0760 -0.0562
    1DIPC   D2A 5838  23.827  19.742   5.630 -0.1409 -0.0358 -0.2609
    1DIPC   D3A 5839  23.895  19.721   5.193  0.1921  0.1761  0.0616
    1DIPC   C4A 5840  24.102  19.316   5.016  0.3605  0.1031  0.0639
    1DIPC   C1B 5841  24.601  19.370   5.795 -0.2570 -0.0898  0.0335
    1DIPC   D2B 5842  24.380  19.475   5.406  0.0693 -0.0012  0.1490
    1DIPC   D3B 5843  24.475  19.647   4.979 -0.0426  0.2528 -0.1834
    1DIPC   C4B 5844  24.132  19.842   4.784 -0.1558  0.0637  0.0746
    1DIPC   NC3 5845   8.108  28.728   6.964  0.5074 -0.1861  0.2938
    1DIPC   PO4 5846   8.054  29.173   6.990 -0.0762  0.1672 -0.2015
    1DIPC   GL1 5847   8.339  29.146   6.760 -0.0226 -0.1225 -0.0520
    1DIPC   GL2 5848   8.314  29.291   6.564  0.0874  0.1723 -0.5150
    1DIPC   C1A 5849   8.718  28.984   6.607 -0.3220  0.0719  0.0509
    1DIPC   D2A 5850   8.902  29.055   6.277  0.2584  0.0025 -0.1323
    1DIPC   D3A 5851   8.793  29.100   5.918 -0.1886 -0.1732  0.1064
    1DIPC   C4A 5852   9.058  29.234   5.620 -0.2880 -0.1744 -0.3211
    1DIPC   C1B 5853   8.358  29.006   6.253  0.1040 -0.0042  0.1472
    1DIPC   D2B 5854   8.333  28.831   5.745  0.0471 -0.1189  0.4298
    1DIPC   D3B 5855   8.671  29.036   5.474  0.0609 -0.0430  0.1623
    1DIPC   C4B 5856   8.431  29.399   5.388  0.0739  0.3102  0.1266
    1DIPC   NC3 5857   6.726   1.025   7.438  0.0026 -0.1134 -0.0422
    1DIPC   PO4 5858   6.844   0.948   7.034  0.1945 -0.1033  0.1648
    1DIPC   GL1 5859   6.786   1.020   6.510  0.1314  0.0694  0.1499
    1DIPC   GL2 5860   7.012   1.335   6.340  0.1352  0.1587 -0.0530
    1DIPC   C1A 5861   6.702   1.134   5.991 -0.2363  0.0262 -0.1919
    1DIPC   D2A 5862   6.564   1.261   5.633 -0.1047  0.1822 -0.2624
    1DIPC   D3A 5863   6.771   1.653   5.672 -0.0355  0.2391 -0.1198
    1DIPC   C4A 5864   6.954   1.889   5.361  0.4449 -0.1476 -0.0026
    1DIPC   C1B 5865   7.152   1.428   5.947 -0.0773  0.0077  0.1106
    1DIPC   D2B 5866   7.330   1.676   5.685 -0.0594  0.0220  0.1968
    1DIPC   D3B 5867   7.444   1.730   5.253 -0.0951  0.1876  0.1758
    1DIPC   C4B 5868   7.220   1.761   4.966  0.0028 -0.2200  0.1342
    1DIPC   NC3 5869   0.417  13.657   6.035 -0.1599 -0.0817  0.0037
    1DIPC   PO4 5870  -0.037  13.652   5.773 -0.1399 -0.0572  0.3355
    1DIPC   GL1 5871  -0.019  13.697   5.308 -0.2018 -0.1911 -0.1127
    1DIPC   GL2 5872   0.152  13.519   5.106  0.3546 -0.0016 -0.0620
    1DIPC   C1A 5873  -0.307  13.839   5.062  0.1449  0.4020 -0.1344
    1DIPC   D2A 5874  -0.452  14.059   4.666 -0.1620  0.2750  0.0013
    1DIPC   D3A 5875  -0.655  13.669   4.625 -0.0898  0.0725  0.2116
    1DIPC   C4A 5876  -1.074  13.684   4.844  0.2169  0.3189 -0.0166
    1DIPC   C1B 5877   0.438  13.664   5.092 -0.0392  0.1419  0.2462
    1DIPC   D2B 5878   0.880  13.809   5.021 -0.0201  0.0118 -0.3091
    1DIPC   D3B 5879   0.596  13.868   4.594 -0.2349 -0.0902  0.0630
    1DIPC   C4B 5880   0.569  13.609   4.318 -0.2231 -0.1613 -0.1538
    1DIPC   NC3 5881  23.261  21.556   6.779 -0.1531 -0.3474 -0.2933
    1DIPC   PO4 5882  23.184  21.094   6.783  0.0209  0.1073 -0.0195
    1DIPC   GL1 5883  22.997  20.916   6.443 -0.1661  0.1966 -0.0824
    1DIPC   GL2 5884  23.227  20.988   6.235  0.0519  0.1932  0.0901
    1DIPC   C1A 5885  22.784  20.690   6.096 -0.2300 -0.0256  0.1820
    1DIPC   D2A 5886  22.604  20.744   5.642  0.1229 -0.2305  0.0597
    1DIPC   D3A 5887  22.653  20.385   5.422 -0.1607 -0.0329 -0.1590
    1DIPC   C4A 5888  22.969  20.070   5.467  0.2650 -0.0605 -0.3080
    1DIPC   C1B 5889  23.193  20.902   5.878  0.0058  0.1906  0.0102
    1DIPC   D2B 5890  23.057  20.641   5.516  0.0140  0.1149 -0.2474
    1DIPC   D3B 5891  22.854  20.714   5.069  0.0199 -0.4302 -0.0825
    1DIPC   C4B 5892  22.409  20.930   5.120  0.2471  0.0344  0.0036
    1DIPC   NC3 5893   1.354  22.087   5.973 -0.0607  0.0046  0.0194
    1DIPC   PO4 5894   1.454  22.225   5.573 -0.0459  0.0059 -0.1370
    1DIPC   GL1 5895   1.354  22.074   5.214 -0.2057  0.1281  0.0587
    1DIPC   GL2 5896   1.560  22.217   5.034 -0.2066  0.3303  0.0736
    1DIPC   C1A 5897   1.381  21.808   4.762  0.1016 -0.3409 -0.0045
    1DIPC   D2A 5898   1.554  21.812   4.351  0.2011 -0.2758  0.1582
    1DIPC   D3A 5899   1.574  21.548   4.065  0.0670 -0.1311  0.2402
    1DIPC   C4A 5900   1.888  21.619   3.732 -0.0633 -0.0428 -0.0894
    1DIPC   C1B 5901   1.485  22.317   4.644  0.0996 -0.0106 -0.2372
    1DIPC   D2B 5902   1.287  22.535   4.230  0.1720  0.1876 -0.2652
    1DIPC   D3B 5903   0.866  22.519   3.998  0.0980  0.0389  0.2218
    1DIPC   C4B 5904   0.937  22.365   3.563  0.0824  0.0720 -0.0346
    1DIPC   NC3 5905   1.596   8.573   6.634  0.0956  0.0687  0.1724
    1DIPC   PO4 5906   1.326   8.525   6.329 -0.1333  0.3623 -0.0151
    1DIPC   GL1 5907   1.211   8.612   5.819 -0.1083  0.0390  0.1646
    1DIPC   GL2 5908   0.997   8.545   5.625 -0.0941  0.0041  0.4208
    1DIPC   C1A 5909   1.411   8.680   5.307  0.0511  0.0986  0.2577
    1DIPC   D2A 5910   1.551   8.572   4.906  0.0354  0.3020 -0.0055
    1DIPC   D3A 5911   1.377   8.408   4.555  0.1358  0.1688  0.0016
    1DIPC   C4A 5912   1.154   8.528   4.112 -0.2927  0.1281 -0.0257
    1DIPC   C1B 5913   1.016   8.445   5.162 -0.0767  0.3040 -0.3578
    1DIPC   D2B 5914   0.948   8.290   4.824 -0.2694 -0.1840  0.2895
    1DIPC   D3B 5915   0.528   8.287   4.790 -0.0048  0.2702 -0.1323
    1DIPC   C4B 5916   0.358   8.082   4.463  0.0885 -0.4300 -0.0279
    1DIPC   NC3 5917   1.630  11.501   6.196 -0.0862 -0.1220 -0.2196
    1DIPC   PO4 5918   1.545  11.924   6.116 -0.0842 -0.0922 -0.1861
    1DIPC   GL1 5919   1.703  11.848   5.781  0.1612  0.2806 -0.0469
    1DIPC   GL2 5920   1.574  11.409   5.682 -0.1758  0.0719  0.0248
    1DIPC   C1A 5921   1.838  11.656   5.374 -0.0453  0.0287 -0.1334
    1DIPC   D2A 5922   1.919  11.553   4.901  0.3541 -0.2503 -0.3138
    1DIPC   D3A 5923   2.013  11.370   4.440  0.2073  0.0253 -0.3591
    1DIPC   C4A 5924   1.713  11.457   4.082 -0.1885 -0.0797  0.1940
    1DIPC   C1B 5925   1.311  11.684   5.484  0.1962 -0.1805 -0.1710
    1DIPC   D2B 5926   1.137  11.761   5.041 -0.1995 -0.2231 -0.2426
    1DIPC   D3B 5927   1.249  11.841   4.652 -0.2650 -0.0644  0.0187
    1DIPC   C4B 5928   1.675  11.906   4.565 -0.3348  0.0674  0.0250
    1DIPC   NC3 5929   0.464  27.396   6.804  0.1051  0.0801  0.2352
    1DIPC   PO4 5930   0.449  27.657   6.446 -0.0152  0.0615  0.0325
    1DIPC   GL1 5931   0.559  27.919   6.032 -0.0225 -0.2176  0.4695
    1DIPC   GL2 5932   0.359  27.814   5.935  0.1071  0.0884 -0.0282
    1DIPC   C1A 5933   0.462  28.231   5.604 -0.4072  0.3603 -0.1002
    1DIPC   D2A 5934   0.427  28.599   5.354 -0.1303 -0.1664 -0.1333
    1DIPC   D3A 5935   0.086  28.584   5.568  0.5756  0.1056 -0.0179
    1DIPC   C4A 5936  -0.311  28.577   5.496  0.0615  0.0657  0.3741
    1DIPC   C1B 5937   0.167  27.857   5.523  0.1566 -0.1712  0.0758
    1DIPC   D2B 5938   0.048  27.888   5.028 -0.2655  0.2894  0.1417
    1DIPC   D3B 5939  -0.378  27.759   5.000  0.1541 -0.2028  0.0991
    1DIPC   C4B 5940  -0.764  27.745   4.763 -0.0734  0.1206 -0.0992
    1DIPC   NC3 5941   5.781  12.566   6.298 -0.0307 -0.1060  0.1009
    1DIPC   PO4 5942   5.969  12.125   6.272  0.2157 -0.0146 -0.0533
    1DIPC   GL1 5943   6.264  11.968   5.985  0.0325  0.0450  0.1765
    1DIPC   GL2 5944   6.275  11.680   5.866  0.2120  0.3119 -0.0938
    1DIPC   C1A 5945   6.656  12.136   5.833 -0.0232 -0.0819  0.0021
    1DIPC   D2A 5946   6.811  12.606   5.924  0.2945 -0.0508  0.1713
    1DIPC   D3A 5947   7.047  12.444   6.305  0.1868 -0.1931  0.0076
    1DIPC   C4A 5948   7.313  12.156   6.522 -0.0631  0.0513 -0.1960
    1DIPC   C1B 5949   6.088  11.642   5.482 -0.0348  0.0895  0.1454
    1DIPC   D2B 5950   5.945  11.975   5.362 -0.4348 -0.0375 -0.2458
    1DIPC   D3B 5951   5.591  11.784   5.306 -0.1161  0.1606  0.1700
    1DIPC   C4B 5952   5.236  11.883   5.125  0.3552  0.1062 -0.0965
    1DIPC   NC3 5953   4.026  15.205   6.309 -0.2812 -0.0699 -0.0070
    1DIPC   PO4 5954   3.766  14.937   6.140 -0.3235 -0.2036 -0.0497
    1DIPC   GL1 5955   4.002  15.257   5.786 -0.0642 -0.0473  0.1513
    1DIPC   GL2 5956   3.768  15.094   5.545 -0.2112 -0.2387  0.2798
    1DIPC   C1A 5957   4.315  15.282   5.539 -0.3602  0.0999  0.2096
    1DIPC   D2A 5958   4.311  15.488   5.133  0.0351  0.1250 -0.1723
    1DIPC   D3A 5959   3.914  15.241   5.105 -0.2901 -0.1473  0.1321
    1DIPC   C4A 5960   3.871  15.130   4.698 -0.1912  0.0545  0.1049
    1DIPC   C1B 5961   3.470  14.990   5.158  0.0026  0.2034 -0.3263
    1DIPC   D2B 5962   3.348  14.493   5.018 -0.1041  0.0213  0.1901
    1DIPC   D3B 5963   3.581  14.054   5.151 -0.1065 -0.3169  0.1768
    1DIPC   C4B 5964   3.665  13.721   4.914 -0.1467  0.1618  0.0703
    1DIPC   NC3 5965  23.469  22.783   6.547 -0.0317  0.1447 -0.0614
    1DIPC   PO4 5966  23.221  23.170   6.650  0.0942  0.1911 -0.2208
    1DIPC   GL1 5967  23.346  23.174   6.114  0.1766 -0.1853  0.0133
    1DIPC   GL2 5968  23.521  23.451   6.012  0.0585 -0.0668  0.1047
    1DIPC   C1A 5969  23.211  23.112   5.694  0.3398 -0.0347 -0.1388
    1DIPC   D2A 5970  22.957  22.957   5.397  0.0725 -0.0455  0.0845
    1DIPC   D3A 5971  22.662  22.706   5.508  0.1768 -0.0059 -0.1456
    1DIPC   C4A 5972  22.229  22.986   5.559 -0.0801  0.0811  0.3407
    1DIPC   C1B 5973  23.716  23.205   5.686 -0.2590  0.2276 -0.3541
    1DIPC   D2B 5974  23.463  22.753   5.543 -0.2503 -0.2800 -0.3466
    1DIPC   D3B 5975  23.374  22.760   5.208  0.0296  0.1477  0.1314
    1DIPC   C4B 5976  23.393  23.210   5.234  0.3605 -0.0510  0.1998
    1DIPC   NC3 5977  18.002  28.651   6.599  0.0596 -0.0747  0.0781
    1DIPC   PO4 5978  18.196  29.134   6.541  0.2474  0.0570  0.2931
    1DIPC   GL1 5979  18.115  28.978   6.136  0.2093 -0.0061  0.1125
    1DIPC   GL2 5980  17.854  28.936   6.173  0.2072 -0.1384  0.1075
    1DIPC   C1A 5981  18.284  28.736   5.841  0.1830 -0.0586  0.0732
    1DIPC   D2A 5982  18.554  28.769   5.516 -0.1115  0.1148 -0.0096
    1DIPC   D3A 5983  18.143  28.795   5.394  0.0032 -0.0593  0.1037
    1DIPC   C4A 5984  17.891  29.012   5.715  0.0098  0.2938 -0.0848
    1DIPC   C1B 5985  17.740  29.394   6.089  0.1452  0.1396 -0.0233
    1DIPC   D2B 5986  17.684  29.838   5.919 -0.0364  0.3096 -0.0156
    1DIPC   D3B 5987  17.707  30.029   5.509 -0.4443 -0.0889  0.2625
    1DIPC   C4B 5988  18.001  30.325   5.350  0.2665 -0.0319 -0.1622
    1DIPC   NC3 5989  16.100  26.975   6.759  0.0911  0.0687  0.1113
    1DIPC   PO4 5990  15.766  27.282   6.711  0.0329 -0.1353  0.0567
    1DIPC   GL1 5991  15.704  26.885   6.434 -0.0695 -0.1499 -0.3294
    1DIPC   GL2 5992  15.855  27.186   6.211  0.2515 -0.0605 -0.2435
    1DIPC   C1A 5993  15.961  26.764   6.072  0.1377 -0.3761 -0.2978
    1DIPC   D2A 5994  16.359  26.716   5.900  0.0256  0.1404  0.0264
    1DIPC   D3A 5995  16.742  26.745   6.141 -0.3356 -0.0894 -0.0763
    1DIPC   C4A 5996  17.066  26.449   6.113 -0.3262  0.1279  0.0853
    1DIPC   C1B 5997  15.558  27.362   5.913 -0.0861  0.0912 -0.2834
    1DIPC   D2B 5998  15.093  27.258   5.911 -0.1245 -0.1778 -0.3701
    1DIPC   D3B 5999  15.107  27.317   5.496  0.3739 -0.1429  0.2076
    1DIPC   C4B 6000  15.485  27.099   5.399  0.1199 -0.1004 -0.2683
    1DIPC   NC3 6001   4.185   2.183   6.746  0.0878 -0.2479  0.4255
    1DIPC   PO4 6002   4.372   2.489   7.009  0.1396  0.1213  0.2208
    1DIPC   GL1 6003   4.455   2.478   6.487  0.0931 -0.1567  0.2873
    1DIPC   GL2 6004   4.251   2.775   6.249 -0.1103  0.1109 -0.0945
    1DIPC   C1A 6005   4.666   2.445   6.026 -0.2099 -0.1783  0.0034
    1DIPC   D2A 6006   4.862   2.381   5.653 -0.4498  0.2258  0.0138
    1DIPC   D3A 6007   5.179   2.473   5.502 -0.4100 -0.0478  0.0295
    1DIPC   C4A 6008   5.332   2.405   5.064 -0.1384  0.1291  0.3941
    1DIPC   C1B 6009   4.563   2.947   6.125  0.1280 -0.2769  0.2254
    1DIPC   D2B 6010   4.885   2.940   5.782 -0.2027 -0.0139  0.2889
    1DIPC   D3B 6011   5.261   3.008   5.660  0.1100 -0.1233  0.0969
    1DIPC   C4B 6012   5.383   2.967   5.132  0.0435  0.0186  0.1256
    1DIPC   NC3 6013  28.213  29.040   6.856 -0.2599 -0.1425  0.1378
    1DIPC   PO4 6014  27.890  29.302   6.733  0.0977 -0.1630 -0.2427
    1DIPC   GL1 6015  27.989  29.180   6.257  0.0379  0.0828 -0.0821
    1DIPC   GL2 6016  28.200  29.228   6.159  0.3128 -0.1692  0.1226
    1DIPC   C1A 6017  27.682  29.097   5.940 -0.1740 -0.0935  0.2538
    1DIPC   D2A 6018  27.270  29.257   5.763  0.0896 -0.1792 -0.0737
    1DIPC   D3A 6019  27.107  29.633   5.953 -0.2383  0.0915 -0.0036
    1DIPC   C4A 6020  26.927  29.958   5.706 -0.2638 -0.0274  0.2282
    1DIPC   C1B 6021  28.193  29.155   5.732 -0.3954  0.0923 -0.1952
    1DIPC   D2B 6022  28.362  29.062   5.311 -0.2380  0.2135 -0.2728
    1DIPC   D3B 6023  27.928  29.133   5.242 -0.0267  0.1282  0.2241
    1DIPC   C4B 6024  27.617  29.100   5.480  0.1155  0.0605 -0.1502
    1DIPC   NC3 6025  13.276   1.003   7.507 -0.1414 -0.1352 -0.1723
    1DIPC   PO4 6026  13.529   1.067   7.173  0.2640  0.0739 -0.0443
    1DIPC   GL1 6027  13.455   0.983   6.711 -0.1221  0.2158  0.1158
    1DIPC   GL2 6028  13.454   0.720   6.516  0.0497 -0.1579  0.2240
    1DIPC   C1A 6029  13.594   1.390   6.381  0.0220 -0.2791  0.1072
    1DIPC   D2A 6030  13.827   1.693   6.169  0.0429  0.1232 -0.0342
    1DIPC   D3A 6031  13.797   1.539   5.769  0.1797  0.2684 -0.1828
    1DIPC   C4A 6032  13.631   1.295   5.539 -0.3824 -0.0205  0.4776
    1DIPC   C1B 6033  13.340   0.513   6.172  0.1564 -0.2893  0.2103
    1DIPC   D2B 6034  13.123   0.600   5.819  0.2554  0.2868  0.0191
    1DIPC   D3B 6035  12.759   0.769   5.902  0.1875  0.1604 -0.0350
    1DIPC   C4B 6036  12.416   1.021   5.950 -0.0596  0.0839  0.0455
    1DIPC   NC3 6037   7.766   1.318   6.811 -0.0927 -0.2746 -0.3712
    1DIPC   PO4 6038   8.078   1.442   6.650  0.1073 -0.5577 -0.4222
    1DIPC   GL1 6039   8.057   1.280   6.227  0.1173  0.2104  0.0376
    1DIPC   GL2 6040   7.803   1.068   6.195  0.0728 -0.0036 -0.3963
    1DIPC   C1A 6041   7.827   1.384   5.860  0.0516  0.1432 -0.0304
    1DIPC   D2A 6042   7.490   1.239   5.438 -0.0391 -0.0662 -0.2206
    1DIPC   D3A 6043   7.187   0.926   5.478 -0.0098  0.1288 -0.1888
    1DIPC   C4A 6044   7.260   0.777   5.051 -0.0279 -0.0615 -0.1049
    1DIPC   C1B 6045   7.651   0.569   6.225  0.1913 -0.0892 -0.0892
    1DIPC   D2B 6046   7.844   0.156   6.256 -0.3592 -0.0694  0.0688
    1DIPC   D3B 6047   7.610   0.321   5.833 -0.0883 -0.1320 -0.3849
    1DIPC   C4B 6048   7.340   0.578   5.769 -0.2199 -0.0223  0.1072
    1DIPC   NC3 6049  10.212   6.137   7.447  0.0064 -0.1715 -0.1121
    1DIPC   PO4 6050  10.000   6.128   6.965  0.0642 -0.1834  0.0365
    1DIPC   GL1 6051  10.139   5.800   6.645 -0.2208  0.4338 -0.2476
    1DIPC   GL2 6052  10.256   5.437   6.716  0.4282  0.1487  0.1607
    1DIPC   C1A 6053   9.988   5.537   6.273 -0.0608 -0.1419 -0.0922
    1DIPC   D2A 6054   9.770   5.176   6.129 -0.3541 -0.0069  0.2989
    1DIPC   D3A 6055   9.852   5.148   5.721  0.4742 -0.2353  0.1336
    1DIPC   C4A 6056  10.299   5.012   5.714 -0.1016 -0.2475 -0.4375
    1DIPC   C1B 6057  10.641   5.194   6.421 -0.1504  0.1174 -0.2365
    1DIPC   D2B 6058  10.891   4.793   6.331  0.1407  0.0948 -0.0534
    1DIPC   D3B 6059  10.889   5.061   5.934 -0.1488  0.0354 -0.2287
    1DIPC   C4B 6060  10.913   5.185   5.561  0.2055 -0.1276 -0.0118
    1DIPC   NC3 6061   6.903  23.367   5.999 -0.0280 -0.1963  0.1378
    1DIPC   PO4 6062   7.056  22.878   6.050 -0.3672  0.2494 -0.1151
    1DIPC   GL1 6063   7.281  22.958   5.683  0.0168  0.0654 -0.1729
    1DIPC   GL2 6064   7.241  23.192   5.558 -0.0373  0.0268 -0.0842
    1DIPC   C1A 6065   7.231  22.853   5.254 -0.1887  0.0665  0.3681
    1DIPC   D2A 6066   7.264  22.790   4.846  0.2074  0.0618  0.0639
    1DIPC   D3A 6067   6.946  22.365   4.857 -0.1453 -0.3440 -0.1938
    1DIPC   C4A 6068   6.658  22.328   4.496  0.0406  0.0043  0.1519
    1DIPC   C1B 6069   7.159  23.533   5.247 -0.1663 -0.1199 -0.1822
    1DIPC   D2B 6070   7.106  23.606   4.783 -0.2167  0.0323 -0.1094
    1DIPC   D3B 6071   6.755  23.382   4.502 -0.0420 -0.1439 -0.1728
    1DIPC   C4B 6072   6.705  23.546   4.068 -0.0107 -0.1131 -0.1302
    1DIPC   NC3 6073   0.935  24.169   5.823  0.0177  0.0023 -0.2739
    1DIPC   PO4 6074   0.668  24.524   5.849  0.0606 -0.0151 -0.1289
    1DIPC   GL1 6075   0.565  24.708   5.323  0.0120 -0.1015  0.0156
    1DIPC   GL2 6076   0.261  24.772   5.339  0.1267 -0.0098 -0.0043
    1DIPC   C1A 6077   0.491  24.605   4.874  0.1259  0.0261  0.1613
    1DIPC   D2A 6078   0.659  24.252   4.481 -0.2935 -0.2080 -0.0150
    1DIPC   D3A 6079   0.490  24.029   4.891  0.2108 -0.0567  0.3686
    1DIPC   C4A 6080   0.713  23.747   5.107  0.2614 -0.0836  0.0005
    1DIPC   C1B 6081  -0.162  24.705   5.320 -0.2717 -0.1986  0.1746
    1DIPC   D2B 6082  -0.455  24.358   5.337  0.1514 -0.4018 -0.0175
    1DIPC   D3B 6083  -0.494  24.430   4.903 -0.1052  0.0131  0.0369
    1DIPC   C4B 6084  -0.714  24.152   4.672  0.3371 -0.1759 -0.0789
    1DIPC   NC3 6085   4.346  29.022   6.743  0.0233  0.1962 -0.0735
    1DIPC   PO4 6086   4.676  29.210   6.375  0.1465  0.0720  0.2817
    1DIPC   GL1 6087   4.761  28.865   6.045  0.0154  0.1244  0.1437
    1DIPC   GL2 6088   4.853  28.970   5.717 -0.0584 -0.1250 -0.1091
    1DIPC   C1A 6089   4.492  28.692   5.749  0.1965  0.1766  0.0820
    1DIPC   D2A 6090   4.237  28.738   5.350 -0.1474 -0.0377  0.0366
    1DIPC   D3A 6091   4.462  29.076   5.447  0.1912  0.2632 -0.0093
    1DIPC   C4A 6092   4.311  29.528   5.516  0.3343 -0.0433  0.0116
    1DIPC   C1B 6093   4.918  28.782   5.309  0.1277 -0.3836  0.3370
    1DIPC   D2B 6094   5.117  28.384   5.358  0.1735 -0.0144  0.4769
    1DIPC   D3B 6095   5.469  28.533   5.066  0.0171 -0.0305 -0.3031
    1DIPC   C4B 6096   5.637  28.115   4.826 -0.0494  0.2491 -0.0939
    1DIPC   NC3 6097  26.993  16.290   6.046 -0.1753 -0.3280 -0.1216
    1DIPC   PO4 6098  27.411  16.123   5.956 -0.0011  0.0136  0.1293
    1DIPC   GL1 6099  27.573  16.250   5.597 -0.0099 -0.3455 -0.0155
    1DIPC   GL2 6100  27.871  16.217   5.400 -0.0992 -0.1896  0.0506
    1DIPC   C1A 6101  27.489  16.162   5.131  0.2503  0.1551 -0.2410
    1DIPC   D2A 6102  27.420  16.042   4.688  0.1340 -0.4379  0.2959
    1DIPC   D3A 6103  27.565  16.457   4.578 -0.0022 -0.1729 -0.0547
    1DIPC   C4A 6104  27.878  16.506   4.250 -0.0007  0.4093 -0.0737
    1DIPC   C1B 6105  28.205  16.125   5.253 -0.2076  0.3075 -0.0818
    1DIPC   D2B 6106  28.461  15.895   4.864  0.2178  0.0378 -0.2321
    1DIPC   D3B 6107  28.495  16.262   4.711 -0.0285  0.2014 -0.1158
    1DIPC   C4B 6108  28.468  16.380   4.296 -0.0431  0.2697 -0.2478
    1DIPC   NC3 6109  24.047   5.140   7.227 -0.0565 -0.3449  0.0121
    1DIPC   PO4 6110  24.165   5.493   7.004  0.0242 -0.2566 -0.0691
    1DIPC   GL1 6111  24.269   5.262   6.698 -0.1710 -0.1266  0.0956
    1DIPC   GL2 6112  24.204   5.454   6.486  0.0228  0.2315  0.0714
    1DIPC   C1A 6113  24.060   4.942   6.440  0.4790 -0.2713 -0.0607
    1DIPC   D2A 6114  24.027   4.552   6.143  0.0313 -0.2614 -0.1311
    1DIPC   D3A 6115  23.692   4.265   6.291  0.0707  0.0301  0.0531
    1DIPC   C4A 6116  23.316   4.127   5.985 -0.0949 -0.1767  0.1152
    1DIPC   C1B 6117  24.200   5.334   6.109  0.1382  0.2145  0.0925
    1DIPC   D2B 6118  24.093   4.959   5.806  0.2153 -0.0858  0.0470
    1DIPC   D3B 6119  24.305   4.540   5.661 -0.2888 -0.1650 -0.2445
    1DIPC   C4B 6120  24.446   4.549   5.313  0.0965  0.2719  0.0126
    1DIPC   NC3 6121  21.546   0.235   7.055  0.4231 -0.0392  0.0493
    1DIPC   PO4 6122  21.803   0.597   7.094  0.3469  0.1418  0.0928
    1DIPC   GL1 6123  21.812   0.792   6.731 -0.0105  0.2116 -0.2245
    1DIPC   GL2 6124  21.683   1.151   6.636 -0.1393  0.0911 -0.0494
    1DIPC   C1A 6125  22.046   0.958   6.405  0.3149 -0.0628 -0.5527
    1DIPC   D2A 6126  22.147   1.180   5.930 -0.1829  0.3231  0.0148
    1DIPC   D3A 6127  22.078   1.204   5.496  0.2133  0.1647  0.2906
    1DIPC   C4A 6128  22.411   1.139   5.203 -0.0083 -0.0230  0.0150
    1DIPC   C1B 6129  21.694   1.233   6.133 -0.2994 -0.0193  0.0773
    1DIPC   D2B 6130  21.626   1.551   5.858 -0.2720  0.2134  0.1394
    1DIPC   D3B 6131  21.361   1.752   5.833 -0.1523  0.2049  0.0255
    1DIPC   C4B 6132  21.292   2.068   5.405 -0.1868 -0.1649 -0.1099
    1DIPC   NC3 6133  16.448   6.907   6.912 -0.1001  0.0924 -0.1363
    1DIPC   PO4 6134  16.569   6.535   6.571 -0.0861 -0.0674 -0.0940
    1DIPC   GL1 6135  16.453   6.761   6.320  0.0720  0.2361 -0.1282
    1DIPC   GL2 6136  16.603   7.054   6.123 -0.3416 -0.0420  0.0937
    1DIPC   C1A 6137  16.416   6.640   5.892  0.2202 -0.1023 -0.2080
    1DIPC   D2A 6138  16.492   6.620   5.433  0.2003  0.1696  0.2395
    1DIPC   D3A 6139  16.895   6.580   5.628 -0.0468 -0.4920 -0.1188
    1DIPC   C4A 6140  17.091   6.731   6.077 -0.0591 -0.0751  0.1805
    1DIPC   C1B 6141  16.586   7.121   5.665  0.2303  0.3116 -0.1159
    1DIPC   D2B 6142  16.847   6.963   5.286 -0.0345  0.2124 -0.0227
    1DIPC   D3B 6143  16.719   6.901   4.840 -0.1557 -0.2024  0.1068
    1DIPC   C4B 6144  17.020   6.933   4.554  0.1774 -0.3764  0.2191
    1DIPC   NC3 6145  14.029   7.961   7.195  0.0555  0.1148 -0.1623
    1DIPC   PO4 6146  13.934   8.398   6.998  0.1246 -0.0114 -0.0021
    1DIPC   GL1 6147  14.012   8.451   6.581 -0.1550  0.1253 -0.0280
    1DIPC   GL2 6148  13.623   8.567   6.375  0.2489  0.2365 -0.1511
    1DIPC   C1A 6149  14.145   8.443   6.121  0.2205  0.0917  0.1622
    1DIPC   D2A 6150  13.992   8.214   5.682 -0.0620  0.4187  0.1753
    1DIPC   D3A 6151  13.575   7.978   5.712  0.3759  0.2342 -0.2099
    1DIPC   C4A 6152  13.452   7.661   5.935  0.2105 -0.0159 -0.0710
    1DIPC   C1B 6153  13.774   8.139   6.206  0.1124 -0.0919  0.0787
    1DIPC   D2B 6154  13.874   7.655   6.215  0.1496 -0.0123  0.2366
    1DIPC   D3B 6155  13.951   7.649   5.762 -0.0505  0.0571  0.0292
    1DIPC   C4B 6156  13.911   7.742   5.415  0.0683  0.1613  0.4391
    1DIPC   NC3 6157  20.681   7.127   6.684 -0.0447  0.2326  0.1569
    1DIPC   PO4 6158  20.675   6.624   6.717 -0.1872 -0.0951 -0.2194
    1DIPC   GL1 6159  20.390   6.801   6.411  0.1666  0.2171 -0.4947
    1DIPC   GL2 6160  20.353   7.171   6.319  0.1980  0.2555  0.2406
    1DIPC   C1A 6161  20.452   6.800   5.982 -0.0918 -0.0576 -0.0925
    1DIPC   D2A 6162  20.748   6.742   5.610  0.0915 -0.2161 -0.0441
    1DIPC   D3A 6163  20.947   7.088   5.693  0.2440  0.0131 -0.0610
    1DIPC   C4A 6164  21.181   7.247   5.443 -0.1124  0.0410  0.3021
    1DIPC   C1B 6165  20.472   7.259   5.853  0.2227 -0.1331  0.0046
    1DIPC   D2B 6166  20.716   7.618   5.608  0.2826  0.0141  0.0602
    1DIPC   D3B 6167  21.135   7.657   5.764  0.2265  0.0402 -0.1601
    1DIPC   C4B 6168  21.439   7.660   5.446 -0.0325 -0.1736 -0.1860
    1DIPC   NC3 6169   9.625  10.576   7.598  0.1457  0.0549 -0.2770
    1DIPC   PO4 6170  10.057  10.652   7.509  0.0618  0.0775 -0.3573
    1DIPC   GL1 6171  10.163  10.549   7.089 -0.0308 -0.1087 -0.1127
    1DIPC   GL2 6172  10.134  10.279   6.964 -0.2196 -0.1403 -0.0194
    1DIPC   C1A 6173  10.091  10.748   6.736  0.1030  0.2189 -0.0567
    1DIPC   D2A 6174   9.953  11.189   6.648  0.5279  0.0299  0.0109
    1DIPC   D3A 6175   9.829  10.934   6.313  0.0699 -0.0896  0.1214
    1DIPC   C4A 6176  10.173  10.745   6.095 -0.0104  0.2842  0.0922
    1DIPC   C1B 6177  10.295   9.902   6.745  0.0487  0.0077  0.1409
    1DIPC   D2B 6178  10.524   9.838   6.466  0.1327 -0.2266  0.1036
    1DIPC   D3B 6179  10.322   9.992   6.248  0.4157 -0.1006 -0.0172
    1DIPC   C4B 6180  10.350  10.184   5.861  0.1135 -0.2472  0.1589
    1DIPC   NC3 6181  10.332  22.917   5.987  0.1098  0.1396  0.1764
    1DIPC   PO4 6182  10.826  22.981   6.141 -0.0473 -0.0709 -0.0845
    1DIPC   GL1 6183  10.865  23.105   5.739 -0.3892 -0.1174  0.3737
    1DIPC   GL2 6184  10.494  23.214   5.587  0.0979 -0.0609  0.1872
    1DIPC   C1A 6185  10.898  22.996   5.232  0.0177  0.1701  0.0284
    1DIPC   D2A 6186  10.915  23.165   4.826  0.1756 -0.1000 -0.1478
    1DIPC   D3A 6187  11.063  22.732   4.633  0.3450 -0.2402 -0.0834
    1DIPC   C4A 6188  11.411  22.680   4.286  0.2045  0.1808  0.0976
    1DIPC   C1B 6189  10.820  23.452   5.268  0.1949 -0.0198 -0.0468
    1DIPC   D2B 6190  10.876  23.778   4.917 -0.2491  0.2000  0.0180
    1DIPC   D3B 6191  11.003  23.801   4.518  0.0416 -0.1893 -0.1930
    1DIPC   C4B 6192  11.252  24.156   4.303  0.0705 -0.1226  0.2715
    1DIPC   NC3 6193  24.923  16.564   6.144 -0.1536  0.0036  0.2464
    1DIPC   PO4 6194  25.313  16.767   6.006 -0.2245  0.2649 -0.0774
    1DIPC   GL1 6195  25.316  16.856   5.674 -0.3913 -0.1025  0.2972
    1DIPC   GL2 6196  25.587  16.809   5.532 -0.1180  0.0261 -0.1923
    1DIPC   C1A 6197  25.056  16.950   5.341 -0.1622  0.0517 -0.2155
    1DIPC   D2A 6198  25.080  17.053   4.873  0.0724 -0.1805 -0.0857
    1DIPC   D3A 6199  25.180  16.622   4.841 -0.1333  0.1475 -0.0578
    1DIPC   C4A 6200  25.248  16.468   5.270 -0.0703 -0.0944  0.1422
    1DIPC   C1B 6201  25.552  16.795   5.106 -0.2964  0.1665 -0.0877
    1DIPC   D2B 6202  25.612  16.657   4.727  0.1715  0.1418  0.0830
    1DIPC   D3B 6203  25.314  16.928   4.483  0.2050 -0.0216  0.1654
    1DIPC   C4B 6204  25.329  17.290   4.317  0.2204  0.0669  0.0164
    1DIPC   NC3 6205  26.975  14.632   6.446 -0.0323  0.1351  0.0786
    1DIPC   PO4 6206  27.287  14.757   6.077  0.4760  0.0074  0.3892
    1DIPC   GL1 6207  27.396  14.702   5.602 -0.1414  0.3835  0.1424
    1DIPC   GL2 6208  27.207  15.022   5.498  0.0416 -0.1806 -0.0124
    1DIPC   C1A 6209  27.566  14.716   5.120  0.0519 -0.0057  0.0742
    1DIPC   D2A 6210  27.711  14.483   4.691 -0.1291  0.1742 -0.1477
    1DIPC   D3A 6211  27.507  14.128   4.770 -0.0603  0.1216  0.0447
    1DIPC   C4A 6212  27.178  14.232   5.089  0.0712  0.0523  0.1233
    1DIPC   C1B 6213  27.259  15.220   5.080  0.2304  0.1354  0.0867
    1DIPC   D2B 6214  27.427  15.129   4.705 -0.0661 -0.0491 -0.1112
    1DIPC   D3B 6215  27.626  15.429   4.743 -0.0798  0.0408  0.1298
    1DIPC   C4B 6216  27.626  15.724   4.479  0.2608  0.2276 -0.0882
    1DIPC   NC3 6217   5.122  29.213   6.090  0.1478  0.1108  0.2461
    1DIPC   PO4 6218   5.485  28.849   6.183 -0.2461 -0.0397  0.2086
    1DIPC   GL1 6219   5.576  29.151   5.878 -0.3512 -0.0630 -0.1241
    1DIPC   GL2 6220   5.916  29.081   5.969 -0.0361  0.2260 -0.0180
    1DIPC   C1A 6221   5.942  29.512   5.571 -0.5832 -0.1593 -0.1711
    1DIPC   D2A 6222   5.831  29.954   5.286  0.0196 -0.0719  0.0986
    1DIPC   D3A 6223   6.259  29.774   5.194  0.1798 -0.0823 -0.0455
    1DIPC   C4A 6224   6.650  30.028   5.167  0.0509 -0.3232 -0.2984
    1DIPC   C1B 6225   5.966  28.999   5.516  0.0565  0.0253  0.2260
    1DIPC   D2B 6226   5.843  28.931   5.136 -0.1476  0.1750 -0.0356
    1DIPC   D3B 6227   6.046  28.511   5.181 -0.1048 -0.1737  0.1278
    1DIPC   C4B 6228   5.814  28.166   5.300  0.3223  0.0158 -0.2095
    1DIPC   NC3 6229  19.346   0.259   6.427 -0.4571  0.0562  0.1823
    1DIPC   PO4 6230  19.677   0.135   6.553 -0.1557 -0.2830 -0.0228
    1DIPC   GL1 6231  20.002   0.065   6.173 -0.1283 -0.0735 -0.1571
    1DIPC   GL2 6232  19.827   0.292   6.040  0.0134 -0.1167  0.1773
    1DIPC   C1A 6233  20.302   0.117   5.834  0.1870  0.1230  0.1083
    1DIPC   D2A 6234  20.560   0.113   5.620 -0.3120 -0.2386  0.0230
    1DIPC   D3A 6235  20.634  -0.262   5.353 -0.1221  0.0659 -0.2592
    1DIPC   C4A 6236  20.428  -0.184   4.934  0.0623 -0.0736 -0.2443
    1DIPC   C1B 6237  19.915   0.418   5.626  0.2311  0.0799 -0.0582
    1DIPC   D2B 6238  20.116   0.628   5.236 -0.2217  0.0833  0.0878
    1DIPC   D3B 6239  19.984   0.149   5.229 -0.2607 -0.1781  0.0994
    1DIPC   C4B 6240  20.181  -0.144   5.428  0.2373 -0.0114  0.3945
    1DIPC   NC3 6241  22.361   2.774   6.519  0.0959 -0.4151 -0.1752
    1DIPC   PO4 6242  22.378   3.187   6.616  0.4712  0.3761  0.0376
    1DIPC   GL1 6243  22.487   3.284   6.203 -0.4325  0.1626 -0.0919
    1DIPC   GL2 6244  22.732   3.429   6.120 -0.0291 -0.0705  0.2408
    1DIPC   C1A 6245  22.638   2.985   5.868  0.4037 -0.3002  0.1339
    1DIPC   D2A 6246  22.548   2.501   5.694  0.0255  0.1484 -0.2047
    1DIPC   D3A 6247  22.531   2.620   5.329 -0.3046 -0.0420 -0.0784
    1DIPC   C4A 6248  22.511   3.030   5.235  0.2579 -0.3558 -0.1482
    1DIPC   C1B 6249  22.753   3.522   5.673  0.1138  0.1535 -0.0798
    1DIPC   D2B 6250  22.487   3.797   5.363  0.1020 -0.1437 -0.1677
    1DIPC   D3B 6251  22.480   3.765   4.932  0.0881 -0.1929  0.1443
    1DIPC   C4B 6252  22.890   4.000   4.715  0.1462  0.2725  0.2009
    1DIPC   NC3 6253  29.900  14.061   6.134 -0.5018 -0.3006 -0.0267
    1DIPC   PO4 6254  30.322  14.155   6.006 -0.0103  0.1433 -0.0792
    1DIPC   GL1 6255  30.368  14.336   5.653 -0.1096  0.0308  0.2475
    1DIPC   GL2 6256  30.237  14.624   5.510 -0.3002  0.0383 -0.0920
    1DIPC   C1A 6257  30.482  14.220   5.262 -0.3705  0.1671  0.3331
    1DIPC   D2A 6258  30.299  14.340   4.872  0.2284 -0.3149 -0.1221
    1DIPC   D3A 6259  30.075  14.005   4.911 -0.2532 -0.0509  0.0594
    1DIPC   C4A 6260  29.862  13.742   4.495  0.0578 -0.0101 -0.4125
    1DIPC   C1B 6261  30.503  14.782   5.109 -0.2188 -0.2693  0.2493
    1DIPC   D2B 6262  30.510  15.114   4.837 -0.0218 -0.1546 -0.0724
    1DIPC   D3B 6263  30.355  15.090   4.418  0.2209 -0.3715  0.0196
    1DIPC   C4B 6264  30.581  14.937   4.133  0.1592 -0.0581  0.0207
    1DIPC   NC3 6265  28.560  12.073   6.482 -0.1693  0.2462  0.3859
    1DIPC   PO4 6266  28.798  11.799   6.265  0.2386  0.0509  0.2797
    1DIPC   GL1 6267  28.884  11.751   5.912 -0.0610  0.1802 -0.1085
    1DIPC   GL2 6268  28.793  11.437   5.730  0.0554 -0.1325  0.0807
    1DIPC   C1A 6269  29.187  11.937   5.653 -0.1270  0.1900  0.1558
    1DIPC   D2A 6270  29.430  12.304   5.386  0.0791  0.4211 -0.2543
    1DIPC   D3A 6271  29.538  12.294   4.942  0.1055 -0.1273  0.1087
    1DIPC   C4A 6272  29.180  12.125   4.576  0.1534  0.2314 -0.0019
    1DIPC   C1B 6273  29.008  11.498   5.479 -0.0765 -0.0823  0.0118
    1DIPC   D2B 6274  29.062  11.840   5.125  0.1849  0.1179 -0.1244
    1DIPC   D3B 6275  28.756  11.864   4.840 -0.1502 -0.0827  0.0700
    1DIPC   C4B 6276  28.451  11.605   4.771 -0.1894 -0.4426 -0.2551
    1DIPC   NC3 6277  27.637  16.991   6.382  0.1404 -0.1842  0.0640
    1DIPC   PO4 6278  27.289  16.571   6.383 -0.0084 -0.0214 -0.3894
    1DIPC   GL1 6279  27.304  16.834   6.015  0.1269 -0.4202  0.1451
    1DIPC   GL2 6280  27.122  16.703   5.766 -0.1105  0.1134 -0.1605
    1DIPC   C1A 6281  27.459  17.094   5.676  0.0120  0.2885  0.1089
    1DIPC   D2A 6282  27.772  17.248   5.474  0.2274  0.1029 -0.0731
    1DIPC   D3A 6283  27.393  17.455   5.328 -0.0817 -0.3629 -0.0330
    1DIPC   C4A 6284  27.364  17.177   5.059 -0.0922 -0.1325 -0.0606
    1DIPC   C1B 6285  27.260  16.682   5.352 -0.1973  0.0134 -0.2098
    1DIPC   D2B 6286  27.614  16.726   5.056 -0.0487 -0.1026  0.2538
    1DIPC   D3B 6287  27.418  16.891   4.696 -0.0345  0.0065  0.0621
    1DIPC   C4B 6288  27.789  16.986   4.520  0.4577  0.1107 -0.2626
    1DIPC   NC3 6289   7.520  16.414   5.752  0.0434  0.1211 -0.0515
    1DIPC   PO4 6290   7.851  16.568   6.077 -0.2346 -0.3161  0.1418
    1DIPC   GL1 6291   7.831  16.817   5.602 -0.0801 -0.4930 -0.0371
    1DIPC   GL2 6292   7.577  16.802   5.418  0.3891 -0.2597  0.0917
    1DIPC   C1A 6293   8.048  17.185   5.482  0.0441 -0.0505  0.0612
    1DIPC   D2A 6294   7.999  17.569   5.592 -0.2754 -0.1017 -0.0334
    1DIPC   D3A 6295   8.152  17.997   5.434  0.1883 -0.1065  0.0821
    1DIPC   C4A 6296   8.521  18.211   5.325 -0.0087  0.2915 -0.1009
    1DIPC   C1B 6297   7.763  16.744   5.028 -0.0166 -0.2362  0.1272
    1DIPC   D2B 6298   7.892  16.271   4.844 -0.0557 -0.0742  0.0616
    1DIPC   D3B 6299   8.150  16.557   4.596  0.2638 -0.0047  0.1500
    1DIPC   C4B 6300   8.048  16.768   4.235  0.1894 -0.0650  0.3575
    1DIPC   NC3 6301   8.617  11.523   6.992  0.2077 -0.1299  0.4438
    1DIPC   PO4 6302   8.475  11.122   7.211 -0.2885  0.2238  0.3978
    1DIPC   GL1 6303   8.285  11.194   6.821  0.0347  0.2477 -0.0305
    1DIPC   GL2 6304   8.446  11.213   6.545  0.1872 -0.1976  0.1790
    1DIPC   C1A 6305   8.109  10.859   6.461  0.0324 -0.2264  0.0310
    1DIPC   D2A 6306   7.865  10.543   6.264  0.1931 -0.2422  0.0425
    1DIPC   D3A 6307   8.329  10.442   6.216  0.1825 -0.1316 -0.0405
    1DIPC   C4A 6308   8.639  10.603   5.980  0.1877  0.0084 -0.4310
    1DIPC   C1B 6309   8.596  11.078   6.181 -0.2337  0.4305 -0.3018
    1DIPC   D2B 6310   8.491  11.028   5.831  0.0663  0.1406  0.1365
    1DIPC   D3B 6311   8.747  10.837   5.537 -0.0039 -0.0187 -0.4243
    1DIPC   C4B 6312   8.761  10.328   5.326 -0.0644 -0.0640 -0.0058
    1DIPC   NC3 6313  27.810  17.704   6.782 -0.1835  0.0653 -0.1038
    1DIPC   PO4 6314  27.513  17.483   6.500  0.0620 -0.2385 -0.0980
    1DIPC   GL1 6315  27.412  17.373   6.116  0.2317  0.2262 -0.3629
    1DIPC   GL2 6316  27.282  17.721   6.063  0.0498  0.0341  0.3851
    1DIPC   C1A 6317  27.076  17.436   5.784 -0.0533 -0.0358  0.5754
    1DIPC   D2A 6318  26.879  17.530   5.435 -0.0991  0.0005 -0.0325
    1DIPC   D3A 6319  26.946  17.123   5.394 -0.1540  0.1278  0.2519
    1DIPC   C4A 6320  26.759  16.766   5.435  0.2109 -0.1792 -0.2275
    1DIPC   C1B 6321  27.573  17.647   5.706  0.2596  0.0268  0.1462
    1DIPC   D2B 6322  27.669  17.880   5.352 -0.0016 -0.1067 -0.0535
    1DIPC   D3B 6323  27.251  17.908   5.152 -0.1658  0.2054 -0.0791
    1DIPC   C4B 6324  27.205  18.226   4.970  0.1636  0.1644 -0.3658
    1DIPC   NC3 6325  15.423  24.587   6.625 -0.2009 -0.2540  0.1287
    1DIPC   PO4 6326  15.568  24.418   6.252 -0.2377  0.0522 -0.0078
    1DIPC   GL1 6327  15.513  24.469   5.814  0.2017 -0.0487 -0.1991
    1DIPC   GL2 6328  15.269  24.330   5.712  0.0337  0.2558 -0.1592
    1DIPC   C1A 6329  15.699  24.284   5.425  0.3318  0.1560  0.0033
    1DIPC   D2A 6330  15.685  23.840   5.409 -0.0313 -0.1031  0.0486
    1DIPC   D3A 6331  16.053  23.976   5.095  0.3144 -0.0671  0.4198
    1DIPC   C4A 6332  16.455  23.661   5.046 -0.0461  0.0881 -0.0688
    1DIPC   C1B 6333  15.244  24.376   5.252  0.3220 -0.1858  0.2098
    1DIPC   D2B 6334  15.609  24.294   4.865  0.2081 -0.0429  0.0757
    1DIPC   D3B 6335  16.017  24.520   4.989  0.1653 -0.1720  0.1837
    1DIPC   C4B 6336  16.071  24.655   5.494 -0.1854  0.2537  0.4681
    1DIPC   NC3 6337  12.786   3.280   7.171  0.1739 -0.0048  0.0021
    1DIPC   PO4 6338  13.199   3.295   7.072 -0.2618  0.0289  0.0867
    1DIPC   GL1 6339  13.288   3.293   6.630 -0.1896 -0.0473 -0.0408
    1DIPC   GL2 6340  13.469   3.167   6.483 -0.0568  0.0792  0.2310
    1DIPC   C1A 6341  12.965   3.339   6.306 -0.1463  0.1560  0.0972
    1DIPC   D2A 6342  12.794   3.560   5.975 -0.1354  0.0781  0.3901
    1DIPC   D3A 6343  12.363   3.356   5.887 -0.0793 -0.1320  0.0290
    1DIPC   C4A 6344  11.973   3.249   5.588 -0.1666 -0.1293 -0.0933
    1DIPC   C1B 6345  13.638   3.286   6.107  0.0922 -0.1881  0.2020
    1DIPC   D2B 6346  13.726   3.137   5.735 -0.0137  0.0785 -0.0070
    1DIPC   D3B 6347  13.391   3.195   5.452 -0.2916  0.1041 -0.5809
    1DIPC   C4B 6348  13.478   3.217   5.016  0.1328 -0.0633  0.3585
    1DIPC   NC3 6349   2.655  24.366   5.705 -0.0865  0.0519  0.0979
    1DIPC   PO4 6350   2.694  23.957   5.830  0.0541  0.1369 -0.0994
    1DIPC   GL1 6351   2.580  23.959   5.390  0.0233  0.1509  0.3552
    1DIPC   GL2 6352   2.280  24.101   5.197 -0.1610 -0.1569  0.2741
    1DIPC   C1A 6353   2.694  23.764   4.982 -0.0577 -0.2338  0.3287
    1DIPC   D2A 6354   2.742  23.837   4.492  0.1338 -0.0610  0.0021
    1DIPC   D3A 6355   2.751  24.125   4.092 -0.0323  0.0100 -0.2502
    1DIPC   C4A 6356   3.029  24.374   3.802  0.3239  0.0138  0.0966
    1DIPC   C1B 6357   2.524  24.307   4.875  0.0038  0.1289  0.2659
    1DIPC   D2B 6358   2.748  24.580   4.492 -0.2511  0.0619  0.1557
    1DIPC   D3B 6359   2.633  24.687   4.060 -0.1410 -0.0495  0.0231
    1DIPC   C4B 6360   2.843  25.015   3.824  0.0489  0.0412  0.3331
    1DIPC   NC3 6361   2.952   1.562   6.866  0.0242  0.1281  0.3586
    1DIPC   PO4 6362   2.871   1.151   6.930 -0.1293 -0.2149 -0.2589
    1DIPC   GL1 6363   2.785   1.196   6.513  0.0746 -0.0142  0.1252
    1DIPC   GL2 6364   2.824   0.925   6.400  0.2018 -0.1782  0.0456
    1DIPC   C1A 6365   2.585   1.271   6.153 -0.3775 -0.0271  0.3182
    1DIPC   D2A 6366   2.256   1.328   5.795  0.3985  0.0841 -0.1669
    1DIPC   D3A 6367   2.282   1.250   5.299 -0.1177 -0.0839 -0.1196
    1DIPC   C4A 6368   2.614   1.082   4.934  0.1521  0.0866  0.0783
    1DIPC   C1B 6369   3.005   1.026   6.048  0.0915  0.0718  0.0291
    1DIPC   D2B 6370   3.107   1.420   5.853 -0.1327  0.2649 -0.1342
    1DIPC   D3B 6371   3.097   1.562   6.225 -0.0854 -0.3629  0.0244
    1DIPC   C4B 6372   2.965   1.963   6.094  0.0082 -0.2060 -0.1162
    1DIPC   NC3 6373  29.800   8.303   6.656  0.0859  0.1742 -0.3165
    1DIPC   PO4 6374  30.069   8.170   6.240 -0.0256 -0.0711  0.3304
    1DIPC   GL1 6375  30.246   8.155   5.782 -0.0945 -0.0290  0.2225
    1DIPC   GL2 6376  30.615   8.105   5.744 -0.0039 -0.1460 -0.0386
    1DIPC   C1A 6377  30.092   8.056   5.349 -0.1726  0.1180 -0.1601
    1DIPC   D2A 6378  29.736   7.833   5.229 -0.0658  0.0832  0.0536
    1DIPC   D3A 6379  29.934   7.408   5.046  0.1856  0.2787 -0.2271
    1DIPC   C4A 6380  29.947   7.289   4.636  0.1724 -0.0018 -0.0434
    1DIPC   C1B 6381  30.436   8.360   5.281  0.0101 -0.3298 -0.1602
    1DIPC   D2B 6382  30.100   8.630   5.086  0.2823  0.1171 -0.2518
    1DIPC   D3B 6383  30.430   8.840   4.940 -0.1093 -0.0287  0.2238
    1DIPC   C4B 6384  30.801   8.899   5.253  0.2832 -0.0514 -0.2602
    1DIPC   NC3 6385  26.345  27.454   6.395 -0.1771  0.2394 -0.2421
    1DIPC   PO4 6386  26.785  27.309   6.264  0.2153 -0.2283  0.2519
    1DIPC   GL1 6387  26.818  27.175   5.872  0.0036 -0.4243 -0.0621
    1DIPC   GL2 6388  26.919  27.324   5.613  0.2559  0.0144 -0.0171
    1DIPC   C1A 6389  26.445  27.107   5.564 -0.1568 -0.0972  0.0417
    1DIPC   D2A 6390  26.065  26.913   5.580  0.0650 -0.0471 -0.2070
    1DIPC   D3A 6391  25.765  26.995   5.306 -0.2014  0.0140 -0.1440
    1DIPC   C4A 6392  25.914  26.849   4.840 -0.4048 -0.0822 -0.1943
    1DIPC   C1B 6393  26.911  27.383   5.155  0.2791  0.1826  0.3606
    1DIPC   D2B 6394  26.950  27.569   4.621 -0.0744 -0.0942 -0.3757
    1DIPC   D3B 6395  26.531  27.473   4.433  0.4360 -0.2034 -0.1426
    1DIPC   C4B 6396  26.544  27.428   3.994 -0.3614 -0.3081  0.0303
    1DIPC   NC3 6397   5.553  16.420   6.000  0.3194  0.1875  0.4413
    1DIPC   PO4 6398   5.863  16.332   5.685  0.0201 -0.1367 -0.0894
    1DIPC   GL1 6399   5.778  16.769   5.455  0.3524 -0.0646 -0.0349
    1DIPC   GL2 6400   5.478  16.745   5.210 -0.1521  0.2445  0.0973
    1DIPC   C1A 6401   5.973  16.978   5.121 -0.0717  0.0392  0.1173
    1DIPC   D2A 6402   6.401  17.253   5.055  0.0559 -0.1221  0.1485
    1DIPC   D3A 6403   6.467  17.605   4.690  0.0572 -0.1636 -0.2123
    1DIPC   C4A 6404   5.955  17.883   4.735 -0.0627  0.2274  0.3049
    1DIPC   C1B 6405   5.694  16.449   5.050  0.2978 -0.1537  0.0462
    1DIPC   D2B 6406   5.944  16.172   4.819  0.1595  0.0752 -0.1489
    1DIPC   D3B 6407   5.859  16.458   4.492  0.0162  0.0551  0.0526
    1DIPC   C4B 6408   6.053  16.761   4.259 -0.2375 -0.0483  0.1745
    1DIPC   NC3 6409  28.403  18.926   6.538  0.0817  0.0920 -0.0585
    1DIPC   PO4 6410  28.787  18.710   6.635 -0.1187  0.1291 -0.1982
    1DIPC   GL1 6411  28.719  18.818   6.196  0.2010  0.0026 -0.1432
    1DIPC   GL2 6412  28.876  18.993   6.051  0.0340 -0.1451 -0.2359
    1DIPC   C1A 6413  28.532  18.744   5.822 -0.0098 -0.4047  0.1880
    1DIPC   D2A 6414  28.546  18.966   5.423  0.2531  0.0932 -0.1982
    1DIPC   D3A 6415  28.852  18.676   5.411 -0.2501 -0.1704 -0.0670
    1DIPC   C4A 6416  29.085  18.626   5.733  0.0016 -0.2590  0.0798
    1DIPC   C1B 6417  28.978  19.073   5.660 -0.2969 -0.1258  0.2136
    1DIPC   D2B 6418  28.998  19.024   5.149 -0.1068 -0.2740  0.1880
    1DIPC   D3B 6419  29.096  18.640   4.989  0.0779 -0.1319  0.1322
    1DIPC   C4B 6420  29.367  18.751   4.727  0.1329 -0.1521  0.2438
    1DIPC   NC3 6421  27.234  18.761   6.318 -0.1091  0.0643 -0.1853
    1DIPC   PO4 6422  27.545  18.463   6.287 -0.0499 -0.0001  0.2770
    1DIPC   GL1 6423  27.467  18.719   5.906 -0.5924  0.1905 -0.0647
    1DIPC   GL2 6424  27.728  18.846   5.870  0.1561  0.1003  0.0664
    1DIPC   C1A 6425  27.250  18.785   5.469  0.1317  0.0107 -0.1756
    1DIPC   D2A 6426  27.319  18.785   5.051  0.0585  0.0302 -0.1040
    1DIPC   D3A 6427  27.734  18.810   4.885  0.0880  0.1884  0.1276
    1DIPC   C4A 6428  27.842  18.669   4.460  0.4012 -0.1340 -0.0722
    1DIPC   C1B 6429  27.760  18.709   5.394  0.1066 -0.1943 -0.2381
    1DIPC   D2B 6430  27.592  18.344   5.290  0.1084 -0.0071  0.0049
    1DIPC   D3B 6431  27.602  18.318   4.737 -0.3028  0.4386  0.2354
    1DIPC   C4B 6432  27.358  18.661   4.514  0.0312 -0.0781 -0.1052
    1DIPC   NC3 6433   6.367  28.973   6.246 -0.0056  0.0031 -0.0280
    1DIPC   PO4 6434   6.480  29.382   6.521  0.0708 -0.0347  0.1063
    1DIPC   GL1 6435   6.714  29.310   6.112 -0.0989  0.0092  0.0618
    1DIPC   GL2 6436   6.845  28.971   5.998 -0.1232 -0.1055 -0.3694
    1DIPC   C1A 6437   6.939  29.425   5.699  0.0732  0.1161 -0.3535
    1DIPC   D2A 6438   7.050  29.747   5.324 -0.2289 -0.0750 -0.0518
    1DIPC   D3A 6439   7.483  29.921   5.253  0.4067 -0.2026  0.3263
    1DIPC   C4A 6440   7.534  30.181   4.906  0.1740  0.0747 -0.1904
    1DIPC   C1B 6441   6.773  28.929   5.581  0.0322 -0.2038 -0.0357
    1DIPC   D2B 6442   6.478  28.906   5.226 -0.4062 -0.0119  0.1719
    1DIPC   D3B 6443   6.245  29.266   5.151 -0.1058 -0.2590  0.4341
    1DIPC   C4B 6444   6.688  29.433   5.174  0.4468 -0.2521  0.0392
    1DIPC   NC3 6445   4.413   4.758   6.510 -0.0955  0.0932  0.1751
    1DIPC   PO4 6446   4.629   5.175   6.733 -0.1037 -0.0636 -0.0973
    1DIPC   GL1 6447   4.349   5.264   6.416  0.0981 -0.1468  0.1712
    1DIPC   GL2 6448   4.504   5.081   6.166 -0.0635 -0.1274  0.3279
    1DIPC   C1A 6449   4.125   5.444   6.050  0.1924  0.1113  0.1931
    1DIPC   D2A 6450   4.264   5.317   5.715  0.0160  0.3257  0.0823
    1DIPC   D3A 6451   4.238   5.251   5.279  0.2625 -0.5398  0.0755
    1DIPC   C4A 6452   4.282   5.427   4.889 -0.1867  0.1924 -0.2183
    1DIPC   C1B 6453   4.706   4.965   5.815 -0.1386 -0.1890 -0.0661
    1DIPC   D2B 6454   4.980   4.900   5.415  0.1776 -0.1538  0.0319
    1DIPC   D3B 6455   4.710   5.116   5.306  0.3723  0.1040  0.2047
    1DIPC   C4B 6456   4.659   5.025   4.879  0.1844  0.0204  0.3665
    1DIPC   NC3 6457  25.403  23.154   6.811 -0.1871  0.0025 -0.0782
    1DIPC   PO4 6458  25.283  23.042   6.316  0.0419 -0.1233 -0.1068
    1DIPC   GL1 6459  25.279  22.785   6.004  0.1496  0.2019 -0.2012
    1DIPC   GL2 6460  25.277  22.497   6.119 -0.0677 -0.1303 -0.1317
    1DIPC   C1A 6461  25.179  22.619   5.590 -0.3199  0.1014 -0.1777
    1DIPC   D2A 6462  25.324  22.415   5.202 -0.1123 -0.0387 -0.0721
    1DIPC   D3A 6463  25.545  22.113   5.096  0.3873 -0.0407 -0.0293
    1DIPC   C4A 6464  25.341  21.742   5.137 -0.2096 -0.2262 -0.1678
    1DIPC   C1B 6465  25.145  22.149   5.884 -0.0670  0.0748 -0.1053
    1DIPC   D2B 6466  25.175  22.060   5.498 -0.0334 -0.1818 -0.1241
    1DIPC   D3B 6467  25.630  22.315   5.624  0.0595  0.1593  0.1059
    1DIPC   C4B 6468  25.992  22.297   5.284  0.1147  0.1818  0.0009
    1DIPC   NC3 6469  26.124   8.615   6.286  0.2839 -0.1433  0.0579
    1DIPC   PO4 6470  26.235   9.088   6.295  0.0647  0.2620  0.1473
    1DIPC   GL1 6471  26.056   9.203   5.898  0.2622 -0.3922 -0.3723
    1DIPC   GL2 6472  26.036   9.578   5.860 -0.0686 -0.2392 -0.0261
    1DIPC   C1A 6473  26.089   9.241   5.420  0.0153 -0.5208  0.0253
    1DIPC   D2A 6474  25.749   9.203   5.182  0.1179  0.2763  0.2066
    1DIPC   D3A 6475  25.604   9.555   5.280 -0.5079 -0.0613 -0.3299
    1DIPC   C4A 6476  25.376   9.902   5.142 -0.1578  0.1604  0.0056
    1DIPC   C1B 6477  25.592   9.331   5.717  0.3958  0.0846  0.0856
    1DIPC   D2B 6478  25.224   9.515   5.608 -0.2733 -0.1054  0.1876
    1DIPC   D3B 6479  25.162   9.259   5.246  0.0459 -0.1437  0.1837
    1DIPC   C4B 6480  25.320   9.220   4.836 -0.2401  0.0923  0.3679
    1DIPC   NC3 6481  10.320  20.850   6.427  0.0189 -0.1888  0.1658
    1DIPC   PO4 6482  10.309  20.405   6.325  0.2624 -0.0159  0.2242
    1DIPC   GL1 6483  10.109  20.519   5.915 -0.0575 -0.0319  0.1623
    1DIPC   GL2 6484  10.016  20.879   6.038  0.1620  0.1143  0.1024
    1DIPC   C1A 6485  10.020  20.610   5.466 -0.1270  0.1735  0.1995
    1DIPC   D2A 6486  10.205  20.915   5.111 -0.0731 -0.1067 -0.3248
    1DIPC   D3A 6487  10.453  20.895   4.693  0.0724 -0.0251  0.0338
    1DIPC   C4A 6488  10.794  21.176   4.796 -0.2635  0.0505  0.1370
    1DIPC   C1B 6489  10.409  20.957   5.745 -0.0372 -0.0710  0.1591
    1DIPC   D2B 6490  10.634  21.009   5.365 -0.1912 -0.1669  0.2357
    1DIPC   D3B 6491  10.975  21.188   5.302  0.2704  0.1402 -0.0656
    1DIPC   C4B 6492  11.005  21.502   5.060 -0.3677  0.1511  0.2134
    1DIPC   NC3 6493   1.636  27.203   6.113 -0.0219  0.0686 -0.0390
    1DIPC   PO4 6494   1.324  27.345   6.117 -0.1182 -0.0955  0.0076
    1DIPC   GL1 6495   1.107  27.593   6.019 -0.2383  0.0683 -0.0781
    1DIPC   GL2 6496   1.216  27.854   6.095 -0.0280 -0.0499 -0.5813
    1DIPC   C1A 6497   1.081  27.692   5.624 -0.2541  0.2121  0.1097
    1DIPC   D2A 6498   1.143  27.452   5.256 -0.0446 -0.0884  0.1441
    1DIPC   D3A 6499   1.077  27.818   5.002 -0.0470 -0.0025  0.1208
    1DIPC   C4A 6500   1.399  27.938   4.706 -0.1498 -0.0830  0.1548
    1DIPC   C1B 6501   1.388  28.073   5.803 -0.0673 -0.1475  0.3614
    1DIPC   D2B 6502   1.752  28.218   5.661 -0.1792 -0.2289  0.1539
    1DIPC   D3B 6503   1.698  28.551   5.344 -0.0033  0.0390 -0.0233
    1DIPC   C4B 6504   1.255  28.652   5.137 -0.1732  0.3536  0.1532
    1DIPC   NC3 6505   7.171  21.087   6.133  0.0296  0.0069 -0.1013
    1DIPC   PO4 6506   7.001  21.327   5.730  0.1957  0.0035 -0.1683
    1DIPC   GL1 6507   6.694  21.248   5.355 -0.0430 -0.1139 -0.2718
    1DIPC   GL2 6508   6.349  21.201   5.259 -0.1128 -0.0532  0.2217
    1DIPC   C1A 6509   6.755  21.149   4.992  0.0111  0.0397  0.0156
    1DIPC   D2A 6510   7.032  21.059   4.720  0.4412 -0.1762  0.1646
    1DIPC   D3A 6511   6.826  21.013   4.276 -0.0700 -0.2655 -0.0969
    1DIPC   C4A 6512   6.991  20.761   3.989 -0.0598  0.1841  0.0019
    1DIPC   C1B 6513   6.426  21.463   4.835  0.3012  0.1401  0.4281
    1DIPC   D2B 6514   6.484  21.682   4.402  0.0234 -0.1512 -0.1055
    1DIPC   D3B 6515   6.179  21.388   4.135  0.2398 -0.2437  0.0176
    1DIPC   C4B 6516   6.413  21.110   3.845  0.1630 -0.0548 -0.1250
    1DIPC   NC3 6517  24.080  20.031   7.187 -0.1068 -0.0121 -0.0437
    1DIPC   PO4 6518  24.121  20.025   6.732 -0.1648  0.0567  0.1525
    1DIPC   GL1 6519  24.227  20.197   6.376  0.1832 -0.2559 -0.1818
    1DIPC   GL2 6520  24.354  19.969   6.123  0.1315 -0.4135 -0.2512
    1DIPC   C1A 6521  24.047  20.608   6.192 -0.2093  0.4179 -0.0785
    1DIPC   D2A 6522  23.816  20.986   6.055 -0.0033 -0.3695  0.1598
    1DIPC   D3A 6523  23.419  21.358   5.907  0.1396 -0.2847 -0.3581
    1DIPC   C4A 6524  23.358  21.440   5.504 -0.1679  0.0336  0.2702
    1DIPC   C1B 6525  24.179  20.202   5.742 -0.2088 -0.0319  0.1139
    1DIPC   D2B 6526  23.917  20.233   5.397  0.0850  0.0554  0.2709
    1DIPC   D3B 6527  24.297  20.018   5.233  0.1983 -0.2026 -0.0022
    1DIPC   C4B 6528  24.556  20.081   4.858 -0.0479  0.1580 -0.0654
    1DIPC   NC3 6529   7.283  19.182   6.084  0.1852 -0.1938  0.1363
    1DIPC   PO4 6530   7.597  19.398   5.942 -0.2590 -0.0349 -0.0502
    1DIPC   GL1 6531   7.850  19.053   5.681  0.3861  0.3259  0.1555
    1DIPC   GL2 6532   7.571  18.785   5.802  0.3275 -0.1085  0.2379
    1DIPC   C1A 6533   8.109  18.722   5.812  0.1216  0.1667 -0.1673
    1DIPC   D2A 6534   8.313  18.348   5.778  0.1370 -0.0829 -0.1875
    1DIPC   D3A 6535   8.740  18.363   5.869  0.3720 -0.3866  0.3213
    1DIPC   C4A 6536   8.980  18.331   5.549  0.0137 -0.1457 -0.1676
    1DIPC   C1B 6537   7.633  18.762   5.342 -0.1099  0.2994  0.2475
    1DIPC   D2B 6538   7.762  18.639   4.925  0.1108  0.1486  0.4288
    1DIPC   D3B 6539   7.638  19.097   4.822  0.2498  0.1321  0.3549
    1DIPC   C4B 6540   7.915  19.131   4.479 -0.0939 -0.1955 -0.0631
    1DIPC   NC3 6541   1.852   0.883   6.784  0.1209 -0.4204  0.2402
    1DIPC   PO4 6542   1.683   1.189   6.637 -0.1300  0.1401  0.0703
    1DIPC   GL1 6543   1.528   1.198   6.225  0.0819  0.2733  0.2279
    1DIPC   GL2 6544   1.643   1.451   5.998  0.2563  0.0787  0.1875
    1DIPC   C1A 6545   1.330   0.974   5.938  0.2673  0.2048 -0.0032
    1DIPC   D2A 6546   1.357   0.829   5.488  0.2088  0.2269 -0.1568
    1DIPC   D3A 6547   1.389   0.935   5.028 -0.0051  0.0311 -0.1207
    1DIPC   C4A 6548   1.326   1.379   4.768 -0.2227 -0.2819 -0.0974
    1DIPC   C1B 6549   1.873   1.644   5.635  0.1309 -0.1843 -0.2037
    1DIPC   D2B 6550   1.770   2.126   5.544  0.3917 -0.0145 -0.2264
    1DIPC   D3B 6551   1.572   1.826   5.247 -0.0567 -0.0512  0.3297
    1DIPC   C4B 6552   1.349   1.897   4.815 -0.0807 -0.1238 -0.1354
    1DIPC   NC3 6553  14.684   7.726   7.086 -0.2173  0.1578  0.2072
    1DIPC   PO4 6554  14.264   7.614   6.930 -0.1433 -0.2253 -0.0832
    1DIPC   GL1 6555  14.363   7.493   6.516 -0.2696  0.3037  0.0586
    1DIPC   GL2 6556  14.683   7.721   6.593 -0.0559 -0.2229  0.0067
    1DIPC   C1A 6557  14.659   7.163   6.338 -0.0372 -0.0839 -0.0226
    1DIPC   D2A 6558  15.066   7.239   6.343  0.1658 -0.1173  0.1427
    1DIPC   D3A 6559  15.236   7.471   6.055  0.4324 -0.3490  0.3122
    1DIPC   C4A 6560  15.081   7.836   5.869  0.0258 -0.0563 -0.1353
    1DIPC   C1B 6561  14.729   7.673   6.224 -0.0949 -0.1393 -0.1007
    1DIPC   D2B 6562  14.775   7.368   5.858 -0.1905 -0.4295  0.2247
    1DIPC   D3B 6563  14.378   7.411   6.031  0.0123  0.0908 -0.2546
    1DIPC   C4B 6564  14.158   7.163   6.133  0.0304 -0.0815 -0.3052
    1DIPC   NC3 6565  28.488  15.995   6.700  0.3475 -0.3736 -0.1587
    1DIPC   PO4 6566  28.696  16.141   6.338  0.3927 -0.0415  0.1234
    1DIPC   GL1 6567  28.725  16.289   5.984  0.0642 -0.0922 -0.0142
    1DIPC   GL2 6568  29.084  16.309   5.755 -0.1234  0.1002 -0.2083
    1DIPC   C1A 6569  28.615  16.288   5.536 -0.0261  0.0850 -0.0172
    1DIPC   D2A 6570  28.396  16.568   5.360  0.2589 -0.1265 -0.3015
    1DIPC   D3A 6571  28.066  16.659   5.263 -0.2081 -0.0577  0.0464
    1DIPC   C4A 6572  27.800  16.745   5.616 -0.1755 -0.2984 -0.0076
    1DIPC   C1B 6573  28.999  16.565   5.373  0.0513 -0.0090 -0.0205
    1DIPC   D2B 6574  28.794  16.595   4.997  0.0300 -0.0014  0.2700
    1DIPC   D3B 6575  28.725  16.735   4.577 -0.0807  0.4027  0.0682
    1DIPC   C4B 6576  28.335  16.903   4.201 -0.1076  0.1676 -0.3229
    1DIPC   NC3 6577  25.493  27.936   6.591  0.0023 -0.2771 -0.0506
    1DIPC   PO4 6578  25.780  27.675   6.602 -0.0002  0.0357  0.1491
    1DIPC   GL1 6579  25.879  27.710   6.184  0.1912 -0.2492  0.0769
    1DIPC   GL2 6580  25.673  27.659   5.988 -0.3598 -0.2465 -0.4021
    1DIPC   C1A 6581  26.164  28.013   6.044 -0.0454  0.0313  0.0076
    1DIPC   D2A 6582  26.658  28.239   6.333 -0.0306 -0.2137  0.1323
    1DIPC   D3A 6583  26.975  28.279   6.013  0.0796  0.0762  0.2744
    1DIPC   C4A 6584  26.962  28.538   5.592  0.1971 -0.0480 -0.1580
    1DIPC   C1B 6585  25.463  28.030   5.710 -0.1021 -0.0024 -0.2531
    1DIPC   D2B 6586  25.433  28.373   5.379  0.2106  0.1013  0.0849
    1DIPC   D3B 6587  25.659  28.800   5.337 -0.1792  0.2133 -0.0738
    1DIPC   C4B 6588  25.947  29.075   4.905  0.3797 -0.0551  0.0377
    1DIPC   NC3 6589   5.420  24.636   5.961 -0.0512 -0.2422 -0.2245
    1DIPC   PO4 6590   5.696  24.160   6.043 -0.3010 -0.2197  0.2176
    1DIPC   GL1 6591   5.552  24.365   5.598 -0.0276  0.0634 -0.1137
    1DIPC   GL2 6592   5.360  24.621   5.484  0.0416  0.3696  0.2661
    1DIPC   C1A 6593   5.891  24.208   5.204 -0.0849 -0.1048  0.1960
    1DIPC   D2A 6594   6.021  24.553   4.877  0.1216  0.0523  0.0722
    1DIPC   D3A 6595   6.059  24.711   4.461 -0.1400  0.3333 -0.0548
    1DIPC   C4A 6596   6.096  24.654   4.103  0.0389 -0.1490  0.0436
    1DIPC   C1B 6597   5.540  24.574   5.050 -0.0855  0.0434 -0.1310
    1DIPC   D2B 6598   5.609  24.339   4.649 -0.0798 -0.0679 -0.2200
    1DIPC   D3B 6599   5.408  24.057   4.392 -0.0147  0.1013 -0.1772
    1DIPC   C4B 6600   5.167  23.666   4.520  0.0778  0.1931  0.2753
    1DIPC   NC3 6601  11.478   0.680   7.144 -0.0175 -0.0568 -0.0784
    1DIPC   PO4 6602  11.571   0.259   7.106  0.2246 -0.2394 -0.0412
    1DIPC   GL1 6603  11.550   0.424   6.686 -0.2699  0.0163  0.3029
    1DIPC   GL2 6604  11.375   0.363   6.476 -0.1504 -0.2466  0.1427
    1DIPC   C1A 6605  11.714   0.796   6.471 -0.0861  0.1673  0.0191
    1DIPC   D2A 6606  11.868   1.129   6.118  0.1935  0.1377 -0.2992
    1DIPC   D3A 6607  12.040   0.710   5.997  0.2196  0.1288 -0.0458
    1DIPC   C4A 6608  12.333   0.730   5.566  0.2442  0.0784 -0.2617
    1DIPC   C1B 6609  11.332   0.648   6.099 -0.2053 -0.1597  0.0603
    1DIPC   D2B 6610  11.537   0.846   5.718 -0.0274 -0.3126 -0.3246
    1DIPC   D3B 6611  11.847   0.795   5.402 -0.3318 -0.0870 -0.1418
    1DIPC   C4B 6612  12.168   1.049   5.183 -0.0046 -0.1786 -0.2868
    1DIPC   NC3 6613  26.431  19.368   6.372  0.3698 -0.2814 -0.1356
    1DIPC   PO4 6614  26.089  19.107   6.354 -0.0736 -0.1631  0.1019
    1DIPC   GL1 6615  25.964  19.362   5.833  0.0457 -0.2253 -0.2042
    1DIPC   GL2 6616  26.121  19.616   5.696  0.0704  0.2435  0.1390
    1DIPC   C1A 6617  25.958  19.252   5.388  0.1513 -0.1857  0.1666
    1DIPC   D2A 6618  26.268  19.382   5.089  0.0859 -0.2017  0.2132
    1DIPC   D3A 6619  26.555  19.464   5.403 -0.0534 -0.1127 -0.0075
    1DIPC   C4A 6620  26.761  19.745   5.661  0.0634 -0.1287 -0.1436
    1DIPC   C1B 6621  26.294  19.890   5.568 -0.3087  0.0940  0.0290
    1DIPC   D2B 6622  26.377  20.243   5.709 -0.1662  0.0766  0.0050
    1DIPC   D3B 6623  26.060  20.410   5.514  0.0979 -0.1115  0.2430
    1DIPC   C4B 6624  26.015  20.628   5.138  0.3759  0.3139  0.0941
    1DIPC   NC3 6625   8.941   4.744   6.696  0.2788 -0.2481 -0.1250
    1DIPC   PO4 6626   8.941   5.183   6.616  0.1824 -0.1647 -0.3397
    1DIPC   GL1 6627   8.912   5.068   6.247  0.1921  0.0155  0.1994
    1DIPC   GL2 6628   8.976   4.701   6.163 -0.1517  0.1930 -0.0320
    1DIPC   C1A 6629   8.964   5.133   5.706  0.0697 -0.2613  0.0091
    1DIPC   D2A 6630   8.866   5.467   5.397  0.2580  0.1357 -0.1872
    1DIPC   D3A 6631   8.845   5.260   4.907 -0.2134  0.0919 -0.0553
    1DIPC   C4A 6632   8.579   4.962   4.860  0.2553  0.0776 -0.1153
    1DIPC   C1B 6633   8.579   4.465   6.077 -0.1426 -0.1204 -0.0438
    1DIPC   D2B 6634   8.187   4.120   6.160  0.1935  0.2041  0.2149
    1DIPC   D3B 6635   8.119   4.028   5.761 -0.1096 -0.1111 -0.0737
    1DIPC   C4B 6636   7.885   3.588   5.727 -0.2972  0.0905 -0.0700
    1DIPC   NC3 6637  12.371  24.945   6.005  0.1457  0.0878 -0.1249
    1DIPC   PO4 6638  12.340  24.532   6.074  0.3010  0.0813 -0.0824
    1DIPC   GL1 6639  12.441  24.584   5.588 -0.0793 -0.1020 -0.1160
    1DIPC   GL2 6640  12.447  24.259   5.435  0.1328  0.1385  0.1200
    1DIPC   C1A 6641  12.381  24.715   5.213 -0.0408  0.0768 -0.3909
    1DIPC   D2A 6642  12.194  24.806   4.756  0.1997 -0.2341 -0.0235
    1DIPC   D3A 6643  12.425  24.580   4.678  0.1885  0.2140  0.2301
    1DIPC   C4A 6644  12.159  24.357   4.943  0.1056 -0.1063  0.1674
    1DIPC   C1B 6645  12.648  24.136   5.062 -0.2212  0.0558 -0.0353
    1DIPC   D2B 6646  12.864  24.372   4.743 -0.0124 -0.1954  0.1894
    1DIPC   D3B 6647  12.586  24.194   4.432  0.1906 -0.0190 -0.3319
    1DIPC   C4B 6648  12.246  24.327   4.266 -0.0038  0.1157  0.2255
    1DIPC   NC3 6649  23.271  29.755   6.931 -0.0845  0.2691 -0.0565
    1DIPC   PO4 6650  23.424  30.180   6.814 -0.2078 -0.0951 -0.3100
    1DIPC   GL1 6651  23.772  30.255   6.484 -0.0605  0.2339 -0.2621
    1DIPC   GL2 6652  23.932  30.010   6.386  0.2749  0.1886 -0.2617
    1DIPC   C1A 6653  23.621  30.369   6.106  0.0680 -0.0585 -0.0128
    1DIPC   D2A 6654  23.672  30.577   5.762 -0.0296  0.0099 -0.2304
    1DIPC   D3A 6655  23.614  30.947   5.447  0.0655 -0.1481 -0.0904
    1DIPC   C4A 6656  23.337  30.832   5.213  0.2944  0.0559 -0.1081
    1DIPC   C1B 6657  23.875  29.920   6.083  0.2562  0.0502 -0.0292
    1DIPC   D2B 6658  23.801  30.077   5.604 -0.0624 -0.0209  0.1659
    1DIPC   D3B 6659  24.218  29.842   5.570 -0.0043 -0.3235 -0.1071
    1DIPC   C4B 6660  24.554  29.648   5.302 -0.1497  0.0077 -0.1836
    1DIPC   NC3 6661   6.741  22.472   6.091 -0.0244  0.4423  0.1354
    1DIPC   PO4 6662   7.133  22.333   5.839 -0.2380  0.0939  0.0352
    1DIPC   GL1 6663   7.182  22.044   5.376 -0.0637 -0.1546  0.1121
    1DIPC   GL2 6664   6.916  21.834   5.313  0.0776  0.2298 -0.0233
    1DIPC   C1A 6665   7.279  21.924   4.937  0.3334 -0.2007  0.0865
    1DIPC   D2A 6666   7.415  21.800   4.569  0.0338 -0.0241  0.1941
    1DIPC   D3A 6667   7.143  22.130   4.354 -0.0052  0.2007 -0.1812
    1DIPC   C4A 6668   6.858  21.991   4.087 -0.2508 -0.4252  0.0072
    1DIPC   C1B 6669   7.155  21.432   5.098 -0.4569 -0.0104 -0.2818
    1DIPC   D2B 6670   7.406  21.333   4.727 -0.1322 -0.2189 -0.0133
    1DIPC   D3B 6671   7.440  21.281   4.387  0.0148 -0.2507 -0.1368
    1DIPC   C4B 6672   7.144  21.306   3.982 -0.4218 -0.1765  0.0598
    1DIPC   NC3 6673  16.523  29.168   7.004 -0.3437 -0.0179  0.2554
    1DIPC   PO4 6674  16.946  28.938   6.943  0.0421 -0.0076  0.0253
    1DIPC   GL1 6675  16.811  29.023   6.563  0.0812  0.3212 -0.2052
    1DIPC   GL2 6676  16.815  28.614   6.573  0.1953  0.1542  0.1536
    1DIPC   C1A 6677  16.882  29.136   6.162  0.1289 -0.0440 -0.3861
    1DIPC   D2A 6678  16.955  28.913   5.771  0.1305 -0.0156 -0.1221
    1DIPC   D3A 6679  16.550  28.838   5.589 -0.2093  0.1455 -0.3064
    1DIPC   C4A 6680  16.382  28.700   5.086 -0.0553  0.0747  0.4241
    1DIPC   C1B 6681  16.865  28.559   6.135 -0.1270  0.0531  0.0119
    1DIPC   D2B 6682  16.985  28.422   5.685 -0.0242 -0.1364 -0.2481
    1DIPC   D3B 6683  16.761  28.436   5.323 -0.2010  0.1705  0.3423
    1DIPC   C4B 6684  16.882  28.682   4.902 -0.1539  0.1857  0.1720
    1DIPC   NC3 6685  27.933  27.428   6.484  0.0362  0.4198 -0.1989
    1DIPC   PO4 6686  28.174  27.101   6.372  0.2349  0.1175 -0.0277
    1DIPC   GL1 6687  27.901  27.073   6.025  0.0806  0.2101  0.1021
    1DIPC   GL2 6688  27.807  27.401   5.993 -0.0857  0.1821 -0.1810
    1DIPC   C1A 6689  27.826  26.972   5.637 -0.2309 -0.3646  0.1078
    1DIPC   D2A 6690  27.758  26.735   5.235 -0.0590 -0.0501  0.0274
    1DIPC   D3A 6691  27.843  26.743   4.831  0.3195  0.1428 -0.0155
    1DIPC   C4A 6692  27.906  26.336   4.571  0.0711  0.2710 -0.2367
    1DIPC   C1B 6693  27.609  27.603   5.737  0.0207  0.4477 -0.2020
    1DIPC   D2B 6694  27.267  27.648   5.494  0.1784  0.0439 -0.2363
    1DIPC   D3B 6695  27.395  27.607   5.014 -0.0432 -0.0991  0.3183
    1DIPC   C4B 6696  27.419  27.215   4.830  0.0449 -0.0923 -0.4191
    1DIPC   NC3 6697   0.827  22.779   5.980 -0.2947  0.1996  0.0115
    1DIPC   PO4 6698   0.948  23.228   5.919  0.1574 -0.1637 -0.0534
    1DIPC   GL1 6699   0.821  23.197   5.480  0.0899 -0.1688  0.1274
    1DIPC   GL2 6700   1.102  23.150   5.206  0.1895  0.0475  0.1514
    1DIPC   C1A 6701   0.621  23.275   5.071 -0.1567 -0.0103  0.0509
    1DIPC   D2A 6702   0.161  23.066   4.995  0.2780  0.0888 -0.2898
    1DIPC   D3A 6703  -0.240  22.977   5.100  0.0866 -0.3660  0.0175
    1DIPC   C4A 6704  -0.269  22.913   5.566 -0.2191  0.0095  0.0894
    1DIPC   C1B 6705   1.102  23.444   4.894  0.0747 -0.1140 -0.0893
    1DIPC   D2B 6706   1.297  23.472   4.498  0.2160 -0.0378  0.0917
    1DIPC   D3B 6707   1.530  23.080   4.307  0.0715  0.0304 -0.0789
    1DIPC   C4B 6708   1.667  22.729   4.519  0.1064 -0.3683  0.0475
    1DIPC   NC3 6709  24.474  12.799   6.194  0.0990  0.0906  0.1689
    1DIPC   PO4 6710  24.600  13.191   6.374 -0.0347  0.2721 -0.3251
    1DIPC   GL1 6711  24.617  13.197   5.900 -0.2538 -0.1462  0.0432
    1DIPC   GL2 6712  24.223  13.249   5.882 -0.1828 -0.2928  0.1013
    1DIPC   C1A 6713  24.515  13.161   5.417  0.0649  0.0461 -0.3928
    1DIPC   D2A 6714  24.525  12.951   5.014  0.0683  0.0949  0.6394
    1DIPC   D3A 6715  24.149  13.000   5.091 -0.0369  0.0140 -0.0699
    1DIPC   C4A 6716  23.940  13.414   4.893 -0.3261  0.0278  0.3000
    1DIPC   C1B 6717  23.911  13.136   5.611  0.0659 -0.1027 -0.0837
    1DIPC   D2B 6718  23.863  12.682   5.558 -0.1874 -0.0613 -0.1794
    1DIPC   D3B 6719  23.664  12.829   5.167  0.1950  0.2560 -0.0500
    1DIPC   C4B 6720  23.852  12.734   4.688 -0.0615  0.0457 -0.2015
    1DIPC   NC3 6721  14.481  29.431   7.147  0.2157  0.1631 -0.1165
    1DIPC   PO4 6722  14.748  29.698   6.845 -0.0206 -0.0372  0.2251
    1DIPC   GL1 6723  15.026  29.995   6.543  0.0137 -0.1298  0.2735
    1DIPC   GL2 6724  14.778  30.295   6.359  0.0668  0.1173 -0.0573
    1DIPC   C1A 6725  15.184  30.141   6.116 -0.0998 -0.1372  0.1791
    1DIPC   D2A 6726  15.224  30.560   6.070 -0.0684  0.0576 -0.0899
    1DIPC   D3A 6727  15.305  30.411   5.723 -0.1033  0.3835  0.2223
    1DIPC   C4A 6728  15.141  30.585   5.330  0.1076  0.0025  0.0881
    1DIPC   C1B 6729  14.794  30.431   5.768 -0.0050  0.1475  0.0521
    1DIPC   D2B 6730  14.672  30.728   5.361 -0.2938 -0.1773  0.1755
    1DIPC   D3B 6731  14.228  30.841   5.391  0.0304 -0.4496 -0.2138
    1DIPC   C4B 6732  14.107  31.293   5.323 -0.1670  0.3970 -0.1140
    1DIPC   NC3 6733  12.323  24.019   6.190 -0.4250 -0.2324  0.0709
    1DIPC   PO4 6734  12.450  23.884   5.796 -0.1560  0.0164  0.4341
    1DIPC   GL1 6735  12.753  23.710   5.599 -0.4267 -0.0962 -0.2067
    1DIPC   GL2 6736  13.128  23.552   5.655 -0.4170  0.0858  0.2899
    1DIPC   C1A 6737  12.766  23.675   5.196  0.0873  0.2797 -0.1472
    1DIPC   D2A 6738  12.702  23.636   4.824  0.0526  0.0673 -0.1415
    1DIPC   D3A 6739  13.002  23.872   4.795 -0.1981  0.0117 -0.1399
    1DIPC   C4A 6740  13.152  24.088   5.104  0.0390 -0.2517  0.0656
    1DIPC   C1B 6741  13.465  23.757   5.444 -0.0780  0.0104  0.3374
    1DIPC   D2B 6742  13.656  23.858   5.006 -0.0843 -0.2461  0.2718
    1DIPC   D3B 6743  13.477  24.199   4.766  0.3335 -0.2243 -0.1226
    1DIPC   C4B 6744  13.176  24.261   4.367 -0.0932  0.0361  0.0373
    1DIPC   NC3 6745  17.087   0.194   7.200  0.0650  0.0980  0.0104
    1DIPC   PO4 6746  16.688   0.310   7.017  0.0528  0.2207  0.0773
    1DIPC   GL1 6747  16.536   0.423   6.617  0.1134  0.1368  0.1674
    1DIPC   GL2 6748  16.141   0.490   6.602 -0.1725  0.3011  0.1834
    1DIPC   C1A 6749  16.433   0.552   6.173  0.1238  0.2587 -0.2135
    1DIPC   D2A 6750  16.321   0.675   5.802 -0.1326  0.1676  0.0791
    1DIPC   D3A 6751  16.441   0.982   5.475  0.0499  0.2414  0.0056
    1DIPC   C4A 6752  16.895   0.914   5.213  0.1870  0.3034 -0.2712
    1DIPC   C1B 6753  16.040   0.151   6.473 -0.0058  0.0585 -0.0224
    1DIPC   D2B 6754  16.235  -0.180   6.297  0.3786 -0.2697  0.0710
    1DIPC   D3B 6755  16.501  -0.189   6.051 -0.0795  0.2431  0.1645
    1DIPC   C4B 6756  16.827   0.008   6.214 -0.0424  0.1998  0.3800
    1DIPC   NC3 6757   3.151   0.725   6.764  0.2192 -0.1153 -0.1226
    1DIPC   PO4 6758   3.489   0.761   6.451 -0.0945  0.1805  0.0173
    1DIPC   GL1 6759   3.331   0.623   6.118 -0.2397 -0.0231  0.1344
    1DIPC   GL2 6760   3.053   0.536   6.227 -0.0498 -0.0976 -0.3734
    1DIPC   C1A 6761   3.412   0.450   5.768 -0.1727 -0.0766 -0.1231
    1DIPC   D2A 6762   3.347   0.387   5.249  0.0543  0.0711 -0.1553
    1DIPC   D3A 6763   3.365   0.742   5.208 -0.5220 -0.0627 -0.2098
    1DIPC   C4A 6764   3.169   0.927   4.883 -0.1630  0.0664  0.0709
    1DIPC   C1B 6765   2.967   0.571   5.758 -0.0801 -0.4898 -0.0293
    1DIPC   D2B 6766   2.876   0.643   5.309  0.0238  0.2622  0.3714
    1DIPC   D3B 6767   2.469   0.759   5.261  0.2515 -0.2157 -0.1281
    1DIPC   C4B 6768   2.231   0.621   5.625 -0.0467  0.1629  0.2121
    1DIPC   NC3 6769  21.931  12.492   6.527  0.1398 -0.0949 -0.3158
    1DIPC   PO4 6770  21.869  12.898   6.227 -0.0886  0.0664 -0.2291
    1DIPC   GL1 6771  21.709  12.777   5.810 -0.1924  0.1083  0.1824
    1DIPC   GL2 6772  21.455  13.044   5.674 -0.0382 -0.0788  0.1822
    1DIPC   C1A 6773  21.575  12.449   5.490  0.1548 -0.1163  0.1821
    1DIPC   D2A 6774  21.506  12.333   5.258 -0.0388  0.2426  0.0869
    1DIPC   D3A 6775  21.489  12.635   4.940  0.1958 -0.3929  0.3983
    1DIPC   C4A 6776  21.225  12.567   4.530 -0.3234 -0.0214  0.0923
    1DIPC   C1B 6777  21.405  13.160   5.202  0.5497  0.0397  0.1662
    1DIPC   D2B 6778  21.300  13.156   4.787 -0.0213 -0.0452  0.2600
    1DIPC   D3B 6779  21.660  13.007   4.439  0.1042 -0.0563  0.1001
    1DIPC   C4B 6780  22.092  13.167   4.439  0.3852 -0.0099  0.2061
    1DIPC   NC3 6781   0.210   1.800   6.062  0.1242  0.1252 -0.1809
    1DIPC   PO4 6782  -0.155   2.055   5.926  0.1911 -0.0591 -0.2343
    1DIPC   GL1 6783   0.150   2.015   5.487 -0.0295  0.1148 -0.0703
    1DIPC   GL2 6784   0.475   1.924   5.507  0.5586 -0.2018  0.0934
    1DIPC   C1A 6785   0.075   1.809   5.123  0.0895 -0.1866  0.2224
    1DIPC   D2A 6786  -0.338   1.863   4.938  0.1021  0.2859  0.2309
    1DIPC   D3A 6787  -0.089   1.620   4.614  0.0876 -0.0404  0.0258
    1DIPC   C4A 6788   0.144   1.249   4.625  0.0014  0.0452  0.0926
    1DIPC   C1B 6789   0.512   2.237   5.191  0.0088  0.0604 -0.1358
    1DIPC   D2B 6790   0.319   2.436   4.947  0.2442 -0.1499  0.1629
    1DIPC   D3B 6791   0.535   2.460   4.491  0.0927  0.0070 -0.3939
    1DIPC   C4B 6792   0.921   2.683   4.400  0.1543  0.3954  0.0400
    1DIPC   NC3 6793  18.694  26.746   7.076  0.2203 -0.1117 -0.1686
    1DIPC   PO4 6794  18.481  27.063   6.818 -0.0889 -0.2139  0.0517
    1DIPC   GL1 6795  18.349  26.834   6.494 -0.1222  0.3097 -0.0872
    1DIPC   GL2 6796  18.734  26.764   6.482 -0.0343 -0.1586 -0.1534
    1DIPC   C1A 6797  18.181  26.649   6.123 -0.1707 -0.1752 -0.0315
    1DIPC   D2A 6798  17.946  26.464   5.855  0.2561 -0.1894 -0.0938
    1DIPC   D3A 6799  17.913  26.199   5.619 -0.0005  0.0559  0.1620
    1DIPC   C4A 6800  18.043  26.090   5.189 -0.1202 -0.0054 -0.1184
    1DIPC   C1B 6801  18.678  26.668   6.046 -0.2289  0.3173  0.2009
    1DIPC   D2B 6802  18.506  26.670   5.546  0.3077  0.0560  0.1466
    1DIPC   D3B 6803  18.856  26.816   5.651 -0.2973 -0.0141  0.1485
    1DIPC   C4B 6804  18.977  27.247   5.599 -0.1196 -0.0085 -0.1435
    1DIPC   NC3 6805  19.454   1.433   7.119  0.1247  0.0581  0.1807
    1DIPC   PO4 6806  19.164   1.326   6.776 -0.2057  0.1473  0.5409
    1DIPC   GL1 6807  19.054   1.444   6.391 -0.0377 -0.0824 -0.1782
    1DIPC   GL2 6808  19.142   1.218   6.153 -0.1685  0.3362 -0.0574
    1DIPC   C1A 6809  18.892   1.648   5.948 -0.1918  0.0648 -0.1266
    1DIPC   D2A 6810  19.134   1.525   5.696 -0.1390  0.2761  0.3703
    1DIPC   D3A 6811  18.995   1.152   5.413  0.1376  0.2005  0.1588
    1DIPC   C4A 6812  18.658   1.173   5.037  0.0744 -0.1245 -0.3091
    1DIPC   C1B 6813  19.358   1.102   5.733  0.1487  0.0469 -0.0590
    1DIPC   D2B 6814  19.696   0.888   5.478  0.0896 -0.1398 -0.1213
    1DIPC   D3B 6815  19.620   1.222   5.188 -0.0330  0.3453  0.0909
    1DIPC   C4B 6816  19.328   1.450   5.237 -0.0978 -0.0280  0.1996
    1DIPC   NC3 6817  22.549   0.045   7.267 -0.1120  0.0008 -0.1333
    1DIPC   PO4 6818  22.276  -0.076   6.924  0.0964  0.1338  0.0364
    1DIPC   GL1 6819  22.443   0.180   6.553 -0.0491 -0.3778  0.1190
    1DIPC   GL2 6820  22.334   0.364   6.348 -0.0976  0.2622  0.0093
    1DIPC   C1A 6821  22.877   0.047   6.426 -0.0660  0.2061 -0.0881
    1DIPC   D2A 6822  23.257   0.135   6.241  0.3188  0.0084 -0.0961
    1DIPC   D3A 6823  22.945   0.004   5.862  0.0681  0.2159  0.0148
    1DIPC   C4A 6824  22.850   0.088   5.459 -0.0341  0.4701 -0.0799
    1DIPC   C1B 6825  22.240   0.666   6.025 -0.0260  0.1266 -0.1283
    1DIPC   D2B 6826  22.372   0.824   5.686 -0.0981  0.0734  0.0406
    1DIPC   D3B 6827  22.577   0.600   5.329 -0.0200  0.0342  0.0124
    1DIPC   C4B 6828  22.992   0.567   5.199 -0.2467 -0.2644  0.1569
    1DIPC   NC3 6829   0.976   8.882   6.221  0.4910  0.0673 -0.1696
    1DIPC   PO4 6830   0.741   8.575   6.027 -0.0467  0.1143 -0.0859
    1DIPC   GL1 6831   0.544   8.719   5.736 -0.0698  0.1154 -0.1855
    1DIPC   GL2 6832   0.190   8.793   5.837 -0.0892  0.0849  0.0537
    1DIPC   C1A 6833   0.377   8.905   5.423  0.0485 -0.1161  0.0448
    1DIPC   D2A 6834   0.092   9.122   5.313 -0.1186 -0.3967  0.2139
    1DIPC   D3A 6835   0.022   9.105   4.916  0.2628  0.0636  0.1419
    1DIPC   C4A 6836  -0.190   9.364   4.633  0.1042  0.2821  0.0185
    1DIPC   C1B 6837  -0.007   8.628   5.568  0.2629 -0.0624 -0.0850
    1DIPC   D2B 6838  -0.216   8.349   5.264 -0.2537  0.0075 -0.2781
    1DIPC   D3B 6839  -0.424   8.611   5.085  0.1779  0.1023  0.3035
    1DIPC   C4B 6840  -0.801   8.656   4.761  0.1307  0.2144 -0.0413
    1DIPC   NC3 6841  24.454   0.817   7.407  0.0048 -0.5441  0.1003
    1DIPC   PO4 6842  24.501   0.434   7.190  0.0338 -0.0091 -0.0368
    1DIPC   GL1 6843  24.505   0.521   6.685 -0.0682 -0.0827  0.1117
    1DIPC   GL2 6844  24.336   0.507   6.571 -0.1683 -0.0818 -0.0617
    1DIPC   C1A 6845  24.461   0.751   6.161 -0.1399 -0.1112  0.0172
    1DIPC   D2A 6846  24.557   0.697   5.710  0.0770 -0.0806  0.0314
    1DIPC   D3A 6847  24.395   0.943   5.345 -0.1616 -0.0299 -0.3025
    1DIPC   C4A 6848  24.011   1.107   5.148  0.0432  0.0494 -0.1096
    1DIPC   C1B 6849  24.006   0.757   6.476  0.0677  0.0303  0.1861
    1DIPC   D2B 6850  23.945   1.174   6.491 -0.0154 -0.2866 -0.0885
    1DIPC   D3B 6851  24.433   1.144   6.663  0.1425  0.0352  0.0789
    1DIPC   C4B 6852  24.726   1.028   6.464 -0.0859 -0.0396 -0.1428
    1DIPC   NC3 6853   4.572  20.028   5.884 -0.0700  0.0960  0.2121
    1DIPC   PO4 6854   4.936  19.766   5.667 -0.0857  0.2346 -0.2848
    1DIPC   GL1 6855   4.578  19.913   5.399  0.1986  0.2026 -0.3612
    1DIPC   GL2 6856   4.318  19.710   5.321  0.2228 -0.0323  0.3328
    1DIPC   C1A 6857   4.324  20.233   5.185  0.2115 -0.0603 -0.1373
    1DIPC   D2A 6858   4.370  20.621   4.827 -0.2361  0.0684 -0.1940
    1DIPC   D3A 6859   4.031  20.417   4.622  0.0027  0.1732 -0.1204
    1DIPC   C4A 6860   3.951  20.311   4.251 -0.0295 -0.0528  0.3478
    1DIPC   C1B 6861   4.304  19.634   4.833 -0.1400  0.0451 -0.0703
    1DIPC   D2B 6862   4.375  20.047   4.605  0.2400 -0.2282 -0.1613
    1DIPC   D3B 6863   4.442  20.128   4.131 -0.2106  0.1076  0.1477
    1DIPC   C4B 6864   4.771  19.916   3.941 -0.0072  0.3360 -0.3324
    1DIPC   NC3 6865   9.523   7.807   7.033 -0.0203 -0.1072  0.1781
    1DIPC   PO4 6866   9.319   7.423   7.103 -0.0125  0.2399 -0.2292
    1DIPC   GL1 6867   9.289   7.480   6.595 -0.0710 -0.0705 -0.0173
    1DIPC   GL2 6868   9.036   7.596   6.661  0.1844  0.0772 -0.1690
    1DIPC   C1A 6869   9.393   7.452   6.205  0.0509 -0.1383  0.1146
    1DIPC   D2A 6870   9.124   7.398   5.831  0.2504  0.1663  0.2906
    1DIPC   D3A 6871   9.248   7.630   5.490  0.2191  0.1561 -0.2860
    1DIPC   C4A 6872   9.003   7.727   5.095 -0.0850 -0.0486  0.1764
    1DIPC   C1B 6873   9.008   7.804   6.313  0.1391 -0.1676  0.3187
    1DIPC   D2B 6874   8.752   8.163   6.110 -0.2322 -0.2382  0.1660
    1DIPC   D3B 6875   9.030   8.124   5.812 -0.2801 -0.1262 -0.1888
    1DIPC   C4B 6876   9.316   7.858   5.900 -0.1257 -0.1499 -0.2819
    1DIPC   NC3 6877  22.736  26.775   6.503  0.3715  0.0301  0.1916
    1DIPC   PO4 6878  23.081  26.365   6.552 -0.1460 -0.1234 -0.2649
    1DIPC   GL1 6879  23.048  26.401   6.160 -0.0235  0.1576  0.0951
    1DIPC   GL2 6880  23.085  26.050   6.173  0.3252 -0.1538  0.2522
    1DIPC   C1A 6881  23.116  26.397   5.722 -0.1658  0.1785  0.0931
    1DIPC   D2A 6882  23.505  26.463   5.453  0.0636  0.1943  0.0588
    1DIPC   D3A 6883  23.678  26.306   5.088 -0.2427  0.0978  0.0232
    1DIPC   C4A 6884  23.504  26.368   4.745 -0.5200 -0.1475 -0.1581
    1DIPC   C1B 6885  23.392  26.014   5.862 -0.3227 -0.3347  0.2977
    1DIPC   D2B 6886  23.521  25.946   5.497  0.1943 -0.2404  0.0091
    1DIPC   D3B 6887  23.877  26.118   5.606 -0.1478  0.1043  0.0598
    1DIPC   C4B 6888  23.991  26.609   5.507 -0.2721 -0.0576  0.0611
    1DIPC   NC3 6889  12.938   9.515   7.229  0.4230  0.1516 -0.2628
    1DIPC   PO4 6890  12.815   9.681   6.869 -0.2503  0.1800  0.1282
    1DIPC   GL1 6891  12.879   9.678   6.481  0.2002  0.1382  0.3017
    1DIPC   GL2 6892  12.812   9.735   6.148 -0.3403  0.1270 -0.0751
    1DIPC   C1A 6893  13.224   9.402   6.302  0.1898 -0.0095  0.0612
    1DIPC   D2A 6894  13.357   9.033   6.346  0.2952 -0.0922  0.1562
    1DIPC   D3A 6895  13.330   8.967   5.944  0.2321 -0.0457 -0.0476
    1DIPC   C4A 6896  13.570   8.961   5.540  0.2576 -0.1653  0.1989
    1DIPC   C1B 6897  12.575   9.786   5.737 -0.1073  0.3476  0.0080
    1DIPC   D2B 6898  12.585  10.020   5.329 -0.0054 -0.0504 -0.1428
    1DIPC   D3B 6899  12.403  10.440   5.338 -0.0587 -0.0592  0.1388
    1DIPC   C4B 6900  12.352  10.813   5.201  0.0767 -0.3440 -0.2064
    1DIPC   NC3 6901  21.686   5.622   6.517  0.0112 -0.4895  0.0074
    1DIPC   PO4 6902  21.798   5.154   6.400 -0.0799  0.1977 -0.1698
    1DIPC   GL1 6903  21.637   5.045   6.102 -0.0922  0.0266  0.2444
    1DIPC   GL2 6904  21.845   5.322   5.934  0.1324 -0.0895  0.0510
    1DIPC   C1A 6905  21.510   4.958   5.716  0.1094  0.0017 -0.3195
    1DIPC   D2A 6906  21.402   5.003   5.246 -0.3534 -0.1092 -0.1057
    1DIPC   D3A 6907  21.514   4.716   5.025  0.0231 -0.0404 -0.0926
    1DIPC   C4A 6908  21.291   4.433   4.828 -0.3315  0.0056  0.4981
    1DIPC   C1B 6909  22.079   4.912   5.847  0.0140 -0.3095  0.0370
    1DIPC   D2B 6910  22.517   4.867   6.027 -0.1057  0.2559 -0.2126
    1DIPC   D3B 6911  22.488   4.797   5.490 -0.2108 -0.0995  0.0738
    1DIPC   C4B 6912  22.241   4.942   5.073  0.3121  0.2805  0.0107
    1DIPC   NC3 6913  18.702  28.484   6.926  0.1252 -0.2372  0.0317
    1DIPC   PO4 6914  19.081  28.253   6.937 -0.0743  0.0272  0.2017
    1DIPC   GL1 6915  19.045  28.271   6.508  0.1556  0.0924  0.1309
    1DIPC   GL2 6916  18.763  28.294   6.399  0.3347  0.0646 -0.0385
    1DIPC   C1A 6917  19.245  28.507   6.181  0.0986  0.1537  0.0511
    1DIPC   D2A 6918  19.352  28.875   6.062 -0.1250 -0.1181  0.0678
    1DIPC   D3A 6919  19.164  28.786   5.757  0.0761 -0.1038  0.1822
    1DIPC   C4A 6920  18.927  29.101   5.499 -0.0970  0.2556  0.1368
    1DIPC   C1B 6921  18.443  28.268   6.108  0.4399 -0.0262  0.1545
    1DIPC   D2B 6922  17.943  28.427   6.182 -0.0924  0.3512 -0.0724
    1DIPC   D3B 6923  17.926  28.433   5.656 -0.1951  0.0008 -0.0896
    1DIPC   C4B 6924  18.225  28.116   5.513 -0.0218 -0.2855 -0.3905
    1DIPC   NC3 6925  24.744  26.083   7.019 -0.1760 -0.0601 -0.3188
    1DIPC   PO4 6926  24.936  25.979   6.654 -0.1647 -0.2812  0.2015
    1DIPC   GL1 6927  24.745  25.881   6.230 -0.0491  0.1865  0.0688
    1DIPC   GL2 6928  24.565  26.247   6.114  0.0411  0.2273 -0.2152
    1DIPC   C1A 6929  24.356  25.837   5.850 -0.1162  0.0818  0.4054
    1DIPC   D2A 6930  24.441  25.763   5.382 -0.3245  0.0429  0.0820
    1DIPC   D3A 6931  24.351  25.836   4.878 -0.0562  0.0793  0.0664
    1DIPC   C4A 6932  24.283  26.222   4.660 -0.2254 -0.0137  0.0518
    1DIPC   C1B 6933  24.351  26.307   5.627 -0.0598  0.2208  0.0784
    1DIPC   D2B 6934  24.154  26.146   5.227  0.2229  0.1292  0.1917
    1DIPC   D3B 6935  23.933  25.850   5.144 -0.3481  0.1929 -0.1630
    1DIPC   C4B 6936  23.552  25.833   4.951  0.1599  0.3602 -0.1065
    1DIPC   NC3 6937  23.047   4.282   6.557  0.0446  0.0186  0.0286
    1DIPC   PO4 6938  23.115   4.714   6.667 -0.1992  0.1523  0.1174
    1DIPC   GL1 6939  23.152   4.751   6.276  0.2887  0.0134  0.0153
    1DIPC   GL2 6940  22.966   4.983   6.091  0.1337 -0.3823  0.0034
    1DIPC   C1A 6941  23.539   4.618   5.984 -0.0411 -0.2736  0.1705
    1DIPC   D2A 6942  23.846   4.351   5.685  0.0939  0.0483 -0.1224
    1DIPC   D3A 6943  23.849   4.326   5.242 -0.0049  0.0973 -0.1909
    1DIPC   C4A 6944  24.100   4.508   4.972 -0.0350 -0.0260 -0.0718
    1DIPC   C1B 6945  22.868   5.170   5.704  0.0412 -0.0926  0.1058
    1DIPC   D2B 6946  22.926   5.202   5.269  0.0673  0.2401  0.0789
    1DIPC   D3B 6947  22.741   5.228   4.866 -0.0709 -0.1720 -0.2640
    1DIPC   C4B 6948  22.485   5.624   4.715  0.0351  0.2907 -0.0903
    1DIPC   NC3 6949   7.274  27.135   6.131  0.1125  0.0375  0.1887
    1DIPC   PO4 6950   7.586  26.879   6.262 -0.0225 -0.2202  0.0087
    1DIPC   GL1 6951   7.844  26.924   6.028  0.0625  0.3479  0.0943
    1DIPC   GL2 6952   7.827  26.690   5.791  0.0389  0.4339 -0.1084
    1DIPC   C1A 6953   7.992  27.125   5.629 -0.1846  0.0303 -0.0343
    1DIPC   D2A 6954   7.967  27.590   5.474  0.1356  0.0972  0.2354
    1DIPC   D3A 6955   7.824  27.427   4.992 -0.2198  0.1911 -0.2893
    1DIPC   C4A 6956   7.304  27.353   4.775 -0.1994 -0.2868 -0.0849
    1DIPC   C1B 6957   7.845  26.698   5.355  0.0150 -0.1194  0.0547
    1DIPC   D2B 6958   8.017  26.990   5.145 -0.0995  0.0204  0.0470
    1DIPC   D3B 6959   8.370  26.807   4.932  0.0905  0.0045 -0.0591
    1DIPC   C4B 6960   8.546  26.459   4.543 -0.1823  0.0254  0.0195
    1DIPC   NC3 6961  29.179  16.422   6.248  0.0728 -0.2605  0.2881
    1DIPC   PO4 6962  29.487  16.238   5.983 -0.3242 -0.0415  0.0006
    1DIPC   GL1 6963  29.586  16.691   5.754 -0.4143  0.0102  0.1573
    1DIPC   GL2 6964  29.227  16.925   5.620  0.1259 -0.2476 -0.1181
    1DIPC   C1A 6965  29.533  16.693   5.359 -0.0196  0.0091 -0.0180
    1DIPC   D2A 6966  29.361  16.457   5.006  0.0310  0.0215  0.1132
    1DIPC   D3A 6967  29.360  16.168   5.251 -0.0902  0.4100  0.1373
    1DIPC   C4A 6968  29.499  15.632   5.207  0.1186  0.1162 -0.1977
    1DIPC   C1B 6969  29.161  16.992   5.158 -0.0453 -0.0012  0.1672
    1DIPC   D2B 6970  29.151  17.075   4.640  0.0437 -0.1122 -0.1899
    1DIPC   D3B 6971  29.185  16.828   4.296 -0.1659  0.5808 -0.0757
    1DIPC   C4B 6972  29.111  16.376   4.273 -0.1578  0.1072 -0.2702
    1DIPC   NC3 6973   8.236   5.395   6.935  0.3377 -0.1949  0.2105
    1DIPC   PO4 6974   8.066   5.001   6.711 -0.3636 -0.0350 -0.2017
    1DIPC   GL1 6975   8.142   4.893   6.395 -0.1646 -0.0225  0.1216
    1DIPC   GL2 6976   8.487   4.860   6.467  0.0450 -0.2618  0.0025
    1DIPC   C1A 6977   8.004   4.630   6.162 -0.0123 -0.0951 -0.0425
    1DIPC   D2A 6978   7.887   4.514   5.705  0.0716 -0.2101 -0.0218
    1DIPC   D3A 6979   8.313   4.495   5.577 -0.2060 -0.3384 -0.0194
    1DIPC   C4A 6980   8.490   4.566   5.157 -0.2149 -0.2286  0.1805
    1DIPC   C1B 6981   8.456   4.936   6.034  0.2487  0.2445  0.1632
    1DIPC   D2B 6982   8.104   4.991   5.706  0.0515  0.4575 -0.2656
    1DIPC   D3B 6983   8.062   5.005   5.348  0.1490 -0.0494  0.1338
    1DIPC   C4B 6984   8.257   5.292   5.096 -0.1725 -0.2381 -0.0943
    1DIPC   NC3 6985  25.559   1.875   6.744 -0.1511 -0.0396 -0.2455
    1DIPC   PO4 6986  25.886   2.088   6.682 -0.0868  0.0294  0.0936
    1DIPC   GL1 6987  26.006   1.791   6.324  0.2186 -0.1491 -0.2018
    1DIPC   GL2 6988  26.331   1.701   6.287 -0.2381  0.0740 -0.1317
    1DIPC   C1A 6989  25.753   1.564   5.982 -0.0364 -0.1984 -0.1855
    1DIPC   D2A 6990  25.551   1.430   5.632  0.2216  0.2425  0.2424
    1DIPC   D3A 6991  25.540   1.304   5.191  0.1953  0.2353  0.2009
    1DIPC   C4A 6992  25.844   1.501   4.982  0.0128  0.0401  0.1140
    1DIPC   C1B 6993  26.207   1.612   5.816 -0.2339 -0.1990 -0.1811
    1DIPC   D2B 6994  26.028   1.457   5.526 -0.2254  0.1368 -0.1228
    1DIPC   D3B 6995  26.309   1.648   5.310 -0.2408  0.0722 -0.2804
    1DIPC   C4B 6996  26.307   1.532   4.886 -0.3614 -0.0840  0.1244
    1DIPC   NC3 6997  16.601  24.768   7.144  0.0075 -0.2921  0.0275
    1DIPC   PO4 6998  16.738  25.205   6.965  0.0288 -0.0284  0.1991
    1DIPC   GL1 6999  16.726  25.087   6.549 -0.0366 -0.0137  0.2150
    1DIPC   GL2 7000  16.910  25.374   6.516  0.0574  0.0088 -0.1883
    1DIPC   C1A 7001  17.075  24.934   6.220 -0.2019 -0.1425 -0.0832
    1DIPC   D2A 7002  17.341  25.109   5.900  0.0001  0.0696  0.3349
    1DIPC   D3A 7003  17.395  24.903   5.467 -0.0373 -0.0447 -0.1264
    1DIPC   C4A 7004  17.164  24.839   5.164 -0.0366 -0.3116  0.0918
    1DIPC   C1B 7005  16.932  25.417   6.017  0.1765 -0.0025 -0.3357
    1DIPC   D2B 7006  17.248  25.645   5.711 -0.1168 -0.0637  0.2291
    1DIPC   D3B 7007  17.061  25.257   5.537  0.3123 -0.1078 -0.0738
    1DIPC   C4B 7008  16.909  24.942   5.589  0.2163  0.0749 -0.3164
    1DIPC   NC3 7009  25.657   3.437   6.746  0.0068  0.0325  0.0217
    1DIPC   PO4 7010  25.329   3.187   6.545 -0.2820  0.1669 -0.0035
    1DIPC   GL1 7011  25.253   3.119   6.150  0.0386 -0.0836 -0.2394
    1DIPC   GL2 7012  24.853   2.959   6.133 -0.3459  0.1758 -0.1936
    1DIPC   C1A 7013  24.953   3.297   5.782 -0.1577 -0.3717 -0.0334
    1DIPC   D2A 7014  24.753   3.765   5.614  0.1102  0.0858 -0.0003
    1DIPC   D3A 7015  24.448   4.105   5.497  0.4158 -0.1099  0.0069
    1DIPC   C4A 7016  24.475   4.099   5.015  0.2269  0.0463  0.1630
    1DIPC   C1B 7017  24.561   2.792   5.756 -0.4787 -0.2122  0.3035
    1DIPC   D2B 7018  24.514   3.064   5.422 -0.1547 -0.2202  0.0051
    1DIPC   D3B 7019  24.386   3.014   5.078  0.0047 -0.1270 -0.0107
    1DIPC   C4B 7020  24.416   2.642   4.905 -0.3866  0.1926  0.2205
    1DIPC   NC3 7021  28.052  18.183   6.240 -0.0280 -0.1568  0.0109
    1DIPC   PO4 7022  28.202  17.898   6.353  0.1921 -0.1291  0.3188
    1DIPC   GL1 7023  28.240  17.866   5.949  0.0204 -0.1306 -0.0247
    1DIPC   GL2 7024  28.020  18.023   5.773  0.3421 -0.0226  0.2434
    1DIPC   C1A 7025  28.157  17.607   5.553  0.4320  0.0290  0.0996
    1DIPC   D2A 7026  28.207  17.640   5.118 -0.2894 -0.0419  0.4295
    1DIPC   D3A 7027  27.770  17.483   4.913 -0.0638  0.0350 -0.2319
    1DIPC   C4A 7028  27.868  17.539   4.458 -0.3302 -0.3277  0.1719
    1DIPC   C1B 7029  28.161  18.059   5.298  0.0345  0.1330  0.3568
    1DIPC   D2B 7030  27.934  17.944   4.859  0.0048 -0.2089 -0.1189
    1DIPC   D3B 7031  27.960  18.051   4.456  0.2853  0.2287  0.0638
    1DIPC   C4B 7032  27.970  17.835   4.086 -0.1050 -0.1688  0.1911
    1DIPC   NC3 7033  12.028   0.198   7.269  0.0443  0.3702  0.0674
    1DIPC   PO4 7034  12.338   0.140   6.989 -0.0843 -0.1796  0.0699
    1DIPC   GL1 7035  12.008   0.120   6.794 -0.2811  0.1772  0.0560
    1DIPC   GL2 7036  12.158  -0.092   6.622  0.0831  0.0728  0.0566
    1DIPC   C1A 7037  11.676  -0.044   6.518  0.0286 -0.0823 -0.3258
    1DIPC   D2A 7038  11.252  -0.259   6.450 -0.0950 -0.4752 -0.0575
    1DIPC   D3A 7039  11.574  -0.328   6.097  0.0732  0.0109 -0.0556
    1DIPC   C4A 7040  12.010  -0.046   6.110 -0.1794  0.2157 -0.2921
    1DIPC   C1B 7041  11.986  -0.461   6.427  0.2298 -0.1516 -0.1402
    1DIPC   D2B 7042  12.023  -0.659   6.044  0.0212 -0.2546  0.1681
    1DIPC   D3B 7043  11.727  -0.630   5.733 -0.1252  0.0137  0.0545
    1DIPC   C4B 7044  11.740  -0.775   5.318  0.0937  0.1921 -0.0925
    1DIPC   NC3 7045   0.494  23.389   5.873  0.2003 -0.1311  0.0801
    1DIPC   PO4 7046   0.385  22.911   5.806  0.0138  0.2013 -0.2366
    1DIPC   GL1 7047   0.499  22.647   5.534  0.1648  0.0825  0.2874
    1DIPC   GL2 7048   0.766  22.728   5.375  0.3274 -0.4546  0.1091
    1DIPC   C1A 7049   0.143  22.635   5.231 -0.1173 -0.0284 -0.4435
    1DIPC   D2A 7050   0.131  22.525   4.724 -0.2838  0.1627 -0.1884
    1DIPC   D3A 7051  -0.054  22.848   4.373 -0.0668 -0.1015 -0.1699
    1DIPC   C4A 7052  -0.327  23.128   4.551 -0.2758  0.0372  0.1187
    1DIPC   C1B 7053   0.683  22.795   4.939 -0.1830 -0.4364 -0.1000
    1DIPC   D2B 7054   0.412  23.027   4.544  0.2707 -0.3769  0.1301
    1DIPC   D3B 7055   0.576  22.800   4.313 -0.1643 -0.0297  0.0774
    1DIPC   C4B 7056   1.026  22.970   4.170  0.0985  0.1754 -0.0102
    1DIPC   NC3 7057  27.058  19.549   6.617  0.0465 -0.2960 -0.0811
    1DIPC   PO4 7058  27.393  19.695   6.267 -0.0524  0.2428  0.0006
    1DIPC   GL1 7059  27.209  19.856   5.859 -0.1537  0.1003 -0.1177
    1DIPC   GL2 7060  27.220  19.579   5.746 -0.2460 -0.1095 -0.0253
    1DIPC   C1A 7061  27.144  20.023   5.491  0.1688  0.2576 -0.0051
    1DIPC   D2A 7062  26.960  19.863   5.122  0.1563 -0.3267 -0.2390
    1DIPC   D3A 7063  26.669  19.883   5.172  0.1282 -0.4134 -0.1238
    1DIPC   C4A 7064  26.574  20.327   5.217  0.0086 -0.2061 -0.1391
    1DIPC   C1B 7065  27.506  19.271   5.681  0.0753 -0.0337  0.1317
    1DIPC   D2B 7066  27.538  19.182   5.206 -0.4461  0.0516 -0.0122
    1DIPC   D3B 7067  27.835  19.396   4.905 -0.1811  0.2103  0.1282
    1DIPC   C4B 7068  27.661  19.126   4.493 -0.1912 -0.2371 -0.1590
    1DIPC   NC3 7069  25.496  26.887   6.436 -0.0406 -0.0605  0.1714
    1DIPC   PO4 7070  25.113  26.815   6.546 -0.1725  0.4911  0.2791
    1DIPC   GL1 7071  25.112  26.651   6.128 -0.2416 -0.2706  0.4844
    1DIPC   GL2 7072  25.360  26.561   6.046 -0.0590 -0.1954  0.1591
    1DIPC   C1A 7073  24.948  26.416   5.804  0.2858  0.2027  0.2101
    1DIPC   D2A 7074  24.958  26.524   5.414  0.1325  0.1232 -0.0904
    1DIPC   D3A 7075  24.884  26.655   4.988 -0.0175  0.0263 -0.0586
    1DIPC   C4A 7076  24.793  26.488   4.611  0.1439  0.0592  0.1904
    1DIPC   C1B 7077  25.439  26.649   5.577  0.0293 -0.1585 -0.0032
    1DIPC   D2B 7078  25.391  26.715   5.137  0.1061  0.0904  0.1894
    1DIPC   D3B 7079  25.416  27.083   4.920 -0.3867  0.1151  0.0625
    1DIPC   C4B 7080  25.709  27.379   4.925 -0.3446  0.0489 -0.0442
    1DIPC   NC3 7081  28.256   1.486   6.733 -0.2545  0.1149  0.2764
    1DIPC   PO4 7082  28.514   1.845   6.713  0.0449  0.2905  0.0630
    1DIPC   GL1 7083  28.518   1.790   6.230 -0.0538  0.1125  0.1321
    1DIPC   GL2 7084  28.536   1.552   6.051 -0.0878  0.0184 -0.0676
    1DIPC   C1A 7085  28.736   2.027   6.039 -0.1451  0.0916 -0.0540
    1DIPC   D2A 7086  28.840   2.059   5.592  0.0126 -0.2067  0.3410
    1DIPC   D3A 7087  28.979   1.888   5.159  0.0215  0.0398  0.0042
    1DIPC   C4A 7088  28.695   1.671   4.910  0.1002 -0.0050  0.2439
    1DIPC   C1B 7089  28.713   1.213   5.860  0.0102 -0.1745 -0.0670
    1DIPC   D2B 7090  29.130   1.253   5.541 -0.0642  0.0586  0.1994
    1DIPC   D3B 7091  29.520   1.142   5.377 -0.1412  0.0354  0.0111
    1DIPC   C4B 7092  29.764   1.363   5.074 -0.1982 -0.2193 -0.1329
    1DIPC   NC3 7093  17.580   6.902   6.960  0.0416 -0.3439 -0.1507
    1DIPC   PO4 7094  17.472   7.180   6.651  0.0601  0.0022 -0.2712
    1DIPC   GL1 7095  17.607   7.189   6.210  0.2332 -0.1012 -0.0735
    1DIPC   GL2 7096  17.553   6.904   6.181 -0.2573  0.2243 -0.1238
    1DIPC   C1A 7097  17.529   7.116   5.705 -0.0975 -0.4613 -0.1748
    1DIPC   D2A 7098  17.316   6.898   5.357 -0.0746  0.3569  0.1052
    1DIPC   D3A 7099  17.430   6.903   4.910  0.2431  0.1044 -0.0582
    1DIPC   C4A 7100  17.614   7.278   4.883  0.0756 -0.0751 -0.2116
    1DIPC   C1B 7101  17.651   6.637   5.940 -0.0911 -0.1439  0.0219
    1DIPC   D2B 7102  17.398   6.451   5.652  0.0399  0.0674  0.3083
    1DIPC   D3B 7103  17.426   6.477   5.206  0.3004  0.0653  0.1860
    1DIPC   C4B 7104  17.047   6.603   4.993  0.1144  0.0977 -0.1756
    1DIPC   NC3 7105   1.685   9.735   6.732 -0.5809  0.2441  0.0588
    1DIPC   PO4 7106   2.186   9.559   6.759 -0.0902 -0.2953  0.1824
    1DIPC   GL1 7107   2.418   9.758   6.338  0.2919 -0.0638  0.3158
    1DIPC   GL2 7108   2.151   9.910   6.069  0.3081 -0.2500 -0.2738
    1DIPC   C1A 7109   2.699  10.073   6.176 -0.0987  0.4531 -0.0714
    1DIPC   D2A 7110   2.689  10.520   6.085  0.0599  0.0044 -0.1272
    1DIPC   D3A 7111   2.279  10.388   5.828 -0.2762  0.0838 -0.1287
    1DIPC   C4A 7112   1.897  10.436   5.727  0.3048 -0.3080 -0.0716
    1DIPC   C1B 7113   2.397   9.886   5.754  0.0291 -0.1562 -0.0858
    1DIPC   D2B 7114   2.731   9.601   5.802  0.0001 -0.0136  0.1099
    1DIPC   D3B 7115   3.002   9.616   6.104  0.2792 -0.0594 -0.1130
    1DIPC   C4B 7116   2.915   9.289   6.373 -0.0357 -0.0357 -0.2578
    1DIPC   NC3 7117  19.492   5.911   6.621 -0.1040 -0.1111  0.2175
    1DIPC   PO4 7118  19.336   5.478   6.327 -0.1335  0.0630  0.0651
    1DIPC   GL1 7119  19.479   5.310   5.980  0.2430  0.0240  0.2190
    1DIPC   GL2 7120  19.762   5.280   5.988  0.0350 -0.0413  0.0755
    1DIPC   C1A 7121  19.250   5.190   5.529 -0.0630 -0.1752  0.0837
    1DIPC   D2A 7122  19.186   5.450   5.165 -0.3310  0.2085 -0.0289
    1DIPC   D3A 7123  19.006   5.152   4.986 -0.3287 -0.0172 -0.1486
    1DIPC   C4A 7124  18.899   4.765   5.098 -0.3052  0.0365 -0.0853
    1DIPC   C1B 7125  19.703   5.459   5.586  0.0134 -0.0394  0.2570
    1DIPC   D2B 7126  19.651   5.557   5.088  0.0008 -0.2528 -0.0896
    1DIPC   D3B 7127  19.624   5.978   5.268 -0.0072  0.0464  0.0164
    1DIPC   C4B 7128  19.923   6.002   5.644 -0.1654 -0.1645 -0.0314
    1DIPC   NC3 7129   3.615  29.745   6.749 -0.1087 -0.1015 -0.3164
    1DIPC   PO4 7130   3.367  30.172   6.576  0.1340 -0.0170  0.1796
    1DIPC   GL1 7131   3.365  29.969   6.167 -0.0256 -0.2076 -0.4501
    1DIPC   GL2 7132   3.137  30.038   5.922  0.0151 -0.1410 -0.0771
    1DIPC   C1A 7133   3.648  29.912   5.881 -0.5311  0.0199  0.1167
    1DIPC   D2A 7134   3.709  30.059   5.484  0.0206  0.0184  0.0807
    1DIPC   D3A 7135   4.147  30.003   5.442 -0.0213 -0.2250  0.2040
    1DIPC   C4A 7136   4.238  30.358   5.351  0.0474 -0.2072 -0.0814
    1DIPC   C1B 7137   3.086  29.963   5.475 -0.0343 -0.0474 -0.1035
    1DIPC   D2B 7138   2.972  29.862   5.067 -0.0198 -0.0009  0.0466
    1DIPC   D3B 7139   3.098  29.558   4.831  0.0441 -0.0591 -0.0283
    1DIPC   C4B 7140   3.068  29.404   4.386 -0.0902 -0.3433  0.0678
    1DIPC   NC3 7141   2.516  26.996   5.871 -0.0463  0.0038 -0.1048
    1DIPC   PO4 7142   2.142  27.204   5.889  0.2023  0.1207 -0.0825
    1DIPC   GL1 7143   1.929  27.180   5.564 -0.0581  0.1464  0.4022
    1DIPC   GL2 7144   1.534  27.095   5.624  0.1442  0.4145 -0.0905
    1DIPC   C1A 7145   2.002  27.403   5.230 -0.1319 -0.0720 -0.2919
    1DIPC   D2A 7146   2.366  27.407   4.993  0.0449  0.0196  0.0049
    1DIPC   D3A 7147   2.734  27.296   5.081 -0.0108  0.0321 -0.0210
    1DIPC   C4A 7148   3.115  27.112   4.960  0.1747 -0.0815  0.2018
    1DIPC   C1B 7149   1.545  27.118   5.185 -0.1628 -0.2240  0.0459
    1DIPC   D2B 7150   1.162  27.042   4.916 -0.2151 -0.0473  0.0444
    1DIPC   D3B 7151   1.059  26.903   5.328  0.0602  0.2820  0.0040
    1DIPC   C4B 7152   0.985  26.454   5.335  0.0920  0.1013 -0.0186
    1DIPC   NC3 7153  16.269  24.101   6.705  0.0201 -0.0076  0.1473
    1DIPC   PO4 7154  16.495  24.513   6.680 -0.1390  0.1771  0.2258
    1DIPC   GL1 7155  16.555  24.707   6.320  0.2239 -0.1813  0.0057
    1DIPC   GL2 7156  16.259  24.893   6.370 -0.1435 -0.2527  0.0477
    1DIPC   C1A 7157  16.347  24.600   5.936 -0.1619  0.0646 -0.0320
    1DIPC   D2A 7158  15.993  24.305   5.969  0.0327 -0.4541 -0.2614
    1DIPC   D3A 7159  16.090  24.029   5.692 -0.4250  0.0267 -0.3097
    1DIPC   C4A 7160  16.172  23.656   5.643  0.0765 -0.0479  0.1072
    1DIPC   C1B 7161  16.495  25.118   6.069  0.0981  0.0259  0.2581
    1DIPC   D2B 7162  16.435  25.049   5.590 -0.0927 -0.0010 -0.0581
    1DIPC   D3B 7163  16.535  24.593   5.425  0.1171  0.0289  0.0943
    1DIPC   C4B 7164  16.897  24.295   5.387 -0.0124  0.3875  0.2810
    1DIPC   NC3 7165   3.225  13.617   6.180 -0.3053 -0.0532 -0.0506
    1DIPC   PO4 7166   3.453  13.354   6.342  0.3500 -0.0591 -0.2817
    1DIPC   GL1 7167   3.504  13.246   5.865  0.1546 -0.0734 -0.1575
    1DIPC   GL2 7168   3.322  12.871   5.844 -0.2790  0.1746 -0.2275
    1DIPC   C1A 7169   3.505  12.877   5.397 -0.0031 -0.1369 -0.1957
    1DIPC   D2A 7170   3.556  12.492   5.150  0.0746 -0.2136  0.1220
    1DIPC   D3A 7171   3.580  12.887   4.867  0.2241  0.0891  0.1913
    1DIPC   C4A 7172   3.653  12.795   4.442  0.0541 -0.1504 -0.0515
    1DIPC   C1B 7173   3.171  12.440   5.774 -0.0806 -0.1924 -0.1508
    1DIPC   D2B 7174   3.150  12.240   5.366 -0.0470 -0.0508 -0.0880
    1DIPC   D3B 7175   3.368  11.704   5.401  0.2555  0.1186 -0.0305
    1DIPC   C4B 7176   3.122  11.387   5.363 -0.1674  0.0604  0.4394
    1DIPC   NC3 7177  26.334   7.307   6.636  0.2735 -0.2315 -0.1920
    1DIPC   PO4 7178  26.525   7.168   6.416  0.0851  0.1811  0.1841
    1DIPC   GL1 7179  26.581   7.390   6.040  0.0284 -0.0841 -0.0064
    1DIPC   GL2 7180  26.318   7.603   5.733  0.0721 -0.1784  0.1389
    1DIPC   C1A 7181  26.790   7.299   5.675  0.0147 -0.0907 -0.1410
    1DIPC   D2A 7182  26.765   7.177   5.274 -0.0142 -0.2022 -0.4148
    1DIPC   D3A 7183  26.783   7.643   5.360  0.0050  0.2025 -0.3152
    1DIPC   C4A 7184  27.158   7.896   5.306  0.0903  0.1090  0.1522
    1DIPC   C1B 7185  26.314   7.274   5.413  0.0716  0.0585  0.0874
    1DIPC   D2B 7186  26.284   7.004   5.002 -0.0528  0.1855  0.3402
    1DIPC   D3B 7187  25.886   7.059   4.838 -0.0169  0.0231 -0.1465
    1DIPC   C4B 7188  25.584   7.308   5.032  0.0458  0.1768 -0.0120
    1DIPC   NC3 7189   3.013  22.344   6.172 -0.5756 -0.0443 -0.0540
    1DIPC   PO4 7190   2.706  22.428   5.787  0.1588 -0.0368  0.3164
    1DIPC   GL1 7191   2.767  22.370   5.337  0.0272  0.1311  0.1995
    1DIPC   GL2 7192   2.496  22.460   5.104 -0.2231 -0.1167 -0.0290
    1DIPC   C1A 7193   2.918  22.547   4.947 -0.2544 -0.2385 -0.0391
    1DIPC   D2A 7194   2.855  22.367   4.517  0.2051 -0.1230 -0.0029
    1DIPC   D3A 7195   3.215  22.559   4.409  0.0428 -0.0808  0.2441
    1DIPC   C4A 7196   3.247  22.921   4.188 -0.2281  0.0096 -0.0821
    1DIPC   C1B 7197   2.287  22.094   4.985  0.2611  0.0091 -0.0339
    1DIPC   D2B 7198   1.934  21.964   4.653  0.0629  0.2907 -0.0961
    1DIPC   D3B 7199   1.845  22.224   4.299 -0.2866 -0.0613  0.3619
    1DIPC   C4B 7200   2.169  22.211   4.015 -0.2410 -0.2572  0.2010
    1DIPC   NC3 7201  26.794   6.639   6.520 -0.2070  0.1170  0.0752
    1DIPC   PO4 7202  26.964   6.962   6.266 -0.2254  0.1366 -0.2072
    1DIPC   GL1 7203  26.684   6.891   5.869 -0.1514 -0.0122 -0.2208
    1DIPC   GL2 7204  26.702   6.563   5.900 -0.3667 -0.0990 -0.3095
    1DIPC   C1A 7205  26.561   6.782   5.452 -0.0097 -0.2065 -0.0317
    1DIPC   D2A 7206  26.553   6.564   4.929  0.0302  0.0264  0.3525
    1DIPC   D3A 7207  26.822   6.839   4.905 -0.1873 -0.0003 -0.0564
    1DIPC   C4A 7208  27.194   7.106   4.985  0.0918  0.1113  0.0170
    1DIPC   C1B 7209  26.329   6.383   5.827  0.2122  0.1401 -0.0259
    1DIPC   D2B 7210  25.966   6.144   5.974  0.2504 -0.1431 -0.2996
    1DIPC   D3B 7211  25.750   5.819   5.728 -0.1061 -0.2248 -0.2367
    1DIPC   C4B 7212  25.734   5.775   5.312 -0.1583 -0.0518 -0.1179
    1DIPC   NC3 7213   5.429   3.133   7.253  0.1445  0.0241 -0.0954
    1DIPC   PO4 7214   5.337   2.745   7.057  0.1194  0.0692  0.0952
    1DIPC   GL1 7215   5.475   2.575   6.684  0.0212 -0.1251 -0.0380
    1DIPC   GL2 7216   5.698   2.686   6.605 -0.1505 -0.1553 -0.0640
    1DIPC   C1A 7217   5.643   2.255   6.378 -0.1760 -0.0127  0.2563
    1DIPC   D2A 7218   5.603   2.052   5.932  0.1217 -0.1810  0.0459
    1DIPC   D3A 7219   5.260   2.097   5.793 -0.2511  0.0698 -0.0846
    1DIPC   C4A 7220   5.231   1.950   5.317  0.1866 -0.1909 -0.3401
    1DIPC   C1B 7221   5.786   2.910   6.212  0.1091  0.2146 -0.1159
    1DIPC   D2B 7222   5.879   3.117   5.857  0.0889  0.0967  0.0050
    1DIPC   D3B 7223   5.569   3.343   5.874 -0.1202  0.0832 -0.1764
    1DIPC   C4B 7224   5.378   3.753   5.734  0.1067 -0.0347 -0.1062
    1DIPC   NC3 7225  25.255  11.323   5.998  0.0491 -0.0834 -0.0094
    1DIPC   PO4 7226  25.588  11.215   5.922 -0.1119  0.2222 -0.3085
    1DIPC   GL1 7227  25.614  11.430   5.519 -0.4210  0.2731  0.0502
    1DIPC   GL2 7228  25.928  11.351   5.562  0.1836 -0.0565 -0.0586
    1DIPC   C1A 7229  25.418  11.400   5.114  0.3149  0.0882  0.1950
    1DIPC   D2A 7230  25.284  11.677   4.888  0.1111 -0.0630  0.1289
    1DIPC   D3A 7231  25.303  11.708   4.380  0.2332 -0.2715  0.3635
    1DIPC   C4A 7232  25.218  11.369   4.055 -0.1892 -0.1171  0.3082
    1DIPC   C1B 7233  25.917  11.424   5.088  0.0260  0.0702 -0.1216
    1DIPC   D2B 7234  25.841  11.317   4.721  0.1725  0.4514  0.4551
    1DIPC   D3B 7235  25.770  11.640   4.613  0.2656  0.0751 -0.0969
    1DIPC   C4B 7236  26.074  11.919   4.558 -0.0538  0.1878 -0.0928
    1DIPC   NC3 7237  26.863  26.800   6.778  0.2425 -0.1843 -0.2095
    1DIPC   PO4 7238  26.706  26.488   6.485  0.0351 -0.0648  0.3160
    1DIPC   GL1 7239  26.653  26.651   6.033  0.3436 -0.3363  0.2354
    1DIPC   GL2 7240  26.408  26.872   6.015  0.0499  0.1181 -0.0325
    1DIPC   C1A 7241  26.800  26.734   5.613  0.0426 -0.1943 -0.3183
    1DIPC   D2A 7242  26.848  26.875   5.245 -0.1288 -0.1803  0.0283
    1DIPC   D3A 7243  26.363  26.836   5.157 -0.1095 -0.0690 -0.2677
    1DIPC   C4A 7244  26.151  27.216   5.118  0.0325 -0.0257 -0.0949
    1DIPC   C1B 7245  26.361  26.494   5.683 -0.0878  0.0083 -0.0449
    1DIPC   D2B 7246  26.454  26.060   5.549 -0.1239  0.0262 -0.2128
    1DIPC   D3B 7247  26.757  26.384   5.256 -0.4373 -0.2366 -0.2099
    1DIPC   C4B 7248  26.704  26.596   4.827  0.1888 -0.1217  0.2564
    1DIPC   NC3 7249  16.595   3.030   7.019 -0.0235  0.1419  0.1802
    1DIPC   PO4 7250  16.531   2.554   6.817 -0.0127  0.0157 -0.1299
    1DIPC   GL1 7251  16.355   2.379   6.428 -0.1289  0.2418  0.0498
    1DIPC   GL2 7252  16.249   2.590   6.295 -0.1417 -0.3871 -0.1706
    1DIPC   C1A 7253  16.129   2.145   6.108 -0.1397 -0.0699 -0.2791
    1DIPC   D2A 7254  16.282   2.190   5.667 -0.4210 -0.2320 -0.4658
    1DIPC   D3A 7255  16.256   2.409   5.358  0.0948 -0.2919 -0.0702
    1DIPC   C4A 7256  15.928   2.256   5.149 -0.1002 -0.3864  0.1270
    1DIPC   C1B 7257  16.240   2.661   5.844  0.2157 -0.2493  0.2735
    1DIPC   D2B 7258  15.916   2.795   5.484 -0.0290 -0.2246 -0.0571
    1DIPC   D3B 7259  15.519   2.714   5.290 -0.0836 -0.0878 -0.1522
    1DIPC   C4B 7260  15.572   2.538   4.913  0.4105 -0.1794  0.0716
    1DIPC   NC3 7261  20.456  29.024   6.973 -0.0964 -0.0882  0.0862
    1DIPC   PO4 7262  20.456  29.442   6.923  0.0102  0.0470 -0.0742
    1DIPC   GL1 7263  20.584  29.416   6.500  0.0533  0.2077  0.2779
    1DIPC   GL2 7264  20.743  29.079   6.485 -0.1897 -0.4556 -0.2430
    1DIPC   C1A 7265  21.046  29.445   6.230  0.0818 -0.0812 -0.2257
    1DIPC   D2A 7266  21.214  29.532   5.868  0.0248 -0.1174 -0.2359
    1DIPC   D3A 7267  21.491  29.712   6.239  0.2677 -0.3164  0.0037
    1DIPC   C4A 7268  21.786  29.433   6.271  0.2011 -0.3351 -0.1059
    1DIPC   C1B 7269  20.693  29.147   6.075  0.1420 -0.1098  0.0842
    1DIPC   D2B 7270  20.837  29.319   5.679 -0.1629  0.1018  0.1632
    1DIPC   D3B 7271  20.504  29.125   5.335 -0.0157  0.2286  0.2905
    1DIPC   C4B 7272  20.176  29.243   5.097 -0.0894  0.1678 -0.0968
    1DIPC   NC3 7273  13.885   4.766   7.034  0.1100  0.1004  0.0696
    1DIPC   PO4 7274  13.706   4.361   6.911  0.4405 -0.1555  0.1185
    1DIPC   GL1 7275  13.797   4.296   6.590  0.0856 -0.1848  0.0232
    1DIPC   GL2 7276  13.630   4.111   6.435 -0.0291  0.1418  0.1544
    1DIPC   C1A 7277  14.002   4.300   6.249  0.0479 -0.0397  0.1337
    1DIPC   D2A 7278  13.849   4.325   5.866  0.2607 -0.1960  0.1023
    1DIPC   D3A 7279  14.148   4.131   5.714  0.0634 -0.0831 -0.1950
    1DIPC   C4A 7280  14.115   3.819   5.452 -0.2030  0.0440  0.0272
    1DIPC   C1B 7281  13.612   3.965   6.090 -0.0878  0.0656  0.3734
    1DIPC   D2B 7282  13.680   3.985   5.599 -0.1390  0.1218 -0.1593
    1DIPC   D3B 7283  13.595   3.611   5.491 -0.2042  0.2601 -0.3641
    1DIPC   C4B 7284  13.234   3.677   5.131 -0.0984 -0.0349  0.0302
    1DIPC   NC3 7285  14.565   6.004   6.988  0.0652 -0.0430 -0.2572
    1DIPC   PO4 7286  14.778   6.517   7.073  0.3064  0.2498 -0.0141
    1DIPC   GL1 7287  14.631   6.709   6.708 -0.2385  0.0885 -0.0501
    1DIPC   GL2 7288  14.874   6.831   6.569  0.0688  0.2975 -0.0294
    1DIPC   C1A 7289  14.380   6.714   6.323 -0.2047  0.1710 -0.3401
    1DIPC   D2A 7290  13.965   6.774   5.970 -0.0996 -0.1036 -0.1083
    1DIPC   D3A 7291  13.894   6.583   5.528 -0.2130 -0.2380 -0.2295
    1DIPC   C4A 7292  14.307   6.495   5.136 -0.0538 -0.1001 -0.1110
    1DIPC   C1B 7293  14.940   6.566   6.259  0.0699 -0.0885 -0.3542
    1DIPC   D2B 7294  14.619   6.361   6.048 -0.2427  0.1838 -0.0158
    1DIPC   D3B 7295  14.431   6.412   5.656  0.0620  0.1364  0.0853
    1DIPC   C4B 7296  14.622   6.081   5.437  0.0382  0.2268  0.2405
    1DIPC   NC3 7297  27.699   6.404   6.650 -0.1077  0.1044 -0.0135
    1DIPC   PO4 7298  27.499   6.103   6.405 -0.1747 -0.2039 -0.2494
    1DIPC   GL1 7299  27.660   6.332   6.070 -0.0201  0.2714 -0.2414
    1DIPC   GL2 7300  27.533   6.279   5.818  0.0317  0.0070 -0.1336
    1DIPC   C1A 7301  28.064   6.516   5.854 -0.2975  0.0672 -0.0574
    1DIPC   D2A 7302  28.198   6.321   5.553  0.1228  0.3130  0.1573
    1DIPC   D3A 7303  28.372   6.149   5.192 -0.3188 -0.0952  0.0919
    1DIPC   C4A 7304  28.120   6.070   4.834 -0.2525 -0.0693  0.3124
    1DIPC   C1B 7305  27.684   6.634   5.558  0.0747 -0.4594  0.2790
    1DIPC   D2B 7306  27.599   6.974   5.315 -0.0818 -0.0939 -0.1056
    1DIPC   D3B 7307  27.845   7.110   4.982  0.0449  0.1376 -0.0876
    1DIPC   C4B 7308  27.775   6.853   4.587 -0.2029  0.0317 -0.6829
    1DIPC   NC3 7309   2.177  29.516   6.523  0.1469 -0.0007 -0.1313
    1DIPC   PO4 7310   2.432  29.155   6.404  0.0437  0.1594 -0.1236
    1DIPC   GL1 7311   2.343  29.267   5.980 -0.0038  0.1072  0.0469
    1DIPC   GL2 7312   2.608  29.241   5.688  0.2086  0.0989  0.0091
    1DIPC   C1A 7313   1.996  29.346   5.708 -0.1365  0.1589 -0.0530
    1DIPC   D2A 7314   1.559  29.349   5.789  0.0324 -0.0632  0.0633
    1DIPC   D3A 7315   1.652  28.971   5.718  0.0404  0.1806  0.0771
    1DIPC   C4A 7316   1.804  28.754   5.956 -0.1093 -0.1437  0.3293
    1DIPC   C1B 7317   2.640  29.571   5.458  0.0533 -0.0855  0.1523
    1DIPC   D2B 7318   2.617  30.083   5.493  0.1100  0.1314  0.0341
    1DIPC   D3B 7319   2.601  30.205   5.062  0.0397 -0.2154  0.0541
    1DIPC   C4B 7320   2.969  30.339   4.803  0.3186 -0.0653  0.0041
    1DIPC   NC3 7321   1.541   5.040   7.225 -0.0026 -0.0858 -0.1076
    1DIPC   PO4 7322   1.427   4.967   6.810  0.1115 -0.3138 -0.0192
    1DIPC   GL1 7323   1.327   4.723   6.364  0.1580 -0.0438 -0.2258
    1DIPC   GL2 7324   1.535   4.544   6.242  0.0449 -0.0393  0.3376
    1DIPC   C1A 7325   1.140   4.549   5.916  0.0540  0.1384  0.3687
    1DIPC   D2A 7326   1.052   4.281   5.586 -0.1912  0.0218  0.1898
    1DIPC   D3A 7327   0.943   3.933   5.373  0.0082 -0.0320 -0.4019
    1DIPC   C4A 7328   1.211   3.933   5.014  0.2647 -0.0196  0.3257
    1DIPC   C1B 7329   1.586   4.851   5.847 -0.0374  0.2224 -0.1140
    1DIPC   D2B 7330   1.741   5.149   5.510  0.0607 -0.0681 -0.2269
    1DIPC   D3B 7331   1.434   5.450   5.310  0.2576 -0.0496 -0.1338
    1DIPC   C4B 7332   1.442   5.873   5.093  0.0992 -0.1332  0.1053
    1DIPC   NC3 7333  25.379   4.243   7.115  0.1503 -0.0993  0.2593
    1DIPC   PO4 7334  25.502   3.964   6.810 -0.0641  0.0711  0.1685
    1DIPC   GL1 7335  25.516   4.043   6.326 -0.0109  0.1419 -0.0453
    1DIPC   GL2 7336  25.752   4.213   6.279  0.2772  0.1762  0.0506
    1DIPC   C1A 7337  25.467   3.964   5.889  0.1723  0.0723 -0.2719
    1DIPC   D2A 7338  25.197   3.986   5.545 -0.0270 -0.0595  0.1987
    1DIPC   D3A 7339  24.873   4.289   5.394 -0.0209 -0.1368 -0.0336
    1DIPC   C4A 7340  24.959   4.550   5.003 -0.1770  0.0680  0.2390
    1DIPC   C1B 7341  25.733   4.440   5.936 -0.0646  0.2364  0.0291
    1DIPC   D2B 7342  25.810   4.819   5.581  0.2890  0.3848  0.1774
    1DIPC   D3B 7343  26.147   4.646   5.719  0.2381  0.0022  0.2122
    1DIPC   C4B 7344  26.512   4.367   5.466 -0.1912 -0.1133  0.0408
    1DIPC   NC3 7345  20.823  16.716   6.749  0.0928  0.0593  0.0031
    1DIPC   PO4 7346  21.176  17.046   6.640  0.0096 -0.1463  0.0723
    1DIPC   GL1 7347  21.341  17.150   6.213 -0.0998  0.0620  0.1581
    1DIPC   GL2 7348  21.243  16.901   5.939 -0.0314 -0.1524 -0.1323
    1DIPC   C1A 7349  21.736  17.113   6.021 -0.0559 -0.0086 -0.3403
    1DIPC   D2A 7350  21.723  16.844   5.758 -0.0713 -0.0985  0.0583
    1DIPC   D3A 7351  21.911  16.856   5.461 -0.0198 -0.0243  0.2302
    1DIPC   C4A 7352  22.080  17.093   5.219 -0.1668  0.0473 -0.2187
    1DIPC   C1B 7353  21.394  17.285   5.720 -0.1466 -0.2541 -0.2644
    1DIPC   D2B 7354  21.483  17.458   5.343  0.2230  0.2153 -0.0717
    1DIPC   D3B 7355  21.603  17.175   5.096 -0.3018  0.2323  0.0906
    1DIPC   C4B 7356  21.784  17.334   4.679  0.0260 -0.2015  0.2639
    1DIPC   NC3 7357  10.967   5.000   7.213  0.2170  0.0728  0.1538
    1DIPC   PO4 7358  11.271   4.653   6.976 -0.2558  0.0595  0.4592
    1DIPC   GL1 7359  11.462   4.644   6.622  0.2556  0.1089  0.0809
    1DIPC   GL2 7360  11.719   4.478   6.540 -0.1611 -0.2425 -0.0521
    1DIPC   C1A 7361  11.400   4.863   6.149 -0.1859 -0.2676 -0.2188
    1DIPC   D2A 7362  11.319   4.911   5.703 -0.1069 -0.0379 -0.0667
    1DIPC   D3A 7363  11.066   4.597   5.571  0.0918  0.1763  0.2439
    1DIPC   C4A 7364  10.607   4.795   5.334 -0.1310 -0.1258  0.3391
    1DIPC   C1B 7365  12.000   4.387   6.208 -0.0919  0.2435 -0.1565
    1DIPC   D2B 7366  12.126   4.297   5.829 -0.3199 -0.0558 -0.1200
    1DIPC   D3B 7367  12.468   3.907   5.634  0.1251 -0.0356  0.1075
    1DIPC   C4B 7368  12.892   3.917   5.465 -0.1737  0.4448  0.0894
    1DIPC   NC3 7369  16.954   0.711   6.657 -0.1742  0.3060 -0.0189
    1DIPC   PO4 7370  17.309   1.022   6.595 -0.2195 -0.0181  0.0158
    1DIPC   GL1 7371  17.123   0.889   6.151  0.0044 -0.3082 -0.1300
    1DIPC   GL2 7372  16.901   0.618   6.164 -0.2724 -0.1757 -0.0651
    1DIPC   C1A 7373  16.883   0.897   5.717 -0.3526  0.0765 -0.2198
    1DIPC   D2A 7374  16.620   0.523   5.344  0.0493  0.0602 -0.0549
    1DIPC   D3A 7375  16.230   0.562   5.235 -0.3489 -0.1272  0.2696
    1DIPC   C4A 7376  15.897   0.417   5.464 -0.1071  0.1802  0.0409
    1DIPC   C1B 7377  16.757   0.468   5.807 -0.0164 -0.1507 -0.1330
    1DIPC   D2B 7378  16.450   0.087   5.636  0.0662 -0.2068  0.1176
    1DIPC   D3B 7379  16.359   0.113   5.184 -0.0107  0.0356 -0.4819
    1DIPC   C4B 7380  16.255  -0.260   4.876  0.2512 -0.0126  0.0913
    1DIPC   NC3 7381  24.993  20.248   7.061  0.0456 -0.0465  0.3997
    1DIPC   PO4 7382  25.069  19.948   6.823 -0.0405 -0.4519 -0.3214
    1DIPC   GL1 7383  25.027  20.136   6.280 -0.2987 -0.4031  0.0228
    1DIPC   GL2 7384  24.945  19.960   6.063  0.2078  0.4093 -0.1590
    1DIPC   C1A 7385  25.185  20.316   5.844 -0.1142 -0.2055  0.0161
    1DIPC   D2A 7386  25.227  20.108   5.455  0.0498  0.1523 -0.1745
    1DIPC   D3A 7387  24.867  19.978   5.262 -0.0349 -0.0737 -0.2583
    1DIPC   C4A 7388  24.602  19.838   5.633 -0.1225 -0.2901 -0.0522
    1DIPC   C1B 7389  25.442  19.872   5.854 -0.1541 -0.2774  0.0380
    1DIPC   D2B 7390  25.609  19.614   5.528 -0.5178  0.0456  0.0255
    1DIPC   D3B 7391  25.345  19.663   5.187  0.0822 -0.0748  0.1771
    1DIPC   C4B 7392  25.521  19.920   4.946 -0.3039  0.1092 -0.2278
    1DIPC   NC3 7393  21.811  17.345   7.559  0.0429 -0.2678  0.1705
    1DIPC   PO4 7394  21.547  17.661   7.232  0.2112  0.1644 -0.0600
    1DIPC   GL1 7395  21.652  17.725   6.824  0.2705 -0.4788 -0.3289
    1DIPC   GL2 7396  21.528  17.571   6.637  0.0650 -0.3717 -0.0138
    1DIPC   C1A 7397  21.658  18.041   6.491 -0.0104 -0.1955 -0.1963
    1DIPC   D2A 7398  21.685  18.209   6.054  0.0176  0.2896  0.0010
    1DIPC   D3A 7399  22.068  18.470   5.807  0.0669 -0.1587 -0.1495
    1DIPC   C4A 7400  22.335  18.246   5.794  0.2437 -0.0255  0.2080
    1DIPC   C1B 7401  21.604  17.604   6.189 -0.0382  0.0572 -0.1611
    1DIPC   D2B 7402  21.536  17.802   5.739  0.0218 -0.2214 -0.2184
    1DIPC   D3B 7403  21.690  18.073   5.590  0.1543 -0.0051  0.0161
    1DIPC   C4B 7404  21.773  17.937   5.256  0.1494 -0.1696  0.1321
    1DIPC   NC3 7405   2.383   8.399   6.947  0.0305  0.0534  0.2838
    1DIPC   PO4 7406   2.061   8.664   6.933  0.0850 -0.2181  0.1710
    1DIPC   GL1 7407   2.149   8.805   6.522 -0.0456 -0.0483 -0.0760
    1DIPC   GL2 7408   1.990   8.620   6.315  0.1841 -0.1395 -0.0367
    1DIPC   C1A 7409   2.462   9.044   6.436 -0.0615 -0.2011  0.0412
    1DIPC   D2A 7410   2.471   9.314   6.080 -0.1789 -0.2336 -0.1713
    1DIPC   D3A 7411   2.075   9.418   5.905  0.0234  0.0543  0.0570
    1DIPC   C4A 7412   1.820   9.170   5.783  0.0623 -0.1148  0.0527
    1DIPC   C1B 7413   2.084   8.691   5.921  0.0563  0.3505 -0.1590
    1DIPC   D2B 7414   2.362   8.946   5.607 -0.0920 -0.0342 -0.1606
    1DIPC   D3B 7415   1.941   8.718   5.445 -0.3316 -0.1138 -0.0448
    1DIPC   C4B 7416   1.655   8.552   5.742 -0.1292  0.2866  0.1037
    1DIPC   NC3 7417  23.767   7.568   7.475 -0.1897  0.0668 -0.2482
    1DIPC   PO4 7418  23.850   7.366   7.080 -0.0171 -0.0147 -0.0523
    1DIPC   GL1 7419  23.901   7.312   6.618  0.0906 -0.1456 -0.1586
    1DIPC   GL2 7420  23.630   7.108   6.515 -0.1956  0.2635 -0.3142
    1DIPC   C1A 7421  23.695   7.745   6.336 -0.2390  0.2117 -0.0880
    1DIPC   D2A 7422  23.560   7.657   5.904 -0.1692 -0.2599 -0.1074
    1DIPC   D3A 7423  23.154   7.778   5.988  0.0649 -0.0512  0.0018
    1DIPC   C4A 7424  22.904   7.569   5.858 -0.3354  0.0442 -0.2829
    1DIPC   C1B 7425  23.778   7.251   6.097 -0.1355 -0.0505 -0.1856
    1DIPC   D2B 7426  23.906   7.369   5.735  0.3208 -0.1780  0.0900
    1DIPC   D3B 7427  24.300   7.469   5.627  0.4190  0.3052 -0.2937
    1DIPC   C4B 7428  24.333   7.632   5.197 -0.2477 -0.2031 -0.0870
    1DIPC   NC3 7429   0.209   6.889   6.623  0.2031 -0.0748  0.1159
    1DIPC   PO4 7430   0.277   7.300   6.535 -0.1287  0.1606 -0.0534
    1DIPC   GL1 7431   0.411   7.470   6.264 -0.1598 -0.1063 -0.0567
    1DIPC   GL2 7432   0.198   7.642   6.161  0.0408  0.0156  0.1749
    1DIPC   C1A 7433   0.678   7.276   5.999 -0.3629  0.0978 -0.1762
    1DIPC   D2A 7434   1.113   7.158   5.877 -0.0072 -0.1568 -0.1519
    1DIPC   D3A 7435   1.166   7.381   5.471 -0.0670  0.0510  0.0716
    1DIPC   C4A 7436   1.536   7.716   5.343 -0.0192  0.3661  0.0661
    1DIPC   C1B 7437   0.378   7.685   5.819  0.0486 -0.3207  0.2517
    1DIPC   D2B 7438   0.748   7.581   5.684 -0.0789 -0.1662  0.2187
    1DIPC   D3B 7439   0.535   7.608   5.305 -0.2369  0.1439 -0.2315
    1DIPC   C4B 7440   0.783   7.885   5.044  0.2461 -0.1385 -0.1975
    1DIPC   NC3 7441  15.434   3.019   7.241  0.1378  0.1909 -0.0215
    1DIPC   PO4 7442  15.447   3.018   6.731  0.1943  0.1104  0.2760
    1DIPC   GL1 7443  15.790   2.775   6.448  0.1481  0.4188 -0.1448
    1DIPC   GL2 7444  15.889   2.876   6.094 -0.0051 -0.2314 -0.3061
    1DIPC   C1A 7445  15.764   2.435   6.292  0.0368 -0.1565 -0.1866
    1DIPC   D2A 7446  15.854   2.417   5.815  0.1543 -0.0635 -0.1211
    1DIPC   D3A 7447  15.452   2.309   5.535 -0.0493 -0.0449 -0.0173
    1DIPC   C4A 7448  15.346   2.137   5.131 -0.2636 -0.2005  0.3182
    1DIPC   C1B 7449  15.534   2.922   5.755  0.0452 -0.1081  0.1914
    1DIPC   D2B 7450  15.295   3.212   5.559  0.0469  0.2700 -0.1306
    1DIPC   D3B 7451  15.485   3.460   5.764 -0.1057 -0.0841  0.3666
    1DIPC   C4B 7452  15.885   3.375   6.040 -0.0235  0.1298 -0.0435
    1DIPC   NC3 7453   1.241   3.469   6.938  0.0426 -0.0780  0.1490
    1DIPC   PO4 7454   1.228   3.879   6.757 -0.2580 -0.1734  0.1990
    1DIPC   GL1 7455   1.104   3.793   6.362  0.0517  0.2519 -0.0828
    1DIPC   GL2 7456   1.296   3.697   6.067 -0.2920  0.1810 -0.0392
    1DIPC   C1A 7457   0.876   3.982   5.959  0.0963  0.1949 -0.0556
    1DIPC   D2A 7458   0.621   4.392   5.999  0.1416  0.0384  0.2519
    1DIPC   D3A 7459   0.302   4.244   5.997 -0.1319  0.0426  0.0036
    1DIPC   C4A 7460   0.018   4.257   5.673  0.1088  0.0099 -0.5208
    1DIPC   C1B 7461   1.003   3.467   5.893 -0.2680  0.1726  0.1807
    1DIPC   D2B 7462   0.647   3.277   5.947  0.0386  0.0471 -0.2415
    1DIPC   D3B 7463   0.366   3.701   5.862  0.0582 -0.0388  0.2831
    1DIPC   C4B 7464   0.367   3.857   5.371  0.0009  0.1224 -0.1456
    1DIPC   NC3 7465  22.703  23.111   6.657  0.5239  0.2141  0.4247
    1DIPC   PO4 7466  22.731  23.343   6.333  0.0176 -0.0348  0.0158
    1DIPC   GL1 7467  22.414  23.441   6.015 -0.0191 -0.0353 -0.1946
    1DIPC   GL2 7468  22.201  23.704   6.141  0.3386 -0.0690  0.0783
    1DIPC   C1A 7469  22.139  23.578   5.619  0.1307 -0.0276 -0.0594
    1DIPC   D2A 7470  22.055  24.023   5.385 -0.1359 -0.0568 -0.1074
    1DIPC   D3A 7471  22.102  23.954   5.035  0.1065  0.2021 -0.0612
    1DIPC   C4A 7472  22.412  23.835   4.776 -0.0577  0.0369 -0.4028
    1DIPC   C1B 7473  22.082  24.034   5.905 -0.1445  0.0785 -0.1793
    1DIPC   D2B 7474  22.032  24.469   5.705  0.0461  0.0476 -0.1431
    1DIPC   D3B 7475  21.816  24.854   5.489 -0.1969 -0.1451 -0.1409
    1DIPC   C4B 7476  21.609  24.998   5.117 -0.1608 -0.3135 -0.0880
    1DIPC   NC3 7477  29.003  26.831   6.214 -0.0163  0.0321  0.2034
    1DIPC   PO4 7478  29.071  26.650   5.776 -0.1408 -0.0219 -0.0352
    1DIPC   GL1 7479  28.766  26.814   5.613  0.3366 -0.0852  0.0852
    1DIPC   GL2 7480  28.629  26.509   5.465 -0.1452  0.1097 -0.0023
    1DIPC   C1A 7481  28.703  27.158   5.210 -0.2515 -0.0283 -0.0378
    1DIPC   D2A 7482  28.664  27.523   4.870 -0.1948  0.2590  0.1876
    1DIPC   D3A 7483  28.893  27.393   4.469  0.2161  0.0131  0.0163
    1DIPC   C4A 7484  29.328  27.697   4.281  0.1749  0.0648 -0.0087
    1DIPC   C1B 7485  28.595  26.686   5.090 -0.0682 -0.1630 -0.1891
    1DIPC   D2B 7486  28.310  26.587   4.751  0.0167  0.0339 -0.4329
    1DIPC   D3B 7487  28.493  26.966   4.593  0.1786  0.0608 -0.0527
    1DIPC   C4B 7488  28.919  26.972   4.724  0.3510  0.1852  0.1906
    1DIPC   NC3 7489   9.995  29.635   7.481  0.0051 -0.2806 -0.1053
    1DIPC   PO4 7490   9.737  29.331   7.441  0.6158 -0.2734  0.0380
    1DIPC   GL1 7491   9.950  29.420   7.018  0.2185  0.1767  0.0882
    1DIPC   GL2 7492  10.056  29.220   6.836  0.0567 -0.0316  0.3020
    1DIPC   C1A 7493   9.831  29.590   6.648 -0.2265 -0.0541  0.0051
    1DIPC   D2A 7494   9.869  29.929   6.425 -0.1876  0.0188  0.0296
    1DIPC   D3A 7495  10.159  29.915   6.135 -0.0639  0.4173  0.0110
    1DIPC   C4A 7496  10.511  30.189   6.127 -0.0057 -0.0355  0.0931
    1DIPC   C1B 7497  10.075  29.080   6.408  0.0314 -0.2650  0.0462
    1DIPC   D2B 7498  10.100  28.974   5.994  0.0221 -0.0135  0.0926
    1DIPC   D3B 7499  10.018  29.377   5.744 -0.3139 -0.2568  0.0924
    1DIPC   C4B 7500   9.589  29.134   5.561  0.3682 -0.0496 -0.3653
    1DIPC   NC3 7501  29.838   6.259   6.987 -0.0709  0.2307  0.3084
    1DIPC   PO4 7502  29.977   6.363   6.655  0.1322  0.1113 -0.2904
    1DIPC   GL1 7503  30.074   6.310   6.241 -0.1299 -0.2648  0.1259
    1DIPC   GL2 7504  30.065   6.612   6.202  0.0713 -0.0727  0.2343
    1DIPC   C1A 7505  30.272   6.256   5.849 -0.1834  0.2227  0.2878
    1DIPC   D2A 7506  30.181   6.190   5.334  0.2618 -0.0958  0.0065
    1DIPC   D3A 7507  30.054   6.440   4.945 -0.0707 -0.0771  0.0767
    1DIPC   C4A 7508  30.090   6.140   4.661 -0.0919 -0.0121 -0.0162
    1DIPC   C1B 7509  30.182   6.715   5.744 -0.0908  0.1774  0.1067
    1DIPC   D2B 7510  30.323   6.686   5.356 -0.0542 -0.0489  0.1656
    1DIPC   D3B 7511  30.621   6.591   4.986 -0.1621  0.1471 -0.3189
    1DIPC   C4B 7512  30.688   6.230   4.735  0.1748 -0.1574 -0.0819
    1DIPC   NC3 7513   9.493   3.989   7.194 -0.1511  0.1524 -0.2954
    1DIPC   PO4 7514   9.146   4.167   6.866 -0.2219 -0.0986  0.0206
    1DIPC   GL1 7515   9.483   4.511   6.666  0.1018 -0.0035 -0.2172
    1DIPC   GL2 7516   9.749   4.355   6.467 -0.0273  0.1693 -0.3205
    1DIPC   C1A 7517   9.428   4.854   6.317 -0.0613  0.1854 -0.2240
    1DIPC   D2A 7518   9.338   4.895   5.905  0.0880 -0.2956  0.0360
    1DIPC   D3A 7519   9.358   5.002   5.480 -0.2549 -0.1674 -0.2006
    1DIPC   C4A 7520   9.061   4.880   5.184 -0.0270  0.0754  0.2136
    1DIPC   C1B 7521   9.537   4.234   6.084 -0.1097 -0.1220 -0.2058
    1DIPC   D2B 7522   9.574   3.996   5.780  0.2430  0.3305  0.2685
    1DIPC   D3B 7523   9.985   3.952   5.789  0.0709  0.0397 -0.1337
    1DIPC   C4B 7524  10.068   4.259   5.886  0.0896  0.2013 -0.2070
    1DIPC   NC3 7525  28.627  25.599   6.653 -0.0777 -0.1917  0.2760
    1DIPC   PO4 7526  28.367  25.452   6.491 -0.0571 -0.3157  0.3541
    1DIPC   GL1 7527  28.304  25.690   6.170  0.1607  0.0071  0.2266
    1DIPC   GL2 7528  28.375  26.009   5.962 -0.1710 -0.3434  0.1783
    1DIPC   C1A 7529  28.408  25.585   5.709 -0.0468 -0.1737  0.1922
    1DIPC   D2A 7530  28.672  25.439   5.321  0.1344 -0.0929  0.1324
    1DIPC   D3A 7531  28.743  25.721   5.099 -0.0064 -0.0192 -0.3203
    1DIPC   C4A 7532  29.068  25.857   4.862  0.1784 -0.1613  0.2533
    1DIPC   C1B 7533  28.231  26.269   5.774  0.1858  0.2158  0.1034
    1DIPC   D2B 7534  28.077  26.346   5.498 -0.0550 -0.0365  0.0547
    1DIPC   D3B 7535  28.396  26.029   5.366 -0.1345  0.2636  0.0345
    1DIPC   C4B 7536  28.266  25.711   5.229 -0.1835 -0.1964 -0.2512
    1DIPC   NC3 7537  23.518  17.879   6.509  0.4185  0.1306  0.0559
    1DIPC   PO4 7538  23.945  17.985   6.569 -0.1855 -0.1048  0.0803
    1DIPC   GL1 7539  23.902  17.946   6.177 -0.1167  0.1793 -0.2859
    1DIPC   GL2 7540  23.639  18.081   5.993  0.0881 -0.2623  0.2975
    1DIPC   C1A 7541  24.191  18.083   5.885 -0.0293  0.2373 -0.2142
    1DIPC   D2A 7542  24.407  17.972   5.516  0.1465  0.0790  0.0544
    1DIPC   D3A 7543  24.499  17.760   5.138  0.1879  0.3420 -0.0089
    1DIPC   C4A 7544  24.634  18.033   4.781 -0.0045  0.0444 -0.1215
    1DIPC   C1B 7545  23.485  18.099   5.632 -0.1016 -0.2178 -0.0795
    1DIPC   D2B 7546  23.183  18.182   5.310  0.2192 -0.1919 -0.2982
    1DIPC   D3B 7547  23.395  18.429   4.986 -0.0781 -0.1147  0.3907
    1DIPC   C4B 7548  23.768  18.433   4.819 -0.1730 -0.0168  0.2847
    1DIPC   NC3 7549  23.237  18.765   6.530 -0.0995 -0.1318 -0.0895
    1DIPC   PO4 7550  23.472  19.167   6.807  0.3293  0.2832 -0.1828
    1DIPC   GL1 7551  23.328  19.232   6.380 -0.0592  0.3294  0.4306
    1DIPC   GL2 7552  23.383  19.603   6.395 -0.0216 -0.2373  0.1659
    1DIPC   C1A 7553  23.155  19.316   6.041  0.1395  0.0098  0.2469
    1DIPC   D2A 7554  23.383  19.323   5.717  0.1903 -0.0508  0.0446
    1DIPC   D3A 7555  23.695  19.331   6.036 -0.1544  0.0776  0.2130
    1DIPC   C4A 7556  23.834  19.729   6.165 -0.0197 -0.2026  0.1778
    1DIPC   C1B 7557  23.150  19.866   6.102  0.2295 -0.0360 -0.2557
    1DIPC   D2B 7558  22.776  19.710   5.906  0.0248  0.1099  0.2141
    1DIPC   D3B 7559  22.871  19.529   5.550 -0.3653 -0.0726  0.2910
    1DIPC   C4B 7560  22.513  19.296   5.293  0.1286 -0.3157  0.1849
    1DIPC   NC3 7561  28.232   2.237   6.644  0.1342 -0.2461  0.1095
    1DIPC   PO4 7562  28.191   2.700   6.630 -0.2283 -0.2131 -0.0546
    1DIPC   GL1 7563  28.465   2.603   6.257 -0.1158  0.3380  0.0137
    1DIPC   GL2 7564  28.785   2.563   6.131 -0.0899 -0.0231  0.2664
    1DIPC   C1A 7565  28.393   2.729   5.932 -0.0853 -0.0110  0.1469
    1DIPC   D2A 7566  28.243   2.898   5.596  0.3313  0.2863 -0.2029
    1DIPC   D3A 7567  28.148   2.880   5.269 -0.1681  0.0784 -0.1364
    1DIPC   C4A 7568  27.905   2.576   5.176  0.1390  0.4743 -0.0763
    1DIPC   C1B 7569  28.851   2.542   5.740  0.0220 -0.1256 -0.2567
    1DIPC   D2B 7570  28.526   2.549   5.359  0.1450  0.1191 -0.0943
    1DIPC   D3B 7571  28.650   2.774   5.116  0.1160  0.1720  0.1400
    1DIPC   C4B 7572  28.414   2.998   4.795 -0.0347  0.1157  0.1035
    1DIPC   NC3 7573  28.056  25.067   6.435 -0.3293 -0.0624  0.0882
    1DIPC   PO4 7574  28.254  24.719   6.525 -0.0143 -0.3088  0.1037
    1DIPC   GL1 7575  28.443  24.750   6.164 -0.1084 -0.0437  0.2624
    1DIPC   GL2 7576  28.375  25.080   6.029 -0.0479  0.2350  0.1432
    1DIPC   C1A 7577  28.741  24.804   5.831 -0.0795  0.3018  0.3596
    1DIPC   D2A 7578  28.906  24.332   5.709  0.1528 -0.0075  0.2931
    1DIPC   D3A 7579  28.649  24.124   5.436  0.0554  0.3776 -0.0146
    1DIPC   C4A 7580  28.274  24.171   5.363  0.2404 -0.3706 -0.1288
    1DIPC   C1B 7581  28.380  25.025   5.540 -0.0945  0.1015  0.3237
    1DIPC   D2B 7582  28.498  25.000   5.093 -0.1039  0.0911  0.2268
    1DIPC   D3B 7583  28.365  24.716   4.886  0.0163  0.3539  0.0582
    1DIPC   C4B 7584  28.189  24.759   4.533 -0.0274  0.0925 -0.0608
    1DIPC   NC3 7585  24.657  25.038   6.605 -0.1632 -0.0364 -0.0916
    1DIPC   PO4 7586  24.142  25.021   6.721  0.1036 -0.1800  0.2381
    1DIPC   GL1 7587  23.896  24.885   6.289 -0.4401 -0.0805  0.2270
    1DIPC   GL2 7588  23.982  24.776   6.030 -0.3271  0.2075  0.2251
    1DIPC   C1A 7589  23.721  25.151   5.953  0.2873  0.3507  0.1449
    1DIPC   D2A 7590  23.541  25.498   5.911  0.0316 -0.1597  0.0471
    1DIPC   D3A 7591  23.285  25.204   5.688  0.2931  0.3536  0.1221
    1DIPC   C4A 7592  23.614  24.981   5.427 -0.0475 -0.0857 -0.1138
    1DIPC   C1B 7593  23.709  24.619   5.738  0.1027  0.1003 -0.4075
    1DIPC   D2B 7594  23.322  24.639   5.566 -0.0778  0.3299  0.2313
    1DIPC   D3B 7595  23.354  24.297   5.263 -0.5333 -0.0792  0.0151
    1DIPC   C4B 7596  23.421  23.935   5.165  0.1863 -0.0121 -0.0989
    1DIPC   NC3 7597  25.642  25.053   6.320  0.0433  0.1063  0.0042
    1DIPC   PO4 7598  25.704  25.479   6.511 -0.1328 -0.1495 -0.1892
    1DIPC   GL1 7599  25.783  25.632   6.130 -0.0632  0.3038 -0.1761
    1DIPC   GL2 7600  25.815  25.293   5.957 -0.0422  0.2927  0.0254
    1DIPC   C1A 7601  25.457  25.742   5.837  0.1923 -0.1626  0.2211
    1DIPC   D2A 7602  25.279  26.146   5.612 -0.0230 -0.1165  0.0260
    1DIPC   D3A 7603  25.294  26.017   5.191 -0.1583 -0.0946  0.2914
    1DIPC   C4A 7604  25.143  26.284   4.884 -0.2313  0.0451  0.2369
    1DIPC   C1B 7605  25.852  25.406   5.624 -0.1138  0.1472 -0.3099
    1DIPC   D2B 7606  25.746  25.294   5.266  0.0361  0.0126 -0.0271
    1DIPC   D3B 7607  25.958  25.389   4.912  0.0361  0.1551  0.0871
    1DIPC   C4B 7608  25.844  25.707   4.809  0.1065  0.1790  0.1916
    1DIPC   NC3 7609  20.784  29.690   7.707 -0.1708  0.0694 -0.0761
    1DIPC   PO4 7610  20.857  29.732   7.182 -0.0590 -0.1785 -0.1050
    1DIPC   GL1 7611  20.894  29.859   6.724 -0.0027 -0.4546  0.0101
    1DIPC   GL2 7612  21.153  30.174   6.766  0.1056  0.0582 -0.1065
    1DIPC   C1A 7613  21.094  30.010   6.233 -0.5141 -0.0185  0.0180
    1DIPC   D2A 7614  20.978  30.139   5.797  0.0168  0.1350 -0.4910
    1DIPC   D3A 7615  21.099  29.885   5.544 -0.1763 -0.1816  0.3108
    1DIPC   C4A 7616  20.976  29.815   5.075  0.0386  0.3350  0.2181
    1DIPC   C1B 7617  21.536  30.215   6.411  0.1663 -0.1237  0.3028
    1DIPC   D2B 7618  21.678  30.597   6.209 -0.1858  0.1018 -0.0900
    1DIPC   D3B 7619  21.833  30.686   5.749 -0.1617  0.0098  0.1724
    1DIPC   C4B 7620  22.046  30.628   5.286 -0.1948  0.0132 -0.0243
    1DIPC   NC3 7621   1.097  11.998   6.280 -0.2563 -0.0421  0.1558
    1DIPC   PO4 7622   1.047  12.479   6.225  0.1752 -0.0013 -0.0055
    1DIPC   GL1 7623   1.390  12.313   5.852 -0.0571 -0.3344 -0.1642
    1DIPC   GL2 7624   1.122  12.076   5.762 -0.0753  0.2539 -0.0254
    1DIPC   C1A 7625   1.385  12.313   5.362 -0.1056 -0.0323 -0.1114
    1DIPC   D2A 7626   1.490  12.169   4.962 -0.0310 -0.3665 -0.2491
    1DIPC   D3A 7627   1.835  12.038   5.049 -0.2924  0.0080 -0.0744
    1DIPC   C4A 7628   2.186  12.164   4.852  0.0451 -0.0361 -0.1902
    1DIPC   C1B 7629   0.922  12.123   5.387 -0.1713 -0.3297 -0.0602
    1DIPC   D2B 7630   1.001  12.228   4.926 -0.2059 -0.0617  0.0384
    1DIPC   D3B 7631   1.142  12.489   4.620 -0.0640 -0.0754 -0.1894
    1DIPC   C4B 7632   1.276  12.417   4.285  0.0724  0.1766 -0.0367
    1DIPC   NC3 7633   6.729   0.449   6.937  0.2742  0.1468  0.1708
    1DIPC   PO4 7634   6.611   0.218   6.611  0.0544  0.2192 -0.1116
    1DIPC   GL1 7635   7.004   0.314   6.428 -0.2222  0.2535 -0.1699
    1DIPC   GL2 7636   7.179   0.622   6.432  0.1628 -0.2015 -0.0014
    1DIPC   C1A 7637   6.979   0.343   5.975  0.0840 -0.0037 -0.3334
    1DIPC   D2A 7638   6.803   0.164   5.652 -0.1479 -0.0009 -0.0100
    1DIPC   D3A 7639   6.556  -0.209   5.667 -0.2611 -0.1713 -0.1363
    1DIPC   C4A 7640   6.385  -0.560   5.637  0.0739 -0.0863 -0.1766
    1DIPC   C1B 7641   7.136   0.915   6.205  0.3091 -0.1045  0.3299
    1DIPC   D2B 7642   7.401   1.064   5.892  0.1938  0.2570  0.2126
    1DIPC   D3B 7643   7.761   0.881   5.684 -0.1404  0.0282 -0.5211
    1DIPC   C4B 7644   7.654   0.513   5.355 -0.0630  0.0497  0.1034
    1DIPC   NC3 7645  28.150  15.343   6.217 -0.1940 -0.0538  0.0227
    1DIPC   PO4 7646  28.190  15.729   6.424 -0.1773 -0.0373  0.1513
    1DIPC   GL1 7647  28.292  15.715   5.947  0.0454  0.2724 -0.0336
    1DIPC   GL2 7648  28.123  15.868   5.665 -0.1222 -0.2015  0.0657
    1DIPC   C1A 7649  28.482  15.650   5.457  0.3041 -0.0588 -0.3108
    1DIPC   D2A 7650  28.698  15.459   5.219 -0.0250  0.3125 -0.1005
    1DIPC   D3A 7651  28.180  15.550   5.086 -0.3330 -0.2529 -0.4093
    1DIPC   C4A 7652  27.966  15.211   5.069  0.2031  0.0492 -0.2257
    1DIPC   C1B 7653  28.167  16.338   5.772  0.1940  0.1709  0.0898
    1DIPC   D2B 7654  28.452  16.692   5.810 -0.4924  0.2503  0.0777
    1DIPC   D3B 7655  28.289  17.102   5.663 -0.0865  0.0139 -0.2222
    1DIPC   C4B 7656  27.891  17.317   5.931  0.1894  0.1128 -0.0872
    1DIPC   NC3 7657  27.784  15.874   6.200 -0.1759 -0.2556  0.0281
    1DIPC   PO4 7658  27.799  15.518   5.993 -0.0564 -0.1993  0.0786
    1DIPC   GL1 7659  27.588  15.748   5.682  0.0345 -0.1573 -0.0586
    1DIPC   GL2 7660  27.302  15.765   5.626  0.0105 -0.0559 -0.0443
    1DIPC   C1A 7661  27.749  15.731   5.252 -0.0919  0.1119  0.0784
    1DIPC   D2A 7662  27.866  15.916   4.846 -0.1380  0.0873  0.1911
    1DIPC   D3A 7663  28.010  16.380   4.847  0.3684 -0.1370  0.1727
    1DIPC   C4A 7664  28.262  16.698   4.736 -0.1657  0.2018 -0.1228
    1DIPC   C1B 7665  27.200  15.732   5.168  0.2006 -0.0443 -0.2191
    1DIPC   D2B 7666  27.136  15.536   4.732  0.1237  0.1123 -0.0661
    1DIPC   D3B 7667  27.113  15.451   4.355 -0.0346 -0.0834  0.0041
    1DIPC   C4B 7668  27.578  15.164   4.205  0.0009 -0.1159 -0.3693
    1DIPC   NC3 7669   1.037  24.836   5.844 -0.0365 -0.3332  0.1797
    1DIPC   PO4 7670   1.102  25.345   5.896  0.1963  0.0743  0.0596
    1DIPC   GL1 7671   0.999  25.580   5.519 -0.1388  0.0627 -0.0022
    1DIPC   GL2 7672   1.243  25.431   5.314 -0.2141 -0.1867 -0.1945
    1DIPC   C1A 7673   0.828  25.552   5.020 -0.0597 -0.0290  0.0432
    1DIPC   D2A 7674   0.455  25.497   4.764  0.1568  0.0955 -0.1087
    1DIPC   D3A 7675   0.717  25.692   4.416 -0.4685  0.1332  0.0107
    1DIPC   C4A 7676   0.440  25.904   4.150 -0.1309  0.0768 -0.2753
    1DIPC   C1B 7677   1.311  25.308   4.932 -0.4558  0.2122 -0.1717
    1DIPC   D2B 7678   1.423  25.109   4.496 -0.4491 -0.1169  0.3998
    1DIPC   D3B 7679   1.147  24.823   4.271 -0.0731 -0.0866  0.1460
    1DIPC   C4B 7680   0.917  24.957   4.002  0.2109  0.2145  0.1060
    1DIPC   NC3 7681   3.085  24.261   6.083  0.0169  0.2195  0.0374
    1DIPC   PO4 7682   3.122  24.509   5.762 -0.1099  0.3816  0.2137
    1DIPC   GL1 7683   3.064  24.435   5.324  0.0303 -0.2893  0.0240
    1DIPC   GL2 7684   3.424  24.324   5.236  0.0712  0.0038  0.0999
    1DIPC   C1A 7685   2.813  24.667   4.983  0.2927  0.0820 -0.0826
    1DIPC   D2A 7686   2.934  24.969   4.732  0.2161 -0.2083 -0.1047
    1DIPC   D3A 7687   2.802  25.233   4.376 -0.0297 -0.0468 -0.0094
    1DIPC   C4A 7688   2.978  25.657   4.305  0.1433 -0.0206  0.1732
    1DIPC   C1B 7689   3.089  24.046   5.069  0.1838 -0.1927  0.0601
    1DIPC   D2B 7690   3.084  24.221   4.677  0.0453 -0.0524  0.3007
    1DIPC   D3B 7691   3.251  24.535   4.274 -0.1768  0.0750 -0.0784
    1DIPC   C4B 7692   3.225  24.940   4.237 -0.0140 -0.0165  0.0498
    1DIPC   NC3 7693  21.028  26.754   7.200 -0.1097 -0.1981 -0.0989
    1DIPC   PO4 7694  21.336  27.018   6.922 -0.4278 -0.1851  0.2986
    1DIPC   GL1 7695  21.339  26.888   6.442  0.3701  0.1968  0.1759
    1DIPC   GL2 7696  21.560  26.692   6.288 -0.3768  0.0981  0.1684
    1DIPC   C1A 7697  21.105  26.766   6.236  0.0517  0.2502  0.2522
    1DIPC   D2A 7698  20.719  26.929   6.248  0.1359 -0.4217 -0.2067
    1DIPC   D3A 7699  20.634  27.047   5.922  0.4201 -0.1259  0.2922
    1DIPC   C4A 7700  20.286  27.295   5.553  0.0776  0.1227  0.0323
    1DIPC   C1B 7701  21.565  26.633   5.848 -0.1989 -0.0222 -0.2442
    1DIPC   D2B 7702  21.430  26.615   5.440 -0.4683 -0.1911 -0.2160
    1DIPC   D3B 7703  21.091  26.267   5.203  0.0944 -0.0209 -0.3211
    1DIPC   C4B 7704  20.780  26.336   4.782 -0.2060 -0.2021  0.0660
    1DIPC   NC3 7705  11.044  28.012   7.506  0.0785  0.0394 -0.0464
    1DIPC   PO4 7706  10.801  28.177   7.140 -0.0675  0.1823 -0.4583
    1DIPC   GL1 7707  10.735  28.116   6.703  0.0171  0.3232 -0.2289
    1DIPC   GL2 7708  10.638  27.876   6.471 -0.1233  0.3575  0.1029
    1DIPC   C1A 7709  10.733  28.290   6.286 -0.0159  0.0605 -0.1021
    1DIPC   D2A 7710  10.874  28.310   5.829 -0.1384 -0.0490 -0.1519
    1DIPC   D3A 7711  11.212  28.550   5.644  0.0376 -0.0527  0.1691
    1DIPC   C4A 7712  11.447  28.891   5.946  0.0591 -0.0614  0.1727
    1DIPC   C1B 7713  10.502  28.001   5.978 -0.4293  0.0441 -0.1075
    1DIPC   D2B 7714  10.432  28.313   5.602  0.0665 -0.0819 -0.0204
    1DIPC   D3B 7715  10.138  28.565   5.440 -0.0068  0.2359  0.3583
    1DIPC   C4B 7716  10.104  28.958   5.447 -0.0634 -0.0989 -0.0988
    1DIPC   NC3 7717   1.811  12.378   6.031 -0.3494 -0.2118  0.0544
    1DIPC   PO4 7718   1.925  12.608   6.385 -0.1640 -0.0320 -0.1152
    1DIPC   GL1 7719   1.633  12.855   6.026 -0.2145  0.0120  0.1670
    1DIPC   GL2 7720   1.517  13.221   5.882 -0.1230 -0.1970  0.0727
    1DIPC   C1A 7721   1.495  12.735   5.597  0.2229 -0.0863  0.0810
    1DIPC   D2A 7722   1.735  12.620   5.122  0.1380 -0.0135  0.1420
    1DIPC   D3A 7723   1.722  12.708   4.651 -0.0692  0.0588 -0.0610
    1DIPC   C4A 7724   1.492  12.821   4.207  0.1032  0.2053 -0.1405
    1DIPC   C1B 7725   1.709  13.239   5.490 -0.1647 -0.2206 -0.0962
    1DIPC   D2B 7726   1.768  13.418   5.062 -0.0395 -0.0101  0.1712
    1DIPC   D3B 7727   1.547  13.031   5.062 -0.0056 -0.0674 -0.2317
    1DIPC   C4B 7728   1.210  13.077   5.383 -0.0064  0.0534  0.1065
    1DIPC   NC3 7729  23.666  12.314   6.071 -0.0062 -0.0028  0.4337
    1DIPC   PO4 7730  24.158  12.380   5.995  0.2560  0.1448  0.2739
    1DIPC   GL1 7731  23.942  12.207   5.628 -0.0167 -0.1792  0.0073
    1DIPC   GL2 7732  23.520  12.049   5.675 -0.0948  0.0152  0.0166
    1DIPC   C1A 7733  24.113  11.990   5.225  0.2511  0.0924 -0.0758
    1DIPC   D2A 7734  24.256  11.787   4.849  0.2150  0.2999  0.0999
    1DIPC   D3A 7735  24.416  11.935   4.459  0.1829  0.3134  0.1064
    1DIPC   C4A 7736  24.600  12.358   4.361  0.1551  0.1560  0.1764
    1DIPC   C1B 7737  23.674  11.792   5.352  0.0038  0.0876  0.0808
    1DIPC   D2B 7738  23.557  11.539   4.879 -0.4505 -0.4214 -0.0266
    1DIPC   D3B 7739  23.703  11.162   4.760  0.1292  0.0525 -0.2379
    1DIPC   C4B 7740  23.922  11.135   4.386 -0.3677 -0.0925  0.0329
    1DIPC   NC3 7741  27.635  29.731   6.657  0.0787 -0.0489  0.0595
    1DIPC   PO4 7742  28.138  29.697   6.537  0.0539 -0.2628  0.2861
    1DIPC   GL1 7743  27.964  29.754   6.124 -0.4121  0.2182  0.0407
    1DIPC   GL2 7744  27.818  29.606   6.031  0.0807  0.2730 -0.2033
    1DIPC   C1A 7745  27.880  30.044   5.748 -0.2787  0.2981  0.0049
    1DIPC   D2A 7746  27.896  30.061   5.266 -0.0602 -0.0361  0.4463
    1DIPC   D3A 7747  27.821  30.048   4.821 -0.1150 -0.0731  0.1110
    1DIPC   C4A 7748  27.672  29.635   4.635 -0.3664 -0.0629 -0.0656
    1DIPC   C1B 7749  27.906  29.598   5.510 -0.0044  0.1344 -0.0384
    1DIPC   D2B 7750  27.781  29.594   5.154 -0.0120 -0.0283 -0.0072
    1DIPC   D3B 7751  27.433  29.615   5.504  0.1766  0.4957 -0.2465
    1DIPC   C4B 7752  27.014  29.519   5.324 -0.1775 -0.3100  0.0370
    1DIPC   NC3 7753   7.053   6.761   7.223 -0.0525  0.0688 -0.1503
    1DIPC   PO4 7754   7.414   7.025   7.302  0.2167  0.1517 -0.2169
    1DIPC   GL1 7755   7.380   7.226   6.919 -0.1026 -0.2571  0.3782
    1DIPC   GL2 7756   7.266   7.497   6.655  0.0075 -0.2872  0.3100
    1DIPC   C1A 7757   7.657   7.089   6.457 -0.0131  0.0747 -0.2987
    1DIPC   D2A 7758   7.648   7.226   6.062  0.2402  0.0324 -0.0181
    1DIPC   D3A 7759   7.704   6.863   5.985 -0.0189  0.0857 -0.1863
    1DIPC   C4A 7760   7.461   6.712   5.650  0.0639 -0.0009  0.0806
    1DIPC   C1B 7761   7.226   7.305   6.282  0.0778  0.2996  0.0364
    1DIPC   D2B 7762   6.781   7.301   5.979 -0.1169 -0.1823 -0.1494
    1DIPC   D3B 7763   6.966   7.497   5.537  0.3298 -0.1926 -0.0991
    1DIPC   C4B 7764   7.076   7.010   5.403 -0.1087 -0.0232  0.0225
    1DIPC   NC3 7765  17.349  26.212   7.788 -0.1231 -0.1212 -0.1472
    1DIPC   PO4 7766  17.550  26.200   7.458 -0.3340 -0.0626  0.0534
    1DIPC   GL1 7767  17.508  26.169   6.917  0.1949  0.0104 -0.1006
    1DIPC   GL2 7768  17.657  25.937   6.730  0.0676 -0.5042 -0.2413
    1DIPC   C1A 7769  17.405  26.285   6.434 -0.1814  0.2495  0.1991
    1DIPC   D2A 7770  17.544  26.075   5.974  0.1367  0.0364  0.1732
    1DIPC   D3A 7771  17.486  26.442   5.650  0.1153  0.0407 -0.0458
    1DIPC   C4A 7772  17.266  26.355   5.232  0.1599  0.1301  0.0363
    1DIPC   C1B 7773  17.676  25.791   6.328  0.1433 -0.1595  0.0502
    1DIPC   D2B 7774  17.525  25.557   6.093  0.1573 -0.3700  0.0170
    1DIPC   D3B 7775  17.441  25.454   6.558  0.1212 -0.3314 -0.2378
    1DIPC   C4B 7776  17.517  25.046   6.498 -0.0121  0.2718 -0.4000
    1DIPC   NC3 7777  25.017  29.545   7.362 -0.2954 -0.1888 -0.1230
    1DIPC   PO4 7778  25.314  29.823   7.135 -0.0749  0.1443  0.2966
    1DIPC   GL1 7779  25.239  29.764   6.678 -0.1697 -0.3899  0.0707
    1DIPC   GL2 7780  25.369  29.497   6.494 -0.1305 -0.4419 -0.2521
    1DIPC   C1A 7781  25.157  30.055   6.349 -0.1945 -0.2435  0.0769
    1DIPC   D2A 7782  25.038  30.118   5.988 -0.1520  0.3712 -0.0620
    1DIPC   D3A 7783  24.812  29.731   5.826  0.0773  0.2572  0.1782
    1DIPC   C4A 7784  24.381  29.746   6.024 -0.0175  0.0092  0.1047
    1DIPC   C1B 7785  25.263  29.651   6.110  0.3436  0.1289  0.0083
    1DIPC   D2B 7786  25.318  29.703   5.667  0.0956  0.1466  0.0426
    1DIPC   D3B 7787  25.052  29.887   5.357 -0.0799  0.0049 -0.2044
    1DIPC   C4B 7788  25.156  29.675   4.895 -0.0496 -0.0189 -0.0370
    1DIPC   NC3 7789   8.151  24.544   6.605  0.2832  0.0730 -0.1368
    1DIPC   PO4 7790   8.174  24.656   6.213 -0.0416  0.0698  0.0261
    1DIPC   GL1 7791   7.846  24.883   5.875  0.0577  0.2154  0.2036
    1DIPC   GL2 7792   7.540  25.089   5.843  0.2063  0.1918  0.0611
    1DIPC   C1A 7793   7.759  24.817   5.430  0.3025 -0.0900  0.1595
    1DIPC   D2A 7794   7.575  24.460   5.319  0.2489  0.5057 -0.1266
    1DIPC   D3A 7795   7.584  24.686   4.911 -0.0522  0.1363 -0.0138
    1DIPC   C4A 7796   7.232  24.837   4.719  0.0550  0.0161  0.0299
    1DIPC   C1B 7797   7.324  25.031   5.469  0.2183 -0.3816 -0.2921
    1DIPC   D2B 7798   7.102  24.959   5.193  0.0568 -0.5659  0.0736
    1DIPC   D3B 7799   6.931  25.217   4.809  0.1616 -0.2899 -0.0243
    1DIPC   C4B 7800   6.858  25.026   4.467  0.0491 -0.0796 -0.0588
    1DIPC   NC3 7801   6.524   7.552   7.291  0.2224 -0.1657  0.1489
    1DIPC   PO4 7802   6.277   7.486   6.957  0.1037  0.1577  0.0890
    1DIPC   GL1 7803   6.287   7.447   6.584  0.1213 -0.2032 -0.2419
    1DIPC   GL2 7804   6.601   7.243   6.491  0.1618  0.1657  0.3044
    1DIPC   C1A 7805   6.257   7.568   6.097 -0.3077  0.1202 -0.3299
    1DIPC   D2A 7806   6.459   7.634   5.722 -0.4578  0.0605 -0.0769
    1DIPC   D3A 7807   6.741   7.858   5.883  0.2612 -0.0988  0.0167
    1DIPC   C4A 7808   6.915   8.148   5.573 -0.0818  0.0698  0.0236
    1DIPC   C1B 7809   6.638   6.790   6.137 -0.1088 -0.1886 -0.2055
    1DIPC   D2B 7810   6.647   6.411   6.041  0.0743  0.3346  0.1507
    1DIPC   D3B 7811   6.769   6.178   6.395 -0.0443  0.1874 -0.0962
    1DIPC   C4B 7812   6.940   5.948   6.650 -0.0213 -0.0386  0.1618
    1DIPC   NC3 7813   4.177  22.203   5.981  0.1183 -0.4840  0.2271
    1DIPC   PO4 7814   4.340  21.832   5.891 -0.2489 -0.2743  0.0716
    1DIPC   GL1 7815   4.369  21.969   5.473  0.1327 -0.0640  0.1220
    1DIPC   GL2 7816   4.614  21.804   5.238 -0.3447 -0.1793 -0.1097
    1DIPC   C1A 7817   4.289  22.177   5.024  0.0109  0.2093  0.0459
    1DIPC   D2A 7818   4.187  22.209   4.620 -0.2821 -0.0456 -0.0055
    1DIPC   D3A 7819   4.234  22.503   4.272  0.3524 -0.0561 -0.1357
    1DIPC   C4A 7820   4.628  22.810   4.260 -0.1574 -0.0143  0.2043
    1DIPC   C1B 7821   4.413  21.518   5.038 -0.1952  0.0898  0.0683
    1DIPC   D2B 7822   4.284  21.120   4.683  0.1210  0.0105 -0.0376
    1DIPC   D3B 7823   4.396  21.171   4.261  0.1012  0.1994  0.1841
    1DIPC   C4B 7824   4.212  21.149   3.932 -0.2334  0.1453  0.2549
    1DIPC   NC3 7825  17.800  18.482   7.070 -0.0266  0.1953 -0.0519
    1DIPC   PO4 7826  17.749  18.056   7.065 -0.0436 -0.0813  0.0860
    1DIPC   GL1 7827  17.434  18.346   6.688 -0.2146  0.0114 -0.1346
    1DIPC   GL2 7828  17.067  18.437   6.741 -0.2154 -0.2244 -0.1579
    1DIPC   C1A 7829  17.418  18.383   6.201  0.1831  0.2061 -0.1122
    1DIPC   D2A 7830  17.219  18.247   5.909 -0.1009  0.0655 -0.1392
    1DIPC   D3A 7831  17.465  18.508   5.733 -0.2653  0.0908 -0.1312
    1DIPC   C4A 7832  17.530  18.493   5.287 -0.0519 -0.1533  0.0015
    1DIPC   C1B 7833  17.129  18.761   6.396 -0.0529  0.0057  0.1558
    1DIPC   D2B 7834  17.228  18.918   6.007  0.2441 -0.0239  0.2061
    1DIPC   D3B 7835  16.968  19.229   6.019  0.1573 -0.1853  0.0257
    1DIPC   C4B 7836  16.814  19.149   5.632  0.0010  0.0716 -0.0032
    1DIPC   NC3 7837  21.840   2.489   7.099 -0.2605  0.0060 -0.0307
    1DIPC   PO4 7838  21.943   2.505   6.633 -0.0426 -0.1932  0.3908
    1DIPC   GL1 7839  22.042   2.391   6.198 -0.0990  0.2586  0.1961
    1DIPC   GL2 7840  22.203   2.701   6.033 -0.0459  0.1026 -0.1345
    1DIPC   C1A 7841  22.175   2.221   5.846 -0.1131  0.1318 -0.3410
    1DIPC   D2A 7842  22.196   2.159   5.409 -0.1230 -0.0064 -0.0186
    1DIPC   D3A 7843  21.916   2.149   5.110  0.0411  0.1266 -0.3500
    1DIPC   C4A 7844  21.931   2.305   4.737 -0.2807 -0.0161  0.2288
    1DIPC   C1B 7845  22.115   2.727   5.623  0.1639  0.0181 -0.1031
    1DIPC   D2B 7846  21.823   2.455   5.486  0.3059  0.1163  0.0422
    1DIPC   D3B 7847  22.046   2.744   5.136 -0.1231  0.0165 -0.3910
    1DIPC   C4B 7848  22.318   2.593   4.841 -0.0806 -0.1103 -0.2515
    1DIPC   NC3 7849   6.658   3.857   7.784  0.0362 -0.1809  0.0600
    1DIPC   PO4 7850   6.593   3.965   7.260 -0.2102  0.1817  0.0257
    1DIPC   GL1 7851   6.608   3.969   6.783  0.2063 -0.3447  0.2639
    1DIPC   GL2 7852   6.797   3.736   6.536 -0.1647 -0.3981 -0.3197
    1DIPC   C1A 7853   6.956   4.185   6.483  0.0124  0.2294  0.4063
    1DIPC   D2A 7854   7.202   4.188   6.105  0.2166 -0.4897  0.2317
    1DIPC   D3A 7855   6.951   4.146   5.778 -0.1119  0.1289 -0.0404
    1DIPC   C4A 7856   7.182   3.909   5.444  0.1302 -0.1104 -0.1092
    1DIPC   C1B 7857   6.972   3.754   6.086  0.0891 -0.0640 -0.1679
    1DIPC   D2B 7858   6.809   3.642   5.753  0.1586 -0.3038 -0.2394
    1DIPC   D3B 7859   6.530   3.987   5.599 -0.2158 -0.0262  0.3582
    1DIPC   C4B 7860   6.144   4.045   5.505  0.1535 -0.1370 -0.1371
    1DIPC   NC3 7861   8.512  10.252   7.016  0.1210  0.2542 -0.0552
    1DIPC   PO4 7862   8.940   9.933   7.030  0.0199 -0.0200  0.0215
    1DIPC   GL1 7863   8.901  10.211   6.654 -0.1251 -0.1482  0.1041
    1DIPC   GL2 7864   9.057  10.448   6.721 -0.4371 -0.0280 -0.0455
    1DIPC   C1A 7865   9.056  10.262   6.103  0.0798  0.2107  0.0694
    1DIPC   D2A 7866   9.089  10.536   5.717 -0.2581  0.1961 -0.2246
    1DIPC   D3A 7867   9.501  10.450   5.573  0.1543  0.0260 -0.1216
    1DIPC   C4A 7868   9.673  10.711   5.308 -0.2451 -0.0238  0.0880
    1DIPC   C1B 7869   8.995  10.799   6.624  0.0203 -0.0242  0.0823
    1DIPC   D2B 7870   9.341  11.051   6.389 -0.0431  0.0012 -0.0921
    1DIPC   D3B 7871   9.050  10.884   6.139 -0.1176 -0.0549 -0.1060
    1DIPC   C4B 7872   9.209  11.025   5.775 -0.0025  0.0096 -0.0502
    1DIPC   NC3 7873  24.590  17.280   6.332  0.0993 -0.0552 -0.0614
    1DIPC   PO4 7874  24.802  17.547   6.130  0.0786  0.1802  0.0265
    1DIPC   GL1 7875  25.025  17.573   5.854 -0.2312 -0.0850 -0.1318
    1DIPC   GL2 7876  25.135  17.299   5.679 -0.3090  0.1647  0.2761
    1DIPC   C1A 7877  25.347  17.720   5.473 -0.0231  0.0250  0.0709
    1DIPC   D2A 7878  25.532  17.703   5.115  0.2742  0.1064 -0.3334
    1DIPC   D3A 7879  25.430  17.765   4.694 -0.1409  0.0239 -0.1197
    1DIPC   C4A 7880  25.413  18.152   4.534 -0.0224  0.0873  0.4555
    1DIPC   C1B 7881  24.862  17.489   5.359 -0.0111  0.0197 -0.1274
    1DIPC   D2B 7882  25.006  17.798   5.135 -0.1604  0.2303  0.0912
    1DIPC   D3B 7883  24.975  17.563   4.783  0.2883 -0.0823 -0.1827
    1DIPC   C4B 7884  24.635  17.563   4.538  0.0034  0.1296  0.0385
    1DIPC   NC3 7885   1.004   4.739   6.695 -0.0434 -0.0919  0.0135
    1DIPC   PO4 7886   0.623   4.579   6.547 -0.3351 -0.0226  0.0324
    1DIPC   GL1 7887   0.811   4.812   6.189 -0.3148 -0.0971  0.2864
    1DIPC   GL2 7888   1.115   5.000   5.997 -0.2651 -0.2546  0.0827
    1DIPC   C1A 7889   0.786   4.849   5.687 -0.2101  0.0824 -0.0201
    1DIPC   D2A 7890   0.778   4.806   5.339  0.4180 -0.1225 -0.0388
    1DIPC   D3A 7891   0.799   4.325   5.146 -0.0731  0.1125 -0.4215
    1DIPC   C4A 7892   0.409   4.249   4.908  0.0822  0.1539 -0.4265
    1DIPC   C1B 7893   1.230   5.101   5.558  0.1791  0.0506 -0.0701
    1DIPC   D2B 7894   1.274   5.036   5.108  0.2910 -0.3724  0.2159
    1DIPC   D3B 7895   0.947   4.843   4.867  0.1330 -0.2719 -0.1817
    1DIPC   C4B 7896   0.949   4.484   4.678  0.3993 -0.0615  0.1093
    1DIPC   NC3 7897   6.391  21.394   5.736  0.1971 -0.1198  0.1838
    1DIPC   PO4 7898   6.406  21.830   5.518 -0.2704 -0.1918  0.1238
    1DIPC   GL1 7899   6.440  21.925   5.070  0.1043  0.0683 -0.0654
    1DIPC   GL2 7900   6.566  22.089   4.925  0.1474 -0.1793  0.0910
    1DIPC   C1A 7901   6.172  21.937   4.753 -0.1183 -0.0590 -0.0940
    1DIPC   D2A 7902   5.912  21.770   4.422  0.1777 -0.1798 -0.1342
    1DIPC   D3A 7903   5.644  22.023   4.667  0.2129  0.1057 -0.2218
    1DIPC   C4A 7904   5.215  22.219   4.686  0.1106  0.2690 -0.1870
    1DIPC   C1B 7905   6.829  21.806   4.779 -0.2399 -0.0208  0.4042
    1DIPC   D2B 7906   6.969  21.555   4.483  0.0140 -0.1886 -0.0604
    1DIPC   D3B 7907   7.239  21.744   4.069  0.0878  0.1095 -0.1817
    1DIPC   C4B 7908   7.251  22.076   3.765 -0.0569 -0.0239  0.0832
    1DIPC   NC3 7909  28.725  18.142   6.750 -0.1425 -0.1672 -0.0230
    1DIPC   PO4 7910  28.531  18.361   6.408  0.0400  0.1033  0.1196
    1DIPC   GL1 7911  28.547  18.334   5.957 -0.0766 -0.2576 -0.0897
    1DIPC   GL2 7912  28.754  18.002   5.853 -0.0382 -0.1573  0.1254
    1DIPC   C1A 7913  28.531  18.297   5.543 -0.1139 -0.1064  0.0963
    1DIPC   D2A 7914  28.596  18.323   4.972  0.2315  0.1969 -0.1375
    1DIPC   D3A 7915  28.532  18.788   4.988  0.2196  0.3389  0.0058
    1DIPC   C4A 7916  28.193  18.929   4.716 -0.0048  0.2943  0.0930
    1DIPC   C1B 7917  28.995  18.105   5.440  0.0650 -0.1002 -0.0128
    1DIPC   D2B 7918  29.192  18.132   5.071  0.2074 -0.0827  0.3792
    1DIPC   D3B 7919  28.871  17.951   4.737  0.1691 -0.0027  0.0809
    1DIPC   C4B 7920  28.866  17.635   4.464 -0.1593 -0.1026 -0.0030
    1DIPC   NC3 7921  20.740  24.533   6.700 -0.0743 -0.0763 -0.1154
    1DIPC   PO4 7922  20.380  24.233   6.841  0.0530  0.0047  0.1362
    1DIPC   GL1 7923  20.452  24.081   6.442 -0.0417 -0.3922 -0.1208
    1DIPC   GL2 7924  20.392  24.439   6.309  0.2373  0.0690  0.0587
    1DIPC   C1A 7925  20.852  24.134   6.206  0.2593  0.0874  0.1743
    1DIPC   D2A 7926  21.037  24.321   5.848  0.0732 -0.0136  0.3709
    1DIPC   D3A 7927  21.092  24.676   5.645 -0.0203  0.1025  0.3974
    1DIPC   C4A 7928  21.345  25.014   5.567  0.1071  0.2456  0.0990
    1DIPC   C1B 7929  20.357  24.984   6.230 -0.1858  0.2903 -0.0497
    1DIPC   D2B 7930  20.210  25.467   6.187  0.2624 -0.0225  0.0350
    1DIPC   D3B 7931  20.244  25.156   5.835  0.0476  0.0884 -0.2481
    1DIPC   C4B 7932  20.712  25.020   5.700 -0.0461 -0.2507  0.1415
    1DIPC   NC3 7933  19.647  22.234   7.170  0.1736  0.3097 -0.3320
    1DIPC   PO4 7934  19.584  21.783   7.115 -0.0175  0.2302  0.2456
    1DIPC   GL1 7935  19.893  21.810   6.794 -0.1913  0.0934  0.1663
    1DIPC   GL2 7936  19.833  22.075   6.728  0.0957 -0.2179  0.1285
    1DIPC   C1A 7937  20.064  21.427   6.481 -0.0618 -0.4715  0.5104
    1DIPC   D2A 7938  20.251  21.185   6.153 -0.2333 -0.1619  0.0557
    1DIPC   D3A 7939  20.533  21.412   5.884  0.2478  0.0853 -0.2232
    1DIPC   C4A 7940  20.383  21.502   5.463 -0.1510 -0.0606  0.1825
    1DIPC   C1B 7941  20.077  22.426   6.582 -0.0068 -0.0264  0.1054
    1DIPC   D2B 7942  20.337  22.703   6.500  0.3845  0.1482  0.0771
    1DIPC   D3B 7943  20.539  22.343   6.642 -0.1394 -0.0626 -0.1999
    1DIPC   C4B 7944  20.354  22.154   6.951 -0.1571  0.2351  0.0398
    1DIPC   NC3 7945  29.440  10.844   6.038  0.0468  0.0510  0.1042
    1DIPC   PO4 7946  29.080  10.761   5.855  0.0020 -0.0346  0.2185
    1DIPC   GL1 7947  29.236  10.830   5.389 -0.2764 -0.0300  0.3829
    1DIPC   GL2 7948  28.953  11.002   5.419  0.2464 -0.1938  0.0287
    1DIPC   C1A 7949  29.551  11.063   5.189 -0.0655  0.1610 -0.0372
    1DIPC   D2A 7950  29.582  11.422   5.018 -0.1328  0.1816 -0.1378
    1DIPC   D3A 7951  29.856  11.390   4.661  0.0400  0.0197 -0.2516
    1DIPC   C4A 7952  30.171  11.736   4.494  0.4247 -0.1984 -0.0781
    1DIPC   C1B 7953  29.058  11.103   5.041 -0.0060  0.1140  0.3944
    1DIPC   D2B 7954  28.950  11.446   4.708 -0.0451 -0.0958 -0.0885
    1DIPC   D3B 7955  28.692  11.200   4.744 -0.2447 -0.0294 -0.1416
    1DIPC   C4B 7956  28.508  11.276   5.153 -0.0973  0.0526 -0.2156
    1DIPC   NC3 7957   8.685  29.452   7.511  0.1315  0.1735  0.1698
    1DIPC   PO4 7958   8.977  29.694   7.280  0.0184  0.2118 -0.0326
    1DIPC   GL1 7959   9.053  29.601   6.914 -0.2484  0.1712  0.0353
    1DIPC   GL2 7960   8.784  29.476   6.707 -0.0568 -0.0165 -0.0281
    1DIPC   C1A 7961   9.236  29.233   6.599 -0.1019  0.0063  0.0320
    1DIPC   D2A 7962   9.616  29.002   6.632  0.0627  0.1693 -0.1440
    1DIPC   D3A 7963   9.613  29.026   6.137  0.1244 -0.0209  0.0033
    1DIPC   C4A 7964   9.354  29.303   6.065  0.0374  0.1941 -0.0992
    1DIPC   C1B 7965   8.892  29.555   6.298  0.0208 -0.0377 -0.1878
    1DIPC   D2B 7966   9.040  29.859   5.953  0.2784  0.2087 -0.1569
    1DIPC   D3B 7967   8.803  29.694   5.656  0.0520 -0.0302 -0.1276
    1DIPC   C4B 7968   9.011  29.569   5.234  0.2020 -0.1289  0.1602
    1DIPC   NC3 7969  23.704  26.704   6.913 -0.0901  0.2062  0.3600
    1DIPC   PO4 7970  23.820  26.275   6.749  0.0584  0.0730 -0.0441
    1DIPC   GL1 7971  23.944  26.132   6.349  0.1760 -0.3453  0.1120
    1DIPC   GL2 7972  24.016  26.405   6.104  0.2429  0.0587 -0.0974
    1DIPC   C1A 7973  23.901  25.778   6.048  0.0682  0.0617 -0.0811
    1DIPC   D2A 7974  23.993  25.629   5.626  0.1328  0.3025  0.0055
    1DIPC   D3A 7975  23.641  25.481   5.438  0.0490 -0.0547  0.1368
    1DIPC   C4A 7976  23.724  25.349   4.947 -0.1776 -0.0322 -0.0788
    1DIPC   C1B 7977  23.592  26.488   5.945  0.1004 -0.0681 -0.0204
    1DIPC   D2B 7978  23.409  26.905   5.836  0.1389  0.3554 -0.1006
    1DIPC   D3B 7979  22.968  26.840   5.808 -0.0733 -0.0439 -0.0348
    1DIPC   C4B 7980  22.767  27.081   5.537 -0.2312 -0.4955 -0.0634
    1DIPC   NC3 7981  21.208  27.581   6.902  0.0045 -0.1069 -0.0634
    1DIPC   PO4 7982  21.048  27.998   6.742  0.4810  0.2228 -0.0480
    1DIPC   GL1 7983  20.794  28.223   6.382  0.1817  0.1218 -0.0405
    1DIPC   GL2 7984  20.608  28.513   6.285  0.3890 -0.1700 -0.1109
    1DIPC   C1A 7985  20.512  28.081   6.002  0.2343 -0.1444  0.0988
    1DIPC   D2A 7986  20.135  28.382   6.023 -0.1037 -0.2269 -0.0283
    1DIPC   D3A 7987  20.544  28.486   5.734  0.2394 -0.3285 -0.2141
    1DIPC   C4A 7988  20.932  28.348   5.877  0.0406 -0.1150  0.0358
    1DIPC   C1B 7989  20.311  28.827   6.181  0.2445 -0.0335  0.0446
    1DIPC   D2B 7990  20.259  28.999   5.795 -0.0165 -0.1636  0.0687
    1DIPC   D3B 7991  20.194  28.724   5.443  0.0344 -0.3028 -0.1860
    1DIPC   C4B 7992  20.192  28.286   5.474 -0.1349 -0.1838 -0.0390
    1DIPC   NC3 7993   6.185  15.962   5.679 -0.2040 -0.0691 -0.0354
    1DIPC   PO4 7994   6.613  15.683   5.606  0.2824  0.0320  0.0324
    1DIPC   GL1 7995   6.296  15.604   5.350  0.1700  0.0598  0.1578
    1DIPC   GL2 7996   6.080  15.281   5.210  0.2183  0.2625  0.2874
    1DIPC   C1A 7997   6.406  15.598   4.895  0.3344  0.1130 -0.1113
    1DIPC   D2A 7998   6.598  15.431   4.608  0.1658 -0.3801  0.3615
    1DIPC   D3A 7999   6.923  14.985   4.717  0.0063 -0.1274  0.1977
    1DIPC   C4A 8000   6.850  14.670   4.393 -0.1973 -0.0266 -0.0810
    1DIPC   C1B 8001   6.221  15.164   4.853 -0.0068 -0.0624 -0.1815
    1DIPC   D2B 8002   6.456  14.914   4.543  0.0017  0.0865  0.0865
    1DIPC   D3B 8003   6.281  14.535   4.723 -0.0008 -0.0368  0.1336
    1DIPC   C4B 8004   5.834  14.434   4.739 -0.0431  0.3254  0.1264
    1DIPC   NC3 8005  11.722  20.395   7.275 -0.1247 -0.3416  0.0380
    1DIPC   PO4 8006  11.701  20.330   6.811 -0.1332 -0.0639 -0.1743
    1DIPC   GL1 8007  11.794  20.336   6.398 -0.0668 -0.2182  0.0225
    1DIPC   GL2 8008  11.941  19.948   6.274  0.3229  0.0200  0.0238
    1DIPC   C1A 8009  11.574  20.371   6.139  0.0847 -0.0056 -0.0264
    1DIPC   D2A 8010  11.268  20.522   5.870  0.0218 -0.1266 -0.0706
    1DIPC   D3A 8011  10.909  20.217   6.099  0.2516  0.2016 -0.2850
    1DIPC   C4A 8012  10.850  19.896   5.854  0.0295  0.0334  0.0209
    1DIPC   C1B 8013  11.886  19.912   5.891 -0.0651 -0.1414  0.0881
    1DIPC   D2B 8014  11.887  19.874   5.542  0.2431  0.3114  0.1403
    1DIPC   D3B 8015  11.905  19.931   5.074 -0.0118 -0.1255 -0.0740
    1DIPC   C4B 8016  11.809  20.357   4.826 -0.1243 -0.0092 -0.0748
    1DIPC   NC3 8017  11.676  23.529   6.663 -0.1852 -0.1703  0.1181
    1DIPC   PO4 8018  11.918  23.742   6.384 -0.1725  0.0648 -0.1957
    1DIPC   GL1 8019  11.802  23.793   5.940  0.0157 -0.2502  0.2937
    1DIPC   GL2 8020  11.551  24.024   5.795  0.0853 -0.2274 -0.0893
    1DIPC   C1A 8021  11.665  23.565   5.571 -0.2459 -0.2406  0.2025
    1DIPC   D2A 8022  11.659  23.652   5.140 -0.0824  0.2119  0.1312
    1DIPC   D3A 8023  11.796  23.180   4.977  0.4354  0.0053  0.2287
    1DIPC   C4A 8024  11.462  22.984   4.765  0.1164  0.1008  0.2999
    1DIPC   C1B 8025  11.584  24.151   5.412 -0.4015  0.3500 -0.0462
    1DIPC   D2B 8026  11.686  24.140   4.966 -0.0379  0.0968  0.0898
    1DIPC   D3B 8027  11.369  24.007   4.888  0.0773 -0.0002  0.1880
    1DIPC   C4B 8028  11.337  23.562   4.751 -0.0715  0.0498 -0.0373
    1DIPC   NC3 8029   6.483   8.440   7.561  0.0449 -0.1377  0.0239
    1DIPC   PO4 8030   6.385   8.299   7.149  0.0345  0.0207 -0.1942
    1DIPC   GL1 8031   6.637   8.438   6.795 -0.4143 -0.0152  0.0636
    1DIPC   GL2 8032   6.790   8.303   6.622 -0.3504 -0.1163 -0.0368
    1DIPC   C1A 8033   6.929   8.806   6.750 -0.0455 -0.2316 -0.0603
    1DIPC   D2A 8034   7.119   9.163   6.456  0.1595 -0.1487  0.2391
    1DIPC   D3A 8035   7.110   8.768   6.247  0.0384 -0.0737  0.0782
    1DIPC   C4A 8036   7.477   8.719   5.975  0.0799  0.1889  0.0761
    1DIPC   C1B 8037   6.759   8.331   6.187 -0.2279 -0.1182  0.1112
    1DIPC   D2B 8038   6.490   8.390   5.826 -0.2020 -0.1259  0.0420
    1DIPC   D3B 8039   6.604   8.667   5.532  0.4993  0.0439  0.0588
    1DIPC   C4B 8040   6.924   8.589   5.314  0.2894 -0.1042  0.0238
    1DIPC   NC3 8041   8.154  12.593   6.624 -0.0367  0.1474 -0.2119
    1DIPC   PO4 8042   7.971  12.846   6.280 -0.0614 -0.1548 -0.0176
    1DIPC   GL1 8043   7.896  12.856   5.929 -0.0485  0.0846  0.1009
    1DIPC   GL2 8044   7.598  12.854   5.891 -0.0403  0.1331  0.0199
    1DIPC   C1A 8045   7.951  12.806   5.512  0.1843 -0.0811 -0.0290
    1DIPC   D2A 8046   7.795  12.896   5.160  0.0960  0.2286  0.0188
    1DIPC   D3A 8047   7.772  12.558   4.806 -0.0913  0.0234 -0.0984
    1DIPC   C4A 8048   8.223  12.402   4.665  0.2345 -0.0079  0.1619
    1DIPC   C1B 8049   7.473  12.709   5.576 -0.0931 -0.0497  0.1223
    1DIPC   D2B 8050   7.375  12.562   5.205 -0.1506 -0.1343 -0.1213
    1DIPC   D3B 8051   7.250  12.204   5.477  0.0810  0.0173 -0.2279
    1DIPC   C4B 8052   7.022  11.907   5.588  0.1927 -0.0907  0.1015
    1DIPC   NC3 8053  20.009   0.496   6.841 -0.0144 -0.2565  0.2615
    1DIPC   PO4 8054  20.248   0.733   6.698 -0.0242 -0.2158 -0.0871
    1DIPC   GL1 8055  20.330   0.353   6.404 -0.3930  0.0093  0.1469
    1DIPC   GL2 8056  20.208   0.608   6.146 -0.0107  0.3473 -0.0093
    1DIPC   C1A 8057  20.468  -0.063   6.299 -0.0256 -0.0551 -0.0555
    1DIPC   D2A 8058  20.683  -0.251   5.986  0.0605  0.0102 -0.1532
    1DIPC   D3A 8059  20.357  -0.437   5.809  0.4082  0.1033 -0.3732
    1DIPC   C4A 8060  20.074  -0.549   6.155  0.1860  0.0422  0.1354
    1DIPC   C1B 8061  20.200   0.878   5.782  0.2766 -0.3125  0.3425
    1DIPC   D2B 8062  20.106   1.229   5.412  0.2396  0.3719 -0.2291
    1DIPC   D3B 8063  20.000   1.402   4.990 -0.0407 -0.0915  0.0560
    1DIPC   C4B 8064  20.137   1.209   4.602 -0.1944  0.0135 -0.0467
    1DIPC   NC3 8065   6.785  28.021   6.456 -0.3375 -0.0037 -0.2571
    1DIPC   PO4 8066   6.614  27.558   6.493 -0.1623 -0.3200 -0.0004
    1DIPC   GL1 8067   6.424  27.469   6.141  0.6833 -0.0125 -0.4523
    1DIPC   GL2 8068   6.499  27.200   6.152  0.0196 -0.0258  0.2290
    1DIPC   C1A 8069   6.188  27.562   5.734  0.1416 -0.1814 -0.1357
    1DIPC   D2A 8070   5.966  27.663   5.322 -0.1539  0.1670  0.0640
    1DIPC   D3A 8071   5.945  27.770   4.874 -0.1485  0.1628 -0.1630
    1DIPC   C4A 8072   5.795  27.520   4.641 -0.4239  0.2016  0.2060
    1DIPC   C1B 8073   6.066  27.135   6.132 -0.0302  0.0971  0.0030
    1DIPC   D2B 8074   5.756  26.997   5.912  0.0739 -0.0767  0.0353
    1DIPC   D3B 8075   5.595  27.187   5.577 -0.0998  0.1244  0.2588
    1DIPC   C4B 8076   5.251  27.522   5.567  0.0080  0.0477 -0.0702
    1DIPC   NC3 8077   5.227  16.475   5.594  0.1978 -0.0131  0.0751
    1DIPC   PO4 8078   5.081  16.122   5.943  0.0518 -0.1048  0.0062
    1DIPC   GL1 8079   5.005  15.993   5.582 -0.1231 -0.0446 -0.2481
    1DIPC   GL2 8080   4.777  16.178   5.379 -0.1480 -0.2264  0.3742
    1DIPC   C1A 8081   5.324  16.001   5.228 -0.0125  0.0847  0.3808
    1DIPC   D2A 8082   5.449  16.083   4.811 -0.1121  0.0887  0.2580
    1DIPC   D3A 8083   5.430  16.453   4.649 -0.0944  0.1393 -0.1961
    1DIPC   C4A 8084   5.680  16.834   4.721  0.1998 -0.3416 -0.0816
    1DIPC   C1B 8085   4.673  16.081   4.993  0.1963  0.1710  0.0940
    1DIPC   D2B 8086   4.686  16.384   4.644 -0.0537 -0.2058  0.3074
    1DIPC   D3B 8087   5.041  16.087   4.527 -0.1659  0.0879 -0.1093
    1DIPC   C4B 8088   5.311  16.146   4.125  0.2647 -0.1875 -0.1601
    1DIPC   NC3 8089  28.706   9.460   6.680  0.4427  0.0205  0.2833
    1DIPC   PO4 8090  28.952   9.131   6.734  0.0398 -0.2328 -0.3341
    1DIPC   GL1 8091  28.871   9.099   6.290  0.0225  0.1232 -0.0664
    1DIPC   GL2 8092  28.855   8.810   6.229  0.1197  0.1742  0.2858
    1DIPC   C1A 8093  28.654   9.107   5.916  0.0387 -0.0756 -0.0738
    1DIPC   D2A 8094  28.500   8.980   5.441 -0.2288  0.4294  0.0808
    1DIPC   D3A 8095  28.166   8.808   5.671 -0.0584 -0.1804 -0.1971
    1DIPC   C4A 8096  27.851   9.136   5.626  0.2329 -0.0588  0.1020
    1DIPC   C1B 8097  29.193   8.656   6.015  0.3894 -0.1427  0.0935
    1DIPC   D2B 8098  29.392   8.609   5.584  0.1800 -0.1285  0.0150
    1DIPC   D3B 8099  29.738   8.260   5.827  0.3934 -0.0941  0.1127
    1DIPC   C4B 8100  29.738   7.918   5.715 -0.2096 -0.2682 -0.2365
    1DIPC   NC3 8101  18.341  25.180   7.303  0.0013 -0.0951  0.4070
    1DIPC   PO4 8102  18.269  24.732   7.223 -0.0674 -0.1587 -0.1061
    1DIPC   GL1 8103  18.104  24.581   6.886  0.0772 -0.1307 -0.1070
    1DIPC   GL2 8104  17.822  24.345   6.772  0.0505 -0.1530 -0.2579
    1DIPC   C1A 8105  18.206  24.493   6.446 -0.1110 -0.1531 -0.0209
    1DIPC   D2A 8106  18.116  24.265   6.032 -0.0863  0.2405  0.0294
    1DIPC   D3A 8107  18.497  24.404   5.867 -0.2333 -0.2452 -0.2286
    1DIPC   C4A 8108  18.652  24.434   6.177  0.1448  0.0029 -0.0599
    1DIPC   C1B 8109  17.438  24.467   6.504  0.2093 -0.1970  0.1098
    1DIPC   D2B 8110  17.476  24.629   6.132  0.0827  0.2590 -0.0294
    1DIPC   D3B 8111  17.879  24.677   6.128  0.0637 -0.1429 -0.1707
    1DIPC   C4B 8112  18.003  24.886   6.513  0.1873  0.0078 -0.0542
    1DIPC   NC3 8113  17.522   1.430   6.445  0.1429 -0.0448  0.1161
    1DIPC   PO4 8114  17.934   1.406   6.615 -0.3148  0.0492 -0.0264
    1DIPC   GL1 8115  17.964   1.388   6.217 -0.0019 -0.1389 -0.3194
    1DIPC   GL2 8116  17.959   1.219   5.891 -0.1985 -0.0450 -0.0683
    1DIPC   C1A 8117  18.100   1.754   5.956  0.4484 -0.0808 -0.3002
    1DIPC   D2A 8118  17.984   2.252   5.939  0.3775 -0.0676 -0.0934
    1DIPC   D3A 8119  17.610   2.141   5.866 -0.0425 -0.2568 -0.0196
    1DIPC   C4A 8120  17.284   2.146   5.601 -0.1740 -0.1444 -0.1130
    1DIPC   C1B 8121  17.757   1.095   5.551 -0.2894  0.3512  0.0329
    1DIPC   D2B 8122  17.613   0.738   5.418  0.1791  0.5701  0.1584
    1DIPC   D3B 8123  17.755   0.907   5.027 -0.0539 -0.2835 -0.0432
    1DIPC   C4B 8124  18.127   1.299   5.173  0.1671  0.0764 -0.0228
    1DIPC   NC3 8125  28.882  22.812   6.154  0.1516  0.3009  0.0764
    1DIPC   PO4 8126  28.961  22.439   5.968 -0.2356 -0.1442  0.0203
    1DIPC   GL1 8127  28.730  22.704   5.704  0.1017 -0.0948  0.1569
    1DIPC   GL2 8128  29.037  22.843   5.665  0.0575 -0.3440  0.1418
    1DIPC   C1A 8129  28.471  22.916   5.467  0.0281  0.1187 -0.2119
    1DIPC   D2A 8130  28.278  23.205   5.181  0.1419 -0.0030 -0.1476
    1DIPC   D3A 8131  28.326  23.031   4.761 -0.0317  0.0890 -0.2610
    1DIPC   C4A 8132  28.491  22.621   4.639 -0.0872  0.1929  0.0055
    1DIPC   C1B 8133  29.229  22.695   5.367  0.1125  0.1038  0.4290
    1DIPC   D2B 8134  29.221  22.482   5.026  0.1825  0.2331  0.2351
    1DIPC   D3B 8135  29.285  22.022   5.095  0.1970  0.3002  0.5400
    1DIPC   C4B 8136  28.982  21.695   4.933 -0.1301  0.1299 -0.2834
    1DIPC   NC3 8137  20.614   2.448   6.525 -0.0788 -0.1159  0.4724
    1DIPC   PO4 8138  20.639   2.057   6.535 -0.2569 -0.0817  0.0351
    1DIPC   GL1 8139  20.793   1.896   6.162 -0.0848  0.1627 -0.1307
    1DIPC   GL2 8140  20.599   2.090   5.919  0.2019  0.2119 -0.1112
    1DIPC   C1A 8141  20.852   1.637   5.821 -0.1517 -0.5452 -0.0170
    1DIPC   D2A 8142  20.694   1.453   5.477  0.0549  0.0601  0.1623
    1DIPC   D3A 8143  20.518   1.408   5.090  0.0643 -0.0572 -0.1994
    1DIPC   C4A 8144  20.515   1.670   4.840 -0.1825  0.1854 -0.0585
    1DIPC   C1B 8145  20.482   2.458   5.581 -0.2252  0.2127 -0.1375
    1DIPC   D2B 8146  20.398   2.505   5.172 -0.0428 -0.1405 -0.2356
    1DIPC   D3B 8147  20.606   2.895   5.223  0.4401 -0.0404 -0.3538
    1DIPC   C4B 8148  20.475   3.169   4.909  0.1687 -0.3517  0.2542
    1DIPC   NC3 8149   2.852  17.535   6.322  0.0820 -0.0514 -0.1073
    1DIPC   PO4 8150   2.483  17.403   6.592 -0.1869 -0.1608  0.0019
    1DIPC   GL1 8151   2.404  17.466   6.177 -0.2549  0.0885  0.0809
    1DIPC   GL2 8152   2.471  17.148   5.998  0.0339 -0.1168  0.1910
    1DIPC   C1A 8153   2.136  17.514   5.897 -0.1331  0.1354 -0.0934
    1DIPC   D2A 8154   2.206  17.383   5.387  0.0851 -0.0813  0.1747
    1DIPC   D3A 8155   1.881  17.293   5.176  0.0948  0.0825 -0.3928
    1DIPC   C4A 8156   1.625  17.418   4.779 -0.1591  0.1905  0.1815
    1DIPC   C1B 8157   2.188  16.977   5.761  0.1613 -0.0876 -0.0080
    1DIPC   D2B 8158   2.102  16.627   5.500  0.3917 -0.0530  0.0963
    1DIPC   D3B 8159   2.199  16.257   5.320 -0.1352  0.0731 -0.3862
    1DIPC   C4B 8160   2.366  16.049   4.932  0.0537 -0.2695 -0.0698
    1DIPC   NC3 8161  27.393   7.153   6.439 -0.0907  0.1599 -0.1924
    1DIPC   PO4 8162  27.674   6.829   6.329 -0.0901  0.1812 -0.0438
    1DIPC   GL1 8163  27.461   6.914   5.928 -0.0589  0.2235  0.1591
    1DIPC   GL2 8164  27.199   6.793   5.794  0.2425 -0.0465  0.0693
    1DIPC   C1A 8165  27.691   7.243   5.724 -0.1777 -0.1192 -0.2790
    1DIPC   D2A 8166  27.993   7.447   5.458  0.3737  0.3389  0.3329
    1DIPC   D3A 8167  27.578   7.470   5.202 -0.0833 -0.4582  0.3320
    1DIPC   C4A 8168  27.230   7.400   5.423 -0.0583 -0.0960 -0.3455
    1DIPC   C1B 8169  27.123   6.801   5.343  0.2542  0.1129  0.2042
    1DIPC   D2B 8170  27.072   6.430   5.060  0.1914 -0.3115 -0.0787
    1DIPC   D3B 8171  26.982   6.161   4.731 -0.0160  0.0354  0.1900
    1DIPC   C4B 8172  26.892   5.808   4.796 -0.0829  0.6044  0.3306
    1DIPC   NC3 8173  20.373  23.721   6.866  0.0953  0.2732  0.0153
    1DIPC   PO4 8174  20.776  23.414   6.833 -0.0327 -0.1801  0.0767
    1DIPC   GL1 8175  20.756  23.484   6.534  0.0538 -0.1836  0.2711
    1DIPC   GL2 8176  20.898  23.685   6.421 -0.2522 -0.1575 -0.1908
    1DIPC   C1A 8177  20.502  23.589   6.162 -0.1269 -0.1337 -0.0750
    1DIPC   D2A 8178  20.130  23.498   6.245  0.0904 -0.0847 -0.1691
    1DIPC   D3A 8179  19.939  23.182   6.235  0.1435  0.1283  0.1395
    1DIPC   C4A 8180  19.650  23.115   5.800 -0.1582  0.2253 -0.1425
    1DIPC   C1B 8181  21.139  23.742   6.007 -0.3294 -0.0753  0.0597
    1DIPC   D2B 8182  21.136  23.640   5.423  0.2244 -0.1124 -0.0793
    1DIPC   D3B 8183  21.129  23.495   4.992 -0.1393 -0.5767 -0.0198
    1DIPC   C4B 8184  21.441  23.150   4.820 -0.0015  0.1234  0.2624
    1DIPC   NC3 8185  25.129  22.601   6.620  0.2146 -0.1783  0.0562
    1DIPC   PO4 8186  24.696  22.499   6.733 -0.0552  0.0735 -0.0142
    1DIPC   GL1 8187  24.768  22.570   6.273 -0.2861  0.2283  0.1992
    1DIPC   GL2 8188  24.811  22.908   6.145  0.0388  0.0397 -0.0150
    1DIPC   C1A 8189  24.761  22.381   6.000  0.1201  0.0626  0.0394
    1DIPC   D2A 8190  24.658  22.152   5.628  0.1879  0.1784 -0.2937
    1DIPC   D3A 8191  24.712  22.535   5.476  0.2694 -0.2434 -0.1724
    1DIPC   C4A 8192  24.354  22.567   5.276 -0.1139 -0.1314 -0.0730
    1DIPC   C1B 8193  24.741  22.982   5.754  0.0335  0.2827 -0.0636
    1DIPC   D2B 8194  24.550  23.088   5.304  0.0345  0.3957  0.1880
    1DIPC   D3B 8195  24.929  22.935   5.229 -0.0905  0.0764  0.4527
    1DIPC   C4B 8196  25.000  22.687   4.793  0.4131  0.0187 -0.3246
    1DIPC   NC3 8197   1.983  27.775   6.624  0.3042  0.3855 -0.0993
    1DIPC   PO4 8198   1.728  27.699   6.284 -0.2291  0.0489  0.1254
    1DIPC   GL1 8199   1.817  27.726   5.811 -0.2738  0.2590  0.2583
    1DIPC   GL2 8200   1.578  27.561   5.701 -0.0058 -0.0321 -0.0678
    1DIPC   C1A 8201   2.057  27.885   5.454 -0.1193  0.0599 -0.2625
    1DIPC   D2A 8202   2.094  27.951   5.053  0.0407 -0.0505 -0.2245
    1DIPC   D3A 8203   2.018  27.653   4.738 -0.3393 -0.0728 -0.0290
    1DIPC   C4A 8204   1.634  27.528   4.909  0.2533  0.0059  0.0698
    1DIPC   C1B 8205   1.499  27.773   5.374  0.0596  0.0775  0.2073
    1DIPC   D2B 8206   1.483  28.162   5.221  0.1685  0.1388  0.2359
    1DIPC   D3B 8207   1.794  28.323   4.855 -0.1280  0.0567  0.3613
    1DIPC   C4B 8208   1.690  28.731   4.795 -0.1951 -0.1588 -0.0641
    1DIPC   NC3 8209  22.870   9.595   6.796 -0.2301  0.0137  0.0472
    1DIPC   PO4 8210  23.194   9.974   6.731  0.2170  0.1766 -0.2209
    1DIPC   GL1 8211  23.084   9.842   6.295 -0.0885 -0.1786 -0.1259
    1DIPC   GL2 8212  23.267   9.749   6.104  0.1792  0.0703  0.2829
    1DIPC   C1A 8213  22.825   9.855   5.944 -0.0977  0.1272 -0.1998
    1DIPC   D2A 8214  22.652   9.795   5.437  0.0758  0.0957  0.3987
    1DIPC   D3A 8215  23.014   9.830   5.107  0.2806  0.0131 -0.2306
    1DIPC   C4A 8216  23.476   9.927   5.309  0.0516 -0.0200 -0.0222
    1DIPC   C1B 8217  23.366  10.056   5.731  0.2532 -0.0256 -0.4621
    1DIPC   D2B 8218  23.084  10.223   5.410  0.0492 -0.3095  0.3404
    1DIPC   D3B 8219  23.197  10.294   4.969  0.1547 -0.1784  0.0934
    1DIPC   C4B 8220  23.532  10.228   4.801  0.2248 -0.0506 -0.3965
    1DIPC   NC3 8221  12.789  22.748   6.379  0.1237 -0.3011 -0.0089
    1DIPC   PO4 8222  12.713  22.349   6.302 -0.1987 -0.0930 -0.0059
    1DIPC   GL1 8223  12.856  22.023   5.929 -0.1999  0.0459 -0.1126
    1DIPC   GL2 8224  13.164  21.822   5.890  0.0876 -0.0647 -0.0022
    1DIPC   C1A 8225  13.026  22.202   5.493 -0.1046  0.1248 -0.1163
    1DIPC   D2A 8226  12.926  22.247   5.000  0.1071  0.0061 -0.1761
    1DIPC   D3A 8227  13.280  22.001   5.093  0.2719  0.0467  0.0058
    1DIPC   C4A 8228  13.234  21.686   5.449 -0.1325  0.1068  0.2884
    1DIPC   C1B 8229  13.504  22.077   5.625 -0.0498 -0.2995 -0.2927
    1DIPC   D2B 8230  13.856  22.234   5.436  0.0489  0.1902  0.0723
    1DIPC   D3B 8231  14.113  22.429   5.088  0.0097  0.1630  0.2162
    1DIPC   C4B 8232  14.099  22.667   4.656  0.2614  0.0451  0.1337
    1DIPC   NC3 8233  27.864  18.387   7.044  0.0596 -0.0594 -0.2499
    1DIPC   PO4 8234  28.090  18.552   6.624  0.0798  0.3386 -0.1399
    1DIPC   GL1 8235  28.115  18.643   6.190 -0.2493  0.1667 -0.1570
    1DIPC   GL2 8236  28.208  18.925   6.091 -0.0241  0.1099 -0.3023
    1DIPC   C1A 8237  28.085  18.533   5.696 -0.3776  0.0189  0.0413
    1DIPC   D2A 8238  28.196  18.550   5.220 -0.0589  0.0357  0.1408
    1DIPC   D3A 8239  28.111  18.407   4.801 -0.0312 -0.2731  0.1652
    1DIPC   C4A 8240  28.290  18.473   4.396  0.1355 -0.0716  0.1577
    1DIPC   C1B 8241  28.119  19.065   5.655  0.2723  0.2420 -0.1482
    1DIPC   D2B 8242  28.111  19.112   5.216  0.2644 -0.2662  0.0199
    1DIPC   D3B 8243  28.333  19.460   4.841 -0.2451 -0.1574  0.2725
    1DIPC   C4B 8244  28.446  19.927   4.766  0.0557 -0.0013 -0.2755
    1DIPC   NC3 8245   1.764  10.417   6.616 -0.0247 -0.1591 -0.1127
    1DIPC   PO4 8246   1.728  10.090   6.350  0.2783 -0.2159 -0.0252
    1DIPC   GL1 8247   1.616  10.052   5.830 -0.0230  0.0243  0.1604
    1DIPC   GL2 8248   1.426  10.005   5.623 -0.2355 -0.1311 -0.1293
    1DIPC   C1A 8249   1.935   9.737   5.510  0.1423  0.4286 -0.0295
    1DIPC   D2A 8250   2.190   9.342   5.409  0.0705  0.1498 -0.4873
    1DIPC   D3A 8251   2.152   8.980   5.094  0.0175 -0.2661  0.1464
    1DIPC   C4A 8252   1.899   8.936   4.808 -0.1870  0.1071  0.4173
    1DIPC   C1B 8253   1.702  10.204   5.361  0.0203 -0.1250  0.1464
    1DIPC   D2B 8254   1.634  10.490   5.076  0.1784 -0.2067 -0.3492
    1DIPC   D3B 8255   2.039  10.531   4.947  0.1231  0.2270  0.0331
    1DIPC   C4B 8256   2.214  10.285   5.261 -0.4844 -0.0512  0.5284
    1DIPC   NC3 8257   4.209  15.604   6.808  0.0009  0.0007 -0.1210
    1DIPC   PO4 8258   4.016  15.696   6.321  0.0787 -0.1644 -0.3906
    1DIPC   GL1 8259   4.048  15.729   5.910 -0.1069 -0.2656 -0.2452
    1DIPC   GL2 8260   4.284  15.868   5.605 -0.0178 -0.0709  0.0215
    1DIPC   C1A 8261   3.854  15.583   5.462 -0.1096 -0.2070  0.2085
    1DIPC   D2A 8262   3.865  15.723   4.980  0.0888 -0.1310  0.0042
    1DIPC   D3A 8263   3.671  15.644   4.571  0.2499 -0.2138 -0.0043
    1DIPC   C4A 8264   3.756  15.835   4.204  0.1058 -0.1849 -0.2237
    1DIPC   C1B 8265   4.165  16.086   5.226  0.1633 -0.1836  0.1835
    1DIPC   D2B 8266   4.239  16.357   4.826  0.2666 -0.0773 -0.1387
    1DIPC   D3B 8267   4.044  16.024   4.543  0.0724 -0.0858  0.0333
    1DIPC   C4B 8268   4.202  15.604   4.489  0.1428  0.2658  0.0673
    1DIPC   NC3 8269   9.480   6.212   6.747  0.0629 -0.0443  0.0591
    1DIPC   PO4 8270   9.381   6.559   6.882 -0.3706  0.0575  0.0449
    1DIPC   GL1 8271   9.422   6.698   6.494 -0.0160  0.1573 -0.0796
    1DIPC   GL2 8272   9.297   7.019   6.295 -0.0235  0.0660 -0.0175
    1DIPC   C1A 8273   9.669   6.536   6.097 -0.0292  0.3008  0.2523
    1DIPC   D2A 8274   9.966   6.815   5.903 -0.0622  0.1023  0.1853
    1DIPC   D3A 8275  10.243   6.388   6.020  0.0630  0.0699  0.1307
    1DIPC   C4A 8276  10.530   6.245   5.839  0.0377 -0.2238 -0.2153
    1DIPC   C1B 8277   9.311   6.858   5.912 -0.0967 -0.0259  0.0718
    1DIPC   D2B 8278   9.613   6.573   5.598  0.0723 -0.5882 -0.0513
    1DIPC   D3B 8279   9.716   6.916   5.363  0.2905  0.0847  0.2056
    1DIPC   C4B 8280   9.327   7.126   5.497  0.1374  0.2457  0.1201
    1DIPC   NC3 8281  28.752  28.467   7.144 -0.0837 -0.4239  0.1736
    1DIPC   PO4 8282  28.466  28.519   6.732 -0.1073 -0.0337 -0.5201
    1DIPC   GL1 8283  28.535  28.510   6.222 -0.0177  0.0167 -0.0010
    1DIPC   GL2 8284  28.351  28.801   6.009  0.1285  0.1483  0.1181
    1DIPC   C1A 8285  28.809  28.360   5.852 -0.2176 -0.0812  0.2956
    1DIPC   D2A 8286  29.072  28.047   5.697  0.0545 -0.0769  0.1867
    1DIPC   D3A 8287  29.074  28.039   6.171  0.2618 -0.3838  0.3593
    1DIPC   C4A 8288  28.652  27.875   6.135 -0.1123 -0.2418 -0.0814
    1DIPC   C1B 8289  28.487  28.639   5.622  0.1979  0.0280  0.2463
    1DIPC   D2B 8290  28.221  28.592   5.274  0.4435  0.1357 -0.0731
    1DIPC   D3B 8291  28.150  28.327   4.967  0.3257 -0.3150  0.1992
    1DIPC   C4B 8292  27.964  27.959   4.876 -0.0343  0.0212  0.1301
    1DIPC   NC3 8293  16.737  27.908   7.417  0.0044 -0.4054  0.3348
    1DIPC   PO4 8294  16.756  28.198   7.053  0.0019 -0.0592  0.2645
    1DIPC   GL1 8295  16.710  28.148   6.630 -0.1005 -0.2779 -0.1685
    1DIPC   GL2 8296  16.962  28.162   6.430 -0.0068 -0.1254 -0.1642
    1DIPC   C1A 8297  16.491  27.804   6.481 -0.1940  0.2003  0.2549
    1DIPC   D2A 8298  16.316  27.649   6.164  0.0898  0.2254 -0.1889
    1DIPC   D3A 8299  16.245  27.901   5.794 -0.3393 -0.0360  0.2564
    1DIPC   C4A 8300  15.971  28.155   5.715 -0.0641  0.0674  0.0493
    1DIPC   C1B 8301  16.698  28.070   6.056  0.0955 -0.0490  0.0762
    1DIPC   D2B 8302  16.744  27.960   5.656  0.0411  0.2208  0.0760
    1DIPC   D3B 8303  16.795  27.588   5.942 -0.0110  0.0763  0.0393
    1DIPC   C4B 8304  17.071  27.399   5.907 -0.2961  0.1002  0.2077
    1DIPC   NC3 8305  27.189  27.476   6.472  0.2571  0.2570  0.3674
    1DIPC   PO4 8306  27.445  27.216   6.256 -0.0570 -0.2076  0.0445
    1DIPC   GL1 8307  27.398  27.050   5.815 -0.2583 -0.1488 -0.1020
    1DIPC   GL2 8308  27.311  26.796   5.830  0.3783  0.1008  0.0339
    1DIPC   C1A 8309  27.326  27.051   5.335  0.0949 -0.1848  0.1843
    1DIPC   D2A 8310  27.253  26.755   4.930  0.0391  0.0263  0.0542
    1DIPC   D3A 8311  26.986  27.000   4.723  0.0904  0.0114 -0.1682
    1DIPC   C4A 8312  26.533  27.043   4.701  0.0564  0.3232 -0.3878
    1DIPC   C1B 8313  27.285  26.517   5.470  0.0794  0.2822 -0.1393
    1DIPC   D2B 8314  27.057  26.057   5.385  0.0961 -0.1127 -0.1293
    1DIPC   D3B 8315  27.100  26.243   4.947 -0.2274 -0.3267  0.3481
    1DIPC   C4B 8316  27.521  26.299   4.869  0.3096  0.1624 -0.1275
    1DIPC   NC3 8317  20.791  25.106   7.271  0.2248 -0.2751 -0.0684
    1DIPC   PO4 8318  20.949  24.980   6.850 -0.2263  0.0771 -0.1123
    1DIPC   GL1 8319  20.831  25.053   6.410 -0.3477  0.0506  0.0773
    1DIPC   GL2 8320  20.800  24.778   6.136  0.0834  0.0504 -0.0836
    1DIPC   C1A 8321  20.714  25.307   6.119  0.0304 -0.2539 -0.1376
    1DIPC   D2A 8322  20.884  25.763   6.028  0.0222  0.1314  0.2913
    1DIPC   D3A 8323  20.867  25.965   5.598  0.0793 -0.2612  0.0400
    1DIPC   C4A 8324  20.895  25.839   5.135 -0.0172  0.0319 -0.0218
    1DIPC   C1B 8325  20.549  24.552   5.799 -0.1187  0.1905 -0.0033
    1DIPC   D2B 8326  20.498  24.275   5.438  0.1919  0.1463  0.0009
    1DIPC   D3B 8327  20.681  24.613   5.199 -0.1111  0.0693  0.0841
    1DIPC   C4B 8328  21.222  24.661   5.202  0.0236  0.2108  0.3522
    1DIPC   NC3 8329   7.013   1.849   7.006  0.1302  0.0696 -0.0828
    1DIPC   PO4 8330   7.350   1.560   7.090 -0.1471  0.0535  0.2275
    1DIPC   GL1 8331   7.406   1.588   6.621 -0.0839  0.0955  0.0155
    1DIPC   GL2 8332   7.676   1.580   6.406 -0.0693  0.0564  0.2579
    1DIPC   C1A 8333   7.208   1.799   6.309 -0.0077 -0.3850  0.4365
    1DIPC   D2A 8334   7.004   2.079   5.911  0.3704  0.1121  0.1709
    1DIPC   D3A 8335   7.371   2.166   5.673  0.2221  0.3626 -0.1198
    1DIPC   C4A 8336   7.321   2.628   5.522  0.4071  0.0464 -0.3089
    1DIPC   C1B 8337   7.745   1.840   6.006  0.1281 -0.1236  0.0433
    1DIPC   D2B 8338   7.798   1.901   5.605  0.0398 -0.0472  0.2506
    1DIPC   D3B 8339   7.834   1.959   5.128 -0.4437  0.0898 -0.1109
    1DIPC   C4B 8340   7.754   1.630   4.882  0.2558  0.0345 -0.1714
    1DIPC   NC3 8341   0.763  20.450   6.068 -0.0294 -0.2070 -0.3431
    1DIPC   PO4 8342   1.164  20.277   5.947  0.0365  0.3672 -0.1593
    1DIPC   GL1 8343   1.419  20.315   5.654 -0.2285  0.2804  0.2437
    1DIPC   GL2 8344   1.630  20.582   5.629  0.4660  0.0606  0.0858
    1DIPC   C1A 8345   1.260  20.531   5.262  0.0132 -0.1759 -0.0457
    1DIPC   D2A 8346   1.079  20.322   4.873  0.2356 -0.0116 -0.3597
    1DIPC   D3A 8347   1.004  19.878   4.905  0.1363  0.2776 -0.0476
    1DIPC   C4A 8348   0.837  19.616   4.618  0.0905  0.0079  0.2273
    1DIPC   C1B 8349   1.690  20.331   5.211 -0.4820  0.0120  0.0950
    1DIPC   D2B 8350   1.893  20.018   5.006 -0.1004  0.0893 -0.0554
    1DIPC   D3B 8351   1.769  19.881   4.582  0.1113 -0.0599 -0.0866
    1DIPC   C4B 8352   1.994  19.931   4.235  0.3292  0.0189  0.0335
    1DIPC   NC3 8353  27.722   1.532   6.480 -0.0599  0.3090  0.0165
    1DIPC   PO4 8354  28.023   1.791   6.359  0.2662  0.0460 -0.0662
    1DIPC   GL1 8355  28.003   1.582   6.034  0.2964  0.0608 -0.3703
    1DIPC   GL2 8356  27.989   1.706   5.700  0.0765 -0.0573  0.0922
    1DIPC   C1A 8357  28.222   1.300   5.727 -0.1485  0.1918 -0.1180
    1DIPC   D2A 8358  28.295   1.338   5.292  0.2345 -0.2318  0.0842
    1DIPC   D3A 8359  28.116   1.135   4.904  0.4262  0.2412  0.2582
    1DIPC   C4A 8360  28.220   1.398   4.608 -0.2290 -0.1967  0.0274
    1DIPC   C1B 8361  27.873   1.551   5.320 -0.0943 -0.2629 -0.0016
    1DIPC   D2B 8362  27.620   1.337   4.974  0.1773 -0.0590  0.1982
    1DIPC   D3B 8363  27.865   1.748   4.838  0.1111 -0.0642 -0.2495
    1DIPC   C4B 8364  28.268   1.924   4.712 -0.0042  0.0391 -0.0753
    1DIPC   NC3 8365   3.621   5.070   6.702  0.1505  0.0158  0.2340
    1DIPC   PO4 8366   3.308   5.193   6.427  0.0549 -0.0699 -0.1852
    1DIPC   GL1 8367   3.679   5.150   6.116  0.1655 -0.0773 -0.1831
    1DIPC   GL2 8368   3.972   4.957   6.340  0.0368 -0.0609  0.0654
    1DIPC   C1A 8369   3.737   5.147   5.621 -0.3076  0.1236 -0.2103
    1DIPC   D2A 8370   4.002   4.862   5.495  0.0081  0.0782 -0.2169
    1DIPC   D3A 8371   4.147   4.829   5.010  0.1712  0.2290  0.0084
    1DIPC   C4A 8372   4.399   4.596   4.804  0.0137  0.0361 -0.0027
    1DIPC   C1B 8373   4.101   4.857   5.958 -0.2251  0.0116  0.2176
    1DIPC   D2B 8374   4.351   4.519   5.914  0.2714  0.1547 -0.0124
    1DIPC   D3B 8375   4.348   4.192   5.505 -0.1018  0.0529 -0.0358
    1DIPC   C4B 8376   4.156   4.293   5.228  0.2344  0.2526 -0.1827
    1DIPC   NC3 8377   6.986  13.523   6.520  0.2069  0.4844  0.4918
    1DIPC   PO4 8378   6.986  14.010   6.415  0.0637  0.1456  0.0165
    1DIPC   GL1 8379   7.001  14.098   6.002 -0.4555 -0.0811  0.1293
    1DIPC   GL2 8380   7.090  14.378   5.886 -0.0110  0.1117 -0.0394
    1DIPC   C1A 8381   6.895  14.013   5.592 -0.0752 -0.0066 -0.3813
    1DIPC   D2A 8382   7.003  14.066   5.201  0.3022  0.0323 -0.0681
    1DIPC   D3A 8383   6.597  14.170   4.892  0.2337  0.0334  0.0862
    1DIPC   C4A 8384   6.583  14.142   4.478  0.2230  0.4394  0.4392
    1DIPC   C1B 8385   7.076  14.601   5.503 -0.1704  0.0595  0.0254
    1DIPC   D2B 8386   6.947  14.607   5.038 -0.1188  0.0559 -0.0728
    1DIPC   D3B 8387   7.117  14.215   4.754  0.1069 -0.0169 -0.0836
    1DIPC   C4B 8388   7.107  13.743   4.692 -0.0313  0.3883 -0.3237
    1DIPC   NC3 8389   0.419  26.393   5.704  0.2127 -0.1680  0.0029
    1DIPC   PO4 8390   0.242  26.191   6.001 -0.0693 -0.1537 -0.2479
    1DIPC   GL1 8391  -0.018  26.204   5.589 -0.0106 -0.0073  0.2377
    1DIPC   GL2 8392   0.195  26.130   5.324 -0.1162 -0.1970  0.1113
    1DIPC   C1A 8393  -0.007  26.580   5.303  0.1152  0.1778  0.0703
    1DIPC   D2A 8394  -0.280  26.866   5.125 -0.3945  0.1538 -0.4428
    1DIPC   D3A 8395  -0.687  26.888   5.277 -0.1879  0.0973  0.0630
    1DIPC   C4A 8396  -0.751  26.444   5.107 -0.1210 -0.1254 -0.0426
    1DIPC   C1B 8397   0.264  26.390   4.886 -0.2000 -0.1467 -0.1375
    1DIPC   D2B 8398   0.166  26.772   4.872 -0.1879 -0.1867  0.3270
    1DIPC   D3B 8399  -0.258  26.759   4.576 -0.0031 -0.3112  0.1861
    1DIPC   C4B 8400  -0.551  26.717   4.792  0.1585 -0.3678  0.1175
    1DIPC   NC3 8401  11.976  22.659   6.037  0.0615  0.0378 -0.0421
    1DIPC   PO4 8402  12.294  22.398   5.999 -0.0935  0.2033 -0.0485
    1DIPC   GL1 8403  12.159  22.595   5.597  0.2386  0.1427 -0.0366
    1DIPC   GL2 8404  12.369  22.886   5.607  0.2705  0.0046 -0.0779
    1DIPC   C1A 8405  11.968  22.704   5.188 -0.3072 -0.0157 -0.1655
    1DIPC   D2A 8406  11.927  22.563   4.748  0.0252 -0.1269  0.0199
    1DIPC   D3A 8407  12.191  22.697   4.395 -0.1758  0.1257 -0.0588
    1DIPC   C4A 8408  12.002  22.589   4.052  0.1159 -0.0585  0.0173
    1DIPC   C1B 8409  12.416  22.850   5.140  0.2415 -0.0734 -0.0605
    1DIPC   D2B 8410  12.341  22.920   4.822  0.0583  0.1186  0.0950
    1DIPC   D3B 8411  12.540  23.021   4.531  0.0769 -0.0824  0.0004
    1DIPC   C4B 8412  12.546  23.470   4.359 -0.2292  0.2753  0.0090
    1DIPC   NC3 8413  25.142  25.541   6.663 -0.0399  0.2795 -0.0690
    1DIPC   PO4 8414  25.178  25.027   6.456  0.3863  0.0926  0.1076
    1DIPC   GL1 8415  25.263  25.182   6.077  0.0433  0.2532  0.0740
    1DIPC   GL2 8416  25.214  25.487   6.161  0.0685 -0.0265 -0.1608
    1DIPC   C1A 8417  25.404  25.334   5.649  0.3246  0.0536 -0.2684
    1DIPC   D2A 8418  25.209  25.338   5.199  0.1279 -0.2110  0.1066
    1DIPC   D3A 8419  25.323  25.049   4.931  0.2015 -0.1555 -0.0803
    1DIPC   C4A 8420  25.080  24.719   4.773  0.0741  0.2313 -0.1166
    1DIPC   C1B 8421  24.932  25.634   5.823  0.2470  0.0322  0.0853
    1DIPC   D2B 8422  24.836  25.974   5.618  0.0986 -0.2083 -0.0947
    1DIPC   D3B 8423  24.947  25.724   5.278 -0.1468  0.3213 -0.3340
    1DIPC   C4B 8424  24.643  25.474   5.069  0.2247  0.1130  0.4912
    1DIPC   NC3 8425  18.865  29.541   6.784 -0.3946 -0.2267 -0.2511
    1DIPC   PO4 8426  18.733  29.144   6.713  0.1048  0.2218  0.0591
    1DIPC   GL1 8427  18.799  29.043   6.266 -0.4384 -0.0411 -0.1879
    1DIPC   GL2 8428  18.619  29.262   5.915  0.0919  0.2162 -0.0812
    1DIPC   C1A 8429  18.778  28.638   5.989 -0.1497 -0.2351  0.0153
    1DIPC   D2A 8430  18.854  28.131   5.931 -0.2596  0.2074 -0.0072
    1DIPC   D3A 8431  18.700  28.301   5.595 -0.1019  0.0443 -0.0994
    1DIPC   C4A 8432  18.749  28.093   5.250  0.1094  0.0723 -0.0161
    1DIPC   C1B 8433  19.060  29.326   5.910 -0.2549 -0.4012  0.1353
    1DIPC   D2B 8434  19.368  29.291   5.530  0.2743  0.1855 -0.0856
    1DIPC   D3B 8435  19.260  28.944   5.159 -0.0284  0.0582  0.1129
    1DIPC   C4B 8436  19.120  29.136   4.856 -0.1631  0.2488  0.0746
    1DIPC   NC3 8437  13.691  10.022   6.997  0.0314 -0.1257  0.0711
    1DIPC   PO4 8438  13.537   9.578   7.078 -0.2524  0.3768  0.2136
    1DIPC   GL1 8439  13.329   9.833   6.766  0.0759 -0.0696 -0.1160
    1DIPC   GL2 8440  13.070  10.077   6.696 -0.0866  0.3955 -0.0340
    1DIPC   C1A 8441  13.317   9.905   6.305 -0.2224 -0.0744 -0.1034
    1DIPC   D2A 8442  13.196   9.857   5.896 -0.1185  0.2338  0.0437
    1DIPC   D3A 8443  12.954   9.480   5.728 -0.0944  0.1421  0.0934
    1DIPC   C4A 8444  13.142   9.217   5.324  0.1173  0.0069  0.0228
    1DIPC   C1B 8445  12.867  10.188   6.338  0.0593 -0.2645 -0.1531
    1DIPC   D2B 8446  12.772  10.186   6.001  0.3340  0.0806  0.2203
    1DIPC   D3B 8447  12.798  10.331   5.620  0.1642 -0.6126 -0.3018
    1DIPC   C4B 8448  13.170  10.201   5.465  0.1463 -0.1417 -0.1664
    1DIPC   NC3 8449  21.658   3.863   6.569 -0.0651 -0.1297 -0.0683
    1DIPC   PO4 8450  21.856   4.318   6.567 -0.1234 -0.1737  0.3677
    1DIPC   GL1 8451  21.850   4.575   6.208  0.2445 -0.0029  0.1531
    1DIPC   GL2 8452  22.140   4.728   6.275 -0.1235  0.2345  0.0058
    1DIPC   C1A 8453  21.841   4.408   5.745 -0.0549 -0.0888  0.2977
    1DIPC   D2A 8454  22.093   4.135   5.495  0.0319 -0.4055 -0.1326
    1DIPC   D3A 8455  22.029   4.488   5.279  0.3580  0.0673  0.3537
    1DIPC   C4A 8456  22.007   4.566   4.882  0.2739  0.2046 -0.0352
    1DIPC   C1B 8457  22.307   4.398   5.929 -0.1495 -0.4213 -0.1084
    1DIPC   D2B 8458  22.529   4.291   5.656 -0.3919 -0.0322  0.1143
    1DIPC   D3B 8459  22.573   4.346   5.250  0.4819 -0.1997  0.1791
    1DIPC   C4B 8460  22.197   4.153   4.927 -0.2436  0.1305 -0.1889
    1DIPC   NC3 8461  25.044  20.619   6.555 -0.0544 -0.3981  0.0744
    1DIPC   PO4 8462  24.730  20.336   6.615 -0.1220 -0.0390 -0.1842
    1DIPC   GL1 8463  24.617  20.488   6.240  0.1589 -0.0219  0.1900
    1DIPC   GL2 8464  24.805  20.748   6.081 -0.1297  0.0447 -0.0533
    1DIPC   C1A 8465  24.668  20.320   5.794  0.1389 -0.1933 -0.1293
    1DIPC   D2A 8466  24.578  20.376   5.498  0.1981 -0.0191  0.0246
    1DIPC   D3A 8467  24.785  20.566   5.127 -0.1130  0.4481  0.0835
    1DIPC   C4A 8468  25.045  20.307   4.919  0.3413 -0.2278  0.2506
    1DIPC   C1B 8469  24.443  20.779   5.794 -0.2410  0.0940  0.0554
    1DIPC   D2B 8470  23.995  20.685   5.679  0.1037  0.3245 -0.0140
    1DIPC   D3B 8471  23.894  20.733   5.262 -0.1565 -0.0901  0.1227
    1DIPC   C4B 8472  24.327  20.938   5.025  0.1181 -0.1507  0.0759
    1DIPC   NC3 8473  26.796  21.350   6.726  0.0925  0.1867  0.2444
    1DIPC   PO4 8474  26.749  20.880   6.747 -0.3623 -0.1140 -0.1817
    1DIPC   GL1 8475  26.660  20.981   6.267 -0.2714  0.3969  0.2032
    1DIPC   GL2 8476  26.831  21.158   6.146  0.1645 -0.1142  0.5580
    1DIPC   C1A 8477  26.612  20.673   5.877 -0.0165 -0.1986 -0.1707
    1DIPC   D2A 8478  26.447  20.726   5.509  0.1727 -0.3829  0.0140
    1DIPC   D3A 8479  26.571  21.112   5.208  0.1820  0.2225  0.0358
    1DIPC   C4A 8480  26.403  21.402   5.004  0.1431  0.0571  0.2285
    1DIPC   C1B 8481  26.755  21.554   6.040  0.0768  0.2458 -0.0201
    1DIPC   D2B 8482  27.026  21.766   5.914  0.0558  0.0256 -0.2652
    1DIPC   D3B 8483  26.664  21.862   5.636 -0.2543 -0.1328 -0.0668
    1DIPC   C4B 8484  26.356  22.095   5.542  0.1672  0.1475  0.0828
    1DIPC   NC3 8485  19.906  24.336   7.025 -0.2848  0.1047 -0.2514
    1DIPC   PO4 8486  19.961  23.918   6.995  0.2534  0.0550  0.1224
    1DIPC   GL1 8487  19.975  23.920   6.551  0.0415 -0.2114 -0.1339
    1DIPC   GL2 8488  19.868  24.292   6.510  0.0666 -0.0418  0.3075
    1DIPC   C1A 8489  19.990  24.052   6.091 -0.0405 -0.1533 -0.1637
    1DIPC   D2A 8490  20.103  24.226   5.712 -0.2283 -0.2484 -0.1411
    1DIPC   D3A 8491  20.309  23.823   5.787  0.0693  0.4552  0.2458
    1DIPC   C4A 8492  20.725  23.906   5.763  0.3813 -0.3769  0.0667
    1DIPC   C1B 8493  19.479  24.478   6.425  0.2937 -0.1007 -0.0033
    1DIPC   D2B 8494  19.170  24.581   6.127  0.0441  0.0235  0.1489
    1DIPC   D3B 8495  19.048  24.405   5.800 -0.0490  0.3747 -0.0952
    1DIPC   C4B 8496  18.762  24.009   5.687 -0.2452  0.0753 -0.1474
    1DIPC   NC3 8497   8.871   6.706   6.467  0.0152 -0.0037  0.0438
    1DIPC   PO4 8498   9.036   6.308   6.562 -0.3383 -0.1126  0.1909
    1DIPC   GL1 8499   9.213   6.408   6.174 -0.0573 -0.0871 -0.0946
    1DIPC   GL2 8500   8.929   6.525   6.025 -0.0655  0.0996 -0.0102
    1DIPC   C1A 8501   9.514   6.122   5.957  0.1342 -0.3394  0.3930
    1DIPC   D2A 8502   9.728   5.808   5.858 -0.1355 -0.5878  0.1764
    1DIPC   D3A 8503   9.923   6.221   5.640  0.0653 -0.3583 -0.2126
    1DIPC   C4A 8504  10.316   6.300   5.344  0.0362 -0.1072 -0.1502
    1DIPC   C1B 8505   9.107   6.436   5.624 -0.0378 -0.2959  0.1368
    1DIPC   D2B 8506   9.180   6.327   5.199  0.1622 -0.0821 -0.1179
    1DIPC   D3B 8507   9.325   5.988   5.479  0.0958 -0.1517  0.2780
    1DIPC   C4B 8508   9.062   5.757   5.784 -0.2520 -0.1495  0.4326
    1DIPC   NC3 8509   0.620  25.368   5.856  0.0563  0.0422  0.0780
    1DIPC   PO4 8510   0.416  25.011   5.798  0.0525 -0.0158  0.1025
    1DIPC   GL1 8511   0.356  25.256   5.391 -0.0020  0.0286  0.1579
    1DIPC   GL2 8512   0.483  25.451   5.343  0.0748  0.0239  0.2847
    1DIPC   C1A 8513   0.084  25.257   5.041 -0.2539 -0.0181  0.1075
    1DIPC   D2A 8514   0.019  24.833   4.862  0.0441 -0.1057  0.0429
    1DIPC   D3A 8515   0.306  25.042   4.665  0.0860 -0.0273 -0.0784
    1DIPC   C4A 8516   0.651  24.818   4.427  0.1240 -0.0227 -0.2128
    1DIPC   C1B 8517   0.592  25.855   5.347 -0.0923  0.0553 -0.3034
    1DIPC   D2B 8518   0.703  26.139   5.077 -0.1955  0.2003 -0.2155
    1DIPC   D3B 8519   0.521  25.964   4.788  0.2481  0.1663 -0.1628
    1DIPC   C4B 8520   0.120  26.213   4.460  0.2557  0.1545 -0.1502
    1DIPC   NC3 8521   8.510  22.284   5.993  0.2551  0.1972 -0.0764
    1DIPC   PO4 8522   8.935  22.510   6.057  0.2418 -0.0032  0.1090
    1DIPC   GL1 8523   8.808  22.584   5.685  0.0604 -0.0192  0.0269
    1DIPC   GL2 8524   8.984  22.836   5.677  0.0155 -0.2109 -0.1100
    1DIPC   C1A 8525   8.577  22.772   5.346 -0.0033 -0.1895  0.1097
    1DIPC   D2A 8526   8.506  22.805   4.875 -0.0329 -0.0195 -0.1590
    1DIPC   D3A 8527   8.175  22.768   4.704  0.0951 -0.2327  0.1480
    1DIPC   C4A 8528   8.111  22.554   4.377  0.0245 -0.0600 -0.0093
    1DIPC   C1B 8529   8.979  23.017   5.222  0.3301  0.0849  0.1477
    1DIPC   D2B 8530   9.129  22.967   4.847  0.0224  0.2942  0.0174
    1DIPC   D3B 8531   8.880  22.828   4.530  0.2440 -0.3933 -0.0946
    1DIPC   C4B 8532   9.079  22.524   4.266  0.3531  0.2564  0.0564
    1DIPC   NC3 8533  17.028  23.860   6.921  0.0017  0.1527  0.1605
    1DIPC   PO4 8534  16.610  23.716   6.880 -0.0512 -0.0144 -0.1215
    1DIPC   GL1 8535  16.764  23.782   6.515  0.3477  0.2878  0.1465
    1DIPC   GL2 8536  16.971  23.504   6.557  0.0132 -0.0136 -0.1461
    1DIPC   C1A 8537  16.938  23.764   6.100  0.3427 -0.0170  0.0321
    1DIPC   D2A 8538  17.046  23.920   5.693  0.0418 -0.0614  0.0582
    1DIPC   D3A 8539  17.069  23.816   5.221  0.0267  0.2822  0.2864
    1DIPC   C4A 8540  16.914  24.043   4.855  0.1489  0.2378  0.0070
    1DIPC   C1B 8541  17.366  23.596   6.339  0.1334 -0.2095 -0.0385
    1DIPC   D2B 8542  17.724  23.650   6.571 -0.4298  0.1377  0.1513
    1DIPC   D3B 8543  17.790  23.365   6.239 -0.2654  0.2329 -0.1247
    1DIPC   C4B 8544  17.742  23.487   5.837 -0.0524  0.1094  0.2222
    1DIPC   NC3 8545  22.014  17.439   6.614 -0.3842 -0.2566  0.1945
    1DIPC   PO4 8546  22.455  17.314   6.642 -0.3242  0.1539  0.3514
    1DIPC   GL1 8547  22.360  17.528   6.299  0.0200  0.2090  0.1176
    1DIPC   GL2 8548  22.080  17.416   6.048  0.1747 -0.5067  0.0472
    1DIPC   C1A 8549  22.130  17.952   6.155 -0.2775 -0.3430  0.0860
    1DIPC   D2A 8550  22.159  18.442   6.309  0.3660  0.4151  0.0054
    1DIPC   D3A 8551  21.759  18.621   6.285 -0.4337 -0.0233 -0.0648
    1DIPC   C4A 8552  21.313  18.539   6.218  0.1570  0.1218  0.0384
    1DIPC   C1B 8553  22.359  17.332   5.798 -0.1826  0.3051  0.1814
    1DIPC   D2B 8554  22.521  17.067   5.482 -0.0672  0.0214 -0.2534
    1DIPC   D3B 8555  22.355  17.529   5.294 -0.1255  0.0420 -0.2203
    1DIPC   C4B 8556  22.014  17.526   5.081  0.0401 -0.1220  0.1249
    1DIPC   NC3 8557   3.950  10.852   7.050 -0.1822  0.1185  0.0571
    1DIPC   PO4 8558   3.884  10.464   6.768 -0.1780  0.0329 -0.0921
    1DIPC   GL1 8559   4.113  10.496   6.440 -0.2145 -0.2340  0.1399
    1DIPC   GL2 8560   4.248  10.288   6.195 -0.1259  0.2366 -0.1606
    1DIPC   C1A 8561   4.023  10.710   6.037  0.0328 -0.1599  0.0135
    1DIPC   D2A 8562   3.677  10.981   5.803  0.1428  0.1757  0.1540
    1DIPC   D3A 8563   3.332  11.285   5.777  0.1085  0.1263 -0.2354
    1DIPC   C4A 8564   3.262  11.567   6.122 -0.0375 -0.2093  0.0217
    1DIPC   C1B 8565   4.098  10.263   5.770 -0.3273 -0.2108  0.1488
    1DIPC   D2B 8566   3.923  10.541   5.547  0.3022 -0.0574 -0.1755
    1DIPC   D3B 8567   3.559  10.485   5.291  0.3371 -0.2006 -0.1936
    1DIPC   C4B 8568   3.224  10.103   5.261 -0.1994 -0.1914 -0.0413
    1DIPC   NC3 8569   8.968  22.988   6.259 -0.1857 -0.0076 -0.1414
    1DIPC   PO4 8570   8.665  23.170   6.026  0.1429 -0.0406  0.3443
    1DIPC   GL1 8571   8.559  23.266   5.494 -0.0898  0.1226 -0.3084
    1DIPC   GL2 8572   8.149  23.255   5.470 -0.2392  0.1154 -0.2368
    1DIPC   C1A 8573   8.565  23.296   5.159 -0.1516  0.0087  0.1247
    1DIPC   D2A 8574   8.773  23.295   4.717 -0.0676  0.1684 -0.1848
    1DIPC   D3A 8575   9.094  23.306   4.491  0.3695  0.1239 -0.0509
    1DIPC   C4A 8576   9.348  23.581   4.289  0.2402  0.1945  0.1298
    1DIPC   C1B 8577   8.167  23.654   5.300  0.4219  0.0624 -0.1855
    1DIPC   D2B 8578   8.423  23.870   5.058 -0.1104 -0.0109 -0.4388
    1DIPC   D3B 8579   8.367  24.087   4.683  0.1667 -0.1525  0.0593
    1DIPC   C4B 8580   8.531  24.557   4.702  0.2047 -0.0961 -0.0043
    1DIPC   NC3 8581   7.728  29.442   7.222 -0.0786  0.0320 -0.0230
    1DIPC   PO4 8582   7.523  29.807   6.989 -0.2367 -0.0607  0.1333
    1DIPC   GL1 8583   7.380  29.878   6.590  0.1845  0.0707 -0.0848
    1DIPC   GL2 8584   7.662  29.657   6.474  0.0045  0.1041 -0.2951
    1DIPC   C1A 8585   7.406  29.982   6.194 -0.3794 -0.2603  0.0244
    1DIPC   D2A 8586   7.402  29.802   5.760 -0.3505 -0.2373 -0.1165
    1DIPC   D3A 8587   7.450  29.392   5.724  0.1214 -0.0124 -0.5523
    1DIPC   C4A 8588   7.419  29.381   5.332  0.1119 -0.1680 -0.0733
    1DIPC   C1B 8589   7.716  29.570   6.079 -0.0363  0.1199  0.1710
    1DIPC   D2B 8590   7.920  29.471   5.556  0.2449 -0.2380  0.0055
    1DIPC   D3B 8591   8.150  29.365   5.836 -0.1528 -0.3627 -0.0229
    1DIPC   C4B 8592   8.461  29.560   5.994 -0.0376  0.1074 -0.0874
    1DIPC   NC3 8593  24.552  20.863   6.561 -0.1481 -0.1027  0.1320
    1DIPC   PO4 8594  24.397  21.047   6.867 -0.2895  0.0685 -0.0026
    1DIPC   GL1 8595  24.170  21.206   6.403 -0.1480  0.3761  0.0082
    1DIPC   GL2 8596  24.242  21.607   6.273  0.0771  0.1232 -0.1103
    1DIPC   C1A 8597  23.733  21.506   6.216  0.0087  0.0323 -0.2257
    1DIPC   D2A 8598  23.280  21.625   6.329 -0.1118  0.0455  0.2995
    1DIPC   D3A 8599  23.357  22.044   6.399  0.2613  0.5760 -0.0657
    1DIPC   C4A 8600  23.336  22.371   6.128 -0.1941 -0.1900  0.2539
    1DIPC   C1B 8601  24.097  21.381   5.851  0.5199 -0.0527  0.0011
    1DIPC   D2B 8602  24.103  21.140   5.560 -0.1818  0.1360  0.4134
    1DIPC   D3B 8603  23.683  21.038   5.566 -0.2247  0.1341 -0.0666
    1DIPC   C4B 8604  23.322  20.932   5.236  0.1257  0.2032  0.0096
    1DIPC   NC3 8605  20.850  20.476   6.910 -0.2173  0.0717  0.0326
    1DIPC   PO4 8606  21.159  20.827   6.679 -0.0969  0.1909  0.2623
    1DIPC   GL1 8607  21.316  21.153   6.421 -0.0671  0.1223 -0.1619
    1DIPC   GL2 8608  21.164  21.449   6.394  0.1227 -0.1091 -0.0509
    1DIPC   C1A 8609  21.567  21.286   5.946  0.3372  0.2563 -0.3202
    1DIPC   D2A 8610  21.695  21.272   5.510  0.1137 -0.0353  0.0848
    1DIPC   D3A 8611  21.527  21.684   5.229  0.1284  0.1580 -0.0240
    1DIPC   C4A 8612  21.540  21.730   4.805  0.2120 -0.0423 -0.1214
    1DIPC   C1B 8613  20.983  21.540   6.051 -0.0031  0.1230  0.0333
    1DIPC   D2B 8614  20.680  21.860   5.984 -0.0986  0.0829  0.2206
    1DIPC   D3B 8615  20.726  21.824   5.556 -0.2533  0.1424 -0.0648
    1DIPC   C4B 8616  20.409  22.099   5.411  0.1427  0.1845 -0.0707
    1DIPC   NC3 8617  27.881  21.723   6.157 -0.1963  0.1485  0.2192
    1DIPC   PO4 8618  27.468  21.493   6.185 -0.1262 -0.2770  0.0588
    1DIPC   GL1 8619  27.430  21.238   5.815 -0.1830  0.0730 -0.2847
    1DIPC   GL2 8620  27.795  21.324   5.668 -0.2492  0.0733  0.3536
    1DIPC   C1A 8621  27.475  20.973   5.398 -0.0482 -0.0781  0.0109
    1DIPC   D2A 8622  27.244  21.125   4.998 -0.1295  0.0801  0.1302
    1DIPC   D3A 8623  27.464  20.776   4.904 -0.0003  0.1528  0.1274
    1DIPC   C4A 8624  27.251  20.418   5.190  0.1322  0.2146  0.3503
    1DIPC   C1B 8625  27.849  20.821   5.734  0.1038  0.0947  0.2637
    1DIPC   D2B 8626  27.784  20.419   5.934  0.0423 -0.0957 -0.2079
    1DIPC   D3B 8627  27.664  20.391   5.493 -0.0961  0.0056 -0.3119
    1DIPC   C4B 8628  27.882  20.671   5.158 -0.0249  0.5795 -0.0545
    1DIPC   NC3 8629   6.078  13.283   6.610  0.3245  0.2882  0.2085
    1DIPC   PO4 8630   5.717  13.077   6.423 -0.1573 -0.2648  0.1325
    1DIPC   GL1 8631   5.511  13.032   6.037  0.1730  0.2602  0.2401
    1DIPC   GL2 8632   5.545  12.743   5.849 -0.0319 -0.1189  0.1276
    1DIPC   C1A 8633   5.077  13.003   5.873  0.2931  0.2307 -0.1970
    1DIPC   D2A 8634   4.785  12.775   5.707 -0.0481 -0.1492 -0.2753
    1DIPC   D3A 8635   5.073  12.545   5.611  0.1015  0.2757 -0.3023
    1DIPC   C4A 8636   4.967  12.084   5.506 -0.3597 -0.1551  0.1544
    1DIPC   C1B 8637   5.501  12.733   5.454 -0.0107 -0.2598  0.1566
    1DIPC   D2B 8638   5.622  12.567   5.019 -0.2952 -0.1244 -0.0869
    1DIPC   D3B 8639   5.627  12.182   5.001  0.0004 -0.1590  0.1660
    1DIPC   C4B 8640   5.524  11.818   4.717 -0.3318 -0.1335  0.0939
    1DIPC   NC3 8641  16.042   5.218   6.312 -0.1262 -0.4492 -0.0952
    1DIPC   PO4 8642  16.422   4.842   6.379 -0.2542 -0.0074  0.0942
    1DIPC   GL1 8643  16.403   4.708   6.048  0.2579  0.0852  0.0102
    1DIPC   GL2 8644  16.090   4.753   6.061  0.0043 -0.2217 -0.0653
    1DIPC   C1A 8645  16.370   4.850   5.645 -0.0855 -0.0820 -0.0616
    1DIPC   D2A 8646  16.374   4.649   5.263 -0.1261 -0.1536 -0.0090
    1DIPC   D3A 8647  15.967   4.809   5.293 -0.1126 -0.0564  0.2075
    1DIPC   C4A 8648  15.711   4.661   5.731  0.0503  0.1267 -0.0683
    1DIPC   C1B 8649  16.092   4.440   5.652 -0.1078 -0.0144  0.2184
    1DIPC   D2B 8650  16.051   4.192   5.312 -0.1052  0.1281  0.0449
    1DIPC   D3B 8651  16.074   4.057   4.948 -0.2712  0.1390  0.2005
    1DIPC   C4B 8652  15.891   3.818   4.795  0.0579  0.3409  0.0036
    1DIPC   NC3 8653  19.452   5.964   6.052  0.0234  0.1193 -0.1258
    1DIPC   PO4 8654  19.090   5.700   5.990 -0.1270 -0.0818 -0.3233
    1DIPC   GL1 8655  19.031   5.818   5.569  0.1407  0.0101 -0.1879
    1DIPC   GL2 8656  18.681   5.903   5.619 -0.0456  0.2243 -0.2740
    1DIPC   C1A 8657  19.154   6.001   5.154 -0.1034  0.1024  0.0394
    1DIPC   D2A 8658  19.305   5.814   4.824  0.0067 -0.0498 -0.1926
    1DIPC   D3A 8659  18.977   5.671   4.644 -0.1577 -0.1734  0.1451
    1DIPC   C4A 8660  18.619   5.849   4.567 -0.0790  0.2067 -0.1708
    1DIPC   C1B 8661  18.727   5.703   5.083 -0.1823  0.0887  0.0274
    1DIPC   D2B 8662  18.504   5.443   4.853 -0.2220  0.0561  0.1697
    1DIPC   D3B 8663  18.564   5.241   5.225  0.0742 -0.1532  0.4242
    1DIPC   C4B 8664  18.765   5.399   5.501  0.1094  0.1480 -0.0421
    1DIPC   NC3 8665  20.982  26.252   6.963 -0.0364  0.0941  0.0779
    1DIPC   PO4 8666  20.611  26.499   7.021 -0.1198 -0.1299  0.0966
    1DIPC   GL1 8667  20.602  26.364   6.538 -0.0984  0.1790  0.1143
    1DIPC   GL2 8668  20.716  26.057   6.408 -0.2229 -0.1470  0.0449
    1DIPC   C1A 8669  20.664  26.482   6.091 -0.4231 -0.0211  0.0958
    1DIPC   D2A 8670  20.578  26.367   5.679  0.0331 -0.2037  0.0203
    1DIPC   D3A 8671  20.632  26.712   5.430  0.0213 -0.2252 -0.1254
    1DIPC   C4A 8672  21.036  26.768   5.114 -0.1680  0.1561 -0.1223
    1DIPC   C1B 8673  20.429  25.988   6.086 -0.4024 -0.3938  0.1790
    1DIPC   D2B 8674  20.488  25.650   5.808 -0.1068 -0.1509  0.1468
    1DIPC   D3B 8675  20.301  25.953   5.558  0.0309 -0.3030  0.0848
    1DIPC   C4B 8676  20.506  26.232   5.211  0.1817  0.0921  0.1362
    1DIPC   NC3 8677  20.650  17.548   6.933 -0.1733 -0.0334  0.0154
    1DIPC   PO4 8678  20.504  17.103   6.716  0.2511 -0.5604 -0.1571
    1DIPC   GL1 8679  20.660  17.261   6.405 -0.1286  0.0769 -0.1265
    1DIPC   GL2 8680  20.781  16.986   6.279 -0.1691  0.3063  0.2630
    1DIPC   C1A 8681  20.439  17.415   6.047 -0.0268  0.2538  0.0009
    1DIPC   D2A 8682  20.507  17.365   5.598  0.1162  0.0224  0.0576
    1DIPC   D3A 8683  20.548  17.504   5.168 -0.2706  0.1568  0.1375
    1DIPC   C4A 8684  20.718  17.809   4.910 -0.1286 -0.2564  0.0194
    1DIPC   C1B 8685  20.839  17.114   5.877  0.2095 -0.1845  0.3185
    1DIPC   D2B 8686  20.946  17.119   5.478 -0.0456  0.1360 -0.2417
    1DIPC   D3B 8687  21.070  17.342   5.106 -0.0189  0.3679  0.1180
    1DIPC   C4B 8688  21.445  17.649   4.881 -0.1376 -0.0837  0.2273
    1DIPC   NC3 8689  24.533  13.615   6.177  0.4139  0.1909  0.1152
    1DIPC   PO4 8690  24.042  13.728   6.068  0.2156  0.0220  0.0430
    1DIPC   GL1 8691  23.792  13.695   5.634 -0.4647 -0.0808  0.0092
    1DIPC   GL2 8692  23.425  13.633   5.700 -0.0910 -0.0538  0.2783
    1DIPC   C1A 8693  24.058  13.564   5.339 -0.1358 -0.0367  0.2152
    1DIPC   D2A 8694  24.430  13.461   5.025 -0.3051  0.1291 -0.2546
    1DIPC   D3A 8695  24.703  13.787   5.065 -0.1484  0.0157 -0.3834
    1DIPC   C4A 8696  25.118  13.794   5.339  0.1660 -0.1207 -0.0694
    1DIPC   C1B 8697  23.218  13.725   5.345 -0.0355 -0.2492 -0.1634
    1DIPC   D2B 8698  23.172  13.956   4.893 -0.1671  0.0381  0.3124
    1DIPC   D3B 8699  22.826  13.686   4.719  0.0695 -0.2956  0.0999
    1DIPC   C4B 8700  22.963  13.357   4.550  0.2096  0.1179 -0.4592
    1DIPC   NC3 8701  19.995   3.255   6.196  0.2763  0.2277 -0.0773
    1DIPC   PO4 8702  20.468   3.290   6.402  0.0761 -0.0677 -0.1113
    1DIPC   GL1 8703  20.437   3.401   6.034  0.2195 -0.0807 -0.0264
    1DIPC   GL2 8704  20.221   3.357   5.766 -0.2667  0.0100  0.3220
    1DIPC   C1A 8705  20.653   3.454   5.595 -0.2309  0.0002  0.0903
    1DIPC   D2A 8706  20.685   3.678   5.176 -0.1104 -0.3491 -0.0035
    1DIPC   D3A 8707  21.038   3.517   5.039  0.0567 -0.0201  0.0749
    1DIPC   C4A 8708  21.378   3.256   5.138  0.1225  0.0283  0.0820
    1DIPC   C1B 8709  20.261   3.382   5.315 -0.0563  0.1251  0.1932
    1DIPC   D2B 8710  20.068   3.456   4.963 -0.3378  0.1440 -0.0425
    1DIPC   D3B 8711  20.394   3.693   4.717 -0.0961  0.3268  0.1528
    1DIPC   C4B 8712  20.752   3.520   4.499 -0.1686  0.1535  0.2753
    1DIPC   NC3 8713  19.282   6.748   6.756 -0.1244  0.1084 -0.0572
    1DIPC   PO4 8714  19.345   6.372   6.472  0.0324  0.1215  0.0813
    1DIPC   GL1 8715  19.190   6.440   6.058  0.0661  0.0194  0.1616
    1DIPC   GL2 8716  19.088   6.215   5.925  0.1667 -0.0089  0.1913
    1DIPC   C1A 8717  19.077   6.790   5.824 -0.2843  0.1371  0.0432
    1DIPC   D2A 8718  18.907   7.022   5.635  0.0509 -0.1260  0.0024
    1DIPC   D3A 8719  18.531   6.852   5.570  0.1972 -0.0528  0.0408
    1DIPC   C4A 8720  18.229   6.647   5.829 -0.2455  0.1806  0.0832
    1DIPC   C1B 8721  18.725   6.376   5.753  0.0280  0.2542 -0.2024
    1DIPC   D2B 8722  18.377   6.381   5.424 -0.3591 -0.0656  0.1328
    1DIPC   D3B 8723  18.501   6.195   5.139  0.3428  0.1384  0.3563
    1DIPC   C4B 8724  18.473   6.309   4.687 -0.2277 -0.2345  0.1447
    1DIPC   NC3 8725  23.704  28.950   6.772 -0.0380 -0.1449  0.1943
    1DIPC   PO4 8726  24.014  29.277   6.756 -0.0774 -0.0356 -0.0182
    1DIPC   GL1 8727  23.971  29.511   6.418  0.1500 -0.2568 -0.1493
    1DIPC   GL2 8728  24.175  29.389   6.289 -0.2703 -0.1335 -0.2773
    1DIPC   C1A 8729  23.553  29.646   6.319  0.0024 -0.1126  0.0461
    1DIPC   D2A 8730  23.167  29.547   6.195 -0.1297  0.1016  0.0498
    1DIPC   D3A 8731  23.069  29.121   6.095  0.2124 -0.3896 -0.1596
    1DIPC   C4A 8732  22.689  29.094   5.873  0.0088 -0.1763 -0.1219
    1DIPC   C1B 8733  24.006  29.459   5.817  0.0582  0.0013  0.0812
    1DIPC   D2B 8734  24.038  29.399   5.289 -0.1434  0.0388 -0.2553
    1DIPC   D3B 8735  23.560  29.602   5.330 -0.3268 -0.0463 -0.1743
    1DIPC   C4B 8736  23.285  29.259   5.146 -0.0208  0.2257 -0.1738
    1DIPC   NC3 8737   6.842  29.192   6.850  0.2963 -0.2345 -0.3111
    1DIPC   PO4 8738   6.953  28.992   6.576  0.0955 -0.0017 -0.0637
    1DIPC   GL1 8739   7.274  28.977   6.271  0.2801 -0.2765 -0.2949
    1DIPC   GL2 8740   7.239  29.371   6.166  0.0488 -0.1923  0.1975
    1DIPC   C1A 8741   7.322  28.910   5.839 -0.1307  0.4233 -0.1960
    1DIPC   D2A 8742   7.339  28.838   5.350  0.4063  0.3950 -0.1338
    1DIPC   D3A 8743   7.550  29.037   4.992 -0.1050  0.0108  0.0740
    1DIPC   C4A 8744   7.865  28.971   4.751  0.2983 -0.0897  0.1112
    1DIPC   C1B 8745   6.929  29.757   6.022 -0.0325  0.0993 -0.1393
    1DIPC   D2B 8746   6.502  29.833   6.213 -0.0349  0.1412 -0.0109
    1DIPC   D3B 8747   6.385  30.152   5.973  0.0649  0.0270  0.1770
    1DIPC   C4B 8748   6.214  30.255   5.596  0.1831 -0.1563 -0.0135
    1DIPC   NC3 8749  17.709  20.066   6.906 -0.2827  0.0798  0.1716
    1DIPC   PO4 8750  18.280  20.234   6.863 -0.0142 -0.0257 -0.1044
    1DIPC   GL1 8751  18.386  20.237   6.480  0.1865  0.0388 -0.1382
    1DIPC   GL2 8752  18.531  20.467   6.430 -0.0667 -0.1519 -0.1887
    1DIPC   C1A 8753  18.460  20.180   5.964  0.0208  0.1059 -0.0030
    1DIPC   D2A 8754  18.236  20.408   5.575  0.0948 -0.3494  0.0022
    1DIPC   D3A 8755  18.206  20.255   5.084  0.0472 -0.0759 -0.1805
    1DIPC   C4A 8756  18.196  20.550   4.709 -0.0613  0.1524  0.1498
    1DIPC   C1B 8757  18.502  20.712   6.139  0.1716  0.3026 -0.1331
    1DIPC   D2B 8758  18.392  21.074   5.877 -0.1699  0.1754 -0.0209
    1DIPC   D3B 8759  18.160  20.975   5.519  0.0382  0.0276 -0.0776
    1DIPC   C4B 8760  18.376  20.708   5.215  0.1299  0.0038  0.0969
    1DIPC   NC3 8761   9.673   1.250   6.817  0.3701  0.2060  0.1724
    1DIPC   PO4 8762   9.880   1.718   6.953  0.0121  0.1464  0.1885
    1DIPC   GL1 8763   9.633   1.791   6.606  0.0314  0.2242  0.2571
    1DIPC   GL2 8764   9.893   1.592   6.422  0.0500 -0.0977 -0.0609
    1DIPC   C1A 8765   9.453   1.841   6.192 -0.1827  0.2380  0.2351
    1DIPC   D2A 8766   9.178   1.623   5.803 -0.3188  0.3645  0.2169
    1DIPC   D3A 8767   9.001   1.178   5.830  0.0574  0.1547 -0.0332
    1DIPC   C4A 8768   9.255   0.812   5.672  0.1044  0.1955  0.2201
    1DIPC   C1B 8769   9.989   1.933   6.155 -0.1338 -0.1105 -0.1061
    1DIPC   D2B 8770  10.199   1.902   5.716  0.1700 -0.0066  0.0697
    1DIPC   D3B 8771  10.392   1.928   5.299  0.0773 -0.1823  0.0141
    1DIPC   C4B 8772  10.545   1.640   5.061  0.0736  0.1797 -0.0182
    1DIPC   NC3 8773  23.628  23.826   6.297  0.2949 -0.2941 -0.2313
    1DIPC   PO4 8774  23.197  24.134   6.322  0.1710 -0.0287 -0.2230
    1DIPC   GL1 8775  23.138  23.802   5.916  0.3905 -0.3809  0.1336
    1DIPC   GL2 8776  23.005  23.572   5.800 -0.0397 -0.0071 -0.1837
    1DIPC   C1A 8777  22.988  23.985   5.517  0.0519 -0.1734  0.0035
    1DIPC   D2A 8778  22.920  24.446   5.345 -0.0453  0.3330 -0.1472
    1DIPC   D3A 8779  22.873  24.817   5.453 -0.0856  0.0590  0.0893
    1DIPC   C4A 8780  22.583  24.963   5.052  0.1288  0.1428 -0.2325
    1DIPC   C1B 8781  23.438  23.610   5.556 -0.1140 -0.0711  0.4539
    1DIPC   D2B 8782  23.749  23.565   5.080 -0.1038  0.4753  0.1240
    1DIPC   D3B 8783  23.623  23.130   4.838  0.1451  0.0475 -0.0387
    1DIPC   C4B 8784  23.588  22.686   4.626 -0.1401 -0.0551 -0.1708
    1DIPC   NC3 8785   6.478  10.360   6.681 -0.1441 -0.0741 -0.2518
    1DIPC   PO4 8786   6.696  10.441   6.313 -0.0974 -0.2319 -0.1734
    1DIPC   GL1 8787   6.912  10.538   6.012 -0.0102  0.0455 -0.1602
    1DIPC   GL2 8788   6.665  10.748   5.860  0.1138 -0.0983 -0.0597
    1DIPC   C1A 8789   7.105  10.350   5.613  0.4524  0.1280 -0.3163
    1DIPC   D2A 8790   6.947  10.181   5.161 -0.2549  0.2145  0.0430
    1DIPC   D3A 8791   6.715  10.417   4.929 -0.0343  0.0309 -0.1481
    1DIPC   C4A 8792   6.536  10.822   4.939  0.2416  0.0975 -0.0914
    1DIPC   C1B 8793   6.803  10.709   5.361 -0.0339 -0.0675 -0.2244
    1DIPC   D2B 8794   7.146  10.602   5.101 -0.1188  0.0099  0.1094
    1DIPC   D3B 8795   7.451  10.347   5.272 -0.3410 -0.4448  0.3165
    1DIPC   C4B 8796   7.504   9.919   5.126  0.1720 -0.2800 -0.0255
    1DIPC   NC3 8797   9.718  27.084   7.009  0.0419 -0.0636  0.1508
    1DIPC   PO4 8798   9.726  27.502   6.862  0.0259 -0.1079 -0.0327
    1DIPC   GL1 8799   9.972  27.708   6.534 -0.0998 -0.0899 -0.2497
    1DIPC   GL2 8800  10.221  27.927   6.694  0.0749  0.0550  0.0280
    1DIPC   C1A 8801   9.992  28.002   6.143  0.1262  0.2140 -0.2098
    1DIPC   D2A 8802   9.994  28.074   5.743  0.0076  0.1044 -0.0950
    1DIPC   D3A 8803   9.760  28.153   5.384 -0.1559  0.4316 -0.0022
    1DIPC   C4A 8804   9.740  27.796   5.075  0.1364 -0.2550 -0.2838
    1DIPC   C1B 8805  10.245  28.316   6.571 -0.0544 -0.1498  0.0200
    1DIPC   D2B 8806  10.144  28.744   6.749  0.1046 -0.0055 -0.0440
    1DIPC   D3B 8807  10.514  28.898   6.635 -0.1194 -0.3353  0.0005
    1DIPC   C4B 8808  10.568  29.051   6.212  0.1222 -0.0565 -0.1570
    1DIPC   NC3 8809   4.055  18.734   6.271 -0.2569  0.1691  0.1536
    1DIPC   PO4 8810   4.255  18.733   5.827 -0.0805 -0.0606  0.1309
    1DIPC   GL1 8811   4.148  18.782   5.471 -0.4955  0.0378  0.2829
    1DIPC   GL2 8812   4.006  18.423   5.416  0.2674 -0.2926 -0.1956
    1DIPC   C1A 8813   3.767  18.852   5.146  0.0356 -0.1065 -0.2127
    1DIPC   D2A 8814   3.705  18.786   4.697 -0.4041  0.1236  0.1955
    1DIPC   D3A 8815   3.671  19.002   4.234  0.0804 -0.2552  0.3274
    1DIPC   C4A 8816   3.235  19.344   4.175  0.2582  0.2229 -0.4926
    1DIPC   C1B 8817   4.306  18.517   5.093  0.2606 -0.1178 -0.0656
    1DIPC   D2B 8818   4.535  18.423   4.732 -0.1855  0.2138  0.1146
    1DIPC   D3B 8819   4.800  18.508   4.438  0.3354  0.0337 -0.1421
    1DIPC   C4B 8820   4.598  18.875   4.125 -0.1916 -0.2107  0.2243
    1DIPC   NC3 8821  11.807   6.199   7.053  0.0554  0.1523 -0.1978
    1DIPC   PO4 8822  12.247   6.221   7.078  0.0627  0.2147  0.2128
    1DIPC   GL1 8823  12.028   6.312   6.641 -0.0083 -0.0799  0.2287
    1DIPC   GL2 8824  11.815   6.500   6.604 -0.0523  0.0682  0.0714
    1DIPC   C1A 8825  12.170   6.294   6.257  0.1776 -0.0018  0.1328
    1DIPC   D2A 8826  12.473   6.299   5.881  0.0914 -0.0544  0.1560
    1DIPC   D3A 8827  12.855   6.358   5.739 -0.0242 -0.0480 -0.0314
    1DIPC   C4A 8828  12.870   6.311   5.356 -0.2279 -0.1318 -0.5194
    1DIPC   C1B 8829  11.741   6.433   6.132  0.3243 -0.1439  0.0030
    1DIPC   D2B 8830  11.619   6.268   5.783 -0.3115 -0.0105  0.0513
    1DIPC   D3B 8831  11.970   6.109   5.639 -0.2261  0.0684  0.0507
    1DIPC   C4B 8832  12.341   5.992   5.541  0.2618 -0.2158 -0.0608
    1DIPC   NC3 8833   5.732   5.545   6.763 -0.0095 -0.0057 -0.0124
    1DIPC   PO4 8834   5.840   5.176   6.875  0.3111  0.0093 -0.2030
    1DIPC   GL1 8835   5.959   5.151   6.458 -0.1052  0.0905 -0.1155
    1DIPC   GL2 8836   6.114   4.867   6.486  0.2388  0.3013  0.2150
    1DIPC   C1A 8837   6.252   5.310   6.176  0.0373  0.0549  0.2295
    1DIPC   D2A 8838   6.611   5.431   5.812  0.0963 -0.2623 -0.1898
    1DIPC   D3A 8839   6.686   4.980   5.756 -0.3146  0.0485  0.3323
    1DIPC   C4A 8840   7.038   4.710   5.902 -0.0752 -0.1013  0.2718
    1DIPC   C1B 8841   5.909   4.467   6.303 -0.1191 -0.0548  0.1460
    1DIPC   D2B 8842   6.109   4.114   6.092  0.0793 -0.2005  0.2248
    1DIPC   D3B 8843   6.105   4.430   5.803 -0.1864 -0.0711 -0.1908
    1DIPC   C4B 8844   6.228   4.862   5.986  0.3731 -0.0728 -0.1923
    1DIPC   NC3 8845  28.490  29.519   6.869 -0.2270 -0.0773  0.0415
    1DIPC   PO4 8846  28.954  29.312   6.707  0.0325 -0.3840 -0.1114
    1DIPC   GL1 8847  28.623  29.529   6.338 -0.1196  0.2604  0.2557
    1DIPC   GL2 8848  28.487  29.788   6.136 -0.1832  0.0518 -0.2295
    1DIPC   C1A 8849  28.681  29.325   5.976 -0.1945  0.0071  0.1805
    1DIPC   D2A 8850  28.836  28.929   5.845  0.2156  0.2354  0.0657
    1DIPC   D3A 8851  28.955  28.804   6.155 -0.1068 -0.0886 -0.1174
    1DIPC   C4A 8852  29.220  28.547   6.018  0.3572  0.6186  0.1472
    1DIPC   C1B 8853  28.362  29.650   5.744  0.0538  0.0715 -0.2602
    1DIPC   D2B 8854  28.446  29.502   5.499  0.1832  0.4711  0.2398
    1DIPC   D3B 8855  28.876  29.166   5.344 -0.1571  0.0048 -0.1563
    1DIPC   C4B 8856  28.751  28.767   5.189 -0.1758 -0.0981 -0.0738
    1DIPC   NC3 8857  14.715   4.961   6.617 -0.2587  0.1347  0.1624
    1DIPC   PO4 8858  15.036   4.623   6.643  0.0501 -0.1085  0.1074
    1DIPC   GL1 8859  14.795   4.596   6.342  0.0655  0.2353  0.1771
    1DIPC   GL2 8860  15.015   4.712   6.160  0.0840 -0.0330 -0.0062
    1DIPC   C1A 8861  14.438   4.466   6.048  0.0707 -0.3378  0.1066
    1DIPC   D2A 8862  14.217   4.642   5.710 -0.1760 -0.0998 -0.2360
    1DIPC   D3A 8863  13.936   4.553   5.394 -0.1269  0.0429 -0.0622
    1DIPC   C4A 8864  13.882   4.218   5.229 -0.2894  0.1023  0.0554
    1DIPC   C1B 8865  14.791   4.727   5.852 -0.0742 -0.2234  0.2113
    1DIPC   D2B 8866  14.578   4.857   5.404 -0.2168 -0.1328 -0.1259
    1DIPC   D3B 8867  14.583   5.209   5.153  0.0439  0.1199  0.0686
    1DIPC   C4B 8868  14.300   5.365   4.977 -0.0306 -0.2059 -0.3309
    1DIPC   NC3 8869  13.137  22.092   6.353 -0.1180 -0.0341  0.0565
    1DIPC   PO4 8870  13.174  22.515   6.116 -0.0799  0.0439 -0.1820
    1DIPC   GL1 8871  13.482  22.612   5.743 -0.0465 -0.1289 -0.0033
    1DIPC   GL2 8872  13.563  22.948   5.785 -0.0087 -0.0588 -0.0071
    1DIPC   C1A 8873  13.459  22.474   5.300 -0.1284  0.0190  0.0898
    1DIPC   D2A 8874  13.688  22.294   4.971  0.3052 -0.4047 -0.0717
    1DIPC   D3A 8875  13.304  22.063   4.583 -0.2108 -0.0821 -0.0737
    1DIPC   C4A 8876  13.157  21.726   4.329  0.0258 -0.0018 -0.2073
    1DIPC   C1B 8877  13.450  23.167   5.453  0.2183 -0.1877  0.1716
    1DIPC   D2B 8878  13.246  23.399   5.084  0.4574  0.0960 -0.2449
    1DIPC   D3B 8879  13.232  22.968   5.022  0.2584 -0.0876 -0.1928
    1DIPC   C4B 8880  13.039  22.729   5.371 -0.3011  0.1216 -0.1775
    1DIPC   NC3 8881  14.798  28.515   6.858 -0.0030 -0.1003 -0.2585
    1DIPC   PO4 8882  14.412  28.838   6.614 -0.0435  0.0549  0.1244
    1DIPC   GL1 8883  14.231  28.631   6.358  0.1091 -0.0510 -0.4348
    1DIPC   GL2 8884  14.229  28.845   6.109 -0.0846  0.1353  0.4587
    1DIPC   C1A 8885  14.178  28.388   6.069 -0.0566 -0.2649 -0.1273
    1DIPC   D2A 8886  13.929  27.948   6.072 -0.2167 -0.1388  0.1403
    1DIPC   D3A 8887  13.780  28.198   5.720  0.3661  0.1388  0.0211
    1DIPC   C4A 8888  13.832  27.900   5.427 -0.0641  0.1296 -0.1979
    1DIPC   C1B 8889  14.264  28.798   5.716  0.1226 -0.0064  0.0355
    1DIPC   D2B 8890  14.350  28.836   5.333 -0.1304 -0.1863 -0.0292
    1DIPC   D3B 8891  13.922  29.024   5.359  0.1038 -0.0505  0.0321
    1DIPC   C4B 8892  13.973  29.349   5.605 -0.1442 -0.0553 -0.0557
    1DIPC   NC3 8893  14.938  23.804   6.303  0.0289  0.1938  0.0072
    1DIPC   PO4 8894  15.011  23.918   5.891 -0.0560 -0.1882 -0.1517
    1DIPC   GL1 8895  15.047  23.954   5.416  0.1181  0.0995  0.0644
    1DIPC   GL2 8896  14.811  24.255   5.505  0.1632  0.1292 -0.0832
    1DIPC   C1A 8897  15.206  24.030   4.912 -0.2068 -0.0110  0.0659
    1DIPC   D2A 8898  15.247  24.192   4.485 -0.0022 -0.0407  0.2426
    1DIPC   D3A 8899  15.329  24.637   4.650  0.2904  0.1337  0.0327
    1DIPC   C4A 8900  15.642  24.763   4.705  0.1862 -0.0082 -0.2247
    1DIPC   C1B 8901  14.690  24.582   5.328  0.2313 -0.1663  0.1468
    1DIPC   D2B 8902  14.609  24.906   5.004  0.0948  0.0631  0.0907
    1DIPC   D3B 8903  14.375  24.559   4.621  0.2001  0.1375  0.2632
    1DIPC   C4B 8904  14.075  24.735   4.207 -0.4071 -0.0138  0.1395
    1DIPC   NC3 8905  14.762  27.598   7.565 -0.1592 -0.0988 -0.1006
    1DIPC   PO4 8906  14.996  27.307   7.177 -0.0853 -0.0327 -0.0214
    1DIPC   GL1 8907  14.749  27.429   6.828 -0.0608  0.2192 -0.1570
    1DIPC   GL2 8908  14.773  27.626   6.582 -0.1137 -0.0687 -0.1519
    1DIPC   C1A 8909  14.479  27.274   6.434  0.0239  0.0217 -0.1537
    1DIPC   D2A 8910  14.488  27.176   5.937 -0.2181  0.0091  0.1165
    1DIPC   D3A 8911  14.186  27.113   5.667  0.0927  0.1398 -0.2212
    1DIPC   C4A 8912  13.981  27.389   5.311 -0.1971 -0.1105 -0.1618
    1DIPC   C1B 8913  14.828  27.660   6.099 -0.3188  0.1957  0.2173
    1DIPC   D2B 8914  14.730  27.542   5.706  0.0703 -0.2793  0.0063
    1DIPC   D3B 8915  14.599  27.293   5.445  0.0145 -0.1855  0.2812
    1DIPC   C4B 8916  14.704  26.982   5.455 -0.5713  0.0360  0.2755
    1DIPC   NC3 8917  10.875  24.659   6.052  0.1544  0.0109  0.0729
    1DIPC   PO4 8918  10.753  24.320   5.833 -0.1357 -0.1339 -0.3463
    1DIPC   GL1 8919  11.045  24.101   5.587  0.0931  0.3270  0.0695
    1DIPC   GL2 8920  11.069  24.172   5.233  0.3890  0.0868 -0.1689
    1DIPC   C1A 8921  11.216  23.736   5.349 -0.1077 -0.2649 -0.2888
    1DIPC   D2A 8922  11.272  23.299   5.207  0.1145  0.1015  0.2332
    1DIPC   D3A 8923  11.450  23.004   5.290  0.2810  0.0654  0.1599
    1DIPC   C4A 8924  11.939  23.166   5.462 -0.3352  0.1751  0.3734
    1DIPC   C1B 8925  11.262  24.473   5.011  0.0437 -0.1097 -0.3091
    1DIPC   D2B 8926  11.560  24.607   4.703 -0.1700  0.1791  0.0793
    1DIPC   D3B 8927  11.726  24.806   4.976  0.0476  0.0949  0.0278
    1DIPC   C4B 8928  11.838  24.550   5.316 -0.0159  0.0091 -0.1012
    1DIPC   NC3 8929  22.530  27.561   6.587  0.2200 -0.0699 -0.0829
    1DIPC   PO4 8930  22.088  27.698   6.562  0.2171  0.1651  0.0303
    1DIPC   GL1 8931  22.161  27.281   6.323  0.1296  0.1739 -0.1517
    1DIPC   GL2 8932  22.374  27.116   6.369 -0.0751 -0.1553 -0.0860
    1DIPC   C1A 8933  21.877  27.110   6.061 -0.3209 -0.3169 -0.0129
    1DIPC   D2A 8934  21.496  27.162   6.068  0.1285 -0.1168  0.0635
    1DIPC   D3A 8935  21.064  27.282   6.153  0.1086  0.2232 -0.0663
    1DIPC   C4A 8936  20.931  27.801   6.003 -0.1406 -0.1880  0.3888
    1DIPC   C1B 8937  22.301  26.994   5.802 -0.0962 -0.1430  0.0043
    1DIPC   D2B 8938  21.852  26.931   5.641 -0.3742 -0.0175  0.0896
    1DIPC   D3B 8939  22.014  26.855   5.136  0.0728 -0.2864 -0.0499
    1DIPC   C4B 8940  22.406  27.149   5.118  0.2001  0.1279  0.2742
    1DIPC   NC3 8941   4.344   7.144   6.899 -0.3456 -0.1504 -0.1018
    1DIPC   PO4 8942   4.116   6.844   6.643 -0.0490  0.0155  0.2260
    1DIPC   GL1 8943   4.301   6.558   6.265  0.1419  0.1681  0.2754
    1DIPC   GL2 8944   4.481   6.396   6.054 -0.0557 -0.1001  0.1441
    1DIPC   C1A 8945   4.140   6.679   5.826  0.0807  0.1750  0.0201
    1DIPC   D2A 8946   4.035   6.450   5.299  0.0509  0.0448 -0.0886
    1DIPC   D3A 8947   4.370   6.176   5.329 -0.3015  0.1268  0.0993
    1DIPC   C4A 8948   4.526   5.853   4.965 -0.0056 -0.1256 -0.0605
    1DIPC   C1B 8949   4.635   6.509   5.665 -0.0139  0.1483  0.1162
    1DIPC   D2B 8950   4.602   6.763   5.218  0.1168  0.1606 -0.0762
    1DIPC   D3B 8951   4.737   7.158   5.111 -0.1401 -0.1971 -0.2815
    1DIPC   C4B 8952   4.710   7.276   4.749  0.1123 -0.2031  0.1634
    1DIPC   NC3 8953   1.856   5.304   6.781 -0.1372  0.1645  0.2143
    1DIPC   PO4 8954   2.345   5.152   6.781  0.1131 -0.1321  0.1224
    1DIPC   GL1 8955   2.539   5.131   6.388  0.1261 -0.0373  0.1140
    1DIPC   GL2 8956   2.797   5.106   6.190 -0.0768  0.2762  0.4109
    1DIPC   C1A 8957   2.368   5.356   6.043  0.0001  0.3084 -0.2013
    1DIPC   D2A 8958   2.261   5.559   5.759  0.0163  0.0843  0.2599
    1DIPC   D3A 8959   1.835   5.485   6.073 -0.1629 -0.0767  0.0381
    1DIPC   C4A 8960   1.469   5.391   5.917 -0.2182 -0.0468 -0.0838
    1DIPC   C1B 8961   2.733   5.189   5.728 -0.1092 -0.1538  0.2197
    1DIPC   D2B 8962   2.735   5.363   5.256  0.1576 -0.1496  0.2041
    1DIPC   D3B 8963   2.935   5.045   5.340  0.0826 -0.3135  0.0112
    1DIPC   C4B 8964   2.932   4.772   5.665  0.1454  0.0177 -0.0430
    1DIPC   NC3 8965  24.080  28.126   6.573 -0.2108 -0.1904 -0.0982
    1DIPC   PO4 8966  23.998  28.508   6.806 -0.1870  0.1191  0.1037
    1DIPC   GL1 8967  24.242  28.694   6.413  0.1776 -0.1176  0.0714
    1DIPC   GL2 8968  24.321  28.464   6.275 -0.0241 -0.1714 -0.3246
    1DIPC   C1A 8969  24.268  28.949   6.031  0.1078 -0.0744 -0.2218
    1DIPC   D2A 8970  24.005  29.014   5.662  0.0506  0.2977 -0.2423
    1DIPC   D3A 8971  24.296  28.608   5.567  0.2205 -0.1418  0.1787
    1DIPC   C4A 8972  24.193  28.399   5.146  0.1362  0.0673 -0.2708
    1DIPC   C1B 8973  24.028  28.496   5.975  0.1916  0.2246  0.1083
    1DIPC   D2B 8974  23.717  28.449   5.654  0.1248 -0.2769 -0.0666
    1DIPC   D3B 8975  23.458  28.782   5.947 -0.1945  0.0504 -0.0643
    1DIPC   C4B 8976  23.449  29.246   5.763  0.0311 -0.0564  0.1750
    1DIPC   NC3 8977  21.594  27.904   6.638  0.0899 -0.0919  0.1088
    1DIPC   PO4 8978  21.813  28.260   6.758  0.2107 -0.0318 -0.0486
    1DIPC   GL1 8979  21.793  28.190   6.277  0.1319  0.0404 -0.1079
    1DIPC   GL2 8980  21.904  27.862   6.127 -0.2231  0.1487  0.1127
    1DIPC   C1A 8981  21.999  28.387   5.912  0.1219  0.0094  0.0716
    1DIPC   D2A 8982  22.146  28.592   5.470  0.3925  0.3391 -0.0672
    1DIPC   D3A 8983  21.690  28.337   5.296 -0.1571 -0.1412  0.1651
    1DIPC   C4A 8984  21.384  28.093   5.611  0.1744 -0.2523  0.0778
    1DIPC   C1B 8985  21.557  27.783   5.907  0.1870 -0.3033  0.1266
    1DIPC   D2B 8986  21.202  27.522   5.679 -0.0529  0.2458 -0.0072
    1DIPC   D3B 8987  21.519  27.309   5.540 -0.0899 -0.0659 -0.0318
    1DIPC   C4B 8988  21.497  27.049   5.204  0.3882 -0.0695 -0.0162
    1DIPC   NC3 8989   5.313   4.545   7.478 -0.1336  0.0537  0.0870
    1DIPC   PO4 8990   5.269   4.486   6.974 -0.2017 -0.2042 -0.1910
    1DIPC   GL1 8991   5.304   4.449   6.460 -0.0651  0.2113 -0.3978
    1DIPC   GL2 8992   5.344   4.162   6.299 -0.1604 -0.0166 -0.2349
    1DIPC   C1A 8993   5.429   4.759   6.304 -0.1567 -0.1147 -0.1130
    1DIPC   D2A 8994   5.069   4.879   6.063 -0.3055 -0.0145  0.2726
    1DIPC   D3A 8995   5.227   5.133   5.842  0.3022 -0.1679  0.0418
    1DIPC   C4A 8996   5.437   5.162   5.388  0.1569 -0.2056 -0.0745
    1DIPC   C1B 8997   5.626   3.992   6.123  0.1192 -0.1593  0.1976
    1DIPC   D2B 8998   5.720   4.155   5.699  0.3030 -0.1613  0.1736
    1DIPC   D3B 8999   5.595   4.496   5.905  0.0764 -0.1677 -0.1619
    1DIPC   C4B 9000   5.388   4.719   5.661 -0.2169  0.0183  0.1983
    1DIPC   NC3 9001   3.878   1.710   7.129 -0.0867 -0.0006 -0.1259
    1DIPC   PO4 9002   3.561   1.595   6.811 -0.2086  0.2103 -0.0032
    1DIPC   GL1 9003   3.626   1.564   6.343  0.2336  0.0080  0.1917
    1DIPC   GL2 9004   3.501   1.247   6.208 -0.1517  0.2601  0.0021
    1DIPC   C1A 9005   3.924   1.816   6.025  0.1086 -0.0433 -0.1336
    1DIPC   D2A 9006   3.882   2.098   5.690  0.0030  0.1141 -0.1881
    1DIPC   D3A 9007   3.942   1.933   5.352 -0.2165  0.2797 -0.2016
    1DIPC   C4A 9008   4.398   1.902   5.162  0.0312  0.2873  0.0538
    1DIPC   C1B 9009   3.628   1.372   5.831  0.1335  0.1942  0.0863
    1DIPC   D2B 9010   3.468   1.583   5.457  0.0082  0.0859 -0.3269
    1DIPC   D3B 9011   3.471   1.242   5.112 -0.0446  0.2121 -0.1694
    1DIPC   C4B 9012   3.397   1.455   4.715  0.0886 -0.1116  0.1858
    1DIPC   NC3 9013   8.674   9.363   7.450  0.2693 -0.1956  0.1009
    1DIPC   PO4 9014   8.651   9.199   7.113 -0.0262  0.0276  0.0688
    1DIPC   GL1 9015   8.679   9.575   6.814 -0.2643 -0.0685  0.1706
    1DIPC   GL2 9016   9.035   9.611   6.546  0.1962  0.0838  0.2060
    1DIPC   C1A 9017   8.500   9.746   6.557 -0.3526 -0.0555  0.1323
    1DIPC   D2A 9018   8.636  10.073   6.301  0.0869 -0.0265 -0.1852
    1DIPC   D3A 9019   8.249   9.996   6.080 -0.1942 -0.1002  0.1024
    1DIPC   C4A 9020   8.188   9.893   5.664  0.1298  0.2250  0.0283
    1DIPC   C1B 9021   9.241   9.806   6.333 -0.1796  0.4230 -0.1051
    1DIPC   D2B 9022   9.371   9.955   5.876  0.1898 -0.0582  0.1501
    1DIPC   D3B 9023   9.005  10.010   5.592 -0.0629 -0.0666 -0.1059
    1DIPC   C4B 9024   8.663  10.137   5.792  0.1332 -0.0373 -0.1320
    1DIPC   NC3 9025   7.434  23.872   6.562  0.0053  0.0836  0.1464
    1DIPC   PO4 9026   7.435  24.295   6.508  0.0624  0.0178  0.0478
    1DIPC   GL1 9027   7.324  24.418   6.148  0.0691  0.2297 -0.4434
    1DIPC   GL2 9028   7.339  24.671   6.010  0.1687  0.0601 -0.3657
    1DIPC   C1A 9029   7.231  24.292   5.635  0.3040 -0.3170 -0.0700
    1DIPC   D2A 9030   6.858  23.969   5.374  0.2373 -0.1199 -0.0617
    1DIPC   D3A 9031   6.691  23.618   5.095 -0.1991  0.0872  0.0622
    1DIPC   C4A 9032   6.949  23.204   4.982  0.0010  0.0498  0.0195
    1DIPC   C1B 9033   7.657  24.453   5.788 -0.1408 -0.2347 -0.2252
    1DIPC   D2B 9034   8.087  24.427   5.503 -0.2188  0.3831  0.1974
    1DIPC   D3B 9035   8.251  24.868   5.562 -0.0468 -0.2895  0.2219
    1DIPC   C4B 9036   8.338  25.046   5.208 -0.1925  0.0511 -0.2637
    1DIPC   NC3 9037  17.601   4.284   6.503 -0.1806 -0.1562  0.0326
    1DIPC   PO4 9038  17.829   3.912   6.234  0.1790  0.2433  0.1729
    1DIPC   GL1 9039  17.926   3.664   5.890  0.2371  0.0164  0.0492
    1DIPC   GL2 9040  18.148   3.652   5.654  0.1008 -0.0159 -0.1229
    1DIPC   C1A 9041  17.752   3.353   5.670 -0.1466  0.1531 -0.0061
    1DIPC   D2A 9042  17.756   2.903   5.796  0.2770 -0.1411  0.0373
    1DIPC   D3A 9043  17.325   3.055   5.679  0.0494 -0.0712  0.0995
    1DIPC   C4A 9044  17.096   3.145   6.053  0.2667  0.2306 -0.0034
    1DIPC   C1B 9045  17.936   3.890   5.342  0.1447 -0.1356 -0.2150
    1DIPC   D2B 9046  17.692   4.303   5.309  0.1225 -0.1416 -0.0128
    1DIPC   D3B 9047  18.134   4.378   5.238 -0.1368 -0.0250  0.1739
    1DIPC   C4B 9048  18.163   4.568   4.805 -0.0276 -0.0429  0.0906
    1DIPC   NC3 9049  10.884   8.674   7.047  0.1662 -0.3695  0.0471
    1DIPC   PO4 9050  10.462   8.519   7.212 -0.3309  0.0605 -0.1231
    1DIPC   GL1 9051  10.376   8.298   6.868  0.0313 -0.2200  0.1948
    1DIPC   GL2 9052  10.490   8.559   6.691 -0.1927 -0.0453  0.1399
    1DIPC   C1A 9053  10.064   8.115   6.508 -0.1470  0.0631  0.2076
    1DIPC   D2A 9054   9.766   8.271   6.262  0.0834 -0.1215 -0.0277
    1DIPC   D3A 9055   9.852   8.370   5.751 -0.0826 -0.0195 -0.5495
    1DIPC   C4A 9056   9.914   7.902   5.614 -0.2361 -0.1837 -0.0798
    1DIPC   C1B 9057  10.313   8.528   6.281 -0.0999  0.1505 -0.2658
    1DIPC   D2B 9058  10.004   8.723   6.081  0.2664  0.4463  0.1186
    1DIPC   D3B 9059   9.891   9.078   5.909  0.0981  0.5489 -0.3119
    1DIPC   C4B 9060   9.770   9.124   5.472 -0.1104  0.1021 -0.4303
    1DIPC   NC3 9061   5.836  23.747   5.854  0.3410  0.0441 -0.1837
    1DIPC   PO4 9062   6.169  23.518   5.756 -0.1468 -0.0502 -0.0305
    1DIPC   GL1 9063   6.108  23.698   5.437 -0.0144 -0.0316 -0.2276
    1DIPC   GL2 9064   5.766  23.588   5.321 -0.0619  0.2228  0.1320
    1DIPC   C1A 9065   6.200  23.765   4.995  0.1428  0.0340  0.0132
    1DIPC   D2A 9066   6.512  23.857   4.634  0.0024 -0.3316  0.1236
    1DIPC   D3A 9067   6.396  24.303   4.638 -0.2353 -0.0229  0.1365
    1DIPC   C4A 9068   6.584  24.650   4.410  0.1819  0.0310 -0.2266
    1DIPC   C1B 9069   5.864  23.308   5.029  0.0122 -0.1214 -0.0971
    1DIPC   D2B 9070   5.829  23.086   4.605 -0.0517  0.2640 -0.4457
    1DIPC   D3B 9071   6.116  22.713   4.457  0.1920  0.0483 -0.1768
    1DIPC   C4B 9072   6.006  22.263   4.367  0.0239 -0.0700  0.2223
    1DIPC   NC3 9073  26.785  20.353   6.665  0.1842 -0.1964  0.2337
    1DIPC   PO4 9074  26.708  19.943   6.441 -0.1767  0.1170  0.1215
    1DIPC   GL1 9075  26.935  20.111   6.141  0.0940 -0.1858  0.3389
    1DIPC   GL2 9076  26.819  20.176   5.872 -0.0473 -0.0241 -0.0056
    1DIPC   C1A 9077  27.292  20.334   5.958 -0.0264  0.1915  0.0000
    1DIPC   D2A 9078  27.257  20.704   5.831  0.0073 -0.0856 -0.1124
    1DIPC   D3A 9079  27.013  20.962   5.684  0.2269 -0.0047 -0.2411
    1DIPC   C4A 9080  27.106  21.409   5.548 -0.1488  0.0804 -0.0390
    1DIPC   C1B 9081  26.919  20.470   5.557 -0.1277 -0.0544  0.2500
    1DIPC   D2B 9082  26.875  20.686   5.103  0.1041 -0.2443  0.1394
    1DIPC   D3B 9083  26.460  20.707   4.912  0.0185 -0.1030  0.1353
    1DIPC   C4B 9084  26.453  21.032   4.642 -0.0607 -0.2728 -0.2152
    1DIPC   NC3 9085  12.798  25.547   6.740 -0.0717 -0.0429  0.1816
    1DIPC   PO4 9086  12.566  25.358   6.465 -0.1029  0.0238 -0.1156
    1DIPC   GL1 9087  12.552  25.401   6.036  0.2236 -0.0844  0.0159
    1DIPC   GL2 9088  12.661  25.196   5.733 -0.1933  0.0624  0.1967
    1DIPC   C1A 9089  12.655  25.698   5.661  0.0353 -0.0323 -0.0337
    1DIPC   D2A 9090  12.526  25.777   5.277 -0.4310  0.2381  0.1162
    1DIPC   D3A 9091  12.444  26.211   5.195 -0.1080 -0.2561  0.2972
    1DIPC   C4A 9092  12.465  26.472   4.929 -0.1451  0.1156 -0.4249
    1DIPC   C1B 9093  12.716  25.108   5.352 -0.2955 -0.2805  0.1708
    1DIPC   D2B 9094  12.785  25.391   4.997 -0.0714  0.0422  0.1536
    1DIPC   D3B 9095  13.075  25.550   4.593  0.2372  0.1494 -0.0948
    1DIPC   C4B 9096  13.549  25.591   4.729 -0.0525  0.0040  0.0550
    1DIPC   NC3 9097  19.813  27.552   7.231  0.0739 -0.0216 -0.2124
    1DIPC   PO4 9098  19.639  27.721   6.870 -0.3142 -0.1448  0.2965
    1DIPC   GL1 9099  19.530  27.750   6.441 -0.1850 -0.1513 -0.3268
    1DIPC   GL2 9100  19.337  27.983   6.242  0.0850 -0.0994 -0.3387
    1DIPC   C1A 9101  19.925  27.777   6.016  0.0967  0.1311  0.1533
    1DIPC   D2A 9102  20.152  27.873   5.665 -0.0201  0.2802 -0.2511
    1DIPC   D3A 9103  20.360  27.732   5.299 -0.0587 -0.1287 -0.0869
    1DIPC   C4A 9104  20.455  27.264   5.075 -0.1103 -0.1053 -0.3654
    1DIPC   C1B 9105  19.506  27.709   5.931  0.3009 -0.0960  0.1238
    1DIPC   D2B 9106  19.644  27.830   5.425  0.2361  0.1842 -0.1519
    1DIPC   D3B 9107  19.935  27.493   5.181  0.0725 -0.2484 -0.0509
    1DIPC   C4B 9108  19.929  27.042   5.250  0.2321 -0.1185  0.0424
    1DIPC   NC3 9109  19.130  21.988   6.819  0.1854 -0.2753 -0.1310
    1DIPC   PO4 9110  19.387  22.300   6.748  0.2853 -0.1154  0.1301
    1DIPC   GL1 9111  19.456  22.155   6.357  0.5718 -0.3144  0.0745
    1DIPC   GL2 9112  19.244  21.923   6.313 -0.0839  0.0757 -0.2572
    1DIPC   C1A 9113  19.781  22.226   6.083  0.0551 -0.2879  0.3983
    1DIPC   D2A 9114  19.990  22.256   5.731 -0.1408  0.0562  0.3061
    1DIPC   D3A 9115  20.194  22.621   5.506  0.1169 -0.2533 -0.1175
    1DIPC   C4A 9116  19.870  22.927   5.293  0.0410  0.0272  0.4120
    1DIPC   C1B 9117  19.346  21.602   6.024  0.3146  0.1809  0.0367
    1DIPC   D2B 9118  19.245  21.265   5.751  0.0941 -0.3586  0.0479
    1DIPC   D3B 9119  19.568  21.418   5.579 -0.0303  0.1308 -0.3497
    1DIPC   C4B 9120  19.713  21.816   5.415  0.1810  0.1168  0.3410
    1DIPC   NC3 9121  26.924  24.564   6.657 -0.2074 -0.1479  0.2216
    1DIPC   PO4 9122  27.293  24.374   6.517 -0.1409  0.1701  0.0691
    1DIPC   GL1 9123  27.105  24.150   6.319  0.0111  0.0597  0.0352
    1DIPC   GL2 9124  26.817  24.098   6.509  0.0479  0.2710  0.2151
    1DIPC   C1A 9125  27.078  23.905   5.969  0.4905  0.0549 -0.1210
    1DIPC   D2A 9126  27.017  23.971   5.618 -0.2841  0.0012  0.3869
    1DIPC   D3A 9127  27.074  23.843   5.144  0.0961 -0.0575 -0.0115
    1DIPC   C4A 9128  27.210  23.359   5.193 -0.3518 -0.1299  0.0529
    1DIPC   C1B 9129  26.644  24.103   6.116 -0.1106  0.1144  0.1543
    1DIPC   D2B 9130  26.475  23.949   5.759  0.4561  0.0242 -0.1409
    1DIPC   D3B 9131  26.333  24.209   5.457  0.2315  0.1233 -0.0772
    1DIPC   C4B 9132  26.301  24.597   5.303 -0.0507 -0.1279  0.0929
    1DIPC   NC3 9133  26.261  15.294   5.640  0.1867 -0.0425  0.4088
    1DIPC   PO4 9134  25.950  15.357   6.024  0.1075  0.1041 -0.1023
    1DIPC   GL1 9135  25.671  15.380   5.638  0.1051 -0.0028 -0.0971
    1DIPC   GL2 9136  25.354  15.197   5.569 -0.0693  0.0467 -0.0796
    1DIPC   C1A 9137  25.747  15.396   5.231  0.0110 -0.4231 -0.0119
    1DIPC   D2A 9138  25.918  15.008   4.963 -0.1627 -0.2171  0.0428
    1DIPC   D3A 9139  25.787  14.795   4.650  0.0991 -0.1625  0.0209
    1DIPC   C4A 9140  25.368  14.573   4.752  0.1245 -0.2302  0.2149
    1DIPC   C1B 9141  25.246  15.612   5.246 -0.1448 -0.1606  0.2104
    1DIPC   D2B 9142  25.161  15.580   4.800  0.2167  0.0099  0.0586
    1DIPC   D3B 9143  25.562  15.312   4.772 -0.1286  0.2495 -0.0729
    1DIPC   C4B 9144  25.849  15.451   4.394  0.0266  0.0569 -0.1203
    1DIPC   NC3 9145   7.686   5.707   7.648 -0.3066 -0.1855  0.3221
    1DIPC   PO4 9146   7.206   5.697   7.554  0.4465 -0.2314  0.0274
    1DIPC   GL1 9147   7.440   5.966   7.255  0.0635  0.2382 -0.0130
    1DIPC   GL2 9148   7.225   5.957   7.082 -0.1560  0.0806 -0.1478
    1DIPC   C1A 9149   7.573   6.208   6.842 -0.2380 -0.0220  0.1299
    1DIPC   D2A 9150   7.697   6.293   6.489 -0.1439  0.0328 -0.1719
    1DIPC   D3A 9151   7.502   6.434   6.115 -0.3358 -0.0766 -0.0333
    1DIPC   C4A 9152   7.146   6.355   6.025  0.0020  0.1755  0.2476
    1DIPC   C1B 9153   7.421   5.735   6.735 -0.2083 -0.1346 -0.1100
    1DIPC   D2B 9154   7.335   5.374   6.540 -0.0068  0.0758 -0.0446
    1DIPC   D3B 9155   6.921   5.511   6.364 -0.0266 -0.0262 -0.1560
    1DIPC   C4B 9156   6.516   5.737   6.324 -0.1106  0.1599 -0.1952
    1DIPC   NC3 9157  13.047  25.442   6.241 -0.2217  0.2365  0.0798
    1DIPC   PO4 9158  13.448  25.367   6.378 -0.1669  0.0990 -0.1245
    1DIPC   GL1 9159  13.518  25.374   5.966 -0.2275  0.0403 -0.3753
    1DIPC   GL2 9160  13.876  25.521   5.950  0.3286 -0.3751  0.1294
    1DIPC   C1A 9161  13.636  25.316   5.501  0.1070 -0.0216 -0.4814
    1DIPC   D2A 9162  13.576  25.317   5.141  0.4978 -0.0435  0.1084
    1DIPC   D3A 9163  13.282  25.017   5.281  0.1221  0.0289  0.5533
    1DIPC   C4A 9164  13.154  25.136   5.648  0.0568  0.1061  0.1426
    1DIPC   C1B 9165  14.362  25.529   5.918 -0.1121  0.1610  0.0541
    1DIPC   D2B 9166  14.838  25.448   5.715 -0.0324  0.0627 -0.1216
    1DIPC   D3B 9167  14.614  25.787   5.575 -0.0009  0.2357  0.1120
    1DIPC   C4B 9168  14.465  26.031   5.272 -0.0233  0.1520  0.0269
    1DIPC   NC3 9169  21.208   7.140   6.193  0.4187  0.2823  0.0141
    1DIPC   PO4 9170  21.313   7.575   6.313 -0.0412  0.2689  0.1561
    1DIPC   GL1 9171  21.656   7.571   6.022 -0.0290  0.0296 -0.0046
    1DIPC   GL2 9172  21.517   7.287   5.803 -0.0609 -0.2075  0.0115
    1DIPC   C1A 9173  21.905   7.595   5.612  0.1310  0.0164 -0.0755
    1DIPC   D2A 9174  22.082   7.413   5.163  0.0018  0.0127 -0.1592
    1DIPC   D3A 9175  21.703   7.662   5.028 -0.2254 -0.0082  0.3249
    1DIPC   C4A 9176  21.307   7.380   4.918 -0.1916  0.5132  0.2904
    1DIPC   C1B 9177  21.730   7.205   5.437  0.1925  0.0912 -0.2995
    1DIPC   D2B 9178  21.526   7.017   5.134 -0.0748 -0.1173 -0.0921
    1DIPC   D3B 9179  21.711   6.722   5.071  0.0549  0.1670  0.0427
    1DIPC   C4B 9180  22.108   6.802   5.004 -0.0136 -0.0895 -0.1194
    1DIPC   NC3 9181  13.977   1.355   7.177  0.0764 -0.2079  0.0525
    1DIPC   PO4 9182  14.356   1.190   6.954 -0.0971  0.1376 -0.2279
    1DIPC   GL1 9183  14.761   1.011   6.750  0.0022  0.0062  0.1963
    1DIPC   GL2 9184  14.889   0.668   6.736  0.0153 -0.0450  0.0284
    1DIPC   C1A 9185  14.942   0.964   6.338 -0.1463  0.1090 -0.1318
    1DIPC   D2A 9186  14.949   0.987   5.819  0.3317  0.4429 -0.1675
    1DIPC   D3A 9187  15.197   1.213   5.392 -0.0133  0.0779 -0.1587
    1DIPC   C4A 9188  15.019   1.127   4.991 -0.0732  0.0332 -0.3193
    1DIPC   C1B 9189  15.245   0.518   6.552  0.1208  0.1187  0.2026
    1DIPC   D2B 9190  15.654   0.437   6.369 -0.1541 -0.2804 -0.0214
    1DIPC   D3B 9191  15.655   0.228   5.975 -0.2046  0.1279  0.0532
    1DIPC   C4B 9192  16.068   0.220   5.977  0.1240  0.1416  0.1203
    1DIPC   NC3 9193  10.616   0.278   7.516  0.2922  0.1778 -0.0414
    1DIPC   PO4 9194  10.614   0.242   7.009  0.2410 -0.0805  0.1819
    1DIPC   GL1 9195  10.756   0.238   6.528  0.3967  0.0357  0.1356
    1DIPC   GL2 9196  10.868   0.554   6.331 -0.3630  0.0494  0.1431
    1DIPC   C1A 9197  10.848  -0.203   6.207 -0.3307 -0.2410  0.4198
    1DIPC   D2A 9198  10.875  -0.322   5.837  0.0188  0.0540 -0.0217
    1DIPC   D3A 9199  11.263  -0.393   5.701 -0.0185  0.2001 -0.3159
    1DIPC   C4A 9200  11.359  -0.324   5.271 -0.0225 -0.1694  0.1550
    1DIPC   C1B 9201  11.095   0.243   6.108  0.1923 -0.0554  0.0392
    1DIPC   D2B 9202  11.293   0.053   5.932  0.1330  0.2145  0.1956
    1DIPC   D3B 9203  11.300   0.102   5.616  0.0441 -0.1356  0.0952
    1DIPC   C4B 9204  11.703   0.373   5.498  0.1853  0.1714 -0.0764
    1DIPC   NC3 9205  22.094   2.013   6.755  0.0329 -0.3649 -0.1272
    1DIPC   PO4 9206  21.772   2.002   6.518  0.0635  0.1328 -0.0043
    1DIPC   GL1 9207  21.672   2.012   6.103  0.0723 -0.4392  0.0125
    1DIPC   GL2 9208  21.593   2.287   5.946  0.1714 -0.4259  0.0093
    1DIPC   C1A 9209  21.750   1.997   5.617  0.0940 -0.0129  0.0305
    1DIPC   D2A 9210  21.738   1.687   5.313 -0.1424  0.0286  0.6086
    1DIPC   D3A 9211  21.836   1.755   4.871 -0.0980 -0.2695 -0.0536
    1DIPC   C4A 9212  21.458   1.577   4.625 -0.1024 -0.4207  0.0474
    1DIPC   C1B 9213  21.740   2.782   5.985  0.0826 -0.2978 -0.0723
    1DIPC   D2B 9214  22.114   3.150   5.929  0.0659 -0.0982  0.3933
    1DIPC   D3B 9215  22.287   3.349   5.600 -0.1159 -0.1202 -0.1149
    1DIPC   C4B 9216  22.376   3.757   5.909 -0.2966 -0.1610 -0.1507
    1DIPC   NC3 9217  10.085  22.440   6.172  0.1458  0.1275 -0.0525
    1DIPC   PO4 9218  10.493  22.429   5.962  0.1007 -0.1983  0.3372
    1DIPC   GL1 9219  10.656  22.679   5.543 -0.1723 -0.0754  0.2593
    1DIPC   GL2 9220  10.854  22.450   5.370  0.0138  0.0026 -0.0315
    1DIPC   C1A 9221  10.450  22.913   5.064  0.1868  0.0802 -0.0533
    1DIPC   D2A 9222  10.099  22.996   4.802  0.1147  0.0558 -0.3467
    1DIPC   D3A 9223   9.963  22.708   4.437  0.3947 -0.0399 -0.2686
    1DIPC   C4A 9224   9.582  22.672   4.456  0.1316  0.2342  0.0805
    1DIPC   C1B 9225  10.625  22.373   5.029  0.4787 -0.2883  0.0561
    1DIPC   D2B 9226  10.320  22.562   4.730  0.1955 -0.1940 -0.0724
    1DIPC   D3B 9227  10.542  22.806   4.523  0.1878 -0.1811  0.3764
    1DIPC   C4B 9228  10.315  23.055   4.289 -0.0282 -0.1548 -0.0485
    1DIPC   NC3 9229   4.182   3.446   6.438 -0.0947  0.3310 -0.0662
    1DIPC   PO4 9230   3.854   3.639   6.334 -0.0193  0.2276 -0.0995
    1DIPC   GL1 9231   4.114   3.780   6.000 -0.0328 -0.0202 -0.1584
    1DIPC   GL2 9232   4.053   4.099   5.929  0.0910 -0.0650 -0.0506
    1DIPC   C1A 9233   4.382   3.538   5.713 -0.0247 -0.2736 -0.1167
    1DIPC   D2A 9234   4.697   3.483   5.374  0.2721  0.2663  0.0921
    1DIPC   D3A 9235   4.365   3.702   5.182 -0.0407 -0.3603 -0.1750
    1DIPC   C4A 9236   4.384   3.466   4.767 -0.2086 -0.0406  0.1580
    1DIPC   C1B 9237   3.974   3.893   5.584 -0.0486 -0.2091 -0.0854
    1DIPC   D2B 9238   3.850   3.746   5.249 -0.2789  0.2052  0.1744
    1DIPC   D3B 9239   3.770   3.439   4.997  0.0005  0.1294 -0.1297
    1DIPC   C4B 9240   3.292   3.267   5.012  0.0800 -0.1517  0.0512
    1DIPC   NC3 9241   9.347  22.250   5.874 -0.1752  0.1786 -0.0517
    1DIPC   PO4 9242   9.673  22.268   5.856 -0.0468  0.0740  0.0004
    1DIPC   GL1 9243   9.695  21.927   5.548 -0.0449 -0.0887  0.0508
    1DIPC   GL2 9244   9.353  21.973   5.473  0.0369 -0.0562 -0.1670
    1DIPC   C1A 9245   9.642  21.526   5.409 -0.1035 -0.3312  0.3779
    1DIPC   D2A 9246   9.769  21.233   5.102 -0.2539 -0.0016 -0.0042
    1DIPC   D3A 9247   9.942  21.332   4.588  0.2068 -0.0924 -0.2837
    1DIPC   C4A 9248  10.137  21.695   4.427  0.2250 -0.0833  0.1643
    1DIPC   C1B 9249   9.503  21.983   5.098  0.2485 -0.0057 -0.1366
    1DIPC   D2B 9250   9.724  21.884   4.709 -0.0047  0.2169  0.3015
    1DIPC   D3B 9251   9.899  21.653   4.995 -0.2237 -0.0775 -0.0760
    1DIPC   C4B 9252  10.283  21.383   4.952  0.1557  0.0135  0.2059
    1DIPC   NC3 9253   1.443   5.993   6.853 -0.0561 -0.2937  0.1538
    1DIPC   PO4 9254   1.886   5.748   6.944 -0.1631  0.0139  0.1360
    1DIPC   GL1 9255   1.722   5.754   6.525  0.0467  0.0771 -0.0214
    1DIPC   GL2 9256   1.380   5.655   6.318  0.4797 -0.4484 -0.1158
    1DIPC   C1A 9257   1.912   5.989   6.198 -0.0742  0.1631 -0.3303
    1DIPC   D2A 9258   2.131   6.062   5.776 -0.0005  0.1425  0.0969
    1DIPC   D3A 9259   1.792   5.816   5.638  0.2750 -0.1874 -0.0085
    1DIPC   C4A 9260   1.383   6.120   5.507 -0.1975  0.2957 -0.3894
    1DIPC   C1B 9261   1.204   5.909   5.895 -0.0121 -0.0153 -0.1169
    1DIPC   D2B 9262   1.021   5.758   5.517 -0.2067  0.2267 -0.0272
    1DIPC   D3B 9263   0.989   5.706   5.000 -0.0633  0.0537 -0.5597
    1DIPC   C4B 9264   1.269   5.421   4.805 -0.0401 -0.1029 -0.1242
    1DIPC   NC3 9265  22.860  11.506   6.707 -0.1891  0.1553  0.0384
    1DIPC   PO4 9266  22.964  11.517   6.290  0.2114 -0.2152 -0.0216
    1DIPC   GL1 9267  22.939  11.483   5.843  0.3775 -0.2196  0.1527
    1DIPC   GL2 9268  23.338  11.519   5.762  0.3228 -0.2678  0.1206
    1DIPC   C1A 9269  22.684  11.515   5.529  0.1099  0.0062 -0.0758
    1DIPC   D2A 9270  22.644  11.353   5.099 -0.0397 -0.1614 -0.1903
    1DIPC   D3A 9271  23.014  11.647   5.015  0.3706 -0.1539 -0.0088
    1DIPC   C4A 9272  23.119  11.790   4.476  0.3033  0.1129 -0.2699
    1DIPC   C1B 9273  23.283  11.410   5.387 -0.1011 -0.1551  0.1511
    1DIPC   D2B 9274  23.156  11.201   4.949 -0.1301 -0.1228 -0.2174
    1DIPC   D3B 9275  22.864  11.327   4.570  0.0919 -0.0730  0.2264
    1DIPC   C4B 9276  22.651  11.017   4.376 -0.1550 -0.0814  0.0948
    1DIPC   NC3 9277   8.012   0.546   7.162  0.2051 -0.2381 -0.0587
    1DIPC   PO4 9278   8.282   0.244   7.091 -0.0632 -0.0832 -0.2481
    1DIPC   GL1 9279   8.473   0.104   6.664  0.1951  0.2536  0.1918
    1DIPC   GL2 9280   8.862   0.091   6.649 -0.1093  0.2812  0.1236
    1DIPC   C1A 9281   8.305   0.104   6.222 -0.2864 -0.0007  0.4191
    1DIPC   D2A 9282   8.591   0.193   5.876 -0.1192  0.3255 -0.1000
    1DIPC   D3A 9283   8.327  -0.090   5.593 -0.0981 -0.1949 -0.0866
    1DIPC   C4A 9284   7.890   0.100   5.461 -0.0706  0.3625 -0.0227
    1DIPC   C1B 9285   9.011   0.324   6.267 -0.0453 -0.2934 -0.0226
    1DIPC   D2B 9286   9.271   0.322   5.779 -0.0813 -0.1754 -0.0518
    1DIPC   D3B 9287   8.969   0.270   5.496 -0.2075  0.4107  0.1150
    1DIPC   C4B 9288   8.967   0.589   5.229 -0.0421 -0.0669 -0.0111
    1DIPC   NC3 9289  27.235   2.321   6.859 -0.0163  0.4335  0.0714
    1DIPC   PO4 9290  27.730   2.366   6.840 -0.2484  0.2518  0.2872
    1DIPC   GL1 9291  27.844   2.482   6.418 -0.1028  0.2353 -0.0450
    1DIPC   GL2 9292  27.489   2.458   6.430  0.0079  0.0162 -0.1898
    1DIPC   C1A 9293  27.956   2.660   6.084 -0.1470  0.0256  0.2521
    1DIPC   D2A 9294  27.885   2.598   5.720 -0.0881 -0.0455 -0.2358
    1DIPC   D3A 9295  28.130   2.299   5.561  0.0357 -0.1770 -0.1734
    1DIPC   C4A 9296  28.398   1.926   5.730  0.0120 -0.3028  0.1275
    1DIPC   C1B 9297  27.287   2.105   6.253 -0.3098 -0.0804  0.0836
    1DIPC   D2B 9298  27.373   1.904   5.856  0.2124  0.3151 -0.3033
    1DIPC   D3B 9299  27.146   2.068   5.600  0.2009 -0.2587  0.1936
    1DIPC   C4B 9300  27.232   2.519   5.409 -0.2239 -0.3099  0.0459
    1DIPC   NC3 9301  13.625  28.523   7.159 -0.1598  0.0986 -0.0663
    1DIPC   PO4 9302  13.819  28.844   7.000  0.0635 -0.0971  0.2984
    1DIPC   GL1 9303  13.775  28.798   6.606 -0.0340 -0.1180 -0.0461
    1DIPC   GL2 9304  13.959  29.089   6.380 -0.0118  0.2934 -0.0345
    1DIPC   C1A 9305  13.731  28.595   6.249 -0.2884 -0.0926 -0.1012
    1DIPC   D2A 9306  13.695  28.718   5.809  0.0337  0.0509 -0.0640
    1DIPC   D3A 9307  13.443  28.695   5.520 -0.2581 -0.0954  0.0094
    1DIPC   C4A 9308  13.478  28.262   5.290  0.4000 -0.1486  0.0543
    1DIPC   C1B 9309  13.671  29.136   6.041 -0.1024 -0.1611 -0.0578
    1DIPC   D2B 9310  13.355  29.385   6.094  0.0998  0.2341  0.3419
    1DIPC   D3B 9311  13.453  29.193   5.601 -0.0371  0.1952 -0.1259
    1DIPC   C4B 9312  13.593  29.499   5.325 -0.1622 -0.0964 -0.1403
    1DIPC   NC3 9313   5.090   6.247   6.562  0.0069  0.0912 -0.0154
    1DIPC   PO4 9314   5.431   6.016   6.782 -0.0504 -0.0090  0.0296
    1DIPC   GL1 9315   5.566   6.105   6.336  0.0559 -0.0225 -0.1735
    1DIPC   GL2 9316   5.316   6.304   6.144  0.0948  0.0102  0.0888
    1DIPC   C1A 9317   5.780   5.821   5.929 -0.1412 -0.0503 -0.0346
    1DIPC   D2A 9318   5.757   5.844   5.453  0.1043 -0.3551 -0.2268
    1DIPC   D3A 9319   6.178   5.971   5.655  0.3407 -0.0001 -0.0788
    1DIPC   C4A 9320   6.161   6.167   6.029 -0.1301  0.0988 -0.1835
    1DIPC   C1B 9321   5.662   6.291   5.784  0.0641 -0.1561 -0.0206
    1DIPC   D2B 9322   5.910   6.364   5.405  0.2044 -0.1724 -0.3603
    1DIPC   D3B 9323   6.077   6.836   5.251 -0.0378  0.2056  0.0361
    1DIPC   C4B 9324   5.767   7.091   5.015 -0.1742 -0.1401  0.1890
    1DIPC   NC3 9325  24.438  29.496   6.668  0.0056 -0.2082 -0.1197
    1DIPC   PO4 9326  24.769  29.713   6.962  0.1757 -0.2485 -0.1840
    1DIPC   GL1 9327  24.695  29.972   6.540 -0.2277  0.0883  0.0689
    1DIPC   GL2 9328  24.816  29.683   6.333 -0.0123 -0.2512 -0.1983
    1DIPC   C1A 9329  24.568  30.175   6.143 -0.0044  0.1375  0.2604
    1DIPC   D2A 9330  24.210  30.233   5.916 -0.0027 -0.0352  0.2136
    1DIPC   D3A 9331  24.120  30.482   5.522 -0.2060  0.1217  0.4271
    1DIPC   C4A 9332  24.290  30.489   5.047  0.0354 -0.3327  0.1178
    1DIPC   C1B 9333  24.832  29.325   6.024  0.0193  0.2477 -0.2064
    1DIPC   D2B 9334  25.054  29.072   5.811 -0.2864 -0.1044 -0.1061
    1DIPC   D3B 9335  24.649  28.962   5.709 -0.1006  0.2001 -0.1743
    1DIPC   C4B 9336  24.474  29.335   5.702  0.3072 -0.0772 -0.4066
    1DIPC   NC3 9337   1.381  29.806   6.736  0.0979 -0.2780  0.0054
    1DIPC   PO4 9338   1.704  29.476   6.646  0.2489  0.0276 -0.0572
    1DIPC   GL1 9339   1.494  29.351   6.283  0.2236  0.1134 -0.1103
    1DIPC   GL2 9340   1.391  29.633   6.181 -0.1350  0.3480 -0.0636
    1DIPC   C1A 9341   1.307  28.935   6.181 -0.2006  0.0373  0.1258
    1DIPC   D2A 9342   1.338  28.564   6.190  0.2219 -0.1900 -0.0467
    1DIPC   D3A 9343   1.319  28.590   5.701 -0.1302  0.1336  0.0206
    1DIPC   C4A 9344   0.937  28.679   5.469  0.2543 -0.2054 -0.3193
    1DIPC   C1B 9345   1.578  29.951   6.067 -0.1221 -0.0303 -0.0389
    1DIPC   D2B 9346   1.471  30.269   5.747  0.1850  0.0435 -0.4201
    1DIPC   D3B 9347   1.753  30.523   5.848  0.0329 -0.0708 -0.0445
    1DIPC   C4B 9348   1.796  30.911   5.660 -0.0476  0.0473  0.0394
    1DIPC   NC3 9349   1.053   7.362   6.756 -0.3169  0.2884  0.1498
    1DIPC   PO4 9350   1.244   7.152   6.323  0.1637 -0.1979 -0.0674
    1DIPC   GL1 9351   1.425   7.561   6.136  0.1773  0.0078  0.2783
    1DIPC   GL2 9352   1.660   7.685   6.139 -0.1339 -0.1301 -0.1329
    1DIPC   C1A 9353   1.315   7.730   5.767  0.0468 -0.0034 -0.0096
    1DIPC   D2A 9354   1.045   7.885   5.436  0.2157 -0.1719 -0.0330
    1DIPC   D3A 9355   1.352   8.199   5.513 -0.3596  0.1205 -0.0985
    1DIPC   C4A 9356   1.655   8.087   5.785  0.3791 -0.0849 -0.1375
    1DIPC   C1B 9357   1.937   7.682   5.762  0.2259 -0.1621  0.1165
    1DIPC   D2B 9358   2.114   7.514   5.454 -0.1023 -0.2441 -0.0001
    1DIPC   D3B 9359   2.199   7.725   5.107  0.3729  0.0352  0.3671
    1DIPC   C4B 9360   1.867   7.739   4.968  0.2750 -0.1990 -0.3571
    1DIPC   NC3 9361  19.830  25.490   7.169 -0.0594 -0.3819 -0.1510
    1DIPC   PO4 9362  19.943  25.038   6.949 -0.0167 -0.1620 -0.0485
    1DIPC   GL1 9363  19.856  24.932   6.453 -0.0514  0.1000  0.0204
    1DIPC   GL2 9364  19.718  25.286   6.366 -0.1647 -0.0283 -0.1075
    1DIPC   C1A 9365  19.902  24.669   5.958  0.1088  0.2629  0.1511
    1DIPC   D2A 9366  19.879  24.699   5.567  0.0401 -0.0735 -0.1597
    1DIPC   D3A 9367  20.195  24.779   5.520  0.1420  0.0643  0.1457
    1DIPC   C4A 9368  20.122  25.145   5.301  0.0806  0.1194 -0.0300
    1DIPC   C1B 9369  19.709  25.282   5.933  0.2915  0.0615  0.4095
    1DIPC   D2B 9370  19.578  25.161   5.575 -0.1495 -0.1052 -0.1415
    1DIPC   D3B 9371  19.495  25.571   5.374 -0.1604  0.0594 -0.1952
    1DIPC   C4B 9372  19.856  25.682   5.164  0.1910 -0.3865 -0.3629
    1DIPC   NC3 9373   2.773  25.484   5.891 -0.2277 -0.1046  0.3155
    1DIPC   PO4 9374   2.983  25.928   5.991  0.2507 -0.0867 -0.1776
    1DIPC   GL1 9375   2.987  25.986   5.563 -0.4055 -0.2172  0.1112
    1DIPC   GL2 9376   3.157  25.765   5.296 -0.1757  0.0032  0.1858
    1DIPC   C1A 9377   3.302  26.255   5.326 -0.0495 -0.2845 -0.1791
    1DIPC   D2A 9378   3.182  26.705   5.189 -0.0637  0.4419 -0.0739
    1DIPC   D3A 9379   3.275  26.602   4.795  0.0912 -0.4642 -0.4146
    1DIPC   C4A 9380   3.551  27.023   4.748 -0.2885  0.0930 -0.1936
    1DIPC   C1B 9381   3.492  25.514   4.927  0.0352  0.0287 -0.1652
    1DIPC   D2B 9382   3.329  25.360   4.527 -0.0684  0.1026  0.0132
    1DIPC   D3B 9383   3.727  25.529   4.334  0.1649  0.3132  0.2724
    1DIPC   C4B 9384   3.771  25.367   3.966 -0.0811 -0.0753  0.2139
    1DIPC   NC3 9385  25.221  26.327   6.507 -0.2201  0.0468 -0.0453
    1DIPC   PO4 9386  25.700  26.405   6.341 -0.3180 -0.1587  0.2575
    1DIPC   GL1 9387  25.816  26.130   6.037 -0.4672  0.0627  0.0199
    1DIPC   GL2 9388  25.820  26.406   5.721 -0.2829  0.0666  0.1802
    1DIPC   C1A 9389  25.960  25.877   5.686 -0.0319  0.0988 -0.2138
    1DIPC   D2A 9390  25.930  25.843   5.273 -0.0096 -0.0077 -0.3107
    1DIPC   D3A 9391  26.278  25.646   5.198 -0.2402 -0.2864  0.1006
    1DIPC   C4A 9392  26.654  25.305   5.032 -0.0705  0.1692  0.2966
    1DIPC   C1B 9393  25.927  26.562   5.260  0.2972 -0.0199 -0.1816
    1DIPC   D2B 9394  25.773  26.266   5.019 -0.2328  0.2238 -0.1498
    1DIPC   D3B 9395  25.592  26.506   4.715 -0.0118 -0.2752  0.2956
    1DIPC   C4B 9396  26.066  26.522   4.476 -0.0446 -0.0735 -0.2769
    1DIPC   NC3 9397   1.572  25.417   5.677 -0.0782 -0.0043 -0.1784
    1DIPC   PO4 9398   1.386  25.038   5.544 -0.0941 -0.1019  0.1001
    1DIPC   GL1 9399   1.691  25.211   5.263 -0.2320  0.1075  0.1995
    1DIPC   GL2 9400   1.842  25.513   5.251  0.1932 -0.3792  0.0527
    1DIPC   C1A 9401   1.839  25.158   4.899  0.0701 -0.2820 -0.0557
    1DIPC   D2A 9402   2.079  25.320   4.523 -0.0084  0.1532 -0.2148
    1DIPC   D3A 9403   1.841  25.045   4.239 -0.0734  0.2839 -0.0807
    1DIPC   C4A 9404   1.554  24.999   3.930 -0.2072  0.1108 -0.1233
    1DIPC   C1B 9405   1.802  25.643   4.861 -0.0202  0.1395  0.3103
    1DIPC   D2B 9406   1.618  25.610   4.398 -0.0375 -0.0576  0.0325
    1DIPC   D3B 9407   1.182  25.611   4.534 -0.1295  0.0228  0.2533
    1DIPC   C4B 9408   0.907  25.229   4.460 -0.1078 -0.0165 -0.0636
    1DIPC   NC3 9409   0.575  10.867   6.555 -0.0210  0.2489  0.2247
    1DIPC   PO4 9410   0.395  10.479   6.369 -0.0804  0.0605 -0.3067
    1DIPC   GL1 9411   0.323  10.377   5.881  0.2704  0.1153 -0.0949
    1DIPC   GL2 9412   0.061  10.518   5.858 -0.3505  0.2097 -0.0861
    1DIPC   C1A 9413   0.190  10.238   5.460  0.0667  0.0047  0.2308
    1DIPC   D2A 9414   0.368  10.205   5.047 -0.3703 -0.0854  0.1979
    1DIPC   D3A 9415   0.187  10.444   4.919 -0.2388  0.2072  0.1356
    1DIPC   C4A 9416   0.143  10.713   5.211 -0.0415  0.2361  0.1112
    1DIPC   C1B 9417  -0.306  10.349   5.662  0.1315 -0.0179  0.1300
    1DIPC   D2B 9418  -0.692  10.307   5.395  0.2322  0.0718 -0.1265
    1DIPC   D3B 9419  -0.742  10.106   4.959 -0.1334 -0.1260  0.1029
    1DIPC   C4B 9420  -1.124  10.102   4.868  0.0214  0.0412  0.0331
    1DIPC   NC3 9421  17.811   6.559   6.591  0.0143  0.1120  0.2673
    1DIPC   PO4 9422  17.973   6.992   6.549 -0.1825  0.0455  0.2094
    1DIPC   GL1 9423  18.179   7.046   6.113  0.0236  0.0746 -0.2604
    1DIPC   GL2 9424  18.251   7.369   6.166  0.1557 -0.1205 -0.0833
    1DIPC   C1A 9425  18.029   7.049   5.630 -0.1394 -0.1608 -0.2247
    1DIPC   D2A 9426  17.800   7.070   5.248 -0.1676 -0.2385 -0.4417
    1DIPC   D3A 9427  18.103   7.274   4.894  0.2426 -0.0979 -0.0382
    1DIPC   C4A 9428  18.516   7.237   4.965  0.3312  0.2224 -0.0788
    1DIPC   C1B 9429  17.943   7.462   5.890 -0.0857  0.0765  0.2133
    1DIPC   D2B 9430  17.684   7.712   6.031 -0.2885  0.0005  0.1358
    1DIPC   D3B 9431  17.235   7.703   6.100 -0.0495  0.0190 -0.0846
    1DIPC   C4B 9432  17.027   7.835   5.710  0.0989 -0.1890  0.1939
    1DIPC   NC3 9433   4.584   0.282   6.753 -0.0500  0.0575  0.0152
    1DIPC   PO4 9434   4.842   0.184   6.308  0.2898  0.1458 -0.1272
    1DIPC   GL1 9435   5.001   0.291   5.985 -0.0753  0.0359 -0.0664
    1DIPC   GL2 9436   5.225   0.533   6.059 -0.4265 -0.1256 -0.1985
    1DIPC   C1A 9437   4.906   0.459   5.610  0.2003 -0.0840  0.0960
    1DIPC   D2A 9438   4.821   0.313   5.099 -0.1055  0.1700 -0.0710
    1DIPC   D3A 9439   4.568   0.006   5.179 -0.2865 -0.0363  0.1881
    1DIPC   C4A 9440   4.235   0.136   4.794 -0.1511  0.0701 -0.1884
    1DIPC   C1B 9441   5.242   0.814   5.700 -0.0544 -0.1672 -0.2174
    1DIPC   D2B 9442   5.421   1.196   5.450  0.0440 -0.2458 -0.3325
    1DIPC   D3B 9443   5.003   1.104   5.341 -0.2194  0.3469 -0.0044
    1DIPC   C4B 9444   4.738   0.805   5.216 -0.1298  0.0561  0.0553
    1DIPC   NC3 9445  12.367   9.503   7.018 -0.0336 -0.0773 -0.0513
    1DIPC   PO4 9446  12.097   9.166   6.817  0.3001 -0.0232  0.0599
    1DIPC   GL1 9447  11.901   9.245   6.535 -0.2992 -0.1319  0.0686
    1DIPC   GL2 9448  11.602   9.221   6.547  0.0990 -0.0119  0.0345
    1DIPC   C1A 9449  11.966   9.500   6.068  0.1901 -0.0471 -0.2365
    1DIPC   D2A 9450  12.081   9.624   5.593 -0.0243  0.1413 -0.1781
    1DIPC   D3A 9451  11.913   9.305   5.304  0.0098 -0.2156 -0.0366
    1DIPC   C4A 9452  11.724   9.406   4.773 -0.0659 -0.0920 -0.0005
    1DIPC   C1B 9453  11.424   9.375   6.075  0.1178  0.0356  0.2242
    1DIPC   D2B 9454  11.603   9.536   5.725  0.2185 -0.1247  0.1337
    1DIPC   D3B 9455  11.430   9.352   5.354 -0.3300 -0.1068 -0.0140
    1DIPC   C4B 9456  11.273   9.568   5.027  0.1258  0.1272  0.1065
    1DIPC   NC3 9457   1.125  18.337   6.524  0.2039 -0.2482  0.0290
    1DIPC   PO4 9458   1.406  18.046   6.387 -0.1226 -0.1131 -0.0653
    1DIPC   GL1 9459   1.411  18.085   5.950 -0.0391  0.2664  0.0958
    1DIPC   GL2 9460   1.263  17.706   5.861  0.1195 -0.0107 -0.1341
    1DIPC   C1A 9461   1.242  18.411   5.644 -0.1643  0.0652 -0.0187
    1DIPC   D2A 9462   1.619  18.615   5.406  0.0130 -0.1126 -0.0522
    1DIPC   D3A 9463   1.629  18.129   5.397  0.1565  0.2378 -0.1220
    1DIPC   C4A 9464   1.697  17.846   5.120 -0.2163 -0.0501  0.0290
    1DIPC   C1B 9465   1.069  17.903   5.487  0.2356 -0.2788  0.1798
    1DIPC   D2B 9466   0.855  17.973   5.119 -0.3788 -0.0487  0.1225
    1DIPC   D3B 9467   0.834  17.926   4.622  0.4672  0.2538 -0.0816
    1DIPC   C4B 9468   1.037  18.070   4.229  0.1064 -0.3600  0.2294
    1DIPC   NC3 9469  23.092  14.069   6.326  0.0820 -0.2419 -0.0961
    1DIPC   PO4 9470  23.402  14.373   6.250  0.1184 -0.3375  0.0454
    1DIPC   GL1 9471  23.375  14.167   5.786  0.0503 -0.1308  0.0238
    1DIPC   GL2 9472  23.112  14.164   5.781  0.1865  0.2706  0.2319
    1DIPC   C1A 9473  23.645  14.159   5.410  0.0975 -0.2664  0.1418
    1DIPC   D2A 9474  23.731  13.833   5.115  0.1980  0.0529 -0.1338
    1DIPC   D3A 9475  23.769  13.952   4.728 -0.3319 -0.2712  0.1739
    1DIPC   C4A 9476  23.949  13.700   4.445 -0.1661 -0.3005 -0.0215
    1DIPC   C1B 9477  23.119  14.283   5.310  0.3489 -0.0702  0.0194
    1DIPC   D2B 9478  23.363  14.504   5.079 -0.0771 -0.1230  0.1284
    1DIPC   D3B 9479  22.943  14.437   4.822 -0.2086 -0.4656 -0.0599
    1DIPC   C4B 9480  22.679  14.154   4.969 -0.0868  0.2486 -0.1924
    1DIPC   NC3 9481   0.932  15.722   6.230 -0.0743  0.2169  0.1294
    1DIPC   PO4 9482   0.940  15.476   5.807  0.1683  0.3801 -0.0233
    1DIPC   GL1 9483   1.089  15.540   5.405  0.2343 -0.4233 -0.0169
    1DIPC   GL2 9484   0.870  15.802   5.378  0.0869 -0.1703 -0.3643
    1DIPC   C1A 9485   1.081  15.252   5.007 -0.0454 -0.1466  0.1290
    1DIPC   D2A 9486   0.892  15.377   4.571  0.1258 -0.3171  0.0174
    1DIPC   D3A 9487   1.317  15.360   4.461 -0.3255 -0.0108  0.1430
    1DIPC   C4A 9488   1.488  15.822   4.459  0.0149  0.0562  0.1106
    1DIPC   C1B 9489   0.903  15.734   4.963 -0.2284 -0.0520  0.1079
    1DIPC   D2B 9490   1.132  16.045   4.713  0.1499 -0.0406  0.1701
    1DIPC   D3B 9491   0.722  16.182   4.608  0.0614 -0.0722  0.0063
    1DIPC   C4B 9492   0.806  16.360   4.270  0.0177  0.2060 -0.2603
    1DIPC   NC3 9493   9.390  24.723   6.252  0.0911  0.1284  0.0241
    1DIPC   PO4 9494   9.001  24.817   6.107  0.1043  0.0469  0.2787
    1DIPC   GL1 9495   9.036  24.780   5.707  0.2826  0.1360  0.1195
    1DIPC   GL2 9496   8.757  24.892   5.651  0.0292 -0.5035  0.0240
    1DIPC   C1A 9497   9.327  24.923   5.482  0.1735  0.0789 -0.0627
    1DIPC   D2A 9498   9.635  24.891   5.129  0.0747  0.2155 -0.1903
    1DIPC   D3A 9499   9.878  25.139   4.895  0.1113  0.1141 -0.3519
    1DIPC   C4A 9500   9.847  25.453   4.585 -0.0599  0.0361 -0.1462
    1DIPC   C1B 9501   8.852  24.691   5.259  0.2273 -0.2520  0.1042
    1DIPC   D2B 9502   9.089  24.934   4.957 -0.0144  0.0476  0.1151
    1DIPC   D3B 9503   9.020  24.758   4.701 -0.3478  0.2856 -0.1064
    1DIPC   C4B 9504   9.304  24.421   4.502 -0.1464  0.1088 -0.0013
    1DIPC   NC3 9505  27.948  28.349   6.699  0.0279  0.1263  0.0497
    1DIPC   PO4 9506  27.675  28.421   6.396 -0.2735  0.0197 -0.1371
    1DIPC   GL1 9507  27.765  28.564   5.961 -0.4918 -0.1295  0.1983
    1DIPC   GL2 9508  27.942  28.536   5.706  0.2549 -0.1107  0.1475
    1DIPC   C1A 9509  27.477  28.642   5.611 -0.0870  0.0557 -0.0604
    1DIPC   D2A 9510  27.316  28.814   5.259  0.1436 -0.2975 -0.0789
    1DIPC   D3A 9511  27.520  29.152   4.970  0.1223  0.0692  0.0747
    1DIPC   C4A 9512  27.228  29.425   4.737  0.0492 -0.0242 -0.2281
    1DIPC   C1B 9513  28.201  28.189   5.637 -0.0479  0.1839  0.1684
    1DIPC   D2B 9514  28.501  27.994   5.657  0.0590 -0.0754 -0.2591
    1DIPC   D3B 9515  28.523  28.212   5.289  0.1090  0.1041  0.1860
    1DIPC   C4B 9516  28.607  28.039   4.832  0.1604  0.2749  0.1964
    1DIPC   NC3 9517   2.895   0.034   6.373 -0.1942 -0.1856  0.2434
    1DIPC   PO4 9518   2.531  -0.026   6.649 -0.1101  0.0030  0.0761
    1DIPC   GL1 9519   2.292   0.049   6.270  0.1556  0.1714  0.2640
    1DIPC   GL2 9520   2.521   0.164   6.021 -0.1850  0.0215 -0.3861
    1DIPC   C1A 9521   2.029   0.186   5.845  0.1167  0.3625  0.1203
    1DIPC   D2A 9522   1.737  -0.057   5.584  0.1500 -0.3515 -0.4054
    1DIPC   D3A 9523   1.743   0.249   5.388  0.2939 -0.0859 -0.0251
    1DIPC   C4A 9524   2.040   0.436   5.181 -0.1735  0.2167 -0.1600
    1DIPC   C1B 9525   2.379  -0.173   5.805  0.0175 -0.0470 -0.0289
    1DIPC   D2B 9526   2.230  -0.154   5.332  0.0711 -0.1620 -0.0255
    1DIPC   D3B 9527   1.947  -0.440   5.139 -0.0544  0.0415  0.1712
    1DIPC   C4B 9528   2.127  -0.503   4.741  0.0415 -0.1877 -0.2728
    1DIPC   NC3 9529   0.534   0.179   6.793  0.1616  0.0091  0.1740
    1DIPC   PO4 9530   0.389  -0.148   6.413 -0.0386 -0.1890  0.0300
    1DIPC   GL1 9531   0.240  -0.146   6.083  0.2706  0.1250  0.1511
    1DIPC   GL2 9532   0.155   0.114   5.961  0.0108 -0.1182  0.0262
    1DIPC   C1A 9533   0.248  -0.360   5.564 -0.2116  0.1260  0.0937
    1DIPC   D2A 9534   0.386  -0.160   5.171  0.1016  0.2721 -0.1935
    1DIPC   D3A 9535   0.290  -0.350   4.739  0.0390 -0.1568  0.2298
    1DIPC   C4A 9536  -0.110  -0.308   4.387 -0.1215 -0.0875 -0.0505
    1DIPC   C1B 9537   0.435   0.178   5.664  0.3052 -0.1962  0.1877
    1DIPC   D2B 9538   0.742   0.102   5.398 -0.3709  0.3969  0.0872
    1DIPC   D3B 9539   0.828  -0.354   5.368 -0.1998 -0.1723 -0.1822
    1DIPC   C4B 9540   0.971  -0.517   4.971 -0.2495  0.1074  0.0482
    1DIPC   NC3 9541   4.463  27.547   6.510  0.2052 -0.1671 -0.4026
    1DIPC   PO4 9542   4.306  27.215   6.252 -0.1168 -0.2436  0.0283
    1DIPC   GL1 9543   4.673  27.391   6.011  0.0059 -0.0483 -0.1545
    1DIPC   GL2 9544   4.958  27.447   6.244  0.2234 -0.0786  0.1074
    1DIPC   C1A 9545   4.950  27.176   5.822 -0.2242  0.0679 -0.2247
    1DIPC   D2A 9546   5.340  27.243   6.047  0.0956  0.0706  0.0589
    1DIPC   D3A 9547   5.506  27.405   6.414 -0.1129 -0.0036  0.1181
    1DIPC   C4A 9548   5.909  27.484   6.450 -0.1316 -0.1636  0.0769
    1DIPC   C1B 9549   4.987  27.791   5.883 -0.0184 -0.0373 -0.0400
    1DIPC   D2B 9550   4.889  28.200   5.877  0.2480 -0.0405  0.0205
    1DIPC   D3B 9551   5.161  28.547   5.968  0.1470 -0.1289  0.1532
    1DIPC   C4B 9552   5.379  28.843   5.566  0.0051 -0.1679  0.2018
    1DIPC   NC3 9553  18.531   4.109   6.088  0.4234 -0.0311  0.1072
    1DIPC   PO4 9554  18.754   3.810   5.938 -0.1284  0.1435 -0.2131
    1DIPC   GL1 9555  18.546   3.895   5.643 -0.4386  0.2306  0.1996
    1DIPC   GL2 9556  18.585   3.634   5.491  0.2162  0.0852  0.2153
    1DIPC   C1A 9557  18.403   3.975   5.205 -0.3197 -0.0816  0.1331
    1DIPC   D2A 9558  18.138   4.004   4.886  0.2711 -0.4987  0.1157
    1DIPC   D3A 9559  17.812   3.740   4.758  0.0512 -0.2892 -0.3166
    1DIPC   C4A 9560  18.008   3.391   4.626 -0.1726 -0.1479  0.2107
    1DIPC   C1B 9561  18.971   3.294   5.431 -0.1245  0.1923  0.1751
    1DIPC   D2B 9562  19.202   3.225   5.127 -0.0590 -0.1768  0.0427
    1DIPC   D3B 9563  19.080   3.473   4.727 -0.0363 -0.0195 -0.0431
    1DIPC   C4B 9564  19.029   3.083   4.395 -0.0857  0.2236 -0.2692
    1DIPC   NC3 9565  23.389  11.208   6.320 -0.1616  0.1712 -0.0118
    1DIPC   PO4 9566  23.326  10.703   6.271 -0.3034 -0.1034 -0.3050
    1DIPC   GL1 9567  23.480  10.772   5.866  0.2190  0.1344  0.0696
    1DIPC   GL2 9568  23.525  11.076   5.738 -0.2257  0.2382 -0.2254
    1DIPC   C1A 9569  23.512  10.493   5.529 -0.0297 -0.0774 -0.0260
    1DIPC   D2A 9570  23.787  10.291   5.238 -0.1161 -0.0849  0.3008
    1DIPC   D3A 9571  23.724  10.659   4.999  0.0496  0.7247 -0.0398
    1DIPC   C4A 9572  23.572  10.706   4.591 -0.0211 -0.2188  0.0501
    1DIPC   C1B 9573  23.647  11.042   5.294  0.0253 -0.0630  0.1249
    1DIPC   D2B 9574  23.942  11.393   5.172  0.2738 -0.0244  0.0495
    1DIPC   D3B 9575  23.975  11.503   5.609  0.1282  0.0680 -0.3156
    1DIPC   C4B 9576  24.278  11.771   5.615  0.1043  0.0596 -0.0613
    1DIPC   NC3 9577  25.962  22.511   6.996  0.0575  0.1966  0.1073
    1DIPC   PO4 9578  26.059  22.433   6.591 -0.0568  0.1392  0.2109
    1DIPC   GL1 9579  26.124  22.193   6.155  0.1006  0.0752  0.0328
    1DIPC   GL2 9580  25.847  22.383   6.124  0.3456  0.1527 -0.0053
    1DIPC   C1A 9581  25.923  21.913   5.814 -0.3522  0.1680 -0.2428
    1DIPC   D2A 9582  25.601  21.813   5.492 -0.1181  0.1643  0.0506
    1DIPC   D3A 9583  25.948  21.793   5.136 -0.1175 -0.1171  0.2350
    1DIPC   C4A 9584  26.434  21.899   5.083 -0.0907 -0.0498 -0.0445
    1DIPC   C1B 9585  26.122  22.428   5.748  0.0590  0.2287  0.2308
    1DIPC   D2B 9586  26.285  22.714   5.310  0.0612  0.1211  0.0059
    1DIPC   D3B 9587  26.166  22.922   5.683 -0.0363 -0.1268 -0.1564
    1DIPC   C4B 9588  25.909  23.276   5.754 -0.1624  0.3051  0.0206
    1DIPC   NC3 9589   3.677  22.792   5.667  0.2033  0.1565 -0.1993
    1DIPC   PO4 9590   3.426  23.170   5.837  0.2776 -0.0326 -0.1053
    1DIPC   GL1 9591   3.284  23.182   5.489 -0.2678  0.0747  0.1297
    1DIPC   GL2 9592   3.311  22.785   5.239 -0.0793  0.2677 -0.0516
    1DIPC   C1A 9593   3.378  23.227   5.103 -0.0953 -0.1541  0.0608
    1DIPC   D2A 9594   3.557  23.428   4.765 -0.0348  0.2510 -0.1951
    1DIPC   D3A 9595   3.566  23.000   4.645  0.0482  0.1645  0.0286
    1DIPC   C4A 9596   3.893  22.832   4.572  0.1060 -0.0759 -0.3795
    1DIPC   C1B 9597   3.424  22.534   4.851 -0.4063 -0.1731  0.0739
    1DIPC   D2B 9598   3.619  22.267   4.448 -0.0028  0.1509  0.0709
    1DIPC   D3B 9599   3.376  22.168   4.013  0.1867  0.0193 -0.0168
    1DIPC   C4B 9600   3.543  22.413   3.745 -0.3824  0.0174 -0.2640
    1DIPC   NC3 9601  12.634   8.003   7.222  0.2361 -0.0780  0.1481
    1DIPC   PO4 9602  12.442   7.610   7.154  0.2942 -0.0373  0.0534
    1DIPC   GL1 9603  12.378   7.562   6.758 -0.0905 -0.0445 -0.0637
    1DIPC   GL2 9604  12.668   7.801   6.627  0.2518 -0.3752 -0.0507
    1DIPC   C1A 9605  12.357   7.399   6.369 -0.0042 -0.0772 -0.0315
    1DIPC   D2A 9606  12.226   7.390   5.978  0.1633 -0.0997 -0.2394
    1DIPC   D3A 9607  12.082   7.261   5.671 -0.0345 -0.0901  0.0035
    1DIPC   C4A 9608  12.208   7.543   5.253 -0.0742  0.1888 -0.0170
    1DIPC   C1B 9609  12.788   8.108   6.212 -0.0904  0.6244  0.0691
    1DIPC   D2B 9610  13.204   8.072   6.011  0.0289  0.1118 -0.1673
    1DIPC   D3B 9611  12.979   8.126   5.664 -0.0247  0.2639  0.1166
    1DIPC   C4B 9612  13.285   8.183   5.402 -0.1937  0.0532 -0.3197
    1DIPC   NC3 9613  24.123  16.833   6.666  0.1450  0.0747  0.1408
    1DIPC   PO4 9614  24.119  17.077   6.301  0.1144 -0.0234  0.1864
    1DIPC   GL1 9615  24.242  17.153   5.898 -0.0195  0.0428  0.2643
    1DIPC   GL2 9616  24.439  17.346   5.837 -0.1860 -0.0447  0.1173
    1DIPC   C1A 9617  24.253  17.287   5.401 -0.0540 -0.1341  0.0976
    1DIPC   D2A 9618  24.568  17.288   5.002 -0.0567  0.0354 -0.0401
    1DIPC   D3A 9619  24.611  16.913   4.811  0.0003 -0.1020  0.0340
    1DIPC   C4A 9620  24.747  17.089   4.442 -0.1528 -0.2058  0.0075
    1DIPC   C1B 9621  24.641  17.031   5.570  0.1540  0.0562 -0.2375
    1DIPC   D2B 9622  24.557  16.672   5.328  0.0511 -0.2016  0.0179
    1DIPC   D3B 9623  24.306  16.484   5.748 -0.2170  0.0503 -0.0561
    1DIPC   C4B 9624  23.875  16.246   5.611 -0.1551 -0.0970  0.1407
    1DIPC   NC3 9625   8.634  28.146   7.038  0.2892 -0.0314 -0.1261
    1DIPC   PO4 9626   8.164  28.212   6.970  0.1159 -0.1924  0.1379
    1DIPC   GL1 9627   7.961  28.340   6.477  0.0968  0.2652 -0.2616
    1DIPC   GL2 9628   8.220  28.518   6.368 -0.0657  0.0632  0.0846
    1DIPC   C1A 9629   7.884  28.064   6.107  0.1359 -0.0788 -0.0528
    1DIPC   D2A 9630   7.779  27.771   5.856  0.2620 -0.0566  0.0292
    1DIPC   D3A 9631   7.728  28.054   5.463 -0.0861 -0.0928 -0.0397
    1DIPC   C4A 9632   7.968  27.972   5.088  0.3313  0.0759 -0.1215
    1DIPC   C1B 9633   8.062  28.555   5.975 -0.1159 -0.0160 -0.1397
    1DIPC   D2B 9634   7.681  28.511   5.780 -0.1835  0.0143 -0.0622
    1DIPC   D3B 9635   7.704  28.577   5.286 -0.0558  0.3353  0.0539
    1DIPC   C4B 9636   8.058  28.474   5.038  0.4410 -0.0942  0.0498
    1DIPC   NC3 9637   4.551  29.750   6.166 -0.0701 -0.0787  0.1289
    1DIPC   PO4 9638   4.278  29.826   6.375 -0.2283 -0.2935  0.0683
    1DIPC   GL1 9639   4.423  30.312   6.250  0.0055  0.1042  0.2255
    1DIPC   GL2 9640   4.479  30.236   5.950 -0.2448  0.2620 -0.0427
    1DIPC   C1A 9641   4.250  30.743   6.160  0.2093 -0.1605  0.0919
    1DIPC   D2A 9642   4.075  30.990   5.865  0.3608 -0.0382 -0.1589
    1DIPC   D3A 9643   3.786  30.782   6.017  0.1243  0.4120  0.0964
    1DIPC   C4A 9644   3.396  30.862   5.658 -0.2456  0.1042 -0.0081
    1DIPC   C1B 9645   4.010  30.326   5.831  0.1230 -0.1305  0.2622
    1DIPC   D2B 9646   3.801  30.553   5.532 -0.2073  0.0693 -0.0532
    1DIPC   D3B 9647   3.790  30.352   5.099 -0.1611 -0.0247 -0.1268
    1DIPC   C4B 9648   3.566  29.879   4.985 -0.2934 -0.0895  0.2680
    1DIPC   NC3 9649   8.577  26.213   6.374 -0.1161  0.0265 -0.0472
    1DIPC   PO4 9650   8.179  26.044   6.190  0.2006 -0.0093 -0.3543
    1DIPC   GL1 9651   7.875  26.115   5.933 -0.0291  0.1441  0.1785
    1DIPC   GL2 9652   8.053  25.894   5.611 -0.0091 -0.0370  0.1690
    1DIPC   C1A 9653   7.691  26.247   5.525 -0.2425 -0.4063  0.0203
    1DIPC   D2A 9654   7.801  26.235   5.017 -0.0985 -0.1355  0.1568
    1DIPC   D3A 9655   7.948  26.586   4.839 -0.0771  0.0060  0.0848
    1DIPC   C4A 9656   8.065  26.745   4.474  0.1999  0.0865  0.0171
    1DIPC   C1B 9657   8.215  26.154   5.403 -0.1457 -0.0203 -0.0215
    1DIPC   D2B 9658   8.276  26.464   5.258 -0.0263  0.0518 -0.1463
    1DIPC   D3B 9659   8.672  26.279   5.483 -0.0270  0.3288 -0.2088
    1DIPC   C4B 9660   9.105  26.147   5.246 -0.2577 -0.0600 -0.0078
    1DIPC   NC3 9661   0.099  11.425   6.345 -0.0638 -0.0324  0.1221
    1DIPC   PO4 9662   0.342  11.095   6.125 -0.0099  0.2463  0.0547
    1DIPC   GL1 9663   0.636  10.773   5.937  0.1452 -0.1591 -0.0658
    1DIPC   GL2 9664   0.349  10.892   5.656  0.2328  0.2084  0.0266
    1DIPC   C1A 9665   0.672  10.406   5.577  0.0676  0.0965  0.0751
    1DIPC   D2A 9666   0.763  10.474   5.108 -0.1847 -0.1842 -0.0935
    1DIPC   D3A 9667   0.972  10.836   5.093 -0.0163 -0.0838  0.0369
    1DIPC   C4A 9668   1.329  10.906   4.951  0.0105 -0.0373  0.1756
    1DIPC   C1B 9669   0.778  11.188   5.713  0.0082 -0.0052  0.0684
    1DIPC   D2B 9670   0.824  11.663   5.591 -0.1209 -0.0010 -0.1971
    1DIPC   D3B 9671   0.676  11.591   5.108  0.0097  0.1223 -0.2578
    1DIPC   C4B 9672   0.801  11.798   4.629  0.0523  0.0613 -0.0234
    1DIPC   NC3 9673  23.345  28.305   6.112  0.2956 -0.0939 -0.1511
    1DIPC   PO4 9674  22.914  28.517   6.238  0.1149 -0.0731  0.2040
    1DIPC   GL1 9675  22.978  28.636   5.895  0.0847  0.1996 -0.0580
    1DIPC   GL2 9676  23.125  28.418   5.675  0.0142  0.0313 -0.0139
    1DIPC   C1A 9677  23.071  28.987   5.585  0.1203 -0.1607  0.0974
    1DIPC   D2A 9678  22.967  29.485   5.638 -0.1897 -0.2034 -0.1376
    1DIPC   D3A 9679  22.775  29.317   5.273  0.2879 -0.1398 -0.1627
    1DIPC   C4A 9680  22.523  28.980   5.398  0.1128 -0.3368 -0.0725
    1DIPC   C1B 9681  23.368  28.654   5.305 -0.0061 -0.2456 -0.1504
    1DIPC   D2B 9682  23.730  28.950   5.237  0.1311 -0.1721  0.1556
    1DIPC   D3B 9683  23.754  28.595   4.939  0.0708  0.0317 -0.3198
    1DIPC   C4B 9684  23.346  28.300   4.903 -0.1621  0.2685  0.1307
    1DIPC   NC3 9685   1.808  13.145   6.690  0.1075  0.0269 -0.0663
    1DIPC   PO4 9686   2.026  13.238   6.276 -0.1209 -0.0466  0.1251
    1DIPC   GL1 9687   2.087  13.218   5.883 -0.3215 -0.1644 -0.2987
    1DIPC   GL2 9688   2.387  13.164   5.709  0.3091  0.2299 -0.1906
    1DIPC   C1A 9689   2.011  12.857   5.508  0.1133 -0.0198  0.0077
    1DIPC   D2A 9690   2.070  12.398   5.514  0.0858 -0.0316 -0.2293
    1DIPC   D3A 9691   2.202  12.642   5.071  0.0859 -0.0785 -0.2292
    1DIPC   C4A 9692   2.053  13.042   5.046 -0.1304  0.0139  0.1431
    1DIPC   C1B 9693   2.500  13.022   5.279  0.0724 -0.0444 -0.1284
    1DIPC   D2B 9694   2.614  13.089   4.844  0.4068 -0.0870  0.3045
    1DIPC   D3B 9695   2.372  13.181   4.524 -0.0238  0.0221 -0.1169
    1DIPC   C4B 9696   2.023  13.469   4.630 -0.2627 -0.0183 -0.1457
    1DIPC   NC3 9697  25.372   1.046   7.063  0.3788  0.1704 -0.1781
    1DIPC   PO4 9698  25.685   1.358   6.916  0.0767 -0.0225 -0.2163
    1DIPC   GL1 9699  25.646   1.407   6.432  0.1992  0.1708 -0.0938
    1DIPC   GL2 9700  25.407   1.609   6.356  0.1106  0.0655 -0.2234
    1DIPC   C1A 9701  25.640   0.986   6.184 -0.0841  0.1813  0.4017
    1DIPC   D2A 9702  25.441   0.551   6.230 -0.2669  0.1547 -0.3122
    1DIPC   D3A 9703  25.854   0.558   6.368 -0.1492 -0.0177  0.1582
    1DIPC   C4A 9704  26.052   0.245   6.169  0.3289 -0.2736  0.2962
    1DIPC   C1B 9705  24.946   1.599   6.342  0.2078 -0.2396 -0.1386
    1DIPC   D2B 9706  24.694   1.789   5.945 -0.0836 -0.1790  0.1059
    1DIPC   D3B 9707  24.607   1.511   5.622  0.3247  0.0621 -0.3729
    1DIPC   C4B 9708  24.612   1.664   5.222  0.0194 -0.0389 -0.0490
    1DIPC   NC3 9709  21.811   8.441   7.019 -0.0572  0.0636  0.0400
    1DIPC   PO4 9710  21.899   8.266   6.660 -0.1393 -0.0897  0.0837
    1DIPC   GL1 9711  21.725   8.263   6.254 -0.2192  0.0013 -0.0920
    1DIPC   GL2 9712  22.093   8.194   5.947  0.2362 -0.2558  0.0732
    1DIPC   C1A 9713  21.635   8.037   5.824  0.0482  0.1019 -0.0784
    1DIPC   D2A 9714  21.783   8.056   5.345  0.0960 -0.0949 -0.0449
    1DIPC   D3A 9715  22.163   8.156   5.146 -0.0607 -0.1856  0.0635
    1DIPC   C4A 9716  22.142   8.611   5.107  0.2350  0.1682  0.1117
    1DIPC   C1B 9717  22.304   8.112   5.618 -0.0758 -0.2154 -0.1876
    1DIPC   D2B 9718  22.479   8.450   5.395 -0.0535  0.1129 -0.3996
    1DIPC   D3B 9719  22.874   8.418   5.236 -0.2995  0.0908  0.4117
    1DIPC   C4B 9720  23.142   8.063   5.233  0.0239  0.2895  0.1624
    1DIPC   NC3 9721   1.206  16.533   6.257 -0.1012 -0.0344 -0.0896
    1DIPC   PO4 9722   1.077  16.163   6.138 -0.0448 -0.1248  0.0736
    1DIPC   GL1 9723   0.903  16.404   5.758 -0.2336 -0.2236 -0.1045
    1DIPC   GL2 9724   0.911  16.365   5.449  0.0368  0.1089 -0.0530
    1DIPC   C1A 9725   0.674  16.767   5.550  0.2688 -0.1813 -0.1305
    1DIPC   D2A 9726   0.633  17.014   5.135  0.1635 -0.0199  0.0534
    1DIPC   D3A 9727   0.331  17.238   4.895  0.1784  0.2658  0.2886
    1DIPC   C4A 9728   0.147  16.999   4.706 -0.0934  0.1292 -0.0822
    1DIPC   C1B 9729   1.036  16.419   5.052  0.2486 -0.2494 -0.0063
    1DIPC   D2B 9730   1.153  16.563   4.636 -0.1493 -0.1050 -0.0717
    1DIPC   D3B 9731   1.504  16.421   4.374 -0.0364 -0.0073 -0.1106
    1DIPC   C4B 9732   1.660  16.733   4.123  0.1430 -0.2978 -0.0039
    1DIPC   NC3 9733  12.669   8.849   7.468 -0.2864 -0.2062  0.0507
    1DIPC   PO4 9734  12.711   9.111   7.032  0.0560 -0.1584  0.1195
    1DIPC   GL1 9735  12.908   8.925   6.659 -0.0556 -0.0470  0.1067
    1DIPC   GL2 9736  13.169   8.787   6.730  0.1660 -0.1217 -0.0562
    1DIPC   C1A 9737  12.887   9.063   6.212  0.0114  0.0242 -0.1799
    1DIPC   D2A 9738  12.901   8.954   5.756  0.0003 -0.0290  0.0397
    1DIPC   D3A 9739  13.148   8.697   5.468  0.3220 -0.1537 -0.0742
    1DIPC   C4A 9740  12.919   8.411   5.165  0.0045 -0.0085 -0.2948
    1DIPC   C1B 9741  13.150   8.499   6.342  0.0737 -0.0226 -0.2456
    1DIPC   D2B 9742  13.117   8.560   5.945  0.0101  0.0943  0.0018
    1DIPC   D3B 9743  13.572   8.469   5.857  0.1507  0.0496 -0.1090
    1DIPC   C4B 9744  13.673   8.479   5.436  0.2791  0.1602  0.0054
    1DIPC   NC3 9745  23.860  25.779   6.773  0.0197  0.1795  0.0599
    1DIPC   PO4 9746  24.291  25.477   6.547 -0.0831  0.2524  0.1244
    1DIPC   GL1 9747  24.216  25.321   6.136  0.3829 -0.1750 -0.0131
    1DIPC   GL2 9748  24.385  25.014   6.171  0.4344 -0.1572  0.1599
    1DIPC   C1A 9749  24.292  25.238   5.769 -0.1651  0.0762  0.1092
    1DIPC   D2A 9750  24.323  25.153   5.473 -0.0242  0.1581  0.2818
    1DIPC   D3A 9751  24.135  25.349   5.208  0.0255 -0.0838  0.1473
    1DIPC   C4A 9752  24.208  25.331   4.776 -0.0711  0.0487 -0.1878
    1DIPC   C1B 9753  24.763  25.119   5.898  0.2364 -0.1668  0.1912
    1DIPC   D2B 9754  24.828  25.218   5.531  0.1647  0.1470 -0.1219
    1DIPC   D3B 9755  24.898  24.992   5.223  0.0056 -0.2201 -0.0058
    1DIPC   C4B 9756  24.583  24.951   5.066 -0.0080 -0.0154 -0.0170
    1DIPC   NC3 9757  29.686  21.328   5.908 -0.3625 -0.0940 -0.1062
    1DIPC   PO4 9758  30.149  21.333   5.967  0.0448  0.1880 -0.1572
    1DIPC   GL1 9759  30.035  21.243   5.498 -0.0985 -0.1024  0.1311
    1DIPC   GL2 9760  30.232  21.029   5.362 -0.1735  0.1456 -0.1316
    1DIPC   C1A 9761  29.923  21.305   5.057 -0.3051 -0.3692  0.1868
    1DIPC   D2A 9762  29.672  21.266   4.550  0.0366 -0.1786 -0.2195
    1DIPC   D3A 9763  29.641  21.647   4.770  0.0386 -0.2293  0.0430
    1DIPC   C4A 9764  29.616  21.728   5.215  0.1646 -0.2112  0.2211
    1DIPC   C1B 9765  30.266  20.630   5.415  0.2603  0.0714  0.2160
    1DIPC   D2B 9766  30.370  20.346   5.700  0.2386  0.1348  0.1373
    1DIPC   D3B 9767  30.776  20.338   5.536 -0.1200 -0.4576  0.1301
    1DIPC   C4B 9768  30.997  20.048   5.336 -0.3457  0.0609  0.0304
    1DIPC   NC3 9769  25.087  10.600   6.568  0.2019 -0.0601  0.3549
    1DIPC   PO4 9770  24.958  10.961   6.209  0.3179 -0.0537  0.2001
    1DIPC   GL1 9771  25.022  10.802   5.816 -0.1525 -0.0893  0.1413
    1DIPC   GL2 9772  25.272  10.975   5.612 -0.1120 -0.0224  0.5441
    1DIPC   C1A 9773  24.769  10.952   5.553 -0.0495  0.1177  0.1167
    1DIPC   D2A 9774  24.423  11.274   5.438 -0.0311 -0.1679 -0.0403
    1DIPC   D3A 9775  24.492  11.163   4.952  0.1147 -0.1187  0.1260
    1DIPC   C4A 9776  24.255  11.345   4.652 -0.1162 -0.3903 -0.1848
    1DIPC   C1B 9777  25.044  10.945   5.161  0.0782 -0.2267 -0.2137
    1DIPC   D2B 9778  25.036  10.951   4.700  0.0523  0.6329  0.0838
    1DIPC   D3B 9779  25.057  11.330   4.566  0.3717  0.2739 -0.0566
    1DIPC   C4B 9780  24.706  11.614   4.680 -0.0617  0.1661  0.2565
    1DIPC   NC3 9781  26.277  13.665   5.878 -0.0929  0.1071  0.1665
    1DIPC   PO4 9782  26.438  14.080   6.053  0.1605  0.3107  0.3612
    1DIPC   GL1 9783  26.475  14.276   5.580 -0.1213  0.2144  0.0881
    1DIPC   GL2 9784  26.314  13.993   5.378 -0.3460 -0.2270 -0.3132
    1DIPC   C1A 9785  26.754  14.146   5.249 -0.0882  0.0133 -0.1977
    1DIPC   D2A 9786  26.581  13.930   4.949 -0.1823  0.0697 -0.0176
    1DIPC   D3A 9787  26.180  14.110   4.770 -0.1070  0.0571  0.0133
    1DIPC   C4A 9788  25.852  14.360   5.010 -0.2837 -0.0731  0.0168
    1DIPC   C1B 9789  25.900  13.886   5.173 -0.0158  0.0698 -0.2842
    1DIPC   D2B 9790  25.529  13.612   4.978  0.0750 -0.1300 -0.3742
    1DIPC   D3B 9791  25.140  13.643   4.815  0.0634 -0.0457 -0.1232
    1DIPC   C4B 9792  25.038  13.556   4.376  0.1623  0.2813  0.2128
    1DIPC   NC3 9793  22.451   7.206   7.140 -0.2298  0.1648 -0.1727
    1DIPC   PO4 9794  22.572   7.206   6.694  0.1583 -0.1146  0.0204
    1DIPC   GL1 9795  22.799   7.295   6.262 -0.0403  0.0709  0.0659
    1DIPC   GL2 9796  23.177   7.325   6.412  0.0347  0.1397 -0.3974
    1DIPC   C1A 9797  22.767   7.086   5.859 -0.0635  0.3264 -0.0295
    1DIPC   D2A 9798  22.802   7.199   5.470 -0.1300 -0.0023  0.1514
    1DIPC   D3A 9799  22.470   7.138   5.181  0.0808  0.1122 -0.1391
    1DIPC   C4A 9800  22.374   7.243   4.755  0.0287  0.0726 -0.1398
    1DIPC   C1B 9801  23.237   7.287   5.998 -0.0291  0.0204  0.1142
    1DIPC   D2B 9802  23.264   7.400   5.501  0.0123  0.0206 -0.1286
    1DIPC   D3B 9803  23.053   7.574   5.299  0.0445 -0.1422  0.3494
    1DIPC   C4B 9804  22.681   7.590   4.924  0.0580  0.0750 -0.0786
    1DIPC   NC3 9805  21.931  21.080   7.068  0.0667  0.3078 -0.0077
    1DIPC   PO4 9806  22.345  21.215   6.909 -0.0424 -0.1169  0.1532
    1DIPC   GL1 9807  22.145  21.427   6.565  0.0825  0.0543 -0.0091
    1DIPC   GL2 9808  21.803  21.328   6.590 -0.1767 -0.0245 -0.0704
    1DIPC   C1A 9809  21.939  21.570   6.174 -0.0279  0.3301 -0.1130
    1DIPC   D2A 9810  22.243  21.580   5.811  0.0359  0.1144  0.0900
    1DIPC   D3A 9811  22.612  21.824   5.864 -0.6941 -0.1639  0.0285
    1DIPC   C4A 9812  22.547  22.188   5.961  0.2215  0.0008  0.3768
    1DIPC   C1B 9813  21.865  21.022   6.244 -0.1300 -0.0775 -0.0662
    1DIPC   D2B 9814  21.914  20.917   5.827 -0.0127  0.2481 -0.2054
    1DIPC   D3B 9815  22.189  21.125   5.541  0.0557 -0.1715  0.1840
    1DIPC   C4B 9816  22.267  21.464   5.328  0.4915  0.0921 -0.0038
    1DIPC   NC3 9817   2.803   4.643   6.417 -0.0715  0.2341  0.0945
    1DIPC   PO4 9818   3.056   4.251   6.322 -0.0125  0.1016  0.1556
    1DIPC   GL1 9819   2.932   4.241   5.964  0.0478  0.0423  0.2325
    1DIPC   GL2 9820   2.616   4.274   5.762 -0.1443 -0.4287 -0.0710
    1DIPC   C1A 9821   3.159   4.332   5.517  0.0371  0.2365 -0.0773
    1DIPC   D2A 9822   3.290   4.741   5.293 -0.2992  0.0867 -0.2271
    1DIPC   D3A 9823   3.435   5.085   5.023  0.0375  0.2395  0.0912
    1DIPC   C4A 9824   3.113   5.430   4.886 -0.3031 -0.0519  0.1970
    1DIPC   C1B 9825   2.215   4.400   5.563  0.1035  0.3379  0.3086
    1DIPC   D2B 9826   1.825   4.282   5.217 -0.0362  0.0899  0.3083
    1DIPC   D3B 9827   1.920   4.726   5.269  0.0722  0.0694 -0.3730
    1DIPC   C4B 9828   2.243   4.910   5.596  0.1406 -0.0301  0.1268
    1DIPC   NC3 9829  28.560  24.060   6.808  0.1872  0.1205  0.0310
    1DIPC   PO4 9830  28.854  23.903   6.441 -0.0990  0.2341 -0.4002
    1DIPC   GL1 9831  28.809  23.975   6.057 -0.0676  0.3443 -0.0646
    1DIPC   GL2 9832  28.530  23.827   5.906  0.3665 -0.0771 -0.4121
    1DIPC   C1A 9833  28.978  23.839   5.680 -0.0203  0.0963 -0.1793
    1DIPC   D2A 9834  28.946  23.773   5.182 -0.3207 -0.0263  0.2236
    1DIPC   D3A 9835  29.043  24.184   5.162  0.0758 -0.1930 -0.0602
    1DIPC   C4A 9836  28.879  24.505   4.924 -0.0100  0.1396  0.0387
    1DIPC   C1B 9837  28.107  23.947   5.866  0.0038 -0.0897  0.0566
    1DIPC   D2B 9838  27.632  23.819   5.911 -0.0645 -0.0121  0.1468
    1DIPC   D3B 9839  27.422  23.579   5.574  0.2964 -0.1214 -0.1246
    1DIPC   C4B 9840  27.587  23.699   5.121 -0.2039 -0.1857 -0.0123
    1DIPC   NC3 9841  22.515   5.925   6.388 -0.2085 -0.3009 -0.0797
    1DIPC   PO4 9842  22.074   5.978   6.594 -0.2990 -0.1962 -0.2309
    1DIPC   GL1 9843  21.917   5.845   6.158  0.1561 -0.2740 -0.0248
    1DIPC   GL2 9844  22.217   5.754   5.963  0.0794  0.1285 -0.2056
    1DIPC   C1A 9845  21.701   5.803   5.815 -0.1659  0.2667 -0.0154
    1DIPC   D2A 9846  21.629   5.452   5.565 -0.0095 -0.3336 -0.0004
    1DIPC   D3A 9847  21.923   5.303   5.230 -0.1396  0.1822 -0.1069
    1DIPC   C4A 9848  21.872   4.949   5.379 -0.2987 -0.0349 -0.0330
    1DIPC   C1B 9849  22.354   5.343   5.766  0.0021 -0.0921 -0.1706
    1DIPC   D2B 9850  22.442   5.319   5.272 -0.0696  0.1475 -0.1559
    1DIPC   D3B 9851  22.377   5.683   5.356  0.2226 -0.4358  0.0329
    1DIPC   C4B 9852  22.529   6.012   5.100  0.2340  0.0852 -0.1160
    1DIPC   NC3 9853   0.833  26.977   6.148  0.0177  0.1331  0.3413
    1DIPC   PO4 9854   0.459  26.797   5.996 -0.2664  0.1617  0.2594
    1DIPC   GL1 9855   0.458  26.916   5.594 -0.1312  0.1827  0.1160
    1DIPC   GL2 9856   0.494  26.566   5.245 -0.2230 -0.0162 -0.0176
    1DIPC   C1A 9857   0.213  27.061   5.315 -0.0342  0.0698 -0.2628
    1DIPC   D2A 9858   0.251  27.451   5.196  0.0857  0.2200  0.3663
    1DIPC   D3A 9859   0.371  27.220   4.738 -0.3324  0.1908 -0.2751
    1DIPC   C4A 9860   0.720  27.127   4.579 -0.0458 -0.2494  0.1121
    1DIPC   C1B 9861   0.642  26.885   5.008  0.1262  0.0508 -0.1268
    1DIPC   D2B 9862   0.693  27.286   5.104  0.0997 -0.2931 -0.2522
    1DIPC   D3B 9863   0.584  27.686   4.789  0.1689 -0.0423 -0.2477
    1DIPC   C4B 9864   0.201  27.642   4.602  0.0787  0.4083 -0.1064
    1DIPC   NC3 9865   6.211  13.724   6.056  0.0456 -0.2590  0.0170
    1DIPC   PO4 9866   5.945  13.686   6.389  0.0173  0.3583 -0.1048
    1DIPC   GL1 9867   5.749  13.459   6.023  0.1409 -0.1668 -0.0553
    1DIPC   GL2 9868   5.932  13.348   5.877 -0.0062  0.2463 -0.1768
    1DIPC   C1A 9869   5.574  13.505   5.527 -0.0551  0.0270  0.0751
    1DIPC   D2A 9870   5.264  13.847   5.371 -0.0817 -0.1172  0.0997
    1DIPC   D3A 9871   5.250  14.278   5.481  0.4475  0.1658  0.0207
    1DIPC   C4A 9872   5.579  14.457   5.251 -0.0605 -0.1482 -0.2581
    1DIPC   C1B 9873   5.947  13.035   5.596 -0.1677 -0.2076  0.0462
    1DIPC   D2B 9874   5.728  13.103   5.186 -0.0495  0.3634 -0.2468
    1DIPC   D3B 9875   5.387  12.961   4.853 -0.0686 -0.1180 -0.0304
    1DIPC   C4B 9876   4.914  13.125   4.718  0.3688  0.5365 -0.1067
    1DIPC   NC3 9877   9.660  23.592   5.836 -0.0358 -0.1808 -0.0812
    1DIPC   PO4 9878  10.134  23.680   5.925  0.1610 -0.0113  0.2283
    1DIPC   GL1 9879  10.131  23.735   5.547 -0.0238  0.1066 -0.1569
    1DIPC   GL2 9880   9.833  23.611   5.374  0.2360 -0.3768 -0.0240
    1DIPC   C1A 9881  10.301  23.456   5.257  0.0991  0.3345  0.0048
    1DIPC   D2A 9882  10.413  23.402   4.795 -0.0855  0.0647  0.2145
    1DIPC   D3A 9883  10.424  23.800   4.605 -0.0644  0.1160 -0.4277
    1DIPC   C4A 9884  10.243  24.152   4.649  0.0087  0.0752 -0.1224
    1DIPC   C1B 9885   9.830  23.392   4.954 -0.2545  0.0565 -0.0266
    1DIPC   D2B 9886   9.540  23.180   4.665  0.0984 -0.1896 -0.0471
    1DIPC   D3B 9887   9.615  23.142   4.299  0.1036 -0.0182 -0.2468
    1DIPC   C4B 9888   9.267  23.011   4.145 -0.1068 -0.1654  0.3064
    1DIPC   NC3 9889  12.300  22.107   6.415 -0.0868  0.0587 -0.0242
    1DIPC   PO4 9890  12.151  21.743   6.152  0.1218  0.0639 -0.1651
    1DIPC   GL1 9891  12.064  21.842   5.717  0.0034 -0.1549 -0.0047
    1DIPC   GL2 9892  11.941  22.139   5.673 -0.0750  0.1563  0.2775
    1DIPC   C1A 9893  12.107  21.749   5.405  0.0362  0.1255  0.1644
    1DIPC   D2A 9894  12.255  21.755   4.891  0.1195 -0.0590 -0.2141
    1DIPC   D3A 9895  11.947  21.599   4.657 -0.2055 -0.1923 -0.0326
    1DIPC   C4A 9896  11.779  21.279   4.487 -0.0088 -0.0251  0.0976
    1DIPC   C1B 9897  11.879  22.206   5.130 -0.3064  0.0899  0.0317
    1DIPC   D2B 9898  11.661  21.871   4.940 -0.1037  0.0558  0.1794
    1DIPC   D3B 9899  11.937  22.097   4.567  0.0095 -0.1664 -0.0645
    1DIPC   C4B 9900  11.691  22.218   4.252 -0.1342 -0.2520 -0.0407
    1DIPC   NC3 9901   5.319  17.708   6.047 -0.0922 -0.3867 -0.1295
    1DIPC   PO4 9902   5.682  17.654   5.800 -0.1531 -0.0007  0.2593
    1DIPC   GL1 9903   5.695  17.701   5.432 -0.0365 -0.0224 -0.2248
    1DIPC   GL2 9904   5.903  17.611   5.172 -0.0687 -0.0570  0.1791
    1DIPC   C1A 9905   5.594  18.022   5.160  0.4158 -0.3085 -0.1467
    1DIPC   D2A 9906   5.160  18.237   5.186 -0.3141 -0.0782 -0.0957
    1DIPC   D3A 9907   5.259  18.429   4.758 -0.0192  0.0340  0.1657
    1DIPC   C4A 9908   5.314  18.203   4.360 -0.3618 -0.0514 -0.2494
    1DIPC   C1B 9909   5.876  17.398   4.908 -0.0999 -0.0032  0.0705
    1DIPC   D2B 9910   6.103  17.134   4.666 -0.2228 -0.1648  0.2676
    1DIPC   D3B 9911   5.935  17.367   4.346  0.0129 -0.1121  0.0290
    1DIPC   C4B 9912   6.231  17.750   4.150 -0.0922 -0.1724 -0.0380
    1DIPC   NC3 9913   7.371   9.692   6.762  0.2561 -0.2536  0.0051
    1DIPC   PO4 9914   7.832   9.676   6.575  0.1406  0.0741  0.1563
    1DIPC   GL1 9915   8.073   9.554   6.353 -0.1179  0.1309 -0.1715
    1DIPC   GL2 9916   8.127   9.126   6.364  0.2174 -0.1098  0.2372
    1DIPC   C1A 9917   8.302   9.503   6.071  0.1024  0.0720  0.1661
    1DIPC   D2A 9918   8.554   9.467   5.696  0.0102  0.1061 -0.0800
    1DIPC   D3A 9919   8.513   9.016   5.497 -0.2626 -0.2464 -0.0895
    1DIPC   C4A 9920   8.123   8.929   5.289 -0.1299  0.0856 -0.0611
    1DIPC   C1B 9921   8.035   9.171   5.848 -0.0177 -0.0981 -0.2348
    1DIPC   D2B 9922   7.621   9.123   5.697  0.1194 -0.0229  0.2663
    1DIPC   D3B 9923   7.645   8.896   5.277 -0.0054 -0.0803  0.0998
    1DIPC   C4B 9924   7.358   8.723   5.045 -0.0186  0.0017  0.1819
    1DIPC   NC3 9925   3.216  28.647   5.999 -0.0733 -0.1794  0.4280
    1DIPC   PO4 9926   3.106  29.096   5.966 -0.1446 -0.1379 -0.3040
    1DIPC   GL1 9927   2.940  28.850   5.640  0.1097  0.2011  0.1866
    1DIPC   GL2 9928   3.162  28.661   5.426 -0.2944  0.1092 -0.5430
    1DIPC   C1A 9929   2.666  28.797   5.306  0.2184 -0.0457 -0.1426
    1DIPC   D2A 9930   2.731  28.808   4.962  0.0543 -0.2952 -0.0502
    1DIPC   D3A 9931   2.974  28.511   5.026 -0.0431  0.0220  0.0988
    1DIPC   C4A 9932   3.121  28.257   4.791  0.1061 -0.1253 -0.0140
    1DIPC   C1B 9933   3.367  28.857   5.117  0.0876  0.0506 -0.0284
    1DIPC   D2B 9934   3.537  29.198   5.098  0.3584  0.1562 -0.0283
    1DIPC   D3B 9935   3.593  29.369   4.720 -0.0228 -0.4162  0.0897
    1DIPC   C4B 9936   3.544  29.548   4.320  0.0802  0.0686  0.4930
    1DIPC   NC3 9937  26.349   3.313   6.382 -0.0735 -0.0991  0.0234
    1DIPC   PO4 9938  25.988   3.442   6.421 -0.0749 -0.0096 -0.1973
    1DIPC   GL1 9939  26.017   3.288   5.995  0.0753 -0.2445  0.0740
    1DIPC   GL2 9940  25.783   3.026   5.935  0.0468 -0.1447 -0.1879
    1DIPC   C1A 9941  25.954   3.443   5.618  0.0818 -0.2092  0.2500
    1DIPC   D2A 9942  25.659   3.822   5.490  0.2250 -0.0827 -0.1211
    1DIPC   D3A 9943  25.973   3.755   5.215 -0.1962 -0.2019 -0.0792
    1DIPC   C4A 9944  26.242   3.434   5.236 -0.1522  0.1240 -0.0823
    1DIPC   C1B 9945  25.334   3.013   5.646  0.1402 -0.0378  0.3007
    1DIPC   D2B 9946  25.050   2.870   5.456 -0.0672  0.0636  0.2524
    1DIPC   D3B 9947  25.168   3.369   5.317  0.1080  0.1008 -0.2420
    1DIPC   C4B 9948  25.605   3.397   5.211 -0.0279 -0.1241  0.0328
    1DIPC   NC3 9949  15.344  27.564   6.874 -0.2629 -0.1410 -0.2672
    1DIPC   PO4 9950  15.385  28.072   6.752  0.0051  0.1937 -0.1072
    1DIPC   GL1 9951  15.225  27.802   6.439  0.0026 -0.1503  0.2583
    1DIPC   GL2 9952  15.424  27.556   6.362  0.0042  0.1687 -0.1636
    1DIPC   C1A 9953  15.288  27.739   5.941 -0.2891 -0.1109  0.1831
    1DIPC   D2A 9954  15.597  27.758   5.573  0.1903  0.1270  0.1036
    1DIPC   D3A 9955  15.347  27.794   5.243  0.1369 -0.1436 -0.4432
    1DIPC   C4A 9956  15.172  28.213   5.130 -0.3617  0.0823 -0.0577
    1DIPC   C1B 9957  15.025  27.263   6.410 -0.0550 -0.0483 -0.5570
    1DIPC   D2B 9958  14.835  26.946   6.241  0.2999 -0.1893  0.1027
    1DIPC   D3B 9959  15.259  26.874   6.239  0.1122  0.3598 -0.2409
    1DIPC   C4B 9960  15.471  26.829   5.865 -0.0017 -0.0936  0.0504
    1DIPC   NC3 9961  25.508   7.400   6.656  0.1730 -0.0758 -0.2812
    1DIPC   PO4 9962  25.928   7.109   6.855 -0.0212  0.3666 -0.1394
    1DIPC   GL1 9963  25.837   7.092   6.431 -0.0985 -0.1705 -0.0577
    1DIPC   GL2 9964  25.710   6.833   6.312 -0.2787  0.0031  0.1765
    1DIPC   C1A 9965  25.896   7.176   5.863  0.1582 -0.1181  0.0948
    1DIPC   D2A 9966  25.693   7.519   5.468 -0.0255 -0.0764 -0.2557
    1DIPC   D3A 9967  25.284   7.530   5.469 -0.0531 -0.2138 -0.2345
    1DIPC   C4A 9968  24.984   7.555   5.141 -0.0098 -0.1900 -0.1051
    1DIPC   C1B 9969  25.424   6.609   6.016  0.0321  0.0038  0.0416
    1DIPC   D2B 9970  25.103   6.599   5.677  0.1303  0.3909  0.4413
    1DIPC   D3B 9971  25.269   6.589   5.236  0.2380 -0.1234  0.2797
    1DIPC   C4B 9972  25.530   6.733   5.113 -0.2581  0.0370 -0.1343
    1DIPC   NC3 9973  13.801  23.359   5.937 -0.2999 -0.2516 -0.0659
    1DIPC   PO4 9974  14.297  23.286   5.810 -0.3978 -0.1360 -0.0170
    1DIPC   GL1 9975  14.442  23.477   5.411  0.1805 -0.1780 -0.0800
    1DIPC   GL2 9976  14.523  23.791   5.331 -0.2175 -0.2589 -0.0711
    1DIPC   C1A 9977  14.420  23.495   4.981  0.0404 -0.0908  0.2130
    1DIPC   D2A 9978  14.594  23.456   4.533 -0.0205  0.0807 -0.0231
    1DIPC   D3A 9979  14.304  23.159   4.435  0.2131 -0.2509  0.1771
    1DIPC   C4A 9980  14.380  22.779   4.228  0.2724  0.2087  0.2036
    1DIPC   C1B 9981  14.701  23.942   4.955 -0.2054  0.2964  0.0216
    1DIPC   D2B 9982  14.751  24.428   4.845 -0.1864  0.2199 -0.0441
    1DIPC   D3B 9983  14.805  24.423   4.383 -0.0626 -0.3880  0.0198
    1DIPC   C4B 9984  14.820  24.167   4.085  0.0544  0.1058  0.2434
    1DIPC   NC3 9985   4.082  12.590   6.180  0.0843  0.0404 -0.0555
    1DIPC   PO4 9986   4.282  12.982   6.522 -0.0125  0.1474  0.2761
    1DIPC   GL1 9987   4.375  13.006   6.045 -0.1609  0.0890  0.0308
    1DIPC   GL2 9988   4.552  13.294   6.064 -0.0008  0.1076 -0.1656
    1DIPC   C1A 9989   4.324  12.811   5.619 -0.2175  0.3003 -0.0331
    1DIPC   D2A 9990   4.003  12.729   5.186 -0.0980  0.0683 -0.0893
    1DIPC   D3A 9991   4.438  12.656   4.948 -0.2630  0.2590  0.1796
    1DIPC   C4A 9992   4.569  12.404   4.675 -0.0507  0.3029  0.1772
    1DIPC   C1B 9993   4.538  13.297   5.652  0.2398  0.2615  0.2566
    1DIPC   D2B 9994   4.706  13.068   5.283 -0.1891  0.1940 -0.1289
    1DIPC   D3B 9995   4.974  12.745   5.051  0.0710 -0.0733  0.3415
    1DIPC   C4B 9996   5.185  12.382   5.176  0.0494  0.2249 -0.1304
    1DIPC   NC3 9997   4.892  23.826   6.090  0.2056  0.0641 -0.0915
    1DIPC   PO4 9998   4.376  23.882   6.035 -0.4033 -0.1168 -0.4988
    1DIPC   GL1 9999   4.642  23.701   5.695 -0.2099 -0.1094  0.2627
    1DIPC   GL210000   4.855  23.861   5.579 -0.4534 -0.2466  0.0615
    1DIPC   C1A10001   4.716  23.432   5.302  0.0572  0.1041 -0.0534
    1DIPC   D2A10002   4.834  23.375   4.954  0.0013 -0.2901  0.0593
    1DIPC   D3A10003   4.904  23.807   4.963 -0.1200 -0.0253  0.0568
    1DIPC   C4A10004   4.906  24.059   4.537 -0.0086  0.3988  0.1157
    1DIPC   C1B10005   5.238  23.588   5.362 -0.1952 -0.0430  0.2414
    1DIPC   D2B10006   5.391  23.412   4.935  0.1630  0.1388 -0.4330
    1DIPC   D3B10007   5.298  23.138   4.739  0.0229  0.0234  0.1311
    1DIPC   C4B10008   4.933  23.223   4.483  0.2177  0.1569 -0.0268
    1DIPC   NC310009  28.069  13.145   6.041 -0.0840  0.0701 -0.0473
    1DIPC   PO410010  28.099  12.748   6.123  0.1749  0.0534  0.1460
    1DIPC   GL110011  28.246  12.641   5.697 -0.4820  0.0276 -0.1193
    1DIPC   GL210012  28.428  12.417   5.816 -0.1907  0.0526 -0.1946
    1DIPC   C1A10013  28.351  12.431   5.305 -0.0729  0.0222 -0.0906
    1DIPC   D2A10014  28.468  12.308   4.965 -0.3687  0.3056  0.2486
    1DIPC   D3A10015  28.362  12.152   4.603  0.2201  0.0383 -0.0575
    1DIPC   C4A10016  28.369  12.453   4.285  0.2100 -0.0956  0.0739
    1DIPC   C1B10017  28.468  12.006   5.558  0.1456 -0.0270  0.2233
    1DIPC   D2B10018  28.580  11.744   5.274 -0.0305 -0.2117 -0.1583
    1DIPC   D3B10019  28.216  11.935   5.114 -0.1317  0.0191  0.0273
    1DIPC   C4B10020  27.970  11.810   4.779 -0.3885  0.0892  0.1907
    1DIPC   NC310021   4.747   1.283   7.033 -0.0191 -0.0397  0.1741
    1DIPC   PO410022   4.454   1.702   6.937 -0.2410  0.0493  0.2711
    1DIPC   GL110023   4.709   1.606   6.560  0.0049  0.2918 -0.0299
    1DIPC   GL210024   4.673   2.036   6.513 -0.0813  0.0782 -0.0597
    1DIPC   C1A10025   4.978   1.256   6.341  0.0707 -0.0211  0.0479
    1DIPC   D2A10026   5.244   0.964   6.290  0.3196  0.1612 -0.0791
    1DIPC   D3A10027   5.428   1.144   5.980 -0.0659  0.1459 -0.1981
    1DIPC   C4A10028   5.829   1.155   6.079 -0.4501  0.0216 -0.1303
    1DIPC   C1B10029   4.401   1.782   6.204 -0.0868 -0.2372 -0.1296
    1DIPC   D2B10030   4.286   1.531   5.818  0.1719  0.0192  0.1637
    1DIPC   D3B10031   4.038   1.500   5.518 -0.0831  0.1119 -0.2164
    1DIPC   C4B10032   3.851   1.104   5.451  0.0255 -0.0132 -0.0693
    1DIPC   NC310033  23.898   0.443   7.047 -0.1311  0.2949  0.0631
    1DIPC   PO410034  23.632   0.852   7.021  0.0003 -0.0203  0.2351
    1DIPC   GL110035  23.471   0.779   6.563  0.0476 -0.0810 -0.0952
    1DIPC   GL210036  23.229   0.627   6.390 -0.0194  0.1595  0.0505
    1DIPC   C1A10037  23.613   0.946   6.195  0.1768 -0.0468 -0.1553
    1DIPC   D2A10038  24.092   1.008   6.046  0.0128  0.1083 -0.2154
    1DIPC   D3A10039  24.201   1.278   5.733  0.0704  0.2850  0.1918
    1DIPC   C4A10040  24.190   1.753   5.874  0.0171  0.1084  0.0536
    1DIPC   C1B10041  23.164   0.802   6.065  0.0968  0.0043  0.2401
    1DIPC   D2B10042  23.218   0.906   5.692  0.1971  0.0354  0.2247
    1DIPC   D3B10043  22.829   0.973   5.542 -0.1515  0.1459 -0.2951
    1DIPC   C4B10044  22.913   1.038   5.100 -0.0493  0.1267 -0.1989
    1DIPC   NC310045  10.822   1.386   7.222 -0.0165 -0.1083  0.3163
    1DIPC   PO410046  10.721   1.382   6.786  0.0133  0.1250  0.0270
    1DIPC   GL110047  10.575   1.493   6.344  0.1714 -0.1685  0.0349
    1DIPC   GL210048  10.667   1.711   6.321  0.1911 -0.1986  0.0487
    1DIPC   C1A10049  10.344   1.405   5.942  0.0032  0.0116 -0.0336
    1DIPC   D2A10050  10.269   1.462   5.462  0.0112  0.4188  0.1101
    1DIPC   D3A10051  10.099   1.109   5.272 -0.0416  0.0030  0.0232
    1DIPC   C4A10052   9.770   1.048   5.008 -0.1545 -0.2280 -0.1561
    1DIPC   C1B10053  10.630   1.940   5.944 -0.0458 -0.1187 -0.2950
    1DIPC   D2B10054  10.684   2.337   5.700  0.2052 -0.0601 -0.0249
    1DIPC   D3B10055  11.045   2.357   5.533  0.2994 -0.1164 -0.4128
    1DIPC   C4B10056  11.447   2.305   5.672 -0.0559 -0.0753  0.2644
    1DIPC   NC310057   6.664  22.241   5.420  0.0006  0.2156 -0.1365
    1DIPC   PO410058   6.320  22.430   5.775 -0.1956 -0.1096  0.0127
    1DIPC   GL110059   6.390  22.745   5.507 -0.1436  0.1544  0.1769
    1DIPC   GL210060   6.177  23.065   5.444  0.0290 -0.1692  0.3586
    1DIPC   C1A10061   6.631  22.803   5.081 -0.1139 -0.1183 -0.2953
    1DIPC   D2A10062   6.683  22.798   4.570  0.2547 -0.1445  0.1261
    1DIPC   D3A10063   6.811  22.967   4.151 -0.0390  0.2573  0.1293
    1DIPC   C4A10064   6.548  23.099   3.863  0.3245 -0.0810  0.1990
    1DIPC   C1B10065   6.408  23.267   5.082 -0.3444  0.4647 -0.1854
    1DIPC   D2B10066   6.371  23.099   4.702 -0.1866 -0.6232 -0.1525
    1DIPC   D3B10067   6.247  23.418   4.621 -0.2275  0.1657 -0.1246
    1DIPC   C4B10068   6.242  23.403   4.176 -0.0110 -0.1463 -0.3637
    1DIPC   NC310069   3.632   4.106   6.445 -0.0714  0.4782 -0.0287
    1DIPC   PO410070   3.703   4.572   6.510 -0.0592  0.0079 -0.0935
    1DIPC   GL110071   3.737   4.532   6.104 -0.1597  0.0296 -0.3020
    1DIPC   GL210072   3.588   4.281   5.966  0.1861 -0.0825 -0.5514
    1DIPC   C1A10073   3.470   4.775   5.800  0.0330  0.2781  0.0347
    1DIPC   D2A10074   3.259   5.125   5.744  0.1269 -0.1253 -0.0606
    1DIPC   D3A10075   3.342   5.427   5.429 -0.2595 -0.1021 -0.4517
    1DIPC   C4A10076   3.683   5.446   5.237  0.1263  0.0330  0.2028
    1DIPC   C1B10077   3.719   4.435   5.526 -0.0269 -0.1533 -0.0520
    1DIPC   D2B10078   3.668   4.263   5.197  0.0039  0.0466  0.1120
    1DIPC   D3B10079   3.687   4.673   5.028  0.0383  0.0287 -0.0552
    1DIPC   C4B10080   3.379   4.618   4.741 -0.1102 -0.2405 -0.0557
    1DIPC   NC310081   5.553  21.993   6.007 -0.1539  0.1747  0.0923
    1DIPC   PO410082   5.240  22.063   5.691 -0.0674 -0.0782  0.2181
    1DIPC   GL110083   5.111  22.082   5.171  0.0890  0.4705 -0.1217
    1DIPC   GL210084   5.353  21.830   5.037 -0.0266 -0.0605  0.0784
    1DIPC   C1A10085   4.836  21.915   4.827  0.0744 -0.0485  0.1854
    1DIPC   D2A10086   4.676  21.470   4.594 -0.0208 -0.2156  0.1743
    1DIPC   D3A10087   4.794  21.430   4.095  0.1381  0.1026  0.0253
    1DIPC   C4A10088   5.223  21.618   3.828 -0.0730  0.0612 -0.2777
    1DIPC   C1B10089   5.592  22.248   5.105 -0.3806  0.1073 -0.0862
    1DIPC   D2B10090   5.847  22.365   4.881 -0.3108 -0.4796 -0.0531
    1DIPC   D3B10091   5.611  22.606   4.647  0.0150  0.0696 -0.0208
    1DIPC   C4B10092   5.675  22.763   4.235 -0.1404 -0.1938  0.4484
    1DIPC   NC310093  27.642  20.189   7.056 -0.1971  0.0829 -0.2769
    1DIPC   PO410094  27.949  20.123   6.683  0.2843 -0.2995  0.1955
    1DIPC   GL110095  28.104  20.207   6.295 -0.0300 -0.1460 -0.1395
    1DIPC   GL210096  27.840  19.917   6.145 -0.0018  0.1010 -0.2820
    1DIPC   C1A10097  28.314  19.974   6.076  0.1672  0.3356  0.0631
    1DIPC   D2A10098  28.418  19.771   5.680  0.2396  0.1704 -0.0470
    1DIPC   D3A10099  28.567  19.946   5.282 -0.1543  0.1442 -0.0217
    1DIPC   C4A10100  28.975  20.212   5.101  0.1098  0.3419  0.0470
    1DIPC   C1B10101  27.635  19.873   5.654  0.1085  0.1116  0.2566
    1DIPC   D2B10102  27.481  19.653   5.220  0.0893 -0.3252  0.1414
    1DIPC   D3B10103  27.335  19.589   4.884  0.1129  0.2030  0.0478
    1DIPC   C4B10104  27.236  19.228   4.755  0.0690 -0.2074  0.0100
    1DIPC   NC310105  28.999  15.198   6.018 -0.0196 -0.3774  0.0470
    1DIPC   PO410106  28.590  15.106   6.061 -0.0841 -0.3516 -0.0703
    1DIPC   GL110107  28.480  14.972   5.700 -0.2341  0.0326 -0.0644
    1DIPC   GL210108  28.623  14.652   5.697  0.3009 -0.0667 -0.1438
    1DIPC   C1A10109  28.418  15.080   5.262  0.2061  0.0537 -0.0076
    1DIPC   D2A10110  28.462  15.102   4.835  0.2388 -0.1215 -0.2531
    1DIPC   D3A10111  28.619  15.496   4.695  0.0897 -0.0218 -0.0663
    1DIPC   C4A10112  29.000  15.695   4.714  0.0995 -0.0095 -0.0409
    1DIPC   C1B10113  28.513  14.588   5.329  0.0831  0.2337  0.1521
    1DIPC   D2B10114  28.150  14.641   4.968  0.1842 -0.1495  0.0159
    1DIPC   D3B10115  28.093  14.906   4.643 -0.0885  0.1806  0.1277
    1DIPC   C4B10116  27.801  14.706   4.232  0.1050  0.1810  0.0735
    1DIPC   NC310117   3.729  24.651   5.887 -0.1108  0.0441 -0.4143
    1DIPC   PO410118   4.162  24.789   6.006  0.1492  0.0468 -0.2513
    1DIPC   GL110119   4.376  24.781   5.613  0.3353  0.1379  0.3460
    1DIPC   GL210120   4.426  25.173   5.529 -0.0532  0.2137 -0.2430
    1DIPC   C1A10121   4.356  24.511   5.376 -0.2406  0.1555  0.0991
    1DIPC   D2A10122   4.451  24.488   4.965  0.1886  0.1531 -0.0046
    1DIPC   D3A10123   4.504  24.084   5.069 -0.1239 -0.0215 -0.1851
    1DIPC   C4A10124   4.291  23.946   5.366  0.0536  0.1463 -0.2962
    1DIPC   C1B10125   4.215  24.940   5.137  0.0831 -0.2435 -0.0066
    1DIPC   D2B10126   3.895  24.668   4.981 -0.0467  0.1524 -0.3102
    1DIPC   D3B10127   4.055  24.732   4.520  0.0147  0.1625  0.0424
    1DIPC   C4B10128   4.220  24.468   4.266  0.2496 -0.1126 -0.0969
    1DIPC   NC310129  19.978  20.383   7.154  0.1440 -0.1476 -0.0430
    1DIPC   PO410130  19.817  20.081   6.767  0.1423 -0.0870  0.0842
    1DIPC   GL110131  20.143  20.004   6.447 -0.4832  0.2063  0.0069
    1DIPC   GL210132  20.251  20.179   6.199  0.0310 -0.0542 -0.1800
    1DIPC   C1A10133  20.258  19.572   6.351  0.0393  0.0789 -0.2057
    1DIPC   D2A10134  20.019  19.209   6.284 -0.3310 -0.1594  0.2998
    1DIPC   D3A10135  20.175  18.915   5.908  0.0661 -0.4696  0.1662
    1DIPC   C4A10136  20.294  19.027   5.510  0.3529  0.2757  0.1780
    1DIPC   C1B10137  20.466  20.190   5.831  0.1033  0.1988  0.1203
    1DIPC   D2B10138  20.716  20.492   5.651 -0.0637  0.0856  0.4418
    1DIPC   D3B10139  20.486  20.443   5.373  0.0545  0.2029 -0.0239
    1DIPC   C4B10140  20.021  20.351   5.538 -0.2899  0.1326 -0.0887
    1DIPC   NC310141   7.482  16.948   6.320 -0.0005  0.1266  0.1370
    1DIPC   PO410142   7.327  16.847   5.901  0.2866 -0.1248  0.0552
    1DIPC   GL110143   7.038  16.590   5.550 -0.1712 -0.1245 -0.1149
    1DIPC   GL210144   6.698  16.543   5.315  0.3019  0.0645 -0.0203
    1DIPC   C1A10145   7.197  16.682   5.176  0.0829 -0.0139 -0.2318
    1DIPC   D2A10146   7.349  17.031   4.934 -0.1015 -0.0929 -0.2788
    1DIPC   D3A10147   7.491  17.039   4.503 -0.1373 -0.2208  0.0325
    1DIPC   C4A10148   7.582  16.550   4.354 -0.2954 -0.0242 -0.3581
    1DIPC   C1B10149   6.975  16.194   5.153  0.0023  0.2837  0.1251
    1DIPC   D2B10150   7.507  16.265   5.166  0.2079 -0.3638 -0.0313
    1DIPC   D3B10151   7.867  16.366   5.368 -0.1078 -0.2285 -0.0475
    1DIPC   C4B10152   8.226  16.184   5.392  0.1251 -0.1360 -0.1028
    1DIPC   NC310153   6.136  29.768   6.586 -0.6353 -0.0971 -0.2430
    1DIPC   PO410154   5.985  29.928   6.148 -0.2764  0.4534 -0.2191
    1DIPC   GL110155   5.735  30.037   5.881  0.1036 -0.0226 -0.1592
    1DIPC   GL210156   5.533  29.767   5.758  0.2628  0.2799 -0.0075
    1DIPC   C1A10157   5.527  30.233   5.594  0.0149  0.2027  0.1553
    1DIPC   D2A10158   5.240  30.422   5.239 -0.2305 -0.0442 -0.3271
    1DIPC   D3A10159   5.479  30.393   4.976 -0.1148  0.0733  0.1375
    1DIPC   C4A10160   5.598  30.440   4.553  0.1995  0.0115  0.0968
    1DIPC   C1B10161   5.343  29.469   5.531 -0.2240 -0.1382  0.2625
    1DIPC   D2B10162   5.347  29.202   5.117 -0.0214 -0.0302 -0.2020
    1DIPC   D3B10163   4.829  29.162   4.963 -0.2209  0.2004  0.1867
    1DIPC   C4B10164   4.574  28.758   4.925  0.0931  0.0624  0.0615
    1DIPC   NC310165  29.404   1.212   5.967 -0.2922  0.0202  0.0897
    1DIPC   PO410166  29.548   0.845   6.137 -0.0110  0.3316  0.2285
    1DIPC   GL110167  29.256   0.737   5.773  0.0558  0.2006  0.0686
    1DIPC   GL210168  29.019   0.794   5.818 -0.1178 -0.2754  0.1721
    1DIPC   C1A10169  29.292   0.607   5.426 -0.1081  0.2412  0.0320
    1DIPC   D2A10170  28.975   0.390   5.177  0.0624 -0.2213 -0.2522
    1DIPC   D3A10171  29.428   0.361   5.017  0.0022  0.0847 -0.0755
    1DIPC   C4A10172  29.586   0.009   4.862 -0.2522  0.3765  0.1406
    1DIPC   C1B10173  28.825   0.853   5.449 -0.0310  0.0128 -0.1174
    1DIPC   D2B10174  28.701   1.132   5.135  0.1371  0.0687 -0.0113
    1DIPC   D3B10175  28.947   0.812   4.917 -0.0802  0.1495  0.1567
    1DIPC   C4B10176  29.397   0.835   4.963 -0.1148 -0.1335 -0.0541
    1DIPC   NC310177  18.678  20.506   6.968  0.2016 -0.2201 -0.0517
    1DIPC   PO410178  18.961  20.591   6.670 -0.1416  0.0149 -0.3212
    1DIPC   GL110179  19.071  20.813   6.336 -0.1462  0.1924 -0.1857
    1DIPC   GL210180  19.288  20.673   6.252  0.1928 -0.0740  0.1488
    1DIPC   C1A10181  18.915  20.964   5.889  0.2837 -0.0540 -0.2159
    1DIPC   D2A10182  18.633  20.700   5.654  0.3249  0.1773 -0.3401
    1DIPC   D3A10183  19.010  20.819   5.413  0.0040 -0.3562  0.0532
    1DIPC   C4A10184  19.458  20.935   5.347 -0.2044 -0.1962 -0.1326
    1DIPC   C1B10185  19.481  20.876   5.881 -0.0805  0.0816 -0.3721
    1DIPC   D2B10186  19.785  20.779   5.710 -0.0539  0.2748 -0.1614
    1DIPC   D3B10187  20.000  20.834   5.393  0.1868  0.0382  0.0486
    1DIPC   C4B10188  20.316  20.738   5.037 -0.2558  0.1766  0.0185
    1DIPC   NC310189  26.959  15.760   5.951 -0.1357 -0.1378  0.0913
    1DIPC   PO410190  26.574  15.966   6.048 -0.0830  0.1540 -0.1926
    1DIPC   GL110191  26.514  16.004   5.660 -0.0061 -0.0623  0.2406
    1DIPC   GL210192  26.491  15.658   5.493 -0.2365 -0.2661 -0.1057
    1DIPC   C1A10193  26.350  16.456   5.365 -0.3288  0.1743 -0.1630
    1DIPC   D2A10194  26.089  16.332   4.969  0.0624 -0.3373 -0.2700
    1DIPC   D3A10195  26.151  16.570   4.682 -0.1046 -0.2841  0.2790
    1DIPC   C4A10196  25.993  16.489   4.227 -0.2948 -0.2804  0.0085
    1DIPC   C1B10197  26.703  15.883   5.179  0.2529 -0.0636  0.3638
    1DIPC   D2B10198  26.383  15.965   4.848  0.1297  0.0943 -0.0164
    1DIPC   D3B10199  26.670  16.320   4.885  0.1799  0.1686  0.0593
    1DIPC   C4B10200  27.117  16.480   4.769 -0.0238  0.0314 -0.2860
    1DIPC   NC310201  26.034  23.480   7.153 -0.3067 -0.1623 -0.0048
    1DIPC   PO410202  25.712  23.610   6.750  0.2761 -0.2026  0.0981
    1DIPC   GL110203  25.788  23.794   6.446  0.2035 -0.0493 -0.2008
    1DIPC   GL210204  25.923  24.097   6.576 -0.0206 -0.0569  0.0738
    1DIPC   C1A10205  25.994  23.764   6.002 -0.0455 -0.0368  0.2420
    1DIPC   D2A10206  25.904  23.963   5.628 -0.1399 -0.1924 -0.1359
    1DIPC   D3A10207  25.586  23.576   5.439 -0.1524 -0.1552 -0.1335
    1DIPC   C4A10208  25.266  23.845   5.355 -0.0323  0.3075  0.0238
    1DIPC   C1B10209  26.065  24.194   6.122 -0.2428  0.1581 -0.2945
    1DIPC   D2B10210  26.409  24.524   6.030  0.0554 -0.1297  0.2177
    1DIPC   D3B10211  26.649  24.535   5.592 -0.1269 -0.0537  0.0784
    1DIPC   C4B10212  26.966  24.839   5.424  0.3266  0.0657  0.3416
    1DIPC   NC310213  17.038   5.315   6.143 -0.2275 -0.1312 -0.2789
    1DIPC   PO410214  16.970   5.033   6.391 -0.0440 -0.2547 -0.3298
    1DIPC   GL110215  16.850   4.979   5.789 -0.2291  0.0064 -0.5621
    1DIPC   GL210216  16.805   5.239   5.600 -0.0934 -0.1618 -0.1234
    1DIPC   C1A10217  16.851   4.776   5.311  0.0733 -0.0490  0.2113
    1DIPC   D2A10218  16.665   4.790   4.848  0.0835  0.3830 -0.1287
    1DIPC   D3A10219  16.828   4.693   4.538  0.2521 -0.1537  0.0374
    1DIPC   C4A10220  17.244   4.523   4.537 -0.2792 -0.2693 -0.5429
    1DIPC   C1B10221  17.131   5.501   5.378 -0.0337  0.1371  0.2661
    1DIPC   D2B10222  17.545   5.246   5.169 -0.0792  0.0705  0.0947
    1DIPC   D3B10223  17.687   4.778   4.838 -0.0835 -0.0129 -0.0086
    1DIPC   C4B10224  17.721   4.294   4.845  0.1097  0.0909  0.2026
    1DIPC   NC310225  28.562   3.852   6.356 -0.0133 -0.2120  0.0274
    1DIPC   PO410226  28.144   4.041   6.482  0.3403 -0.1316 -0.0598
    1DIPC   GL110227  28.189   4.259   6.202 -0.1688  0.1138 -0.2131
    1DIPC   GL210228  28.384   4.143   5.961 -0.3157 -0.0413 -0.0768
    1DIPC   C1A10229  28.247   4.624   6.000 -0.2051  0.2292 -0.0910
    1DIPC   D2A10230  28.194   5.022   5.883 -0.3041 -0.0896 -0.2053
    1DIPC   D3A10231  28.180   4.816   5.581 -0.0564  0.0386  0.1744
    1DIPC   C4A10232  27.882   4.881   5.188 -0.1585 -0.4064  0.3186
    1DIPC   C1B10233  28.538   4.393   5.593 -0.2278  0.2379 -0.4103
    1DIPC   D2B10234  28.350   4.406   5.211  0.0469 -0.2904 -0.0189
    1DIPC   D3B10235  28.318   4.065   5.016  0.1004  0.5028 -0.0822
    1DIPC   C4B10236  28.167   4.103   4.628 -0.2478  0.2425 -0.0946
    1DIPC   NC310237  11.545   1.693   7.076  0.2269  0.0694  0.0714
    1DIPC   PO410238  11.126   1.714   6.972 -0.2619 -0.1492 -0.0062
    1DIPC   GL110239  11.112   1.691   6.611  0.1384  0.1822 -0.1864
    1DIPC   GL210240  11.416   1.369   6.676  0.1024 -0.1082 -0.0093
    1DIPC   C1A10241  11.080   1.652   6.166  0.0791 -0.1324  0.1170
    1DIPC   D2A10242  11.100   1.901   5.768  0.0945  0.0668 -0.2390
    1DIPC   D3A10243  11.446   1.845   5.541 -0.0657 -0.3342 -0.1200
    1DIPC   C4A10244  11.739   2.138   5.229 -0.1263 -0.1192  0.2087
    1DIPC   C1B10245  11.729   1.578   6.382  0.0903 -0.0368 -0.0756
    1DIPC   D2B10246  11.901   1.683   5.971  0.0577 -0.1905 -0.3212
    1DIPC   D3B10247  11.652   1.954   6.051 -0.2920  0.3409  0.2365
    1DIPC   C4B10248  11.269   2.177   6.134 -0.1605  0.3967  0.1942
    1DIPC   NC310249  26.057   8.174   6.643 -0.2396 -0.0664  0.2206
    1DIPC   PO410250  26.144   8.113   6.279 -0.1027  0.1094  0.1306
    1DIPC   GL110251  26.325   8.258   5.831  0.0304  0.1812  0.4085
    1DIPC   GL210252  26.572   8.028   5.637  0.0845 -0.0551 -0.1019
    1DIPC   C1A10253  26.243   8.323   5.390 -0.1151 -0.2924  0.0263
    1DIPC   D2A10254  26.216   8.431   4.943  0.0682 -0.0213 -0.0989
    1DIPC   D3A10255  25.911   8.401   4.561 -0.2525  0.1867  0.0938
    1DIPC   C4A10256  25.607   8.292   4.430  0.1348  0.1969 -0.2256
    1DIPC   C1B10257  26.178   7.804   5.214  0.0363  0.1555  0.0064
    1DIPC   D2B10258  25.984   7.550   4.985  0.0310  0.0022  0.0911
    1DIPC   D3B10259  26.429   7.502   4.929  0.0724 -0.1509 -0.0734
    1DIPC   C4B10260  26.866   7.659   4.933 -0.0863  0.4127  0.1461
    1DIPC   NC310261  11.883  10.407   7.097  0.0519  0.0467 -0.0563
    1DIPC   PO410262  12.082  10.061   6.944  0.0634 -0.3612  0.0355
    1DIPC   GL110263  12.145   9.995   6.481  0.0897  0.1674 -0.0716
    1DIPC   GL210264  12.258   9.658   6.504  0.0391 -0.0113  0.1156
    1DIPC   C1A10265  12.298  10.012   6.093  0.4674  0.0873 -0.4075
    1DIPC   D2A10266  12.195  10.091   5.646 -0.0518  0.1342  0.0297
    1DIPC   D3A10267  11.928  10.274   5.437 -0.0207  0.1608  0.1392
    1DIPC   C4A10268  12.090  10.214   5.000  0.0217 -0.1342 -0.0811
    1DIPC   C1B10269  12.457   9.431   6.134  0.0014  0.2364  0.0089
    1DIPC   D2B10270  12.541   9.234   5.833 -0.0144  0.0977  0.1980
    1DIPC   D3B10271  12.485   9.363   5.361  0.1166 -0.0707  0.3537
    1DIPC   C4B10272  12.839   9.653   5.271  0.1031  0.3819 -0.0979
    1DIPC   NC310273   5.503  17.284   5.567  0.3751 -0.0679 -0.0440
    1DIPC   PO410274   5.198  17.319   5.890 -0.1523  0.3994  0.4245
    1DIPC   GL110275   4.899  17.280   5.443  0.1114  0.2289 -0.2312
    1DIPC   GL210276   5.009  17.045   5.233 -0.1508  0.2263 -0.0242
    1DIPC   C1A10277   5.192  17.595   5.110  0.6914  0.0074  0.2203
    1DIPC   D2A10278   5.334  17.880   4.732 -0.0862  0.1985 -0.4249
    1DIPC   D3A10279   5.405  17.663   4.286 -0.2658  0.1052 -0.2095
    1DIPC   C4A10280   5.787  17.983   4.200 -0.1478  0.0708 -0.2195
    1DIPC   C1B10281   5.089  16.879   4.758  0.1673 -0.0399  0.0920
    1DIPC   D2B10282   5.061  16.589   4.335  0.2322  0.0974  0.2348
    1DIPC   D3B10283   4.662  16.798   4.265 -0.1884 -0.1729  0.0127
    1DIPC   C4B10284   4.329  16.627   3.950  0.2366 -0.0948 -0.1861
    1DIPC   NC310285  24.198  10.505   6.073 -0.2618  0.0675  0.1862
    1DIPC   PO410286  23.955  10.904   6.105  0.0466  0.2195  0.1936
    1DIPC   GL110287  23.950  10.623   5.643  0.4294 -0.0454 -0.2809
    1DIPC   GL210288  24.001  10.960   5.569 -0.0860 -0.2554 -0.0495
    1DIPC   C1A10289  24.228  10.397   5.386  0.1143  0.0480 -0.1299
    1DIPC   D2A10290  24.580  10.519   5.235 -0.2051 -0.0088  0.2120
    1DIPC   D3A10291  24.495  10.514   4.891  0.4317  0.1007 -0.0366
    1DIPC   C4A10292  24.052  10.303   4.843  0.1586 -0.0549  0.0129
    1DIPC   C1B10293  24.190  10.854   5.160  0.0540  0.3717 -0.1741
    1DIPC   D2B10294  24.152  10.831   4.673  0.0098 -0.3426  0.1142
    1DIPC   D3B10295  24.583  11.017   4.440  0.0168 -0.0109 -0.1965
    1DIPC   C4B10296  24.671  11.403   4.233  0.0915 -0.0908 -0.0888
    1DIPC   NC310297  24.249   5.954   6.879 -0.1012  0.2330 -0.2286
    1DIPC   PO410298  23.949   6.080   6.847  0.0655 -0.2240  0.3994
    1DIPC   GL110299  24.173   6.138   6.433 -0.1355  0.0010 -0.1684
    1DIPC   GL210300  24.135   5.893   6.310  0.0705  0.2508 -0.0502
    1DIPC   C1A10301  24.461   6.380   6.285  0.1260  0.4136  0.1065
    1DIPC   D2A10302  24.620   6.605   6.043 -0.2544 -0.1312 -0.1519
    1DIPC   D3A10303  24.462   6.509   5.576  0.0171 -0.2332  0.2447
    1DIPC   C4A10304  24.788   6.413   5.317 -0.1784 -0.1738  0.0119
    1DIPC   C1B10305  24.130   5.997   5.920  0.0969 -0.3385 -0.3668
    1DIPC   D2B10306  24.203   6.086   5.459 -0.0963 -0.0725 -0.1361
    1DIPC   D3B10307  24.315   5.681   5.210 -0.0981  0.0715  0.1124
    1DIPC   C4B10308  24.747   5.430   5.248  0.2070 -0.4212 -0.2639
    1DIPC   NC310309  27.075  22.774   6.613  0.1428  0.0230  0.3946
    1DIPC   PO410310  27.393  22.482   6.573  0.1635 -0.2577  0.0469
    1DIPC   GL110311  27.624  22.379   6.165  0.0262  0.0605  0.2522
    1DIPC   GL210312  27.483  22.088   5.938  0.0835  0.2603 -0.0640
    1DIPC   C1A10313  27.559  22.613   5.747 -0.0058 -0.0407 -0.1439
    1DIPC   D2A10314  27.387  22.629   5.274 -0.0974  0.0511  0.1416
    1DIPC   D3A10315  27.692  22.458   4.933  0.2961 -0.1049 -0.2185
    1DIPC   C4A10316  27.888  22.606   4.570  0.0561  0.0687  0.3405
    1DIPC   C1B10317  27.490  21.741   5.577 -0.7292  0.2275 -0.0913
    1DIPC   D2B10318  27.538  21.661   5.147  0.0079 -0.0161 -0.0372
    1DIPC   D3B10319  27.742  21.964   4.877  0.3147 -0.2036  0.2498
    1DIPC   C4B10320  28.116  22.170   4.952  0.1006 -0.1344 -0.0596
    1DIPC   NC310321   6.805  11.264   6.760  0.1613  0.1934 -0.1139
    1DIPC   PO410322   7.166  10.983   6.713  0.0979  0.1703  0.1113
    1DIPC   GL110323   7.021  10.963   6.265 -0.4018  0.2103 -0.0226
    1DIPC   GL210324   6.977  11.219   6.097  0.0384  0.0306 -0.3332
    1DIPC   C1A10325   7.160  10.878   5.809 -0.1813  0.0752 -0.1037
    1DIPC   D2A10326   7.323  10.977   5.410  0.1407  0.2291 -0.0765
    1DIPC   D3A10327   7.845  10.862   5.297  0.1280 -0.1112 -0.1430
    1DIPC   C4A10328   8.004  10.700   4.885  0.1785  0.2375 -0.2076
    1DIPC   C1B10329   6.861  11.236   5.574 -0.0680 -0.0676  0.3144
    1DIPC   D2B10330   6.755  11.183   5.196 -0.1355 -0.1363  0.0694
    1DIPC   D3B10331   7.171  11.153   4.972 -0.1533 -0.0627  0.3339
    1DIPC   C4B10332   7.387  11.503   4.773 -0.0690  0.1095 -0.3022
    1DIPC   NC310333   5.006  22.869   6.430 -0.0660  0.0223 -0.1353
    1DIPC   PO410334   5.329  22.843   5.982 -0.0501 -0.2568  0.0877
    1DIPC   GL110335   5.133  22.825   5.576  0.2776  0.0512 -0.0682
    1DIPC   GL210336   5.266  22.513   5.480  0.0299  0.0992  0.1676
    1DIPC   C1A10337   4.840  22.982   5.335 -0.3942  0.2566 -0.1928
    1DIPC   D2A10338   4.502  22.779   5.272 -0.6765  0.0445 -0.1060
    1DIPC   D3A10339   4.108  22.917   5.412  0.1235  0.5931  0.2960
    1DIPC   C4A10340   3.912  23.131   5.107  0.0417  0.0495  0.3294
    1DIPC   C1B10341   5.174  22.604   5.054 -0.1038 -0.0740  0.0515
    1DIPC   D2B10342   4.872  22.851   4.851 -0.0498 -0.0507  0.1580
    1DIPC   D3B10343   5.104  22.692   4.553 -0.2104 -0.0354 -0.1206
    1DIPC   C4B10344   5.170  22.801   4.240 -0.0912 -0.0589 -0.3749
    1DIPC   NC310345   7.980  21.740   5.856  0.1606  0.1933  0.1505
    1DIPC   PO410346   7.595  22.017   5.691  0.0744 -0.1147 -0.0944
    1DIPC   GL110347   7.814  22.024   5.353  0.2098 -0.2105 -0.2659
    1DIPC   GL210348   8.023  21.693   5.354 -0.2871 -0.0222  0.0420
    1DIPC   C1A10349   7.708  22.372   5.033 -0.1324 -0.1531 -0.1347
    1DIPC   D2A10350   7.661  22.612   4.642  0.2067 -0.0460 -0.0964
    1DIPC   D3A10351   7.572  22.489   4.207  0.0140  0.1882  0.0172
    1DIPC   C4A10352   7.679  22.088   4.140  0.3091  0.0642  0.1475
    1DIPC   C1B10353   8.165  21.898   5.014  0.2240  0.2488 -0.0247
    1DIPC   D2B10354   7.945  22.000   4.632 -0.2629 -0.0486 -0.0591
    1DIPC   D3B10355   7.843  21.625   4.428 -0.0552 -0.4031  0.4955
    1DIPC   C4B10356   7.732  21.633   4.008 -0.1852 -0.1709  0.2407
    1DIPC   NC310357  19.146  24.903   7.172 -0.1568 -0.1522  0.2799
    1DIPC   PO410358  18.954  25.359   6.972  0.5035  0.2206 -0.2217
    1DIPC   GL110359  18.645  25.303   6.698  0.3258 -0.0839  0.0698
    1DIPC   GL210360  18.345  25.129   6.759  0.1342  0.1241  0.1279
    1DIPC   C1A10361  18.791  25.299   6.228  0.0252  0.0367  0.0739
    1DIPC   D2A10362  18.812  24.962   5.979  0.1203  0.1121 -0.1081
    1DIPC   D3A10363  19.011  24.873   5.706  0.0515  0.1507 -0.3240
    1DIPC   C4A10364  19.420  24.690   5.739  0.0184 -0.0150 -0.0132
    1DIPC   C1B10365  18.690  24.842   6.495  0.0516  0.0318  0.0913
    1DIPC   D2B10366  19.146  24.932   6.559  0.0143  0.4409 -0.1260
    1DIPC   D3B10367  19.289  25.115   6.176  0.3760  0.0310  0.0492
    1DIPC   C4B10368  19.215  25.414   5.846 -0.2513  0.1876 -0.0681
    1DIPC   NC310369  18.104   0.123   6.672 -0.0770  0.2584  0.2268
    1DIPC   PO410370  18.021  -0.301   6.643  0.0786 -0.0323  0.1275
    1DIPC   GL110371  18.186  -0.121   6.159 -0.0898  0.1170 -0.0161
    1DIPC   GL210372  18.206  -0.372   5.888 -0.3812  0.0457  0.0031
    1DIPC   C1A10373  18.155   0.107   5.736 -0.0310  0.0606  0.1590
    1DIPC   D2A10374  18.433   0.393   5.631 -0.0181 -0.0442  0.5245
    1DIPC   D3A10375  18.506   0.614   5.964 -0.3420 -0.0479 -0.1675
    1DIPC   C4A10376  18.720   1.031   5.843 -0.0758 -0.1762  0.0240
    1DIPC   C1B10377  17.832  -0.418   5.575 -0.0447 -0.3323  0.1021
    1DIPC   D2B10378  17.691  -0.307   5.120  0.0260  0.2063  0.0963
    1DIPC   D3B10379  17.394  -0.085   4.865  0.1959 -0.0366 -0.2400
    1DIPC   C4B10380  17.057  -0.226   4.840  0.0808  0.0200 -0.0364
    1DIPC   NC310381  21.619  25.481   6.589  0.1499 -0.1843  0.2053
    1DIPC   PO410382  21.889  25.833   6.747  0.5251  0.1543 -0.2832
    1DIPC   GL110383  22.017  25.844   6.343 -0.1025  0.0997 -0.1697
    1DIPC   GL210384  22.185  26.093   6.355  0.1532 -0.0637  0.1402
    1DIPC   C1A10385  21.934  25.461   6.045  0.2271 -0.0622  0.2511
    1DIPC   D2A10386  22.041  25.306   5.642 -0.0956  0.0296  0.0461
    1DIPC   D3A10387  21.672  25.394   5.630 -0.1545  0.0081  0.2056
    1DIPC   C4A10388  21.490  25.679   5.978  0.2199 -0.4926 -0.1080
    1DIPC   C1B10389  22.202  26.102   5.911  0.2572 -0.1177  0.0338
    1DIPC   D2B10390  21.890  25.853   5.653  0.2211  0.0413 -0.2110
    1DIPC   D3B10391  21.844  25.620   5.233 -0.0973 -0.1561 -0.5898
    1DIPC   C4B10392  21.817  25.892   4.887  0.0620 -0.1276 -0.1555
    1DIPC   NC310393   1.917  24.956   5.615 -0.2197 -0.0356  0.0350
    1DIPC   PO410394   1.944  24.589   5.822 -0.3716 -0.2124 -0.0664
    1DIPC   GL110395   2.228  24.575   5.393  0.3284  0.2993  0.3539
    1DIPC   GL210396   2.065  24.862   5.169  0.0985 -0.1514  0.1046
    1DIPC   C1A10397   1.935  24.443   4.981 -0.3450 -0.1635 -0.2899
    1DIPC   D2A10398   1.949  24.709   4.627  0.4848 -0.1049  0.1593
    1DIPC   D3A10399   1.566  24.630   4.414  0.3661  0.0969 -0.0247
    1DIPC   C4A10400   1.436  24.387   4.063  0.1206  0.0259 -0.0992
    1DIPC   C1B10401   2.382  24.936   4.855 -0.0011  0.0113 -0.1038
    1DIPC   D2B10402   2.329  24.900   4.428  0.1126  0.1436 -0.0022
    1DIPC   D3B10403   2.340  25.213   4.087 -0.0042 -0.3943  0.0559
    1DIPC   C4B10404   2.455  25.603   4.178 -0.1208  0.1155  0.0684
    1DIPC   NC310405  25.849   6.621   6.927 -0.0141  0.1498  0.1869
    1DIPC   PO410406  25.462   6.255   6.807  0.2414  0.1122  0.0451
    1DIPC   GL110407  25.359   6.255   6.316  0.1838 -0.3288 -0.0426
    1DIPC   GL210408  24.934   6.190   6.260  0.2303  0.0704 -0.0100
    1DIPC   C1A10409  25.380   6.100   5.968 -0.0036  0.4375 -0.0284
    1DIPC   D2A10410  25.682   6.378   5.652 -0.0466  0.1716 -0.0799
    1DIPC   D3A10411  25.971   6.684   5.579  0.0388  0.0942 -0.2136
    1DIPC   C4A10412  25.903   7.021   5.327  0.0317  0.1191  0.0923
    1DIPC   C1B10413  24.868   6.168   5.826  0.0426 -0.2191 -0.0716
    1DIPC   D2B10414  24.616   5.862   5.561  0.1284  0.3713  0.3150
    1DIPC   D3B10415  24.921   5.910   5.376 -0.0300 -0.2596  0.0140
    1DIPC   C4B10416  25.276   6.137   5.424 -0.0464 -0.2388  0.1347
    1DIPC   NC310417   1.280  21.210   6.345  0.2177  0.0562 -0.0368
    1DIPC   PO410418   1.337  21.633   6.159  0.1182  0.1250 -0.0232
    1DIPC   GL110419   1.500  21.690   5.699 -0.2748 -0.0762  0.0431
    1DIPC   GL210420   1.766  21.893   5.607 -0.0641  0.0940  0.1357
    1DIPC   C1A10421   1.424  21.597   5.213  0.2667  0.1464 -0.2795
    1DIPC   D2A10422   1.131  21.273   5.111  0.5439  0.0976 -0.0969
    1DIPC   D3A10423   1.338  21.268   4.716 -0.0185 -0.1506  0.0097
    1DIPC   C4A10424   1.211  21.176   4.290 -0.1613  0.4268 -0.1312
    1DIPC   C1B10425   1.923  21.834   5.229 -0.0423 -0.1665  0.0940
    1DIPC   D2B10426   2.305  21.607   5.275  0.1658  0.0941 -0.2934
    1DIPC   D3B10427   2.238  21.132   5.208  0.2469 -0.0846 -0.0642
    1DIPC   C4B10428   2.543  20.898   5.104  0.0324 -0.0557 -0.0745
    1DIPC   NC310429   1.818  24.068   5.901  0.1706  0.5186  0.0058
    1DIPC   PO410430   1.436  23.949   5.701  0.0814 -0.0412  0.0174
    1DIPC   GL110431   1.163  24.028   5.443  0.1456  0.0740  0.2587
    1DIPC   GL210432   1.218  23.791   5.228  0.1443 -0.3062  0.3377
    1DIPC   C1A10433   1.016  24.247   5.007  0.2464 -0.1164 -0.1492
    1DIPC   D2A10434   0.977  24.626   4.758 -0.0374  0.1922  0.0071
    1DIPC   D3A10435   1.168  24.285   4.534 -0.3094 -0.1427  0.1302
    1DIPC   C4A10436   0.924  23.792   4.584  0.1975  0.0353  0.0399
    1DIPC   C1B10437   1.356  23.893   4.826 -0.0865 -0.1353 -0.1764
    1DIPC   D2B10438   1.704  24.230   4.635 -0.2230 -0.0053  0.1876
    1DIPC   D3B10439   2.098  24.136   4.631 -0.2732 -0.1854  0.0805
    1DIPC   C4B10440   2.251  24.451   4.328  0.1044  0.0151 -0.0998
    1DIPC   NC310441   3.968  21.616   5.643  0.1207  0.1698 -0.2181
    1DIPC   PO410442   3.710  21.936   5.532 -0.3493  0.1123 -0.5394
    1DIPC   GL110443   3.593  21.851   5.183  0.3759  0.2716 -0.1570
    1DIPC   GL210444   3.718  22.125   4.980  0.0505  0.1254 -0.2375
    1DIPC   C1A10445   3.524  21.697   4.798  0.2054 -0.0398 -0.1025
    1DIPC   D2A10446   3.705  21.759   4.449  0.1033  0.0710  0.0644
    1DIPC   D3A10447   3.976  21.915   4.184 -0.3729  0.1158  0.0919
    1DIPC   C4A10448   3.870  21.925   3.806 -0.1887 -0.2407  0.0367
    1DIPC   C1B10449   4.006  21.773   4.912  0.1738 -0.0103  0.2541
    1DIPC   D2B10450   4.229  21.640   4.623 -0.0861 -0.0125  0.2280
    1DIPC   D3B10451   3.958  21.349   4.379  0.2129  0.0671 -0.1193
    1DIPC   C4B10452   3.966  20.869   4.453 -0.0289  0.4454 -0.2196
    1DIPC   NC310453  25.090  15.815   6.543 -0.4162  0.2381 -0.0069
    1DIPC   PO410454  25.175  16.104   6.193  0.1776 -0.2254 -0.3866
    1DIPC   GL110455  25.100  15.950   5.784  0.0748  0.1203 -0.2626
    1DIPC   GL210456  25.277  16.016   5.621  0.1425  0.3270 -0.1013
    1DIPC   C1A10457  24.828  15.923   5.450 -0.2185 -0.0404 -0.0544
    1DIPC   D2A10458  24.689  16.054   5.148 -0.1457 -0.1058  0.0363
    1DIPC   D3A10459  24.268  16.269   5.297  0.1368  0.1986 -0.0294
    1DIPC   C4A10460  23.902  16.475   5.187 -0.0044 -0.2039 -0.1284
    1DIPC   C1B10461  25.747  15.899   5.469  0.1057  0.1754 -0.0199
    1DIPC   D2B10462  25.958  15.894   5.216 -0.1965  0.1952 -0.2417
    1DIPC   D3B10463  25.689  15.794   4.917  0.1799 -0.0479  0.1556
    1DIPC   C4B10464  25.734  16.109   4.539 -0.1950  0.0638 -0.2182
    1DIPC   NC310465  12.531   6.639   7.242 -0.1811  0.1130 -0.0808
    1DIPC   PO410466  12.742   6.772   6.864 -0.1850 -0.1473  0.1267
    1DIPC   GL110467  12.582   6.870   6.467 -0.0085 -0.1143  0.1626
    1DIPC   GL210468  12.616   6.674   6.189 -0.5732  0.0111  0.0942
    1DIPC   C1A10469  12.669   7.191   6.040  0.0002 -0.0552  0.3317
    1DIPC   D2A10470  12.531   7.306   5.571 -0.3259 -0.0333  0.2401
    1DIPC   D3A10471  12.788   7.399   5.262  0.2756 -0.2873  0.3575
    1DIPC   C4A10472  12.658   7.267   4.912  0.0142  0.1231  0.1287
    1DIPC   C1B10473  12.522   6.810   5.723 -0.0012 -0.1302 -0.1799
    1DIPC   D2B10474  12.394   6.525   5.383  0.1829 -0.1421 -0.0539
    1DIPC   D3B10475  12.553   6.406   4.990  0.1915  0.3151  0.2059
    1DIPC   C4B10476  13.058   6.405   4.858 -0.0866 -0.0822  0.2845
    1DIPC   NC310477  21.968  11.766   6.270  0.0520 -0.0271  0.1868
    1DIPC   PO410478  21.669  12.072   6.344 -0.0796  0.1166 -0.1464
    1DIPC   GL110479  21.505  12.133   5.970  0.0156 -0.1918 -0.0310
    1DIPC   GL210480  21.598  11.861   5.852 -0.0152  0.0311  0.2138
    1DIPC   C1A10481  21.160  12.084   5.614  0.0997 -0.2622  0.0323
    1DIPC   D2A10482  20.744  12.263   5.457 -0.0482  0.1730  0.0807
    1DIPC   D3A10483  21.056  12.218   5.134 -0.1550 -0.1693  0.2468
    1DIPC   C4A10484  20.870  12.289   4.792  0.2128 -0.0850  0.1075
    1DIPC   C1B10485  21.524  11.766   5.489 -0.0902  0.2134 -0.0768
    1DIPC   D2B10486  21.360  11.811   5.085 -0.2151  0.0816  0.1694
    1DIPC   D3B10487  21.385  12.145   4.762 -0.4201 -0.0462  0.0844
    1DIPC   C4B10488  21.686  12.142   4.425 -0.0110 -0.0843 -0.0600
    1DIPC   NC310489   0.423  10.007   6.254  0.1441  0.5784  0.2721
    1DIPC   PO410490   0.349   9.557   6.391  0.2386  0.2981 -0.1299
    1DIPC   GL110491   0.253   9.567   5.945  0.1265  0.1188 -0.0828
    1DIPC   GL210492   0.360   9.861   5.708 -0.0981 -0.2651 -0.1950
    1DIPC   C1A10493  -0.187   9.391   5.633 -0.1414 -0.0358  0.0367
    1DIPC   D2A10494  -0.581   9.389   5.609  0.0447  0.0146 -0.1895
    1DIPC   D3A10495  -0.820   8.987   5.653  0.3965  0.1638  0.2280
    1DIPC   C4A10496  -0.916   8.797   5.256 -0.0989 -0.0176  0.1672
    1DIPC   C1B10497   0.203   9.771   5.311  0.1964  0.3504 -0.2645
    1DIPC   D2B10498   0.068   9.689   4.922  0.1705 -0.0331 -0.3403
    1DIPC   D3B10499  -0.233   9.516   5.122  0.0140 -0.0657  0.1826
    1DIPC   C4B10500  -0.568   9.561   4.902 -0.2372  0.1469  0.0046
    1DIPC   NC310501   9.457   9.936   7.268  0.0093 -0.3804 -0.2170
    1DIPC   PO410502   9.776  10.223   7.291  0.1304  0.1541 -0.1601
    1DIPC   GL110503   9.669  10.148   6.890 -0.2335  0.3470  0.1400
    1DIPC   GL210504   9.340  10.050   6.779 -0.0788  0.1648 -0.1541
    1DIPC   C1A10505   9.809   9.816   6.572  0.2097 -0.2488 -0.1538
    1DIPC   D2A10506  10.190   9.472   6.451  0.2101 -0.0432  0.2458
    1DIPC   D3A10507  10.144   9.571   5.956  0.1768  0.1193 -0.2575
    1DIPC   C4A10508   9.773   9.580   5.724 -0.0826  0.0875 -0.3329
    1DIPC   C1B10509   9.509  10.218   6.414 -0.0025  0.1864 -0.0963
    1DIPC   D2B10510   9.482  10.618   6.297  0.2880  0.2682  0.0359
    1DIPC   D3B10511   9.560  10.699   6.680 -0.1152 -0.1273 -0.1683
    1DIPC   C4B10512   9.274  10.868   7.030 -0.1123 -0.2255  0.0635
    1DIPC   NC310513   3.988  20.661   5.950  0.0542  0.2689 -0.0776
    1DIPC   PO410514   4.185  20.968   5.692 -0.3049  0.3563  0.1607
    1DIPC   GL110515   3.894  21.009   5.403 -0.0028  0.0401  0.0924
    1DIPC   GL210516   3.970  21.381   5.228  0.1063  0.0949 -0.1143
    1DIPC   C1A10517   3.954  20.767   4.994  0.1010 -0.0885  0.0244
    1DIPC   D2A10518   3.627  20.670   4.761  0.0593 -0.5135  0.0168
    1DIPC   D3A10519   3.477  20.807   4.283 -0.1156 -0.1808 -0.1275
    1DIPC   C4A10520   3.356  20.707   3.850  0.2451 -0.0584 -0.0074
    1DIPC   C1B10521   3.752  21.226   4.911  0.0404 -0.1159  0.1854
    1DIPC   D2B10522   3.423  21.264   4.511 -0.0656 -0.2938 -0.0091
    1DIPC   D3B10523   3.129  21.124   4.378  0.0382  0.1684 -0.1129
    1DIPC   C4B10524   3.256  21.226   3.984 -0.0207  0.1508 -0.1847
    1DIPC   NC310525   3.759  27.356   7.113 -0.1878 -0.0902  0.0200
    1DIPC   PO410526   3.519  27.533   6.692 -0.1822 -0.3115 -0.3469
    1DIPC   GL110527   3.473  27.646   6.191  0.1003  0.1501 -0.1119
    1DIPC   GL210528   3.225  27.526   5.967 -0.1027 -0.1587 -0.0850
    1DIPC   C1A10529   3.711  27.384   5.897  0.4101  0.0102  0.2473
    1DIPC   D2A10530   3.969  27.527   5.546  0.0321  0.2923  0.0338
    1DIPC   D3A10531   3.981  27.380   5.138 -0.1590  0.1516  0.2291
    1DIPC   C4A10532   4.018  26.978   5.143  0.0124  0.0211  0.1156
    1DIPC   C1B10533   3.284  27.190   5.655  0.1251  0.3276  0.0652
    1DIPC   D2B10534   3.546  27.096   5.274  0.0818 -0.0173 -0.4962
    1DIPC   D3B10535   3.654  26.596   5.390 -0.0279 -0.0690  0.1815
    1DIPC   C4B10536   3.979  26.566   5.419  0.0409 -0.3047  0.1828
    1DIPC   NC310537  24.744   1.960   7.055  0.1726  0.1266 -0.1898
    1DIPC   PO410538  24.555   2.146   6.742 -0.0637 -0.1811 -0.1443
    1DIPC   GL110539  24.685   2.163   6.312 -0.2383  0.0826  0.2494
    1DIPC   GL210540  24.880   2.427   6.227 -0.2176 -0.1353  0.1012
    1DIPC   C1A10541  24.564   2.266   5.803 -0.0314 -0.0984  0.0919
    1DIPC   D2A10542  24.442   2.010   5.523  0.1027  0.1224  0.2040
    1DIPC   D3A10543  24.333   1.993   5.043 -0.1144  0.1758 -0.2389
    1DIPC   C4A10544  24.542   2.085   4.710 -0.0264 -0.1355  0.0667
    1DIPC   C1B10545  25.065   2.085   5.996 -0.1237  0.1573  0.1961
    1DIPC   D2B10546  25.187   1.740   5.782  0.1928 -0.0103 -0.0980
    1DIPC   D3B10547  24.985   1.914   5.552  0.1022  0.0142 -0.1219
    1DIPC   C4B10548  25.262   2.232   5.185  0.0996 -0.0009  0.0755
    1DIPC   NC310549  14.523   0.215   6.732  0.1402  0.0446 -0.2175
    1DIPC   PO410550  14.087   0.176   6.829 -0.0475  0.2013  0.3050
    1DIPC   GL110551  14.038   0.167   6.481 -0.0147 -0.4123 -0.1388
    1DIPC   GL210552  13.699   0.266   6.446  0.0121 -0.1800  0.1351
    1DIPC   C1A10553  14.320   0.217   6.152 -0.2168  0.5158 -0.1325
    1DIPC   D2A10554  14.701   0.069   5.960  0.0856 -0.2299  0.0496
    1DIPC   D3A10555  14.796  -0.348   5.790 -0.1579  0.2615  0.0367
    1DIPC   C4A10556  15.065  -0.456   5.409  0.0994 -0.0506 -0.0425
    1DIPC   C1B10557  13.361   0.038   6.097 -0.0150 -0.1886  0.0313
    1DIPC   D2B10558  13.319   0.144   5.720 -0.3265 -0.0061  0.0533
    1DIPC   D3B10559  13.273   0.413   5.353  0.1913 -0.0424  0.2847
    1DIPC   C4B10560  13.027   0.817   5.382 -0.2560 -0.1014  0.1527
    1DIPC   NC310561  27.659  24.016   6.434 -0.1626  0.1265  0.2235
    1DIPC   PO410562  27.650  23.474   6.273  0.0419  0.0977  0.3771
    1DIPC   GL110563  27.385  23.182   6.033  0.0887  0.0173 -0.2204
    1DIPC   GL210564  27.062  23.391   5.882  0.0935  0.1490  0.0464
    1DIPC   C1A10565  27.500  23.064   5.576 -0.0314  0.0487 -0.3064
    1DIPC   D2A10566  27.755  23.251   5.265  0.2964  0.1153  0.2891
    1DIPC   D3A10567  27.507  22.976   4.994 -0.1040 -0.2388  0.2325
    1DIPC   C4A10568  27.086  23.081   4.808  0.2095  0.4756  0.1991
    1DIPC   C1B10569  26.884  23.479   5.575 -0.3547  0.1293  0.3744
    1DIPC   D2B10570  26.622  23.812   5.317  0.2334 -0.2348 -0.0899
    1DIPC   D3B10571  26.386  23.678   4.983  0.3026  0.2542  0.1971
    1DIPC   C4B10572  26.192  23.498   4.731 -0.3181  0.0458  0.1689
    1DIPC   NC310573   2.050  18.723   6.261 -0.2389 -0.0805  0.0343
    1DIPC   PO410574   2.391  18.397   6.270  0.0154 -0.2601  0.2370
    1DIPC   GL110575   2.215  18.302   5.931 -0.1502  0.0909 -0.2464
    1DIPC   GL210576   1.952  17.974   5.810 -0.0193  0.2164  0.0640
    1DIPC   C1A10577   2.034  18.385   5.488 -0.0310  0.2623 -0.2365
    1DIPC   D2A10578   2.145  18.681   5.243 -0.1615 -0.0182  0.0912
    1DIPC   D3A10579   2.306  18.577   4.870  0.3142  0.1960 -0.0727
    1DIPC   C4A10580   2.460  18.810   4.521 -0.0643  0.1512  0.0070
    1DIPC   C1B10581   1.761  17.671   5.588  0.5619 -0.1217  0.1583
    1DIPC   D2B10582   1.389  17.493   5.393 -0.0010 -0.0844 -0.0084
    1DIPC   D3B10583   1.241  17.723   5.005  0.0877 -0.1809  0.5095
    1DIPC   C4B10584   1.452  18.036   4.569  0.3324 -0.0251  0.1149
    1DIPC   NC310585  12.867  28.055   7.107  0.1831  0.0236  0.1510
    1DIPC   PO410586  13.153  28.366   7.086 -0.1674  0.1931  0.3113
    1DIPC   GL110587  13.069  28.525   6.663  0.0518 -0.1410 -0.1100
    1DIPC   GL210588  12.832  28.857   6.625 -0.0389  0.0200 -0.0761
    1DIPC   C1A10589  13.248  28.387   6.240 -0.6702  0.0485  0.0349
    1DIPC   D2A10590  13.483  28.100   6.179  0.1381  0.0916  0.0898
    1DIPC   D3A10591  13.032  27.949   5.996 -0.2876  0.2205 -0.1181
    1DIPC   C4A10592  12.863  27.454   5.938 -0.0874  0.3668  0.1326
    1DIPC   C1B10593  12.813  28.653   6.264 -0.2235 -0.0378 -0.1905
    1DIPC   D2B10594  12.608  28.760   5.813  0.0785  0.2243  0.1386
    1DIPC   D3B10595  12.339  28.632   5.655  0.4099 -0.3191 -0.0082
    1DIPC   C4B10596  11.961  28.786   5.821 -0.1154  0.0156 -0.0665
    1DIPC   NC310597   7.016  19.527   5.711 -0.0404  0.1486  0.0128
    1DIPC   PO410598   6.522  19.533   5.682  0.1063  0.3048  0.0359
    1DIPC   GL110599   6.634  19.473   5.273  0.1421 -0.0109 -0.1433
    1DIPC   GL210600   6.948  19.432   5.199 -0.1661 -0.1447  0.1136
    1DIPC   C1A10601   6.603  19.065   5.075  0.0722 -0.1210 -0.0838
    1DIPC   D2A10602   6.280  18.756   4.913  0.4081 -0.0157  0.0722
    1DIPC   D3A10603   5.892  18.875   5.108 -0.2076 -0.0213  0.0593
    1DIPC   C4A10604   5.710  19.274   5.053 -0.0454  0.1915  0.0968
    1DIPC   C1B10605   6.769  19.518   4.763 -0.1082  0.2119  0.0599
    1DIPC   D2B10606   6.613  19.443   4.322 -0.1972  0.1355  0.1487
    1DIPC   D3B10607   6.174  19.491   4.196 -0.0318  0.0363 -0.1999
    1DIPC   C4B10608   6.103  19.459   3.800 -0.1120  0.3555 -0.1545
    1DIPC   NC310609  14.814   1.863   7.510 -0.4128  0.1787 -0.1101
    1DIPC   PO410610  14.780   2.057   7.141 -0.4715  0.1883  0.1731
    1DIPC   GL110611  15.045   1.938   6.771 -0.1652 -0.1963  0.0545
    1DIPC   GL210612  15.421   1.652   6.779 -0.0444 -0.0780  0.0083
    1DIPC   C1A10613  15.148   1.879   6.386  0.0864  0.2976  0.3466
    1DIPC   D2A10614  15.428   2.078   6.154  0.0868 -0.1996 -0.1096
    1DIPC   D3A10615  15.759   1.862   6.344  0.2142  0.0762  0.0063
    1DIPC   C4A10616  15.918   1.412   6.675  0.0692  0.2155 -0.2060
    1DIPC   C1B10617  15.457   1.421   6.373  0.0685  0.0581  0.1319
    1DIPC   D2B10618  15.474   1.553   5.951  0.1588  0.2970  0.0026
    1DIPC   D3B10619  15.661   1.406   5.552  0.1179 -0.1325  0.6274
    1DIPC   C4B10620  16.151   1.442   5.463 -0.0644 -0.1246  0.0900
    1DIPC   NC310621  10.705   5.681   7.336 -0.0799  0.2294 -0.1761
    1DIPC   PO410622  10.623   5.367   7.022  0.0690 -0.1428 -0.2212
    1DIPC   GL110623  10.805   5.683   6.763 -0.2096  0.0212 -0.0017
    1DIPC   GL210624  10.767   5.646   6.403  0.0028 -0.0039 -0.1163
    1DIPC   C1A10625  10.918   6.082   6.580  0.1931  0.1458  0.2487
    1DIPC   D2A10626  10.819   6.433   6.379  0.0940 -0.1194  0.1840
    1DIPC   D3A10627  10.967   6.820   6.273  0.1023 -0.0352 -0.0249
    1DIPC   C4A10628  10.934   6.841   5.837 -0.1610  0.1421  0.4351
    1DIPC   C1B10629  10.889   6.017   6.081 -0.0500 -0.0665  0.0558
    1DIPC   D2B10630  10.858   5.950   5.677  0.2685  0.3147  0.6174
    1DIPC   D3B10631  10.844   6.103   5.404  0.2919 -0.0784  0.0678
    1DIPC   C4B10632  11.084   6.105   5.015  0.2336 -0.1684 -0.3534
    1DIPC   NC310633   4.646  29.585   6.674  0.0276  0.0381  0.0322
    1DIPC   PO410634   4.995  29.593   6.356  0.1950  0.2690  0.2561
    1DIPC   GL110635   4.957  29.704   5.927  0.2053  0.3719  0.5847
    1DIPC   GL210636   4.706  29.852   5.698 -0.2115 -0.1532  0.3967
    1DIPC   C1A10637   4.824  29.461   5.439  0.0502 -0.1749 -0.1235
    1DIPC   D2A10638   4.447  29.436   5.080 -0.4836 -0.1219 -0.0049
    1DIPC   D3A10639   4.052  29.231   5.089 -0.1227 -0.1594  0.1074
    1DIPC   C4A10640   3.909  28.841   4.960  0.0258  0.1010 -0.1794
    1DIPC   C1B10641   5.033  29.903   5.460 -0.1544  0.2459  0.0148
    1DIPC   D2B10642   5.338  29.918   5.126 -0.1332 -0.0301 -0.0000
    1DIPC   D3B10643   5.047  29.647   5.017  0.2378  0.0208 -0.0293
    1DIPC   C4B10644   4.649  29.698   4.656 -0.0673  0.0985 -0.2284
    1DIPC   NC310645   5.445  26.027   6.222  0.0379  0.1784 -0.1237
    1DIPC   PO410646   5.056  25.632   6.092 -0.0470 -0.1669 -0.0463
    1DIPC   GL110647   5.219  25.914   5.698 -0.0302  0.1982  0.0114
    1DIPC   GL210648   5.016  25.798   5.396 -0.0512 -0.3631  0.1064
    1DIPC   C1A10649   5.280  26.267   5.369  0.2523  0.0574  0.0641
    1DIPC   D2A10650   5.398  26.495   5.107  0.1661 -0.1276 -0.2256
    1DIPC   D3A10651   5.736  26.198   5.020 -0.0233  0.1471 -0.2326
    1DIPC   C4A10652   5.951  26.068   4.626 -0.0024 -0.3677 -0.2091
    1DIPC   C1B10653   4.680  25.997   5.115  0.0033 -0.2219 -0.3044
    1DIPC   D2B10654   4.682  26.260   4.752 -0.0733  0.0898  0.4439
    1DIPC   D3B10655   5.092  26.086   4.882  0.3024 -0.0691  0.2582
    1DIPC   C4B10656   5.389  26.294   4.606  0.3319 -0.1892 -0.0917
    1DIPC   NC310657  24.647   8.438   6.818  0.0634 -0.1870 -0.3272
    1DIPC   PO410658  24.549   7.994   6.903 -0.2206  0.0127 -0.0754
    1DIPC   GL110659  24.709   7.929   6.428 -0.0108 -0.1018 -0.1262
    1DIPC   GL210660  24.897   8.262   6.316 -0.2475  0.1585  0.0064
    1DIPC   C1A10661  24.726   7.595   6.175  0.4302  0.0664  0.1128
    1DIPC   D2A10662  24.849   7.527   5.739  0.3518  0.1180 -0.1473
    1DIPC   D3A10663  25.141   7.076   5.797  0.3212  0.1465  0.1376
    1DIPC   C4A10664  25.500   6.974   5.566 -0.0207  0.0755 -0.0078
    1DIPC   C1B10665  24.879   8.020   5.910  0.0752 -0.0955 -0.1216
    1DIPC   D2B10666  24.995   7.995   5.447  0.1952 -0.0647 -0.0095
    1DIPC   D3B10667  25.387   8.002   5.774  0.0355  0.0288 -0.3324
    1DIPC   C4B10668  25.328   7.657   5.944 -0.2127  0.1544  0.2143
    1DIPC   NC310669  28.279   4.996   6.828  0.0766  0.0759  0.0557
    1DIPC   PO410670  27.830   5.095   6.717  0.1313 -0.1351  0.0843
    1DIPC   GL110671  27.887   5.030   6.248 -0.0974 -0.1134 -0.0902
    1DIPC   GL210672  27.723   4.813   6.132  0.2802 -0.2585 -0.0541
    1DIPC   C1A10673  27.681   5.242   5.859 -0.3086  0.0075  0.1237
    1DIPC   D2A10674  27.876   5.261   5.523  0.0511 -0.1108  0.3020
    1DIPC   D3A10675  27.725   5.637   5.590 -0.1788 -0.3435  0.0362
    1DIPC   C4A10676  27.729   6.118   5.444 -0.1757 -0.1562 -0.0627
    1DIPC   C1B10677  27.765   4.448   5.876 -0.1413 -0.1077 -0.0997
    1DIPC   D2B10678  27.831   4.380   5.359  0.1898 -0.0770  0.0991
    1DIPC   D3B10679  27.704   4.003   5.461  0.1296  0.2525 -0.0169
    1DIPC   C4B10680  27.862   3.841   5.800  0.2535 -0.0091 -0.0301
    1DIPC   NC310681  19.261   3.726   6.355  0.0274 -0.1400 -0.1259
    1DIPC   PO410682  19.621   3.788   6.208  0.1636  0.2869  0.2832
    1DIPC   GL110683  19.848   3.717   5.784  0.1140  0.0878  0.0430
    1DIPC   GL210684  19.968   4.000   5.755 -0.1244 -0.0379  0.1209
    1DIPC   C1A10685  19.810   3.608   5.358  0.3085  0.1544 -0.3014
    1DIPC   D2A10686  19.560   3.602   4.960 -0.2312  0.0853  0.0336
    1DIPC   D3A10687  19.448   3.931   4.798  0.0354 -0.0604  0.0739
    1DIPC   C4A10688  19.493   3.862   4.348 -0.1704 -0.1567  0.0015
    1DIPC   C1B10689  19.801   4.464   5.609  0.4241  0.2524 -0.1911
    1DIPC   D2B10690  19.670   4.923   5.744 -0.0564  0.2656  0.1529
    1DIPC   D3B10691  19.761   5.025   5.312  0.1736 -0.0869  0.0041
    1DIPC   C4B10692  20.023   5.296   5.192  0.0001 -0.1057  0.5362
    1DIPC   NC310693  27.625   3.813   6.469  0.0328 -0.5402 -0.3483
    1DIPC   PO410694  27.204   3.794   6.358  0.1082  0.1230  0.1047
    1DIPC   GL110695  26.827   3.828   6.058 -0.2263  0.2613 -0.1172
    1DIPC   GL210696  26.755   3.448   6.064  0.1255 -0.1128  0.3840
    1DIPC   C1A10697  26.891   3.980   5.726  0.5517  0.1957 -0.0615
    1DIPC   D2A10698  27.286   4.178   5.706 -0.0903 -0.3269  0.1473
    1DIPC   D3A10699  27.287   3.802   5.880 -0.0192  0.0801 -0.2045
    1DIPC   C4A10700  27.466   3.490   5.669  0.0262  0.0960 -0.2491
    1DIPC   C1B10701  26.954   3.488   5.527 -0.2836 -0.0242  0.1969
    1DIPC   D2B10702  27.244   3.286   5.179 -0.0868 -0.1716  0.0673
    1DIPC   D3B10703  27.601   3.516   5.149  0.1441 -0.0637 -0.1411
    1DIPC   C4B10704  27.966   3.245   5.025  0.0936  0.1933 -0.2773
    1DIPC   NC310705   3.307  14.965   5.916 -0.0416 -0.1885  0.1969
    1DIPC   PO410706   3.081  14.558   5.880 -0.1176 -0.0227  0.1370
    1DIPC   GL110707   2.843  14.456   5.568 -0.2017 -0.1021  0.0133
    1DIPC   GL210708   2.577  14.520   5.458  0.1642  0.1689  0.2122
    1DIPC   C1A10709   2.926  14.653   5.155 -0.2702  0.2164  0.2999
    1DIPC   D2A10710   2.928  14.815   4.690  0.0409  0.4290  0.1201
    1DIPC   D3A10711   2.917  14.441   4.721 -0.3411  0.0827 -0.2380
    1DIPC   C4A10712   2.735  14.129   4.485 -0.1940  0.2353 -0.1746
    1DIPC   C1B10713   2.459  14.598   5.045 -0.0743  0.0935 -0.0795
    1DIPC   D2B10714   2.433  14.528   4.551  0.0917 -0.0394 -0.0769
    1DIPC   D3B10715   2.702  14.509   4.193  0.1051 -0.4064  0.3711
    1DIPC   C4B10716   3.161  14.462   4.305 -0.0296  0.0366  0.2316
    1DIPC   NC310717  10.261  10.156   7.459 -0.1272  0.0192  0.0347
    1DIPC   PO410718  10.653  10.175   7.247 -0.0998 -0.3062 -0.1818
    1DIPC   GL110719  10.608  10.514   6.819  0.0673  0.3102 -0.2372
    1DIPC   GL210720  10.579  10.804   6.871 -0.1023  0.0342  0.3039
    1DIPC   C1A10721  10.385  10.448   6.515  0.3812 -0.0584  0.1127
    1DIPC   D2A10722   9.960  10.420   6.458  0.0842  0.1391 -0.0117
    1DIPC   D3A10723   9.811  10.388   5.990 -0.1554 -0.1589 -0.1465
    1DIPC   C4A10724   9.652  10.837   5.807  0.0992  0.0620  0.0047
    1DIPC   C1B10725  10.420  11.022   6.502 -0.0394 -0.1615 -0.0015
    1DIPC   D2B10726  10.493  11.147   5.996 -0.0026  0.0925  0.1435
    1DIPC   D3B10727  10.741  11.092   5.591 -0.1735 -0.1228  0.0331
    1DIPC   C4B10728  10.702  10.894   5.225 -0.1973  0.0220 -0.0347
    1DIPC   NC310729   8.869   5.827   7.534 -0.3534  0.1459 -0.0772
    1DIPC   PO410730   8.437   5.828   7.235  0.1006  0.1324 -0.0142
    1DIPC   GL110731   8.201   6.047   6.853 -0.2312 -0.0990  0.0713
    1DIPC   GL210732   8.056   5.887   6.725  0.1948 -0.1772  0.0174
    1DIPC   C1A10733   8.231   6.332   6.535 -0.1349  0.1823  0.3100
    1DIPC   D2A10734   8.573   6.309   6.226  0.0081 -0.0542  0.0917
    1DIPC   D3A10735   8.632   6.154   5.808 -0.0964 -0.0559  0.0185
    1DIPC   C4A10736   8.830   6.073   5.384  0.1158 -0.0967 -0.3580
    1DIPC   C1B10737   8.360   5.881   6.312 -0.0061  0.2568  0.1106
    1DIPC   D2B10738   8.804   5.766   6.255  0.2913 -0.2244  0.1226
    1DIPC   D3B10739   8.665   5.467   5.969  0.3168 -0.0335 -0.0179
    1DIPC   C4B10740   8.390   5.374   5.591 -0.0282  0.0720  0.0258
    1DIPC   NC310741  13.982  22.446   5.924 -0.1766 -0.0467 -0.1225
    1DIPC   PO410742  14.125  22.804   5.925 -0.1840 -0.1744  0.0315
    1DIPC   GL110743  13.913  22.767   5.436 -0.2983 -0.1151 -0.0978
    1DIPC   GL210744  13.926  23.091   5.373 -0.0503 -0.1301  0.1355
    1DIPC   C1A10745  13.712  22.846   4.999  0.1949 -0.0481 -0.0913
    1DIPC   D2A10746  13.287  22.520   4.828 -0.3130 -0.0131  0.1266
    1DIPC   D3A10747  13.272  22.864   4.539 -0.2696 -0.3392  0.2942
    1DIPC   C4A10748  13.496  23.109   4.127  0.0750  0.1167  0.0362
    1DIPC   C1B10749  14.111  23.090   4.867 -0.2323 -0.2287 -0.2057
    1DIPC   D2B10750  13.790  23.049   4.547  0.2215 -0.0432 -0.0024
    1DIPC   D3B10751  13.449  23.385   4.578 -0.2353 -0.1343 -0.1342
    1DIPC   C4B10752  13.003  23.301   4.630  0.1446 -0.0923 -0.3368
    1DIPC   NC310753  15.712   6.434   6.658  0.0850 -0.2314 -0.1533
    1DIPC   PO410754  16.098   6.414   6.470  0.0001 -0.0580 -0.3397
    1DIPC   GL110755  15.960   6.366   6.102  0.1899  0.4686  0.0396
    1DIPC   GL210756  16.122   6.044   6.059 -0.1842  0.0108 -0.0263
    1DIPC   C1A10757  16.028   6.339   5.602  0.2464  0.0477 -0.2477
    1DIPC   D2A10758  15.959   6.378   5.189  0.0056  0.0486 -0.3428
    1DIPC   D3A10759  16.062   5.984   4.880  0.1130  0.0903  0.0720
    1DIPC   C4A10760  16.120   5.652   5.056 -0.2961  0.0647 -0.1500
    1DIPC   C1B10761  16.521   6.188   5.788 -0.0494  0.2812  0.2565
    1DIPC   D2B10762  16.967   6.059   5.706  0.1500  0.1156  0.0876
    1DIPC   D3B10763  17.363   5.977   5.608 -0.1253  0.2266  0.0964
    1DIPC   C4B10764  17.497   5.820   5.113  0.0912 -0.2360 -0.1152
    1DIPC   NC310765  24.162  18.427   6.802  0.0031 -0.0632  0.0893
    1DIPC   PO410766  24.589  18.673   6.739  0.1845 -0.1174 -0.0335
    1DIPC   GL110767  24.459  18.762   6.370 -0.1500 -0.0619 -0.0776
    1DIPC   GL210768  24.759  19.007   6.265  0.3254  0.2308 -0.0671
    1DIPC   C1A10769  24.221  18.573   6.077  0.0080  0.1707  0.0102
    1DIPC   D2A10770  24.044  18.602   5.702 -0.4175 -0.0379 -0.0441
    1DIPC   D3A10771  24.306  18.471   5.457  0.2802 -0.1229 -0.0856
    1DIPC   C4A10772  24.659  18.413   5.643 -0.1736 -0.4708  0.1402
    1DIPC   C1B10773  24.637  18.786   5.937 -0.1517 -0.1038 -0.1479
    1DIPC   D2B10774  24.630  18.869   5.422  0.1192 -0.0296  0.1619
    1DIPC   D3B10775  25.033  19.036   5.678  0.2162  0.0052 -0.2812
    1DIPC   C4B10776  25.131  18.777   6.026  0.0902  0.0229 -0.1442
    1DIPC   NC310777  23.702   9.989   6.581 -0.0389  0.2078 -0.1341
    1DIPC   PO410778  24.078  10.031   6.328  0.1172 -0.0491  0.1841
    1DIPC   GL110779  24.138   9.989   5.952 -0.2611  0.0813  0.0387
    1DIPC   GL210780  23.913  10.169   5.772 -0.0555  0.4553  0.0599
    1DIPC   C1A10781  24.372   9.929   5.583 -0.2480  0.2553 -0.0329
    1DIPC   D2A10782  24.291   9.939   5.232 -0.0573  0.0667  0.0645
    1DIPC   D3A10783  24.382   9.987   4.871 -0.0207 -0.0171  0.2868
    1DIPC   C4A10784  24.785  10.039   4.771  0.0760  0.2867  0.0510
    1DIPC   C1B10785  23.896   9.874   5.513 -0.2457 -0.1367 -0.0922
    1DIPC   D2B10786  23.876   9.746   5.005  0.1126 -0.0777  0.2120
    1DIPC   D3B10787  23.445   9.610   4.851  0.0861  0.0060 -0.3503
    1DIPC   C4B10788  23.413   9.133   4.928  0.0276 -0.0420  0.1052
    1DIPC   NC310789   8.864   6.527   6.968 -0.3890  0.0715  0.1186
    1DIPC   PO410790   8.637   6.812   6.852 -0.0211 -0.3893  0.0507
    1DIPC   GL110791   8.354   6.746   6.628 -0.2590 -0.2098  0.0615
    1DIPC   GL210792   8.202   7.039   6.777  0.1618 -0.0510  0.1001
    1DIPC   C1A10793   8.244   6.655   6.159 -0.1163  0.1004 -0.0501
    1DIPC   D2A10794   8.418   6.637   5.865  0.1361  0.0897  0.0114
    1DIPC   D3A10795   7.976   6.642   5.623 -0.0205 -0.1259 -0.3101
    1DIPC   C4A10796   7.729   6.303   5.482 -0.1216 -0.2194 -0.0193
    1DIPC   C1B10797   8.119   7.172   6.311 -0.2877 -0.0102 -0.0075
    1DIPC   D2B10798   8.154   7.454   5.913 -0.2041  0.1101 -0.0001
    1DIPC   D3B10799   7.959   7.154   5.690 -0.1175  0.0091 -0.2291
    1DIPC   C4B10800   7.446   7.219   5.628 -0.2695  0.0642 -0.0894
    1DIPC   NC310801   3.799  25.154   6.156 -0.0322 -0.3063 -0.1232
    1DIPC   PO410802   3.442  25.075   5.910 -0.1982  0.1245  0.2690
    1DIPC   GL110803   3.681  25.266   5.644  0.3818  0.0277 -0.2980
    1DIPC   GL210804   3.868  25.026   5.596  0.2023 -0.1256 -0.1482
    1DIPC   C1A10805   3.605  25.590   5.409 -0.1024 -0.1048  0.2736
    1DIPC   D2A10806   3.654  25.950   5.147 -0.0637  0.1096  0.0191
    1DIPC   D3A10807   3.705  26.006   4.733 -0.1923  0.1137  0.3565
    1DIPC   C4A10808   3.446  25.918   4.371  0.0350  0.0882  0.5443
    1DIPC   C1B10809   3.737  25.143   5.167 -0.0232 -0.0370 -0.0978
    1DIPC   D2B10810   3.817  25.195   4.756  0.1291  0.1649 -0.1177
    1DIPC   D3B10811   3.713  25.047   4.330 -0.0206 -0.0550  0.3714
    1DIPC   C4B10812   3.729  24.632   4.190 -0.1407 -0.2894  0.1602
    1DIPC   NC310813  26.241   5.881   6.492  0.1960 -0.1682  0.1588
    1DIPC   PO410814  26.058   5.478   6.243 -0.3591 -0.1324 -0.1110
    1DIPC   GL110815  26.336   5.622   5.943  0.3414 -0.0567 -0.1142
    1DIPC   GL210816  26.614   5.921   6.051 -0.1696  0.4355  0.0949
    1DIPC   C1A10817  26.262   5.938   5.620 -0.0307 -0.1333 -0.1727
    1DIPC   D2A10818  26.370   6.336   5.333 -0.1477  0.0233  0.2683
    1DIPC   D3A10819  26.098   6.482   5.073 -0.3158  0.0329  0.0913
    1DIPC   C4A10820  25.643   6.202   5.046  0.2669  0.0198  0.2404
    1DIPC   C1B10821  26.786   5.743   5.703  0.1882 -0.0311  0.0085
    1DIPC   D2B10822  26.753   5.378   5.543 -0.0300 -0.3580 -0.1329
    1DIPC   D3B10823  27.067   5.538   5.171 -0.1010 -0.0765  0.0708
    1DIPC   C4B10824  27.456   5.336   5.277  0.0649  0.1434 -0.0077
    1DIPC   NC310825  22.835  16.336   6.459  0.0336 -0.1551  0.0079
    1DIPC   PO410826  23.112  16.723   6.649  0.2376  0.1145  0.2357
    1DIPC   GL110827  23.097  16.835   6.214 -0.0501 -0.0291  0.0434
    1DIPC   GL210828  23.255  17.070   6.023  0.0234 -0.0649  0.1830
    1DIPC   C1A10829  22.717  16.962   5.946 -0.2167  0.1874 -0.2859
    1DIPC   D2A10830  22.256  16.805   5.853 -0.1733 -0.1118  0.0276
    1DIPC   D3A10831  22.450  16.546   5.529  0.1361  0.0363  0.2273
    1DIPC   C4A10832  22.458  16.726   5.061  0.0318 -0.0328 -0.1404
    1DIPC   C1B10833  23.148  16.979   5.626  0.0979 -0.0440 -0.1836
    1DIPC   D2B10834  22.862  16.710   5.360  0.1847  0.0682 -0.0141
    1DIPC   D3B10835  22.878  17.174   5.176  0.1510  0.1636  0.0922
    1DIPC   C4B10836  22.937  17.271   4.692 -0.3609  0.0099 -0.2458
    1DIPC   NC310837  21.669  24.088   6.770  0.1012  0.0468 -0.1668
    1DIPC   PO410838  21.615  24.428   6.575  0.3510 -0.0289  0.2348
    1DIPC   GL110839  21.834  24.266   6.300 -0.3131  0.1455 -0.1303
    1DIPC   GL210840  22.024  24.078   6.410 -0.0428  0.2945 -0.0917
    1DIPC   C1A10841  21.551  24.190   5.868 -0.1219  0.4364  0.0124
    1DIPC   D2A10842  21.634  24.429   5.452 -0.2136 -0.1522  0.0339
    1DIPC   D3A10843  21.461  23.987   5.397 -0.0001  0.0396  0.2995
    1DIPC   C4A10844  21.674  23.693   5.736 -0.0086  0.1028  0.2845
    1DIPC   C1B10845  22.346  24.385   6.173 -0.3078  0.1550  0.0101
    1DIPC   D2B10846  22.785  24.502   6.265 -0.0735 -0.1631 -0.3304
    1DIPC   D3B10847  22.817  24.321   5.886  0.0545  0.0168  0.0539
    1DIPC   C4B10848  22.468  24.276   5.529  0.1813  0.1868  0.1560
    1DIPC   NC310849   4.369   6.438   6.779 -0.0366 -0.2608  0.1066
    1DIPC   PO410850   4.616   6.139   6.489  0.2040  0.0345 -0.0131
    1DIPC   GL110851   4.656   5.923   6.192 -0.0087 -0.1226  0.1510
    1DIPC   GL210852   4.876   6.082   5.990 -0.2859  0.1458  0.0542
    1DIPC   C1A10853   4.702   5.563   6.031 -0.0088 -0.0830 -0.2453
    1DIPC   D2A10854   4.848   5.401   5.637 -0.2752 -0.0447  0.0619
    1DIPC   D3A10855   4.581   5.668   5.402 -0.2268 -0.2998  0.0527
    1DIPC   C4A10856   4.412   6.011   5.802  0.1856 -0.2791  0.2357
    1DIPC   C1B10857   4.865   6.023   5.632 -0.1896  0.0168  0.1816
    1DIPC   D2B10858   4.924   6.032   5.176 -0.2165 -0.0946 -0.2569
    1DIPC   D3B10859   4.756   6.290   4.807  0.2996 -0.3019  0.3720
    1DIPC   C4B10860   4.254   6.427   4.772 -0.5021  0.2076 -0.2542
    1DIPC   NC310861   8.706   8.725   7.012  0.0831 -0.1426 -0.0372
    1DIPC   PO410862   8.384   8.385   7.150 -0.1062  0.1015  0.2640
    1DIPC   GL110863   8.644   8.192   6.869 -0.4255 -0.2717 -0.1307
    1DIPC   GL210864   8.666   8.379   6.649 -0.1526  0.0909 -0.0449
    1DIPC   C1A10865   8.588   7.939   6.480  0.0180  0.0175  0.0299
    1DIPC   D2A10866   8.567   7.555   6.234  0.1359 -0.2221 -0.1618
    1DIPC   D3A10867   8.712   7.745   5.878  0.1394 -0.2563  0.2098
    1DIPC   C4A10868   8.671   7.662   5.528  0.1507  0.4867  0.1116
    1DIPC   C1B10869   8.433   8.573   6.397  0.1216 -0.1909 -0.2952
    1DIPC   D2B10870   8.490   8.967   6.062  0.0432  0.0411 -0.2419
    1DIPC   D3B10871   8.850   9.108   5.829 -0.2469 -0.0028 -0.2323
    1DIPC   C4B10872   8.956   9.403   5.445  0.3735  0.1490 -0.3423
    1DIPC   NC310873   6.185  17.764   5.579 -0.3276 -0.0472 -0.1341
    1DIPC   PO410874   6.582  17.856   5.854  0.1142  0.0125  0.1190
    1DIPC   GL110875   6.716  17.967   5.406 -0.0058 -0.1210 -0.2905
    1DIPC   GL210876   6.627  17.712   5.217  0.0761  0.2662 -0.0111
    1DIPC   C1A10877   6.949  18.245   5.170 -0.3095  0.3968 -0.1672
    1DIPC   D2A10878   7.039  18.264   4.691  0.2862 -0.2232  0.1472
    1DIPC   D3A10879   7.224  18.278   4.291  0.0111 -0.0265 -0.2300
    1DIPC   C4A10880   7.089  18.550   3.881  0.1900  0.1393 -0.2410
    1DIPC   C1B10881   6.828  17.828   4.923  0.0070  0.1159 -0.0309
    1DIPC   D2B10882   7.057  17.765   4.564  0.0653  0.2180  0.2333
    1DIPC   D3B10883   6.742  17.745   4.216  0.3148  0.0329  0.2549
    1DIPC   C4B10884   6.856  18.101   3.980  0.1581 -0.1828  0.1532
    1DIPC   NC310885  20.035   1.174   6.450 -0.1402  0.0321 -0.0270
    1DIPC   PO410886  19.545   1.307   6.397  0.1064  0.2370  0.0763
    1DIPC   GL110887  19.679   1.517   6.074 -0.1888  0.2232  0.1236
    1DIPC   GL210888  19.841   1.154   5.955  0.0235  0.0212 -0.0061
    1DIPC   C1A10889  19.695   1.516   5.592  0.4445  0.1263  0.2117
    1DIPC   D2A10890  19.686   1.821   5.269 -0.1764 -0.0035 -0.3675
    1DIPC   D3A10891  19.620   2.081   4.866  0.1691  0.4114 -0.1348
    1DIPC   C4A10892  19.523   1.857   4.463 -0.2313 -0.1198 -0.0001
    1DIPC   C1B10893  19.625   0.800   6.004  0.0121 -0.2650  0.0606
    1DIPC   D2B10894  19.484   0.475   5.761  0.1282  0.0188 -0.1981
    1DIPC   D3B10895  19.217   0.676   5.403  0.0142  0.0315 -0.2096
    1DIPC   C4B10896  19.326   0.674   4.988 -0.2491  0.1221  0.0402
    1DIPC   NC310897  20.053  19.746   7.129 -0.0860 -0.1193  0.0185
    1DIPC   PO410898  20.538  19.563   7.046 -0.0686  0.3338  0.2966
    1DIPC   GL110899  20.680  19.751   6.583  0.0265 -0.0669  0.0301
    1DIPC   GL210900  20.879  19.508   6.384 -0.1476  0.3987 -0.0150
    1DIPC   C1A10901  20.758  19.911   6.139 -0.0149 -0.2820  0.2570
    1DIPC   D2A10902  20.945  19.938   5.758 -0.2519 -0.2077 -0.3064
    1DIPC   D3A10903  20.649  19.971   5.428  0.0018  0.4778 -0.0639
    1DIPC   C4A10904  20.517  19.423   5.467 -0.1735 -0.0432  0.0277
    1DIPC   C1B10905  20.935  19.473   5.923 -0.2911  0.1860  0.1802
    1DIPC   D2B10906  21.017  19.464   5.558  0.1307 -0.1408  0.0307
    1DIPC   D3B10907  21.084  19.482   5.102 -0.1431 -0.1978 -0.1426
    1DIPC   C4B10908  21.120  19.836   4.843 -0.0119 -0.0661 -0.1053
    1DIPC   NC310909   9.615   0.403   7.194 -0.0553  0.0399 -0.1220
    1DIPC   PO410910   9.252   0.197   7.001  0.0517 -0.3038  0.1936
    1DIPC   GL110911   9.392   0.082   6.678 -0.1487 -0.2333 -0.0094
    1DIPC   GL210912   9.403   0.343   6.517  0.2881  0.2833 -0.0516
    1DIPC   C1A10913   9.364  -0.152   6.362  0.2539  0.3049 -0.1365
    1DIPC   D2A10914   9.735  -0.276   6.058 -0.1985 -0.0186  0.0334
    1DIPC   D3A10915   9.391  -0.261   5.716 -0.3727 -0.1834 -0.0312
    1DIPC   C4A10916   9.422  -0.025   5.375  0.2679 -0.0537  0.1266
    1DIPC   C1B10917   9.538   0.274   6.161 -0.0047 -0.0975  0.1744
    1DIPC   D2B10918   9.808   0.115   5.749 -0.0893 -0.0114 -0.1702
    1DIPC   D3B10919  10.006   0.042   5.313 -0.2576  0.2156 -0.2838
    1DIPC   C4B10920  10.344   0.134   5.120  0.0296 -0.0116 -0.2899
    1DIPC   NC310921   1.219  26.288   6.233 -0.0847 -0.0045 -0.2689
    1DIPC   PO410922   1.669  26.385   6.048  0.4132 -0.1478  0.0059
    1DIPC   GL110923   1.483  26.589   5.550  0.0743  0.1036 -0.2129
    1DIPC   GL210924   1.770  26.651   5.319  0.1409 -0.0459 -0.0748
    1DIPC   C1A10925   1.394  26.626   5.024 -0.2595 -0.0969 -0.1527
    1DIPC   D2A10926   1.390  26.669   4.622  0.1670 -0.0859  0.1137
    1DIPC   D3A10927   0.986  26.512   4.831  0.1543  0.2736  0.2406
    1DIPC   C4A10928   0.575  26.589   4.558  0.3261 -0.0560 -0.1205
    1DIPC   C1B10929   2.029  26.403   5.338  0.2203 -0.0997  0.3191
    1DIPC   D2B10930   2.093  25.981   5.211  0.1337  0.0617 -0.0648
    1DIPC   D3B10931   2.208  25.897   4.774 -0.0366 -0.1533 -0.1211
    1DIPC   C4B10932   2.027  25.998   4.373 -0.0040  0.2620 -0.3250
    1DIPC   NC310933   2.963   5.494   6.756 -0.4197  0.1368 -0.0124
    1DIPC   PO410934   3.048   5.897   6.557 -0.0523  0.0704  0.1113
    1DIPC   GL110935   2.936   5.631   6.268  0.1978 -0.0659 -0.4843
    1DIPC   GL210936   2.641   5.593   6.411 -0.1072 -0.2627  0.1136
    1DIPC   C1A10937   2.952   5.601   5.800  0.0556  0.2196 -0.0009
    1DIPC   D2A10938   2.917   5.805   5.369  0.0656  0.0402  0.2697
    1DIPC   D3A10939   2.637   5.909   5.646 -0.1185 -0.2013  0.0719
    1DIPC   C4A10940   2.422   6.274   5.415 -0.5278 -0.2749  0.0909
    1DIPC   C1B10941   2.546   5.909   6.111  0.1394  0.2909 -0.2230
    1DIPC   D2B10942   2.625   6.268   5.980  0.1618  0.0385 -0.0610
    1DIPC   D3B10943   3.040   6.023   6.022  0.0245  0.4025 -0.0992
    1DIPC   C4B10944   3.431   6.198   6.002  0.4137 -0.1055 -0.1883
    1DIPC   NC310945  29.685  18.952   6.692  0.1520  0.0528  0.1637
    1DIPC   PO410946  29.791  18.474   6.511  0.0260  0.1390  0.1367
    1DIPC   GL110947  29.976  18.284   6.104 -0.2437  0.0555 -0.1095
    1DIPC   GL210948  30.165  18.535   6.081  0.1442 -0.0883 -0.1230
    1DIPC   C1A10949  29.669  18.028   5.848  0.1761 -0.3695  0.0484
    1DIPC   D2A10950  29.255  17.908   5.791  0.2154 -0.1661  0.2009
    1DIPC   D3A10951  29.428  17.805   5.405  0.0966  0.1042 -0.0420
    1DIPC   C4A10952  29.820  18.096   5.371  0.0798  0.0015  0.2996
    1DIPC   C1B10953  29.787  18.511   5.712 -0.0660  0.0887  0.0983
    1DIPC   D2B10954  29.430  18.389   5.431 -0.0098 -0.0967 -0.3411
    1DIPC   D3B10955  29.373  18.798   5.394 -0.1632 -0.2081 -0.0929
    1DIPC   C4B10956  29.416  19.013   5.804 -0.2257 -0.0788  0.0616
    1DIPC   NC310957  14.212   4.229   7.019 -0.1548 -0.0414  0.0699
    1DIPC   PO410958  14.335   4.669   6.899 -0.3604  0.1180  0.1061
    1DIPC   GL110959  14.260   4.725   6.479  0.0857  0.2185 -0.0291
    1DIPC   GL210960  13.885   4.774   6.505 -0.1352 -0.1274  0.0016
    1DIPC   C1A10961  14.210   4.903   6.122  0.1303 -0.0035  0.1087
    1DIPC   D2A10962  14.296   5.143   5.703 -0.3020  0.0059 -0.2303
    1DIPC   D3A10963  14.106   5.047   5.296  0.0616 -0.2821  0.0660
    1DIPC   C4A10964  13.798   5.291   5.202 -0.0561  0.0559  0.1253
    1DIPC   C1B10965  13.718   4.755   6.043  0.0165 -0.0206  0.0469
    1DIPC   D2B10966  13.756   4.918   5.668 -0.0626 -0.1565  0.0543
    1DIPC   D3B10967  13.247   5.074   5.735  0.4562  0.3316  0.2697
    1DIPC   C4B10968  13.204   5.429   5.601  0.2349 -0.2066  0.0643
    1DIPC   NC310969  25.579  19.932   6.779  0.0772  0.1740 -0.3897
    1DIPC   PO410970  25.383  20.293   6.586 -0.0678 -0.0325 -0.1995
    1DIPC   GL110971  25.572  20.233   6.206  0.0461 -0.4702 -0.1980
    1DIPC   GL210972  25.934  20.150   6.267 -0.0316 -0.2264 -0.2409
    1DIPC   C1A10973  25.635  20.503   5.770  0.0713  0.1734  0.2013
    1DIPC   D2A10974  25.756  20.858   5.576 -0.1651  0.1242 -0.0797
    1DIPC   D3A10975  25.562  20.956   5.261  0.0949  0.1101  0.1460
    1DIPC   C4A10976  25.276  20.648   5.150  0.1720  0.1200  0.3505
    1DIPC   C1B10977  25.880  20.024   5.858  0.0140 -0.0026  0.2029
    1DIPC   D2B10978  25.711  20.081   5.481  0.1986 -0.1484 -0.4393
    1DIPC   D3B10979  25.929  19.827   5.214 -0.4809  0.1878 -0.1950
    1DIPC   C4B10980  25.803  19.538   4.974 -0.2072 -0.0111 -0.0242
    1DIPC   NC310981   5.378  27.987   7.113  0.3200  0.2010  0.1372
    1DIPC   PO410982   5.698  28.191   6.982 -0.2026  0.0136  0.1077
    1DIPC   GL110983   5.787  28.125   6.442  0.1665  0.2000  0.1603
    1DIPC   GL210984   5.624  28.336   6.169 -0.1840  0.1462 -0.0685
    1DIPC   C1A10985   6.150  27.957   6.219 -0.2259 -0.0750 -0.2547
    1DIPC   D2A10986   6.478  28.000   5.951 -0.0483 -0.1313  0.2732
    1DIPC   D3A10987   6.842  27.764   6.010 -0.0181 -0.2183 -0.1342
    1DIPC   C4A10988   6.819  27.489   5.693  0.1718 -0.1490  0.0424
    1DIPC   C1B10989   5.469  27.822   6.192  0.1839 -0.0251 -0.4182
    1DIPC   D2B10990   5.709  27.554   5.873 -0.0954 -0.0368 -0.2266
    1DIPC   D3B10991   5.635  27.871   5.623  0.2869  0.2482  0.3662
    1DIPC   C4B10992   5.369  28.153   5.767  0.0195 -0.3363  0.0105
    1DIPC   NC310993  23.649   1.897   7.341  0.0509  0.0131  0.1934
    1DIPC   PO410994  23.424   1.981   6.954 -0.0602 -0.0578  0.1796
    1DIPC   GL110995  23.604   1.872   6.567 -0.0277  0.1552  0.1790
    1DIPC   GL210996  23.688   2.165   6.372  0.0215  0.0467 -0.1647
    1DIPC   C1A10997  23.963   1.754   6.517 -0.3030  0.0405 -0.0784
    1DIPC   D2A10998  24.410   1.759   6.480 -0.0558 -0.0517 -0.0359
    1DIPC   D3A10999  24.395   1.411   6.262  0.0395  0.1567  0.0077
    1DIPC   C4A11000  24.749   1.145   5.972  0.0727  0.2139 -0.0706
    1DIPC   C1B11001  23.600   1.793   6.105 -0.0087  0.1999  0.2038
    1DIPC   D2B11002  23.835   1.455   6.060  0.1605  0.5154  0.0281
    1DIPC   D3B11003  23.782   1.543   5.620  0.0049  0.3448  0.2463
    1DIPC   C4B11004  24.133   1.619   5.337  0.0857 -0.1822  0.3064
    1DIPC   NC311005   3.569  11.138   7.431 -0.1755 -0.1152  0.0699
    1DIPC   PO411006   3.524  11.169   7.069 -0.2301 -0.0902 -0.0004
    1DIPC   GL111007   3.509  11.032   6.692  0.1238  0.4152  0.0976
    1DIPC   GL211008   3.838  10.908   6.574 -0.0194 -0.1597  0.4057
    1DIPC   C1A11009   3.343  11.063   6.262  0.0841 -0.0480 -0.1488
    1DIPC   D2A11010   3.048  10.852   5.972 -0.0666  0.1979  0.1596
    1DIPC   D3A11011   2.869  10.955   5.661 -0.2457  0.0167  0.2188
    1DIPC   C4A11012   2.416  11.024   5.734 -0.4171  0.1353  0.1224
    1DIPC   C1B11013   3.849  11.220   6.258 -0.1726  0.1165  0.0701
    1DIPC   D2B11014   4.207  11.160   6.110 -0.1465  0.1649 -0.2038
    1DIPC   D3B11015   4.160  11.012   5.686 -0.0129 -0.1228 -0.3594
    1DIPC   C4B11016   4.520  10.952   5.432 -0.1268  0.1205  0.2795
    1DIPC   NC311017   6.833   3.463   6.947 -0.0375  0.0152  0.1630
    1DIPC   PO411018   7.295   3.369   6.987  0.0513 -0.1681 -0.1420
    1DIPC   GL111019   7.462   3.117   6.644 -0.1860  0.1119  0.0202
    1DIPC   GL211020   7.269   2.793   6.589 -0.0317 -0.1322  0.0057
    1DIPC   C1A11021   7.867   3.122   6.506 -0.1195  0.1997  0.0842
    1DIPC   D2A11022   8.222   3.435   6.571 -0.2571  0.1517  0.2856
    1DIPC   D3A11023   8.182   3.617   6.156  0.1358 -0.2442  0.1670
    1DIPC   C4A11024   8.282   3.326   5.832  0.2626 -0.0233 -0.3712
    1DIPC   C1B11025   6.921   2.774   6.319  0.0302  0.1874  0.0703
    1DIPC   D2B11026   6.687   2.563   6.011 -0.1478 -0.0041 -0.0430
    1DIPC   D3B11027   6.528   2.305   6.282  0.2315  0.1281 -0.3010
    1DIPC   C4B11028   6.060   2.513   6.266  0.0992  0.0440 -0.5568
    1DIPC   NC311029  23.463   2.595   6.864 -0.0664  0.3957 -0.1051
    1DIPC   PO411030  23.179   2.805   6.636 -0.3331  0.1670  0.0188
    1DIPC   GL111031  23.201   2.572   6.252 -0.0922 -0.2647  0.2652
    1DIPC   GL211032  23.205   2.243   6.090 -0.1015  0.0017 -0.2013
    1DIPC   C1A11033  23.082   2.640   5.760 -0.1412  0.0190  0.0083
    1DIPC   D2A11034  23.443   2.860   5.528 -0.0410  0.1315 -0.1217
    1DIPC   D3A11035  23.740   2.646   5.260 -0.0563 -0.0898 -0.1319
    1DIPC   C4A11036  23.562   2.524   4.812  0.3426 -0.2280 -0.1588
    1DIPC   C1B11037  22.778   2.181   6.043 -0.1135 -0.3226  0.2652
    1DIPC   D2B11038  22.565   1.958   5.716 -0.0179  0.2479 -0.0544
    1DIPC   D3B11039  23.023   1.800   5.795  0.0138 -0.0705 -0.3438
    1DIPC   C4B11040  23.062   1.667   6.177 -0.0567  0.2377  0.1561
    1DIPC   NC311041  28.955   0.232   6.306 -0.1604  0.0690  0.0736
    1DIPC   PO411042  29.375   0.236   6.190  0.1553  0.2545  0.1095
    1DIPC   GL111043  29.574   0.233   5.828 -0.1094  0.0168 -0.2433
    1DIPC   GL211044  29.706   0.582   5.700  0.2452 -0.1300 -0.0356
    1DIPC   C1A11045  29.684  -0.147   5.718 -0.0531  0.0823  0.0241
    1DIPC   D2A11046  29.466  -0.548   5.694  0.0306  0.0275  0.3061
    1DIPC   D3A11047  29.415  -0.971   5.789  0.0729 -0.1541  0.0976
    1DIPC   C4A11048  29.098  -1.308   5.498  0.4549  0.5701  0.1926
    1DIPC   C1B11049  29.910   0.367   5.466  0.2361  0.0923 -0.1088
    1DIPC   D2B11050  30.010   0.224   4.984 -0.4624 -0.0387  0.0363
    1DIPC   D3B11051  29.801  -0.069   5.258  0.1139  0.0815  0.1618
    1DIPC   C4B11052  29.779  -0.522   5.130 -0.0251  0.1032 -0.3135
    1DIPC   NC311053  22.867  25.613   6.485  0.3072 -0.3863  0.3502
    1DIPC   PO411054  22.563  25.331   6.280  0.2830 -0.0424  0.0139
    1DIPC   GL111055  22.507  25.673   5.999  0.1399  0.0717  0.0374
    1DIPC   GL211056  22.624  25.859   6.151  0.2186  0.2158 -0.0751
    1DIPC   C1A11057  22.418  25.687   5.585 -0.1270  0.1257  0.0490
    1DIPC   D2A11058  22.221  25.953   5.184 -0.2197 -0.1332 -0.0121
    1DIPC   D3A11059  22.204  25.501   4.927 -0.0274  0.0863  0.2431
    1DIPC   C4A11060  22.105  25.097   5.091 -0.1104  0.3041 -0.1459
    1DIPC   C1B11061  22.757  26.015   5.822  0.0902 -0.0473  0.1784
    1DIPC   D2B11062  22.608  26.144   5.448 -0.3394 -0.0304 -0.1286
    1DIPC   D3B11063  22.961  25.992   5.203  0.2367 -0.2964  0.0095
    1DIPC   C4B11064  22.861  25.598   4.862 -0.2791 -0.0680  0.1094
    1DIPC   NC311065  12.771  26.360   6.298 -0.0003  0.1211 -0.0972
    1DIPC   PO411066  12.929  25.937   6.239  0.0700  0.4388  0.0952
    1DIPC   GL111067  12.948  26.018   5.863  0.0761  0.1017 -0.1538
    1DIPC   GL211068  13.165  26.179   5.798  0.1232 -0.3168 -0.1115
    1DIPC   C1A11069  12.993  25.974   5.385 -0.1092  0.0406  0.1282
    1DIPC   D2A11070  12.900  25.976   4.913 -0.2337  0.0311 -0.0059
    1DIPC   D3A11071  13.267  25.999   4.598 -0.0311 -0.0617 -0.1730
    1DIPC   C4A11072  13.488  26.270   4.552 -0.1105 -0.0667 -0.1386
    1DIPC   C1B11073  13.481  26.185   5.482  0.0220 -0.0013  0.2415
    1DIPC   D2B11074  13.579  26.376   5.048 -0.1819 -0.0260 -0.1005
    1DIPC   D3B11075  13.535  26.738   4.779 -0.0390  0.0750 -0.2602
    1DIPC   C4B11076  13.680  27.044   4.916 -0.0346  0.0624  0.0249
    1DIPC   NC311077  13.300  23.932   6.604  0.1542  0.0085  0.0737
    1DIPC   PO411078  13.237  24.034   6.254  0.2407  0.3093 -0.0355
    1DIPC   GL111079  13.204  24.079   5.800 -0.1733  0.1332 -0.0474
    1DIPC   GL211080  13.011  24.278   5.563  0.1196 -0.0026  0.1637
    1DIPC   C1A11081  13.501  24.237   5.468 -0.2445 -0.2714  0.0927
    1DIPC   D2A11082  13.947  24.138   5.474  0.2530 -0.2537  0.0734
    1DIPC   D3A11083  13.873  24.406   5.024 -0.0093  0.2897 -0.2040
    1DIPC   C4A11084  13.460  24.558   5.052  0.3929 -0.2593  0.0552
    1DIPC   C1B11085  12.887  24.654   5.279 -0.0001  0.1529 -0.3185
    1DIPC   D2B11086  12.807  24.790   4.958  0.1686  0.1462 -0.0613
    1DIPC   D3B11087  13.176  24.881   4.723  0.1189 -0.0882 -0.0042
    1DIPC   C4B11088  13.074  25.126   4.277 -0.0064 -0.2331 -0.3923
    1DIPC   NC311089   9.527  22.585   6.630 -0.0264  0.0066 -0.0722
    1DIPC   PO411090   9.823  22.819   6.326  0.0905  0.0201  0.1014
    1DIPC   GL111091   9.853  22.987   5.892  0.0040 -0.3895  0.0714
    1DIPC   GL211092  10.004  23.232   5.732  0.0407 -0.0786  0.2678
    1DIPC   C1A11093   9.552  23.015   5.546 -0.0619  0.0956 -0.1263
    1DIPC   D2A11094   9.520  23.064   5.161 -0.2000  0.1765 -0.0387
    1DIPC   D3A11095   9.632  22.735   4.923 -0.0219  0.2892 -0.1392
    1DIPC   C4A11096   9.768  22.353   4.807  0.1378 -0.0205 -0.0671
    1DIPC   C1B11097   9.995  23.049   5.311  0.1675 -0.0835  0.0712
    1DIPC   D2B11098  10.080  22.587   5.212 -0.0244  0.0017  0.2037
    1DIPC   D3B11099   9.684  22.432   5.341  0.1575 -0.0195  0.0019
    1DIPC   C4B11100   9.298  22.627   5.384 -0.0129  0.2522  0.1657
    1DIPC   NC311101  24.827  15.732   6.129 -0.0422  0.3817  0.0100
    1DIPC   PO411102  24.396  15.623   6.064 -0.0431 -0.0194  0.2881
    1DIPC   GL111103  24.316  15.372   5.614  0.4486 -0.1285 -0.0415
    1DIPC   GL211104  24.035  15.346   5.484  0.0183  0.0368 -0.2400
    1DIPC   C1A11105  24.111  15.738   5.230 -0.0248 -0.1697  0.2764
    1DIPC   D2A11106  24.262  15.991   4.802 -0.3413 -0.0669 -0.3353
    1DIPC   D3A11107  24.331  16.471   4.853 -0.0691  0.1615 -0.0138
    1DIPC   C4A11108  24.688  16.417   4.777 -0.0825  0.0466  0.2820
    1DIPC   C1B11109  24.347  15.105   5.247  0.2078  0.1876  0.0374
    1DIPC   D2B11110  24.386  15.081   4.871 -0.0738 -0.0394  0.1343
    1DIPC   D3B11111  24.671  15.323   4.520 -0.1487 -0.1266 -0.0909
    1DIPC   C4B11112  24.930  15.558   4.316 -0.1364 -0.0721 -0.1019
    1DIPC   NC311113   4.325   5.524   6.918 -0.2590  0.0755  0.0940
    1DIPC   PO411114   3.987   5.855   6.826 -0.3331 -0.2416 -0.3056
    1DIPC   GL111115   3.736   6.029   6.574 -0.2253 -0.2282  0.3367
    1DIPC   GL211116   3.521   5.837   6.394 -0.0295 -0.2432 -0.1180
    1DIPC   C1A11117   3.829   6.234   6.292 -0.0127 -0.0459 -0.0817
    1DIPC   D2A11118   3.968   6.215   5.864  0.0506 -0.0254 -0.1404
    1DIPC   D3A11119   3.634   6.236   5.540 -0.3180  0.0811 -0.0060
    1DIPC   C4A11120   3.338   5.889   5.605 -0.2955  0.1269  0.0106
    1DIPC   C1B11121   3.702   5.737   5.945  0.1312  0.3046 -0.0913
    1DIPC   D2B11122   3.980   5.749   5.593 -0.2539 -0.1398  0.1804
    1DIPC   D3B11123   3.886   5.947   5.199  0.2464  0.1515  0.0332
    1DIPC   C4B11124   3.952   5.775   4.732 -0.1197 -0.1691 -0.3316
    1DIPC   NC311125   0.298   8.675   6.341  0.1004 -0.2306  0.2057
    1DIPC   PO411126   0.442   9.077   6.159 -0.1286  0.0237 -0.1769
    1DIPC   GL111127   0.615   9.230   5.775  0.1358  0.3353  0.3605
    1DIPC   GL211128   0.875   9.111   5.779 -0.1233 -0.1480 -0.1776
    1DIPC   C1A11129   0.673   9.391   5.377 -0.1151 -0.1626 -0.0251
    1DIPC   D2A11130   0.530   9.327   4.993  0.1621 -0.0220  0.0667
    1DIPC   D3A11131   0.562   9.762   4.838 -0.0176 -0.0066  0.1549
    1DIPC   C4A11132   0.253  10.043   4.575 -0.0104 -0.0811  0.1198
    1DIPC   C1B11133   1.255   9.041   5.606  0.0607 -0.1523  0.2494
    1DIPC   D2B11134   1.613   9.129   5.314  0.0697 -0.0734  0.0385
    1DIPC   D3B11135   1.421   9.092   4.857 -0.2874 -0.0741 -0.0085
    1DIPC   C4B11136   0.973   9.262   4.860  0.0223 -0.1548 -0.0428
    1DIPC   NC311137   1.764  20.970   6.338  0.0473 -0.1980 -0.0327
    1DIPC   PO411138   1.446  20.862   5.971 -0.0771 -0.1173  0.1252
    1DIPC   GL111139   1.543  21.093   5.524  0.1900 -0.0046 -0.2796
    1DIPC   GL211140   1.780  21.265   5.435 -0.1630  0.0880 -0.2013
    1DIPC   C1A11141   1.578  20.876   5.122 -0.0414 -0.0224  0.1337
    1DIPC   D2A11142   1.554  20.550   4.808 -0.1477  0.1093  0.0694
    1DIPC   D3A11143   1.653  20.880   4.591  0.2503  0.1429 -0.0226
    1DIPC   C4A11144   1.985  20.785   4.498 -0.1340  0.0676  0.2274
    1DIPC   C1B11145   1.818  21.400   4.981 -0.2285 -0.0559 -0.1104
    1DIPC   D2B11146   1.794  21.377   4.548 -0.1948 -0.3477 -0.2587
    1DIPC   D3B11147   2.019  21.205   4.221 -0.0751  0.2648 -0.2816
    1DIPC   C4B11148   2.383  21.136   3.833  0.1844  0.0333  0.0912
    1DIPC   NC311149   9.534  25.111   6.568  0.2844  0.1103 -0.1830
    1DIPC   PO411150   9.657  25.214   6.128 -0.1462  0.2186  0.0341
    1DIPC   GL111151   9.698  25.173   5.708  0.0180  0.0245  0.0623
    1DIPC   GL211152   9.767  25.409   5.437  0.0508 -0.0042  0.0469
    1DIPC   C1A11153   9.981  24.878   5.498  0.1222  0.0613 -0.0001
    1DIPC   D2A11154  10.101  24.573   5.118  0.2974 -0.0221 -0.0460
    1DIPC   D3A11155  10.393  24.728   4.765 -0.1684 -0.2201 -0.1006
    1DIPC   C4A11156  10.294  24.576   4.312  0.1113  0.2030  0.1871
    1DIPC   C1B11157  10.057  25.545   5.053 -0.1948  0.5538 -0.1298
    1DIPC   D2B11158  10.229  25.730   4.703  0.0830 -0.1216 -0.2116
    1DIPC   D3B11159   9.955  25.939   4.369 -0.0203  0.2551  0.2949
    1DIPC   C4B11160   9.654  26.285   4.388 -0.1297  0.0257  0.0819
    1DIPC   NC311161  19.577   3.348   6.518  0.0282  0.0043  0.2644
    1DIPC   PO411162  19.193   3.229   6.436  0.0046 -0.3176  0.0213
    1DIPC   GL111163  19.380   3.161   6.026 -0.2817  0.0801 -0.0557
    1DIPC   GL211164  19.662   3.253   5.805  0.2122 -0.0124  0.1100
    1DIPC   C1A11165  19.333   2.913   5.543  0.0401  0.4898 -0.4251
    1DIPC   D2A11166  19.384   2.819   5.193 -0.1183  0.5178 -0.1267
    1DIPC   D3A11167  19.664   2.507   5.106  0.3536 -0.0957 -0.2358
    1DIPC   C4A11168  19.982   2.208   5.276  0.0636 -0.1347  0.1662
    1DIPC   C1B11169  19.858   3.060   5.334  0.2218 -0.1722  0.0760
    1DIPC   D2B11170  20.079   2.869   4.973  0.0299 -0.1060  0.1629
    1DIPC   D3B11171  19.920   2.743   4.575 -0.1868 -0.1067 -0.5521
    1DIPC   C4B11172  20.010   2.925   4.139 -0.0923  0.0756 -0.0704
    1DIPC   NC311173  21.718  19.863   7.215 -0.2092 -0.0053 -0.3070
    1DIPC   PO411174  21.440  19.769   6.858  0.0796 -0.1844  0.1333
    1DIPC   GL111175  21.395  19.615   6.471  0.2022  0.2299 -0.0839
    1DIPC   GL211176  21.668  19.556   6.306 -0.0341 -0.4129 -0.1278
    1DIPC   C1A11177  21.271  19.777   6.133 -0.1486  0.0544  0.1180
    1DIPC   D2A11178  21.403  19.739   5.722 -0.2368 -0.0567 -0.0334
    1DIPC   D3A11179  21.176  19.908   5.310  0.0123 -0.0894  0.1234
    1DIPC   C4A11180  20.902  20.247   5.087  0.1145 -0.0582  0.0016
    1DIPC   C1B11181  21.827  19.486   5.909  0.1336  0.1581  0.1268
    1DIPC   D2B11182  22.217  19.571   5.651 -0.2466  0.1572  0.2237
    1DIPC   D3B11183  22.025  19.568   5.224 -0.2024  0.1286 -0.2326
    1DIPC   C4B11184  21.953  19.283   5.006 -0.2195  0.0910 -0.0987
    1DIPC   NC311185  28.626  14.637   6.328 -0.1733 -0.0264 -0.0242
    1DIPC   PO411186  29.015  14.644   6.017  0.1083  0.3607  0.0917
    1DIPC   GL111187  29.297  14.842   5.727  0.0527  0.3972  0.5249
    1DIPC   GL211188  29.395  15.109   5.728 -0.0063  0.1269  0.0260
    1DIPC   C1A11189  29.172  14.734   5.353 -0.3289  0.2918 -0.0330
    1DIPC   D2A11190  28.874  14.971   5.225 -0.2711  0.4051  0.1737
    1DIPC   D3A11191  28.891  14.831   4.821 -0.1121  0.2725 -0.2255
    1DIPC   C4A11192  28.524  14.693   4.611 -0.0555  0.0900 -0.1684
    1DIPC   C1B11193  29.282  15.235   5.417  0.1498 -0.0924 -0.2221
    1DIPC   D2B11194  29.183  15.343   4.991 -0.1807  0.2881 -0.0772
    1DIPC   D3B11195  29.047  15.257   4.552 -0.0229 -0.0624  0.1342
    1DIPC   C4B11196  28.927  15.327   4.146 -0.1605  0.2375 -0.1106
    1DIPC   NC311197  16.753   2.718   6.358  0.2096 -0.0635  0.0779
    1DIPC   PO411198  17.122   2.375   6.352  0.4387  0.0910 -0.3896
    1DIPC   GL111199  17.176   2.122   6.098 -0.1214  0.3629  0.2637
    1DIPC   GL211200  17.386   1.738   6.063  0.0657 -0.0693  0.3645
    1DIPC   C1A11201  16.928   1.836   5.898 -0.2119  0.3762  0.0371
    1DIPC   D2A11202  16.678   1.870   5.456 -0.1233  0.2440 -0.0724
    1DIPC   D3A11203  16.916   1.676   5.144 -0.1187  0.1089  0.0250
    1DIPC   C4A11204  17.159   1.806   4.735 -0.2871 -0.0205  0.0476
    1DIPC   C1B11205  17.722   1.628   5.673  0.0169  0.0055  0.1339
    1DIPC   D2B11206  17.512   1.727   5.320  0.1556 -0.0899  0.2377
    1DIPC   D3B11207  17.950   1.790   5.044 -0.0350 -0.0979  0.1030
    1DIPC   C4B11208  17.981   1.914   4.699  0.1312  0.1295 -0.2021
    1DIPC   NC311209  14.093  28.487   6.849  0.0981 -0.1784 -0.3487
    1DIPC   PO411210  14.386  28.310   7.172  0.0148  0.0942  0.0606
    1DIPC   GL111211  14.472  28.157   6.688 -0.2572 -0.0428 -0.2117
    1DIPC   GL211212  14.863  28.172   6.497 -0.1444  0.0846  0.0887
    1DIPC   C1A11213  14.470  28.019   6.251  0.1020 -0.3371 -0.0203
    1DIPC   D2A11214  14.513  28.011   5.900  0.1840  0.2588 -0.2711
    1DIPC   D3A11215  14.296  28.216   5.634  0.1312 -0.3017  0.0277
    1DIPC   C4A11216  14.003  28.462   5.388  0.0475  0.1238 -0.0744
    1DIPC   C1B11217  15.007  28.084   6.033 -0.1618  0.1299 -0.0144
    1DIPC   D2B11218  14.979  28.021   5.655 -0.2765 -0.0294  0.1172
    1DIPC   D3B11219  14.737  28.041   5.277  0.3891 -0.3546 -0.2430
    1DIPC   C4B11220  14.760  27.687   5.134  0.2552  0.0169 -0.1762
    1DIPC   NC311221  13.647   2.080   7.126 -0.2235 -0.2136 -0.0728
    1DIPC   PO411222  14.024   1.775   6.938  0.2784 -0.2254  0.0104
    1DIPC   GL111223  14.117   1.803   6.522 -0.1654  0.1499 -0.1228
    1DIPC   GL211224  14.147   1.499   6.494  0.0246  0.0034 -0.0433
    1DIPC   C1A11225  14.139   2.071   6.106  0.0962 -0.0828 -0.1656
    1DIPC   D2A11226  13.786   2.042   5.732  0.0563  0.2029 -0.0738
    1DIPC   D3A11227  13.419   1.832   5.929 -0.0259 -0.3196 -0.1418
    1DIPC   C4A11228  13.098   1.610   6.094  0.1134 -0.0265 -0.0691
    1DIPC   C1B11229  13.991   1.144   6.200  0.3967 -0.0898  0.0212
    1DIPC   D2B11230  14.014   1.016   5.851 -0.1837  0.1709 -0.3305
    1DIPC   D3B11231  14.441   1.189   5.900  0.3145  0.2686  0.1435
    1DIPC   C4B11232  14.462   1.147   6.306  0.2014  0.1466  0.0270
    1DIPC   NC311233  10.004   2.549   7.389 -0.1428  0.1473 -0.1077
    1DIPC   PO411234   9.848   3.010   7.452  0.2985 -0.2348  0.2685
    1DIPC   GL111235   9.942   3.224   7.120 -0.0643 -0.3288 -0.0341
    1DIPC   GL211236   9.919   3.566   7.046 -0.3305  0.1590  0.0579
    1DIPC   C1A11237  10.365   3.289   6.874  0.2146 -0.2062 -0.1351
    1DIPC   D2A11238  10.703   3.133   6.743 -0.1241  0.0592 -0.3147
    1DIPC   D3A11239  10.848   2.989   6.278  0.1811  0.0297 -0.0853
    1DIPC   C4A11240  10.794   2.552   6.182  0.1524  0.0087  0.0226
    1DIPC   C1B11241   9.550   3.412   6.795  0.0534 -0.1439 -0.1986
    1DIPC   D2B11242   9.504   3.422   6.365 -0.0299  0.1352  0.0798
    1DIPC   D3B11243   9.752   3.130   6.410 -0.0211  0.0752  0.0529
    1DIPC   C4B11244   9.684   2.748   6.507 -0.0564  0.1022 -0.1905
    1DIPC   NC311245  22.304  13.204   6.146  0.0082  0.0677  0.1150
    1DIPC   PO411246  22.684  13.040   6.202  0.1930  0.1556 -0.5108
    1DIPC   GL111247  22.611  12.930   5.777  0.0423  0.0278 -0.1234
    1DIPC   GL211248  22.251  12.709   5.690 -0.2466  0.0241 -0.1776
    1DIPC   C1A11249  22.582  13.076   5.264 -0.0382  0.4239 -0.0599
    1DIPC   D2A11250  22.540  13.179   4.747  0.2347 -0.2425 -0.0656
    1DIPC   D3A11251  22.290  12.832   4.877 -0.2524 -0.0796  0.0961
    1DIPC   C4A11252  21.871  12.966   4.901 -0.3324 -0.1207  0.0571
    1DIPC   C1B11253  22.120  12.825   5.371 -0.0098 -0.0749 -0.1385
    1DIPC   D2B11254  22.036  12.547   5.198  0.2076 -0.1614  0.0103
    1DIPC   D3B11255  22.299  12.262   5.223 -0.0892 -0.0392 -0.0144
    1DIPC   C4B11256  22.341  11.802   5.270  0.0007  0.0724 -0.0215
    1DIPC   NC311257  24.373  24.200   6.812 -0.1468  0.0144 -0.1502
    1DIPC   PO411258  24.040  23.876   6.722  0.0469 -0.4316 -0.0543
    1DIPC   GL111259  24.204  23.792   6.324  0.0645  0.0428  0.3088
    1DIPC   GL211260  24.030  23.574   6.164  0.1290  0.2486 -0.1525
    1DIPC   C1A11261  24.453  23.869   5.905 -0.1144  0.2022  0.0443
    1DIPC   D2A11262  24.757  23.635   5.622 -0.1069  0.3654 -0.1727
    1DIPC   D3A11263  24.864  23.515   5.204 -0.0019  0.0112 -0.1815
    1DIPC   C4A11264  24.465  23.517   4.994 -0.1710  0.0447  0.2035
    1DIPC   C1B11265  23.970  23.844   5.796  0.0434  0.1287  0.0369
    1DIPC   D2B11266  24.246  23.795   5.366  0.1585  0.0377  0.1836
    1DIPC   D3B11267  24.591  24.002   5.110  0.1296 -0.0242 -0.0239
    1DIPC   C4B11268  24.684  24.362   4.739 -0.2113  0.2163 -0.1265
    1DIPC   NC311269  22.245  18.371   7.611 -0.2502  0.2173 -0.0580
    1DIPC   PO411270  22.463  18.132   7.167 -0.0581  0.2554 -0.0692
    1DIPC   GL111271  22.632  18.213   6.694 -0.0557  0.1999 -0.2048
    1DIPC   GL211272  22.775  18.446   6.504  0.2024  0.2611  0.1343
    1DIPC   C1A11273  22.665  17.909   6.185 -0.0740  0.0234 -0.2175
    1DIPC   D2A11274  22.486  17.810   5.778 -0.1590 -0.1027  0.0087
    1DIPC   D3A11275  22.089  17.778   5.628 -0.1139 -0.1409  0.0185
    1DIPC   C4A11276  21.923  17.419   5.595 -0.0193  0.2478  0.0386
    1DIPC   C1B11277  22.632  18.472   6.187  0.1013 -0.0526 -0.2109
    1DIPC   D2B11278  22.608  18.634   5.773  0.2337  0.0620  0.1307
    1DIPC   D3B11279  22.336  18.917   5.547 -0.1224 -0.0395  0.4609
    1DIPC   C4B11280  22.121  18.841   5.241 -0.2155  0.4196  0.0712
    1DIPC   NC311281  17.473  27.860   6.856 -0.0291 -0.1574  0.1587
    1DIPC   PO411282  17.111  27.885   6.771 -0.1341  0.0594  0.1422
    1DIPC   GL111283  17.251  27.763   6.370 -0.6500  0.1739  0.1470
    1DIPC   GL211284  17.503  27.893   6.225  0.0103  0.1662  0.0625
    1DIPC   C1A11285  17.202  27.929   5.860 -0.0671 -0.0840 -0.2308
    1DIPC   D2A11286  17.158  27.660   5.517  0.2077 -0.0911  0.0078
    1DIPC   D3A11287  17.149  28.049   5.362 -0.1596 -0.1335 -0.1306
    1DIPC   C4A11288  17.541  28.012   5.172  0.2360  0.1148  0.1268
    1DIPC   C1B11289  17.756  27.618   6.334 -0.0845  0.0863 -0.0646
    1DIPC   D2B11290  18.088  27.361   6.038 -0.5226 -0.2872  0.0537
    1DIPC   D3B11291  17.994  27.287   5.683  0.1539 -0.3862 -0.1805
    1DIPC   C4B11292  18.185  27.575   5.510  0.2380 -0.1123  0.0077
    1DIPC   NC311293   2.758   3.885   6.382  0.3455  0.2332  0.2018
    1DIPC   PO411294   3.131   3.796   6.585 -0.1185  0.0935  0.1718
    1DIPC   GL111295   3.291   3.877   6.099  0.0328 -0.1376  0.1918
    1DIPC   GL211296   3.531   3.773   5.891 -0.2015  0.0990  0.1458
    1DIPC   C1A11297   3.006   3.791   5.780  0.1172  0.0217  0.0431
    1DIPC   D2A11298   2.621   3.472   5.788 -0.0087  0.1923  0.1797
    1DIPC   D3A11299   2.335   3.364   5.420 -0.2126 -0.0644  0.2222
    1DIPC   C4A11300   2.569   3.039   5.266 -0.0718 -0.2929  0.1930
    1DIPC   C1B11301   3.459   3.898   5.497 -0.0525 -0.3044  0.0397
    1DIPC   D2B11302   3.411   3.821   5.034 -0.0156 -0.0022 -0.0054
    1DIPC   D3B11303   3.439   3.583   4.666 -0.1271 -0.1024  0.1137
    1DIPC   C4B11304   3.254   3.216   4.532  0.0057 -0.0752 -0.3435
    1DIPC   NC311305   3.527   7.373   7.289  0.0377 -0.2528  0.2378
    1DIPC   PO411306   3.490   7.751   6.967  0.0562 -0.1992  0.1275
    1DIPC   GL111307   3.454   7.722   6.528  0.4958  0.1280  0.0421
    1DIPC   GL211308   3.141   7.581   6.337  0.2570 -0.0820 -0.0089
    1DIPC   C1A11309   3.530   7.975   6.149  0.1196 -0.3315 -0.2554
    1DIPC   D2A11310   3.630   8.437   6.250  0.4747  0.3649  0.0910
    1DIPC   D3A11311   3.863   8.452   5.824 -0.0421 -0.0215 -0.0787
    1DIPC   C4A11312   3.974   8.677   5.571 -0.0779 -0.1685  0.0715
    1DIPC   C1B11313   3.249   7.574   5.969  0.4002  0.0099 -0.2031
    1DIPC   D2B11314   3.286   7.838   5.712 -0.1530  0.0473  0.2433
    1DIPC   D3B11315   2.947   8.000   5.475  0.0854 -0.1452  0.0031
    1DIPC   C4B11316   2.877   8.480   5.418  0.6619 -0.1560 -0.1144
    1DIPC   NC311317  14.383  27.747   7.072 -0.1421 -0.1440 -0.3261
    1DIPC   PO411318  13.961  27.981   7.017 -0.1809 -0.3258  0.3569
    1DIPC   GL111319  13.830  27.752   6.665 -0.1310 -0.3286 -0.1729
    1DIPC   GL211320  14.222  27.661   6.568 -0.3871 -0.0959  0.2854
    1DIPC   C1A11321  13.777  27.463   6.415 -0.3029 -0.0309 -0.1427
    1DIPC   D2A11322  13.972  27.135   6.120  0.0242 -0.1335  0.3490
    1DIPC   D3A11323  13.592  27.034   5.991 -0.1238  0.0961 -0.3307
    1DIPC   C4A11324  13.679  26.988   5.486  0.3028 -0.2603  0.1185
    1DIPC   C1B11325  14.271  27.558   6.086 -0.0321 -0.0235 -0.0729
    1DIPC   D2B11326  14.184  27.685   5.725  0.1468  0.1441  0.1935
    1DIPC   D3B11327  13.717  27.442   5.690 -0.2626  0.3213 -0.0182
    1DIPC   C4B11328  13.501  27.432   5.209 -0.3840 -0.0399 -0.2061
    1DIPC   NC311329  16.537  20.632   7.093  0.1202 -0.2303 -0.0653
    1DIPC   PO411330  16.871  20.311   7.030 -0.0875 -0.1162 -0.0868
    1DIPC   GL111331  16.811  20.321   6.579 -0.3988  0.0086 -0.1048
    1DIPC   GL211332  16.587  20.512   6.529 -0.3091 -0.3195 -0.1521
    1DIPC   C1A11333  17.029  20.551   6.204 -0.1435  0.0098  0.0084
    1DIPC   D2A11334  17.049  20.905   5.873 -0.2044  0.0137 -0.0543
    1DIPC   D3A11335  16.886  20.580   5.637  0.2353  0.3425 -0.0426
    1DIPC   C4A11336  16.444  20.512   5.599 -0.2965  0.0629 -0.0196
    1DIPC   C1B11337  16.604  20.763   6.037 -0.0063 -0.0232  0.1655
    1DIPC   D2B11338  16.425  21.091   5.983 -0.2139  0.0748  0.0242
    1DIPC   D3B11339  16.635  20.983   5.554 -0.0344  0.1525 -0.2959
    1DIPC   C4B11340  17.104  20.974   5.401 -0.0262 -0.1272 -0.0257
    1DIPC   NC311341  13.050  29.834   7.024  0.2425  0.2470  0.2424
    1DIPC   PO411342  12.735  29.649   7.069  0.3573  0.1507 -0.1379
    1DIPC   GL111343  12.713  29.890   6.618 -0.2216 -0.1551  0.0136
    1DIPC   GL211344  12.976  29.966   6.452  0.1225  0.1060  0.1810
    1DIPC   C1A11345  12.436  30.126   6.311  0.1073  0.0913 -0.0884
    1DIPC   D2A11346  12.410  30.355   5.948  0.2027  0.3536 -0.3293
    1DIPC   D3A11347  12.193  30.155   5.644  0.4015  0.0116  0.0703
    1DIPC   C4A11348  12.411  29.952   5.338  0.0750  0.1027  0.0801
    1DIPC   C1B11349  12.904  30.121   6.027 -0.0452  0.0232  0.0624
    1DIPC   D2B11350  12.828  30.168   5.602 -0.1120  0.0992  0.0892
    1DIPC   D3B11351  12.957  29.869   5.257  0.3846 -0.1196 -0.2875
    1DIPC   C4B11352  12.972  29.883   4.767 -0.0213 -0.0002  0.0695
    1DIPC   NC311353   6.544  25.424   6.504  0.0667  0.2355 -0.2454
    1DIPC   PO411354   6.882  25.175   6.276  0.0143 -0.2250 -0.1349
    1DIPC   GL111355   6.961  25.111   5.830 -0.1034  0.0370  0.2766
    1DIPC   GL211356   6.876  25.187   5.562  0.1697  0.2299 -0.1155
    1DIPC   C1A11357   6.923  24.724   5.670 -0.2317 -0.2877  0.0774
    1DIPC   D2A11358   6.926  24.493   5.265 -0.0675  0.1352 -0.1261
    1DIPC   D3A11359   6.616  24.690   4.949  0.0869  0.2812  0.2131
    1DIPC   C4A11360   6.487  24.944   4.818 -0.2127  0.0050 -0.0240
    1DIPC   C1B11361   6.507  25.389   5.503 -0.0216 -0.2002  0.1998
    1DIPC   D2B11362   6.304  25.766   5.642 -0.1392 -0.0708 -0.0516
    1DIPC   D3B11363   6.370  26.226   5.951 -0.0535 -0.2248  0.1267
    1DIPC   C4B11364   6.187  26.626   5.766  0.0421 -0.0343 -0.2795
    1DIPC   NC311365  18.845   4.946   6.374  0.3042 -0.1590 -0.0782
    1DIPC   PO411366  18.690   4.589   6.176 -0.1530 -0.2244  0.2622
    1DIPC   GL111367  18.829   4.416   5.885  0.3710 -0.3723  0.3097
    1DIPC   GL211368  19.080   4.631   5.915  0.0347 -0.0677  0.1581
    1DIPC   C1A11369  18.764   4.315   5.413  0.0457  0.3004  0.1570
    1DIPC   D2A11370  18.766   4.340   4.941 -0.1240  0.2089 -0.0984
    1DIPC   D3A11371  18.828   4.513   4.488  0.0528  0.0951 -0.2896
    1DIPC   C4A11372  19.297   4.324   4.394 -0.4076 -0.3362 -0.1184
    1DIPC   C1B11373  19.213   4.421   5.468 -0.1224  0.0606 -0.4878
    1DIPC   D2B11374  19.293   4.371   5.015 -0.1938 -0.0341  0.2611
    1DIPC   D3B11375  19.360   4.726   4.670 -0.1322 -0.1290  0.2052
    1DIPC   C4B11376  19.479   5.163   4.866  0.0948  0.0586  0.2201
    1DIPC   NC311377  29.667  13.266   6.016  0.1346 -0.1323  0.1952
    1DIPC   PO411378  29.422  12.952   5.960  0.1510 -0.1159 -0.0063
    1DIPC   GL111379  29.233  12.945   5.575 -0.2721 -0.2464  0.1295
    1DIPC   GL211380  29.019  12.739   5.634 -0.2241 -0.1076 -0.2962
    1DIPC   C1A11381  29.270  12.828   5.187  0.1373  0.0540  0.4734
    1DIPC   D2A11382  29.344  12.755   4.694  0.3036  0.0962  0.1658
    1DIPC   D3A11383  29.636  12.475   4.417  0.2241  0.3073  0.2040
    1DIPC   C4A11384  30.065  12.293   4.534  0.0693  0.1728 -0.0346
    1DIPC   C1B11385  28.720  12.782   5.315  0.0240 -0.3061  0.1253
    1DIPC   D2B11386  28.824  12.837   4.889  0.1085  0.6753 -0.0765
    1DIPC   D3B11387  29.011  12.396   4.983  0.0719  0.1546 -0.2650
    1DIPC   C4B11388  28.833  12.292   5.393  0.0209 -0.0297  0.1113
    1DIPC   NC311389   5.836   7.030   6.926  0.0952 -0.3008 -0.1884
    1DIPC   PO411390   5.707   7.281   6.629 -0.0448 -0.0475  0.3142
    1DIPC   GL111391   5.362   7.362   6.314 -0.0940  0.1405  0.0904
    1DIPC   GL211392   5.356   7.734   6.273  0.0361  0.1207  0.2141
    1DIPC   C1A11393   5.156   7.453   5.901  0.2937 -0.2071 -0.0472
    1DIPC   D2A11394   5.158   7.713   5.571 -0.1133 -0.1087 -0.0479
    1DIPC   D3A11395   4.833   7.404   5.549  0.0366  0.2074 -0.0424
    1DIPC   C4A11396   5.029   6.955   5.541 -0.1706  0.1770  0.0701
    1DIPC   C1B11397   5.667   7.975   5.929 -0.3412 -0.1473  0.1917
    1DIPC   D2B11398   6.050   7.926   5.738  0.1285  0.0044 -0.1138
    1DIPC   D3B11399   6.376   8.020   5.399 -0.2433  0.1812 -0.1639
    1DIPC   C4B11400   6.579   7.710   5.247  0.0464  0.2157  0.0726
    1DIPC   NC311401  21.500   4.646   7.173 -0.1312  0.2139  0.0466
    1DIPC   PO411402  21.441   4.339   6.851 -0.0093  0.0022 -0.3538
    1DIPC   GL111403  21.315   4.289   6.410  0.0018 -0.1071  0.2974
    1DIPC   GL211404  21.470   4.115   6.196 -0.1625 -0.0221  0.0074
    1DIPC   C1A11405  21.313   4.501   5.925 -0.2891 -0.1021  0.1285
    1DIPC   D2A11406  21.071   4.733   5.608  0.1336 -0.0413 -0.1248
    1DIPC   D3A11407  20.953   4.784   5.099  0.1542  0.2757  0.2024
    1DIPC   C4A11408  21.098   5.130   4.849  0.3598  0.2180 -0.2887
    1DIPC   C1B11409  21.509   4.024   5.680  0.0184 -0.1291  0.1898
    1DIPC   D2B11410  21.417   3.655   5.349 -0.1778 -0.0798  0.0191
    1DIPC   D3B11411  21.232   4.053   5.124  0.0782 -0.2459 -0.4361
    1DIPC   C4B11412  20.834   4.273   4.971 -0.0486 -0.0208  0.1013
    1DIPC   NC311413   1.538   1.641   6.447  0.3318 -0.0156  0.0457
    1DIPC   PO411414   1.135   1.780   6.463 -0.2311 -0.1900 -0.1864
    1DIPC   GL111415   1.107   1.452   6.139 -0.2568 -0.0325  0.0685
    1DIPC   GL211416   0.820   1.410   6.078 -0.3571 -0.0710 -0.3610
    1DIPC   C1A11417   1.106   1.434   5.685  0.2018 -0.1052 -0.1686
    1DIPC   D2A11418   1.331   1.365   5.310 -0.0628  0.2811 -0.4463
    1DIPC   D3A11419   1.686   1.351   5.147  0.2868  0.2132 -0.1098
    1DIPC   C4A11420   1.880   0.954   5.155  0.3024  0.0928  0.5417
    1DIPC   C1B11421   0.569   1.332   5.792  0.1825  0.2547 -0.4237
    1DIPC   D2B11422   0.273   1.441   5.339 -0.0996  0.0106 -0.1175
    1DIPC   D3B11423   0.531   1.498   4.991  0.2033  0.1269  0.0415
    1DIPC   C4B11424   0.915   1.771   5.073  0.2799 -0.1045 -0.0281
    1DIPC   NC311425  22.989  12.672   6.098 -0.2983 -0.1527  0.1829
    1DIPC   PO411426  23.192  12.322   6.209 -0.0500  0.3225  0.0123
    1DIPC   GL111427  23.063  12.284   5.740 -0.2107  0.0556  0.1334
    1DIPC   GL211428  22.985  11.947   5.656  0.1174 -0.0690 -0.2418
    1DIPC   C1A11429  22.891  12.556   5.411  0.0441  0.0352  0.0928
    1DIPC   D2A11430  22.704  12.595   4.948 -0.0535 -0.2282  0.0607
    1DIPC   D3A11431  23.028  12.868   4.648 -0.1536  0.1112 -0.0075
    1DIPC   C4A11432  23.492  13.125   4.675 -0.0888 -0.2835  0.2312
    1DIPC   C1B11433  22.780  11.978   5.296 -0.1412 -0.1882 -0.0230
    1DIPC   D2B11434  22.622  12.067   4.910 -0.3606 -0.1177 -0.0430
    1DIPC   D3B11435  23.083  12.162   4.809  0.0694 -0.1728 -0.1180
    1DIPC   C4B11436  23.302  12.064   5.115 -0.0054  0.0768 -0.1510
    1DIPC   NC311437  19.462   2.830   6.592  0.1411 -0.0262  0.2518
    1DIPC   PO411438  18.980   2.653   6.676 -0.1235  0.1962 -0.0573
    1DIPC   GL111439  18.912   2.565   6.278  0.0626  0.1158  0.1327
    1DIPC   GL211440  18.919   2.853   6.168 -0.2055  0.0643  0.0085
    1DIPC   C1A11441  18.562   2.514   5.977 -0.1177 -0.1236 -0.0708
    1DIPC   D2A11442  18.530   2.596   5.582  0.1676 -0.1244  0.1739
    1DIPC   D3A11443  18.454   2.197   5.243 -0.0242 -0.1339 -0.4244
    1DIPC   C4A11444  18.166   2.280   4.970  0.0672 -0.0725 -0.0087
    1DIPC   C1B11445  18.911   2.921   5.825  0.3363  0.2484 -0.2805
    1DIPC   D2B11446  18.882   2.832   5.311 -0.0448  0.3284  0.0654
    1DIPC   D3B11447  19.037   2.482   5.505 -0.2487  0.0450 -0.0581
    1DIPC   C4B11448  19.043   2.294   5.898 -0.3198  0.2885  0.2440
    1DIPC   NC311449  29.690  15.815   6.180 -0.0037 -0.0247  0.2267
    1DIPC   PO411450  29.379  15.451   6.251  0.1003 -0.0874  0.0749
    1DIPC   GL111451  29.402  15.578   5.808 -0.0787  0.1141  0.0162
    1DIPC   GL211452  29.578  15.793   5.666 -0.0467 -0.1313  0.0810
    1DIPC   C1A11453  29.074  15.804   5.393 -0.0313  0.1407 -0.3257
    1DIPC   D2A11454  28.832  16.074   5.149  0.0158 -0.3589 -0.2534
    1DIPC   D3A11455  29.038  16.211   4.728  0.1399 -0.1668  0.0334
    1DIPC   C4A11456  29.422  16.002   4.603  0.0668  0.4165  0.2871
    1DIPC   C1B11457  29.781  15.386   5.530 -0.0563 -0.2950 -0.0191
    1DIPC   D2B11458  30.074  15.175   5.624 -0.0228  0.1886  0.0550
    1DIPC   D3B11459  30.145  15.066   5.235  0.3405  0.0559 -0.2145
    1DIPC   C4B11460  30.082  14.768   4.866  0.1932  0.0250 -0.0553
    1DIPC   NC311461  26.940   8.265   6.016 -0.0076 -0.1478 -0.0623
    1DIPC   PO411462  27.055   7.860   6.026  0.2514  0.0032 -0.0919
    1DIPC   GL111463  27.296   8.143   5.735  0.1796  0.1169  0.3500
    1DIPC   GL211464  27.104   8.391   5.580 -0.3432  0.1557  0.0140
    1DIPC   C1A11465  27.681   7.858   5.441 -0.0554  0.1435 -0.2415
    1DIPC   D2A11466  28.004   7.795   5.047  0.1238 -0.0875 -0.0072
    1DIPC   D3A11467  27.899   7.561   4.832  0.1624 -0.0612  0.3645
    1DIPC   C4A11468  27.830   7.750   4.524 -0.2805 -0.1074 -0.1301
    1DIPC   C1B11469  27.353   8.397   5.225 -0.1382 -0.3056 -0.1887
    1DIPC   D2B11470  27.092   8.197   4.829 -0.2630 -0.0774 -0.2974
    1DIPC   D3B11471  26.985   7.966   4.494  0.0993 -0.1442 -0.1763
    1DIPC   C4B11472  26.703   7.629   4.446  0.3720  0.1393 -0.1300
    1DIPC   NC311473  29.470  12.575   6.667  0.3687  0.1465 -0.0685
    1DIPC   PO411474  29.629  12.264   6.322  0.0482  0.3209 -0.2753
    1DIPC   GL111475  29.659  11.953   6.058  0.0172 -0.0352 -0.0342
    1DIPC   GL211476  29.730  11.982   5.717  0.1650  0.0840  0.0046
    1DIPC   C1A11477  29.466  11.582   5.870 -0.0685  0.1339  0.2470
    1DIPC   D2A11478  29.365  11.224   5.636  0.0803  0.1201 -0.0178
    1DIPC   D3A11479  29.746  11.450   5.444  0.0057 -0.0700  0.0638
    1DIPC   C4A11480  29.609  11.866   5.240 -0.0531 -0.3872  0.2831
    1DIPC   C1B11481  29.925  12.260   5.343 -0.1115 -0.3502  0.2403
    1DIPC   D2B11482  30.037  12.329   5.004  0.0781  0.3400 -0.2035
    1DIPC   D3B11483  30.393  12.119   4.882 -0.1346  0.2709 -0.0732
    1DIPC   C4B11484  30.547  12.259   4.479  0.0620  0.1015 -0.2134
    1DIPC   NC311485  24.791  24.383   7.173 -0.0612 -0.1447  0.0270
    1DIPC   PO411486  24.920  24.216   6.815 -0.0429 -0.2607  0.4398
    1DIPC   GL111487  25.026  24.037   6.412  0.0861  0.3581 -0.0232
    1DIPC   GL211488  24.844  23.862   6.211 -0.1494 -0.5050 -0.3929
    1DIPC   C1A11489  25.019  24.311   5.996  0.0531  0.0615  0.4128
    1DIPC   D2A11490  25.140  24.737   5.669 -0.0503  0.1373  0.1261
    1DIPC   D3A11491  24.932  24.458   5.222  0.2890 -0.0675 -0.0376
    1DIPC   C4A11492  25.166  24.176   5.009  0.1724 -0.1677 -0.1322
    1DIPC   C1B11493  25.152  23.740   5.954 -0.1443  0.5041 -0.0430
    1DIPC   D2B11494  25.519  23.655   5.967 -0.0165 -0.2613  0.2223
    1DIPC   D3B11495  25.466  23.298   5.870  0.1222  0.1345 -0.0212
    1DIPC   C4B11496  25.144  23.199   5.516  0.1612  0.2100  0.1761
    1DIPC   NC311497  21.202   6.393   6.659 -0.0978 -0.0022 -0.5017
    1DIPC   PO411498  21.225   5.841   6.731 -0.3928 -0.2626  0.1676
    1DIPC   GL111499  21.238   5.893   6.254  0.1047 -0.0524  0.0970
    1DIPC   GL211500  21.376   6.099   6.054 -0.0001  0.1594 -0.4010
    1DIPC   C1A11501  21.239   5.624   5.920 -0.2145 -0.1301 -0.0476
    1DIPC   D2A11502  21.302   5.769   5.478 -0.1500 -0.1301  0.2855
    1DIPC   D3A11503  21.469   5.532   5.100 -0.3626 -0.0089  0.0052
    1DIPC   C4A11504  21.607   5.194   4.846 -0.1251  0.1884 -0.0340
    1DIPC   C1B11505  21.501   6.286   5.731  0.1327 -0.4146  0.0353
    1DIPC   D2B11506  21.835   6.599   5.546  0.1091  0.0001  0.3983
    1DIPC   D3B11507  22.072   6.713   5.756 -0.0535 -0.1019 -0.1103
    1DIPC   C4B11508  22.437   6.807   5.648 -0.0965  0.0405  0.0477
    1DIPC   NC311509  26.841  14.837   5.778 -0.2809 -0.0703  0.0839
    1DIPC   PO411510  26.493  14.764   5.597  0.2386 -0.2532  0.0779
    1DIPC   GL111511  26.205  14.714   5.309 -0.1889  0.0565 -0.1778
    1DIPC   GL211512  26.296  14.428   5.108  0.0922 -0.3085 -0.2813
    1DIPC   C1A11513  26.446  14.838   4.884 -0.0863  0.1203  0.0245
    1DIPC   D2A11514  26.893  15.082   4.643  0.0971  0.0136 -0.3513
    1DIPC   D3A11515  26.568  15.321   4.534 -0.0966  0.1657 -0.3175
    1DIPC   C4A11516  26.220  15.111   4.500  0.1011  0.1406  0.0592
    1DIPC   C1B11517  26.677  14.394   4.756  0.1436  0.1475 -0.0111
    1DIPC   D2B11518  26.908  14.370   4.327 -0.2613  0.1738  0.0247
    1DIPC   D3B11519  26.604  14.016   4.368 -0.1675  0.2892  0.0478
    1DIPC   C4B11520  26.472  13.614   4.532 -0.1560  0.4185 -0.0943
    1DIPC   NC311521  17.608  29.543   6.866  0.1919  0.0747 -0.1718
    1DIPC   PO411522  17.366  29.676   7.224 -0.2861  0.0201 -0.0891
    1DIPC   GL111523  17.225  29.879   6.751 -0.0038  0.0333  0.2709
    1DIPC   GL211524  16.923  29.938   6.658  0.1433 -0.1553  0.0789
    1DIPC   C1A11525  17.267  29.626   6.327 -0.0392 -0.1040  0.1834
    1DIPC   D2A11526  17.025  29.547   5.938 -0.2402  0.3258 -0.0258
    1DIPC   D3A11527  16.658  29.447   5.661  0.1755 -0.1744 -0.1140
    1DIPC   C4A11528  16.763  29.152   5.283 -0.1137 -0.2443 -0.0104
    1DIPC   C1B11529  16.614  29.553   6.537 -0.2803  0.3036 -0.1169
    1DIPC   D2B11530  16.412  29.239   6.383 -0.1633  0.1170  0.0662
    1DIPC   D3B11531  16.201  28.941   6.514  0.1766  0.1962  0.2094
    1DIPC   C4B11532  16.383  28.503   6.450  0.0318 -0.1606  0.0388
    1DIPC   NC311533  14.392   2.100   6.926 -0.0849  0.0513  0.0950
    1DIPC   PO411534  14.063   2.406   7.039  0.1072 -0.0114 -0.3197
    1DIPC   GL111535  13.939   2.265   6.609  0.1981 -0.0954  0.1425
    1DIPC   GL211536  14.147   2.396   6.458 -0.1429  0.1789 -0.1920
    1DIPC   C1A11537  13.684   2.269   6.214 -0.0050 -0.0898  0.1766
    1DIPC   D2A11538  13.313   2.329   5.861  0.2902  0.3168 -0.1146
    1DIPC   D3A11539  13.461   2.254   5.418 -0.0520  0.0096  0.2118
    1DIPC   C4A11540  13.283   2.069   5.156 -0.0620  0.2559  0.2949
    1DIPC   C1B11541  14.426   2.525   6.132  0.0381  0.1219 -0.0932
    1DIPC   D2B11542  14.666   2.509   5.764  0.3080  0.1601  0.1830
    1DIPC   D3B11543  14.662   2.811   5.575  0.2510  0.0104 -0.0050
    1DIPC   C4B11544  14.723   3.239   5.658  0.2627 -0.1133  0.2030
    1DIPC   NC311545  25.768  16.606   6.168 -0.1637 -0.1000  0.1054
    1DIPC   PO411546  25.772  16.970   5.999 -0.1308  0.0754  0.0320
    1DIPC   GL111547  25.655  17.257   5.674 -0.2578 -0.1801 -0.0520
    1DIPC   GL211548  26.001  17.232   5.575 -0.1322 -0.0527  0.2026
    1DIPC   C1A11549  25.468  17.250   5.284  0.0691 -0.1351  0.3229
    1DIPC   D2A11550  25.635  17.214   4.830 -0.4191 -0.2895  0.2315
    1DIPC   D3A11551  25.799  17.001   4.472 -0.1276 -0.0586 -0.0672
    1DIPC   C4A11552  26.072  17.113   4.160 -0.2854  0.1723  0.1214
    1DIPC   C1B11553  25.944  17.443   5.248 -0.1170  0.2273 -0.0751
    1DIPC   D2B11554  25.990  17.637   4.866  0.2715 -0.4415  0.0948
    1DIPC   D3B11555  25.891  18.043   4.831 -0.0081 -0.1223 -0.2383
    1DIPC   C4B11556  25.871  18.120   4.403  0.0368  0.1014 -0.0916
    1DIPC   NC311557  26.453   4.799   6.255 -0.0097 -0.0754 -0.0486
    1DIPC   PO411558  26.862   5.033   6.286  0.0454  0.1877 -0.1861
    1DIPC   GL111559  26.509   5.201   5.960 -0.2260 -0.1155  0.2034
    1DIPC   GL211560  26.186   5.115   5.912  0.1071 -0.1380  0.2504
    1DIPC   C1A11561  26.482   4.907   5.520 -0.2699 -0.0360 -0.1384
    1DIPC   D2A11562  26.551   4.970   5.081  0.1138  0.2956 -0.1846
    1DIPC   D3A11563  26.694   4.560   5.040  0.3608  0.1301  0.1543
    1DIPC   C4A11564  26.881   4.164   5.240 -0.2786  0.0510 -0.0004
    1DIPC   C1B11565  26.270   5.362   5.481 -0.0506 -0.3791 -0.2191
    1DIPC   D2B11566  26.081   5.458   5.073 -0.0833 -0.1320 -0.0944
    1DIPC   D3B11567  26.517   5.391   4.866  0.0423 -0.3537  0.0995
    1DIPC   C4B11568  26.629   5.023   4.506  0.1857  0.2117 -0.2930
    1DIPC   NC311569   2.351  23.631   5.718 -0.0136  0.1450  0.0088
    1DIPC   PO411570   1.879  23.614   5.661  0.0034 -0.0821  0.0893
    1DIPC   GL111571   1.745  23.769   5.315 -0.0415  0.0810 -0.2266
    1DIPC   GL211572   1.781  24.140   5.383 -0.2221  0.2935  0.0267
    1DIPC   C1A11573   1.876  23.809   4.919  0.3360 -0.3496  0.2763
    1DIPC   D2A11574   2.267  23.674   4.727  0.1150 -0.1808  0.0771
    1DIPC   D3A11575   2.298  23.807   4.274 -0.2822  0.2432  0.0685
    1DIPC   C4A11576   1.927  24.057   4.130  0.0129  0.1041 -0.2178
    1DIPC   C1B11577   1.456  24.333   5.117  0.0878 -0.2326 -0.2745
    1DIPC   D2B11578   1.537  24.714   4.906  0.1686 -0.1896  0.0472
    1DIPC   D3B11579   1.184  24.839   5.145 -0.0331 -0.0045  0.1511
    1DIPC   C4B11580   0.753  25.023   4.990  0.0012 -0.2081  0.0843
    1DIPC   NC311581   2.258  21.830   6.450 -0.1850 -0.3761  0.0484
    1DIPC   PO411582   2.153  21.409   6.195  0.1166 -0.2149 -0.1460
    1DIPC   GL111583   2.224  21.042   6.000  0.0477 -0.0593  0.0017
    1DIPC   GL211584   1.989  20.851   5.849 -0.0978 -0.2564 -0.1172
    1DIPC   C1A11585   2.466  20.953   5.700 -0.0384 -0.1719  0.1831
    1DIPC   D2A11586   2.729  21.077   5.530  0.4650  0.0888  0.2707
    1DIPC   D3A11587   2.744  21.334   5.187  0.0022  0.1864  0.0021
    1DIPC   C4A11588   2.678  21.072   4.646  0.1082 -0.0489 -0.0356
    1DIPC   C1B11589   2.069  20.692   5.408 -0.0419 -0.1349 -0.3720
    1DIPC   D2B11590   2.025  20.735   4.975 -0.3338  0.0989  0.1224
    1DIPC   D3B11591   2.079  20.277   4.661 -0.1274  0.0333 -0.1225
    1DIPC   C4B11592   1.752  20.326   4.342  0.1594  0.1168  0.3016
    1DIPC   NC311593  19.542  27.197   6.867  0.1434 -0.2606 -0.0299
    1DIPC   PO411594  19.900  26.794   6.971 -0.2475  0.1027  0.0623
    1DIPC   GL111595  19.816  26.943   6.570 -0.1485  0.0780  0.1577
    1DIPC   GL211596  19.739  27.262   6.417  0.2689  0.0673 -0.0086
    1DIPC   C1A11597  19.782  26.776   6.174  0.0846  0.1731  0.0627
    1DIPC   D2A11598  19.543  26.347   6.038  0.2044  0.1355  0.1133
    1DIPC   D3A11599  19.848  25.908   6.083 -0.0300  0.0337 -0.5480
    1DIPC   C4A11600  19.988  25.595   5.698  0.1852  0.1250  0.2612
    1DIPC   C1B11601  19.915  27.240   6.035 -0.2235  0.1420 -0.0414
    1DIPC   D2B11602  20.326  27.528   6.116 -0.1457 -0.1404  0.2934
    1DIPC   D3B11603  20.656  27.609   5.698  0.1538  0.1142  0.0959
    1DIPC   C4B11604  20.710  28.030   5.511 -0.0687 -0.3919  0.1208
    1DIPC   NC311605  28.794   8.628   6.711  0.3637  0.0756 -0.0553
    1DIPC   PO411606  28.574   8.401   6.378  0.0354 -0.0115 -0.0336
    1DIPC   GL111607  28.687   8.270   5.972 -0.2600  0.1687 -0.2367
    1DIPC   GL211608  28.805   8.460   5.730  0.2067 -0.0075  0.1978
    1DIPC   C1A11609  28.808   7.950   5.686  0.3007 -0.0067 -0.0459
    1DIPC   D2A11610  28.942   7.756   5.274 -0.0865 -0.2079  0.0045
    1DIPC   D3A11611  29.222   7.918   4.958  0.1898 -0.0637 -0.1602
    1DIPC   C4A11612  29.490   7.543   4.792  0.4975 -0.3084  0.2493
    1DIPC   C1B11613  29.159   8.204   5.894  0.0985  0.0344  0.0698
    1DIPC   D2B11614  29.208   7.750   5.900  0.0676  0.0811  0.2710
    1DIPC   D3B11615  29.321   7.940   5.527 -0.1830 -0.0891 -0.2357
    1DIPC   C4B11616  29.062   8.305   5.305  0.0967 -0.1193 -0.0296
    1DIPC   NC311617   4.450   8.553   7.005 -0.1489 -0.0230 -0.0928
    1DIPC   PO411618   4.170   8.197   7.033 -0.0675  0.0019  0.1869
    1DIPC   GL111619   4.161   8.499   6.604  0.0094  0.2767 -0.1203
    1DIPC   GL211620   4.027   8.693   6.453 -0.0551 -0.1214 -0.0198
    1DIPC   C1A11621   4.146   8.218   6.244  0.0680 -0.1930  0.2471
    1DIPC   D2A11622   4.067   7.998   5.868 -0.0066  0.0439  0.0088
    1DIPC   D3A11623   4.559   7.918   5.843  0.0802 -0.0396 -0.0937
    1DIPC   C4A11624   4.956   7.974   6.010 -0.1930  0.1707 -0.2483
    1DIPC   C1B11625   4.129   8.842   6.040  0.0394 -0.2389  0.0093
    1DIPC   D2B11626   4.315   9.009   5.708 -0.1892 -0.0901 -0.0276
    1DIPC   D3B11627   4.512   8.736   5.331  0.1046  0.3947  0.0989
    1DIPC   C4B11628   4.930   8.745   5.119  0.3226 -0.0424  0.1164
    1DIPC   NC311629  22.957  10.373   6.498 -0.0341  0.2658 -0.0030
    1DIPC   PO411630  22.720  10.711   6.347 -0.1484 -0.0220  0.1354
    1DIPC   GL111631  22.561  10.604   5.990 -0.2800  0.1491 -0.0384
    1DIPC   GL211632  22.472  10.271   6.127 -0.0871  0.0096 -0.0576
    1DIPC   C1A11633  22.709  10.759   5.702  0.1157  0.0764  0.2096
    1DIPC   D2A11634  22.979  11.044   5.503 -0.0320 -0.1367 -0.1023
    1DIPC   D3A11635  23.252  10.723   5.179  0.1190 -0.3427  0.0040
    1DIPC   C4A11636  23.087  10.764   4.726  0.0731 -0.1234  0.1474
    1DIPC   C1B11637  22.594  10.241   5.642  0.2021  0.0956  0.3722
    1DIPC   D2B11638  22.632  10.412   5.168 -0.1492 -0.0164 -0.1799
    1DIPC   D3B11639  22.678  10.829   5.166  0.1279 -0.4598  0.0606
    1DIPC   C4B11640  22.408  11.039   5.445  0.3351 -0.2133  0.0582
    1DIPC   NC311641  29.054  10.285   6.662  0.0783  0.0855 -0.0519
    1DIPC   PO411642  28.814  10.057   6.508  0.1301  0.0420  0.4325
    1DIPC   GL111643  28.772  10.044   6.037  0.1478 -0.1736  0.1661
    1DIPC   GL211644  28.567  10.261   5.857 -0.3373 -0.1865  0.1556
    1DIPC   C1A11645  28.479   9.759   5.822 -0.0080 -0.0081  0.0426
    1DIPC   D2A11646  28.271   9.407   5.702 -0.2222 -0.1351 -0.2277
    1DIPC   D3A11647  28.161   9.229   5.274 -0.0567  0.1538  0.3447
    1DIPC   C4A11648  28.424   9.134   4.964  0.0414  0.0508 -0.0979
    1DIPC   C1B11649  28.730  10.045   5.463  0.4292  0.1066 -0.0278
    1DIPC   D2B11650  29.060   9.745   5.259 -0.1037  0.1287 -0.0373
    1DIPC   D3B11651  28.806   9.599   4.877  0.3515  0.2104 -0.2973
    1DIPC   C4B11652  28.420   9.778   4.692 -0.3566  0.3009 -0.1476
    1DIPC   NC311653  13.237  27.072   6.426 -0.3110  0.1148 -0.0274
    1DIPC   PO411654  12.977  26.763   6.468  0.0021  0.1262 -0.1091
    1DIPC   GL111655  12.793  26.893   6.006 -0.1752  0.1835 -0.1038
    1DIPC   GL211656  12.759  26.698   5.843  0.0701  0.4127 -0.0423
    1DIPC   C1A11657  12.997  27.075   5.666  0.0449 -0.0545 -0.3270
    1DIPC   D2A11658  13.104  27.470   5.494 -0.0126 -0.0655  0.1808
    1DIPC   D3A11659  13.045  27.731   5.085 -0.2040  0.2553 -0.1391
    1DIPC   C4A11660  13.377  27.827   4.853  0.1412 -0.4548 -0.1453
    1DIPC   C1B11661  12.882  26.468   5.492  0.0429  0.0670 -0.1843
    1DIPC   D2B11662  13.111  26.399   5.083  0.0376  0.1390 -0.0099
    1DIPC   D3B11663  12.898  26.782   4.900 -0.3325 -0.0500 -0.0534
    1DIPC   C4B11664  13.116  26.804   4.540  0.1213  0.3172 -0.5224
    1DIPC   NC311665  17.894  26.949   6.989 -0.1343  0.1560 -0.3938
    1DIPC   PO411666  18.219  26.561   6.931 -0.1828 -0.0111  0.1175
    1DIPC   GL111667  18.023  26.463   6.657  0.3544 -0.1664  0.1008
    1DIPC   GL211668  17.708  26.557   6.730  0.2980  0.2666  0.1331
    1DIPC   C1A11669  17.944  26.221   6.266 -0.0533 -0.1097  0.6031
    1DIPC   D2A11670  18.077  25.876   6.010  0.2720 -0.1788  0.2742
    1DIPC   D3A11671  17.754  25.726   5.709 -0.2047 -0.1189  0.0719
    1DIPC   C4A11672  17.657  25.345   5.563 -0.0019  0.2414 -0.2064
    1DIPC   C1B11673  17.622  26.652   6.229 -0.0356 -0.0366  0.1128
    1DIPC   D2B11674  17.727  26.949   5.977  0.2469  0.1138  0.0713
    1DIPC   D3B11675  17.994  26.799   5.490  0.2290  0.0656 -0.0337
    1DIPC   C4B11676  17.764  26.540   5.246  0.1131 -0.3192  0.0397
    1DIPC   NC311677   0.215  12.283   6.141 -0.1919 -0.1408 -0.0107
    1DIPC   PO411678   0.690  12.091   6.038  0.0091  0.0147  0.0000
    1DIPC   GL111679   0.329  11.994   5.780 -0.2646 -0.0504 -0.1642
    1DIPC   GL211680   0.185  11.719   5.895 -0.2810  0.2867  0.2983
    1DIPC   C1A11681   0.378  11.925   5.342  0.1761 -0.2817  0.0590
    1DIPC   D2A11682   0.170  11.741   4.995 -0.4050 -0.3431  0.0254
    1DIPC   D3A11683  -0.159  11.933   4.789 -0.0409 -0.0894  0.1002
    1DIPC   C4A11684  -0.126  11.981   4.316 -0.1130  0.1630  0.0618
    1DIPC   C1B11685   0.352  11.474   5.595  0.0925  0.2224  0.2537
    1DIPC   D2B11686   0.499  11.149   5.237 -0.1141  0.1814 -0.3467
    1DIPC   D3B11687   0.150  11.222   5.126  0.0511 -0.1801 -0.1704
    1DIPC   C4B11688  -0.053  10.895   4.747  0.1450  0.2189 -0.0539
    1DIPC   NC311689  28.204   8.023   6.657  0.0797  0.0187 -0.1427
    1DIPC   PO411690  28.321   7.650   6.360 -0.1036  0.1727 -0.2362
    1DIPC   GL111691  28.504   7.650   5.961 -0.3544 -0.2851  0.0432
    1DIPC   GL211692  28.209   7.834   5.742  0.2735 -0.2693 -0.0858
    1DIPC   C1A11693  28.510   7.533   5.487  0.0363 -0.1915 -0.1943
    1DIPC   D2A11694  28.335   7.381   5.091  0.3787 -0.0094  0.2005
    1DIPC   D3A11695  28.404   6.996   4.909 -0.0852  0.0780  0.2999
    1DIPC   C4A11696  28.246   6.701   4.601 -0.0172  0.1878  0.0807
    1DIPC   C1B11697  28.438   8.060   5.326 -0.0330 -0.0642 -0.0363
    1DIPC   D2B11698  28.525   7.878   4.979  0.1408  0.1155 -0.1021
    1DIPC   D3B11699  28.330   7.735   4.658  0.1498  0.2493 -0.0153
    1DIPC   C4B11700  28.344   7.744   4.258  0.0850 -0.0721  0.0033
    1DIPC   NC311701  19.705  28.987   6.719  0.1006  0.0833 -0.2429
    1DIPC   PO411702  19.674  29.445   6.748  0.1963 -0.2333  0.1530
    1DIPC   GL111703  19.624  29.655   6.264  0.0074  0.0492 -0.1331
    1DIPC   GL211704  19.370  29.865   6.062 -0.1397 -0.2294  0.0263
    1DIPC   C1A11705  19.839  29.720   5.813 -0.1361 -0.3413  0.2280
    1DIPC   D2A11706  19.708  29.590   5.361  0.1473 -0.0172 -0.0888
    1DIPC   D3A11707  19.880  29.234   5.565  0.0013 -0.0275  0.1346
    1DIPC   C4A11708  19.628  29.260   5.960 -0.1139  0.2251 -0.1311
    1DIPC   C1B11709  19.399  29.983   5.548 -0.0583  0.0772  0.1489
    1DIPC   D2B11710  19.515  30.208   5.265  0.2885 -0.0101  0.2271
    1DIPC   D3B11711  19.569  29.915   4.964  0.0612  0.1866 -0.0120
    1DIPC   C4B11712  19.941  29.596   4.874 -0.0430  0.1261  0.0909
    1DIPC   NC311713  17.191  28.414   6.831  0.0591  0.3847  0.0852
    1DIPC   PO411714  17.664  28.412   6.897 -0.0073 -0.0671 -0.2294
    1DIPC   GL111715  17.489  28.596   6.477 -0.0725  0.1370  0.0389
    1DIPC   GL211716  17.224  28.810   6.371 -0.0996 -0.1128  0.1749
    1DIPC   C1A11717  17.381  28.516   5.991  0.0466 -0.0534  0.3508
    1DIPC   D2A11718  17.485  28.315   5.566 -0.1483  0.1267  0.1494
    1DIPC   D3A11719  17.790  27.929   5.612  0.0260 -0.0195 -0.1941
    1DIPC   C4A11720  18.050  27.945   5.977  0.0418  0.1711 -0.2128
    1DIPC   C1B11721  17.326  28.987   6.077 -0.2127  0.1711  0.2062
    1DIPC   D2B11722  17.450  29.211   5.764  0.1005  0.3495  0.1048
    1DIPC   D3B11723  17.167  29.251   5.530 -0.2678 -0.5153  0.2018
    1DIPC   C4B11724  17.271  29.320   5.178  0.2068  0.1322  0.0486
    1DIPC   NC311725  25.130  17.887   6.214  0.1934 -0.2740 -0.1740
    1DIPC   PO411726  25.501  17.827   6.329  0.2405  0.0594  0.2544
    1DIPC   GL111727  25.513  18.023   5.867 -0.1545 -0.2943  0.3218
    1DIPC   GL211728  25.271  18.153   5.853 -0.1098 -0.0573  0.0537
    1DIPC   C1A11729  25.656  18.158   5.454 -0.2096  0.0765  0.0511
    1DIPC   D2A11730  25.429  18.246   5.069 -0.3541 -0.1651  0.0629
    1DIPC   D3A11731  25.036  18.373   4.865 -0.3793 -0.0721  0.0698
    1DIPC   C4A11732  24.961  18.543   4.535 -0.0917  0.2027 -0.1788
    1DIPC   C1B11733  25.084  18.078   5.548 -0.4281 -0.2061  0.1628
    1DIPC   D2B11734  24.749  18.218   5.249 -0.0772 -0.0750 -0.0805
    1DIPC   D3B11735  24.618  18.591   5.015  0.2136  0.0960  0.0863
    1DIPC   C4B11736  24.150  18.788   5.043  0.1766  0.0926  0.0484
    1DIPC   NC311737  16.683   1.708   7.285 -0.1707 -0.2279 -0.1336
    1DIPC   PO411738  16.832   1.714   6.913  0.1717  0.1358  0.3136
    1DIPC   GL111739  16.901   1.551   6.532 -0.0206 -0.2281 -0.3117
    1DIPC   GL211740  16.651   1.655   6.241  0.1850  0.0692 -0.0452
    1DIPC   C1A11741  17.041   1.353   6.110 -0.0722 -0.0174  0.0501
    1DIPC   D2A11742  17.433   1.210   5.884 -0.1353 -0.3487  0.0540
    1DIPC   D3A11743  17.127   1.391   5.569 -0.0560 -0.0634  0.2169
    1DIPC   C4A11744  17.421   1.243   5.234 -0.0550  0.2108  0.0252
    1DIPC   C1B11745  16.342   1.605   5.934  0.1707 -0.1687  0.3175
    1DIPC   D2B11746  15.966   1.695   5.913  0.1232  0.0114 -0.0803
    1DIPC   D3B11747  15.674   1.909   5.676 -0.0987  0.1477 -0.0312
    1DIPC   C4B11748  15.310   1.746   5.418 -0.3701 -0.3775 -0.1917
    1DIPC   NC311749  28.386  26.176   6.421  0.0956 -0.1974 -0.2222
    1DIPC   PO411750  28.216  26.541   6.466 -0.3179  0.2877  0.0729
    1DIPC   GL111751  28.099  26.615   6.099  0.1731  0.0165 -0.0831
    1DIPC   GL211752  28.271  26.815   5.752 -0.0656 -0.4743  0.2594
    1DIPC   C1A11753  27.797  26.529   5.846  0.0262 -0.0008 -0.1250
    1DIPC   D2A11754  27.464  26.223   5.787  0.1266  0.1677 -0.1419
    1DIPC   D3A11755  27.317  25.972   5.980 -0.0698 -0.1085  0.0486
    1DIPC   C4A11756  26.864  26.156   5.854 -0.3067 -0.0879  0.2453
    1DIPC   C1B11757  28.239  26.821   5.395  0.1005 -0.0972  0.4353
    1DIPC   D2B11758  28.208  27.032   5.004  0.4939 -0.0662 -0.0711
    1DIPC   D3B11759  28.059  27.257   4.602  0.0742 -0.1744 -0.0192
    1DIPC   C4B11760  27.769  27.534   4.762 -0.1568 -0.3450  0.4164
    1DIPC   NC311761   8.610   7.275   6.765  0.1397 -0.0311  0.0265
    1DIPC   PO411762   8.772   7.182   6.448 -0.0433  0.3150  0.1229
    1DIPC   GL111763   8.787   6.990   6.078 -0.1897  0.1312 -0.3411
    1DIPC   GL211764   8.527   7.104   5.924  0.1854  0.0145  0.2842
    1DIPC   C1A11765   8.845   6.870   5.645 -0.0015 -0.0734 -0.2349
    1DIPC   D2A11766   9.012   6.789   5.240  0.1999  0.0234  0.1752
    1DIPC   D3A11767   9.070   6.994   4.961  0.0491  0.0761  0.1092
    1DIPC   C4A11768   9.266   7.327   5.007  0.2136  0.2257 -0.0181
    1DIPC   C1B11769   8.352   6.937   5.432  0.0419 -0.2776 -0.0017
    1DIPC   D2B11770   8.013   6.840   5.107  0.1705  0.0768  0.4085
    1DIPC   D3B11771   8.187   6.492   5.113  0.0803  0.2293 -0.0142
    1DIPC   C4B11772   8.587   6.504   5.338 -0.3839 -0.1886 -0.0788
    1DIPC   NC311773  24.129  22.014   6.615  0.1208 -0.1743  0.2729
    1DIPC   PO411774  24.562  21.908   6.511 -0.1734 -0.1444  0.2387
    1DIPC   GL111775  24.653  21.922   6.098  0.3783 -0.2471  0.1180
    1DIPC   GL211776  24.359  22.065   6.072  0.4319 -0.2055 -0.1886
    1DIPC   C1A11777  24.557  21.706   5.808  0.1039 -0.0960  0.0008
    1DIPC   D2A11778  24.264  21.657   5.470  0.0916 -0.0094 -0.1099
    1DIPC   D3A11779  23.890  21.592   5.454  0.4527 -0.1477  0.1204
    1DIPC   C4A11780  23.790  21.281   5.165 -0.2612  0.2725  0.2090
    1DIPC   C1B11781  24.303  22.518   5.866 -0.1487 -0.2182  0.0408
    1DIPC   D2B11782  24.161  22.930   5.684  0.0099  0.0908 -0.2332
    1DIPC   D3B11783  23.888  22.922   5.293  0.2395  0.1066 -0.1378
    1DIPC   C4B11784  23.858  22.579   5.043  0.0219  0.1673 -0.3081
    1DIPC   NC311785   2.422  24.800   5.871 -0.3092  0.0785  0.0866
    1DIPC   PO411786   2.424  25.199   5.721 -0.3054 -0.0761 -0.3087
    1DIPC   GL111787   2.325  25.486   5.334  0.0218 -0.2174  0.0256
    1DIPC   GL211788   2.253  25.437   5.026 -0.2909 -0.1433  0.0600
    1DIPC   C1A11789   2.615  25.836   5.177 -0.1246 -0.0093 -0.0032
    1DIPC   D2A11790   2.893  26.195   4.995 -0.0326 -0.1654  0.0476
    1DIPC   D3A11791   2.692  25.989   4.593  0.2050  0.0976 -0.0597
    1DIPC   C4A11792   2.478  26.301   4.271  0.2580 -0.1583 -0.0881
    1DIPC   C1B11793   2.543  25.523   4.710 -0.1290  0.0695  0.4402
    1DIPC   D2B11794   2.976  25.529   4.827  0.1043  0.5399 -0.1292
    1DIPC   D3B11795   3.136  25.847   4.766 -0.1050  0.2694  0.2494
    1DIPC   C4B11796   3.127  26.217   4.525  0.3137 -0.0025 -0.2244
    1DIPC   NC311797   1.577  19.926   6.006  0.0815  0.1745 -0.0358
    1DIPC   PO411798   2.008  19.691   5.946  0.1641 -0.2895  0.1008
    1DIPC   GL111799   1.789  19.674   5.621 -0.0258  0.0989  0.1913
    1DIPC   GL211800   1.576  19.861   5.468  0.0575 -0.1968 -0.2184
    1DIPC   C1A11801   1.863  19.558   5.178 -0.1229 -0.1672 -0.0787
    1DIPC   D2A11802   1.792  19.381   4.825  0.4627  0.4079 -0.3161
    1DIPC   D3A11803   2.148  19.645   4.834  0.1114  0.2179  0.0711
    1DIPC   C4A11804   2.446  19.867   4.542  0.0554  0.1034 -0.0867
    1DIPC   C1B11805   1.418  19.705   5.065 -0.1306 -0.0068 -0.0850
    1DIPC   D2B11806   1.341  19.513   4.596 -0.2068 -0.1808  0.0454
    1DIPC   D3B11807   1.070  19.572   4.213 -0.3706  0.1928 -0.0722
    1DIPC   C4B11808   1.155  19.286   3.875  0.1747  0.2167  0.3153
    1DIPC   NC311809   0.078   3.925   6.590  0.1309 -0.1982 -0.2492
    1DIPC   PO411810  -0.250   4.174   6.680 -0.0969  0.1231  0.2047
    1DIPC   GL111811  -0.317   3.922   6.247  0.1321  0.4244  0.0194
    1DIPC   GL211812  -0.063   3.930   6.073  0.1182 -0.3065 -0.4766
    1DIPC   C1A11813  -0.632   3.647   6.000  0.4105 -0.0436  0.1345
    1DIPC   D2A11814  -1.084   3.662   5.898  0.0260  0.1784  0.2082
    1DIPC   D3A11815  -0.959   4.086   6.058 -0.1124  0.1544  0.0125
    1DIPC   C4A11816  -1.021   4.520   5.941  0.1617 -0.3952 -0.1534
    1DIPC   C1B11817  -0.152   3.730   5.727  0.0996 -0.0299 -0.1415
    1DIPC   D2B11818  -0.402   3.793   5.360 -0.2655  0.1434 -0.2093
    1DIPC   D3B11819  -0.242   3.957   4.949 -0.1881 -0.0360 -0.2728
    1DIPC   C4B11820   0.169   3.748   4.854  0.0019  0.0339  0.2635
    1DIPC   NC311821  27.870  19.658   6.541  0.1017 -0.1339  0.0674
    1DIPC   PO411822  28.074  19.313   6.662  0.1596 -0.2435 -0.1835
    1DIPC   GL111823  28.235  19.415   6.192 -0.2496 -0.1574  0.1734
    1DIPC   GL211824  27.833  19.340   6.124  0.2332  0.2742  0.2944
    1DIPC   C1A11825  28.511  19.277   5.823  0.0980 -0.1345 -0.0846
    1DIPC   D2A11826  28.649  19.414   5.270 -0.0349 -0.1138  0.2471
    1DIPC   D3A11827  28.888  19.682   5.026  0.3150  0.2344 -0.1450
    1DIPC   C4A11828  29.359  19.805   5.001  0.0972 -0.0529  0.2202
    1DIPC   C1B11829  27.927  19.555   5.854 -0.1900  0.0615  0.2441
    1DIPC   D2B11830  27.925  19.540   5.482  0.4166  0.2930  0.3125
    1DIPC   D3B11831  28.198  19.713   5.248 -0.0114  0.0391 -0.0188
    1DIPC   C4B11832  28.216  20.272   5.082  0.0449 -0.1877 -0.0038
    1DIPC   NC311833  27.398  29.173   6.759 -0.1604  0.1451  0.1431
    1DIPC   PO411834  27.042  29.051   6.410  0.0442 -0.0750 -0.2225
    1DIPC   GL111835  26.875  28.874   6.057  0.0944  0.2484  0.1948
    1DIPC   GL211836  26.621  28.676   6.203 -0.1983  0.1612  0.2941
    1DIPC   C1A11837  26.503  28.930   5.763 -0.3467 -0.2588  0.0867
    1DIPC   D2A11838  26.177  29.044   5.409 -0.2875  0.1694 -0.0386
    1DIPC   D3A11839  25.984  29.462   5.334 -0.2288 -0.1016  0.3751
    1DIPC   C4A11840  26.018  29.846   5.608  0.0990 -0.0237  0.1167
    1DIPC   C1B11841  26.524  28.435   5.886  0.1382  0.1248 -0.2157
    1DIPC   D2B11842  26.507  28.124   5.668  0.3615 -0.2637 -0.1872
    1DIPC   D3B11843  26.890  27.960   5.521  0.0563  0.1545 -0.3550
    1DIPC   C4B11844  26.965  28.024   5.025  0.1942  0.0044 -0.0139
    1DIPC   NC311845  14.884   5.749   6.479  0.3779  0.0379 -0.0339
    1DIPC   PO411846  14.686   5.511   6.622 -0.2706 -0.0664 -0.3740
    1DIPC   GL111847  14.479   5.338   6.344 -0.1695  0.1711  0.1739
    1DIPC   GL211848  14.643   5.122   6.106  0.1999  0.1017  0.0141
    1DIPC   C1A11849  14.127   5.400   6.153 -0.0544 -0.1009  0.4709
    1DIPC   D2A11850  13.793   5.248   6.032 -0.2934  0.2023  0.0128
    1DIPC   D3A11851  13.747   5.561   5.606 -0.1105 -0.1012 -0.2018
    1DIPC   C4A11852  13.441   5.886   5.700 -0.2235  0.1084  0.5652
    1DIPC   C1B11853  14.880   5.187   5.848  0.1505 -0.3693 -0.2634
    1DIPC   D2B11854  15.320   4.998   5.765 -0.1315  0.0464  0.1426
    1DIPC   D3B11855  15.457   4.845   5.364  0.1812  0.1513  0.2656
    1DIPC   C4B11856  15.698   5.152   4.996  0.0043 -0.0465 -0.0148
    1DIPC   NC311857   3.251  19.239   6.155  0.2886 -0.0331  0.0378
    1DIPC   PO411858   2.979  18.867   6.157  0.1473  0.5239  0.0847
    1DIPC   GL111859   2.879  18.781   5.665 -0.6058  0.0240  0.1619
    1DIPC   GL211860   2.557  18.973   5.417  0.0517  0.1986 -0.0718
    1DIPC   C1A11861   2.707  18.452   5.395 -0.0083 -0.2472  0.0194
    1DIPC   D2A11862   2.899  17.978   5.391  0.2271 -0.0452 -0.0516
    1DIPC   D3A11863   2.631  17.658   5.208 -0.1540 -0.0975  0.2424
    1DIPC   C4A11864   2.596  17.499   4.781 -0.2445 -0.1241 -0.0255
    1DIPC   C1B11865   2.687  18.905   5.017 -0.1009 -0.1503 -0.0389
    1DIPC   D2B11866   2.865  19.083   4.695 -0.3641 -0.2016 -0.2070
    1DIPC   D3B11867   2.898  18.737   4.332  0.1195 -0.3054 -0.1260
    1DIPC   C4B11868   3.219  18.841   4.032  0.0096 -0.3510 -0.0996
    1DIPC   NC311869  29.893   0.471   6.223  0.2180 -0.2478 -0.0453
    1DIPC   PO411870  30.285   0.539   6.381  0.1492  0.1145  0.0281
    1DIPC   GL111871  30.589   0.739   5.974 -0.0951  0.0377 -0.4462
    1DIPC   GL211872  30.752   0.914   6.017  0.2428 -0.3353 -0.2098
    1DIPC   C1A11873  30.356   0.667   5.645  0.1202 -0.0380  0.0156
    1DIPC   D2A11874  30.325   0.601   5.124  0.0660 -0.0069  0.3291
    1DIPC   D3A11875  30.519   0.309   4.851 -0.1862 -0.1130 -0.3639
    1DIPC   C4A11876  30.797  -0.018   4.934 -0.0714  0.0947 -0.1170
    1DIPC   C1B11877  30.811   1.009   5.595 -0.1223  0.1945  0.1543
    1DIPC   D2B11878  30.694   1.230   5.287 -0.0027 -0.5820 -0.3495
    1DIPC   D3B11879  30.807   1.105   4.868 -0.2141 -0.0908  0.1642
    1DIPC   C4B11880  30.700   0.736   4.634 -0.0209  0.2916 -0.1276
    1DIPC   NC311881  28.900   1.522   6.596  0.1224  0.1226 -0.1545
    1DIPC   PO411882  29.225   1.667   6.370 -0.1427 -0.1061 -0.1405
    1DIPC   GL111883  29.054   1.590   5.946  0.0032  0.0889 -0.0293
    1DIPC   GL211884  29.325   1.681   5.795  0.3406 -0.0732 -0.1872
    1DIPC   C1A11885  28.712   1.606   5.539 -0.3610  0.1592  0.2566
    1DIPC   D2A11886  28.443   1.890   5.282 -0.0798 -0.1838  0.1906
    1DIPC   D3A11887  28.676   2.202   4.927  0.1207 -0.1374 -0.4698
    1DIPC   C4A11888  28.759   2.056   4.526 -0.2169  0.0126 -0.3209
    1DIPC   C1B11889  29.399   1.660   5.358 -0.4060  0.1620  0.1077
    1DIPC   D2B11890  29.187   1.419   5.006  0.0367  0.5769 -0.0360
    1DIPC   D3B11891  29.021   1.209   4.650 -0.0282 -0.1220 -0.0191
    1DIPC   C4B11892  28.576   1.043   4.591 -0.0951  0.3032  0.1383
    1DIPC   NC311893  29.434  26.989   6.089 -0.0935 -0.2361 -0.1406
    1DIPC   PO411894  29.898  27.038   6.055 -0.1642 -0.0161 -0.3064
    1DIPC   GL111895  29.862  27.392   5.948 -0.3996  0.2877 -0.1456
    1DIPC   GL211896  30.007  27.409   5.698 -0.0208  0.0324  0.0261
    1DIPC   C1A11897  29.740  27.764   5.876  0.0647  0.1793  0.0738
    1DIPC   D2A11898  29.524  28.172   5.793  0.1399 -0.0757  0.1196
    1DIPC   D3A11899  29.578  28.049   5.379  0.1261 -0.0741 -0.0408
    1DIPC   C4A11900  29.532  28.296   5.055  0.2754 -0.0063  0.2467
    1DIPC   C1B11901  29.695  27.361   5.304 -0.2689  0.1870  0.1446
    1DIPC   D2B11902  29.807  27.243   4.861  0.1932 -0.0331  0.2221
    1DIPC   D3B11903  29.616  27.379   4.535  0.1801  0.1360  0.0263
    1DIPC   C4B11904  29.341  27.100   4.429  0.0094  0.0292  0.3085
    1DIPC   NC311905   7.822   7.190   7.068  0.1901  0.1459  0.3056
    1DIPC   PO411906   8.222   7.419   7.108 -0.0718 -0.1435  0.0450
    1DIPC   GL111907   8.095   7.520   6.669  0.1618  0.0162 -0.0138
    1DIPC   GL211908   7.797   7.651   6.666  0.1899 -0.0832 -0.0346
    1DIPC   C1A11909   8.124   7.752   6.259  0.0679  0.1283  0.0242
    1DIPC   D2A11910   7.817   7.987   6.000  0.2304  0.2691 -0.1688
    1DIPC   D3A11911   7.752   7.648   5.707  0.1883  0.2755 -0.1886
    1DIPC   C4A11912   7.774   7.793   5.276 -0.0453  0.0139 -0.2005
    1DIPC   C1B11913   7.538   7.745   6.332  0.0922 -0.2562  0.4509
    1DIPC   D2B11914   7.311   7.816   5.965  0.0098 -0.0248 -0.0526
    1DIPC   D3B11915   7.396   7.982   5.546  0.1452  0.3931 -0.0635
    1DIPC   C4B11916   7.259   8.197   5.186  0.1944 -0.0857  0.3200
    1DIPC   NC311917   2.698   2.871   6.634  0.2490 -0.2220  0.0755
    1DIPC   PO411918   3.121   2.854   6.588  0.3210 -0.0001  0.0738
    1DIPC   GL111919   3.335   2.957   6.180 -0.1938 -0.0724 -0.1529
    1DIPC   GL211920   3.288   2.578   6.210  0.2112  0.0202 -0.1288
    1DIPC   C1A11921   3.645   3.085   5.801 -0.2208 -0.0201  0.1160
    1DIPC   D2A11922   3.849   3.415   5.599  0.3233 -0.2079 -0.0518
    1DIPC   D3A11923   4.160   3.247   5.374  0.3293 -0.4817 -0.3543
    1DIPC   C4A11924   4.448   3.020   5.530  0.0975 -0.1228  0.3253
    1DIPC   C1B11925   3.460   2.165   6.088  0.1746  0.2069  0.2194
    1DIPC   D2B11926   3.419   1.843   5.878 -0.1612  0.1217 -0.0014
    1DIPC   D3B11927   3.405   2.112   5.574 -0.1931 -0.0263 -0.0690
    1DIPC   C4B11928   3.512   2.547   5.656 -0.1597  0.0397  0.5324
    1DIPC   NC311929  29.715   7.553   6.484  0.2666 -0.0929  0.4248
    1DIPC   PO411930  29.724   7.153   6.657 -0.0741 -0.0393 -0.1142
    1DIPC   GL111931  29.845   7.069   6.250 -0.0466 -0.0497 -0.0367
    1DIPC   GL211932  30.082   7.137   6.033 -0.0760  0.1402 -0.1396
    1DIPC   C1A11933  29.748   6.954   5.754  0.0372 -0.0680  0.0815
    1DIPC   D2A11934  29.634   6.985   5.362 -0.0829 -0.3226 -0.0987
    1DIPC   D3A11935  29.854   6.912   5.016 -0.0761 -0.0432  0.1315
    1DIPC   C4A11936  30.257   6.973   4.924  0.1372  0.0254 -0.0461
    1DIPC   C1B11937  30.163   7.221   5.621  0.1830 -0.0100  0.0586
    1DIPC   D2B11938  30.509   7.153   5.296 -0.0437 -0.0573  0.2985
    1DIPC   D3B11939  30.581   7.365   4.855 -0.1401  0.3005  0.1452
    1DIPC   C4B11940  30.545   7.091   4.431  0.2330  0.0744  0.1908
    1DIPC   NC311941  17.773   0.927   6.725 -0.0117 -0.0058 -0.0012
    1DIPC   PO411942  17.894   0.578   6.553 -0.2914  0.1150 -0.0550
    1DIPC   GL111943  17.445   0.563   6.336 -0.2792 -0.0756  0.0602
    1DIPC   GL211944  17.230   0.255   6.289 -0.2824 -0.2341  0.1195
    1DIPC   C1A11945  17.383   0.584   5.847  0.1056  0.3149 -0.1460
    1DIPC   D2A11946  17.117   0.512   5.443 -0.0883 -0.0417  0.1051
    1DIPC   D3A11947  17.384   0.306   5.210 -0.2343 -0.2129  0.1885
    1DIPC   C4A11948  17.691   0.425   4.897 -0.1124 -0.0964 -0.1282
    1DIPC   C1B11949  17.238   0.128   5.794  0.0131 -0.0565 -0.0138
    1DIPC   D2B11950  17.298  -0.121   5.391 -0.1168  0.0143 -0.0696
    1DIPC   D3B11951  16.931  -0.114   5.416 -0.2754  0.1518  0.3690
    1DIPC   C4B11952  16.650  -0.311   5.178 -0.0565 -0.0395 -0.0787
    1DIPC   NC311953   0.542   5.236   6.373  0.0572 -0.2987 -0.1495
    1DIPC   PO411954   0.235   5.396   6.622  0.2460 -0.0461 -0.2376
    1DIPC   GL111955   0.049   5.276   6.230 -0.2618 -0.2841  0.2500
    1DIPC   GL211956  -0.132   5.087   6.214 -0.0445  0.0892 -0.2403
    1DIPC   C1A11957   0.293   5.621   5.892 -0.3355 -0.1049  0.0954
    1DIPC   D2A11958   0.643   5.773   5.825 -0.4743 -0.0558  0.1946
    1DIPC   D3A11959   0.839   5.381   5.709  0.1792  0.0676  0.1851
    1DIPC   C4A11960   0.780   5.334   5.231 -0.3481  0.1864 -0.0134
    1DIPC   C1B11961  -0.186   5.006   5.831  0.0451  0.2747 -0.0543
    1DIPC   D2B11962  -0.054   4.961   5.392 -0.4493 -0.0907 -0.0482
    1DIPC   D3B11963  -0.100   4.969   5.002 -0.2418 -0.3447 -0.0809
    1DIPC   C4B11964  -0.270   5.437   5.044  0.0653  0.2044  0.0935
    1DIPC   NC311965  21.455   4.753   6.502 -0.3153  0.0700 -0.2608
    1DIPC   PO411966  21.070   4.747   6.806  0.3058  0.2012 -0.1451
    1DIPC   GL111967  20.963   4.630   6.364 -0.0303 -0.2333 -0.0618
    1DIPC   GL211968  21.157   4.909   6.157 -0.0926 -0.0936  0.1737
    1DIPC   C1A11969  20.842   4.378   6.010  0.1373  0.0475 -0.3378
    1DIPC   D2A11970  21.042   4.006   5.997  0.2458  0.1155  0.0383
    1DIPC   D3A11971  21.047   3.897   5.540 -0.1722 -0.1311  0.1292
    1DIPC   C4A11972  20.771   4.400   5.458 -0.1841  0.1892  0.1950
    1DIPC   C1B11973  20.855   5.244   6.076 -0.1260 -0.1366 -0.0011
    1DIPC   D2B11974  20.685   5.646   6.026  0.1597 -0.2852 -0.1616
    1DIPC   D3B11975  20.794   5.531   5.613  0.2098 -0.1830  0.1871
    1DIPC   C4B11976  21.071   5.227   5.597 -0.2192 -0.2035  0.1506
    1DIPC   NC311977  23.980  19.151   7.031 -0.0749 -0.1105  0.1478
    1DIPC   PO411978  24.146  18.935   6.776  0.1147 -0.0247 -0.0059
    1DIPC   GL111979  24.036  19.004   6.460  0.0565  0.0260  0.1814
    1DIPC   GL211980  23.857  18.790   6.328 -0.0898 -0.0294 -0.2839
    1DIPC   C1A11981  24.130  19.066   5.991 -0.1843 -0.3269  0.1589
    1DIPC   D2A11982  24.170  19.047   5.560 -0.1849  0.0969 -0.1430
    1DIPC   D3A11983  23.899  19.265   5.542  0.2952  0.1640 -0.1315
    1DIPC   C4A11984  23.542  19.235   5.222 -0.1100 -0.3259  0.1894
    1DIPC   C1B11985  23.685  18.866   5.820 -0.2494 -0.1237  0.0222
    1DIPC   D2B11986  23.734  18.817   5.402  0.0600 -0.1395 -0.0493
    1DIPC   D3B11987  23.783  18.377   5.382  0.0985  0.2007 -0.2287
    1DIPC   C4B11988  24.109  18.151   5.035 -0.3444  0.1422 -0.0351
    1DIPC   NC311989  13.951  23.904   6.730  0.0070 -0.0048  0.1941
    1DIPC   PO411990  13.819  23.989   6.299 -0.1463 -0.2635 -0.1936
    1DIPC   GL111991  14.095  24.022   5.931 -0.0510 -0.2260 -0.2961
    1DIPC   GL211992  14.071  23.769   5.687 -0.0053  0.1208 -0.0152
    1DIPC   C1A11993  14.371  24.247   5.732 -0.3806  0.0988  0.1432
    1DIPC   D2A11994  14.223  24.584   5.424  0.0318 -0.1880  0.2251
    1DIPC   D3A11995  14.362  24.288   5.153  0.0026  0.1486  0.0809
    1DIPC   C4A11996  14.128  23.930   4.992  0.0396 -0.2263 -0.2287
    1DIPC   C1B11997  13.964  23.539   5.246  0.2201  0.0852  0.1734
    1DIPC   D2B11998  13.735  23.337   4.961  0.1059  0.2239  0.0080
    1DIPC   D3B11999  13.920  23.557   4.704 -0.2888  0.0762 -0.0837
    1DIPC   C4B12000  13.744  23.850   4.496  0.1130 -0.3409 -0.0171
    1DIPC   NC312001  24.972   0.267   6.898  0.0981  0.0336  0.1022
    1DIPC   PO412002  25.001   0.572   7.174 -0.1225  0.0177 -0.1891
    1DIPC   GL112003  25.102   0.704   6.643 -0.0679  0.0908  0.1499
    1DIPC   GL212004  24.943   0.599   6.282  0.1232  0.2387 -0.1183
    1DIPC   C1A12005  25.201   1.056   6.359 -0.0112  0.0025  0.0285
    1DIPC   D2A12006  25.206   1.272   6.018  0.1469  0.1294 -0.0475
    1DIPC   D3A12007  25.063   1.208   5.606 -0.0301  0.1544 -0.3168
    1DIPC   C4A12008  25.075   1.503   5.280 -0.1969  0.1018 -0.1550
    1DIPC   C1B12009  25.114   0.782   5.904  0.2222  0.5278  0.2741
    1DIPC   D2B12010  25.481   0.947   5.692  0.0358  0.0359 -0.2463
    1DIPC   D3B12011  25.647   0.772   5.340  0.3511 -0.2598 -0.1797
    1DIPC   C4B12012  25.338   0.574   5.207  0.2161 -0.1246  0.2376
    1DIPC   NC312013   6.069  28.398   6.773 -0.0994 -0.2694 -0.0972
    1DIPC   PO412014   6.461  28.439   6.556  0.4000 -0.2104 -0.0973
    1DIPC   GL112015   6.522  28.500   6.068  0.3935 -0.0481 -0.0592
    1DIPC   GL212016   6.349  28.675   5.862  0.6530 -0.2689  0.1477
    1DIPC   C1A12017   6.840  28.405   5.858  0.1124 -0.0725  0.3428
    1DIPC   D2A12018   6.889  28.070   5.630 -0.3197  0.0046 -0.3448
    1DIPC   D3A12019   6.878  28.075   5.209  0.0456  0.4621  0.0140
    1DIPC   C4A12020   6.988  27.773   4.931  0.1917  0.1935  0.0930
    1DIPC   C1B12021   6.444  28.451   5.516 -0.1654  0.2273 -0.0973
    1DIPC   D2B12022   6.392  28.046   5.412  0.2180 -0.1554 -0.0259
    1DIPC   D3B12023   6.071  28.080   5.671 -0.1327  0.0900  0.1282
    1DIPC   C4B12024   5.870  28.554   5.690  0.6717  0.0504 -0.0451
    1DIPC   NC312025  18.605   2.955   6.652  0.2049 -0.0714 -0.1400
    1DIPC   PO412026  18.307   3.241   6.453 -0.0550 -0.0378  0.2101
    1DIPC   GL112027  18.443   3.072   6.104  0.0897  0.3429 -0.1239
    1DIPC   GL212028  18.458   3.289   5.856 -0.1484 -0.0133 -0.0104
    1DIPC   C1A12029  18.214   2.874   5.773 -0.0861 -0.3245  0.1013
    1DIPC   D2A12030  18.065   2.650   5.377 -0.0438 -0.1751  0.0908
    1DIPC   D3A12031  17.721   3.037   5.254  0.0337 -0.1320 -0.1807
    1DIPC   C4A12032  17.918   3.469   5.196  0.1674  0.0869 -0.3097
    1DIPC   C1B12033  18.468   3.133   5.461  0.0266  0.1873 -0.1349
    1DIPC   D2B12034  18.549   3.213   5.048 -0.1257 -0.2804 -0.0634
    1DIPC   D3B12035  18.120   3.036   4.939 -0.0052  0.1294 -0.0990
    1DIPC   C4B12036  17.721   3.016   4.769  0.2378  0.0903 -0.2607
    1DIPC   NC312037  18.606   5.715   6.132 -0.4136 -0.1857  0.0356
    1DIPC   PO412038  18.267   5.714   6.247  0.2639  0.1531  0.2620
    1DIPC   GL112039  18.204   5.900   5.888  0.0270 -0.1116  0.3342
    1DIPC   GL212040  18.247   5.601   5.697 -0.3654  0.0898  0.1422
    1DIPC   C1A12041  17.931   6.272   5.541 -0.1584 -0.0850  0.1030
    1DIPC   D2A12042  17.976   6.560   5.249 -0.0695  0.0023 -0.0359
    1DIPC   D3A12043  17.936   6.522   4.839 -0.0355  0.0362 -0.2067
    1DIPC   C4A12044  17.542   6.525   4.545 -0.1601  0.0374  0.3268
    1DIPC   C1B12045  18.155   5.828   5.423 -0.0816 -0.3935 -0.1656
    1DIPC   D2B12046  18.020   6.101   5.091  0.2402  0.1281  0.3248
    1DIPC   D3B12047  17.948   6.058   4.681  0.2856 -0.1017  0.2520
    1DIPC   C4B12048  17.483   6.040   4.699 -0.2408  0.2097  0.0014
    1DIPC   NC312049  11.406   3.082   7.165  0.1399 -0.0950 -0.0815
    1DIPC   PO412050  11.771   2.951   7.096 -0.0362  0.0185 -0.3557
    1DIPC   GL112051  11.413   2.649   6.815  0.1819  0.0697  0.1112
    1DIPC   GL212052  11.212   2.953   6.740  0.3049  0.2227  0.2882
    1DIPC   C1A12053  11.245   2.662   6.364  0.0587 -0.1350 -0.0486
    1DIPC   D2A12054  11.248   2.719   5.956  0.1719 -0.0457 -0.0187
    1DIPC   D3A12055  11.131   3.117   5.731 -0.0920  0.3522  0.3026
    1DIPC   C4A12056  11.467   3.229   5.386 -0.2640 -0.0114 -0.0719
    1DIPC   C1B12057  10.886   2.682   6.657  0.1083 -0.1263 -0.1066
    1DIPC   D2B12058  10.479   2.472   6.607 -0.1388 -0.0450 -0.1871
    1DIPC   D3B12059  10.357   2.203   6.283  0.0402  0.0783 -0.0946
    1DIPC   C4B12060  10.224   2.393   5.917  0.3710 -0.0038 -0.3317
    1DIPC   NC312061  19.164  26.757   6.727  0.0118  0.1025 -0.3177
    1DIPC   PO412062  19.021  27.059   6.934  0.0199  0.2424 -0.1558
    1DIPC   GL112063  18.932  27.220   6.551 -0.2651  0.1381  0.0169
    1DIPC   GL212064  19.197  27.416   6.392 -0.2504  0.3220  0.1611
    1DIPC   C1A12065  18.738  27.223   6.051 -0.0546 -0.2431 -0.2992
    1DIPC   D2A12066  18.480  27.130   5.735 -0.4308  0.0008 -0.1920
    1DIPC   D3A12067  18.441  27.200   5.354 -0.4574  0.1570 -0.1556
    1DIPC   C4A12068  18.023  27.164   5.157  0.0825 -0.3923  0.0357
    1DIPC   C1B12069  19.391  27.273   6.048 -0.3353  0.3450 -0.0297
    1DIPC   D2B12070  19.675  27.225   5.642 -0.1447 -0.3731  0.0143
    1DIPC   D3B12071  19.399  27.399   5.354  0.0820 -0.1553 -0.2553
    1DIPC   C4B12072  19.451  27.654   4.944 -0.3326 -0.2150  0.0564
    1DIPC   NC312073   3.764  18.084   5.698 -0.3530 -0.1967 -0.0349
    1DIPC   PO412074   3.409  17.970   5.599 -0.0147  0.1755 -0.1648
    1DIPC   GL112075   3.674  17.903   5.281  0.0535  0.0892 -0.3148
    1DIPC   GL212076   3.342  17.804   5.149  0.2545  0.0428 -0.1550
    1DIPC   C1A12077   3.606  17.846   4.704 -0.0696 -0.3734 -0.0446
    1DIPC   D2A12078   3.767  18.032   4.349  0.1003  0.4155 -0.1299
    1DIPC   D3A12079   3.648  18.486   4.214 -0.1786 -0.4189  0.0913
    1DIPC   C4A12080   3.562  18.549   3.824 -0.1616  0.2164  0.0387
    1DIPC   C1B12081   3.213  18.089   4.804 -0.3354  0.0960 -0.0817
    1DIPC   D2B12082   3.315  18.270   4.473  0.1880 -0.1011  0.1447
    1DIPC   D3B12083   3.255  17.835   4.330  0.0390 -0.2090 -0.2132
    1DIPC   C4B12084   2.900  17.524   4.357 -0.1142 -0.0578 -0.0547
    1DIPC   NC312085   4.425  18.214   5.580 -0.0220 -0.0823 -0.0936
    1DIPC   PO412086   4.270  17.815   5.717  0.1005  0.1183  0.2744
    1DIPC   GL112087   4.593  17.723   5.380 -0.0418  0.0761 -0.3178
    1DIPC   GL212088   4.763  17.899   5.403 -0.2814  0.0509 -0.0918
    1DIPC   C1A12089   4.737  17.601   4.851 -0.1872  0.2569  0.2008
    1DIPC   D2A12090   4.784  17.263   4.442 -0.1641 -0.0312 -0.2885
    1DIPC   D3A12091   5.201  17.174   4.345 -0.1731 -0.1055 -0.1709
    1DIPC   C4A12092   5.423  17.291   4.740  0.1243  0.1010 -0.0796
    1DIPC   C1B12093   4.750  18.078   5.001 -0.0128 -0.0243  0.3049
    1DIPC   D2B12094   4.868  18.033   4.547 -0.0676  0.0497  0.0539
    1DIPC   D3B12095   4.893  17.705   4.321 -0.0752 -0.1620 -0.1282
    1DIPC   C4B12096   4.489  17.466   4.038 -0.1745  0.0321  0.1298
    1DIPC   NC312097  25.068   8.214   6.797  0.0076 -0.4135 -0.3290
    1DIPC   PO412098  25.569   8.189   6.779 -0.1203 -0.4860 -0.0072
    1DIPC   GL112099  25.727   8.384   6.297 -0.2330  0.2414 -0.1168
    1DIPC   GL212100  25.445   8.210   6.277 -0.1040 -0.0784  0.1096
    1DIPC   C1A12101  25.811   8.427   5.813  0.1713 -0.0729  0.1568
    1DIPC   D2A12102  25.451   8.468   5.505 -0.0958  0.3702  0.1265
    1DIPC   D3A12103  25.416   8.816   5.168 -0.0492 -0.0687 -0.0269
    1DIPC   C4A12104  25.367   8.628   4.711  0.0513  0.1641  0.0611
    1DIPC   C1B12105  25.182   8.487   5.889 -0.1247  0.0401 -0.0933
    1DIPC   D2B12106  24.914   8.456   5.512 -0.0734  0.0836 -0.0640
    1DIPC   D3B12107  24.962   8.636   5.026  0.3743 -0.3217  0.0686
    1DIPC   C4B12108  24.650   8.435   4.686  0.0070 -0.0317  0.1368
    1DIPC   NC312109  21.619  26.200   7.000 -0.1476  0.2322  0.0823
    1DIPC   PO412110  21.400  26.515   6.885 -0.1192 -0.0678  0.1755
    1DIPC   GL112111  21.205  26.300   6.448  0.0495 -0.0939 -0.0446
    1DIPC   GL212112  21.430  26.025   6.387 -0.0444  0.4029  0.1329
    1DIPC   C1A12113  21.132  26.245   5.955  0.0262 -0.1453  0.0257
    1DIPC   D2A12114  20.998  26.600   5.706 -0.4641  0.1158 -0.0269
    1DIPC   D3A12115  21.114  27.022   5.727  0.0401 -0.1436  0.1787
    1DIPC   C4A12116  21.043  27.239   5.336  0.1509  0.1635 -0.1168
    1DIPC   C1B12117  21.725  26.146   6.074  0.1424 -0.1904  0.2015
    1DIPC   D2B12118  21.540  26.143   5.711  0.3559  0.0688  0.0244
    1DIPC   D3B12119  21.458  25.854   5.370  0.2088  0.0897 -0.2197
    1DIPC   C4B12120  21.451  25.431   5.177  0.2503 -0.1532 -0.2330
    1DIPC   NC312121   3.356  21.199   6.305  0.0468 -0.1011  0.3913
    1DIPC   PO412122   3.070  21.554   6.082 -0.1781  0.0003  0.0742
    1DIPC   GL112123   3.099  21.614   5.565  0.0545  0.4656 -0.2329
    1DIPC   GL212124   3.008  21.943   5.556  0.2134  0.1337 -0.0948
    1DIPC   C1A12125   3.171  21.597   5.162  0.0170  0.3940 -0.0828
    1DIPC   D2A12126   3.048  21.525   4.766 -0.2850 -0.1462 -0.1002
    1DIPC   D3A12127   2.825  21.605   4.496  0.1441  0.1401 -0.0689
    1DIPC   C4A12128   2.468  21.356   4.297 -0.2901 -0.1778  0.5316
    1DIPC   C1B12129   2.708  21.872   5.258 -0.0596  0.1384  0.0059
    1DIPC   D2B12130   2.709  21.965   4.765  0.1624  0.1406 -0.1003
    1DIPC   D3B12131   2.416  21.647   4.766  0.1298  0.1430  0.0461
    1DIPC   C4B12132   2.222  21.302   4.688  0.0722  0.0334 -0.1628
    1DIPC   NC312133  12.645  28.484   6.952 -0.2392  0.1021  0.0118
    1DIPC   PO412134  12.310  28.053   6.994 -0.2401  0.1847 -0.0254
    1DIPC   GL112135  12.590  28.077   6.638 -0.0342  0.0219 -0.0186
    1DIPC   GL212136  12.478  27.794   6.474  0.0233  0.4540 -0.1134
    1DIPC   C1A12137  12.717  28.175   6.323 -0.0752  0.0256 -0.0496
    1DIPC   D2A12138  12.604  28.275   5.879 -0.0995  0.3498 -0.0708
    1DIPC   D3A12139  12.270  28.539   6.141 -0.2752  0.1216  0.1193
    1DIPC   C4A12140  11.967  28.784   6.327 -0.1297  0.1549  0.0788
    1DIPC   C1B12141  12.180  28.024   6.376  0.2168 -0.1011  0.0307
    1DIPC   D2B12142  11.765  27.907   6.248  0.0346 -0.0497  0.3380
    1DIPC   D3B12143  12.112  28.093   5.909 -0.0460  0.0647  0.2823
    1DIPC   C4B12144  11.821  28.387   5.596 -0.3287  0.1422 -0.2042
    1DIPC   NC312145   0.140   4.417   6.451  0.2837 -0.3812 -0.1911
    1DIPC   PO412146   0.221   4.802   6.381  0.0144  0.2835 -0.2379
    1DIPC   GL112147   0.357   4.867   5.978  0.1809  0.3913  0.2014
    1DIPC   GL212148   0.456   5.168   5.885  0.1270  0.3292  0.0869
    1DIPC   C1A12149   0.273   4.751   5.735 -0.0188  0.2545  0.0666
    1DIPC   D2A12150   0.428   4.452   5.450 -0.2344 -0.1049 -0.1180
    1DIPC   D3A12151   0.304   4.738   5.125 -0.1222 -0.1219  0.2718
    1DIPC   C4A12152   0.463   4.688   4.648 -0.0999  0.1286 -0.0153
    1DIPC   C1B12153   0.360   5.225   5.528  0.0770  0.2921  0.1352
    1DIPC   D2B12154   0.284   5.334   5.095  0.0860  0.1521  0.0211
    1DIPC   D3B12155   0.469   5.705   5.363 -0.0944  0.0158  0.2421
    1DIPC   C4B12156   0.517   5.949   5.013  0.0576  0.3055  0.0866
    1DIPC   NC312157  24.694  12.354   5.980  0.2422  0.3065  0.1897
    1DIPC   PO412158  25.131  12.427   5.863 -0.2368 -0.1951  0.0418
    1DIPC   GL112159  25.289  12.670   5.585  0.0922 -0.1391  0.1250
    1DIPC   GL212160  24.938  12.931   5.602 -0.1636  0.1262  0.0011
    1DIPC   C1A12161  25.291  12.794   5.209  0.1013  0.1864 -0.0354
    1DIPC   D2A12162  25.658  12.662   4.999  0.0437  0.0223 -0.2233
    1DIPC   D3A12163  25.929  12.894   4.765  0.0865 -0.3019 -0.0060
    1DIPC   C4A12164  26.336  13.108   4.753  0.4431  0.1833 -0.2040
    1DIPC   C1B12165  24.819  12.677   5.323  0.2228 -0.1079 -0.1015
    1DIPC   D2B12166  24.922  12.324   5.357  0.1277 -0.1768 -0.2889
    1DIPC   D3B12167  24.506  12.204   5.487  0.1053 -0.1478 -0.0505
    1DIPC   C4B12168  24.229  12.527   5.264 -0.1663  0.1133 -0.0850
    1DIPC   NC312169  12.743   2.277   7.291 -0.0370  0.0014  0.0838
    1DIPC   PO412170  12.629   1.832   7.189 -0.0696 -0.0856  0.1723
    1DIPC   GL112171  12.508   1.968   6.755 -0.0561 -0.2557  0.2715
    1DIPC   GL212172  12.535   2.312   6.810  0.0866 -0.1233  0.1379
    1DIPC   C1A12173  12.587   1.950   6.372  0.0415 -0.0561  0.0485
    1DIPC   D2A12174  12.412   1.710   5.883 -0.2455 -0.1904 -0.2227
    1DIPC   D3A12175  12.685   1.405   5.792 -0.3961 -0.1128  0.0811
    1DIPC   C4A12176  12.652   1.127   5.448 -0.3247 -0.0474 -0.2275
    1DIPC   C1B12177  12.761   2.437   6.518  0.1425 -0.0032 -0.1248
    1DIPC   D2B12178  13.007   2.196   6.326 -0.2182 -0.1680 -0.1872
    1DIPC   D3B12179  12.855   2.030   5.941 -0.0275  0.3678  0.1077
    1DIPC   C4B12180  12.980   1.965   5.585  0.1940 -0.3323  0.1054
    1DIPC   NC312181   0.539  16.955   6.309 -0.0607 -0.0076  0.1240
    1DIPC   PO412182   0.179  17.129   6.360  0.4288 -0.0336  0.2637
    1DIPC   GL112183   0.222  17.214   5.944  0.0064 -0.3355 -0.2035
    1DIPC   GL212184   0.449  17.155   5.804  0.1821  0.0152 -0.0687
    1DIPC   C1A12185  -0.082  17.149   5.675 -0.0468 -0.1658  0.1290
    1DIPC   D2A12186  -0.335  17.184   5.331  0.1715  0.0983 -0.0404
    1DIPC   D3A12187  -0.322  17.077   4.855  0.2458  0.1050 -0.1317
    1DIPC   C4A12188  -0.185  17.426   4.672 -0.0190  0.1453 -0.0070
    1DIPC   C1B12189   0.345  17.259   5.437  0.3592 -0.2300  0.4195
    1DIPC   D2B12190   0.402  17.656   5.249  0.0063 -0.0847 -0.2556
    1DIPC   D3B12191   0.314  17.864   4.845 -0.0905 -0.1007  0.0247
    1DIPC   C4B12192   0.336  17.631   4.469 -0.2506  0.2111  0.2740
    1DIPC   NC312193   6.992  10.006   6.989  0.2042  0.0716 -0.2817
    1DIPC   PO412194   6.678   9.940   6.863 -0.0007  0.1205  0.0076
    1DIPC   GL112195   6.536   9.779   6.399  0.0433 -0.0510  0.1592
    1DIPC   GL212196   6.576   9.974   6.241  0.4476  0.1782  0.2516
    1DIPC   C1A12197   6.178   9.708   6.031  0.1809  0.0074  0.1059
    1DIPC   D2A12198   5.784   9.987   5.936  0.1457  0.1858 -0.0929
    1DIPC   D3A12199   5.580   9.637   6.104 -0.0470 -0.1264 -0.1154
    1DIPC   C4A12200   5.820   9.329   6.101 -0.0671 -0.0602  0.0550
    1DIPC   C1B12201   6.581   9.988   5.798  0.0234  0.0720 -0.1079
    1DIPC   D2B12202   6.655  10.191   5.513  0.0331 -0.0661 -0.1023
    1DIPC   D3B12203   6.489   9.875   5.263  0.5665 -0.0745  0.0085
    1DIPC   C4B12204   6.263   9.868   4.930 -0.3645  0.0182  0.1948
    1DIPC   NC312205  16.842   4.634   6.604 -0.0712 -0.1977 -0.0916
    1DIPC   PO412206  17.266   4.634   6.549 -0.0513 -0.0367  0.1079
    1DIPC   GL112207  17.099   4.436   6.256 -0.0546 -0.1757 -0.0572
    1DIPC   GL212208  16.864   4.582   6.099  0.1585  0.0869  0.1065
    1DIPC   C1A12209  17.079   4.118   5.971  0.1670  0.2553  0.1175
    1DIPC   D2A12210  16.992   3.579   5.851  0.1178 -0.2141  0.1885
    1DIPC   D3A12211  17.319   3.479   5.475 -0.1210  0.1105 -0.0947
    1DIPC   C4A12212  17.240   3.161   5.214  0.1374  0.1990 -0.1605
    1DIPC   C1B12213  16.712   4.459   5.652 -0.0917 -0.0032  0.2810
    1DIPC   D2B12214  16.600   4.230   5.389  0.0778  0.3119 -0.1134
    1DIPC   D3B12215  16.918   3.843   5.412 -0.1896  0.1878  0.0662
    1DIPC   C4B12216  16.807   3.437   5.346  0.0339 -0.3286  0.0871
    1DIPC   NC312217  24.421   2.645   6.743 -0.1859 -0.1573 -0.0294
    1DIPC   PO412218  23.998   2.558   6.715  0.1576 -0.0401  0.0419
    1DIPC   GL112219  23.705   2.687   6.435  0.2010 -0.0719  0.3411
    1DIPC   GL212220  23.605   3.074   6.312  0.0462 -0.0108 -0.1063
    1DIPC   C1A12221  23.609   2.650   5.952 -0.1383 -0.0492  0.0763
    1DIPC   D2A12222  23.453   2.307   5.669  0.0364 -0.0981 -0.0600
    1DIPC   D3A12223  23.412   1.920   5.573  0.0762 -0.0961 -0.0656
    1DIPC   C4A12224  23.155   1.819   5.261  0.1141 -0.0320 -0.1603
    1DIPC   C1B12225  23.251   3.029   6.056  0.0665  0.2266  0.1901
    1DIPC   D2B12226  23.092   3.114   5.680  0.0186 -0.1708 -0.3067
    1DIPC   D3B12227  22.951   2.925   5.389  0.0555  0.0092  0.2328
    1DIPC   C4B12228  23.166   2.599   5.236 -0.2200  0.0622  0.1366
    1DIPC   NC312229  13.982   2.919   7.127  0.1207 -0.0931 -0.0647
    1DIPC   PO412230  13.537   2.872   7.032 -0.1830 -0.0104 -0.1161
    1DIPC   GL112231  13.885   2.893   6.637 -0.0543 -0.1501  0.2037
    1DIPC   GL212232  13.709   2.733   6.504  0.0716  0.0570  0.0404
    1DIPC   C1A12233  14.075   3.203   6.398 -0.0981 -0.1048  0.1766
    1DIPC   D2A12234  14.370   3.371   6.109 -0.2057  0.2313  0.3757
    1DIPC   D3A12235  14.439   3.709   5.801  0.0662 -0.1331 -0.0257
    1DIPC   C4A12236  14.597   3.752   5.408 -0.1924  0.3092  0.0961
    1DIPC   C1B12237  13.963   2.663   6.133  0.4349 -0.0489  0.2616
    1DIPC   D2B12238  14.183   3.008   5.899 -0.0319 -0.0417  0.0774
    1DIPC   D3B12239  14.246   3.316   5.530 -0.1987 -0.2942  0.0078
    1DIPC   C4B12240  13.946   3.262   5.315  0.1294  0.0407 -0.1211
    1DIPC   NC312241  24.969  14.606   6.506  0.0859 -0.0519  0.0445
    1DIPC   PO412242  25.076  14.929   6.224  0.0145 -0.3218  0.1538
    1DIPC   GL112243  24.961  14.918   5.780  0.0047 -0.0927  0.2281
    1DIPC   GL212244  24.641  14.913   5.628  0.0757 -0.1406 -0.1782
    1DIPC   C1A12245  24.990  14.595   5.467  0.2552 -0.0655  0.0725
    1DIPC   D2A12246  24.826  14.172   5.458 -0.2796  0.1005  0.3416
    1DIPC   D3A12247  24.800  14.246   5.034 -0.0985  0.0804  0.2951
    1DIPC   C4A12248  24.872  14.054   4.575  0.1344 -0.2942 -0.3053
    1DIPC   C1B12249  24.493  14.652   5.249  0.1875  0.0740  0.1854
    1DIPC   D2B12250  24.370  14.579   4.782  0.0135  0.1500 -0.0909
    1DIPC   D3B12251  23.964  14.915   4.573 -0.4059 -0.1745  0.0029
    1DIPC   C4B12252  23.684  14.802   4.321  0.0141 -0.1281  0.1593
    1DIPC   NC312253   1.099   0.525   7.089  0.2172 -0.0653 -0.1399
    1DIPC   PO412254   1.076   0.252   6.804  0.2078 -0.0814 -0.0453
    1DIPC   GL112255   1.258   0.316   6.313 -0.2017  0.4654 -0.2815
    1DIPC   GL212256   1.135   0.555   6.092  0.3316 -0.1416 -0.2168
    1DIPC   C1A12257   1.093   0.031   5.964 -0.2959 -0.1302 -0.0407
    1DIPC   D2A12258   0.764  -0.176   5.818 -0.0440 -0.1372  0.2857
    1DIPC   D3A12259   1.065  -0.509   5.881 -0.2819 -0.3755 -0.2479
    1DIPC   C4A12260   1.140  -0.753   5.507 -0.0297 -0.1030 -0.1147
    1DIPC   C1B12261   0.995   0.467   5.653 -0.2708 -0.2622 -0.0926
    1DIPC   D2B12262   0.920   0.663   5.213  0.2653 -0.0475 -0.1197
    1DIPC   D3B12263   1.270   0.367   5.099 -0.2513 -0.1786 -0.0224
    1DIPC   C4B12264   1.613   0.543   4.798 -0.0779  0.0328 -0.1790
    1DIPC   NC312265  29.556  23.434   6.328 -0.0808  0.4404 -0.0842
    1DIPC   PO412266  29.257  23.128   6.092 -0.3480  0.0114 -0.2798
    1DIPC   GL112267  29.236  23.291   5.731  0.0186  0.0026  0.2952
    1DIPC   GL212268  28.863  23.354   5.734 -0.2420  0.0975 -0.1029
    1DIPC   C1A12269  29.323  23.228   5.345 -0.4013 -0.0682  0.2094
    1DIPC   D2A12270  29.317  23.475   4.937  0.0913 -0.0176 -0.1663
    1DIPC   D3A12271  29.195  22.997   4.834 -0.1874  0.3156  0.2882
    1DIPC   C4A12272  29.494  22.649   4.656  0.0385 -0.2408 -0.3304
    1DIPC   C1B12273  28.803  23.272   5.270  0.2132 -0.0161  0.0823
    1DIPC   D2B12274  28.760  23.258   4.823 -0.2924  0.2603 -0.3527
    1DIPC   D3B12275  28.777  22.836   5.010  0.0334 -0.1693 -0.1993
    1DIPC   C4B12276  28.481  22.600   5.125 -0.4641 -0.1979  0.0702
    1DIPC   NC312277  12.729   0.188   7.270  0.0566 -0.1197  0.1259
    1DIPC   PO412278  12.726   0.427   6.842  0.1098 -0.0585  0.1489
    1DIPC   GL112279  12.317   0.546   6.702 -0.1708 -0.0065 -0.1418
    1DIPC   GL212280  12.246   0.883   6.626 -0.0808 -0.0243 -0.0755
    1DIPC   C1A12281  12.013   0.443   6.404 -0.3231  0.1513 -0.3306
    1DIPC   D2A12282  11.708   0.317   6.053 -0.0288 -0.0398  0.1335
    1DIPC   D3A12283  11.725  -0.115   5.713  0.1200 -0.0195 -0.0772
    1DIPC   C4A12284  11.772  -0.041   5.248 -0.2091  0.1195 -0.0055
    1DIPC   C1B12285  12.494   0.705   6.312  0.3213 -0.1537  0.2447
    1DIPC   D2B12286  12.917   0.637   6.335 -0.2162 -0.2751 -0.2355
    1DIPC   D3B12287  13.185   1.128   6.310 -0.1342 -0.1019 -0.0147
    1DIPC   C4B12288  13.562   1.037   6.022  0.2731  0.1200  0.0076
    1DIPC   NC312289  25.575  12.195   5.967  0.0574 -0.1854 -0.1877
    1DIPC   PO412290  25.987  12.235   5.872  0.0265 -0.1497  0.0578
    1DIPC   GL112291  25.735  12.475   5.434 -0.2237  0.2484 -0.1145
    1DIPC   GL212292  25.932  12.301   5.124 -0.0258  0.3355 -0.2700
    1DIPC   C1A12293  25.407  12.270   5.193  0.0078 -0.1140  0.2072
    1DIPC   D2A12294  25.192  12.325   4.850  0.0691 -0.1809 -0.0633
    1DIPC   D3A12295  24.979  12.761   4.770  0.2498  0.0018 -0.0321
    1DIPC   C4A12296  24.675  12.789   4.579  0.0830 -0.2948  0.2308
    1DIPC   C1B12297  26.031  12.396   4.713 -0.4221 -0.0511  0.2879
    1DIPC   D2B12298  26.028  12.426   4.291 -0.2397 -0.1257 -0.3913
    1DIPC   D3B12299  26.206  12.828   4.383  0.1264  0.0071  0.0353
    1DIPC   C4B12300  26.057  13.307   4.353 -0.2993 -0.0354  0.0550
    1DIPC   NC312301  23.599  13.900   6.114 -0.1381 -0.3510 -0.0443
    1DIPC   PO412302  23.272  13.620   6.198  0.1522 -0.4287  0.0544
    1DIPC   GL112303  22.973  13.728   5.886 -0.0860 -0.1815  0.2144
    1DIPC   GL212304  22.875  13.353   5.873  0.0662 -0.1919  0.1054
    1DIPC   C1A12305  22.791  13.869   5.517  0.0962  0.1382 -0.3069
    1DIPC   D2A12306  22.590  13.691   5.179 -0.2819 -0.0340  0.1532
    1DIPC   D3A12307  22.237  13.944   4.972  0.2118  0.0467 -0.3298
    1DIPC   C4A12308  22.198  14.312   4.786  0.4439 -0.0433 -0.0670
    1DIPC   C1B12309  22.924  13.367   5.522 -0.0243  0.1242 -0.2026
    1DIPC   D2B12310  23.030  13.327   5.102  0.1635  0.2931 -0.0796
    1DIPC   D3B12311  23.152  12.930   5.149  0.1220 -0.3220 -0.0405
    1DIPC   C4B12312  23.315  12.629   4.913  0.0851 -0.0145 -0.0867
    1DIPC   NC312313  11.617  10.993   7.808  0.0263 -0.2796  0.0211
    1DIPC   PO412314  11.753  11.088   7.391  0.4055 -0.2710  0.0568
    1DIPC   GL112315  11.570  11.292   7.168 -0.1299 -0.0486 -0.2134
    1DIPC   GL212316  11.541  11.593   7.237  0.3103  0.0481  0.2041
    1DIPC   C1A12317  11.380  11.311   6.866 -0.1846  0.0800  0.0250
    1DIPC   D2A12318  11.325  11.488   6.507  0.2848  0.2243 -0.1193
    1DIPC   D3A12319  11.524  11.248   6.222 -0.0792 -0.2942 -0.0817
    1DIPC   C4A12320  11.655  11.513   5.888  0.2946  0.0196 -0.3102
    1DIPC   C1B12321  11.308  11.805   6.895  0.0745  0.1749 -0.2231
    1DIPC   D2B12322  11.095  12.131   6.748 -0.1441 -0.0348  0.0723
    1DIPC   D3B12323  10.907  11.821   6.403  0.0424  0.0667  0.1686
    1DIPC   C4B12324  11.178  11.689   6.035  0.2424  0.2602 -0.2738
    1DIPC   NC312325   9.603   5.260   7.362  0.3595  0.0218  0.1395
    1DIPC   PO412326   9.873   5.254   6.984 -0.3403  0.3015 -0.2079
    1DIPC   GL112327   9.948   4.951   6.549 -0.1218 -0.0188  0.0163
    1DIPC   GL212328  10.306   4.890   6.706  0.0922 -0.1621 -0.0909
    1DIPC   C1A12329   9.840   4.674   6.097 -0.0075 -0.0949 -0.0672
    1DIPC   D2A12330   9.703   4.577   5.665  0.2281 -0.0279  0.1360
    1DIPC   D3A12331   9.865   4.289   5.377 -0.2311 -0.1144 -0.1106
    1DIPC   C4A12332  10.247   3.995   5.337 -0.0436 -0.1550 -0.0063
    1DIPC   C1B12333  10.374   4.759   6.191  0.2728  0.3256 -0.2280
    1DIPC   D2B12334  10.602   4.652   5.822 -0.1197  0.1922 -0.0260
    1DIPC   D3B12335  10.841   4.373   6.076 -0.2945  0.4472  0.1870
    1DIPC   C4B12336  11.262   4.350   6.282  0.1058 -0.0939  0.1105
    1DIPC   NC312337   4.574  16.908   6.149 -0.1526 -0.1444 -0.0200
    1DIPC   PO412338   4.286  16.774   5.857  0.0740  0.3041 -0.0157
    1DIPC   GL112339   3.950  16.712   5.595  0.1639  0.1443  0.5259
    1DIPC   GL212340   3.964  16.992   5.432 -0.2070  0.1244 -0.2267
    1DIPC   C1A12341   3.819  16.473   5.277  0.2574 -0.0320  0.2315
    1DIPC   D2A12342   3.712  16.280   4.881  0.2334 -0.1627  0.0908
    1DIPC   D3A12343   3.500  16.573   4.724 -0.0064  0.0190  0.0749
    1DIPC   C4A12344   3.529  16.941   4.903  0.2536 -0.0042  0.0731
    1DIPC   C1B12345   4.006  16.864   5.047 -0.1062 -0.0718 -0.2460
    1DIPC   D2B12346   3.925  16.826   4.644 -0.0874 -0.2197  0.2599
    1DIPC   D3B12347   4.108  16.576   4.409  0.0404  0.0392 -0.1345
    1DIPC   C4B12348   4.013  16.233   4.052 -0.1851  0.0552 -0.2525
    1DIPC   NC312349   4.564  11.138   7.043  0.1870  0.1049 -0.3278
    1DIPC   PO412350   4.449  10.807   6.755 -0.1140  0.0245 -0.2893
    1DIPC   GL112351   4.550  10.815   6.238  0.0662 -0.0234  0.0413
    1DIPC   GL212352   4.690  11.080   6.021 -0.0923  0.1049 -0.0600
    1DIPC   C1A12353   4.540  10.563   5.819  0.1734 -0.1654 -0.3015
    1DIPC   D2A12354   4.403  10.427   5.403  0.3336  0.0492 -0.0653
    1DIPC   D3A12355   4.359   9.967   5.309 -0.1939 -0.2278  0.0935
    1DIPC   C4A12356   4.635   9.626   5.027  0.1322 -0.1736 -0.1719
    1DIPC   C1B12357   4.830  11.270   5.600  0.0521  0.0737  0.0996
    1DIPC   D2B12358   5.029  11.603   5.463 -0.1206 -0.2193  0.1934
    1DIPC   D3B12359   4.806  11.508   5.117 -0.1133 -0.1029  0.0955
    1DIPC   C4B12360   4.985  11.513   4.679 -0.2075  0.3350 -0.2789
    1DIPC   NC312361   6.739  14.455   6.306  0.0270  0.1719 -0.0717
    1DIPC   PO412362   6.524  14.044   6.179  0.0406  0.1228  0.1523
    1DIPC   GL112363   6.442  13.995   5.703  0.1882 -0.1019 -0.1557
    1DIPC   GL212364   6.242  14.236   5.711  0.0569 -0.1552  0.0486
    1DIPC   C1A12365   6.591  13.790   5.343 -0.1816  0.0700  0.1775
    1DIPC   D2A12366   6.623  13.664   4.950  0.0359 -0.0536 -0.0983
    1DIPC   D3A12367   6.308  13.445   4.760  0.1586  0.1922 -0.0759
    1DIPC   C4A12368   5.896  13.562   4.779 -0.3221 -0.1337  0.1795
    1DIPC   C1B12369   6.556  14.381   5.357 -0.1772 -0.2993  0.1915
    1DIPC   D2B12370   6.431  14.781   5.164  0.0032  0.2193 -0.0759
    1DIPC   D3B12371   6.694  15.133   5.121  0.1958  0.4640  0.0543
    1DIPC   C4B12372   6.926  15.540   5.107  0.1053 -0.1770  0.3525
    1DIPC   NC312373   5.249   2.277   7.119  0.1171  0.0471 -0.0127
    1DIPC   PO412374   5.498   2.041   7.212 -0.0535 -0.0306 -0.1138
    1DIPC   GL112375   5.330   2.008   6.719 -0.0065  0.1852 -0.0578
    1DIPC   GL212376   5.265   1.679   6.620  0.1637  0.0549  0.0858
    1DIPC   C1A12377   5.137   2.001   6.290 -0.2210 -0.1631  0.2375
    1DIPC   D2A12378   4.854   1.825   5.951  0.0382 -0.0230  0.1224
    1DIPC   D3A12379   4.777   1.854   5.482 -0.2865  0.2322  0.0585
    1DIPC   C4A12380   4.967   1.605   5.154 -0.0473  0.0291 -0.0635
    1DIPC   C1B12381   5.473   1.621   6.228 -0.1069 -0.0550  0.4427
    1DIPC   D2B12382   5.730   1.577   5.923  0.0435 -0.0438  0.0420
    1DIPC   D3B12383   6.050   1.839   5.805  0.1709  0.2108  0.5480
    1DIPC   C4B12384   6.091   2.277   5.770  0.0800  0.1296  0.1204
    1DIPC   NC312385  28.375  17.587   6.704 -0.1931 -0.0204 -0.0377
    1DIPC   PO412386  28.768  17.518   6.737  0.0720 -0.0408 -0.0178
    1DIPC   GL112387  28.708  17.338   6.335  0.2263 -0.0290  0.2235
    1DIPC   GL212388  28.462  17.368   6.208  0.2505  0.2562  0.0675
    1DIPC   C1A12389  28.749  17.062   5.925  0.0353  0.1521 -0.0643
    1DIPC   D2A12390  28.727  17.049   5.466  0.0288 -0.1697 -0.1849
    1DIPC   D3A12391  28.423  17.239   5.218  0.1422  0.3138  0.0179
    1DIPC   C4A12392  28.012  17.036   4.990 -0.0719 -0.1276 -0.2438
    1DIPC   C1B12393  28.583  17.524   5.740  0.1125 -0.0832 -0.1192
    1DIPC   D2B12394  28.579  17.844   5.402 -0.1836 -0.2812  0.0358
    1DIPC   D3B12395  28.794  17.500   5.184  0.1824 -0.1550 -0.1505
    1DIPC   C4B12396  28.766  17.227   4.888  0.2647  0.0990 -0.1578
    1DIPC   NC312397  12.381  27.114   6.794 -0.0268  0.0962 -0.0752
    1DIPC   PO412398  11.973  27.186   6.703 -0.2180 -0.0534 -0.4278
    1DIPC   GL112399  11.831  27.303   6.343 -0.3323 -0.0832  0.0564
    1DIPC   GL212400  11.527  27.380   6.138 -0.2353  0.0521 -0.3441
    1DIPC   C1A12401  12.063  27.477   6.061 -0.1528  0.0607  0.0428
    1DIPC   D2A12402  12.493  27.745   5.934 -0.1069 -0.2527  0.0138
    1DIPC   D3A12403  12.441  27.872   5.560 -0.3275  0.1407  0.2816
    1DIPC   C4A12404  12.167  28.139   5.257 -0.0738 -0.1288  0.2382
    1DIPC   C1B12405  11.735  27.207   5.748  0.2069 -0.2557 -0.3756
    1DIPC   D2B12406  11.777  27.019   5.482 -0.4149 -0.2206 -0.1981
    1DIPC   D3B12407  11.620  27.333   5.208 -0.4862  0.1835 -0.0539
    1DIPC   C4B12408  11.843  27.437   4.886 -0.2777 -0.0226  0.0478
    1DIPC   NC312409  13.972   0.346   7.292  0.3441  0.0406 -0.0495
    1DIPC   PO412410  14.400   0.555   7.090  0.0714 -0.1976 -0.0030
    1DIPC   GL112411  14.229   0.679   6.712 -0.2615  0.2527 -0.0201
    1DIPC   GL212412  14.428   0.704   6.529  0.1175  0.0441 -0.0688
    1DIPC   C1A12413  13.946   0.689   6.355  0.0031 -0.2045 -0.0423
    1DIPC   D2A12414  13.784   0.467   5.997  0.1613 -0.0209  0.0390
    1DIPC   D3A12415  13.836   0.102   5.917 -0.1224  0.0503 -0.1288
    1DIPC   C4A12416  13.620  -0.215   5.766  0.1721 -0.0257  0.0491
    1DIPC   C1B12417  14.471   0.691   6.142  0.0550  0.0668 -0.1605
    1DIPC   D2B12418  14.223   0.465   5.730  0.0741 -0.1637 -0.1751
    1DIPC   D3B12419  13.814   0.601   5.463  0.2396  0.0312  0.0946
    1DIPC   C4B12420  13.519   0.751   5.590 -0.2465 -0.2669  0.1565
    1DIPC   NC312421  14.018   6.074   6.987 -0.1402  0.0074  0.0052
    1DIPC   PO412422  14.341   5.910   6.597  0.2512  0.2955  0.4221
    1DIPC   GL112423  14.429   5.832   6.159  0.2417  0.1393 -0.5921
    1DIPC   GL212424  14.701   5.660   6.005  0.1319  0.1360  0.1623
    1DIPC   C1A12425  14.244   5.913   5.757 -0.1244  0.0481 -0.3355
    1DIPC   D2A12426  13.911   6.079   5.735  0.1148 -0.0727  0.1372
    1DIPC   D3A12427  13.798   6.037   5.361 -0.1491  0.3253 -0.1386
    1DIPC   C4A12428  13.429   5.718   5.214  0.2098 -0.0766 -0.4219
    1DIPC   C1B12429  14.620   5.574   5.588 -0.1325  0.3582  0.1090
    1DIPC   D2B12430  14.766   5.694   5.217 -0.3638 -0.1869 -0.2734
    1DIPC   D3B12431  14.363   5.881   5.077  0.1371 -0.0942  0.0001
    1DIPC   C4B12432  14.155   5.615   5.362  0.2048  0.0140  0.2669
    1DIPC   NC312433  23.171   8.822   7.124  0.2465 -0.1146  0.1443
    1DIPC   PO412434  23.212   9.246   6.830 -0.0320 -0.1259  0.0914
    1DIPC   GL112435  23.167   8.926   6.612  0.1023  0.2881 -0.0759
    1DIPC   GL212436  23.430   8.969   6.382 -0.0361 -0.1419  0.6116
    1DIPC   C1A12437  23.007   8.667   6.403 -0.0070  0.0891  0.2176
    1DIPC   D2A12438  23.011   8.256   6.202 -0.1823  0.2229 -0.0808
    1DIPC   D3A12439  22.689   8.020   6.103  0.1597 -0.0291 -0.2865
    1DIPC   C4A12440  22.429   7.709   5.865  0.2625  0.1341 -0.0836
    1DIPC   C1B12441  23.450   9.288   6.056 -0.0314  0.2510 -0.0492
    1DIPC   D2B12442  23.493   9.515   5.697 -0.1967  0.1416  0.1630
    1DIPC   D3B12443  23.307   9.476   5.340 -0.1798 -0.1368  0.0438
    1DIPC   C4B12444  23.180   9.000   5.349  0.0908 -0.0185  0.0254
    1DIPC   NC312445  26.800  12.166   6.167 -0.2401 -0.0638 -0.0067
    1DIPC   PO412446  26.674  12.479   5.915 -0.2494 -0.1827  0.1498
    1DIPC   GL112447  26.834  12.494   5.410 -0.1902 -0.0656  0.0290
    1DIPC   GL212448  27.081  12.679   5.343  0.0798 -0.2503 -0.0456
    1DIPC   C1A12449  26.923  12.370   4.966  0.1493  0.0154 -0.2565
    1DIPC   D2A12450  26.994  12.536   4.521  0.0473 -0.0633 -0.0385
    1DIPC   D3A12451  26.782  12.907   4.638  0.0146 -0.2390  0.0808
    1DIPC   C4A12452  26.664  13.213   4.405 -0.4062 -0.0569  0.0509
    1DIPC   C1B12453  27.146  12.924   5.028 -0.0267 -0.0170 -0.1082
    1DIPC   D2B12454  27.270  13.172   4.692 -0.2891 -0.0314  0.3923
    1DIPC   D3B12455  27.169  13.029   4.246  0.1829 -0.0444  0.1892
    1DIPC   C4B12456  26.998  13.148   3.827  0.2545  0.1059 -0.2320
    1DIPC   NC312457   4.032   9.995   6.645  0.1742 -0.0904 -0.1000
    1DIPC   PO412458   4.192   9.666   6.643 -0.2772  0.0804  0.0016
    1DIPC   GL112459   4.097   9.833   6.174  0.0329  0.2816  0.3888
    1DIPC   GL212460   4.352   9.742   6.157 -0.0225  0.1072  0.4071
    1DIPC   C1A12461   4.275   9.682   5.697  0.1474 -0.0456 -0.0021
    1DIPC   D2A12462   4.339   9.445   5.398 -0.2055 -0.2512  0.1940
    1DIPC   D3A12463   4.113   9.479   5.037 -0.2714 -0.3337  0.1034
    1DIPC   C4A12464   4.162   9.836   4.844 -0.0384  0.1596  0.5539
    1DIPC   C1B12465   4.482   9.348   6.009  0.2586  0.1003 -0.1436
    1DIPC   D2B12466   4.684   9.017   6.073  0.0576 -0.0653 -0.1130
    1DIPC   D3B12467   4.950   8.763   5.716 -0.0261 -0.2538  0.2245
    1DIPC   C4B12468   4.836   8.372   5.489 -0.0553  0.0629 -0.0216
    1DIPC   NC312469  14.780  29.607   6.365  0.2169 -0.1919 -0.1256
    1DIPC   PO412470  14.379  29.301   6.338  0.1238  0.1025  0.2486
    1DIPC   GL112471  14.767  29.143   6.215 -0.0757 -0.0999  0.1395
    1DIPC   GL212472  14.796  28.917   6.328  0.0502  0.1716  0.0190
    1DIPC   C1A12473  15.196  29.179   6.129  0.2445  0.1397  0.0054
    1DIPC   D2A12474  15.448  29.209   5.687 -0.1185 -0.0682  0.1756
    1DIPC   D3A12475  15.775  29.278   5.473 -0.0641  0.0096 -0.0056
    1DIPC   C4A12476  15.774  28.997   5.155 -0.2440 -0.1947  0.2283
    1DIPC   C1B12477  14.747  28.516   6.037  0.1222 -0.4310  0.0650
    1DIPC   D2B12478  14.794  28.482   5.588 -0.0368  0.0545 -0.0222
    1DIPC   D3B12479  14.851  28.641   5.165 -0.1789  0.1458  0.2150
    1DIPC   C4B12480  14.763  29.118   5.185 -0.0146 -0.1304 -0.0962
    1DIPC   NC312481  29.759   5.132   6.724  0.0569 -0.1647  0.1026
    1DIPC   PO412482  29.556   5.478   6.523  0.1192 -0.2902 -0.2222
    1DIPC   GL112483  29.455   5.700   6.150 -0.0908 -0.3375  0.0956
    1DIPC   GL212484  29.494   5.446   5.937  0.0728  0.0472 -0.2599
    1DIPC   C1A12485  28.977   5.881   6.011 -0.0399 -0.3718  0.1221
    1DIPC   D2A12486  28.752   6.060   6.252 -0.1513 -0.0201 -0.3226
    1DIPC   D3A12487  28.474   6.291   6.029 -0.1399 -0.1379 -0.0969
    1DIPC   C4A12488  28.461   6.701   5.763 -0.1011  0.2425  0.0716
    1DIPC   C1B12489  29.798   5.487   5.693 -0.2106 -0.0720 -0.0484
    1DIPC   D2B12490  29.819   5.757   5.449 -0.0132 -0.0257  0.0028
    1DIPC   D3B12491  29.759   6.042   5.039  0.3144 -0.0899  0.1218
    1DIPC   C4B12492  29.552   5.889   4.754  0.3441 -0.0370 -0.4457
    1DIPC   NC312493  28.548  21.916   6.232 -0.1737  0.2361  0.1437
    1DIPC   PO412494  28.338  21.643   6.477  0.0498 -0.0087 -0.0535
    1DIPC   GL112495  28.470  21.457   6.104 -0.1006  0.3033  0.2412
    1DIPC   GL212496  28.263  21.543   5.900  0.0589 -0.0235 -0.0393
    1DIPC   C1A12497  28.382  21.003   5.928  0.1546 -0.0917 -0.1439
    1DIPC   D2A12498  28.367  20.526   5.869 -0.1304 -0.2528  0.4235
    1DIPC   D3A12499  28.360  20.334   5.548  0.2954 -0.0487  0.4631
    1DIPC   C4A12500  28.069  20.044   5.619  0.1711  0.0849  0.0069
    1DIPC   C1B12501  28.471  21.453   5.520 -0.0823 -0.1875 -0.5476
    1DIPC   D2B12502  28.551  21.596   5.137 -0.0613 -0.0696  0.3618
    1DIPC   D3B12503  28.529  21.191   5.108 -0.0175  0.0185 -0.2038
    1DIPC   C4B12504  28.174  21.024   4.946 -0.1377  0.1139  0.0306
    1DIPC   NC312505   4.856  10.137   7.084 -0.1824 -0.2997 -0.1971
    1DIPC   PO412506   5.201   9.829   7.005  0.0578 -0.2264 -0.0630
    1DIPC   GL112507   5.121   9.709   6.512  0.2839 -0.3014 -0.0496
    1DIPC   GL212508   4.830   9.797   6.414 -0.0574  0.2215 -0.0003
    1DIPC   C1A12509   5.235   9.939   6.181 -0.3147  0.3977 -0.0292
    1DIPC   D2A12510   5.337   9.848   5.766  0.0513 -0.0084 -0.1154
    1DIPC   D3A12511   5.605   9.795   5.407 -0.1040 -0.0234  0.1210
    1DIPC   C4A12512   5.686   9.398   5.555  0.3406  0.1726  0.1325
    1DIPC   C1B12513   4.931   9.491   6.152  0.2308 -0.0472 -0.0219
    1DIPC   D2B12514   5.189   9.137   6.091  0.1186 -0.0440 -0.3418
    1DIPC   D3B12515   5.225   9.337   5.764 -0.1604  0.2471 -0.0077
    1DIPC   C4B12516   4.850   9.190   5.570 -0.0246  0.1449  0.2853
    1DIPC   NC312517   3.990   9.260   7.202 -0.1305  0.1813 -0.4582
    1DIPC   PO412518   3.724   9.631   6.914  0.0276 -0.0907 -0.2041
    1DIPC   GL112519   3.767   9.542   6.434 -0.0982  0.1698  0.1136
    1DIPC   GL212520   3.501   9.687   6.243  0.1462  0.2027  0.3301
    1DIPC   C1A12521   3.818   9.298   6.050  0.1066 -0.1759 -0.2278
    1DIPC   D2A12522   3.884   9.338   5.580 -0.0296  0.1735  0.0999
    1DIPC   D3A12523   3.656   9.212   5.278 -0.0450  0.0505 -0.2251
    1DIPC   C4A12524   3.276   9.240   5.210 -0.0129  0.1131 -0.0615
    1DIPC   C1B12525   3.746   9.845   5.856  0.0529 -0.2384 -0.1257
    1DIPC   D2B12526   3.892   9.979   5.457 -0.0005 -0.0201 -0.2088
    1DIPC   D3B12527   3.480   9.697   5.446 -0.1460  0.1102 -0.5811
    1DIPC   C4B12528   3.316   9.381   5.824 -0.0511  0.0977 -0.0159
    1DIPC   NC312529   7.727   8.954   7.069  0.0438 -0.1935 -0.1321
    1DIPC   PO412530   7.700   9.404   7.086 -0.1454  0.1079 -0.1794
    1DIPC   GL112531   7.726   9.185   6.641  0.0224  0.2909  0.0421
    1DIPC   GL212532   7.873   8.802   6.623  0.3746 -0.1948  0.2183
    1DIPC   C1A12533   7.607   9.117   6.232 -0.1458 -0.0077 -0.3381
    1DIPC   D2A12534   7.280   9.212   5.978  0.1191 -0.0162  0.0152
    1DIPC   D3A12535   7.282   9.511   5.770 -0.2209  0.1349 -0.1410
    1DIPC   C4A12536   7.061   9.797   5.535  0.3917 -0.2016 -0.0259
    1DIPC   C1B12537   7.480   8.636   6.545 -0.0138  0.1000  0.0051
    1DIPC   D2B12538   7.267   8.329   6.306  0.0480  0.0639  0.1018
    1DIPC   D3B12539   7.217   8.335   5.910  0.1300 -0.2221  0.1272
    1DIPC   C4B12540   7.461   8.463   5.516 -0.0029  0.2922 -0.3917
    1DIPC   NC312541  24.128  27.149   6.667 -0.1310  0.0261  0.0816
    1DIPC   PO412542  24.379  27.573   6.786 -0.3926  0.0571  0.1622
    1DIPC   GL112543  24.376  27.790   6.227  0.1117 -0.4043 -0.0689
    1DIPC   GL212544  24.657  27.881   6.221  0.4396  0.0376  0.2378
    1DIPC   C1A12545  24.506  27.727   5.775  0.1088 -0.1924 -0.4117
    1DIPC   D2A12546  24.589  27.282   5.711 -0.2129  0.0936 -0.1318
    1DIPC   D3A12547  24.336  27.097   5.954  0.0406  0.0211 -0.3500
    1DIPC   C4A12548  24.003  26.869   5.946 -0.1250 -0.0539 -0.0604
    1DIPC   C1B12549  24.624  28.230   5.874  0.0876  0.2255  0.0434
    1DIPC   D2B12550  24.943  28.540   5.667 -0.0265  0.1650 -0.2139
    1DIPC   D3B12551  24.768  28.648   5.309  0.2504  0.0250 -0.3489
    1DIPC   C4B12552  24.785  28.847   4.939  0.0778 -0.1756  0.0084
    1DIPC   NC312553  23.667  24.726   6.733 -0.1722 -0.1936  0.1260
    1DIPC   PO412554  23.506  24.197   6.672 -0.0999 -0.0351 -0.0946
    1DIPC   GL112555  23.560  24.458   6.250  0.2137  0.1928 -0.1331
    1DIPC   GL212556  23.336  24.305   5.919  0.0538 -0.1561 -0.4381
    1DIPC   C1A12557  23.226  24.774   6.062 -0.0117  0.0876 -0.0284
    1DIPC   D2A12558  22.727  24.969   5.918 -0.0581 -0.0490 -0.1687
    1DIPC   D3A12559  22.674  25.308   5.713  0.1221  0.2194 -0.0294
    1DIPC   C4A12560  22.819  25.272   5.352  0.2144  0.1556 -0.1606
    1DIPC   C1B12561  23.547  24.092   5.705  0.1824 -0.0842  0.1187
    1DIPC   D2B12562  23.946  24.244   5.343 -0.2122  0.1054 -0.0881
    1DIPC   D3B12563  23.696  24.381   4.916  0.0339 -0.2656 -0.0964
    1DIPC   C4B12564  23.670  24.810   4.893 -0.1134 -0.1518  0.0826
    1DIPC   NC312565  15.755   7.305   7.089 -0.0552  0.0161  0.2890
    1DIPC   PO412566  16.154   7.321   6.987 -0.2742 -0.3493  0.1441
    1DIPC   GL112567  16.027   7.366   6.652  0.1204  0.2377  0.1322
    1DIPC   GL212568  16.300   7.197   6.498 -0.1740 -0.1849 -0.2538
    1DIPC   C1A12569  15.808   7.558   6.200 -0.1004 -0.1116 -0.4038
    1DIPC   D2A12570  15.705   7.628   5.817  0.3480 -0.0257 -0.0531
    1DIPC   D3A12571  15.632   7.754   5.379  0.2672 -0.0245 -0.1591
    1DIPC   C4A12572  15.753   7.652   5.052  0.1951  0.1673 -0.0365
    1DIPC   C1B12573  16.038   7.097   6.108 -0.0071  0.2015 -0.0927
    1DIPC   D2B12574  15.973   6.805   5.781  0.0962  0.1757 -0.0043
    1DIPC   D3B12575  16.027   6.810   5.384  0.0297  0.1351  0.2638
    1DIPC   C4B12576  16.282   7.055   5.201  0.1679 -0.3703  0.1834
    1DIPC   NC312577   8.689  19.039   6.582 -0.1680  0.2094  0.2280
    1DIPC   PO412578   8.486  19.346   6.384 -0.3161  0.1209  0.1554
    1DIPC   GL112579   8.371  19.116   6.018  0.3702 -0.3544 -0.1120
    1DIPC   GL212580   8.568  18.936   5.868 -0.1526 -0.1091  0.0115
    1DIPC   C1A12581   8.368  19.242   5.585 -0.0162 -0.0107  0.0094
    1DIPC   D2A12582   8.280  19.581   5.180  0.1442 -0.2011 -0.2662
    1DIPC   D3A12583   8.020  19.520   4.831  0.2521  0.0293  0.0297
    1DIPC   C4A12584   7.806  19.822   4.581  0.1383  0.3047 -0.0909
    1DIPC   C1B12585   8.541  18.768   5.509  0.0635  0.1119 -0.2776
    1DIPC   D2B12586   8.636  18.754   5.064 -0.0839  0.0109  0.1466
    1DIPC   D3B12587   8.406  18.543   4.745 -0.2390 -0.1771 -0.0706
    1DIPC   C4B12588   8.105  18.658   4.422 -0.0207  0.0218  0.1773
    1DIPC   NC312589  13.632  24.692   6.292 -0.1182 -0.4432  0.0203
    1DIPC   PO412590  13.899  25.052   6.200 -0.2903  0.1538 -0.2009
    1DIPC   GL112591  13.896  24.813   5.824  0.0236 -0.0621  0.3578
    1DIPC   GL212592  14.202  24.920   5.771  0.3528 -0.1073  0.1234
    1DIPC   C1A12593  13.752  24.889   5.361  0.1207 -0.0755  0.0619
    1DIPC   D2A12594  13.709  24.916   4.888 -0.3032 -0.2183  0.1672
    1DIPC   D3A12595  13.712  24.597   4.518 -0.1400 -0.0254  0.0076
    1DIPC   C4A12596  13.998  24.281   4.585  0.4045  0.1040  0.1887
    1DIPC   C1B12597  14.110  25.257   5.540 -0.0268 -0.2955  0.3294
    1DIPC   D2B12598  14.124  25.646   5.365 -0.1923 -0.0291  0.3123
    1DIPC   D3B12599  14.041  25.512   4.949 -0.1249 -0.2926 -0.2976
    1DIPC   C4B12600  14.408  25.444   4.755 -0.0775 -0.1734  0.1067
    1DIPC   NC312601  10.749   4.567   7.314 -0.1544  0.0266  0.1911
    1DIPC   PO412602  10.278   4.486   7.232 -0.0680  0.0765  0.0488
    1DIPC   GL112603  10.393   4.350   6.815 -0.1062  0.0406  0.0678
    1DIPC   GL212604  10.280   4.218   6.476 -0.0040 -0.1098  0.2754
    1DIPC   C1A12605  10.781   4.121   6.558  0.3644 -0.0056 -0.2369
    1DIPC   D2A12606  10.949   3.863   6.168 -0.1401 -0.0188  0.2115
    1DIPC   D3A12607  11.084   4.090   5.754  0.1404 -0.1133  0.0311
    1DIPC   C4A12608  10.697   4.219   5.601  0.1605  0.2454 -0.0189
    1DIPC   C1B12609  10.501   4.009   6.114  0.0730 -0.1399  0.0936
    1DIPC   D2B12610  10.439   3.734   5.820 -0.2549 -0.0309 -0.2754
    1DIPC   D3B12611  10.537   3.518   5.443  0.0187  0.5767  0.0947
    1DIPC   C4B12612  10.833   3.306   5.378 -0.3770  0.0226  0.0620
    1DIPC   NC312613   5.826  26.036   6.850  0.1356  0.0196 -0.2400
    1DIPC   PO412614   5.901  25.948   6.353 -0.0107 -0.1397  0.2478
    1DIPC   GL112615   5.895  25.944   5.884 -0.4648  0.1764  0.3501
    1DIPC   GL212616   5.644  26.122   5.730 -0.0182 -0.1554  0.0670
    1DIPC   C1A12617   6.042  26.157   5.454 -0.0109  0.1159  0.1378
    1DIPC   D2A12618   6.330  26.460   5.319  0.3095 -0.1855 -0.1279
    1DIPC   D3A12619   6.315  26.273   4.862 -0.3043 -0.1082 -0.1685
    1DIPC   C4A12620   6.480  25.847   4.729 -0.0740  0.0344 -0.0568
    1DIPC   C1B12621   5.742  26.568   5.548  0.0226  0.0763  0.0407
    1DIPC   D2B12622   5.906  26.787   5.308  0.1186  0.1115 -0.1269
    1DIPC   D3B12623   6.021  27.198   5.353 -0.0305  0.4441  0.3525
    1DIPC   C4B12624   6.154  27.287   4.880 -0.0339 -0.2906  0.0879
    1DIPC   NC312625   0.918   9.272   6.491  0.0845  0.1456 -0.2220
    1DIPC   PO412626   1.342   9.300   6.369 -0.0796  0.3062 -0.2298
    1DIPC   GL112627   1.257   9.482   5.963 -0.0915  0.4491  0.0043
    1DIPC   GL212628   1.493   9.508   5.667  0.1923  0.2919  0.2132
    1DIPC   C1A12629   1.022   9.685   5.644  0.0423 -0.3927  0.0748
    1DIPC   D2A12630   0.771   9.956   5.309 -0.0733 -0.1397 -0.0902
    1DIPC   D3A12631   0.971   9.659   5.078  0.1342 -0.3430 -0.5193
    1DIPC   C4A12632   1.164   9.401   5.281 -0.0334 -0.1352  0.0497
    1DIPC   C1B12633   1.527   9.685   5.295 -0.5133  0.2370  0.3123
    1DIPC   D2B12634   1.279  10.043   5.120  0.0287 -0.1147 -0.1516
    1DIPC   D3B12635   1.223  10.462   5.333 -0.0241  0.2598 -0.1797
    1DIPC   C4B12636   1.435  10.608   5.615  0.2780  0.0933  0.1409
    1DIPC   NC312637   1.073  13.020   6.053 -0.0097 -0.0035  0.0904
    1DIPC   PO412638   0.742  13.234   6.141  0.2765 -0.1080 -0.0705
    1DIPC   GL112639   0.727  13.383   5.760  0.2181  0.0100  0.1180
    1DIPC   GL212640   0.358  13.349   5.612 -0.1127  0.0183  0.1791
    1DIPC   C1A12641   0.929  13.780   5.551 -0.1610 -0.0696  0.0852
    1DIPC   D2A12642   1.181  14.114   5.296 -0.2070  0.1054  0.1483
    1DIPC   D3A12643   1.030  14.431   5.200 -0.2228  0.0420  0.1705
    1DIPC   C4A12644   1.164  14.815   5.225  0.0496 -0.0433 -0.0584
    1DIPC   C1B12645   0.725  13.195   5.209 -0.1230 -0.0727 -0.1227
    1DIPC   D2B12646   1.076  12.954   4.913  0.2764 -0.0190  0.3572
    1DIPC   D3B12647   1.163  12.679   5.124 -0.1248  0.1304  0.0831
    1DIPC   C4B12648   1.012  12.564   5.538  0.1629 -0.2948 -0.0253
    1DIPC   NC312649  10.324  24.091   5.937  0.3158  0.2720  0.3455
    1DIPC   PO412650  10.077  24.372   6.254  0.0859 -0.1735 -0.0005
    1DIPC   GL112651  10.067  24.414   5.686 -0.0978 -0.1606  0.2745
    1DIPC   GL212652  10.348  24.349   5.489  0.4640  0.1835 -0.1008
    1DIPC   C1A12653   9.948  24.143   5.280 -0.3379  0.0011  0.0046
    1DIPC   D2A12654  10.021  23.833   4.961  0.2476  0.1463 -0.0538
    1DIPC   D3A12655  10.461  23.916   5.153  0.2682 -0.1429  0.2202
    1DIPC   C4A12656  10.568  24.329   5.039  0.0389  0.1151  0.1112
    1DIPC   C1B12657  10.469  24.744   5.485 -0.1922 -0.0876  0.0771
    1DIPC   D2B12658  10.592  25.070   5.773 -0.0094  0.0659 -0.1320
    1DIPC   D3B12659  10.947  25.101   5.420 -0.0538  0.1966 -0.0647
    1DIPC   C4B12660  11.268  25.378   5.350 -0.0351 -0.2515 -0.0066
    1DIPC   NC312661   0.395  28.889   7.082  0.0054  0.1090 -0.0422
    1DIPC   PO412662   0.489  28.646   6.690  0.2919  0.0194  0.1079
    1DIPC   GL112663   0.343  28.989   6.344  0.0033  0.0598 -0.2159
    1DIPC   GL212664   0.374  29.313   6.248  0.1996 -0.0536 -0.0838
    1DIPC   C1A12665   0.134  28.919   5.884 -0.1608  0.1630 -0.0138
    1DIPC   D2A12666  -0.043  29.126   5.558  0.0721 -0.4448  0.3376
    1DIPC   D3A12667  -0.017  28.860   5.139 -0.1032 -0.0754 -0.0530
    1DIPC   C4A12668  -0.320  28.887   4.823  0.0288  0.1877 -0.0573
    1DIPC   C1B12669   0.589  29.241   5.845  0.1482  0.0466 -0.1925
    1DIPC   D2B12670   0.543  29.061   5.481 -0.1246 -0.4541  0.1611
    1DIPC   D3B12671   0.324  29.150   4.977 -0.0587 -0.1417 -0.2223
    1DIPC   C4B12672  -0.003  29.176   4.689  0.0295  0.1227  0.0321
    1DIPC   NC312673  28.597  10.804   5.792  0.1306  0.0299  0.0844
    1DIPC   PO412674  28.230  10.724   6.016 -0.1224  0.1211  0.2227
    1DIPC   GL112675  28.152  10.562   5.733  0.1951 -0.1220  0.0152
    1DIPC   GL212676  27.813  10.742   5.657 -0.0893  0.0673  0.0454
    1DIPC   C1A12677  28.035  10.395   5.278 -0.3634 -0.1442 -0.2928
    1DIPC   D2A12678  28.304  10.216   4.971  0.0443 -0.3458 -0.2918
    1DIPC   D3A12679  27.936   9.935   4.992  0.0058 -0.1385  0.1797
    1DIPC   C4A12680  27.841   9.578   5.253  0.0784  0.2170  0.0433
    1DIPC   C1B12681  27.658  11.012   5.473  0.2442  0.1764  0.0371
    1DIPC   D2B12682  27.524  11.434   5.236  0.0521 -0.0796  0.0661
    1DIPC   D3B12683  27.105  11.350   5.016  0.0082  0.0836  0.1008
    1DIPC   C4B12684  27.056  11.205   4.629  0.2831 -0.1892  0.1374
    1DIPC   NC312685  12.373   8.729   6.887  0.1200  0.1242  0.3089
    1DIPC   PO412686  12.454   8.246   6.791 -0.0335  0.1554 -0.3665
    1DIPC   GL112687  12.605   8.455   6.485 -0.0967 -0.1336 -0.1821
    1DIPC   GL212688  12.443   8.811   6.410 -0.1211 -0.1947 -0.2594
    1DIPC   C1A12689  12.630   8.561   6.035 -0.0580  0.0977 -0.1448
    1DIPC   D2A12690  12.579   8.539   5.562 -0.2721 -0.0286  0.0012
    1DIPC   D3A12691  12.415   8.194   5.854  0.0847  0.3675 -0.0764
    1DIPC   C4A12692  12.523   7.746   5.779 -0.0761 -0.1549  0.0518
    1DIPC   C1B12693  12.157   9.039   6.164 -0.1566  0.0521  0.0276
    1DIPC   D2B12694  12.064   9.093   5.762 -0.2177  0.2745  0.0617
    1DIPC   D3B12695  12.235   8.923   5.388  0.1712  0.0542  0.4238
    1DIPC   C4B12696  12.715   8.941   5.264  0.0002  0.0202  0.3266
    1DIPC   NC312697  11.004  22.375   6.059 -0.0702  0.2276  0.2641
    1DIPC   PO412698  11.509  22.634   6.102 -0.0343  0.1685 -0.1654
    1DIPC   GL112699  11.474  22.285   5.797 -0.0310 -0.2378  0.1428
    1DIPC   GL212700  11.463  22.044   5.880 -0.0241 -0.1376 -0.0137
    1DIPC   C1A12701  11.405  22.266   5.364 -0.2911  0.0560  0.0741
    1DIPC   D2A12702  11.455  22.544   5.011  0.2024 -0.2654  0.3661
    1DIPC   D3A12703  11.431  22.308   4.639 -0.1077 -0.1334 -0.0396
    1DIPC   C4A12704  11.166  22.225   4.298 -0.4433 -0.0875 -0.2747
    1DIPC   C1B12705  11.566  21.787   5.523  0.0871  0.0094  0.5794
    1DIPC   D2B12706  11.323  21.496   5.494  0.0146  0.3413 -0.0803
    1DIPC   D3B12707  11.542  21.428   5.137  0.0377  0.2086  0.4540
    1DIPC   C4B12708  11.928  21.351   5.174 -0.1218 -0.0308  0.0647
    1DIPC   NC312709  15.545   4.477   6.662 -0.0283 -0.1684 -0.1856
    1DIPC   PO412710  15.911   4.748   6.560  0.0927 -0.1202 -0.0340
    1DIPC   GL112711  15.728   4.395   6.194  0.0817  0.0084  0.0959
    1DIPC   GL212712  15.438   4.448   6.145  0.1867 -0.3067 -0.0564
    1DIPC   C1A12713  15.569   4.167   5.721  0.4389  0.3773  0.0580
    1DIPC   D2A12714  15.523   4.386   5.340 -0.1604 -0.0953 -0.1771
    1DIPC   D3A12715  15.832   4.448   5.006  0.2307 -0.2814 -0.3378
    1DIPC   C4A12716  15.685   4.264   4.678  0.0627 -0.2416  0.3126
    1DIPC   C1B12717  15.163   4.496   5.665 -0.2029  0.0730  0.0973
    1DIPC   D2B12718  15.036   4.480   5.285 -0.1874 -0.1572 -0.3491
    1DIPC   D3B12719  14.965   4.830   5.027  0.0156  0.4835  0.1029
    1DIPC   C4B12720  15.084   5.208   5.327 -0.1021  0.2976 -0.3406
    1DIPC   NC312721  28.351   5.849   7.050 -0.4924 -0.0910  0.2747
    1DIPC   PO412722  28.048   5.560   6.863 -0.3590 -0.0698  0.0723
    1DIPC   GL112723  28.204   5.407   6.567  0.0315  0.0247 -0.0762
    1DIPC   GL212724  28.401   5.632   6.534 -0.0680  0.1091  0.0468
    1DIPC   C1A12725  28.025   5.470   6.122 -0.1007  0.0758 -0.1786
    1DIPC   D2A12726  28.298   5.494   5.738  0.1389  0.0080 -0.3137
    1DIPC   D3A12727  28.501   5.889   5.674 -0.1182 -0.2035 -0.0387
    1DIPC   C4A12728  28.864   5.829   5.456  0.2239 -0.1073 -0.0482
    1DIPC   C1B12729  28.522   5.529   6.157  0.1052  0.3553 -0.0847
    1DIPC   D2B12730  28.810   5.460   5.798  0.1964 -0.2146  0.4908
    1DIPC   D3B12731  28.914   5.351   5.352  0.0429 -0.1065 -0.4881
    1DIPC   C4B12732  28.849   5.013   5.207  0.1527  0.0790  0.2776
    1DIPC   NC312733  22.964  20.016   7.145 -0.2515 -0.2351 -0.2993
    1DIPC   PO412734  23.423  19.924   7.319  0.1291 -0.0067 -0.0901
    1DIPC   GL112735  23.493  19.947   6.813 -0.1180  0.0078 -0.0668
    1DIPC   GL212736  23.120  20.019   6.664  0.0997  0.0898 -0.0443
    1DIPC   C1A12737  23.551  20.127   6.450  0.0834  0.1238 -0.0393
    1DIPC   D2A12738  23.826  20.187   6.045 -0.1835 -0.2717 -0.0657
    1DIPC   D3A12739  23.520  20.065   5.843 -0.3116  0.0107 -0.3529
    1DIPC   C4A12740  23.311  19.769   5.617  0.1188 -0.1443 -0.3073
    1DIPC   C1B12741  23.135  20.350   6.341  0.2398 -0.2336  0.2391
    1DIPC   D2B12742  23.126  20.315   5.876 -0.0893  0.3168  0.2571
    1DIPC   D3B12743  22.751  20.245   5.985  0.1264 -0.1827  0.1404
    1DIPC   C4B12744  22.407  20.038   5.757 -0.0785 -0.2057 -0.1787
    1DIPC   NC312745  26.058   0.922   6.911  0.1482 -0.0982 -0.1068
    1DIPC   PO412746  26.455   1.060   6.867  0.2845 -0.1156  0.1418
    1DIPC   GL112747  26.382   1.164   6.426  0.1176 -0.1694 -0.0579
    1DIPC   GL212748  26.065   1.073   6.339 -0.0552 -0.2536  0.0016
    1DIPC   C1A12749  26.508   1.223   5.988  0.1818  0.2730 -0.1527
    1DIPC   D2A12750  26.527   1.014   5.598  0.0342 -0.1962  0.3069
    1DIPC   D3A12751  26.586   1.236   5.187 -0.2680 -0.1105 -0.1809
    1DIPC   C4A12752  26.851   1.214   4.780 -0.1425  0.3142 -0.2277
    1DIPC   C1B12753  26.007   1.081   5.874 -0.3835  0.0679  0.1874
    1DIPC   D2B12754  26.078   1.007   5.377  0.1517 -0.1656 -0.3047
    1DIPC   D3B12755  26.159   1.027   4.920 -0.1393 -0.2095  0.0213
    1DIPC   C4B12756  25.959   1.315   4.563  0.0179  0.3737  0.1615
    1DIPC   NC312757  26.724   3.991   6.570 -0.0252  0.1825  0.1089
    1DIPC   PO412758  26.410   3.811   6.317  0.2255  0.3559  0.1554
    1DIPC   GL112759  26.308   3.793   5.940 -0.0131  0.2721 -0.0483
    1DIPC   GL212760  25.984   3.806   5.992  0.1157  0.0331 -0.0737
    1DIPC   C1A12761  26.410   3.874   5.488  0.4349  0.4100 -0.0248
    1DIPC   D2A12762  26.429   4.110   5.049 -0.0746  0.1442  0.1652
    1DIPC   D3A12763  26.256   3.736   4.789  0.1012 -0.1494  0.0273
    1DIPC   C4A12764  26.650   3.592   4.481 -0.1306 -0.2926 -0.1031
    1DIPC   C1B12765  26.026   4.134   5.687 -0.1668  0.0394  0.0122
    1DIPC   D2B12766  25.982   4.243   5.332  0.3451  0.0867  0.0623
    1DIPC   D3B12767  26.147   4.659   5.253 -0.0637 -0.0311  0.2505
    1DIPC   C4B12768  25.945   4.984   5.068 -0.0672  0.0526  0.0429
    1DIPC   NC312769   7.582  10.711   6.848 -0.0836 -0.2510  0.0181
    1DIPC   PO412770   7.520  10.232   6.853 -0.0231 -0.2716 -0.0492
    1DIPC   GL112771   7.558  10.099   6.403 -0.1126 -0.1629 -0.1334
    1DIPC   GL212772   7.784   9.990   6.145 -0.1158  0.1318 -0.0812
    1DIPC   C1A12773   7.264   9.956   5.997 -0.1337 -0.1393 -0.1495
    1DIPC   D2A12774   7.505   9.915   5.625  0.0773  0.0727  0.0594
    1DIPC   D3A12775   7.755  10.318   5.774  0.0140 -0.2868  0.1760
    1DIPC   C4A12776   7.397  10.443   6.115  0.2147 -0.1008  0.2217
    1DIPC   C1B12777   7.770   9.617   5.916  0.2973 -0.0373  0.1926
    1DIPC   D2B12778   7.729   9.538   5.408  0.0061  0.2653  0.3619
    1DIPC   D3B12779   8.146   9.433   5.411  0.0905  0.0430 -0.0428
    1DIPC   C4B12780   8.567   9.742   5.287  0.0133  0.0607  0.3836
    1DIPC   NC312781  12.359   1.776   7.551  0.1709 -0.0043  0.0115
    1DIPC   PO412782  12.071   1.632   7.206 -0.1382  0.0092  0.2424
    1DIPC   GL112783  12.030   1.802   6.814 -0.0182  0.0982 -0.0406
    1DIPC   GL212784  11.980   1.397   6.711 -0.0867 -0.0223  0.0722
    1DIPC   C1A12785  12.154   1.900   6.425  0.2882 -0.3692  0.0952
    1DIPC   D2A12786  12.201   2.116   6.055  0.1855 -0.1486  0.0853
    1DIPC   D3A12787  12.005   2.250   5.667 -0.0450 -0.0389  0.1226
    1DIPC   C4A12788  11.910   2.619   5.271 -0.4541 -0.0825 -0.0970
    1DIPC   C1B12789  12.270   1.429   6.339  0.3630  0.1682 -0.1096
    1DIPC   D2B12790  12.680   1.207   6.268  0.1467  0.0045  0.1143
    1DIPC   D3B12791  12.872   1.539   6.563  0.2613 -0.2057  0.2664
    1DIPC   C4B12792  13.245   1.783   6.552 -0.2089  0.1672 -0.0771
    1DIPC   NC312793   4.864   7.048   6.513 -0.0613 -0.1391 -0.2631
    1DIPC   PO412794   4.804   6.649   6.458  0.0602 -0.1438 -0.0454
    1DIPC   GL112795   4.986   6.719   6.104  0.0119  0.0011 -0.0631
    1DIPC   GL212796   5.005   6.975   6.040  0.1677  0.0204 -0.1074
    1DIPC   C1A12797   5.104   6.504   5.673 -0.0169 -0.1683 -0.2876
    1DIPC   D2A12798   5.322   6.074   5.440  0.1376 -0.1327  0.2841
    1DIPC   D3A12799   5.445   6.034   5.069 -0.2694 -0.0931 -0.1354
    1DIPC   C4A12800   5.348   6.339   4.769  0.1195  0.1011 -0.0047
    1DIPC   C1B12801   5.413   6.897   5.929  0.0344 -0.0845  0.0540
    1DIPC   D2B12802   5.666   6.845   5.528  0.1476 -0.0439 -0.0376
    1DIPC   D3B12803   5.476   6.575   5.308 -0.0333  0.3770 -0.3185
    1DIPC   C4B12804   5.017   6.553   5.217 -0.2868  0.2025 -0.2530
    1DIPC   NC312805  29.521   9.297   6.661 -0.0593  0.0145 -0.1045
    1DIPC   PO412806  29.742   8.851   6.649  0.1930 -0.2040 -0.1991
    1DIPC   GL112807  29.837   9.138   6.203 -0.1491  0.0478  0.0144
    1DIPC   GL212808  29.773   9.376   6.227 -0.3553 -0.0885 -0.3437
    1DIPC   C1A12809  29.606   8.912   5.825 -0.2867  0.1618  0.1241
    1DIPC   D2A12810  29.487   9.047   5.280  0.3979 -0.3311 -0.2703
    1DIPC   D3A12811  29.387   9.073   4.941  0.0653  0.1730 -0.1946
    1DIPC   C4A12812  29.603   8.775   4.590  0.2101 -0.2130 -0.0004
    1DIPC   C1B12813  29.530   9.665   6.036  0.2835 -0.4782  0.0933
    1DIPC   D2B12814  29.180   9.904   5.812 -0.1635  0.0717  0.0305
    1DIPC   D3B12815  29.598   9.864   5.506  0.0485  0.0045  0.0670
    1DIPC   C4B12816  29.717  10.132   5.146 -0.2252 -0.1471  0.0785
    1DIPC   NC312817   3.739  14.421   5.976 -0.0199 -0.0148 -0.1416
    1DIPC   PO412818   3.627  14.623   5.725  0.1975  0.0663  0.1417
    1DIPC   GL112819   3.763  14.605   5.346  0.1049  0.3051 -0.0280
    1DIPC   GL212820   4.092  14.719   5.315  0.0040  0.1593 -0.0816
    1DIPC   C1A12821   3.924  14.521   4.811 -0.1494  0.2741  0.3229
    1DIPC   D2A12822   3.604  14.236   4.515 -0.3143 -0.0706  0.0865
    1DIPC   D3A12823   3.266  13.868   4.624  0.0144 -0.1660 -0.0442
    1DIPC   C4A12824   3.417  13.384   4.668 -0.1270 -0.1857 -0.0165
    1DIPC   C1B12825   4.292  14.940   5.089  0.1672 -0.1479 -0.2567
    1DIPC   D2B12826   4.712  15.178   4.913  0.0909  0.0699 -0.0445
    1DIPC   D3B12827   4.395  15.031   4.615 -0.2497 -0.0081  0.0171
    1DIPC   C4B12828   4.614  14.893   4.251 -0.0663 -0.1704 -0.1485
    1DIPC   NC312829   7.509  27.085   6.694 -0.2223  0.1242  0.0268
    1DIPC   PO412830   7.607  27.440   6.337  0.0157 -0.1358 -0.1017
    1DIPC   GL112831   7.611  27.344   5.852  0.1938 -0.1737 -0.0565
    1DIPC   GL212832   7.346  27.522   5.734  0.0080 -0.2203  0.2811
    1DIPC   C1A12833   7.491  27.213   5.413  0.0398 -0.1398 -0.0324
    1DIPC   D2A12834   7.516  26.919   5.097 -0.0428  0.3217  0.1999
    1DIPC   D3A12835   7.714  27.079   4.629 -0.4603  0.0014  0.0753
    1DIPC   C4A12836   7.728  27.485   4.474  0.2014  0.1914  0.1145
    1DIPC   C1B12837   7.297  27.774   5.435  0.3988  0.0212 -0.0095
    1DIPC   D2B12838   7.502  27.776   5.103 -0.2156  0.0760 -0.0680
    1DIPC   D3B12839   7.430  28.233   5.057 -0.1646  0.1639  0.0909
    1DIPC   C4B12840   7.293  28.585   4.867 -0.1322 -0.2827 -0.0604
    1DIPC   NC312841  26.057  11.778   6.260  0.0458 -0.2934 -0.1332
    1DIPC   PO412842  25.837  11.709   5.943  0.1672 -0.0977  0.2316
    1DIPC   GL112843  25.760  11.929   5.529  0.1637  0.0574 -0.3754
    1DIPC   GL212844  26.135  11.754   5.437  0.2320 -0.0082 -0.3774
    1DIPC   C1A12845  25.693  11.858   5.150 -0.0422 -0.0657  0.2777
    1DIPC   D2A12846  25.616  12.093   4.823 -0.2765 -0.2796 -0.2746
    1DIPC   D3A12847  25.626  12.136   4.387 -0.0078  0.1248  0.0598
    1DIPC   C4A12848  25.495  12.496   4.278  0.3637  0.0909  0.1446
    1DIPC   C1B12849  26.304  11.898   5.050  0.3612  0.0689 -0.1126
    1DIPC   D2B12850  26.605  12.006   4.785 -0.0118  0.1530  0.1404
    1DIPC   D3B12851  26.540  12.305   4.452  0.1959 -0.3937  0.1434
    1DIPC   C4B12852  26.521  12.295   4.040  0.2056  0.4966 -0.0142
    1DIPC   NC312853   6.127   6.470   6.926 -0.0585 -0.0117 -0.3564
    1DIPC   PO412854   5.748   6.562   6.766  0.0458 -0.0218 -0.0306
    1DIPC   GL112855   5.814   6.562   6.348  0.3735 -0.0482  0.0520
    1DIPC   GL212856   6.159   6.527   6.424  0.2479 -0.0469  0.0766
    1DIPC   C1A12857   5.936   6.652   5.939  0.0382  0.4068  0.4645
    1DIPC   D2A12858   6.305   6.530   5.637  0.0499 -0.2759 -0.0638
    1DIPC   D3A12859   6.460   6.547   5.268 -0.0504 -0.0187 -0.0146
    1DIPC   C4A12860   6.767   6.259   5.109 -0.4415  0.0917  0.3415
    1DIPC   C1B12861   6.185   6.964   6.330  0.0404 -0.0702  0.2744
    1DIPC   D2B12862   6.175   7.075   5.886 -0.2116 -0.0458 -0.0948
    1DIPC   D3B12863   6.599   6.954   5.652 -0.0229  0.0591  0.2528
    1DIPC   C4B12864   6.563   7.083   5.197  0.0776  0.3082  0.2068
    1DIPC   NC312865   4.403  12.122   6.241 -0.2530 -0.0416 -0.1005
    1DIPC   PO412866   4.041  12.148   6.418  0.1666 -0.1574  0.1374
    1DIPC   GL112867   3.961  12.138   6.017 -0.0926  0.0270  0.2056
    1DIPC   GL212868   4.207  11.937   5.845 -0.2347  0.2184 -0.0580
    1DIPC   C1A12869   3.594  12.036   5.818  0.0109 -0.0020 -0.0501
    1DIPC   D2A12870   3.112  11.949   5.818 -0.0364 -0.0034 -0.2369
    1DIPC   D3A12871   2.811  11.842   5.500  0.3227 -0.1958 -0.0794
    1DIPC   C4A12872   2.563  12.185   5.226 -0.1857 -0.1567 -0.0734
    1DIPC   C1B12873   3.899  11.789   5.440  0.1066 -0.1745  0.1472
    1DIPC   D2B12874   3.780  11.964   5.218  0.2511 -0.2015  0.0223
    1DIPC   D3B12875   3.715  11.888   4.759  0.0392  0.3719 -0.3593
    1DIPC   C4B12876   3.395  12.083   4.491 -0.2313 -0.1608  0.0818
    1DIPC   NC312877   2.662  13.234   6.725 -0.0875  0.3447 -0.1859
    1DIPC   PO412878   2.819  12.767   6.532  0.2486 -0.1623  0.1198
    1DIPC   GL112879   2.704  12.614   6.094 -0.0037 -0.0156 -0.0456
    1DIPC   GL212880   2.763  12.816   5.856 -0.2364 -0.1187  0.0543
    1DIPC   C1A12881   2.709  12.223   5.835 -0.2504 -0.2053 -0.2897
    1DIPC   D2A12882   2.341  11.989   5.688 -0.0748 -0.0876 -0.1051
    1DIPC   D3A12883   2.613  11.757   6.013 -0.1167 -0.1855  0.2920
    1DIPC   C4A12884   2.857  11.403   5.823  0.1337 -0.2212 -0.0445
    1DIPC   C1B12885   2.643  12.616   5.555 -0.1188 -0.0083 -0.2358
    1DIPC   D2B12886   2.783  12.666   5.077  0.3134 -0.1192  0.3661
    1DIPC   D3B12887   2.559  12.492   4.736 -0.0557  0.1068  0.1176
    1DIPC   C4B12888   2.214  12.628   4.572  0.1924 -0.0036  0.5100
    1DIPC   NC312889   7.306  17.891   5.955 -0.0604 -0.0946  0.3096
    1DIPC   PO412890   7.432  18.188   6.208  0.0122  0.0185  0.0395
    1DIPC   GL112891   7.552  18.305   5.846 -0.1588  0.0477 -0.0863
    1DIPC   GL212892   7.337  18.403   5.591 -0.0840  0.1263 -0.1925
    1DIPC   C1A12893   7.842  18.379   5.549  0.2390  0.1053  0.0145
    1DIPC   D2A12894   8.074  18.574   5.327  0.0410  0.2780  0.1363
    1DIPC   D3A12895   8.082  18.282   5.025 -0.3465  0.1174  0.0787
    1DIPC   C4A12896   8.096  18.147   4.474  0.0440  0.1421  0.3604
    1DIPC   C1B12897   7.444  18.371   5.174  0.1508  0.0367 -0.0192
    1DIPC   D2B12898   7.556  18.231   4.779  0.1041 -0.1282 -0.2286
    1DIPC   D3B12899   7.607  18.034   4.482  0.0834  0.0508  0.0871
    1DIPC   C4B12900   7.727  18.198   4.038  0.1390  0.1232  0.1003
    1DIPC   NC312901   9.569   8.880   7.377  0.1513  0.0341 -0.1713
    1DIPC   PO412902   9.133   8.922   7.166 -0.0590  0.0450 -0.2181
    1DIPC   GL112903   8.988   9.111   6.700  0.0818 -0.1683 -0.2740
    1DIPC   GL212904   8.606   9.088   6.650 -0.2963 -0.0815  0.1063
    1DIPC   C1A12905   9.230   9.237   6.370 -0.1790 -0.5670 -0.0209
    1DIPC   D2A12906   9.685   9.434   6.221 -0.1486 -0.1400  0.0100
    1DIPC   D3A12907   9.796   9.877   6.109 -0.0013 -0.0382  0.0500
    1DIPC   C4A12908  10.009  10.021   5.598  0.2299  0.0956  0.1625
    1DIPC   C1B12909   8.673   9.334   6.318  0.0091 -0.0884 -0.1472
    1DIPC   D2B12910   8.790   9.671   6.055 -0.0885 -0.1796  0.2347
    1DIPC   D3B12911   9.247   9.496   5.915 -0.0327 -0.1624 -0.3057
    1DIPC   C4B12912   9.429   8.961   5.929 -0.2440 -0.0532  0.1671
    1DIPC   NC312913  22.513  19.072   7.114  0.2815  0.0643 -0.0930
    1DIPC   PO412914  22.320  19.283   6.643  0.3202 -0.1674  0.2784
    1DIPC   GL112915  22.295  19.683   6.456  0.1253 -0.0614  0.1919
    1DIPC   GL212916  22.280  19.602   6.139 -0.2512 -0.2103  0.0529
    1DIPC   C1A12917  22.600  20.045   6.406 -0.2862  0.1560  0.0667
    1DIPC   D2A12918  22.637  20.501   6.535 -0.1503 -0.0047  0.0097
    1DIPC   D3A12919  22.381  20.901   6.385 -0.0510 -0.1335  0.0130
    1DIPC   C4A12920  22.330  21.053   6.032 -0.0809  0.2816  0.1191
    1DIPC   C1B12921  22.646  19.252   6.049 -0.0755  0.0276 -0.0366
    1DIPC   D2B12922  22.990  18.871   6.129 -0.0767 -0.0982 -0.0198
    1DIPC   D3B12923  22.837  19.048   5.685 -0.0184  0.2874  0.3287
    1DIPC   C4B12924  23.029  19.145   5.269  0.2405  0.1543 -0.1993
    1DIPC   NC312925  27.514   8.665   6.503 -0.1289  0.0634  0.0337
    1DIPC   PO412926  27.225   9.074   6.418  0.2363  0.1138  0.0883
    1DIPC   GL112927  27.445   9.342   6.136  0.1903  0.3603 -0.2596
    1DIPC   GL212928  27.578   9.113   6.042  0.2701 -0.1028  0.2465
    1DIPC   C1A12929  27.742   9.601   5.851  0.0208 -0.1019 -0.3906
    1DIPC   D2A12930  27.803  10.080   5.661 -0.0293  0.1605  0.1317
    1DIPC   D3A12931  28.255   9.993   5.482 -0.1258 -0.0720 -0.0442
    1DIPC   C4A12932  28.335   9.679   5.204  0.0519  0.1165 -0.0393
    1DIPC   C1B12933  27.343   9.320   5.663  0.0184  0.5692  0.3594
    1DIPC   D2B12934  26.910   9.572   5.626  0.1534 -0.0402  0.1112
    1DIPC   D3B12935  26.656   9.202   5.406 -0.2396  0.1063  0.0781
    1DIPC   C4B12936  26.503   9.218   4.952 -0.0818  0.2660  0.3926
    1DIPC   NC312937   0.824  19.502   6.017  0.0768 -0.0238  0.0172
    1DIPC   PO412938   1.133  19.805   6.186 -0.1567  0.3289 -0.1372
    1DIPC   GL112939   1.160  19.733   5.717  0.2174 -0.3124 -0.4171
    1DIPC   GL212940   0.820  19.823   5.648 -0.2759 -0.3803  0.1080
    1DIPC   C1A12941   1.165  19.493   5.432 -0.2934 -0.1202  0.2152
    1DIPC   D2A12942   1.060  19.361   4.995 -0.2650  0.3223 -0.0637
    1DIPC   D3A12943   0.555  19.259   5.004 -0.2224  0.0218  0.0536
    1DIPC   C4A12944   0.405  19.313   4.652  0.2669  0.2867  0.1056
    1DIPC   C1B12945   0.604  19.680   5.273  0.0786  0.0538 -0.2463
    1DIPC   D2B12946   0.398  19.787   4.836 -0.0998  0.0212  0.1282
    1DIPC   D3B12947   0.556  20.233   4.717 -0.0558 -0.0225 -0.1260
    1DIPC   C4B12948   0.718  20.600   4.502  0.1307 -0.2443  0.0963
    1DIPC   NC312949   6.984  20.324   5.627  0.1115  0.2961  0.1159
    1DIPC   PO412950   7.295  20.491   5.923 -0.0842  0.0548 -0.0467
    1DIPC   GL112951   7.498  20.490   5.514  0.3263  0.1222 -0.0719
    1DIPC   GL212952   7.423  20.203   5.323  0.3987  0.3542 -0.0724
    1DIPC   C1A12953   7.742  20.574   5.156  0.1382  0.0382 -0.1858
    1DIPC   D2A12954   7.999  20.892   5.011 -0.3050 -0.0222 -0.0774
    1DIPC   D3A12955   7.638  21.192   5.142  0.0612 -0.0758  0.0027
    1DIPC   C4A12956   7.684  21.609   5.058 -0.1444 -0.0169 -0.1539
    1DIPC   C1B12957   7.489  20.126   4.917 -0.0472 -0.3236  0.1110
    1DIPC   D2B12958   7.805  20.341   4.692  0.0444  0.0759  0.1087
    1DIPC   D3B12959   7.430  20.212   4.424 -0.3081  0.1569 -0.2657
    1DIPC   C4B12960   7.430  19.888   4.078  0.3689  0.2129 -0.0020
    1DIPC   NC312961  24.082   3.646   7.039  0.0630 -0.0934 -0.2295
    1DIPC   PO412962  23.749   3.563   6.819  0.2280 -0.1818 -0.1406
    1DIPC   GL112963  23.749   3.585   6.419 -0.1202 -0.2297 -0.1057
    1DIPC   GL212964  23.646   3.763   6.280  0.2274  0.2068  0.0418
    1DIPC   C1A12965  24.050   3.412   6.197  0.0382 -0.0799  0.2494
    1DIPC   D2A12966  24.054   3.043   5.966  0.0260 -0.3259  0.0720
    1DIPC   D3A12967  24.046   2.982   5.523  0.0978  0.3163  0.4064
    1DIPC   C4A12968  24.187   2.590   5.420 -0.1374 -0.3221 -0.3064
    1DIPC   C1B12969  24.081   3.930   6.235  0.0595 -0.1711 -0.0621
    1DIPC   D2B12970  24.133   3.970   5.824 -0.0707 -0.3088 -0.0492
    1DIPC   D3B12971  23.846   3.783   5.781 -0.0390 -0.1446 -0.0454
    1DIPC   C4B12972  23.645   3.315   5.856 -0.0597 -0.1828  0.0254
    1DIPC   NC312973  12.092   7.933   6.943  0.0830  0.1954  0.0526
    1DIPC   PO412974  11.943   8.314   6.998 -0.0587  0.0304  0.0832
    1DIPC   GL112975  12.021   8.457   6.653 -0.1823 -0.0910 -0.2733
    1DIPC   GL212976  11.905   8.742   6.455 -0.0929  0.0643 -0.0350
    1DIPC   C1A12977  12.132   8.398   6.172  0.1173  0.3287  0.3395
    1DIPC   D2A12978  12.082   8.592   5.782  0.1926  0.1412 -0.1311
    1DIPC   D3A12979  12.122   8.221   5.443  0.0883 -0.2045  0.0111
    1DIPC   C4A12980  12.460   7.962   5.352  0.0875  0.2639  0.1259
    1DIPC   C1B12981  11.633   8.777   6.148  0.2510  0.1285 -0.1117
    1DIPC   D2B12982  11.608   9.050   5.807 -0.0810  0.1241  0.2154
    1DIPC   D3B12983  11.710   8.808   5.461 -0.0382  0.0023  0.1570
    1DIPC   C4B12984  11.597   8.866   5.123 -0.0478 -0.1552 -0.1174
    1DIPC   NC312985  20.230   2.781   6.922  0.2274  0.0040 -0.1910
    1DIPC   PO412986  20.307   2.798   6.500 -0.0501 -0.2235  0.3296
    1DIPC   GL112987  20.362   2.598   6.050 -0.3554 -0.2148 -0.2243
    1DIPC   GL212988  20.365   2.926   5.944 -0.2692  0.1395 -0.0057
    1DIPC   C1A12989  20.098   2.286   5.833  0.0594  0.1022  0.2457
    1DIPC   D2A12990  19.942   2.052   5.777 -0.0695  0.1222  0.0635
    1DIPC   D3A12991  19.431   1.866   5.732 -0.0586 -0.0252 -0.2013
    1DIPC   C4A12992  19.339   1.835   6.040 -0.1845 -0.4423  0.0534
    1DIPC   C1B12993  20.277   2.877   5.586 -0.0063  0.3005  0.0440
    1DIPC   D2B12994  20.001   2.621   5.501  0.1976  0.0342  0.1713
    1DIPC   D3B12995  19.644   2.516   5.606  0.1811 -0.0556 -0.0889
    1DIPC   C4B12996  19.391   2.670   6.002 -0.0071  0.3173  0.4354
    1DIPC   NC312997  29.719  28.052   7.239 -0.1253 -0.0296  0.0045
    1DIPC   PO412998  29.612  27.700   6.952 -0.1982 -0.2389 -0.1511
    1DIPC   GL112999  29.613  27.909   6.512 -0.0205 -0.0788  0.1463
    1DIPC   GL213000  29.925  27.895   6.306 -0.2382  0.2738  0.0911
    1DIPC   C1A13001  29.595  28.267   6.240 -0.1719  0.1887 -0.1289
    1DIPC   D2A13002  29.705  28.612   6.109  0.0566  0.0479 -0.1677
    1DIPC   D3A13003  29.752  29.018   6.272 -0.0729 -0.5212  0.1391
    1DIPC   C4A13004  29.897  29.375   5.947 -0.0564  0.1566 -0.1279
    1DIPC   C1B13005  30.036  28.237   6.012  0.0980 -0.3422  0.0909
    1DIPC   D2B13006  30.316  28.499   6.114 -0.1745 -0.1650 -0.1295
    1DIPC   D3B13007  30.518  28.700   5.827 -0.0357  0.1088 -0.2814
    1DIPC   C4B13008  30.816  28.701   5.963 -0.3739  0.0723 -0.3099
    1DIPC   NC313009   3.105  10.935   6.972 -0.3672  0.4101  0.0061
    1DIPC   PO413010   2.853  10.770   6.711 -0.0245 -0.0838 -0.1063
    1DIPC   GL113011   3.080  10.660   6.452 -0.0721  0.2181 -0.0483
    1DIPC   GL213012   3.339  10.554   6.564 -0.1850 -0.0520 -0.1439
    1DIPC   C1A13013   3.136  10.342   6.159 -0.1046 -0.2114 -0.0100
    1DIPC   D2A13014   3.126  10.021   5.905  0.1798  0.2472 -0.0446
    1DIPC   D3A13015   2.803  10.156   5.605 -0.0586  0.1195 -0.3315
    1DIPC   C4A13016   2.611  10.527   5.506  0.3001 -0.1681  0.0005
    1DIPC   C1B13017   3.579  10.661   6.198  0.1184 -0.0166 -0.2325
    1DIPC   D2B13018   3.578  10.333   5.840  0.2674  0.2195 -0.2344
    1DIPC   D3B13019   3.137  10.508   5.619 -0.0467 -0.0821  0.0201
    1DIPC   C4B13020   3.318  10.921   5.438 -0.1855  0.1311 -0.1923
    1DIPC   NC313021  12.299   2.653   7.177  0.2616 -0.1042 -0.1933
    1DIPC   PO413022  12.711   2.770   7.257  0.2209 -0.1889  0.1732
    1DIPC   GL113023  12.519   2.989   6.857  0.2417  0.2556 -0.1027
    1DIPC   GL213024  12.625   3.240   6.667  0.0274  0.0299  0.5721
    1DIPC   C1A13025  12.159   3.040   6.614  0.2220 -0.1729 -0.0544
    1DIPC   D2A13026  11.750   2.968   6.534 -0.0925  0.6242  0.4486
    1DIPC   D3A13027  11.612   3.281   6.764 -0.0314 -0.2841  0.0448
    1DIPC   C4A13028  11.602   3.561   6.406  0.2258  0.1685  0.0924
    1DIPC   C1B13029  12.561   3.075   6.296  0.0607 -0.0583 -0.1923
    1DIPC   D2B13030  12.251   2.894   6.072 -0.3068 -0.0914 -0.0743
    1DIPC   D3B13031  12.628   2.956   5.792 -0.0123  0.1670 -0.0642
    1DIPC   C4B13032  12.615   2.934   5.358 -0.0097  0.0726 -0.0076
    1DIPC   NC313033  26.197  14.523   5.910 -0.0411  0.0847  0.1276
    1DIPC   PO413034  25.771  14.486   5.907 -0.6020 -0.0460 -0.0818
    1DIPC   GL113035  25.456  14.526   5.580 -0.2511 -0.0275  0.0352
    1DIPC   GL213036  25.663  14.704   5.255  0.2857  0.0035  0.2469
    1DIPC   C1A13037  25.338  14.278   5.289  0.1189 -0.0931 -0.1509
    1DIPC   D2A13038  25.306  14.115   4.934 -0.0222 -0.1656  0.0839
    1DIPC   D3A13039  25.635  14.080   4.742 -0.1501 -0.3675 -0.0161
    1DIPC   C4A13040  25.779  14.337   4.405  0.0048  0.2594  0.4031
    1DIPC   C1B13041  25.378  14.909   5.116  0.1510  0.2403 -0.3075
    1DIPC   D2B13042  24.974  15.113   4.993 -0.2894 -0.0010 -0.2471
    1DIPC   D3B13043  24.884  14.753   4.938 -0.0928  0.1897 -0.1978
    1DIPC   C4B13044  24.889  14.642   4.440 -0.0501  0.2289  0.0611
    1DIPC   NC313045  25.869  10.920   6.216 -0.0091  0.0826 -0.0974
    1DIPC   PO413046  26.048  10.507   6.287 -0.1171 -0.1478 -0.0218
    1DIPC   GL113047  26.122  10.577   5.852  0.0251 -0.1405 -0.1008
    1DIPC   GL213048  25.874  10.869   5.689  0.2244 -0.0543 -0.1833
    1DIPC   C1A13049  25.921  10.400   5.418  0.0222 -0.1701  0.3247
    1DIPC   D2A13050  25.570  10.471   5.186  0.2697 -0.3271 -0.1336
    1DIPC   D3A13051  25.936  10.577   4.944 -0.0939  0.1423 -0.0447
    1DIPC   C4A13052  26.298  10.535   4.693 -0.0067  0.1947  0.1681
    1DIPC   C1B13053  26.291  10.998   5.668  0.2975 -0.1703  0.1814
    1DIPC   D2B13054  26.517  10.724   5.381  0.0740 -0.2822  0.1971
    1DIPC   D3B13055  26.269  10.966   5.168 -0.0853 -0.0322 -0.0948
    1DIPC   C4B13056  26.184  10.994   4.762 -0.0510 -0.0676 -0.0226
    1DIPC   NC313057   1.214  18.854   6.495 -0.0761  0.1480 -0.1530
    1DIPC   PO413058   1.014  19.007   6.073  0.3356  0.5444  0.2305
    1DIPC   GL113059   1.158  18.950   5.698 -0.3633 -0.0394 -0.1706
    1DIPC   GL213060   1.506  19.159   5.584  0.1868  0.3338  0.2453
    1DIPC   C1A13061   1.180  18.954   5.264  0.1785 -0.0710 -0.1551
    1DIPC   D2A13062   1.326  18.968   4.858  0.0503  0.2485  0.1280
    1DIPC   D3A13063   1.224  18.627   4.744 -0.2097 -0.1343 -0.2871
    1DIPC   C4A13064   1.363  18.245   5.035  0.2185  0.1343 -0.0589
    1DIPC   C1B13065   1.662  19.100   5.232  0.3999  0.0133  0.1589
    1DIPC   D2B13066   1.808  18.878   4.831 -0.0905 -0.1549  0.3433
    1DIPC   D3B13067   1.757  18.453   4.788 -0.0550  0.2365  0.0572
    1DIPC   C4B13068   2.025  18.227   5.040 -0.0981 -0.0479 -0.2775
    1DIPC   NC313069   9.588  28.822   7.177 -0.0526  0.1323  0.0528
    1DIPC   PO413070   9.044  28.881   7.168 -0.3354  0.1689  0.0289
    1DIPC   GL113071   9.119  28.715   6.772  0.0726 -0.1968  0.1836
    1DIPC   GL213072   9.062  28.391   6.738  0.2341 -0.0035  0.4065
    1DIPC   C1A13073   9.251  28.663   6.351  0.3216  0.1945 -0.0580
    1DIPC   D2A13074   9.277  28.721   5.882 -0.2379 -0.1390  0.1313
    1DIPC   D3A13075   9.305  28.363   5.606 -0.0911 -0.2005 -0.4219
    1DIPC   C4A13076   9.268  27.977   5.587 -0.0522  0.3534  0.1517
    1DIPC   C1B13077   8.752  28.512   6.430 -0.0725  0.0567  0.4668
    1DIPC   D2B13078   8.648  28.581   6.011 -0.1598 -0.1483  0.0471
    1DIPC   D3B13079   8.834  28.582   5.673 -0.1435 -0.1107 -0.4276
    1DIPC   C4B13080   9.033  28.791   5.301  0.3899  0.0319  0.3170
    1DIPC   NC313081  18.006  26.072   7.125  0.3029  0.1254  0.3566
    1DIPC   PO413082  18.013  25.653   6.996 -0.0916 -0.2148  0.2676
    1DIPC   GL113083  18.003  25.485   6.528 -0.0989  0.2262 -0.2671
    1DIPC   GL213084  18.252  25.495   6.371 -0.0797 -0.0319  0.2375
    1DIPC   C1A13085  17.847  25.217   6.182  0.4639 -0.0934  0.0033
    1DIPC   D2A13086  18.043  25.374   5.854 -0.3968  0.1638  0.0900
    1DIPC   D3A13087  18.065  25.003   5.528 -0.1639  0.2624 -0.1945
    1DIPC   C4A13088  18.172  24.547   5.569  0.0560  0.0203 -0.1795
    1DIPC   C1B13089  18.334  25.164   6.224  0.0418  0.0408 -0.0846
    1DIPC   D2B13090  18.317  24.870   5.969 -0.0059  0.1998  0.1183
    1DIPC   D3B13091  18.472  25.144   5.658 -0.2336 -0.1109  0.1493
    1DIPC   C4B13092  18.575  25.506   5.820  0.0743 -0.0234 -0.0534
    1DIPC   NC313093  26.261  28.023   7.155  0.2267 -0.0983  0.3612
    1DIPC   PO413094  25.985  28.243   6.923  0.2081 -0.0360  0.0912
    1DIPC   GL113095  25.906  28.291   6.518 -0.0736  0.0073  0.2224
    1DIPC   GL213096  26.188  28.485   6.412  0.1376  0.0365 -0.1451
    1DIPC   C1A13097  25.750  28.282   6.036 -0.0031  0.1529  0.1903
    1DIPC   D2A13098  25.872  28.299   5.564 -0.1417 -0.0686  0.2727
    1DIPC   D3A13099  26.237  28.549   5.452  0.1493  0.3450 -0.2081
    1DIPC   C4A13100  26.640  28.352   5.230  0.2613  0.1775 -0.1873
    1DIPC   C1B13101  26.170  28.928   6.213 -0.0009 -0.0348 -0.1107
    1DIPC   D2B13102  25.891  28.743   5.888 -0.1105 -0.1074  0.1958
    1DIPC   D3B13103  25.433  28.678   5.798  0.0347  0.2431  0.0417
    1DIPC   C4B13104  25.194  28.742   6.109  0.1252 -0.0359 -0.0800
    1DIPC   NC313105   2.241  22.578   5.929  0.2923 -0.3367  0.1374
    1DIPC   PO413106   2.331  22.699   5.500  0.4446  0.1578 -0.1238
    1DIPC   GL113107   2.158  22.800   5.123  0.1871 -0.2974  0.1229
    1DIPC   GL213108   1.813  22.823   5.101 -0.0341 -0.3050  0.1954
    1DIPC   C1A13109   2.145  22.880   4.649 -0.0456  0.1617  0.1636
    1DIPC   D2A13110   2.154  22.695   4.285 -0.0170  0.1101  0.0266
    1DIPC   D3A13111   1.730  22.730   3.989  0.0859  0.0737  0.0988
    1DIPC   C4A13112   1.832  22.827   3.533 -0.3594 -0.0691  0.0346
    1DIPC   C1B13113   1.981  22.452   4.813 -0.2915  0.2824  0.1958
    1DIPC   D2B13114   2.307  22.293   4.534 -0.4170  0.2068  0.0049
    1DIPC   D3B13115   2.448  21.939   4.326  0.2031 -0.1774 -0.1004
    1DIPC   C4B13116   2.733  22.018   4.106  0.0465  0.4527 -0.1339
    1DIPC   NC313117  25.062   6.546   7.002 -0.0988 -0.0089 -0.1442
    1DIPC   PO413118  24.880   6.188   6.796  0.0231  0.0362 -0.0176
    1DIPC   GL113119  24.723   5.788   6.601  0.0573 -0.2765 -0.0529
    1DIPC   GL213120  24.857   5.521   6.668 -0.2893  0.1848 -0.1146
    1DIPC   C1A13121  24.808   5.606   6.181 -0.1962  0.0831 -0.3135
    1DIPC   D2A13122  25.083   5.643   5.747 -0.2502 -0.2225 -0.0568
    1DIPC   D3A13123  25.275   5.541   5.360  0.0740 -0.2945 -0.3566
    1DIPC   C4A13124  25.236   5.866   5.031 -0.0751 -0.0595 -0.3555
    1DIPC   C1B13125  24.689   5.147   6.430 -0.0104 -0.3615  0.2124
    1DIPC   D2B13126  24.941   5.062   6.146 -0.3191  0.1392  0.3922
    1DIPC   D3B13127  24.698   5.231   5.874  0.1525  0.0246 -0.3281
    1DIPC   C4B13128  24.454   5.012   5.488 -0.2690 -0.0479  0.0417
    1DIPC   NC313129  23.519   6.409   6.864  0.1112 -0.3114 -0.2410
    1DIPC   PO413130  23.324   6.550   6.526 -0.0469 -0.1504 -0.1756
    1DIPC   GL113131  23.258   6.301   6.118 -0.3851  0.1066  0.1005
    1DIPC   GL213132  23.541   6.300   5.916  0.2602 -0.0422 -0.3196
    1DIPC   C1A13133  23.136   6.013   5.844  0.1681 -0.1092  0.2419
    1DIPC   D2A13134  22.875   5.660   5.519  0.1987 -0.0263  0.0477
    1DIPC   D3A13135  22.634   6.010   5.804 -0.0101 -0.0412 -0.0397
    1DIPC   C4A13136  22.459   6.230   5.556  0.3301  0.0868  0.0115
    1DIPC   C1B13137  23.259   6.393   5.569 -0.0322 -0.0598  0.4189
    1DIPC   D2B13138  22.973   6.081   5.363  0.1392  0.1359  0.1407
    1DIPC   D3B13139  22.941   6.453   5.217 -0.3368 -0.2208 -0.0219
    1DIPC   C4B13140  22.635   6.611   5.175 -0.0033  0.2821 -0.3059
    1DIPC   NC313141   5.882   8.317   6.988  0.1086  0.7045  0.2046
    1DIPC   PO413142   5.971   8.771   7.093  0.1489  0.1648  0.3198
    1DIPC   GL113143   6.245   8.753   6.785  0.1011 -0.2033 -0.2569
    1DIPC   GL213144   6.401   8.973   6.763 -0.2870 -0.0420  0.0349
    1DIPC   C1A13145   6.304   8.513   6.397  0.3507  0.0340  0.0009
    1DIPC   D2A13146   6.320   8.073   6.151 -0.0361  0.0791 -0.1207
    1DIPC   D3A13147   6.582   7.850   6.384 -0.0970 -0.2387 -0.1147
    1DIPC   C4A13148   6.887   7.689   6.328 -0.0461 -0.0899 -0.1517
    1DIPC   C1B13149   6.643   8.825   6.349  0.1649  0.0481  0.0655
    1DIPC   D2B13150   6.684   8.915   5.919 -0.1042 -0.1249 -0.1140
    1DIPC   D3B13151   7.083   8.890   5.718 -0.0575  0.0748  0.0616
    1DIPC   C4B13152   7.266   9.289   5.330 -0.1166  0.1468 -0.2074
    1DIPC   NC313153  15.647  26.149   6.948 -0.1286  0.0737 -0.0428
    1DIPC   PO413154  15.633  25.736   6.796  0.0188  0.1858 -0.0129
    1DIPC   GL113155  15.840  25.768   6.307 -0.1128  0.3457 -0.0573
    1DIPC   GL213156  15.759  25.810   5.941 -0.0581  0.0585  0.2533
    1DIPC   C1A13157  16.262  25.713   6.089  0.3017 -0.1996 -0.0708
    1DIPC   D2A13158  16.656  25.744   6.262  0.0602 -0.0078 -0.3500
    1DIPC   D3A13159  16.667  25.767   5.819 -0.2351  0.1900  0.2106
    1DIPC   C4A13160  16.654  25.481   5.473  0.1204 -0.0702  0.2039
    1DIPC   C1B13161  15.660  25.601   5.584  0.1169  0.0448 -0.0947
    1DIPC   D2B13162  15.334  25.379   5.436 -0.0516 -0.0901 -0.0093
    1DIPC   D3B13163  15.101  25.226   5.230 -0.2126  0.1917  0.0382
    1DIPC   C4B13164  15.127  24.848   5.076 -0.0383 -0.1086  0.3692
    1DIPC   NC313165  26.211  12.620   5.683  0.2608  0.0018 -0.1431
    1DIPC   PO413166  25.786  12.748   5.865 -0.0298  0.2872  0.1078
    1DIPC   GL113167  25.789  13.062   5.571 -0.1800 -0.1347 -0.3839
    1DIPC   GL213168  26.188  13.092   5.264  0.2607  0.2889  0.1671
    1DIPC   C1A13169  25.653  13.158   5.203 -0.0070 -0.0309  0.4419
    1DIPC   D2A13170  25.354  13.161   4.832 -0.0999  0.1270 -0.3395
    1DIPC   D3A13171  25.553  13.263   4.561 -0.1649 -0.0187  0.1179
    1DIPC   C4A13172  25.727  12.904   4.311 -0.3327 -0.2203  0.1569
    1DIPC   C1B13173  26.070  13.446   4.937  0.0864  0.2140 -0.3280
    1DIPC   D2B13174  25.904  13.681   4.623  0.2961  0.0985  0.1697
    1DIPC   D3B13175  25.511  13.747   4.410 -0.1466 -0.1143 -0.0393
    1DIPC   C4B13176  25.239  14.002   4.264 -0.4510 -0.0028 -0.3652
    1DIPC   NC313177  14.042   7.197   6.724 -0.4643 -0.0491  0.0122
    1DIPC   PO413178  13.677   7.412   6.686 -0.0395 -0.0161  0.2851
    1DIPC   GL113179  13.697   7.187   6.318 -0.1406  0.0948 -0.1514
    1DIPC   GL213180  13.570   6.830   6.258 -0.2143  0.0632  0.2236
    1DIPC   C1A13181  13.765   7.224   5.850 -0.1329  0.0729  0.0242
    1DIPC   D2A13182  13.735   7.279   5.362 -0.0647 -0.3660 -0.3269
    1DIPC   D3A13183  14.006   6.987   5.211 -0.1716  0.0876  0.0954
    1DIPC   C4A13184  14.379   7.121   5.100  0.0611 -0.0288 -0.4860
    1DIPC   C1B13185  13.726   6.372   6.141 -0.1668 -0.1880 -0.1982
    1DIPC   D2B13186  14.082   6.223   6.225  0.2407 -0.2715  0.2129
    1DIPC   D3B13187  13.938   5.909   6.172  0.4567  0.1142  0.1696
    1DIPC   C4B13188  13.531   5.927   6.334 -0.1160 -0.0727  0.1490
    1DIPC   NC313189  23.101  28.212   6.642  0.0252 -0.2344 -0.1810
    1DIPC   PO413190  23.471  28.001   6.569  0.1694 -0.0460  0.0881
    1DIPC   GL113191  23.653  27.880   6.206  0.1786  0.1241 -0.0505
    1DIPC   GL213192  23.942  27.995   6.109  0.1026  0.1223 -0.1380
    1DIPC   C1A13193  23.589  27.785   5.810  0.1239 -0.1006  0.1061
    1DIPC   D2A13194  23.191  27.663   5.635 -0.1760 -0.2487  0.0279
    1DIPC   D3A13195  23.410  27.552   5.296 -0.0682 -0.0921 -0.2719
    1DIPC   C4A13196  23.393  27.814   4.929 -0.0976 -0.1980 -0.1086
    1DIPC   C1B13197  24.093  28.117   5.649  0.0018 -0.3960 -0.1959
    1DIPC   D2B13198  24.486  28.121   5.400 -0.4480  0.0513 -0.1336
    1DIPC   D3B13199  24.285  27.914   5.048  0.1617 -0.3431  0.2474
    1DIPC   C4B13200  24.573  27.842   4.703 -0.0685 -0.0706  0.1306
    1DIPC   NC313201   5.265  11.874   6.038  0.2506  0.6040  0.1821
    1DIPC   PO413202   5.484  12.281   6.007 -0.0912  0.1985  0.3295
    1DIPC   GL113203   5.797  12.336   5.675 -0.0996 -0.0592 -0.0422
    1DIPC   GL213204   6.068  12.399   5.844  0.1407 -0.4395 -0.1811
    1DIPC   C1A13205   5.990  12.620   5.340  0.1975  0.0547  0.0539
    1DIPC   D2A13206   6.452  12.539   5.103 -0.0007  0.1366 -0.2840
    1DIPC   D3A13207   6.121  12.456   4.873 -0.1094  0.4560 -0.0025
    1DIPC   C4A13208   5.933  12.867   4.809  0.0725 -0.1737  0.2728
    1DIPC   C1B13209   6.320  12.265   5.525  0.1455  0.1790  0.3514
    1DIPC   D2B13210   6.746  12.345   5.421 -0.2350  0.0732 -0.0108
    1DIPC   D3B13211   7.100  12.176   5.030 -0.0991 -0.1104 -0.0488
    1DIPC   C4B13212   7.617  12.141   5.060 -0.1660 -0.0690 -0.0081
    1DIPC   NC313213  28.399  13.187   6.397 -0.0864  0.0929 -0.1006
    1DIPC   PO413214  28.606  13.375   6.084 -0.0969 -0.1693  0.0995
    1DIPC   GL113215  28.475  13.133   5.728  0.0293  0.2498  0.0506
    1DIPC   GL213216  28.720  13.182   5.630 -0.1504 -0.2647 -0.1090
    1DIPC   C1A13217  28.287  13.063   5.410  0.0821 -0.1484  0.1242
    1DIPC   D2A13218  28.288  12.854   4.950 -0.0197 -0.2156 -0.2919
    1DIPC   D3A13219  28.449  12.691   4.642  0.0579  0.3009 -0.3068
    1DIPC   C4A13220  28.778  12.423   4.550  0.0501  0.2299  0.1070
    1DIPC   C1B13221  28.837  13.376   5.378  0.0770 -0.2619  0.1085
    1DIPC   D2B13222  29.177  13.679   5.216  0.1607  0.0693  0.0290
    1DIPC   D3B13223  29.183  13.296   4.887  0.3954  0.0996  0.1722
    1DIPC   C4B13224  29.241  13.238   4.465  0.3172  0.2190  0.2029
    1DIPC   NC313225  22.737  28.909   6.508  0.2432  0.1478  0.1123
    1DIPC   PO413226  22.803  29.326   6.518  0.0497  0.2545 -0.0012
    1DIPC   GL113227  22.675  29.559   6.120  0.2415  0.0333  0.0929
    1DIPC   GL213228  22.478  29.836   6.115  0.1855  0.0005 -0.1672
    1DIPC   C1A13229  22.487  29.597   5.653  0.0948 -0.1711 -0.0502
    1DIPC   D2A13230  22.219  29.336   5.441 -0.2216 -0.0663  0.1384
    1DIPC   D3A13231  21.914  29.169   5.022  0.1024  0.0442 -0.1377
    1DIPC   C4A13232  21.425  29.220   4.979 -0.1933  0.2246 -0.0498
    1DIPC   C1B13233  22.448  30.119   5.807 -0.0028  0.3203  0.0311
    1DIPC   D2B13234  22.335  29.986   5.386 -0.0593 -0.1734 -0.0067
    1DIPC   D3B13235  22.333  29.730   4.991  0.1002 -0.2040  0.0093
    1DIPC   C4B13236  21.857  29.642   4.865  0.2395 -0.4352 -0.0558
    1DIPC   NC313237  16.354  26.416   6.894 -0.2245 -0.0280 -0.2251
    1DIPC   PO413238  15.919  26.528   6.674 -0.1869  0.5415 -0.0613
    1DIPC   GL113239  15.783  26.230   6.457  0.1890 -0.0274  0.0563
    1DIPC   GL213240  15.548  26.331   6.257 -0.4125 -0.1119 -0.0271
    1DIPC   C1A13241  16.010  26.241   6.055  0.1971  0.0103 -0.1533
    1DIPC   D2A13242  16.169  26.171   5.663 -0.0205 -0.1851 -0.2306
    1DIPC   D3A13243  15.808  26.042   5.437 -0.2215  0.2038  0.0185
    1DIPC   C4A13244  15.712  25.975   4.993  0.2443  0.0806 -0.3540
    1DIPC   C1B13245  15.550  26.329   5.802 -0.2224  0.1609 -0.4770
    1DIPC   D2B13246  15.799  26.510   5.488  0.1324 -0.0080 -0.2026
    1DIPC   D3B13247  16.015  26.878   5.600 -0.1198 -0.1578  0.0603
    1DIPC   C4B13248  16.353  27.041   5.461  0.1281 -0.0890  0.0685
    1DIPC   NC313249  22.090  10.088   7.009  0.1748  0.0173  0.0498
    1DIPC   PO413250  22.022   9.789   6.594  0.0264 -0.0550 -0.2454
    1DIPC   GL113251  22.094   9.739   6.303 -0.1960 -0.0305  0.0763
    1DIPC   GL213252  22.140   9.495   6.142 -0.1789  0.0107  0.0904
    1DIPC   C1A13253  22.305   9.853   5.846 -0.1895 -0.3849 -0.0247
    1DIPC   D2A13254  22.308   9.523   5.635  0.3132  0.2740 -0.0039
    1DIPC   D3A13255  22.293   9.521   5.179  0.1472 -0.1370  0.0601
    1DIPC   C4A13256  22.259   9.091   5.085 -0.0495 -0.2251 -0.0292
    1DIPC   C1B13257  22.546   9.345   6.039  0.0192 -0.0243  0.3322
    1DIPC   D2B13258  22.878   9.446   5.665 -0.0332 -0.0044 -0.1642
    1DIPC   D3B13259  22.749   9.360   5.275 -0.0188 -0.0314  0.0054
    1DIPC   C4B13260  22.985   9.307   4.898  0.0920 -0.0235 -0.0128
    1DIPC   NC313261   5.191  25.168   6.044  0.2184 -0.2041  0.1752
    1DIPC   PO413262   5.642  25.033   6.246  0.0892  0.1315  0.0614
    1DIPC   GL113263   5.555  25.085   5.760 -0.0307 -0.0840  0.0388
    1DIPC   GL213264   5.345  25.361   5.615  0.0331  0.0084 -0.3559
    1DIPC   C1A13265   5.475  25.032   5.250 -0.2179 -0.1735 -0.0519
    1DIPC   D2A13266   5.249  25.064   4.935 -0.2052 -0.1227  0.1505
    1DIPC   D3A13267   5.200  25.241   4.548  0.3275  0.1791  0.3914
    1DIPC   C4A13268   5.272  25.029   4.145 -0.0761 -0.1386 -0.2819
    1DIPC   C1B13269   5.046  25.306   5.328 -0.1699 -0.0875 -0.0050
    1DIPC   D2B13270   4.706  25.484   5.202  0.0837  0.3081  0.0949
    1DIPC   D3B13271   4.653  25.367   4.742  0.2070  0.2708 -0.1172
    1DIPC   C4B13272   4.794  25.143   4.293 -0.2059 -0.1090  0.0109
    1DIPC   NC313273   2.817  22.845   5.521 -0.2167  0.1296 -0.2984
    1DIPC   PO413274   2.733  23.345   5.496 -0.1995 -0.1689  0.0939
    1DIPC   GL113275   2.549  23.162   5.174 -0.1358  0.0239 -0.2013
    1DIPC   GL213276   2.966  23.088   5.081  0.0126 -0.3419  0.0744
    1DIPC   C1A13277   2.541  22.899   4.868 -0.3042  0.6873 -0.0529
    1DIPC   D2A13278   2.699  22.820   4.419 -0.1202  0.2043  0.0430
    1DIPC   D3A13279   2.500  23.196   4.344 -0.1279  0.0421 -0.1513
    1DIPC   C4A13280   2.643  23.367   4.635 -0.2803  0.0830 -0.0898
    1DIPC   C1B13281   3.095  23.028   4.691 -0.0007  0.0446  0.0525
    1DIPC   D2B13282   3.011  23.325   4.315  0.2059 -0.4024 -0.2827
    1DIPC   D3B13283   3.352  23.423   4.269  0.0407 -0.2806  0.0411
    1DIPC   C4B13284   3.727  23.694   4.238  0.0262 -0.0742 -0.0789
    1DIPC   NC313285   5.616  18.572   5.874  0.1952 -0.2155 -0.1257
    1DIPC   PO413286   5.281  18.883   5.762 -0.0278 -0.0659 -0.1620
    1DIPC   GL113287   5.299  18.948   5.334  0.1022 -0.4137 -0.0697
    1DIPC   GL213288   5.178  18.839   5.255  0.0316  0.0525 -0.0087
    1DIPC   C1A13289   5.232  19.335   5.055  0.1440 -0.4115 -0.0826
    1DIPC   D2A13290   5.259  19.357   4.587  0.1362 -0.0792 -0.0898
    1DIPC   D3A13291   5.184  19.030   4.185  0.3608  0.0895 -0.0404
    1DIPC   C4A13292   5.079  18.647   4.078  0.1183 -0.0891  0.1223
    1DIPC   C1B13293   5.473  18.912   4.793  0.2245  0.3966  0.0654
    1DIPC   D2B13294   5.734  19.231   4.462 -0.0043 -0.1366 -0.3789
    1DIPC   D3B13295   5.899  18.856   4.542 -0.2488  0.2151  0.1956
    1DIPC   C4B13296   6.069  18.576   4.042 -0.1260 -0.1080 -0.1447
    1DIPC   NC313297   3.408   3.239   6.914 -0.0718 -0.0876  0.0872
    1DIPC   PO413298   3.630   2.897   6.640  0.0099 -0.1066  0.1438
    1DIPC   GL113299   3.783   2.618   6.359  0.0121  0.1818 -0.2220
    1DIPC   GL213300   3.804   2.354   6.445 -0.1700  0.0891 -0.1631
    1DIPC   C1A13301   3.835   2.584   5.973 -0.0957  0.0605  0.0076
    1DIPC   D2A13302   4.159   2.678   5.778  0.1651  0.1652 -0.0118
    1DIPC   D3A13303   4.000   2.726   5.432  0.1343  0.0214 -0.0895
    1DIPC   C4A13304   3.679   2.936   5.238  0.1382 -0.2690 -0.0380
    1DIPC   C1B13305   4.174   2.235   6.094  0.0907  0.4386  0.1250
    1DIPC   D2B13306   4.421   2.013   5.746  0.1495 -0.1701  0.0674
    1DIPC   D3B13307   4.362   2.344   5.391  0.0109  0.4353 -0.1109
    1DIPC   C4B13308   4.030   2.340   5.098  0.1463  0.0823 -0.1958
    1DIPC   NC313309  22.513  22.787   7.082 -0.2611  0.1806  0.0981
    1DIPC   PO413310  22.261  22.926   6.865  0.0231  0.0816 -0.1587
    1DIPC   GL113311  22.288  22.825   6.398 -0.1093 -0.0263  0.0322
    1DIPC   GL213312  22.343  22.502   6.279  0.0499 -0.0079  0.1775
    1DIPC   C1A13313  22.452  22.934   6.030 -0.1481  0.2662 -0.1003
    1DIPC   D2A13314  22.797  23.127   5.859 -0.1344 -0.0953 -0.1158
    1DIPC   D3A13315  22.582  23.374   5.559  0.3792  0.1039  0.0393
    1DIPC   C4A13316  22.568  23.142   5.185  0.0220 -0.0788  0.2290
    1DIPC   C1B13317  22.192  22.522   5.841 -0.0555 -0.0544 -0.0888
    1DIPC   D2B13318  22.182  22.532   5.330 -0.1701 -0.0505 -0.3345
    1DIPC   D3B13319  22.604  22.659   5.032 -0.0998  0.0827  0.2647
    1DIPC   C4B13320  22.963  22.413   5.130  0.2071  0.2198  0.1169
    1DIPC   NC313321   8.187  25.604   5.970 -0.1914 -0.0988  0.0467
    1DIPC   PO413322   7.754  25.507   5.872  0.0143  0.0193  0.0441
    1DIPC   GL113323   7.528  25.572   5.584 -0.0270 -0.0623  0.2398
    1DIPC   GL213324   7.653  25.695   5.313 -0.2003  0.3874 -0.1470
    1DIPC   C1A13325   7.199  25.494   5.194 -0.0810  0.1846 -0.2927
    1DIPC   D2A13326   6.751  25.639   5.103 -0.0089 -0.0964 -0.0053
    1DIPC   D3A13327   6.278  25.410   5.007 -0.0924 -0.0031 -0.1482
    1DIPC   C4A13328   6.121  25.503   4.603 -0.3092 -0.0033 -0.0325
    1DIPC   C1B13329   8.031  25.755   5.136  0.1688  0.0538 -0.0346
    1DIPC   D2B13330   8.350  25.547   5.027  0.0250 -0.0280 -0.0594
    1DIPC   D3B13331   8.203  25.399   4.711 -0.2607 -0.2783  0.0704
    1DIPC   C4B13332   8.186  25.645   4.364 -0.4903  0.1462 -0.0509
    1DIPC   NC313333  25.500  24.537   6.769 -0.1635 -0.3070  0.1859
    1DIPC   PO413334  25.854  24.592   6.573 -0.0113  0.0277 -0.1386
    1DIPC   GL113335  25.858  24.626   6.054  0.2530 -0.1302 -0.0222
    1DIPC   GL213336  25.624  24.836   5.825 -0.0475 -0.2295 -0.1505
    1DIPC   C1A13337  26.004  24.466   5.696  0.0462  0.1996 -0.2141
    1DIPC   D2A13338  25.942  24.297   5.210 -0.1132 -0.0104  0.1914
    1DIPC   D3A13339  25.778  23.984   5.115 -0.2171  0.1838 -0.0224
    1DIPC   C4A13340  25.824  23.833   4.817  0.0795  0.2293 -0.0587
    1DIPC   C1B13341  25.906  24.869   5.409 -0.0647  0.2131  0.0299
    1DIPC   D2B13342  25.785  24.921   4.988  0.0776  0.1768 -0.0914
    1DIPC   D3B13343  26.039  24.574   4.776 -0.0907  0.2653  0.1851
    1DIPC   C4B13344  26.195  24.610   4.406 -0.4886 -0.1134 -0.4047
    1DIPC   NC313345   6.598  12.613   6.342  0.0214  0.0973  0.1930
    1DIPC   PO413346   6.950  12.962   6.471 -0.1624 -0.1892 -0.2003
    1DIPC   GL113347   6.946  13.147   6.078 -0.1878 -0.1557  0.1985
    1DIPC   GL213348   7.171  13.095   5.920  0.3507 -0.0103  0.2183
    1DIPC   C1A13349   6.646  13.218   5.734 -0.0661  0.1584  0.1444
    1DIPC   D2A13350   6.718  13.237   5.287  0.0747 -0.0922 -0.2334
    1DIPC   D3A13351   6.671  13.179   4.814 -0.0885 -0.0990  0.0450
    1DIPC   C4A13352   6.397  12.854   4.714  0.3997 -0.0656 -0.0392
    1DIPC   C1B13353   7.052  12.992   5.551 -0.2305 -0.1500 -0.1357
    1DIPC   D2B13354   6.940  12.792   5.198 -0.2397  0.1782 -0.1528
    1DIPC   D3B13355   6.926  12.595   4.798  0.1597  0.0663  0.2965
    1DIPC   C4B13356   6.956  12.874   4.535 -0.0578  0.0937  0.2702
    1DIPC   NC313357   9.132  25.918   5.888  0.3349  0.2603 -0.1153
    1DIPC   PO413358   9.433  25.636   5.755 -0.0850 -0.0364  0.0109
    1DIPC   GL113359   9.231  25.482   5.435 -0.0327 -0.0416  0.0862
    1DIPC   GL213360   9.120  25.715   5.387 -0.2225  0.4309 -0.2067
    1DIPC   C1A13361   9.397  25.299   5.098 -0.1906  0.5146  0.3864
    1DIPC   D2A13362   9.448  25.189   4.592  0.0367 -0.0123 -0.1661
    1DIPC   D3A13363   9.542  24.827   4.652  0.0436  0.2032 -0.2129
    1DIPC   C4A13364   9.875  24.625   4.655  0.0904  0.1211 -0.0328
    1DIPC   C1B13365   8.970  25.646   4.963  0.2035 -0.0172 -0.1308
    1DIPC   D2B13366   8.745  25.706   4.628  0.0149 -0.0513 -0.0737
    1DIPC   D3B13367   8.993  26.092   4.684  0.0200  0.2456  0.1671
    1DIPC   C4B13368   9.145  26.328   4.298  0.0464 -0.0507 -0.5729
    1DIPC   NC313369  13.059  12.554   6.952  0.1217 -0.2913 -0.2243
    1DIPC   PO413370  12.751  12.441   6.855 -0.0988 -0.0140 -0.0571
    1DIPC   GL113371  12.495  12.159   6.617  0.2299  0.0244  0.2932
    1DIPC   GL213372  12.456  12.300   6.365 -0.0337  0.0990  0.2792
    1DIPC   C1A13373  12.056  11.950   6.541  0.0521 -0.0493 -0.2222
    1DIPC   D2A13374  11.769  11.578   6.671  0.0247 -0.3256 -0.0539
    1DIPC   D3A13375  11.597  11.857   6.362  0.1042  0.4336 -0.0106
    1DIPC   C4A13376  11.702  12.340   6.425  0.0113 -0.1503  0.0067
    1DIPC   C1B13377  12.248  12.303   6.071  0.6364 -0.0103 -0.0329
    1DIPC   D2B13378  11.831  12.303   5.877 -0.0047  0.2255  0.1254
    1DIPC   D3B13379  11.943  11.884   6.021  0.2530  0.1230 -0.0360
    1DIPC   C4B13380  12.022  11.502   6.212  0.1349  0.0123  0.1212
    1DIPC   NC313381  25.400   5.237   6.500  0.0025 -0.1414  0.1324
    1DIPC   PO413382  25.729   5.158   6.331  0.1333  0.0211  0.2115
    1DIPC   GL113383  25.706   5.225   5.870 -0.3446 -0.1164  0.3345
    1DIPC   GL213384  25.395   5.362   5.992  0.0383  0.3921  0.0244
    1DIPC   C1A13385  25.644   5.227   5.357 -0.4289 -0.0580 -0.2396
    1DIPC   D2A13386  25.547   5.319   4.921  0.0598 -0.0070 -0.1309
    1DIPC   D3A13387  25.764   5.416   4.581 -0.3031 -0.0289  0.1153
    1DIPC   C4A13388  26.121   5.271   4.621 -0.0573 -0.2618 -0.0440
    1DIPC   C1B13389  25.238   5.106   5.662  0.0394 -0.0997  0.0125
    1DIPC   D2B13390  25.380   4.883   5.166 -0.1445 -0.0570 -0.1609
    1DIPC   D3B13391  25.125   4.998   4.812  0.2599  0.0273 -0.0878
    1DIPC   C4B13392  25.039   5.506   4.771  0.0238  0.1763 -0.0803
    1DIPC   NC313393   5.443  20.965   5.839 -0.2832  0.2055 -0.2839
    1DIPC   PO413394   5.526  21.153   5.420 -0.2563 -0.2891 -0.3617
    1DIPC   GL113395   5.406  21.313   5.090 -0.0139  0.0314 -0.1805
    1DIPC   GL213396   5.748  21.476   4.811  0.2635  0.2913 -0.0879
    1DIPC   C1A13397   5.084  21.388   4.789  0.2193  0.0811 -0.0774
    1DIPC   D2A13398   5.144  21.605   4.462 -0.1090 -0.2534  0.1893
    1DIPC   D3A13399   5.487  21.844   4.250  0.2692 -0.0643 -0.1656
    1DIPC   C4A13400   5.463  22.295   4.228  0.0444 -0.1223 -0.0262
    1DIPC   C1B13401   6.042  21.171   4.664 -0.2193 -0.1715 -0.1291
    1DIPC   D2B13402   5.982  20.939   4.256 -0.0343 -0.0647  0.2078
    1DIPC   D3B13403   5.703  20.648   4.049 -0.2346 -0.1106 -0.0834
    1DIPC   C4B13404   5.746  20.213   4.257 -0.0345 -0.2536  0.3313
    1DIPC   NC313405  26.411   2.381   6.873 -0.0916  0.0803  0.0663
    1DIPC   PO413406  26.746   2.144   6.737  0.4125  0.1002  0.0135
    1DIPC   GL113407  26.737   1.993   6.345 -0.0835 -0.1839 -0.0728
    1DIPC   GL213408  26.760   2.209   6.002 -0.3274  0.3050  0.2119
    1DIPC   C1A13409  26.726   1.748   5.997  0.2287  0.0776 -0.0311
    1DIPC   D2A13410  26.723   1.695   5.511  0.1591 -0.1464  0.0432
    1DIPC   D3A13411  26.879   1.701   5.102 -0.1150  0.0663 -0.0464
    1DIPC   C4A13412  27.355   1.737   5.076  0.1440 -0.0902 -0.1269
    1DIPC   C1B13413  26.618   2.283   5.668  0.2096 -0.1850  0.1463
    1DIPC   D2B13414  26.480   2.718   5.403 -0.0229  0.2552  0.1113
    1DIPC   D3B13415  26.381   2.996   5.682  0.1535 -0.0709 -0.0838
    1DIPC   C4B13416  26.485   3.418   5.655  0.1229 -0.1291 -0.0317
    1DIPC   NC313417   7.885   8.490   7.012  0.1330  0.1473  0.1334
    1DIPC   PO413418   7.718   8.145   7.020 -0.1861  0.1585  0.0501
    1DIPC   GL113419   7.819   8.157   6.621  0.0018 -0.0409  0.1091
    1DIPC   GL213420   8.121   8.163   6.582  0.0155 -0.2033  0.2342
    1DIPC   C1A13421   7.773   8.381   6.283 -0.0485 -0.1046  0.6927
    1DIPC   D2A13422   7.937   8.784   6.093  0.2159  0.1666  0.0425
    1DIPC   D3A13423   8.069   8.658   5.735  0.2227  0.1639 -0.0027
    1DIPC   C4A13424   8.015   8.332   5.535  0.2387  0.0305 -0.0437
    1DIPC   C1B13425   8.245   8.245   6.073  0.1772 -0.0865  0.1694
    1DIPC   D2B13426   8.508   8.556   5.844 -0.1680 -0.0335 -0.1358
    1DIPC   D3B13427   8.468   8.250   5.601 -0.2469  0.2042  0.1816
    1DIPC   C4B13428   8.205   7.896   5.686 -0.0101 -0.1121 -0.1811
    1DIPC   NC313429  20.743  19.182   6.823  0.0550  0.0853  0.0135
    1DIPC   PO413430  20.455  18.746   6.847 -0.0519 -0.2995 -0.0705
    1DIPC   GL113431  20.510  18.845   6.332  0.2890  0.1120  0.1692
    1DIPC   GL213432  20.658  18.674   6.015 -0.1488 -0.0961 -0.1433
    1DIPC   C1A13433  20.487  19.257   6.066  0.0602  0.1998 -0.1618
    1DIPC   D2A13434  20.419  19.690   5.881 -0.1458 -0.0552  0.0355
    1DIPC   D3A13435  19.997  19.391   5.819  0.1403 -0.1310 -0.2164
    1DIPC   C4A13436  19.810  19.450   5.455  0.1249 -0.1028  0.2923
    1DIPC   C1B13437  21.061  18.626   5.820  0.1883 -0.2394  0.1470
    1DIPC   D2B13438  21.516  18.662   5.808 -0.0397 -0.0546  0.1313
    1DIPC   D3B13439  21.738  18.672   5.463  0.0855  0.1839 -0.0190
    1DIPC   C4B13440  22.090  18.302   5.378 -0.1145 -0.0578 -0.0175
    1DIPC   NC313441   8.672   4.025   7.065  0.4688 -0.0174 -0.2160
    1DIPC   PO413442   8.709   4.472   7.053 -0.2821 -0.0821  0.2248
    1DIPC   GL113443   8.578   4.372   6.623  0.0156 -0.1787  0.0360
    1DIPC   GL213444   8.863   4.226   6.364 -0.0124 -0.0117 -0.1949
    1DIPC   C1A13445   8.492   3.945   6.456 -0.0418  0.4640 -0.0001
    1DIPC   D2A13446   8.669   3.622   6.041 -0.2740 -0.2994  0.5471
    1DIPC   D3A13447   8.662   4.032   5.868 -0.1030 -0.1112  0.3053
    1DIPC   C4A13448   8.791   4.198   5.472 -0.0469 -0.1781  0.0593
    1DIPC   C1B13449   9.077   4.263   5.862 -0.1018  0.1284 -0.4451
    1DIPC   D2B13450   9.222   4.503   5.639  0.0235  0.2035 -0.1417
    1DIPC   D3B13451   8.810   4.708   5.676 -0.2641 -0.0570  0.0750
    1DIPC   C4B13452   8.600   5.014   5.348 -0.1975  0.1065  0.1586
    1DIPC   NC313453   8.475  23.634   6.199  0.4342  0.3012  0.1696
    1DIPC   PO413454   8.705  24.047   6.124  0.1224 -0.0619 -0.0389
    1DIPC   GL113455   8.904  24.141   5.758  0.0013  0.2412 -0.2304
    1DIPC   GL213456   8.623  24.232   5.486  0.1082  0.1047  0.0120
    1DIPC   C1A13457   9.170  24.305   5.436 -0.1606  0.5493 -0.1775
    1DIPC   D2A13458   9.584  24.472   5.436 -0.0134  0.0194  0.0349
    1DIPC   D3A13459   9.362  24.513   5.012 -0.2012 -0.2490 -0.1743
    1DIPC   C4A13460   9.010  24.252   4.931 -0.0108 -0.1349 -0.0844
    1DIPC   C1B13461   8.380  24.387   5.152  0.2043  0.1751  0.0132
    1DIPC   D2B13462   8.043  24.667   5.036 -0.0037  0.0719  0.1886
    1DIPC   D3B13463   7.929  24.924   4.716 -0.1322 -0.1250 -0.0096
    1DIPC   C4B13464   8.163  24.675   4.347  0.0433 -0.0309  0.2777
    1DIPC   NC313465  26.097  25.481   7.375  0.0020 -0.1749 -0.0571
    1DIPC   PO413466  26.003  25.374   6.947  0.0995  0.2720 -0.0352
    1DIPC   GL113467  26.153  25.187   6.484  0.1781 -0.2223  0.1901
    1DIPC   GL213468  26.165  25.021   6.186 -0.1237 -0.0623 -0.0387
    1DIPC   C1A13469  26.247  25.475   6.129 -0.0168 -0.0167  0.1039
    1DIPC   D2A13470  26.328  25.555   5.667 -0.2658  0.1806 -0.1236
    1DIPC   D3A13471  26.680  25.487   5.728 -0.0619 -0.1023  0.1858
    1DIPC   C4A13472  26.869  25.305   5.516  0.2814 -0.1594 -0.3139
    1DIPC   C1B13473  26.184  25.035   5.758 -0.0760  0.1039 -0.6368
    1DIPC   D2B13474  26.368  25.144   5.400 -0.1737  0.1490  0.0648
    1DIPC   D3B13475  26.396  24.901   4.961 -0.2399 -0.1655  0.1598
    1DIPC   C4B13476  26.576  24.551   4.768  0.2477  0.2038  0.4284
    1DIPC   NC313477  23.092  12.953   6.535  0.3077  0.0383  0.2150
    1DIPC   PO413478  23.482  12.715   6.310  0.0506 -0.7234 -0.3047
    1DIPC   GL113479  23.421  12.687   5.784  0.1001 -0.1114 -0.3050
    1DIPC   GL213480  23.118  12.893   5.640 -0.0439 -0.2606 -0.2576
    1DIPC   C1A13481  23.382  12.484   5.394 -0.3589 -0.0139  0.2057
    1DIPC   D2A13482  23.731  12.331   5.129 -0.1130  0.1312 -0.1613
    1DIPC   D3A13483  23.765  12.121   4.804  0.1442  0.0033 -0.1110
    1DIPC   C4A13484  23.526  12.337   4.387 -0.0083  0.3605 -0.1618
    1DIPC   C1B13485  23.418  13.116   5.520 -0.1781  0.0705 -0.1122
    1DIPC   D2B13486  23.552  13.384   5.189 -0.0090  0.4303 -0.1771
    1DIPC   D3B13487  23.445  13.601   4.729 -0.0807  0.0811 -0.0273
    1DIPC   C4B13488  23.473  13.471   4.279  0.0895  0.0647  0.5833
    1DIPC   NC313489  17.147  20.673   7.196 -0.1643  0.2359 -0.2187
    1DIPC   PO413490  17.211  21.206   7.151  0.0221 -0.0319 -0.0257
    1DIPC   GL113491  17.429  21.002   6.934 -0.1664  0.0456 -0.3382
    1DIPC   GL213492  17.431  21.140   6.628  0.2228  0.0911 -0.0633
    1DIPC   C1A13493  17.682  20.734   6.662 -0.1246  0.0826 -0.3244
    1DIPC   D2A13494  18.116  20.764   6.500 -0.2354 -0.1588 -0.0209
    1DIPC   D3A13495  18.194  21.173   6.357  0.0672  0.0414  0.0992
    1DIPC   C4A13496  18.613  21.368   6.237 -0.2544 -0.1690 -0.1990
    1DIPC   C1B13497  17.644  21.060   6.270  0.1374 -0.2194  0.1365
    1DIPC   D2B13498  17.549  21.034   5.755  0.0015 -0.1727  0.0733
    1DIPC   D3B13499  17.606  21.042   5.373  0.0100 -0.0983  0.0164
    1DIPC   C4B13500  17.874  20.723   5.175  0.2459 -0.1022  0.0117
    1DIPC   NC313501   5.410   5.251   7.166 -0.0668  0.0689  0.0450
    1DIPC   PO413502   5.233   5.572   6.760 -0.0965 -0.2809 -0.1390
    1DIPC   GL113503   5.143   5.725   6.331 -0.0987  0.0158 -0.0611
    1DIPC   GL213504   5.392   5.603   6.290 -0.0143  0.0603  0.0609
    1DIPC   C1A13505   5.248   5.788   5.862 -0.0837 -0.1946 -0.0831
    1DIPC   D2A13506   5.425   5.541   5.688 -0.0400  0.0295 -0.1555
    1DIPC   D3A13507   5.162   5.630   5.301  0.3523 -0.1745  0.1530
    1DIPC   C4A13508   4.846   5.486   4.991  0.1101  0.1626  0.1176
    1DIPC   C1B13509   5.657   5.291   6.099  0.1953 -0.1053 -0.0831
    1DIPC   D2B13510   5.753   4.970   5.806 -0.0118 -0.1801 -0.0967
    1DIPC   D3B13511   5.984   5.058   5.280 -0.0329  0.1442 -0.2764
    1DIPC   C4B13512   6.130   4.605   5.035  0.1242 -0.2910 -0.2384
    1DIPC   NC313513  22.938  22.487   7.164  0.1204  0.2852 -0.1514
    1DIPC   PO413514  22.995  22.772   6.940  0.2415  0.2063 -0.2350
    1DIPC   GL113515  23.035  22.544   6.572 -0.0602  0.1134 -0.0327
    1DIPC   GL213516  22.973  22.800   6.312  0.2020  0.1197  0.3949
    1DIPC   C1A13517  22.818  22.238   6.376 -0.0269  0.0948 -0.1369
    1DIPC   D2A13518  22.894  21.931   6.193 -0.2262 -0.1690  0.1844
    1DIPC   D3A13519  23.187  21.835   5.812  0.2407 -0.1160 -0.3729
    1DIPC   C4A13520  23.152  21.910   5.386  0.0068 -0.1457 -0.0889
    1DIPC   C1B13521  22.840  22.620   5.972 -0.0216 -0.1975 -0.2004
    1DIPC   D2B13522  23.011  22.276   5.741  0.1077  0.0668  0.2375
    1DIPC   D3B13523  22.649  22.163   5.442 -0.1591  0.2061 -0.1589
    1DIPC   C4B13524  22.684  21.699   5.368 -0.1635  0.0273  0.0330
    1DIPC   NC313525  14.728   2.560   7.061 -0.0094 -0.0603 -0.3937
    1DIPC   PO413526  15.144   2.675   7.011 -0.1661  0.1464 -0.0708
    1DIPC   GL113527  14.951   2.540   6.609 -0.2077  0.2728  0.1675
    1DIPC   GL213528  14.663   2.271   6.562 -0.3462 -0.1446 -0.0209
    1DIPC   C1A13529  14.935   2.386   6.170  0.0208 -0.4243  0.2654
    1DIPC   D2A13530  14.969   1.996   5.890  0.0574 -0.1373  0.0333
    1DIPC   D3A13531  14.976   2.174   5.407 -0.0323 -0.0449 -0.0049
    1DIPC   C4A13532  14.626   2.287   5.323 -0.2228 -0.3369  0.2719
    1DIPC   C1B13533  14.581   1.925   6.314 -0.0190 -0.1386  0.1427
    1DIPC   D2B13534  14.312   1.655   6.026  0.1700  0.1995 -0.0162
    1DIPC   D3B13535  14.327   2.090   5.631 -0.0453 -0.1275 -0.1714
    1DIPC   C4B13536  14.160   2.442   5.733 -0.2838 -0.1246 -0.0311
    1DIPC   NC313537  16.152   1.136   7.349 -0.0841 -0.0577 -0.2732
    1DIPC   PO413538  16.574   1.134   7.078  0.0654 -0.2678 -0.1642
    1DIPC   GL113539  16.445   0.942   6.656 -0.0984  0.0607 -0.1021
    1DIPC   GL213540  16.670   1.103   6.484  0.0702  0.1260 -0.0176
    1DIPC   C1A13541  16.080   0.920   6.288  0.0112 -0.0667 -0.2538
    1DIPC   D2A13542  15.861   1.270   6.117  0.0649  0.2348 -0.1916
    1DIPC   D3A13543  16.040   1.147   5.864  0.0426  0.2463 -0.1685
    1DIPC   C4A13544  15.980   0.934   5.424  0.2347  0.1505 -0.1188
    1DIPC   C1B13545  16.513   1.163   6.104  0.0367  0.3783  0.0699
    1DIPC   D2B13546  16.640   1.393   5.624  0.2361  0.2694 -0.2247
    1DIPC   D3B13547  16.531   1.318   5.111  0.0708  0.3131 -0.2043
    1DIPC   C4B13548  16.001   1.191   4.955 -0.0244  0.3139  0.0451
    1DIPC   NC313549   3.047  27.752   6.424 -0.2044  0.0155  0.0221
    1DIPC   PO413550   2.784  27.888   6.143 -0.3158  0.1834 -0.0084
    1DIPC   GL113551   2.796  27.691   5.721 -0.1106 -0.1193  0.1371
    1DIPC   GL213552   2.617  27.429   5.582 -0.2109  0.1724  0.1839
    1DIPC   C1A13553   3.012  27.653   5.297  0.4515 -0.3850 -0.0252
    1DIPC   D2A13554   3.187  27.857   5.057 -0.2829  0.0110  0.2749
    1DIPC   D3A13555   3.242  28.189   5.344  0.0846 -0.3296 -0.1385
    1DIPC   C4A13556   2.755  28.342   5.551 -0.3682 -0.1067 -0.1201
    1DIPC   C1B13557   2.525  27.799   5.322  0.2526 -0.0257  0.0038
    1DIPC   D2B13558   2.613  27.963   4.915  0.1810 -0.1412  0.3019
    1DIPC   D3B13559   2.693  27.620   4.590  0.3615 -0.1584  0.1479
    1DIPC   C4B13560   2.376  27.453   4.325 -0.1283 -0.5054  0.1211
    1DIPC   NC313561   0.999  10.528   6.220  0.0994 -0.1355 -0.0525
    1DIPC   PO413562   1.332  10.794   6.455  0.2161 -0.3530 -0.1016
    1DIPC   GL113563   1.530  11.000   6.163 -0.0469 -0.0090 -0.1860
    1DIPC   GL213564   1.308  10.979   5.908  0.0226 -0.0442 -0.5428
    1DIPC   C1A13565   1.816  10.930   5.779  0.0963 -0.1802  0.0412
    1DIPC   D2A13566   2.081  10.793   5.462  0.1612 -0.1460  0.1338
    1DIPC   D3A13567   2.070  11.129   5.174 -0.1809  0.1263  0.1678
    1DIPC   C4A13568   2.305  11.082   4.778 -0.1858 -0.0632 -0.3442
    1DIPC   C1B13569   1.159  10.989   5.528 -0.0980 -0.0042 -0.2217
    1DIPC   D2B13570   1.044  11.265   5.293  0.0684  0.2419 -0.2043
    1DIPC   D3B13571   1.456  11.422   5.127 -0.1200  0.0687 -0.2475
    1DIPC   C4B13572   1.480  11.375   4.692 -0.1928  0.0589  0.1381
    1DIPC   NC313573  21.405  10.229   6.171  0.0500 -0.2526 -0.0772
    1DIPC   PO413574  21.201  10.616   6.246 -0.2454 -0.0598  0.0699
    1DIPC   GL113575  21.173  10.817   5.771 -0.1282 -0.1084  0.0061
    1DIPC   GL213576  21.216  11.152   5.759 -0.1654  0.1243  0.2568
    1DIPC   C1A13577  21.325  10.810   5.409  0.1432 -0.0583 -0.1225
    1DIPC   D2A13578  21.313  10.853   5.033  0.0992 -0.3245  0.3017
    1DIPC   D3A13579  21.398  10.480   4.909  0.3306 -0.2197 -0.0019
    1DIPC   C4A13580  21.299  10.659   4.473 -0.2107  0.6123 -0.4329
    1DIPC   C1B13581  21.280  11.327   5.383 -0.0829 -0.0890 -0.0163
    1DIPC   D2B13582  21.228  11.356   4.919  0.1361 -0.2357 -0.0269
    1DIPC   D3B13583  21.527  11.628   4.679  0.0739 -0.1194 -0.0097
    1DIPC   C4B13584  21.621  11.698   4.256 -0.1300 -0.0664  0.3029
    1DIPC   NC313585  26.516   0.106   6.624 -0.0328 -0.0998 -0.1460
    1DIPC   PO413586  26.932   0.345   6.689 -0.1195 -0.0351 -0.1219
    1DIPC   GL113587  26.730   0.422   6.258 -0.0023 -0.1897 -0.0078
    1DIPC   GL213588  26.869   0.714   6.113 -0.0312 -0.1971 -0.5434
    1DIPC   C1A13589  26.246   0.663   6.012 -0.4627  0.2022 -0.0128
    1DIPC   D2A13590  25.850   0.611   5.847  0.0487 -0.0811  0.0201
    1DIPC   D3A13591  25.991   0.459   5.427  0.1492  0.1924 -0.0208
    1DIPC   C4A13592  26.449   0.545   5.426  0.1868  0.2256  0.1319
    1DIPC   C1B13593  26.927   0.607   5.738 -0.0299 -0.0243 -0.0860
    1DIPC   D2B13594  27.177   0.751   5.420  0.0834  0.2888  0.0334
    1DIPC   D3B13595  26.881   0.783   5.223 -0.1940 -0.4192  0.1362
    1DIPC   C4B13596  26.847   0.696   4.768  0.0046  0.5225  0.0510
    1DIPC   NC313597  29.620  24.755   6.511 -0.0433  0.1907 -0.3243
    1DIPC   PO413598  29.717  25.133   6.308  0.0336 -0.0945 -0.3365
    1DIPC   GL113599  29.417  25.148   5.974 -0.3808  0.1709  0.0224
    1DIPC   GL213600  29.135  25.054   5.995  0.1717  0.0803  0.0646
    1DIPC   C1A13601  29.444  25.175   5.512 -0.0385 -0.2577 -0.3010
    1DIPC   D2A13602  29.517  25.055   5.051 -0.0965 -0.0248  0.2344
    1DIPC   D3A13603  29.120  24.948   4.904  0.0383 -0.3478 -0.1398
    1DIPC   C4A13604  28.826  25.259   4.893  0.0351 -0.2728 -0.0807
    1DIPC   C1B13605  29.369  24.588   5.809  0.1154  0.1213  0.1999
    1DIPC   D2B13606  29.396  24.119   5.851  0.1162  0.1054 -0.1913
    1DIPC   D3B13607  29.403  23.831   5.450 -0.0382 -0.1498  0.0093
    1DIPC   C4B13608  29.448  23.965   5.056 -0.0681 -0.1797  0.2476
    1DIPC   NC313609   5.225   0.373   6.494  0.0378  0.3071  0.0657
    1DIPC   PO413610   5.480   0.693   6.759 -0.1622  0.0266 -0.0709
    1DIPC   GL113611   5.650   0.707   6.232 -0.0666 -0.0631  0.1828
    1DIPC   GL213612   6.071   0.591   6.176  0.1348 -0.1122 -0.2165
    1DIPC   C1A13613   5.745   0.727   5.775  0.1158  0.0511 -0.0893
    1DIPC   D2A13614   5.814   0.805   5.337 -0.0602  0.0162  0.1280
    1DIPC   D3A13615   5.436   0.992   5.045  0.0963  0.4742  0.1157
    1DIPC   C4A13616   5.258   1.080   4.640  0.0391 -0.3021 -0.1577
    1DIPC   C1B13617   6.243   0.796   5.746  0.0038 -0.3160  0.0938
    1DIPC   D2B13618   6.297   1.032   5.287  0.2053 -0.0869 -0.3043
    1DIPC   D3B13619   6.728   1.016   5.211  0.1756  0.3058 -0.1655
    1DIPC   C4B13620   6.987   1.389   5.346  0.3140  0.0935  0.1296
    1DIPC   NC313621  11.750  26.342   6.324 -0.2589  0.2414  0.0845
    1DIPC   PO413622  11.473  26.662   6.595 -0.0286 -0.0760  0.0737
    1DIPC   GL113623  11.657  26.856   6.243 -0.0803 -0.0205  0.1180
    1DIPC   GL213624  11.926  26.864   6.176  0.1075  0.1446  0.0989
    1DIPC   C1A13625  11.370  26.954   5.942  0.2865 -0.3166  0.1021
    1DIPC   D2A13626  11.253  27.218   5.599  0.0134 -0.1579 -0.0583
    1DIPC   D3A13627  11.312  27.601   5.761 -0.0748 -0.3117 -0.3572
    1DIPC   C4A13628  11.784  27.754   5.680 -0.0610 -0.0728  0.0223
    1DIPC   C1B13629  11.836  26.593   5.799 -0.1670 -0.0022  0.2601
    1DIPC   D2B13630  11.942  26.334   5.474 -0.0165  0.2748 -0.2269
    1DIPC   D3B13631  11.966  26.586   5.062  0.4414  0.1747 -0.1038
    1DIPC   C4B13632  11.629  26.848   4.985  0.0780  0.1640 -0.1132
    1DIPC   NC313633   7.420  20.035   5.788 -0.1392 -0.2122 -0.2225
    1DIPC   PO413634   7.375  19.655   5.433  0.0495  0.0103 -0.1497
    1DIPC   GL113635   7.666  19.685   5.106  0.0582  0.1140 -0.2588
    1DIPC   GL213636   7.463  19.535   4.915 -0.1742 -0.0638 -0.1445
    1DIPC   C1A13637   7.910  20.019   5.094  0.0769  0.0129 -0.2423
    1DIPC   D2A13638   8.359  20.033   4.818 -0.1054 -0.0076  0.3233
    1DIPC   D3A13639   8.313  19.670   4.462  0.2775  0.2650  0.1409
    1DIPC   C4A13640   7.957  19.542   4.192  0.0094 -0.0344 -0.1321
    1DIPC   C1B13641   7.239  19.786   4.634 -0.1249 -0.0225 -0.2374
    1DIPC   D2B13642   6.942  19.775   4.321  0.0863  0.0929  0.1902
    1DIPC   D3B13643   6.819  20.136   4.223 -0.0239 -0.2886  0.1220
    1DIPC   C4B13644   6.596  20.229   3.854 -0.1115  0.1621 -0.1297
    1DIPC   NC313645  26.788  11.285   6.185  0.0108  0.0375 -0.0735
    1DIPC   PO413646  27.030  11.674   6.125 -0.0743 -0.1955 -0.0155
    1DIPC   GL113647  26.945  11.669   5.720 -0.0845 -0.3487 -0.0777
    1DIPC   GL213648  27.024  11.492   5.456  0.3371 -0.1981 -0.0205
    1DIPC   C1A13649  26.666  11.909   5.407 -0.0820 -0.0704 -0.1032
    1DIPC   D2A13650  26.259  12.203   5.447 -0.2820  0.0001  0.2599
    1DIPC   D3A13651  26.344  12.570   5.119  0.0256  0.1798 -0.2187
    1DIPC   C4A13652  26.654  12.920   5.170  0.0612  0.4395 -0.0838
    1DIPC   C1B13653  27.072  11.836   5.110 -0.2272  0.3684 -0.1741
    1DIPC   D2B13654  27.034  11.751   4.643 -0.0312  0.0379 -0.1270
    1DIPC   D3B13655  27.301  11.605   4.376 -0.0351  0.1357 -0.0757
    1DIPC   C4B13656  27.445  11.168   4.262  0.2036 -0.2156  0.0993
    1DIPC   NC313657  24.390   9.320   6.626 -0.2430 -0.1979 -0.1826
    1DIPC   PO413658  24.331   8.851   6.434 -0.0536  0.1292 -0.1937
    1DIPC   GL113659  24.222   8.481   6.222 -0.0923  0.1840 -0.2799
    1DIPC   GL213660  24.205   8.678   5.953  0.3089  0.1787 -0.0017
    1DIPC   C1A13661  24.374   8.077   6.056  0.0818  0.1020 -0.0133
    1DIPC   D2A13662  24.456   7.956   5.605 -0.0845  0.1131 -0.0141
    1DIPC   D3A13663  24.450   8.188   5.334  0.1201 -0.2730 -0.0072
    1DIPC   C4A13664  24.738   8.040   4.966 -0.0380  0.1546  0.3651
    1DIPC   C1B13665  24.303   8.968   5.544 -0.1343 -0.0669 -0.2719
    1DIPC   D2B13666  24.628   9.095   5.131 -0.2940 -0.0734 -0.0968
    1DIPC   D3B13667  24.816   8.942   5.439 -0.0284  0.0411 -0.1451
    1DIPC   C4B13668  25.217   8.932   5.625  0.0544  0.0810  0.0571
    1DIPC   NC313669  22.583  20.816   6.967  0.0037  0.4281  0.1021
    1DIPC   PO413670  22.155  20.737   6.774  0.2375 -0.2847  0.2634
    1DIPC   GL113671  22.100  20.338   6.471 -0.0197 -0.0048  0.1548
    1DIPC   GL213672  21.842  20.466   6.381 -0.1663 -0.2070 -0.0546
    1DIPC   C1A13673  21.921  19.987   6.180 -0.0124 -0.0299  0.1140
    1DIPC   D2A13674  21.903  19.924   5.704  0.2898 -0.3617 -0.1768
    1DIPC   D3A13675  22.120  20.044   5.362  0.1831 -0.1247 -0.0279
    1DIPC   C4A13676  22.086  20.390   5.085  0.3073 -0.0439 -0.1220
    1DIPC   C1B13677  21.795  20.393   5.941  0.1540 -0.1935 -0.3831
    1DIPC   D2B13678  21.653  20.304   5.551 -0.0925 -0.1128 -0.0456
    1DIPC   D3B13679  22.109  20.489   5.560 -0.0789  0.0280 -0.0532
    1DIPC   C4B13680  22.278  20.511   6.034  0.0622  0.3040 -0.0209
    1CHOL   ROH13681  24.958   2.399   3.586 -0.0678 -0.0052 -0.1651
    1CHOL    R113682  25.052   2.397   3.853 -0.0375  0.0050 -0.1760
    1CHOL    R213683  24.882   2.375   4.071 -0.0048 -0.0849 -0.1604
    1CHOL    R313684  25.043   2.166   4.134  0.0861 -0.0274 -0.1982
    1CHOL    R413685  24.953   2.271   4.392  0.2626  0.0587 -0.1692
    1CHOL    R513686  25.159   2.238   4.331  0.2240  0.0758 -0.3140
    1CHOL    C113687  25.145   2.014   4.640  0.5039  0.1963 -0.2097
    1CHOL    C213688  24.952   1.845   4.866 -0.0474 -0.3225 -0.0407
    1CHOL   ROH13689   7.639  23.317   5.307  0.0417 -0.2276  0.0039
    1CHOL    R113690   7.602  23.482   5.080  0.1048  0.0673  0.2025
    1CHOL    R213691   7.782  23.678   5.008  0.4298 -0.2309  0.1790
    1CHOL    R313692   7.778  23.548   4.769 -0.1268 -0.0100  0.0522
    1CHOL    R413693   7.914  23.802   4.713  0.6237 -0.3484  0.2147
    1CHOL    R513694   7.741  23.721   4.608  0.2899  0.2710  0.2408
    1CHOL    C113695   7.987  23.752   4.318  0.2141 -0.2092  0.1164
    1CHOL    C213696   8.035  23.942   4.018 -0.0610 -0.2721  0.0061
    1CHOL   ROH13697  12.699   3.081   4.049 -0.1314  0.0593 -0.1608
    1CHOL    R113698  12.766   3.243   4.271  0.1256  0.0000 -0.1920
    1CHOL    R213699  12.621   3.240   4.506  0.0652  0.3311 -0.2234
    1CHOL    R313700  12.865   3.191   4.617 -0.0426 -0.0914 -0.1558
    1CHOL    R413701  12.688   3.246   4.845  0.0195  0.4398 -0.2151
    1CHOL    R513702  12.878   3.344   4.801  0.2394  0.0244 -0.2635
    1CHOL    C113703  12.956   3.202   5.147 -0.1083  0.1063 -0.1470
    1CHOL    C213704  12.886   3.371   5.476 -0.3242 -0.1340  0.0690
    1CHOL   ROH13705   8.944  15.195   5.937  0.1700  0.1551 -0.0728
    1CHOL    R113706   9.029  15.003   5.748  0.2502  0.1604 -0.0415
    1CHOL    R213707   8.860  14.895   5.559  0.2283 -0.1269  0.1389
    1CHOL    R313708   9.052  14.980   5.386  0.0043  0.0108 -0.0501
    1CHOL    R413709   8.867  14.822   5.221 -0.0360 -0.1444  0.1344
    1CHOL    R513710   9.083  14.794   5.237  0.0055  0.0216 -0.0662
    1CHOL    C113711   9.051  14.858   4.862 -0.4001 -0.0253 -0.0457
    1CHOL    C213712   9.110  14.590   4.633  0.3048 -0.5377  0.0721
    1CHOL   ROH13713   4.963  24.770   5.753 -0.0825 -0.2477 -0.1069
    1CHOL    R113714   4.898  24.895   5.508  0.0292 -0.1713 -0.0987
    1CHOL    R213715   4.974  24.792   5.263 -0.1249 -0.2659 -0.1086
    1CHOL    R313716   4.708  24.808   5.209 -0.1176  0.0467 -0.0713
    1CHOL    R413717   4.839  24.837   4.948 -0.1208 -0.2085 -0.1024
    1CHOL    R513718   4.693  24.973   5.036  0.0601  0.0072 -0.1264
    1CHOL    C113719   4.511  24.879   4.714 -0.1114  0.1184 -0.0638
    1CHOL    C213720   4.663  24.606   4.520  0.0442 -0.3282  0.2481
    1CHOL   ROH13721  18.655   9.451   5.890  0.0516 -0.1285 -0.0206
    1CHOL    R113722  18.808   9.480   5.653 -0.0144 -0.1241 -0.0640
    1CHOL    R213723  18.757   9.334   5.424 -0.1547 -0.0356 -0.0952
    1CHOL    R313724  18.746   9.580   5.309 -0.0895  0.0054 -0.0127
    1CHOL    R413725  18.746   9.391   5.084 -0.0159  0.0913 -0.0785
    1CHOL    R513726  18.882   9.559   5.113 -0.0161  0.0681  0.0344
    1CHOL    C113727  18.729   9.656   4.777  0.1261  0.2038  0.0086
    1CHOL    C213728  18.663   9.728   4.420 -0.0207  0.2000  0.1137
    1CHOL   ROH13729   7.910   1.507   5.358 -0.1195 -0.4145 -0.1130
    1CHOL    R113730   8.047   1.265   5.413  0.1011 -0.2767 -0.0425
    1CHOL    R213731   8.323   1.250   5.423  0.1169  0.0394  0.2662
    1CHOL    R313732   8.276   1.143   5.668 -0.0444 -0.0956  0.1771
    1CHOL    R413733   8.501   0.989   5.561 -0.0769 -0.1388  0.1833
    1CHOL    R513734   8.314   0.908   5.638 -0.1492 -0.0950  0.0476
    1CHOL    C113735   8.561   0.735   5.872 -0.3412 -0.3695  0.0515
    1CHOL    C213736   8.896   0.590   5.873 -0.0053  0.1072 -0.2110
    1CHOL   ROH13737   9.808   1.528   5.815 -0.1102  0.1554 -0.0766
    1CHOL    R113738   9.629   1.498   5.598 -0.1659  0.1617 -0.0296
    1CHOL    R213739   9.616   1.268   5.447 -0.0295  0.2625 -0.1826
    1CHOL    R313740   9.353   1.278   5.512 -0.0208 -0.0051 -0.0853
    1CHOL    R413741   9.359   1.145   5.251  0.0022  0.3957 -0.3118
    1CHOL    R513742   9.241   1.321   5.305 -0.1003  0.2505 -0.0014
    1CHOL    C113743   8.962   1.084   5.199  0.0290  0.2221 -0.2956
    1CHOL    C213744   8.737   1.331   5.104  0.0976  0.2478  0.1403
    1CHOL   ROH13745  11.003   8.466   3.621 -0.0007 -0.1141 -0.1943
    1CHOL    R113746  11.131   8.593   3.839  0.1405 -0.1529 -0.2534
    1CHOL    R213747  11.022   8.599   4.093  0.1325  0.1081 -0.2599
    1CHOL    R313748  11.262   8.492   4.163  0.0047 -0.1438 -0.1954
    1CHOL    R413749  11.125   8.541   4.418  0.0980  0.2741 -0.2186
    1CHOL    R513750  11.324   8.610   4.362  0.1858 -0.0371 -0.3128
    1CHOL    C113751  11.410   8.407   4.673 -0.0421  0.1343 -0.1340
    1CHOL    C213752  11.832   8.481   4.884 -0.0270 -0.0400 -0.0824
    1CHOL   ROH13753  11.970  15.847   2.843 -0.0309 -0.2698  0.0013
    1CHOL    R113754  11.824  15.817   3.084 -0.0386 -0.1654  0.0098
    1CHOL    R213755  11.824  15.581   3.230  0.0576 -0.0617  0.1769
    1CHOL    R313756  11.902  15.745   3.432 -0.0374  0.1178  0.0711
    1CHOL    R413757  11.827  15.497   3.565  0.1807  0.1271  0.2249
    1CHOL    R513758  11.753  15.696   3.612  0.0294  0.0988  0.1239
    1CHOL    C113759  11.902  15.602   3.950  0.1631  0.4056  0.1536
    1CHOL    C213760  11.891  15.536   4.262 -0.0812 -0.0770 -0.0081
    1CHOL   ROH13761  21.094   8.249   5.743 -0.2225 -0.0057 -0.1116
    1CHOL    R113762  21.224   8.131   5.522 -0.1106  0.0211 -0.0608
    1CHOL    R213763  21.097   7.954   5.351 -0.0196  0.0277 -0.1357
    1CHOL    R313764  21.181   8.129   5.160  0.0594  0.0488 -0.0822
    1CHOL    R413765  21.192   7.867   5.030  0.0044  0.0749 -0.1416
    1CHOL    R513766  21.354   8.011   5.044  0.0441  0.0261 -0.0827
    1CHOL    C113767  21.326   7.979   4.665  0.0927  0.1221 -0.0948
    1CHOL    C213768  21.337   8.273   4.391 -0.0462 -0.0527  0.1665
    1CHOL   ROH13769   6.230  19.799   5.379 -0.1303 -0.1114  0.2807
    1CHOL    R113770   6.136  19.600   5.200  0.0063 -0.2141  0.3238
    1CHOL    R213771   6.157  19.625   4.926 -0.2096 -0.1538  0.3175
    1CHOL    R313772   6.281  19.384   4.946  0.1163 -0.0032  0.2019
    1CHOL    R413773   6.220  19.413   4.661 -0.2174 -0.0768  0.2521
    1CHOL    R513774   6.166  19.245   4.789  0.1202 -0.1496  0.3191
    1CHOL    C113775   6.373  19.062   4.525  0.0840  0.1097  0.1054
    1CHOL    C213776   6.239  19.044   4.025  0.0757 -0.2571  0.1342
    1CHOL   ROH13777  14.147  17.878   6.079 -0.0771 -0.2572  0.0837
    1CHOL    R113778  14.140  17.967   5.810 -0.1642 -0.1495  0.1207
    1CHOL    R213779  14.321  17.881   5.620 -0.0817  0.1013  0.0801
    1CHOL    R313780  14.096  17.815   5.482 -0.0233 -0.0554  0.0578
    1CHOL    R413781  14.299  17.860   5.276 -0.0136 -0.0023  0.0819
    1CHOL    R513782  14.103  17.954   5.287 -0.0654 -0.1043  0.0226
    1CHOL    C113783  14.075  17.786   4.946  0.0808 -0.2099  0.0620
    1CHOL    C213784  14.084  17.912   4.597 -0.1702 -0.0965  0.0004
    1CHOL   ROH13785  19.039  21.902   4.427  0.1626 -0.0237 -0.1450
    1CHOL    R113786  19.136  21.635   4.429  0.1112 -0.0433  0.1079
    1CHOL    R213787  19.104  21.467   4.647 -0.2632  0.0429  0.1304
    1CHOL    R313788  18.992  21.303   4.462 -0.0082 -0.0009  0.0107
    1CHOL    R413789  19.043  21.131   4.693 -0.3519  0.0588  0.1293
    1CHOL    R513790  19.108  21.095   4.488 -0.0591 -0.0005  0.2319
    1CHOL    C113791  18.901  20.780   4.547 -0.1645  0.0272  0.0164
    1CHOL    C213792  18.857  20.614   4.209 -0.1166  0.2715 -0.2368
    1CHOL   ROH13793  11.002  16.039   2.741  0.0768  0.2104  0.0665
    1CHOL    R113794  10.996  16.128   3.010  0.3412  0.2063  0.0783
    1CHOL    R213795  10.842  16.004   3.204 -0.0097  0.5988  0.0788
    1CHOL    R313796  11.079  15.990   3.336 -0.0162 -0.0815  0.0515
    1CHOL    R413797  10.877  15.995   3.547  0.0323  0.5117  0.0722
    1CHOL    R513798  11.048  16.128   3.529  0.4187  0.0194  0.0492
    1CHOL    C113799  11.119  15.977   3.872  0.0506 -0.1774  0.0427
    1CHOL    C213800  10.957  15.832   4.117 -0.2223 -0.1483 -0.1239
    1CHOL   ROH13801  19.117  16.495   2.916 -0.1387 -0.0210  0.1380
    1CHOL    R113802  19.189  16.577   3.177 -0.0190 -0.1896  0.1606
    1CHOL    R213803  19.045  16.765   3.319  0.3112  0.0792  0.1660
    1CHOL    R313804  19.037  16.569   3.508 -0.0931  0.0565  0.1318
    1CHOL    R413805  18.991  16.818   3.657  0.1311  0.0815  0.1366
    1CHOL    R513806  19.142  16.667   3.700 -0.1063 -0.1265  0.2266
    1CHOL    C113807  18.952  16.665   4.030 -0.3531  0.0615  0.0874
    1CHOL    C213808  19.050  16.709   4.315 -0.1690 -0.0930 -0.0018
    1CHOL   ROH13809   9.058  17.337   2.582 -0.1334 -0.1271  0.0992
    1CHOL    R113810   8.821  17.272   2.722 -0.0846 -0.1207  0.1837
    1CHOL    R213811   8.821  17.125   2.956  0.0137  0.0584  0.2953
    1CHOL    R313812   8.683  17.338   3.052 -0.0642  0.0734  0.1558
    1CHOL    R413813   8.663  17.134   3.263  0.1140  0.2411  0.3435
    1CHOL    R513814   8.498  17.240   3.169  0.0245  0.0742  0.3041
    1CHOL    C113815   8.442  17.340   3.533  0.0993  0.3613  0.2405
    1CHOL    C213816   8.021  17.265   3.601  0.1388  0.0811 -0.2393
    1CHOL   ROH13817  10.681   1.363   3.750  0.0027  0.0992 -0.0766
    1CHOL    R113818  10.740   1.212   3.982 -0.0312  0.0471 -0.1019
    1CHOL    R213819  10.931   1.292   4.166  0.1362 -0.1316 -0.1965
    1CHOL    R313820  10.725   1.264   4.341  0.1927  0.0727 -0.0945
    1CHOL    R413821  10.960   1.310   4.510  0.2729  0.1320 -0.2191
    1CHOL    R513822  10.820   1.145   4.526  0.2247  0.1876 -0.0346
    1CHOL    C113823  10.784   1.295   4.875  0.4057  0.4772 -0.1365
    1CHOL    C213824  10.564   1.097   5.230  0.0246 -0.0233 -0.2143
    1CHOL   ROH13825  12.089  16.292   2.787  0.1187 -0.1266  0.1509
    1CHOL    R113826  11.979  16.279   3.047  0.0465 -0.2883  0.1152
    1CHOL    R213827  12.088  16.125   3.249  0.2061 -0.1375  0.1552
    1CHOL    R313828  12.087  16.360   3.385 -0.1768 -0.1314  0.1497
    1CHOL    R413829  12.122  16.156   3.591  0.1827 -0.0618  0.1498
    1CHOL    R513830  11.970  16.311   3.588 -0.0777 -0.3170  0.1584
    1CHOL    C113831  12.141  16.394   3.918 -0.1904 -0.0122  0.1415
    1CHOL    C213832  12.107  16.428   4.353  0.5003 -0.1339  0.0735
    1CHOL   ROH13833   6.224  27.973   3.870 -0.1339  0.1590  0.1044
    1CHOL    R113834   6.340  27.821   4.080 -0.2321 -0.0032  0.0425
    1CHOL    R213835   6.521  27.928   4.259  0.0684 -0.2695 -0.0930
    1CHOL    R313836   6.345  27.833   4.443  0.0373  0.0352  0.0394
    1CHOL    R413837   6.563  27.947   4.602  0.2005 -0.0479 -0.1198
    1CHOL    R513838   6.482  27.745   4.618  0.0136  0.0375  0.0595
    1CHOL    C113839   6.422  27.869   4.974  0.2482  0.3674 -0.0112
    1CHOL    C213840   6.561  27.661   5.226 -0.2086  0.1137 -0.4186
    1CHOL   ROH13841  14.411   8.925   3.295 -0.3497  0.0379  0.0323
    1CHOL    R113842  14.468   8.888   3.570 -0.2309  0.0443  0.0085
    1CHOL    R213843  14.440   9.090   3.756 -0.1247  0.0551  0.0108
    1CHOL    R313844  14.284   8.907   3.883 -0.0886  0.0789  0.0919
    1CHOL    R413845  14.434   9.038   4.098  0.0789  0.0258  0.0113
    1CHOL    R513846  14.421   8.824   4.060  0.0056  0.0307 -0.0016
    1CHOL    C113847  14.284   8.836   4.416  0.2314  0.0312  0.0879
    1CHOL    C213848  14.537   9.013   4.556  0.0862  0.1630  0.1363
    1CHOL   ROH13849   2.707  15.790   2.800  0.0284 -0.0727 -0.1195
    1CHOL    R113850   2.706  15.645   3.043 -0.1664 -0.1137 -0.1442
    1CHOL    R213851   2.727  15.767   3.290  0.0132 -0.1833 -0.1294
    1CHOL    R313852   2.499  15.630   3.342 -0.1799  0.1239 -0.1379
    1CHOL    R413853   2.633  15.654   3.602  0.0802 -0.4269 -0.1943
    1CHOL    R513854   2.563  15.470   3.509 -0.3011 -0.2039 -0.3884
    1CHOL    C113855   2.363  15.460   3.833 -0.0621 -0.2802 -0.2400
    1CHOL    C213856   2.106  15.180   3.972 -0.3245  0.1051 -0.3170
    1CHOL   ROH13857  12.257  17.275   3.145 -0.0164 -0.1159  0.0323
    1CHOL    R113858  12.311  17.391   3.398 -0.0337 -0.0686  0.0134
    1CHOL    R213859  12.112  17.473   3.570 -0.0432 -0.0985  0.0088
    1CHOL    R313860  12.241  17.311   3.746  0.0065 -0.0378  0.0303
    1CHOL    R413861  12.111  17.513   3.914 -0.0016 -0.0033 -0.0011
    1CHOL    R513862  12.322  17.459   3.915  0.0118  0.0242 -0.0201
    1CHOL    C113863  12.232  17.383   4.278  0.0691  0.1091  0.0132
    1CHOL    C213864  12.425  17.328   4.568 -0.0239  0.1783 -0.1691
    1CHOL   ROH13865  18.010  14.622   6.223  0.0642  0.2009  0.0760
    1CHOL    R113866  18.201  14.744   6.053 -0.0374  0.1908 -0.0468
    1CHOL    R213867  18.391  14.598   5.914  0.0330  0.2022  0.0386
    1CHOL    R313868  18.288  14.729   5.700 -0.0814 -0.0279 -0.0505
    1CHOL    R413869  18.536  14.610   5.601  0.0071  0.0865  0.0221
    1CHOL    R513870  18.479  14.819   5.587 -0.1535  0.0372 -0.1250
    1CHOL    C113871  18.524  14.739   5.217 -0.1152 -0.1969 -0.0712
    1CHOL    C213872  18.613  14.854   4.840  0.1077  0.2744  0.0766
    1CHOL   ROH13873  23.544  18.868   3.272 -0.0461  0.2211 -0.0454
    1CHOL    R113874  23.538  18.839   3.554 -0.1407  0.0107 -0.0673
    1CHOL    R213875  23.438  18.613   3.678  0.0047 -0.1714 -0.2739
    1CHOL    R313876  23.682  18.611   3.799 -0.0427 -0.0434 -0.1734
    1CHOL    R413877  23.507  18.456   3.978  0.0185 -0.3430 -0.3654
    1CHOL    R513878  23.631  18.627   4.033 -0.1590 -0.2699 -0.1795
    1CHOL    C113879  23.776  18.363   4.266 -0.0180 -0.3229 -0.3243
    1CHOL    C213880  23.786  18.063   4.552 -0.2006 -0.2490 -0.0799
    1CHOL   ROH13881   8.312  27.870   6.145 -0.0068 -0.1080 -0.1449
    1CHOL    R113882   8.382  27.973   5.891 -0.2073 -0.0330 -0.1755
    1CHOL    R213883   8.197  28.085   5.720 -0.3203  0.2345  0.0850
    1CHOL    R313884   8.368  28.296   5.724 -0.1216  0.0725  0.0289
    1CHOL    R413885   8.260  28.295   5.453  0.0025  0.0450  0.0105
    1CHOL    R513886   8.471  28.295   5.508 -0.0354 -0.1262  0.0838
    1CHOL    C113887   8.458  28.616   5.302  0.3771 -0.2172 -0.0856
    1CHOL    C213888   8.466  28.887   4.903  0.2458  0.0151  0.1593
    1CHOL   ROH13889  17.323  15.342   2.632  0.0906  0.0456  0.0101
    1CHOL    R113890  17.196  15.273   2.875  0.0164  0.2905  0.0435
    1CHOL    R213891  17.301  15.087   3.051 -0.3034  0.0630  0.0032
    1CHOL    R313892  17.275  15.290   3.230  0.1579  0.1151  0.0216
    1CHOL    R413893  17.372  15.063   3.388 -0.3605 -0.1326  0.0026
    1CHOL    R513894  17.195  15.184   3.429 -0.0926  0.2748  0.0101
    1CHOL    C113895  17.390  15.240   3.753  0.0395 -0.1978  0.0195
    1CHOL    C213896  17.612  15.122   4.145  0.1387 -0.2692 -0.0347
    1CHOL   ROH13897  15.874   5.111   5.777 -0.1967  0.0675  0.1077
    1CHOL    R113898  15.807   5.259   5.546 -0.0013 -0.0193 -0.0095
    1CHOL    R213899  15.548   5.342   5.492  0.0275 -0.0673 -0.2826
    1CHOL    R313900  15.666   5.587   5.473  0.0203 -0.0635 -0.2468
    1CHOL    R413901  15.494   5.569   5.237  0.1492 -0.0858 -0.3231
    1CHOL    R513902  15.707   5.615   5.239  0.1365 -0.0739 -0.2215
    1CHOL    C113903  15.573   5.930   5.070  0.2131 -0.0929 -0.3132
    1CHOL    C213904  15.598   6.297   4.830  0.1765 -0.1829 -0.0943
    1CHOL   ROH13905  13.913  27.689   3.752  0.2159  0.1484  0.0294
    1CHOL    R113906  13.848  27.742   4.023  0.0654  0.0197  0.0206
    1CHOL    R213907  13.939  27.966   4.156 -0.0009 -0.0477  0.1823
    1CHOL    R313908  13.675  28.004   4.207 -0.0276 -0.0626  0.0515
    1CHOL    R413909  13.812  28.135   4.430 -0.1437 -0.3455  0.3036
    1CHOL    R513910  13.656  27.984   4.445 -0.1838 -0.3408  0.0220
    1CHOL    C113911  13.490  28.269   4.636 -0.2521 -0.5328  0.2514
    1CHOL    C213912  13.384  28.506   4.826  0.2487  0.1384  0.0772
    1CHOL   ROH13913  15.209  18.129   5.864 -0.2117 -0.0428 -0.1489
    1CHOL    R113914  15.212  18.200   5.590 -0.0955 -0.1196 -0.1672
    1CHOL    R213915  15.409  18.113   5.416 -0.0158 -0.1569 -0.0547
    1CHOL    R313916  15.198  18.024   5.271  0.0537 -0.2086 -0.1266
    1CHOL    R413917  15.411  18.065   5.074  0.1214 -0.1788 -0.0523
    1CHOL    R513918  15.209  18.148   5.067  0.1053 -0.2179 -0.1314
    1CHOL    C113919  15.213  17.953   4.739  0.2663 -0.2403 -0.1184
    1CHOL    C213920  15.027  17.891   4.520 -0.0063 -0.1739 -0.2079
    1CHOL   ROH13921  11.866  25.878   3.278  0.1638 -0.0248 -0.0460
    1CHOL    R113922  11.955  25.708   3.486  0.0019  0.1681  0.1896
    1CHOL    R213923  11.814  25.674   3.722 -0.4948 -0.0423 -0.1114
    1CHOL    R313924  11.831  25.411   3.656  0.1310 -0.0308 -0.0599
    1CHOL    R413925  11.744  25.413   3.937 -0.1481 -0.1744 -0.1535
    1CHOL    R513926  11.915  25.306   3.854  0.1643  0.1742  0.0306
    1CHOL    C113927  11.718  25.014   4.000  0.6412 -0.2404 -0.1297
    1CHOL    C213928  11.792  24.816   4.304  0.1946 -0.0525  0.1186
    1CHOL   ROH13929  18.045  27.720   3.772 -0.0026  0.2281 -0.0037
    1CHOL    R113930  18.220  27.775   3.987  0.0522  0.1520 -0.0287
    1CHOL    R213931  18.381  27.582   4.101 -0.0493  0.0727 -0.0254
    1CHOL    R313932  18.579  27.762   4.048  0.0525 -0.0478 -0.0630
    1CHOL    R413933  18.662  27.632   4.297 -0.1609  0.1464  0.1188
    1CHOL    R513934  18.642  27.846   4.263 -0.0614  0.1269 -0.0937
    1CHOL    C113935  19.010  27.829   4.361 -0.1308  0.0763  0.1674
    1CHOL    C213936  19.332  28.028   4.553  0.1723 -0.0933  0.1812
    1CHOL   ROH13937   8.235  23.114   3.006  0.0026 -0.1262  0.0610
    1CHOL    R113938   8.405  23.112   3.232  0.0985 -0.1424 -0.0100
    1CHOL    R213939   8.308  23.091   3.491  0.1906  0.0613  0.0452
    1CHOL    R313940   8.480  22.881   3.504  0.0347 -0.0666  0.0718
    1CHOL    R413941   8.488  23.000   3.772  0.2001  0.0186  0.0253
    1CHOL    R513942   8.659  22.959   3.643  0.1332 -0.1572 -0.0056
    1CHOL    C113943   8.754  22.750   3.947  0.0592 -0.1265  0.0387
    1CHOL    C213944   8.536  22.642   4.256  0.0489  0.2032 -0.2706
    1CHOL   ROH13945   4.823  19.267   5.414 -0.1456 -0.3361  0.1180
    1CHOL    R113946   4.735  19.129   5.184 -0.0531 -0.1949 -0.0043
    1CHOL    R213947   4.476  19.036   5.156 -0.0265 -0.2281 -0.1411
    1CHOL    R313948   4.484  19.179   4.925  0.0100 -0.0660 -0.0416
    1CHOL    R413949   4.274  18.978   4.882  0.0284 -0.0501 -0.2206
    1CHOL    R513950   4.446  19.016   4.754  0.0516  0.0493 -0.1629
    1CHOL    C113951   4.163  19.079   4.506  0.0946  0.2057 -0.1735
    1CHOL    C213952   4.171  19.191   4.167  0.2172 -0.2233 -0.2052
    1CHOL   ROH13953  27.875  12.444   3.589  0.0673  0.0484 -0.0132
    1CHOL    R113954  28.047  12.335   3.786 -0.0202  0.2182  0.1599
    1CHOL    R213955  27.953  12.227   4.022 -0.1741 -0.0605 -0.0262
    1CHOL    R313956  28.097  12.011   3.943  0.2876  0.2061  0.0459
    1CHOL    R413957  28.089  11.993   4.236 -0.4121 -0.1488  0.0324
    1CHOL    R513958  28.267  11.989   4.110 -0.0829  0.2228  0.4478
    1CHOL    C113959  28.304  11.653   4.286 -0.1174  0.0501  0.1343
    1CHOL    C213960  28.655  11.533   4.311  0.0418 -0.0442 -0.1624
    1CHOL   ROH13961  22.946  19.745   3.529 -0.1292  0.1441  0.1373
    1CHOL    R113962  23.053  19.613   3.756 -0.0671  0.1248  0.0965
    1CHOL    R213963  23.240  19.731   3.921 -0.0279  0.1128  0.0580
    1CHOL    R313964  23.060  19.669   4.115  0.0254  0.0891  0.1011
    1CHOL    R413965  23.316  19.573   4.219  0.0628  0.1050  0.0315
    1CHOL    R513966  23.133  19.457   4.199  0.0657  0.0899  0.0724
    1CHOL    C113967  23.191  19.423   4.575  0.1658  0.0782  0.0566
    1CHOL    C213968  23.258  19.239   4.801  0.0523 -0.0642 -0.1026
    1CHOL   ROH13969  13.820  14.378   2.900  0.2425 -0.1196 -0.1129
    1CHOL    R113970  13.795  14.464   3.168  0.4478 -0.0334 -0.1198
    1CHOL    R213971  13.616  14.350   3.345  0.1371  0.4299 -0.1204
    1CHOL    R313972  13.838  14.316   3.498  0.0565 -0.1303 -0.1074
    1CHOL    R413973  13.616  14.323   3.690  0.0465  0.4101 -0.1215
    1CHOL    R513974  13.796  14.446   3.694  0.3640 -0.0269 -0.1040
    1CHOL    C113975  13.825  14.275   4.034 -0.0819 -0.1274 -0.1099
    1CHOL    C213976  13.960  14.459   4.309 -0.0856  0.5387  0.1934
    1CHOL   ROH13977  15.939   9.686   6.095 -0.1140 -0.2265 -0.0758
    1CHOL    R113978  15.780   9.603   5.877 -0.1680 -0.1025 -0.0838
    1CHOL    R213979  15.665   9.781   5.701 -0.1549 -0.0061  0.0077
    1CHOL    R313980  15.793   9.631   5.514 -0.2214  0.0390 -0.0761
    1CHOL    R413981  15.622   9.811   5.359 -0.2508  0.1081  0.0286
    1CHOL    R513982  15.628   9.594   5.344 -0.2760  0.1093 -0.0416
    1CHOL    C113983  15.717   9.687   4.985 -0.3690  0.2169 -0.0378
    1CHOL    C213984  15.845   9.945   4.713 -0.0318 -0.1260 -0.3325
    1CHOL   ROH13985  10.814  14.689   2.841 -0.0392 -0.1103  0.0324
    1CHOL    R113986  10.730  14.665   3.110 -0.1033 -0.0053  0.0216
    1CHOL    R213987  10.905  14.689   3.323 -0.1157 -0.1366  0.0418
    1CHOL    R313988  10.726  14.877   3.406  0.0370  0.0322 -0.0013
    1CHOL    R413989  10.861  14.787   3.651 -0.1881 -0.1955  0.0509
    1CHOL    R513990  10.645  14.793   3.616 -0.1699  0.0473 -0.0691
    1CHOL    C113991  10.668  15.020   3.921 -0.0869 -0.0713  0.0156
    1CHOL    C213992  10.568  14.917   4.304  0.0959 -0.1489 -0.0382
    1CHOL   ROH13993   5.749  14.070   5.568 -0.0372 -0.1339 -0.0889
    1CHOL    R113994   5.952  13.904   5.459  0.0248 -0.0880 -0.0410
    1CHOL    R213995   6.061  13.692   5.598 -0.0628 -0.1442 -0.0698
    1CHOL    R313996   5.989  13.552   5.376  0.0732 -0.0541 -0.1745
    1CHOL    R413997   6.230  13.417   5.475 -0.1728 -0.3060  0.1324
    1CHOL    R513998   6.197  13.493   5.273  0.1571 -0.2522  0.0861
    1CHOL    C113999   6.260  13.125   5.195 -0.1092 -0.3157  0.1519
    1CHOL    C214000   6.421  12.818   5.559  0.1088  0.2266 -0.0379
    1CHOL   ROH14001  19.664  20.085   3.164 -0.1337 -0.0869 -0.1661
    1CHOL    R114002  19.508  19.989   3.381 -0.1476  0.1576 -0.0639
    1CHOL    R214003  19.605  19.808   3.565 -0.3416 -0.0834 -0.1888
    1CHOL    R314004  19.527  19.997   3.744  0.1686  0.0332 -0.0759
    1CHOL    R414005  19.567  19.755   3.904 -0.4239 -0.1653 -0.2107
    1CHOL    R514006  19.388  19.879   3.899 -0.1164  0.3042 -0.1191
    1CHOL    C114007  19.472  19.902   4.270  0.0072 -0.1034 -0.1175
    1CHOL    C214008  19.263  19.902   4.669  0.0623 -0.0917 -0.0643
    1CHOL   ROH14009  15.913  21.265   6.003 -0.0552 -0.2257  0.1675
    1CHOL    R114010  15.966  21.300   5.727 -0.3197 -0.0544  0.1375
    1CHOL    R214011  16.141  21.138   5.586 -0.1527  0.2811 -0.0347
    1CHOL    R314012  15.927  21.104   5.423 -0.2175 -0.0308  0.1058
    1CHOL    R414013  16.158  21.035   5.257 -0.1792  0.5325 -0.1190
    1CHOL    R514014  16.002  21.179   5.209 -0.5128  0.2711  0.0922
    1CHOL    C114015  15.967  20.942   4.912 -0.2553  0.3862 -0.0362
    1CHOL    C214016  16.235  20.815   4.627 -0.0244 -0.4544 -0.4641
    1CHOL   ROH14017  15.077  10.362   2.942  0.1980  0.0793 -0.0824
    1CHOL    R114018  15.220  10.538   3.112  0.1666 -0.0212  0.0499
    1CHOL    R214019  15.095  10.719   3.279  0.1383  0.0799 -0.0783
    1CHOL    R314020  15.245  10.598   3.470 -0.1364 -0.0276  0.0740
    1CHOL    R414021  15.140  10.839   3.600  0.1544  0.2147 -0.1305
    1CHOL    R514022  15.349  10.779   3.588  0.0751 -0.1063  0.0111
    1CHOL    C114023  15.307  10.795   3.966 -0.0941  0.1923 -0.0180
    1CHOL    C214024  15.198  10.645   4.316 -0.0503  0.1511  0.1380
    1CHOL   ROH14025  10.028  14.266   2.752 -0.3855 -0.0262 -0.1463
    1CHOL    R114026   9.923  14.266   3.015 -0.2417 -0.2201 -0.0868
    1CHOL    R214027  10.039  14.125   3.222  0.1008 -0.0589 -0.1653
    1CHOL    R314028  10.037  14.367   3.345 -0.2156 -0.0700 -0.1403
    1CHOL    R414029  10.011  14.172   3.563  0.1717 -0.1429 -0.1469
    1CHOL    R514030   9.879  14.341   3.523 -0.1071 -0.3331 -0.0746
    1CHOL    C114031   9.992  14.427   3.877 -0.0839 -0.2021 -0.1126
    1CHOL    C214032   9.977  14.459   4.239 -0.2455 -0.1307 -0.1184
    1CHOL   ROH14033   8.198  27.214   4.681  0.1229 -0.0562 -0.0535
    1CHOL    R114034   8.355  27.449   4.672  0.0777 -0.0231  0.0094
    1CHOL    R214035   8.244  27.702   4.650  0.0313 -0.0416  0.0221
    1CHOL    R314036   8.391  27.751   4.873 -0.0226 -0.0432  0.0579
    1CHOL    R414037   8.330  28.016   4.765  0.1602 -0.0475 -0.0565
    1CHOL    R514038   8.527  27.939   4.815  0.1004 -0.1370  0.0414
    1CHOL    C114039   8.518  28.245   5.041  0.1846 -0.0527 -0.0686
    1CHOL    C214040   8.903  28.292   5.237  0.1951  0.2387 -0.1055
    1CHOL   ROH14041  18.522  12.651   6.042  0.1065  0.0568  0.2284
    1CHOL    R114042  18.602  12.730   5.783  0.0742  0.0995  0.2319
    1CHOL    R214043  18.661  12.548   5.583  0.1454  0.1321  0.2262
    1CHOL    R314044  18.476  12.690   5.444  0.0892  0.0645  0.2296
    1CHOL    R414045  18.656  12.582   5.239  0.0984  0.0871  0.2217
    1CHOL    R514046  18.600  12.791   5.266  0.0434  0.0771  0.2026
    1CHOL    C114047  18.479  12.736   4.908  0.0185 -0.0026  0.2222
    1CHOL    C214048  18.289  12.767   4.572  0.1465 -0.3739 -0.1813
    1CHOL   ROH14049   8.193  13.327   3.047 -0.0573  0.2347 -0.1030
    1CHOL    R114050   8.261  13.269   3.316 -0.2012  0.2736 -0.0575
    1CHOL    R214051   8.520  13.215   3.396 -0.2835  0.0044  0.0379
    1CHOL    R314052   8.473  13.416   3.573 -0.0998  0.1416 -0.0646
    1CHOL    R414053   8.675  13.247   3.703 -0.2456  0.0266  0.0165
    1CHOL    R514054   8.484  13.309   3.788 -0.1896  0.2427 -0.0087
    1CHOL    C114055   8.721  13.454   4.048 -0.0510  0.1682 -0.0922
    1CHOL    C214056   8.836  13.187   4.323 -0.0903  0.1783 -0.4153
    1CHOL   ROH14057  15.487   7.161   3.553 -0.1037 -0.0550  0.0469
    1CHOL    R114058  15.646   7.249   3.770 -0.0911  0.1281 -0.0366
    1CHOL    R214059  15.562   7.443   3.948 -0.2368  0.0049  0.0184
    1CHOL    R314060  15.619   7.253   4.133  0.1109  0.0659 -0.0173
    1CHOL    R414061  15.710   7.504   4.254 -0.4117  0.2459  0.0596
    1CHOL    R514062  15.828   7.323   4.227 -0.0329  0.4742  0.0350
    1CHOL    C114063  15.851   7.361   4.606 -0.1870  0.4434  0.0500
    1CHOL    C214064  15.862   7.183   4.969  0.2131  0.1316 -0.2682
    1CHOL   ROH14065  15.989  17.172   2.746  0.0011 -0.1043  0.0631
    1CHOL    R114066  16.058  17.277   3.000  0.0171  0.0038  0.0157
    1CHOL    R214067  15.874  17.403   3.164  0.0185  0.0514 -0.0119
    1CHOL    R314068  15.958  17.219   3.345  0.0571  0.1283  0.0474
    1CHOL    R414069  15.758  17.377   3.488  0.0854  0.1760  0.0221
    1CHOL    R514070  15.961  17.337   3.553  0.0949  0.2084 -0.0016
    1CHOL    C114071  15.769  17.188   3.847  0.1604  0.3209  0.0974
    1CHOL    C214072  15.784  17.405   4.018  0.0617 -0.0828  0.2851
    1CHOL   ROH14073  21.171  12.596   5.793  0.0380 -0.1493 -0.0278
    1CHOL    R114074  21.100  12.756   5.571 -0.1067 -0.0525  0.0871
    1CHOL    R214075  21.166  12.689   5.311  0.0734  0.2571  0.0504
    1CHOL    R314076  20.899  12.718   5.270  0.0422 -0.0691 -0.0126
    1CHOL    R414077  21.016  12.721   5.001  0.1533  0.4019  0.0256
    1CHOL    R514078  20.883  12.872   5.086 -0.0948  0.1262  0.1540
    1CHOL    C114079  20.678  12.768   4.782  0.1704  0.1801 -0.0481
    1CHOL    C214080  20.756  12.750   4.394  0.0465 -0.0158 -0.0518
    1CHOL   ROH14081  18.591  12.614   2.647  0.1589 -0.0826  0.0163
    1CHOL    R114082  18.731  12.552   2.885  0.1470 -0.1138  0.0151
    1CHOL    R214083  18.683  12.681   3.124  0.1462 -0.1353  0.0241
    1CHOL    R314084  18.647  12.427   3.217  0.1298 -0.1417  0.0012
    1CHOL    R414085  18.713  12.586   3.455 -0.0954 -0.1144  0.0541
    1CHOL    R514086  18.813  12.404   3.389  0.0022 -0.0959  0.1363
    1CHOL    C114087  18.698  12.294   3.735 -0.2514 -0.1081  0.0502
    1CHOL    C214088  18.843  12.194   4.105 -0.0703 -0.2297 -0.0870
    1CHOL   ROH14089  22.670  16.045   5.610  0.1469 -0.0483 -0.0045
    1CHOL    R114090  22.672  16.020   5.328  0.1334 -0.1345  0.0034
    1CHOL    R214091  22.725  16.233   5.160 -0.0763 -0.1409 -0.0685
    1CHOL    R314092  22.915  16.066   5.061  0.0596 -0.0041 -0.0427
    1CHOL    R414093  22.843  16.237   4.835 -0.1633 -0.1640 -0.1014
    1CHOL    R514094  22.844  16.020   4.837  0.0438 -0.1670 -0.0074
    1CHOL    C114095  23.091  16.083   4.553 -0.0863 -0.0491 -0.0964
    1CHOL    C214096  23.281  15.830   4.384 -0.1201 -0.0366  0.0134
    1CHOL   ROH14097  26.548  11.346   5.513  0.2710 -0.0233 -0.1094
    1CHOL    R114098  26.479  11.481   5.274  0.0896  0.0007 -0.0448
    1CHOL    R214099  26.654  11.505   5.061 -0.0477  0.0828 -0.1459
    1CHOL    R314100  26.448  11.395   4.921 -0.1041  0.0562 -0.0435
    1CHOL    R414101  26.633  11.492   4.716 -0.1715  0.0083 -0.1366
    1CHOL    R514102  26.421  11.539   4.732 -0.1683  0.0185 -0.0668
    1CHOL    C114103  26.428  11.382   4.384 -0.2966 -0.0598 -0.0351
    1CHOL    C214104  26.840  11.342   4.212 -0.0846  0.1160 -0.0055
    1CHOL   ROH14105  20.529   4.798   6.206  0.2025  0.0068 -0.0916
    1CHOL    R114106  20.583   4.808   5.928 -0.0471  0.0510 -0.1405
    1CHOL    R214107  20.404   4.912   5.746 -0.0581  0.4342  0.0827
    1CHOL    R314108  20.617   5.066   5.674  0.1326  0.1245 -0.0448
    1CHOL    R414109  20.441   5.068   5.439 -0.0992  0.5140  0.1173
    1CHOL    R514110  20.653   5.015   5.443 -0.1719  0.1650 -0.1074
    1CHOL    C114111  20.662   5.304   5.194  0.0559  0.2697  0.0177
    1CHOL    C214112  20.471   5.501   4.917  0.1341 -0.1643 -0.4201
    1CHOL   ROH14113  18.075  13.657   4.028  0.0065  0.0102  0.0406
    1CHOL    R114114  17.818  13.730   3.933  0.0437  0.0923  0.0017
    1CHOL    R214115  17.599  13.562   3.950  0.0457  0.0544 -0.2763
    1CHOL    R314116  17.487  13.774   4.076 -0.0241 -0.0858 -0.0977
    1CHOL    R414117  17.260  13.625   3.968  0.0350  0.0256 -0.3765
    1CHOL    R514118  17.302  13.836   3.937  0.0448  0.0622 -0.1235
    1CHOL    C114119  16.957  13.861   4.096 -0.0367 -0.1228 -0.2671
    1CHOL    C214120  16.603  13.915   4.302 -0.0310 -0.0803  0.2480
    1CHOL   ROH14121  12.621  11.694   6.609 -0.1556  0.0148  0.1742
    1CHOL    R114122  12.470  11.659   6.372 -0.0978  0.0655  0.1279
    1CHOL    R214123  12.439  11.860   6.185  0.0566  0.0692  0.0934
    1CHOL    R314124  12.534  11.672   6.014  0.0274  0.0051  0.1498
    1CHOL    R414125  12.363  11.842   5.848 -0.0484 -0.1139  0.1266
    1CHOL    R514126  12.350  11.625   5.868 -0.0059 -0.0992  0.2330
    1CHOL    C114127  12.408  11.655   5.492 -0.1369 -0.2806  0.1989
    1CHOL    C214128  12.352  11.890   5.191 -0.0249  0.0381  0.2107
    1CHOL   ROH14129   8.130  22.431   5.560  0.0855 -0.1810  0.2084
    1CHOL    R114130   8.252  22.301   5.340 -0.0112 -0.0772  0.0923
    1CHOL    R214131   8.190  22.363   5.078 -0.0445  0.1267  0.1472
    1CHOL    R314132   8.459  22.397   5.056 -0.0350  0.0387  0.1137
    1CHOL    R414133   8.372  22.322   4.786 -0.1167  0.2232  0.0877
    1CHOL    R514134   8.529  22.227   4.904 -0.1284  0.0978  0.0029
    1CHOL    C114135   8.730  22.331   4.597 -0.1498  0.1965  0.0216
    1CHOL    C214136   9.043  21.992   4.503 -0.0383  0.1944 -0.1681
    1CHOL   ROH14137  11.308  20.494   3.035 -0.0951 -0.2213 -0.0973
    1CHOL    R114138  11.204  20.550   3.292 -0.0017 -0.0844 -0.0872
    1CHOL    R214139  11.089  20.356   3.452 -0.1845  0.0484 -0.0466
    1CHOL    R314140  11.271  20.443   3.634 -0.0625 -0.1205 -0.0876
    1CHOL    R414141  11.066  20.307   3.793 -0.2874  0.2996 -0.0165
    1CHOL    R514142  11.140  20.510   3.822  0.0272  0.2044 -0.1393
    1CHOL    C114143  11.224  20.360   4.163 -0.2328  0.2875 -0.0375
    1CHOL    C214144  11.312  20.359   4.556 -0.2773 -0.4708  0.0491
    1CHOL   ROH14145  23.207  18.319   3.398  0.0989 -0.0805 -0.0082
    1CHOL    R114146  23.086  18.137   3.578  0.0055 -0.0107  0.0012
    1CHOL    R214147  23.148  18.130   3.847  0.0985 -0.1150 -0.0188
    1CHOL    R314148  22.880  18.158   3.877  0.1320  0.1156  0.0799
    1CHOL    R414149  22.964  18.001   4.109  0.0298 -0.2769 -0.1456
    1CHOL    R514150  22.808  17.948   3.967 -0.0575  0.0667 -0.1796
    1CHOL    C114151  22.605  17.952   4.290  0.0213 -0.1547 -0.1268
    1CHOL    C214152  22.359  18.157   4.535 -0.1259  0.0849  0.1845
    1CHOL   ROH14153  12.109   8.020   6.423 -0.1697  0.0675 -0.0398
    1CHOL    R114154  12.123   7.885   6.175 -0.0873 -0.0101  0.0073
    1CHOL    R214155  11.898   7.790   6.044 -0.0504  0.0360 -0.0817
    1CHOL    R314156  11.996   7.937   5.837  0.1122 -0.0640 -0.0785
    1CHOL    R414157  11.809   7.748   5.713 -0.2596  0.2655 -0.0587
    1CHOL    R514158  12.018   7.779   5.658 -0.2188 -0.0621 -0.1318
    1CHOL    C114159  11.849   7.860   5.326 -0.2287  0.3053 -0.0423
    1CHOL    C214160  11.694   7.585   5.074  0.3038  0.0757  0.0380
    1CHOL   ROH14161  10.950  17.467   3.042 -0.2368 -0.0371 -0.0394
    1CHOL    R114162  10.842  17.438   3.302 -0.1118 -0.0353  0.0131
    1CHOL    R214163  10.983  17.321   3.509 -0.0293 -0.0756 -0.0666
    1CHOL    R314164  10.924  17.555   3.636  0.0773 -0.0743 -0.0183
    1CHOL    R414165  10.888  17.348   3.841 -0.0217 -0.1040 -0.0620
    1CHOL    R514166  10.743  17.499   3.782  0.0482 -0.0226 -0.0328
    1CHOL    C114167  10.778  17.582   4.153  0.0827 -0.1193 -0.0139
    1CHOL    C214168  10.790  17.297   4.472  0.1486 -0.1195 -0.2312
    1CHOL   ROH14169  15.829   8.340   6.227 -0.0906  0.0414 -0.0250
    1CHOL    R114170  16.031   8.226   6.064  0.0443  0.3292 -0.0616
    1CHOL    R214171  15.998   7.987   5.931  0.4529  0.1470  0.1638
    1CHOL    R314172  16.068   8.135   5.713  0.0064  0.1171 -0.0146
    1CHOL    R414173  16.100   7.855   5.628  0.6527  0.0698  0.2617
    1CHOL    R514174  16.250   8.013   5.616  0.2798  0.4464  0.0469
    1CHOL    C114175  16.226   7.917   5.248  0.3500 -0.0033  0.1512
    1CHOL    C214176  16.224   7.573   5.035 -0.1120  0.3266  0.0047
    1CHOL   ROH14177  12.369  14.853   2.952 -0.0660 -0.2393  0.1188
    1CHOL    R114178  12.422  14.734   3.204  0.3716 -0.0397  0.1280
    1CHOL    R214179  12.629  14.818   3.367  0.1238  0.6916  0.0938
    1CHOL    R314180  12.430  14.842   3.551  0.0415  0.0382  0.1151
    1CHOL    R414181  12.672  14.798   3.710  0.2136  0.7295  0.0859
    1CHOL    R514182  12.486  14.685   3.722  0.5414  0.1486  0.0702
    1CHOL    C114183  12.510  14.809   4.081  0.1886  0.1382  0.1014
    1CHOL    C214184  12.434  14.945   4.422 -0.1054  0.0894  0.0279
    1CHOL   ROH14185   2.002  13.682   5.692  0.2165 -0.1166 -0.0920
    1CHOL    R114186   2.208  13.671   5.498  0.1888 -0.2129 -0.1175
    1CHOL    R214187   2.220  13.474   5.305 -0.0479 -0.0991 -0.2567
    1CHOL    R314188   2.230  13.686   5.135  0.1690  0.0107 -0.1102
    1CHOL    R414189   2.427  13.497   5.030  0.0034 -0.0994 -0.2177
    1CHOL    R514190   2.462  13.706   5.079  0.1938 -0.1653 -0.0700
    1CHOL    C114191   2.557  13.710   4.710  0.2368  0.0035 -0.0573
    1CHOL    C214192   2.477  13.648   4.380 -0.0641  0.2181 -0.3630
    1CHOL   ROH14193  10.698  17.973   6.286 -0.1230  0.0900  0.0786
    1CHOL    R114194  10.775  18.030   6.020 -0.1819  0.1675  0.0777
    1CHOL    R214195  10.877  17.837   5.850  0.0148  0.2681  0.0790
    1CHOL    R314196  10.676  17.921   5.687 -0.0739  0.0630  0.0789
    1CHOL    R414197  10.869  17.794   5.507  0.0298  0.2062  0.0861
    1CHOL    R514198  10.787  17.995   5.489 -0.1527  0.1321  0.0596
    1CHOL    C114199  10.676  17.848   5.155 -0.0449 -0.0223  0.0902
    1CHOL    C214200  10.545  17.930   4.747  0.2477 -0.2703 -0.2593
    1CHOL   ROH14201   4.173  15.359   2.849 -0.0857  0.1677 -0.0094
    1CHOL    R114202   4.209  15.195   3.076 -0.3491 -0.0137 -0.0936
    1CHOL    R214203   4.349  15.279   3.299 -0.0653 -0.4086 -0.1144
    1CHOL    R314204   4.121  15.208   3.429 -0.1756  0.0362 -0.0505
    1CHOL    R414205   4.322  15.236   3.641 -0.0058 -0.5075 -0.1215
    1CHOL    R514206   4.195  15.062   3.604 -0.4155 -0.2177 -0.1516
    1CHOL    C114207   4.091  15.145   3.962 -0.0747 -0.1475 -0.0656
    1CHOL    C214208   3.892  15.340   4.239  0.0140  0.0999  0.3339
    1CHOL   ROH14209  10.417   9.917   3.252 -0.1685 -0.1073  0.0137
    1CHOL    R114210  10.345   9.977   3.519 -0.0691 -0.0696  0.0315
    1CHOL    R214211  10.378   9.798   3.726  0.0440 -0.0247  0.0494
    1CHOL    R314212  10.516  10.003   3.839  0.0570  0.0180 -0.0412
    1CHOL    R414213  10.496   9.801   4.051  0.1081  0.0797  0.0263
    1CHOL    R514214  10.437  10.010   4.066  0.1001  0.0831 -0.0263
    1CHOL    C114215  10.695   9.995   4.346  0.1576  0.1806 -0.0721
    1CHOL    C214216  10.598   9.836   4.707  0.1374 -0.2203  0.2505
    1CHOL   ROH14217   8.612   2.099   6.483 -0.0817 -0.0230 -0.0518
    1CHOL    R114218   8.763   2.278   6.324 -0.0513  0.0129  0.0170
    1CHOL    R214219   8.674   2.374   6.081  0.0041  0.0506  0.0101
    1CHOL    R314220   8.723   2.616   6.195 -0.0378  0.0329  0.0657
    1CHOL    R414221   8.690   2.674   5.910  0.1619  0.0653  0.0500
    1CHOL    R514222   8.859   2.731   6.035  0.0858  0.0295  0.1682
    1CHOL    C114223   8.746   3.075   5.917  0.2144  0.0573  0.1253
    1CHOL    C214224   9.060   3.336   5.804 -0.0238  0.0048 -0.0430
    1CHOL   ROH14225   9.353  18.125   2.895  0.1061  0.3610  0.1355
    1CHOL    R114226   9.286  18.170   3.166 -0.0642  0.2151  0.1184
    1CHOL    R214227   9.072  18.328   3.242 -0.1523  0.1172  0.0684
    1CHOL    R314228   8.999  18.106   3.381 -0.1719  0.0325 -0.0740
    1CHOL    R414229   8.993  18.323   3.578  0.0062 -0.1143  0.1052
    1CHOL    R514230   9.101  18.134   3.596 -0.0556 -0.1754 -0.0962
    1CHOL    C114231   8.878  18.112   3.905  0.0800 -0.3286 -0.0070
    1CHOL    C214232   9.057  18.103   4.214 -0.0145 -0.2177 -0.1432
    1CHOL   ROH14233   1.652  26.080   5.639 -0.1231 -0.0438 -0.0417
    1CHOL    R114234   1.578  26.076   5.366  0.0125 -0.2056 -0.0789
    1CHOL    R214235   1.448  25.861   5.252 -0.1304 -0.1908  0.0336
    1CHOL    R314236   1.268  26.051   5.176  0.0840 -0.0804 -0.2091
    1CHOL    R414237   1.264  25.853   4.959 -0.1629 -0.3602  0.0592
    1CHOL    R514238   1.297  26.068   4.939  0.0841 -0.4273 -0.2325
    1CHOL    C114239   0.988  26.026   4.718  0.0195 -0.3552 -0.1537
    1CHOL    C214240   0.868  26.199   4.447  0.1178  0.2927  0.1350
    1CHOL   ROH14241  21.569  19.166   3.141 -0.0646 -0.1534  0.0356
    1CHOL    R114242  21.577  19.072   3.407 -0.2017 -0.1358  0.0470
    1CHOL    R214243  21.724  19.197   3.605 -0.0502 -0.2999  0.0434
    1CHOL    R314244  21.485  19.200   3.736 -0.0599  0.0207  0.0268
    1CHOL    R414245  21.687  19.190   3.949 -0.0849 -0.2872  0.0394
    1CHOL    R514246  21.519  19.054   3.923 -0.2775 -0.0496  0.0123
    1CHOL    C114247  21.441  19.188   4.271 -0.1141  0.0210  0.0216
    1CHOL    C214248  21.390  18.968   4.582  0.0041  0.4470 -0.1645
    1CHOL   ROH14249  12.150  18.245   6.314  0.1106 -0.0338  0.0772
    1CHOL    R114250  11.941  18.190   6.130  0.0579  0.0784  0.1029
    1CHOL    R214251  11.804  18.390   5.998  0.1946  0.1516  0.0675
    1CHOL    R314252  11.878  18.249   5.777  0.0796  0.0475  0.0943
    1CHOL    R414253  11.654  18.416   5.687  0.1221  0.1012  0.0981
    1CHOL    R514254  11.672  18.200   5.666  0.0321  0.0885  0.1666
    1CHOL    C114255  11.636  18.299   5.300 -0.0279 -0.0261  0.1410
    1CHOL    C214256  11.585  18.321   4.946 -0.2395  0.2251 -0.1052
    1CHOL   ROH14257  25.613  11.000   5.210 -0.2632 -0.0963  0.2331
    1CHOL    R114258  25.499  10.942   4.957 -0.0153  0.0762  0.0767
    1CHOL    R214259  25.652  10.883   4.735  0.2025 -0.0663  0.2560
    1CHOL    R314260  25.495  10.661   4.727 -0.0501  0.1133  0.0338
    1CHOL    R414261  25.643  10.657   4.473  0.1130  0.0710  0.1391
    1CHOL    R514262  25.427  10.645   4.498  0.0839  0.3058 -0.0176
    1CHOL    C114263  25.491  10.318   4.313 -0.1763  0.3196 -0.1374
    1CHOL    C214264  25.567   9.938   4.242  0.1963  0.0501  0.4272
    1CHOL   ROH14265   7.938  25.307   5.444 -0.0090  0.0983  0.0009
    1CHOL    R114266   7.877  25.243   5.176 -0.0040  0.1911 -0.0221
    1CHOL    R214267   7.619  25.249   5.077 -0.0034  0.1952 -0.0155
    1CHOL    R314268   7.729  25.414   4.890 -0.0292  0.2784  0.0416
    1CHOL    R414269   7.467  25.339   4.780  0.0948  0.0439 -0.1138
    1CHOL    R514270   7.661  25.320   4.681  0.1767  0.2025  0.0040
    1CHOL    C114271   7.481  25.547   4.432  0.1279  0.0337 -0.1175
    1CHOL    C214272   7.193  25.450   4.169 -0.0898 -0.3429  0.0614
    1CHOL   ROH14273   7.541  12.535   6.320 -0.0069  0.3384 -0.0686
    1CHOL    R114274   7.673  12.361   6.141 -0.0316  0.1976  0.0485
    1CHOL    R214275   7.579  12.309   5.886 -0.0107  0.0789  0.0647
    1CHOL    R314276   7.829  12.387   5.813  0.0217 -0.0346  0.0532
    1CHOL    R414277   7.703  12.300   5.564 -0.0302  0.0167  0.0591
    1CHOL    R514278   7.893  12.230   5.644 -0.0567 -0.0679  0.0528
    1CHOL    C114279   8.010  12.367   5.308 -0.0112 -0.1262  0.0449
    1CHOL    C214280   8.109  12.165   5.102 -0.2726  0.1126 -0.1243
    1CHOL   ROH14281  23.039   5.461   3.713 -0.1445 -0.1822  0.0050
    1CHOL    R114282  23.024   5.629   3.940 -0.0650 -0.1417 -0.0192
    1CHOL    R214283  22.883   5.561   4.167 -0.0357 -0.0750  0.0208
    1CHOL    R314284  23.121   5.610   4.290 -0.0011 -0.1053 -0.0347
    1CHOL    R414285  22.928   5.580   4.510  0.0248  0.0306  0.0070
    1CHOL    R514286  23.063   5.748   4.477  0.0717 -0.0223 -0.0735
    1CHOL    C114287  23.177   5.637   4.824  0.0927  0.0638 -0.0531
    1CHOL    C214288  22.869   5.666   5.053 -0.0077 -0.0497 -0.0256
    1CHOL   ROH14289  21.195  27.448   4.929  0.0630  0.1104 -0.0674
    1CHOL    R114290  21.417  27.503   5.095  0.0164  0.1315 -0.0137
    1CHOL    R214291  21.616  27.681   5.024 -0.0455  0.2343  0.0860
    1CHOL    R314292  21.555  27.795   5.263 -0.1187  0.1193  0.1241
    1CHOL    R414293  21.846  27.823   5.240 -0.1108  0.1768  0.1955
    1CHOL    R514294  21.737  27.733   5.406 -0.1356  0.0828  0.1361
    1CHOL    C114295  21.923  28.011   5.590 -0.2174  0.0351  0.2950
    1CHOL    C214296  22.328  27.975   5.635  0.0207  0.4855 -0.2122
    1CHOL   ROH14297  25.460  24.086   6.216  0.0176 -0.0183 -0.0115
    1CHOL    R114298  25.562  24.152   5.960 -0.0053 -0.0510 -0.0294
    1CHOL    R214299  25.407  24.140   5.731 -0.0662  0.0517  0.0028
    1CHOL    R314300  25.489  24.397   5.702  0.0661  0.0112  0.0103
    1CHOL    R414301  25.360  24.330   5.447 -0.2553  0.1911  0.1252
    1CHOL    R514302  25.561  24.411   5.474 -0.1740  0.0515 -0.0638
    1CHOL    C114303  25.409  24.683   5.253 -0.2411  0.2344  0.2035
    1CHOL    C214304  25.526  24.462   4.797 -0.1610  0.1438  0.0312
    1CHOL   ROH14305  14.292   7.975   6.221 -0.0003 -0.0704 -0.0289
    1CHOL    R114306  14.335   8.003   5.943  0.0265  0.0628 -0.0121
    1CHOL    R214307  14.582   7.961   5.825  0.0500  0.1695 -0.0024
    1CHOL    R314308  14.442   7.789   5.669  0.1065  0.2075 -0.0956
    1CHOL    R414309  14.677   7.861   5.509  0.2233  0.1598  0.0516
    1CHOL    R514310  14.468   7.875   5.447  0.2638  0.2100 -0.0772
    1CHOL    C114311  14.601   7.640   5.177  0.3772  0.1899 -0.0044
    1CHOL    C214312  14.562   7.638   4.891  0.2399 -0.0158  0.1452
    1CHOL   ROH14313  18.533  11.700   5.718 -0.0436  0.2051 -0.0454
    1CHOL    R114314  18.428  11.628   5.465 -0.0185  0.0882 -0.0237
    1CHOL    R214315  18.521  11.736   5.229 -0.0870  0.0824 -0.0573
    1CHOL    R314316  18.555  11.475   5.160  0.0492  0.0824  0.0085
    1CHOL    R414317  18.519  11.615   4.905 -0.0720 -0.0128 -0.0216
    1CHOL    R514318  18.406  11.443   4.975  0.0391 -0.0559  0.0432
    1CHOL    C114319  18.549  11.300   4.652  0.0646 -0.0682  0.0608
    1CHOL    C214320  18.444  11.283   4.286  0.2162 -0.3370  0.0206
    1CHOL   ROH14321  16.852  19.425   2.994 -0.1032 -0.1182  0.0112
    1CHOL    R114322  16.711  19.473   3.235 -0.0782 -0.1478  0.0317
    1CHOL    R214323  16.635  19.270   3.406  0.1394 -0.1517  0.1281
    1CHOL    R314324  16.769  19.418   3.591  0.0668  0.0303  0.0374
    1CHOL    R414325  16.545  19.300   3.739 -0.0310  0.2332  0.0524
    1CHOL    R514326  16.597  19.512   3.728  0.0097  0.2147 -0.1547
    1CHOL    C114327  16.618  19.457   4.105 -0.1983  0.6279 -0.0769
    1CHOL    C214328  16.456  19.470   4.495 -0.1134  0.3911 -0.0580
    1CHOL   ROH14329   9.564   9.557   3.850 -0.1318 -0.2736  0.0152
    1CHOL    R114330   9.529   9.739   4.063 -0.0849 -0.1153 -0.1130
    1CHOL    R214331   9.387   9.677   4.291  0.0061  0.0390 -0.0225
    1CHOL    R314332   9.616   9.753   4.416  0.0330  0.1745 -0.1475
    1CHOL    R414333   9.410   9.758   4.626  0.0906  0.2178 -0.0691
    1CHOL    R514334   9.545   9.921   4.572  0.0277  0.2391 -0.2074
    1CHOL    C114335   9.639   9.876   4.939  0.1650  0.4492 -0.2136
    1CHOL    C214336   9.585   9.966   5.335  0.0149  0.0157  0.2375
    1CHOL   ROH14337  10.496  14.314   2.851 -0.0059 -0.0041  0.1146
    1CHOL    R114338  10.444  14.256   3.123  0.1290 -0.1072  0.1179
    1CHOL    R214339  10.645  14.239   3.312  0.1820  0.2456  0.0867
    1CHOL    R314340  10.493  14.423   3.442 -0.1333 -0.0294  0.1231
    1CHOL    R414341  10.649  14.293   3.654  0.3364  0.3679  0.0677
    1CHOL    R514342  10.432  14.316   3.647  0.2575 -0.1079  0.2167
    1CHOL    C114343  10.508  14.497   3.975  0.1303  0.1809  0.0909
    1CHOL    C214344  10.533  14.236   4.276 -0.0350 -0.2271 -0.0352
    1CHOL   ROH14345  25.459   4.337   5.236 -0.0275  0.2502  0.1005
    1CHOL    R114346  25.469   4.383   5.515 -0.0270  0.1595  0.1159
    1CHOL    R214347  25.378   4.617   5.631 -0.0452  0.1162  0.1952
    1CHOL    R314348  25.229   4.446   5.781 -0.0290  0.0526  0.1385
    1CHOL    R414349  25.239   4.692   5.938 -0.1678  0.0387  0.1593
    1CHOL    R514350  25.293   4.493   6.007 -0.1176  0.0564  0.1604
    1CHOL    C114351  25.018   4.576   6.258 -0.2238 -0.0661  0.0851
    1CHOL    C214352  24.924   4.681   6.502 -0.0019 -0.3077  0.1228
    1CHOL   ROH14353  12.431   8.187   3.356  0.0203 -0.0255  0.0449
    1CHOL    R114354  12.417   8.228   3.635 -0.1271  0.0104  0.0327
    1CHOL    R214355  12.199   8.150   3.787 -0.0702 -0.2616 -0.0268
    1CHOL    R314356  12.388   8.019   3.932  0.0651  0.0251  0.0650
    1CHOL    R414357  12.163   8.054   4.117 -0.1787 -0.4868 -0.1020
    1CHOL    R514358  12.370   8.113   4.151 -0.3063 -0.1038  0.1011
    1CHOL    C114359  12.319   7.875   4.445 -0.1149 -0.3488 -0.0597
    1CHOL    C214360  12.402   7.670   4.777  0.0292  0.2397 -0.3383
    1CHOL   ROH14361   3.547  21.411   5.499  0.0923  0.2950 -0.2954
    1CHOL    R114362   3.474  21.159   5.393  0.1925  0.2116 -0.1749
    1CHOL    R214363   3.213  21.096   5.324  0.1658 -0.0120  0.0696
    1CHOL    R314364   3.326  21.035   5.085  0.0082  0.0385 -0.0159
    1CHOL    R414365   3.074  20.884   5.090  0.2817 -0.3942  0.3398
    1CHOL    R514366   3.273  20.803   5.052  0.3752 -0.0700  0.1749
    1CHOL    C114367   3.099  20.702   4.729  0.2011 -0.5692  0.4168
    1CHOL    C214368   2.990  20.673   4.390 -0.0577  0.1524  0.0546
    1CHOL   ROH14369   8.618  15.168   2.795  0.1669  0.2298 -0.0989
    1CHOL    R114370   8.733  15.073   3.035  0.1379  0.2568 -0.0732
    1CHOL    R214371   8.761  15.231   3.260  0.0022  0.2498 -0.0452
    1CHOL    R314372   8.626  15.028   3.380  0.0524  0.1782 -0.1111
    1CHOL    R414373   8.737  15.186   3.602  0.0498  0.0973 -0.0619
    1CHOL    R514374   8.762  14.971   3.570  0.0806  0.1193 -0.1532
    1CHOL    C114375   8.597  14.969   3.914  0.1245 -0.0587 -0.1334
    1CHOL    C214376   8.687  15.177   4.117  0.0446  0.1551  0.1958
    1CHOL   ROH14377   7.532  21.068   2.724  0.1230 -0.0140  0.0867
    1CHOL    R114378   7.573  20.845   2.894  0.1215 -0.0179  0.0825
    1CHOL    R214379   7.590  20.868   3.169  0.0463 -0.0331  0.0899
    1CHOL    R314380   7.393  20.682   3.164  0.0822 -0.0695  0.0248
    1CHOL    R414381   7.470  20.701   3.446 -0.0257 -0.0444  0.0517
    1CHOL    R514382   7.460  20.519   3.327  0.0516 -0.0504  0.0558
    1CHOL    C114383   7.214  20.429   3.604 -0.0339 -0.0852 -0.0316
    1CHOL    C214384   7.362  20.466   3.950  0.2164  0.0221  0.0388
    1CHOL   ROH14385  28.326   0.799   5.837  0.1410 -0.2196 -0.1943
    1CHOL    R114386  28.257   0.687   5.586  0.1006 -0.1888 -0.1961
    1CHOL    R214387  28.288   0.826   5.349 -0.0209 -0.1290 -0.1725
    1CHOL    R314388  28.431   0.606   5.277  0.0301 -0.0655 -0.2706
    1CHOL    R414389  28.403   0.761   5.030 -0.3156 -0.1247 -0.2837
    1CHOL    R514390  28.351   0.552   5.058 -0.1713 -0.1543 -0.1810
    1CHOL    C114391  28.605   0.517   4.776 -0.4393 -0.0626 -0.4405
    1CHOL    C214392  28.590   0.160   4.718 -0.0561 -0.0088  0.0905
    1CHOL   ROH14393  15.745  20.730   2.631  0.1833  0.0763 -0.1167
    1CHOL    R114394  15.700  20.686   2.907 -0.1225  0.0751 -0.1637
    1CHOL    R214395  15.860  20.799   3.103 -0.0483 -0.3024 -0.0071
    1CHOL    R314396  15.623  20.891   3.198  0.0531  0.1432 -0.1617
    1CHOL    R414397  15.785  20.847   3.437 -0.1638 -0.1483 -0.0531
    1CHOL    R514398  15.586  20.767   3.399 -0.2984  0.2117 -0.1726
    1CHOL    C114399  15.519  20.962   3.720 -0.1359  0.3597 -0.2250
    1CHOL    C214400  15.526  20.890   4.154 -0.0254  0.0103  0.0903
    1CHOL   ROH14401   9.057  11.609   3.490  0.1496 -0.0077 -0.0112
    1CHOL    R114402   8.992  11.495   3.741  0.0875  0.0680  0.0087
    1CHOL    R214403   9.166  11.499   3.956  0.0664  0.0675  0.0330
    1CHOL    R314404   8.954  11.613   4.083  0.0831  0.1603 -0.0252
    1CHOL    R414405   9.163  11.597   4.287 -0.0743 -0.1645  0.1014
    1CHOL    R514406   8.960  11.520   4.303 -0.1475  0.0020 -0.0880
    1CHOL    C114407   8.962  11.760   4.599 -0.1406 -0.2126  0.0866
    1CHOL    C214408   9.081  11.993   4.750 -0.0556 -0.0641 -0.1253
    1CHOL   ROH14409  25.771  22.905   5.992  0.0328  0.1621  0.0698
    1CHOL    R114410  25.721  22.791   5.738 -0.0780  0.1494  0.0978
    1CHOL    R214411  25.588  22.926   5.538 -0.0100  0.2044  0.0937
    1CHOL    R314412  25.810  22.865   5.393 -0.0704  0.0250  0.0722
    1CHOL    R414413  25.597  22.904   5.193 -0.0366  0.2823  0.0863
    1CHOL    R514414  25.727  22.729   5.214 -0.2057  0.1495  0.0387
    1CHOL    C114415  25.810  22.833   4.856 -0.1086  0.1591  0.0618
    1CHOL    C214416  25.507  22.553   4.790 -0.2652 -0.2065 -0.1452
    1CHOL   ROH14417   1.298  21.498   3.238  0.0583 -0.0917  0.1745
    1CHOL    R114418   1.095  21.400   3.409 -0.0352 -0.1493  0.0329
    1CHOL    R214419   1.034  21.132   3.430  0.0929 -0.1772  0.0611
    1CHOL    R314420   1.075  21.175   3.695 -0.1541 -0.0742  0.0849
    1CHOL    R414421   0.921  20.926   3.683  0.1125 -0.2407  0.0181
    1CHOL    R514422   0.871  21.104   3.799 -0.1626 -0.2639 -0.0565
    1CHOL    C114423   0.894  20.846   4.079 -0.1079 -0.1809  0.0153
    1CHOL    C214424   1.198  20.721   4.259 -0.0113 -0.2611  0.2833
    1CHOL   ROH14425   7.727  15.868   5.612 -0.0900  0.0071  0.1071
    1CHOL    R114426   7.704  15.849   5.330 -0.1477 -0.0423  0.1149
    1CHOL    R214427   7.922  15.853   5.162 -0.1874  0.0207  0.0636
    1CHOL    R314428   7.816  15.621   5.070 -0.1171 -0.0353  0.1220
    1CHOL    R414429   7.905  15.763   4.829 -0.4921  0.0977  0.0563
    1CHOL    R514430   7.705  15.683   4.866 -0.3929 -0.0623  0.2596
    1CHOL    C114431   7.794  15.493   4.548 -0.6035  0.0901  0.1069
    1CHOL    C214432   7.977  15.681   4.298 -0.0784 -0.2612 -0.2056
    1CHOL   ROH14433  10.055  15.135   2.743  0.0326  0.0747  0.0749
    1CHOL    R114434  10.033  15.154   3.025  0.0528  0.1352  0.0726
    1CHOL    R214435  10.027  15.396   3.158 -0.2256  0.1719 -0.0017
    1CHOL    R314436   9.797  15.295   3.263 -0.0884 -0.0809  0.0638
    1CHOL    R414437   9.939  15.413   3.492 -0.1665  0.1100  0.0172
    1CHOL    R514438   9.863  15.209   3.477  0.0627  0.0179  0.0592
    1CHOL    C114439   9.672  15.328   3.785 -0.0032 -0.1633  0.0896
    1CHOL    C214440   9.506  15.155   4.069 -0.0945  0.1788 -0.2498
    1CHOL   ROH14441  20.276  14.803   2.594 -0.0763 -0.1330 -0.1138
    1CHOL    R114442  20.409  14.918   2.816  0.0056 -0.1322 -0.1636
    1CHOL    R214443  20.279  14.982   3.051  0.0601  0.0197 -0.1765
    1CHOL    R314444  20.473  14.828   3.163 -0.0167 -0.0498 -0.1369
    1CHOL    R414445  20.411  15.030   3.366  0.1794  0.1247 -0.2414
    1CHOL    R514446  20.608  14.983   3.285  0.1270 -0.0649 -0.2699
    1CHOL    C114447  20.671  14.914   3.655  0.1769  0.1206 -0.2420
    1CHOL    C214448  20.811  14.725   4.006 -0.0239 -0.1227 -0.1565
    1CHOL   ROH14449   8.993  17.326   6.037 -0.0210  0.1944  0.1062
    1CHOL    R114450   8.985  17.420   5.770  0.1402  0.1958  0.1010
    1CHOL    R214451   9.214  17.480   5.627  0.2477 -0.1909  0.1000
    1CHOL    R314452   9.107  17.308   5.446 -0.0396 -0.0262  0.1083
    1CHOL    R414453   9.204  17.534   5.286  0.1918 -0.1204  0.1126
    1CHOL    R514454   9.003  17.450   5.283  0.0811  0.1361  0.1706
    1CHOL    C114455   9.098  17.403   4.917 -0.1105  0.0752  0.1278
    1CHOL    C214456   8.775  17.554   4.651 -0.0482  0.0747 -0.0515
    1CHOL   ROH14457  15.623  28.251   6.365 -0.0839 -0.0989 -0.0471
    1CHOL    R114458  15.661  28.258   6.084 -0.1126 -0.0129 -0.0489
    1CHOL    R214459  15.451  28.251   5.905 -0.1360  0.1523 -0.0273
    1CHOL    R314460  15.566  28.478   5.810 -0.0408  0.1341  0.0418
    1CHOL    R414461  15.366  28.405   5.608 -0.0633  0.2680  0.0111
    1CHOL    R514462  15.578  28.443   5.573 -0.0444  0.1938  0.0313
    1CHOL    C114463  15.425  28.708   5.345  0.0685  0.3183  0.0982
    1CHOL    C214464  15.329  29.071   5.161  0.1411  0.0375 -0.2117
    1CHOL   ROH14465   3.267  25.248   5.403  0.1316  0.0835  0.0440
    1CHOL    R114466   3.189  25.074   5.194  0.0907  0.2614 -0.0917
    1CHOL    R214467   3.337  25.043   4.963  0.2656  0.1517  0.0296
    1CHOL    R314468   3.325  24.780   5.029 -0.1433  0.1382 -0.0692
    1CHOL    R414469   3.453  24.785   4.765  0.1935  0.0741  0.0889
    1CHOL    R514470   3.277  24.669   4.823 -0.0258  0.2686 -0.1668
    1CHOL    C114471   3.510  24.387   4.712 -0.2323  0.0162  0.0308
    1CHOL    C214472   3.753  24.214   4.468 -0.2510 -0.1182  0.1507
    1CHOL   ROH14473   4.231  18.010   5.140  0.0012 -0.1868 -0.1324
    1CHOL    R114474   4.271  17.880   4.892 -0.1381 -0.1497 -0.1756
    1CHOL    R214475   4.146  17.962   4.659 -0.0716  0.0465 -0.1474
    1CHOL    R314476   4.400  17.971   4.564 -0.0651 -0.1719 -0.1525
    1CHOL    R414477   4.232  17.977   4.325 -0.0632 -0.0321 -0.1481
    1CHOL    R514478   4.395  17.838   4.366 -0.1810 -0.1697 -0.1494
    1CHOL    C114479   4.521  17.993   4.041 -0.0522 -0.2828 -0.1533
    1CHOL    C214480   4.329  17.813   3.796  0.1696 -0.1643  0.3613
    1CHOL   ROH14481  14.510  21.932   3.612 -0.0314 -0.1498 -0.2687
    1CHOL    R114482  14.754  21.910   3.753 -0.1022 -0.0847 -0.1335
    1CHOL    R214483  14.938  21.711   3.703 -0.0642 -0.0990  0.0384
    1CHOL    R314484  15.108  21.920   3.671 -0.0610 -0.1015  0.0428
    1CHOL    R414485  15.277  21.703   3.771 -0.0530 -0.1149 -0.0200
    1CHOL    R514486  15.260  21.903   3.855 -0.0310 -0.1308  0.0115
    1CHOL    C114487  15.634  21.895   3.780 -0.0434 -0.1263 -0.0498
    1CHOL    C214488  15.870  22.041   4.118 -0.1340  0.0522 -0.1162
    1CHOL   ROH14489  14.528  13.640   2.957  0.3614 -0.0202 -0.2080
    1CHOL    R114490  14.410  13.611   3.213  0.1971 -0.1272 -0.2954
    1CHOL    R214491  14.422  13.376   3.356  0.2135 -0.1443 -0.3376
    1CHOL    R314492  14.525  13.536   3.550 -0.0033 -0.1338 -0.2254
    1CHOL    R414493  14.400  13.314   3.695  0.2580 -0.4009 -0.3781
    1CHOL    R514494  14.364  13.527   3.726 -0.0163 -0.4566 -0.2417
    1CHOL    C114495  14.484  13.428   4.075  0.0804 -0.5404 -0.2964
    1CHOL    C214496  14.212  13.267   4.358 -0.0231  0.1424 -0.0434
    1CHOL   ROH14497   6.145   4.241   6.734 -0.1288  0.1331  0.0331
    1CHOL    R114498   6.337   4.384   6.582 -0.0639  0.0763  0.0604
    1CHOL    R214499   6.516   4.258   6.413 -0.0394  0.0172  0.1246
    1CHOL    R314500   6.413   4.429   6.229  0.0337  0.0059  0.0733
    1CHOL    R414501   6.642   4.303   6.094  0.2998  0.2668  0.2880
    1CHOL    R514502   6.605   4.517   6.116  0.0903  0.2228  0.3376
    1CHOL    C114503   6.619   4.491   5.736  0.5660  0.4015  0.3351
    1CHOL    C214504   6.399   4.707   5.438  0.1270  0.0024 -0.0005
    1CHOL   ROH14505   7.688  16.052   4.507 -0.0350  0.1433 -0.1048
    1CHOL    R114506   7.477  16.073   4.319 -0.0681  0.0526 -0.0793
    1CHOL    R214507   7.212  16.039   4.389 -0.0586  0.0960 -0.0144
    1CHOL    R314508   7.184  16.284   4.274 -0.0696  0.0382 -0.1352
    1CHOL    R414509   6.911  16.201   4.338 -0.0623  0.0729 -0.0628
    1CHOL    R514510   6.984  16.266   4.143 -0.0837 -0.0259 -0.1038
    1CHOL    C114511   6.709  16.525   4.200 -0.0749  0.0051 -0.2043
    1CHOL    C214512   6.529  16.787   4.361  0.0057 -0.0997  0.0416
    1CHOL   ROH14513   0.273  10.762   3.579  0.0518 -0.3330 -0.0057
    1CHOL    R114514   0.247  10.586   3.798 -0.1507 -0.2607  0.0286
    1CHOL    R214515   0.277  10.669   4.060 -0.0790 -0.2384  0.0108
    1CHOL    R314516   0.031  10.558   4.090 -0.2022  0.0279  0.0216
    1CHOL    R414517   0.132  10.591   4.364 -0.1905 -0.0012  0.0215
    1CHOL    R514518   0.056  10.407   4.275 -0.3773  0.0505  0.0669
    1CHOL    C114519  -0.184  10.441   4.569 -0.3712  0.3869  0.0378
    1CHOL    C214520  -0.423  10.565   4.904 -0.1809  0.0566  0.2681
    1CHOL   ROH14521   9.147   8.676   3.621  0.4132 -0.2460 -0.0245
    1CHOL    R114522   9.107   8.724   3.897  0.3633  0.0435 -0.0787
    1CHOL    R214523   9.047   8.522   4.076  0.2349  0.2428  0.1073
    1CHOL    R314524   9.263   8.619   4.209  0.2422  0.2848  0.0661
    1CHOL    R414525   9.076   8.539   4.420  0.2990  0.2482  0.1023
    1CHOL    R514526   9.170   8.734   4.397  0.2564  0.2667  0.0844
    1CHOL    C114527   9.296   8.640   4.745  0.3430  0.2909  0.0606
    1CHOL    C214528   9.216   8.622   5.147  0.0507 -0.0152  0.3758
    1CHOL   ROH14529  15.926   3.278   5.519  0.0759 -0.1121  0.0390
    1CHOL    R114530  16.029   3.438   5.310 -0.1028  0.0348  0.0609
    1CHOL    R214531  16.200   3.650   5.355  0.0006 -0.0467  0.0583
    1CHOL    R314532  16.357   3.519   5.175 -0.2199  0.0577 -0.2179
    1CHOL    R414533  16.461   3.794   5.180  0.0653 -0.0501  0.1513
    1CHOL    R514534  16.398   3.681   5.003 -0.1372  0.2789  0.0057
    1CHOL    C114535  16.760   3.755   4.909 -0.1037  0.0459 -0.0537
    1CHOL    C214536  17.104   3.825   4.850  0.1750 -0.1470  0.1643
    1CHOL   ROH14537  20.064  14.409   2.805 -0.1085 -0.3298  0.0207
    1CHOL    R114538  20.185  14.544   3.023 -0.1524 -0.1284 -0.0765
    1CHOL    R214539  20.054  14.587   3.262 -0.1534 -0.0318 -0.0923
    1CHOL    R314540  20.272  14.463   3.367 -0.0857  0.1375 -0.0301
    1CHOL    R414541  20.139  14.585   3.597 -0.2409  0.0310 -0.0693
    1CHOL    R514542  20.347  14.611   3.540 -0.2463  0.1929 -0.0091
    1CHOL    C114543  20.393  14.468   3.891 -0.2281  0.2266  0.0025
    1CHOL    C214544  20.263  14.549   4.216  0.0550 -0.1497 -0.0028
    1CHOL   ROH14545  17.720  11.603   6.088 -0.0021 -0.1419  0.0125
    1CHOL    R114546  17.560  11.520   5.869 -0.0237 -0.1352  0.0262
    1CHOL    R214547  17.469  11.697   5.677  0.0636 -0.1505 -0.0270
    1CHOL    R314548  17.589  11.522   5.506 -0.0021 -0.2491  0.0264
    1CHOL    R414549  17.469  11.725   5.332  0.2402 -0.1431 -0.0280
    1CHOL    R514550  17.439  11.509   5.319  0.0677 -0.1226 -0.0416
    1CHOL    C114551  17.580  11.577   4.971  0.2816 -0.2313  0.0216
    1CHOL    C214552  17.498  11.622   4.512  0.3632  0.1366 -0.1091
    1CHOL   ROH14553  16.820  11.049   6.393 -0.0719  0.0402 -0.0850
    1CHOL    R114554  16.677  10.921   6.185 -0.0993 -0.0083 -0.0357
    1CHOL    R214555  16.654  11.029   5.932 -0.1852 -0.0382 -0.0370
    1CHOL    R314556  16.754  10.788   5.855 -0.1592 -0.0264 -0.0436
    1CHOL    R414557  16.687  10.924   5.604  0.1067  0.1006 -0.0568
    1CHOL    R514558  16.620  10.726   5.666  0.0042  0.0830 -0.2028
    1CHOL    C114559  16.799  10.636   5.341  0.3011  0.1925 -0.0746
    1CHOL    C214560  16.732  10.555   5.043 -0.1339 -0.3358 -0.1649
    1CHOL   ROH14561  20.198   9.132   5.826 -0.1035  0.0096 -0.0058
    1CHOL    R114562  20.110   9.111   5.557 -0.0208  0.0934 -0.0403
    1CHOL    R214563  20.281   9.137   5.342  0.1029 -0.1323  0.0264
    1CHOL    R314564  20.179   8.895   5.273 -0.1646 -0.0185  0.0083
    1CHOL    R414565  20.364   8.963   5.056 -0.1227 -0.1855 -0.0089
    1CHOL    R514566  20.155   8.907   5.035 -0.1874  0.0383  0.0136
    1CHOL    C114567  20.318   8.634   4.824 -0.5055 -0.1097 -0.0465
    1CHOL    C214568  20.304   8.378   4.396  0.1251 -0.1358 -0.2258
    1CHOL   ROH14569  12.076  11.593   2.864 -0.0597 -0.0349 -0.0444
    1CHOL    R114570  12.086  11.745   3.103  0.0986 -0.0439 -0.0440
    1CHOL    R214571  11.878  11.750   3.284  0.0784  0.2145 -0.0698
    1CHOL    R314572  12.072  11.677   3.460 -0.0307 -0.0273 -0.0455
    1CHOL    R414573  11.854  11.778   3.628  0.1105  0.3408 -0.0774
    1CHOL    R514574  12.062  11.843   3.632  0.2101  0.0359 -0.0901
    1CHOL    C114575  12.024  11.726   3.993  0.0267  0.1873 -0.0591
    1CHOL    C214576  12.094  11.891   4.286  0.0065 -0.0014 -0.2502
    1CHOL   ROH14577  11.910  20.649   6.011 -0.1244 -0.0280  0.0637
    1CHOL    R114578  11.868  20.582   5.739  0.0134 -0.1228  0.0645
    1CHOL    R214579  11.743  20.348   5.661 -0.1294 -0.0557  0.0892
    1CHOL    R314580  11.581  20.518   5.524  0.1109  0.0165 -0.1098
    1CHOL    R414581  11.571  20.267   5.372 -0.1914 -0.1396  0.1496
    1CHOL    R514582  11.621  20.464   5.294  0.0788 -0.2786 -0.0515
    1CHOL    C114583  11.320  20.380   5.075 -0.0019 -0.1205 -0.0019
    1CHOL    C214584  11.339  20.042   4.939  0.0406 -0.2723 -0.1117
    1CHOL   ROH14585   8.677  13.968   6.365 -0.1423 -0.0051  0.1389
    1CHOL    R114586   8.734  14.002   6.090 -0.2090 -0.0258  0.1225
    1CHOL    R214587   8.989  14.053   5.997 -0.2740  0.2330  0.0825
    1CHOL    R314588   8.940  13.836   5.840 -0.0454  0.1265  0.1538
    1CHOL    R414589   9.165  13.972   5.711 -0.0019  0.1650  0.2647
    1CHOL    R514590   8.977  13.914   5.617  0.0983  0.0274  0.1406
    1CHOL    C114591   9.222  13.721   5.397  0.3711  0.0253  0.4378
    1CHOL    C214592   9.212  13.591   4.977  0.1457 -0.2464  0.0798
    1CHOL   ROH14593  14.729  15.608   6.126 -0.2106  0.0360 -0.1249
    1CHOL    R114594  14.865  15.605   5.877 -0.0473  0.1443 -0.0417
    1CHOL    R214595  14.821  15.409   5.686  0.2817  0.0586 -0.0536
    1CHOL    R314596  14.772  15.623   5.526  0.1450 -0.0085 -0.0978
    1CHOL    R414597  14.787  15.396   5.343  0.0908 -0.0361 -0.0307
    1CHOL    R514598  14.900  15.581   5.329  0.0329 -0.0276 -0.1537
    1CHOL    C114599  14.721  15.590   4.992 -0.1488 -0.1544 -0.0588
    1CHOL    C214600  14.688  15.630   4.646 -0.2887  0.0106  0.2337
    1CHOL   ROH14601  13.739  13.031   6.531 -0.2542 -0.2374 -0.1035
    1CHOL    R114602  13.607  12.993   6.283 -0.2825  0.1095 -0.1474
    1CHOL    R214603  13.547  13.202   6.112  0.4391  0.2733 -0.2318
    1CHOL    R314604  13.682  13.049   5.932  0.0527 -0.2113 -0.1336
    1CHOL    R414605  13.504  13.215   5.769  0.7022  0.4101 -0.2625
    1CHOL    R514606  13.520  12.998   5.763 -0.0320  0.3294 -0.2349
    1CHOL    C114607  13.605  13.080   5.401  0.4925  0.0349 -0.1881
    1CHOL    C214608  13.518  13.131   5.029  0.1551  0.1718 -0.2400
    1CHOL   ROH14609  29.744  28.539   3.412 -0.1487  0.2000  0.0784
    1CHOL    R114610  29.669  28.484   3.679 -0.1308  0.2460  0.0919
    1CHOL    R214611  29.844  28.372   3.862 -0.1729  0.1176  0.0476
    1CHOL    R314612  29.777  28.589   4.011  0.0141  0.1605  0.0746
    1CHOL    R414613  29.942  28.426   4.189 -0.0463  0.0315  0.0257
    1CHOL    R514614  29.742  28.502   4.231  0.0114  0.1689  0.0814
    1CHOL    C114615  29.935  28.662   4.519  0.2029  0.0215  0.0383
    1CHOL    C214616  30.292  28.801   4.455  0.0939 -0.0308 -0.1755
    1CHOL   ROH14617  17.777  16.879   6.211 -0.0521 -0.0203 -0.0114
    1CHOL    R114618  17.753  16.879   5.928 -0.3037  0.0614  0.0079
    1CHOL    R214619  17.641  17.090   5.788  0.1496  0.3959  0.1313
    1CHOL    R314620  17.876  17.083   5.653  0.0288 -0.2511 -0.0843
    1CHOL    R414621  17.686  17.198   5.463  0.1658  0.4060  0.1363
    1CHOL    R514622  17.815  17.026   5.429 -0.3588  0.0150 -0.0600
    1CHOL    C114623  17.933  17.254   5.147  0.0618 -0.1958 -0.0633
    1CHOL    C214624  18.170  17.129   4.938  0.1000 -0.2181  0.0877
    1CHOL   ROH14625  16.511  12.150   6.076 -0.2325 -0.2825  0.1585
    1CHOL    R114626  16.418  11.995   5.858 -0.0299 -0.3111  0.0907
    1CHOL    R214627  16.328  12.109   5.622 -0.0761 -0.3299  0.0971
    1CHOL    R314628  16.514  11.945   5.510  0.1108 -0.1246  0.1016
    1CHOL    R414629  16.348  12.031   5.286 -0.0080 -0.3457  0.1049
    1CHOL    R514630  16.395  11.826   5.340  0.2383 -0.2852  0.1236
    1CHOL    C114631  16.533  11.832   4.985  0.2067 -0.1621  0.1137
    1CHOL    C214632  16.508  11.957   4.622 -0.2980  0.0744  0.3682
    1CHOL   ROH14633  11.711  17.241   6.239 -0.1290  0.0592  0.0634
    1CHOL    R114634  11.724  17.167   5.967 -0.0700  0.0118  0.0798
    1CHOL    R214635  11.499  17.129   5.811 -0.0334 -0.0202  0.0421
    1CHOL    R314636  11.620  17.310   5.648 -0.0059 -0.0480  0.0301
    1CHOL    R414637  11.424  17.176   5.477 -0.0434 -0.0248  0.0430
    1CHOL    R514638  11.637  17.198   5.437 -0.0362 -0.0650  0.0328
    1CHOL    C114639  11.495  17.373   5.130 -0.0234 -0.0534  0.0323
    1CHOL    C214640  11.446  17.395   4.734  0.1199  0.2025  0.2334
    1CHOL   ROH14641  19.565  17.755   2.924 -0.3454 -0.1258  0.0139
    1CHOL    R114642  19.479  17.737   3.194 -0.2369 -0.0605  0.0537
    1CHOL    R214643  19.506  17.506   3.343 -0.2398 -0.0459  0.0774
    1CHOL    R314644  19.634  17.672   3.517 -0.1186 -0.0556 -0.0017
    1CHOL    R414645  19.543  17.447   3.682 -0.1818  0.0312  0.0845
    1CHOL    R514646  19.505  17.659   3.718 -0.0745  0.0603  0.0353
    1CHOL    C114647  19.685  17.569   4.042 -0.0342  0.0669  0.0144
    1CHOL    C214648  19.506  17.479   4.355  0.0654 -0.0718 -0.1035
    1CHOL   ROH14649  10.698  26.918   4.911  0.3215  0.1551 -0.0739
    1CHOL    R114650  10.866  26.750   4.756  0.3537  0.0025  0.1232
    1CHOL    R214651  11.056  26.585   4.870  0.0302 -0.2207  0.3544
    1CHOL    R314652  10.928  26.393   4.727  0.0144 -0.0621  0.1502
    1CHOL    R414653  11.193  26.280   4.781 -0.0702 -0.2314  0.2330
    1CHOL    R514654  11.097  26.300   4.586  0.0518 -0.0528  0.1872
    1CHOL    C114655  11.152  25.922   4.595 -0.1435 -0.0887 -0.0295
    1CHOL    C214656  11.216  25.539   4.364  0.3061  0.2238  0.3438
    1CHOL   ROH14657   8.661  12.281   6.435  0.2951  0.2507  0.0348
    1CHOL    R114658   8.672  12.105   6.213  0.1688  0.0647  0.1711
    1CHOL    R214659   8.726  12.192   5.957 -0.1850 -0.1142  0.0229
    1CHOL    R314660   8.922  12.003   5.968 -0.0320  0.0405 -0.0252
    1CHOL    R414661   8.863  12.034   5.682 -0.3066 -0.1898  0.0066
    1CHOL    R514662   8.863  11.848   5.796 -0.0658 -0.1157  0.1283
    1CHOL    C114663   9.126  11.764   5.532 -0.2337 -0.0885 -0.0481
    1CHOL    C214664   9.204  11.753   5.148 -0.1693  0.0957 -0.1947
    1CHOL   ROH14665   9.223   9.996   3.800 -0.1210  0.0081  0.0589
    1CHOL    R114666   9.146   9.979   4.072 -0.2184 -0.1007  0.0267
    1CHOL    R214667   9.288  10.103   4.274 -0.1302 -0.4040  0.1621
    1CHOL    R314668   9.046  10.212   4.333 -0.0259 -0.1684  0.1614
    1CHOL    R414669   9.150  10.120   4.591 -0.1405 -0.3095  0.1518
    1CHOL    R514670   8.957  10.070   4.504 -0.1831 -0.1010  0.1326
    1CHOL    C114671   8.843  10.232   4.830 -0.0486 -0.0335  0.1453
    1CHOL    C214672   8.445  10.293   4.961  0.0694  0.0256  0.1309
    1CHOL   ROH14673   0.783  19.256   5.555  0.1870 -0.1848  0.0532
    1CHOL    R114674   0.698  19.017   5.429  0.0507 -0.1831  0.1392
    1CHOL    R214675   0.531  18.835   5.553 -0.1464  0.0078  0.1647
    1CHOL    R314676   0.381  18.869   5.329 -0.0262  0.0174  0.0854
    1CHOL    R414677   0.259  18.641   5.466 -0.1861  0.1029  0.0766
    1CHOL    R514678   0.327  18.647   5.259 -0.0861  0.0266  0.1098
    1CHOL    C114679  -0.041  18.561   5.205 -0.0964  0.1672 -0.0492
    1CHOL    C214680  -0.309  18.366   4.937  0.1506  0.2202  0.2317
    1CHOL   ROH14681   6.523  24.239   2.974 -0.1618 -0.0528  0.0065
    1CHOL    R114682   6.697  24.161   3.184  0.0176  0.1538 -0.0627
    1CHOL    R214683   6.806  24.343   3.360 -0.3280  0.2634  0.0432
    1CHOL    R314684   6.697  24.179   3.547  0.0154 -0.0864 -0.0494
    1CHOL    R414685   6.891  24.342   3.696 -0.5935  0.5411  0.1168
    1CHOL    R514686   6.880  24.123   3.692  0.0863  0.4833  0.1036
    1CHOL    C114687   6.838  24.187   4.066 -0.4258  0.3748  0.0727
    1CHOL    C214688   6.953  23.930   4.346 -0.2400  0.0103  0.0303
    1CHOL   ROH14689  16.859  16.775   6.314 -0.1081 -0.0979  0.0763
    1CHOL    R114690  16.746  16.760   6.055 -0.0456 -0.1010  0.0492
    1CHOL    R214691  16.820  16.930   5.850 -0.0690 -0.0373  0.0929
    1CHOL    R314692  16.867  16.698   5.717  0.0538  0.0026  0.0653
    1CHOL    R414693  16.819  16.896   5.506 -0.1738 -0.0246  0.0913
    1CHOL    R514694  16.717  16.705   5.530 -0.0225 -0.1018  0.1224
    1CHOL    C114695  16.864  16.658   5.181 -0.1194  0.0205  0.0645
    1CHOL    C214696  16.745  16.878   4.832  0.1603  0.1539  0.0213
    1CHOL   ROH14697  19.768  11.808   2.561  0.0068  0.0845  0.1675
    1CHOL    R114698  19.935  11.729   2.775  0.1259 -0.1606 -0.0101
    1CHOL    R214699  19.896  11.815   3.034  0.6494  0.0775  0.0086
    1CHOL    R314700  19.896  11.548   3.088  0.1378  0.0934  0.1390
    1CHOL    R414701  20.047  11.669   3.308  0.5901 -0.1066 -0.0561
    1CHOL    R514702  20.114  11.507   3.179  0.1379 -0.3182 -0.0353
    1CHOL    C114703  20.136  11.334   3.519  0.0753 -0.1989  0.0286
    1CHOL    C214704  20.089  11.166   3.886  0.0595 -0.2740  0.1992
    1CHOL   ROH14705  21.219   0.699   6.434  0.0712  0.1339 -0.0071
    1CHOL    R114706  21.200   0.590   6.174  0.2170  0.0151  0.0321
    1CHOL    R214707  21.065   0.716   5.969  0.1121 -0.2044 -0.0280
    1CHOL    R314708  21.301   0.687   5.838  0.1567 -0.0094  0.0044
    1CHOL    R414709  21.110   0.770   5.631  0.0151 -0.4892 -0.0898
    1CHOL    R514710  21.240   0.594   5.626  0.2707 -0.3242  0.0958
    1CHOL    C114711  21.358   0.774   5.311  0.0005 -0.4720 -0.0954
    1CHOL    C214712  21.292   1.078   5.008 -0.0014  0.2012  0.0768
    1CHOL   ROH14713  14.110  13.630   2.801  0.1851 -0.0371 -0.1250
    1CHOL    R114714  13.953  13.554   3.023  0.0858  0.1065 -0.1442
    1CHOL    R214715  14.003  13.324   3.169 -0.0970  0.0985 -0.0905
    1CHOL    R314716  14.008  13.498   3.379 -0.0278  0.1342 -0.1219
    1CHOL    R414717  13.973  13.234   3.501 -0.2251  0.1781 -0.0800
    1CHOL    R514718  13.848  13.409   3.533 -0.1180  0.2664 -0.1385
    1CHOL    C114719  13.961  13.344   3.891 -0.2348  0.2581 -0.1034
    1CHOL    C214720  13.758  13.424   4.156 -0.3759  0.0702 -0.1904
    1CHOL   ROH14721  10.101  18.943   2.803  0.1928 -0.0314  0.0152
    1CHOL    R114722  10.138  18.818   3.055  0.0822 -0.0440  0.0247
    1CHOL    R214723  10.096  18.949   3.294  0.1572 -0.0007  0.0095
    1CHOL    R314724   9.932  18.738   3.343  0.0016  0.1187  0.0147
    1CHOL    R414725  10.081  18.777   3.593  0.2656 -0.1740 -0.0821
    1CHOL    R514726  10.063  18.591   3.480 -0.0066 -0.0921 -0.1914
    1CHOL    C114727   9.918  18.479   3.814  0.1826 -0.1629 -0.1307
    1CHOL    C214728   9.894  18.346   4.190 -0.0851 -0.1149  0.0766
    1CHOL   ROH14729  15.842  12.490   2.901  0.1294 -0.3049 -0.3162
    1CHOL    R114730  15.913  12.303   3.101  0.0727 -0.1476 -0.1449
    1CHOL    R214731  16.093  12.361   3.302  0.0573 -0.0064 -0.1711
    1CHOL    R314732  15.890  12.281   3.463  0.0243  0.1664 -0.1258
    1CHOL    R414733  16.123  12.303   3.641  0.0528  0.1222 -0.1489
    1CHOL    R514734  15.993  12.128   3.617 -0.0410  0.1764 -0.0688
    1CHOL    C114735  15.949  12.193   3.990  0.0191  0.3592 -0.0934
    1CHOL    C214736  16.260  12.204   4.154 -0.0551 -0.0356 -0.3520
    1CHOL   ROH14737  21.039   6.807   3.445  0.1553 -0.0224  0.0831
    1CHOL    R114738  21.049   6.785   3.727  0.0603  0.0330  0.0920
    1CHOL    R214739  21.003   6.999   3.895  0.0923  0.0901  0.0354
    1CHOL    R314740  20.818   6.832   4.005 -0.0082  0.1837  0.0089
    1CHOL    R414741  20.948   6.961   4.235  0.2237 -0.1075  0.0361
    1CHOL    R514742  20.925   6.747   4.202  0.0071 -0.0601 -0.1064
    1CHOL    C114743  20.743   6.783   4.535  0.2060 -0.1346  0.0116
    1CHOL    C214744  20.597   6.857   4.956  0.1875 -0.2570 -0.1016
    1CHOL   ROH14745  14.356   2.779   6.801 -0.0141 -0.3346  0.0791
    1CHOL    R114746  14.432   2.826   6.532 -0.0152 -0.0485  0.1255
    1CHOL    R214747  14.587   3.042   6.456  0.1568 -0.0781  0.3866
    1CHOL    R314748  14.744   2.849   6.346 -0.0213 -0.0716  0.1111
    1CHOL    R414749  14.788   3.086   6.179  0.0663  0.0852  0.3453
    1CHOL    R514750  14.729   2.888   6.110 -0.0997  0.1949  0.1549
    1CHOL    C114751  15.053   2.931   5.914 -0.1538  0.1864  0.0626
    1CHOL    C214752  15.138   2.673   5.603 -0.4619  0.1316  0.2508
    1CHOL   ROH14753  21.401  27.654   3.377  0.0496 -0.0652 -0.0916
    1CHOL    R114754  21.269  27.651   3.627  0.0664 -0.1016 -0.0828
    1CHOL    R214755  21.403  27.679   3.867  0.0846 -0.1480 -0.0859
    1CHOL    R314756  21.225  27.881   3.905  0.0962 -0.1461 -0.0416
    1CHOL    R414757  21.303  27.798   4.175  0.1560 -0.1485 -0.0626
    1CHOL    R514758  21.100  27.814   4.098  0.1397 -0.1446 -0.0144
    1CHOL    C114759  21.078  28.057   4.391  0.2086 -0.1469 -0.0074
    1CHOL    C214760  21.187  27.863   4.671 -0.3370  0.1053 -0.0903
    1CHOL   ROH14761  10.671  15.842   5.874 -0.2382  0.1991 -0.0065
    1CHOL    R114762  10.883  15.836   5.687 -0.0945  0.5033  0.1408
    1CHOL    R214763  10.858  15.718   5.438  0.3538  0.1422  0.2613
    1CHOL    R314764  10.941  15.961   5.350 -0.1904  0.2590  0.0298
    1CHOL    R414765  10.952  15.788   5.113  0.2851  0.0093  0.2110
    1CHOL    R514766  11.114  15.911   5.191 -0.0147  0.4861  0.1379
    1CHOL    C114767  11.083  16.057   4.840 -0.2658  0.0416 -0.0356
    1CHOL    C214768  11.111  16.066   4.545  0.1544 -0.2328 -0.1353
    1CHOL   ROH14769  28.791  10.562   5.398  0.1243 -0.2425  0.0776
    1CHOL    R114770  28.642  10.547   5.158  0.0021 -0.2283  0.1516
    1CHOL    R214771  28.399  10.675   5.125  0.0541 -0.1076  0.2331
    1CHOL    R314772  28.521  10.781   4.907  0.0079 -0.2315  0.1457
    1CHOL    R414773  28.254  10.709   4.813 -0.1173 -0.0095  0.3214
    1CHOL    R514774  28.443  10.649   4.724 -0.2238 -0.1806  0.2047
    1CHOL    C114775  28.285  10.829   4.427 -0.2602 -0.0688  0.2908
    1CHOL    C214776  28.110  10.771   4.176 -0.2091  0.0052 -0.0770
    1CHOL   ROH14777   3.388   9.108   6.247 -0.1611 -0.1087 -0.0748
    1CHOL    R114778   3.441   8.902   6.060 -0.0547 -0.0867 -0.0710
    1CHOL    R214779   3.262   8.834   5.861 -0.0009 -0.1512 -0.1031
    1CHOL    R314780   3.477   8.876   5.699  0.0102 -0.0634 -0.0648
    1CHOL    R414781   3.274   8.759   5.523  0.1318 -0.2299 -0.0813
    1CHOL    R514782   3.478   8.688   5.551  0.1641 -0.0968 -0.0164
    1CHOL    C114783   3.482   8.754   5.176  0.2195 -0.1933 -0.0327
    1CHOL    C214784   3.288   8.613   4.900 -0.1422 -0.0198  0.1996
    1CHOL   ROH14785  19.649  16.551   6.285  0.1219  0.0486 -0.1237
    1CHOL    R114786  19.638  16.683   6.035 -0.1427 -0.0793 -0.1837
    1CHOL    R214787  19.863  16.771   5.903 -0.3092  0.4177 -0.1696
    1CHOL    R314788  19.762  16.623   5.698  0.0868  0.0711 -0.1261
    1CHOL    R414789  19.922  16.832   5.568 -0.2957  0.3271 -0.1829
    1CHOL    R514790  19.713  16.784   5.528 -0.1814 -0.1391 -0.2485
    1CHOL    C114791  19.862  16.728   5.181  0.0839 -0.0511 -0.1498
    1CHOL    C214792  19.835  16.750   4.793  0.1995  0.5660  0.0588
    1CHOL   ROH14793  12.564  19.497   3.168 -0.1555  0.0856  0.0933
    1CHOL    R114794  12.725  19.456   3.397 -0.1039  0.0219  0.0467
    1CHOL    R214795  12.735  19.637   3.606 -0.0296 -0.0191  0.0788
    1CHOL    R314796  12.669  19.420   3.755 -0.0200 -0.0385  0.0542
    1CHOL    R414797  12.759  19.618   3.950  0.0164 -0.0678  0.0726
    1CHOL    R514798  12.833  19.415   3.929  0.0048 -0.0699  0.0318
    1CHOL    C114799  12.711  19.403   4.291  0.0521 -0.1145  0.0458
    1CHOL    C214800  12.961  19.183   4.592 -0.1634 -0.0382  0.0608
    1CHOL   ROH14801  15.823  13.377   5.989 -0.0575  0.1169  0.1704
    1CHOL    R114802  15.835  13.308   5.715  0.2029  0.1313  0.1742
    1CHOL    R214803  15.615  13.322   5.548  0.2139 -0.3811  0.0865
    1CHOL    R314804  15.779  13.478   5.398 -0.0751  0.0057  0.1564
    1CHOL    R414805  15.574  13.384   5.211  0.1793 -0.3848  0.0906
    1CHOL    R514806  15.790  13.366   5.187  0.2219  0.0800  0.1372
    1CHOL    C114807  15.705  13.565   4.873 -0.1120 -0.0238  0.1587
    1CHOL    C214808  15.874  13.426   4.437 -0.2470 -0.0721  0.0527
    1CHOL   ROH14809  11.505  11.476   3.459 -0.0652  0.1229 -0.0978
    1CHOL    R114810  11.454  11.477   3.737 -0.0180 -0.0628 -0.0866
    1CHOL    R214811  11.648  11.415   3.924  0.0847  0.0539 -0.1501
    1CHOL    R314812  11.580  11.657   4.028 -0.1555 -0.0642 -0.0261
    1CHOL    R414813  11.684  11.505   4.256  0.0913 -0.0433 -0.1247
    1CHOL    R514814  11.491  11.606   4.245 -0.0277 -0.2553 -0.0179
    1CHOL    C114815  11.642  11.784   4.547 -0.1303 -0.2107  0.0066
    1CHOL    C214816  11.854  12.039   4.826  0.0692  0.0491  0.2612
    1CHOL   ROH14817   9.584   8.751   3.860 -0.1385 -0.0825  0.1337
    1CHOL    R114818   9.716   8.681   4.100 -0.0278 -0.1088  0.0645
    1CHOL    R214819   9.698   8.833   4.330  0.0314 -0.1665  0.1009
    1CHOL    R314820   9.618   8.598   4.441  0.1286 -0.2079  0.0877
    1CHOL    R414821   9.727   8.753   4.665 -0.3702  0.0278  0.1890
    1CHOL    R514822   9.785   8.551   4.606 -0.0530  0.0573  0.3610
    1CHOL    C114823   9.669   8.486   4.964 -0.5129  0.1019  0.2279
    1CHOL    C214824   9.607   8.680   5.404 -0.0603 -0.4493 -0.0171
    1CHOL   ROH14825  10.248  29.428   3.858 -0.0066 -0.0009 -0.0780
    1CHOL    R114826  10.181  29.370   4.127 -0.1562  0.1323 -0.0859
    1CHOL    R214827  10.365  29.276   4.310 -0.3583 -0.2286 -0.0616
    1CHOL    R314828  10.281  29.489   4.456  0.0358 -0.0557 -0.0743
    1CHOL    R414829  10.464  29.343   4.634 -0.2296 -0.3936 -0.0650
    1CHOL    R514830  10.258  29.402   4.679 -0.1273 -0.0053 -0.0690
    1CHOL    C114831  10.442  29.582   4.960  0.2153 -0.3275 -0.0790
    1CHOL    C214832  10.393  29.550   5.296 -0.2656  0.1735 -0.1348
    1CHOL   ROH14833  24.023  17.648   5.735  0.0175  0.1600  0.0127
    1CHOL    R114834  23.925  17.817   5.530 -0.0124  0.1514  0.0197
    1CHOL    R214835  23.923  17.742   5.264 -0.0477  0.1416  0.0221
    1CHOL    R314836  23.659  17.804   5.281 -0.0460  0.1389  0.0564
    1CHOL    R414837  23.723  17.832   4.997 -0.0773  0.1679  0.0531
    1CHOL    R514838  23.629  17.982   5.124 -0.0640  0.1544  0.0779
    1CHOL    C114839  23.359  17.943   4.858 -0.0928  0.1807  0.1034
    1CHOL    C214840  23.117  17.840   4.608 -0.1743  0.1161  0.1490
    1CHOL   ROH14841  10.540  19.879   2.645 -0.0655  0.0905  0.0796
    1CHOL    R114842  10.379  19.889   2.878 -0.0212 -0.0232  0.1166
    1CHOL    R214843  10.323  19.666   3.030  0.1737 -0.0643  0.1333
    1CHOL    R314844  10.422  19.818   3.232  0.1116  0.0101  0.1077
    1CHOL    R414845  10.346  19.565   3.360  0.1748  0.0161  0.1575
    1CHOL    R514846  10.283  19.765   3.420  0.1112  0.0112  0.1074
    1CHOL    C114847  10.453  19.649   3.741  0.1171  0.1325  0.1476
    1CHOL    C214848  10.405  19.472   4.127  0.1872 -0.1828  0.0648
    1CHOL   ROH14849  12.070  23.819   5.469  0.2054  0.2226 -0.0612
    1CHOL    R114850  12.073  23.943   5.215 -0.0141  0.1428 -0.1065
    1CHOL    R214851  12.268  23.891   5.026  0.0109  0.3227 -0.1412
    1CHOL    R314852  12.054  23.835   4.867  0.0351 -0.0037 -0.0625
    1CHOL    R414853  12.271  23.899   4.680 -0.1562  0.4024 -0.1407
    1CHOL    R514854  12.073  23.990   4.686 -0.3077  0.0664 -0.0381
    1CHOL    C114855  12.072  23.851   4.330 -0.2308  0.1422 -0.0665
    1CHOL    C214856  11.901  23.988   4.027 -0.0498 -0.3760 -0.0276
    1CHOL   ROH14857   9.536  26.077   5.502  0.1203 -0.1925 -0.0236
    1CHOL    R114858   9.578  26.071   5.222  0.0326  0.0066 -0.0426
    1CHOL    R214859   9.623  25.837   5.084  0.2093  0.1263 -0.1913
    1CHOL    R314860   9.413  25.922   4.934  0.0756  0.0140 -0.0711
    1CHOL    R414861   9.490  25.666   4.814  0.0673 -0.0028 -0.0412
    1CHOL    R514862   9.469  25.856   4.710 -0.0636 -0.0427 -0.0900
    1CHOL    C114863   9.216  25.646   4.517 -0.1410 -0.1833  0.1590
    1CHOL    C214864   9.042  25.651   4.187 -0.1542 -0.0678 -0.1331
    1CHOL   ROH14865  14.789  19.045   2.887 -0.2852 -0.0498 -0.0678
    1CHOL    R114866  14.842  19.186   3.127 -0.0467 -0.0376 -0.1253
    1CHOL    R214867  14.644  19.255   3.306  0.1044  0.1296 -0.0159
    1CHOL    R314868  14.803  19.125   3.483  0.1268  0.0561 -0.0900
    1CHOL    R414869  14.640  19.305   3.648  0.0769 -0.0938  0.0179
    1CHOL    R514870  14.858  19.291   3.647  0.0773 -0.0382  0.0204
    1CHOL    C114871  14.788  19.212   4.014  0.0819 -0.2930 -0.0320
    1CHOL    C214872  14.735  19.212   4.319 -0.1937  0.1150  0.1355
    1CHOL   ROH14873   9.480  20.220   5.875  0.1168 -0.2147  0.0309
    1CHOL    R114874   9.707  20.225   5.705  0.0336 -0.0793 -0.0792
    1CHOL    R214875   9.847  19.996   5.637  0.2156  0.0175 -0.0405
    1CHOL    R314876   9.799  20.082   5.384  0.0120 -0.1399 -0.0583
    1CHOL    R414877  10.042  19.920   5.363  0.1770  0.1109 -0.0942
    1CHOL    R514878  10.017  20.125   5.294 -0.0722  0.0556 -0.1719
    1CHOL    C114879  10.112  19.957   4.965 -0.0367  0.0178 -0.1422
    1CHOL    C214880  10.486  19.900   4.921  0.2391 -0.0761  0.0293
    1CHOL   ROH14881  24.124  28.704   3.739 -0.0145 -0.1465  0.1123
    1CHOL    R114882  24.206  28.815   3.985  0.3010  0.0093 -0.0575
    1CHOL    R214883  24.389  29.023   4.002 -0.1321  0.4454 -0.4654
    1CHOL    R314884  24.191  29.141   4.146 -0.0999 -0.0365  0.0096
    1CHOL    R414885  24.439  29.262   4.246 -0.1200  0.4657 -0.4869
    1CHOL    R514886  24.284  29.166   4.365  0.3321  0.0749 -0.1728
    1CHOL    C114887  24.282  29.513   4.524 -0.0827  0.0248 -0.0534
    1CHOL    C214888  24.273  29.627   4.834 -0.1045  0.0728  0.1482
    1CHOL   ROH14889  21.031  11.599   5.778  0.0339  0.3781  0.0238
    1CHOL    R114890  20.853  11.611   5.558 -0.0299  0.0495  0.0530
    1CHOL    R214891  20.905  11.763   5.333 -0.2990  0.0644  0.0022
    1CHOL    R314892  20.864  11.527   5.204  0.0261 -0.0369  0.0740
    1CHOL    R414893  20.887  11.725   4.990 -0.3291 -0.0443  0.0149
    1CHOL    R514894  20.724  11.584   5.019 -0.1134 -0.2913  0.0930
    1CHOL    C114895  20.838  11.482   4.669 -0.0418 -0.2029  0.0895
    1CHOL    C214896  20.760  11.398   4.331 -0.3577 -0.0168 -0.0218
    1CHOL   ROH14897  11.054  10.967   6.702 -0.1040  0.1745 -0.0134
    1CHOL    R114898  11.036  10.845   6.447  0.0328  0.2868 -0.0770
    1CHOL    R214899  10.860  10.638   6.393  0.2506  0.1355 -0.1879
    1CHOL    R314900  10.780  10.802   6.192  0.0865  0.1520 -0.1124
    1CHOL    R414901  10.691  10.536   6.110  0.0857  0.1329 -0.0915
    1CHOL    R514902  10.813  10.674   5.993 -0.0126  0.1798 -0.1543
    1CHOL    C114903  10.518  10.630   5.756 -0.1644  0.1469  0.0356
    1CHOL    C214904  10.124  10.545   5.633  0.0791  0.0097  0.3183
    1CHOL   ROH14905   1.755  18.126   3.725 -0.2314  0.0879  0.1097
    1CHOL    R114906   1.899  18.216   3.952 -0.2358  0.1312  0.0952
    1CHOL    R214907   1.822  18.153   4.210 -0.0706 -0.0712  0.0955
    1CHOL    R314908   2.078  18.062   4.229  0.0361  0.1869 -0.0455
    1CHOL    R414909   2.004  18.132   4.504  0.0547 -0.0319  0.0219
    1CHOL    R514910   2.179  18.202   4.395 -0.0538  0.2119 -0.0084
    1CHOL    C114911   2.349  18.034   4.692  0.2277  0.2336 -0.1534
    1CHOL    C214912   2.529  18.133   5.055 -0.0746 -0.2898 -0.1588
    1CHOL   ROH14913  13.226  18.380   6.201 -0.0231  0.1770 -0.0391
    1CHOL    R114914  13.140  18.416   5.933 -0.0972 -0.1212 -0.0580
    1CHOL    R214915  13.314  18.478   5.728 -0.2106  0.0787 -0.0929
    1CHOL    R314916  13.204  18.258   5.612  0.1745 -0.1864  0.0249
    1CHOL    R414917  13.340  18.400   5.393 -0.2943  0.0971 -0.1042
    1CHOL    R514918  13.131  18.336   5.397 -0.1653 -0.3643  0.0668
    1CHOL    C114919  13.253  18.147   5.088  0.0186 -0.1410 -0.0002
    1CHOL    C214920  12.959  18.167   4.870 -0.1194 -0.1430  0.3961
    1CHOL   ROH14921  17.686   9.342   5.793 -0.2134  0.0103  0.1196
    1CHOL    R114922  17.780   9.212   5.559 -0.0533  0.1661  0.0950
    1CHOL    R214923  17.609   9.098   5.374  0.0839 -0.2114  0.1897
    1CHOL    R314924  17.745   9.257   5.200 -0.3160  0.0514  0.1041
    1CHOL    R414925  17.650   9.032   5.037  0.3189 -0.3351  0.2401
    1CHOL    R514926  17.856   9.104   5.053  0.1349  0.2434  0.2283
    1CHOL    C114927  17.801   9.143   4.678  0.0805 -0.1605  0.1892
    1CHOL    C214928  17.613   8.951   4.411  0.1516 -0.2909  0.2155
    1CHOL   ROH14929  18.852  17.665   6.476  0.0494  0.0153  0.0237
    1CHOL    R114930  19.012  17.618   6.247 -0.0098 -0.0712 -0.0014
    1CHOL    R214931  18.961  17.412   6.069 -0.1410 -0.0549  0.0099
    1CHOL    R314932  18.963  17.614   5.887 -0.0731 -0.0579  0.0082
    1CHOL    R414933  19.033  17.374   5.734 -0.0721 -0.0591  0.0255
    1CHOL    R514934  19.146  17.560   5.741 -0.0516 -0.0782  0.0485
    1CHOL    C114935  19.078  17.540   5.367  0.0317 -0.0645  0.0330
    1CHOL    C214936  19.115  17.630   4.948 -0.0685  0.1697  0.2473
    1CHOL   ROH14937  21.381  18.055   2.973  0.0194  0.0365  0.0992
    1CHOL    R114938  21.467  18.107   3.237  0.1202 -0.0340  0.0811
    1CHOL    R214939  21.297  18.099   3.454  0.1377  0.1952  0.1083
    1CHOL    R314940  21.481  17.925   3.552 -0.0531 -0.0155  0.0996
    1CHOL    R414941  21.397  18.083   3.784  0.2242  0.1610  0.0804
    1CHOL    R514942  21.601  18.052   3.715  0.1641 -0.1227  0.0244
    1CHOL    C114943  21.628  17.910   4.069  0.0954 -0.0568  0.0559
    1CHOL    C214944  21.492  17.877   4.393 -0.2665 -0.3460 -0.1239
    1CHOL   ROH14945  13.420  16.845   6.140  0.2356  0.0878  0.0644
    1CHOL    R114946  13.552  16.915   5.899 -0.0459  0.2144 -0.0574
    1CHOL    R214947  13.677  16.729   5.738  0.2500  0.3648 -0.0065
    1CHOL    R314948  13.518  16.836   5.546 -0.0920 -0.0822  0.0105
    1CHOL    R414949  13.734  16.702   5.398  0.2434  0.4547 -0.0151
    1CHOL    R514950  13.671  16.910   5.377 -0.3172  0.3001 -0.0387
    1CHOL    C114951  13.618  16.788   5.020 -0.0816  0.0876 -0.0042
    1CHOL    C214952  13.959  16.861   4.925  0.0859 -0.0499 -0.0827
    1CHOL   ROH14953  11.159   8.022   6.389 -0.0471  0.1180  0.2674
    1CHOL    R114954  11.033   8.198   6.207 -0.0628 -0.0214  0.1424
    1CHOL    R214955  11.175   8.367   6.040 -0.0807 -0.0279  0.1226
    1CHOL    R314956  11.028   8.246   5.846  0.0486 -0.1816  0.1178
    1CHOL    R414957  11.180   8.455   5.706 -0.2072  0.0257  0.1340
    1CHOL    R514958  10.964   8.426   5.700 -0.1776 -0.2346  0.1459
    1CHOL    C114959  11.045   8.393   5.329 -0.1594 -0.0876  0.1361
    1CHOL    C214960  11.056   8.631   4.962  0.1224  0.2461 -0.1489
    1CHOL   ROH14961  22.324   8.983   6.386 -0.0103  0.0226  0.1107
    1CHOL    R114962  22.407   8.843   6.154 -0.1190 -0.0759  0.1349
    1CHOL    R214963  22.671   8.829   6.076 -0.1849 -0.0070 -0.0366
    1CHOL    R314964  22.623   8.561   6.078 -0.0565 -0.0347  0.1314
    1CHOL    R414965  22.830   8.599   5.872 -0.3303  0.0196 -0.1874
    1CHOL    R514966  22.638   8.496   5.848 -0.3380 -0.0933  0.1098
    1CHOL    C114967  22.877   8.213   5.756 -0.2943  0.0091 -0.1175
    1CHOL    C214968  22.844   7.944   5.605  0.1045  0.1755  0.1178
    1CHOL   ROH14969  17.655  22.934   3.690  0.3481 -0.2075 -0.0885
    1CHOL    R114970  17.784  22.816   3.912  0.1513 -0.2022  0.0298
    1CHOL    R214971  17.870  22.962   4.130  0.1571 -0.1668 -0.0048
    1CHOL    R314972  17.720  22.783   4.268 -0.0416  0.0122  0.0193
    1CHOL    R414973  17.936  22.857   4.452  0.1406 -0.2975 -0.0425
    1CHOL    R514974  17.880  22.655   4.393 -0.1573 -0.2239 -0.0571
    1CHOL    C114975  17.834  22.628   4.770 -0.0555 -0.2056 -0.0418
    1CHOL    C214976  17.928  22.364   5.023  0.1999  0.1428 -0.1124
    1CHOL   ROH14977  23.343  12.946   2.850  0.1942  0.1831  0.0152
    1CHOL    R114978  23.187  12.956   3.086  0.2288  0.1346  0.0404
    1CHOL    R214979  23.184  12.750   3.271  0.2244  0.0793 -0.0210
    1CHOL    R314980  23.250  12.948   3.445  0.2779  0.0168  0.0300
    1CHOL    R414981  23.163  12.726   3.615 -0.0871  0.0982 -0.0363
    1CHOL    R514982  23.087  12.930   3.620  0.1101  0.1770 -0.1037
    1CHOL    C114983  23.213  12.897   3.979 -0.2184  0.0508  0.0027
    1CHOL    C214984  23.459  12.912   4.212 -0.0778  0.0444  0.0482
    1CHOL   ROH14985  12.906  17.907   2.687  0.1973  0.0076  0.0803
    1CHOL    R114986  13.083  18.007   2.884  0.1766 -0.0614  0.1364
    1CHOL    R214987  13.011  18.031   3.150  0.1216 -0.0873  0.1315
    1CHOL    R314988  13.236  17.883   3.190  0.0779 -0.1471  0.1486
    1CHOL    R414989  13.200  18.031   3.440  0.1972 -0.0302  0.0814
    1CHOL    R514990  13.380  18.025   3.317  0.1602 -0.1499  0.0474
    1CHOL    C114991  13.521  17.892   3.645  0.2000 -0.0531  0.0683
    1CHOL    C214992  13.619  17.663   3.923 -0.2743  0.1178  0.2925
    1CHOL   ROH14993   9.464  19.057   6.139 -0.2384 -0.0842 -0.0583
    1CHOL    R114994   9.506  19.149   5.875  0.1778 -0.0678  0.0058
    1CHOL    R214995   9.715  19.059   5.718  0.0956 -0.5065  0.1228
    1CHOL    R314996   9.515  19.001   5.542  0.0698  0.0378 -0.0423
    1CHOL    R414997   9.755  19.032   5.376  0.2901 -0.6011  0.1522
    1CHOL    R514998   9.565  19.136   5.350  0.5843 -0.0834 -0.0014
    1CHOL    C114999   9.591  18.962   5.012  0.3790 -0.1451  0.0144
    1CHOL    C215000   9.680  19.195   4.720  0.2226  0.2109  0.0164
    1CHOL   ROH15001  13.846   8.212   3.509 -0.0859  0.2126  0.0540
    1CHOL    R115002  13.698   8.148   3.742 -0.1218  0.3207  0.0586
    1CHOL    R215003  13.795   7.981   3.939 -0.2799  0.1684 -0.0063
    1CHOL    R315004  13.739   8.192   4.101 -0.0256  0.1862  0.0686
    1CHOL    R415005  13.821   7.978   4.284 -0.3664 -0.0414  0.0015
    1CHOL    R515006  13.637   8.093   4.294 -0.2224  0.2261 -0.0001
    1CHOL    C115007  13.783   8.174   4.636 -0.1781 -0.1467  0.0763
    1CHOL    C215008  13.764   8.139   5.005 -0.1128  0.1334 -0.0052
    1CHOL   ROH15009   8.543  10.605   3.539  0.0996  0.2278 -0.1261
    1CHOL    R115010   8.531  10.794   3.750 -0.0328  0.1334 -0.0487
    1CHOL    R215011   8.292  10.891   3.848 -0.0997 -0.0853  0.0004
    1CHOL    R315012   8.392  10.806   4.086 -0.0283 -0.1044 -0.0355
    1CHOL    R415013   8.181  10.996   4.158 -0.0765 -0.1776  0.0408
    1CHOL    R515014   8.388  11.001   4.225 -0.0615 -0.1292  0.0032
    1CHOL    C115015   8.211  10.977   4.562  0.0038 -0.2492  0.0306
    1CHOL    C215016   8.127  11.175   4.896  0.0773  0.0390 -0.2251
    1CHOL   ROH15017  19.296  10.390   5.858  0.0057 -0.3202 -0.2032
    1CHOL    R115018  19.178  10.461   5.611  0.0628 -0.1600 -0.1855
    1CHOL    R215019  19.294  10.641   5.436  0.2589 -0.2833 -0.1800
    1CHOL    R315020  19.266  10.436   5.259 -0.0020 -0.2380 -0.1976
    1CHOL    R415021  19.246  10.678   5.095  0.2373 -0.1897 -0.1677
    1CHOL    R515022  19.103  10.514   5.102  0.0518 -0.0356 -0.1595
    1CHOL    C115023  19.193  10.508   4.731 -0.0202 -0.0926 -0.1771
    1CHOL    C215024  19.086  10.476   4.353 -0.1991  0.1062 -0.3096
    1CHOL   ROH15025   8.114  13.376   5.880  0.2597  0.0304 -0.0992
    1CHOL    R115026   8.084  13.301   5.608  0.1140 -0.0566 -0.0603
    1CHOL    R215027   8.201  13.442   5.401  0.0225 -0.1359 -0.1674
    1CHOL    R315028   8.304  13.198   5.337 -0.0336 -0.1669 -0.1396
    1CHOL    R415029   8.284  13.340   5.081  0.2781 -0.0811 -0.1205
    1CHOL    R515030   8.202  13.143   5.128  0.1379 -0.0559 -0.2547
    1CHOL    C115031   8.429  13.053   4.835  0.3743 -0.0785 -0.0670
    1CHOL    C215032   8.644  12.830   4.652  0.0999  0.2520  0.0142
    1CHOL   ROH15033  21.682  19.920   5.231  0.1281  0.2002 -0.0016
    1CHOL    R115034  21.641  20.145   5.063 -0.0082  0.1630 -0.0173
    1CHOL    R215035  21.392  20.262   5.031 -0.0161  0.2149  0.2383
    1CHOL    R315036  21.525  20.487   5.104  0.1271  0.2058  0.0199
    1CHOL    R415037  21.307  20.582   4.933 -0.1237  0.2143  0.3269
    1CHOL    R515038  21.519  20.626   4.909 -0.1448  0.1845  0.0064
    1CHOL    C115039  21.381  20.980   4.945 -0.0517  0.2058  0.1734
    1CHOL    C215040  21.246  21.281   5.001 -0.1568 -0.2300  0.2702
    1CHOL   ROH15041   8.828  27.541   3.386  0.2407  0.0563  0.0833
    1CHOL    R115042   8.825  27.294   3.524  0.1005  0.1316  0.2181
    1CHOL    R215043   9.021  27.102   3.489 -0.1213 -0.0866  0.1584
    1CHOL    R315044   9.042  27.120   3.759  0.1177  0.0390  0.1349
    1CHOL    R415045   9.216  26.895   3.686 -0.0363 -0.0694  0.0940
    1CHOL    R515046   9.055  26.893   3.833  0.0863  0.0688  0.2356
    1CHOL    C115047   9.349  26.792   4.055  0.2376  0.0585  0.0344
    1CHOL    C215048   9.411  26.777   4.406 -0.3863 -0.0784  0.3738
    1CHOL   ROH15049  22.507   2.631   3.501 -0.1063  0.0557 -0.0670
    1CHOL    R115050  22.501   2.409   3.675  0.0207  0.0466 -0.0731
    1CHOL    R215051  22.716   2.335   3.832  0.0176  0.2488  0.0283
    1CHOL    R315052  22.535   2.352   4.033 -0.0955  0.0761 -0.0568
    1CHOL    R415053  22.788   2.289   4.167 -0.1258  0.1757  0.0497
    1CHOL    R515054  22.600   2.180   4.187 -0.0752  0.0606 -0.0827
    1CHOL    C115055  22.659   2.277   4.551 -0.3156 -0.0290 -0.0177
    1CHOL    C215056  22.716   2.287   4.969  0.1534  0.1569  0.2469
    1CHOL   ROH15057  13.851  10.651   6.567  0.1730 -0.0295  0.1060
    1CHOL    R115058  13.952  10.598   6.308  0.2440  0.1964  0.0855
    1CHOL    R215059  13.795  10.499   6.104  0.3904 -0.0290  0.0816
    1CHOL    R315060  13.889  10.716   5.970  0.0146  0.1643  0.1146
    1CHOL    R415061  13.813  10.526   5.760  0.3538  0.0469  0.0850
    1CHOL    R515062  14.007  10.623   5.783  0.1892  0.3910  0.1050
    1CHOL    C115063  13.913  10.745   5.434 -0.0203  0.2724  0.1179
    1CHOL    C215064  14.034  10.740   5.108 -0.0398  0.0957 -0.0205
    1CHOL   ROH15065  18.244  22.269   6.833 -0.0634 -0.0379 -0.0109
    1CHOL    R115066  18.113  22.246   6.582  0.0890 -0.1510 -0.0805
    1CHOL    R215067  18.079  22.461   6.412 -0.0737 -0.1649 -0.0603
    1CHOL    R315068  18.201  22.297   6.233  0.2061  0.0041 -0.0306
    1CHOL    R415069  18.098  22.519   6.072 -0.1617 -0.1795 -0.0688
    1CHOL    R515070  18.062  22.307   6.038  0.1880 -0.2536 -0.0370
    1CHOL    C115071  18.225  22.398   5.706  0.0495 -0.0292 -0.0459
    1CHOL    C215072  18.320  22.328   5.320 -0.4129  0.4237  0.2000
    1CHOL   ROH15073  25.719   8.074   5.445 -0.0942 -0.0628  0.0282
    1CHOL    R115074  25.721   7.915   5.211 -0.0596 -0.0014 -0.0140
    1CHOL    R215075  25.490   7.814   5.098 -0.0278 -0.1463  0.0432
    1CHOL    R315076  25.584   7.938   4.875 -0.2002 -0.0154  0.0421
    1CHOL    R415077  25.388   7.745   4.775  0.0031 -0.2276  0.0511
    1CHOL    R515078  25.595   7.765   4.710 -0.0278  0.0138  0.0227
    1CHOL    C115079  25.417   7.821   4.378 -0.1408 -0.1521  0.0547
    1CHOL    C215080  25.308   8.120   4.074  0.1544  0.1124  0.0677
    1CHOL   ROH15081   7.479  14.190   6.202 -0.1886  0.0774 -0.0507
    1CHOL    R115082   7.575  14.112   5.947 -0.0555  0.0015  0.0213
    1CHOL    R215083   7.463  13.905   5.803 -0.0315  0.0059 -0.0122
    1CHOL    R315084   7.444  14.093   5.609  0.1437 -0.0195 -0.0550
    1CHOL    R415085   7.497  13.844   5.465 -0.1816 -0.1138 -0.0061
    1CHOL    R515086   7.609  14.030   5.447  0.0309 -0.2499 -0.0793
    1CHOL    C115087   7.498  13.986   5.085 -0.1045 -0.2073 -0.0427
    1CHOL    C215088   7.699  13.813   4.750 -0.1425 -0.4366  0.1219
    1CHOL   ROH15089  17.380  23.088   6.527  0.0713  0.1885 -0.0097
    1CHOL    R115090  17.430  22.952   6.284 -0.0180  0.2772 -0.0794
    1CHOL    R215091  17.494  23.084   6.049  0.1200  0.3545 -0.0039
    1CHOL    R315092  17.710  22.919   6.053 -0.0194  0.1694 -0.0643
    1CHOL    R415093  17.689  23.008   5.774  0.0703  0.2981 -0.0230
    1CHOL    R515094  17.698  22.802   5.844 -0.1071  0.2640 -0.1094
    1CHOL    C115095  18.004  22.808   5.617 -0.0896  0.0916 -0.0909
    1CHOL    C215096  18.048  22.818   5.183  0.3951  0.2540  0.0602
    1CHOL   ROH15097  10.580  17.052   6.304 -0.1028 -0.0687  0.0901
    1CHOL    R115098  10.572  16.898   6.067 -0.2590 -0.0122  0.0558
    1CHOL    R215099  10.384  16.940   5.868 -0.1772  0.2732  0.0249
    1CHOL    R315100  10.604  16.962   5.710 -0.1138  0.0277  0.0774
    1CHOL    R415101  10.382  16.928   5.522 -0.0991  0.3005  0.0245
    1CHOL    R515102  10.565  16.810   5.530 -0.2428  0.0906  0.0588
    1CHOL    C115103  10.588  16.942   5.173  0.0058  0.0859  0.0735
    1CHOL    C215104  10.506  16.797   4.871 -0.3192 -0.0800  0.3341
    1CHOL   ROH15105   7.653  17.436   5.147  0.2315 -0.3229  0.1586
    1CHOL    R115106   7.840  17.244   5.054  0.3951 -0.1147  0.0471
    1CHOL    R215107   7.856  17.169   4.789  0.3581 -0.0550  0.0283
    1CHOL    R315108   8.118  17.237   4.820  0.3036  0.2149 -0.0771
    1CHOL    R415109   8.106  17.099   4.561  0.3836 -0.0354  0.0498
    1CHOL    R515110   8.238  17.051   4.728  0.4586  0.2388  0.0733
    1CHOL    C115111   8.497  17.122   4.456  0.3474  0.2294 -0.0366
    1CHOL    C215112   8.775  16.823   4.347  0.0782 -0.2136  0.4785
    1CHOL   ROH15113  21.705  15.870   5.783  0.1910  0.0361 -0.0846
    1CHOL    R115114  21.662  15.809   5.510  0.1727 -0.0936 -0.0529
    1CHOL    R215115  21.636  16.004   5.316  0.0325 -0.1828 -0.1243
    1CHOL    R315116  21.837  15.866   5.196  0.0843 -0.1231 -0.1078
    1CHOL    R415117  21.741  16.053   4.991 -0.0064 -0.2094 -0.1415
    1CHOL    R515118  21.762  15.837   4.970  0.0843 -0.2044 -0.0969
    1CHOL    C115119  21.991  15.952   4.688  0.0196 -0.1689 -0.1361
    1CHOL    C215120  22.015  16.225   4.435  0.1360  0.1614  0.2376
    1CHOL   ROH15121  14.726  20.002   6.043 -0.1360  0.2105 -0.1305
    1CHOL    R115122  14.816  19.864   5.812 -0.1435  0.0497 -0.0384
    1CHOL    R215123  14.645  19.726   5.645 -0.1679  0.0498 -0.0124
    1CHOL    R315124  14.758  19.882   5.454 -0.0410 -0.1020 -0.0638
    1CHOL    R415125  14.598  19.687   5.305 -0.3967  0.1230  0.0092
    1CHOL    R515126  14.809  19.731   5.276 -0.3443 -0.1742 -0.0958
    1CHOL    C115127  14.676  19.811   4.927 -0.4107  0.0232 -0.0265
    1CHOL    C215128  14.823  19.921   4.652 -0.2039 -0.2735  0.1522
    1CHOL   ROH15129  11.973  18.721   2.882 -0.1102 -0.0413  0.0498
    1CHOL    R115130  12.139  18.656   3.102 -0.0893 -0.0494  0.0309
    1CHOL    R215131  12.092  18.753   3.357 -0.0205  0.0017  0.0208
    1CHOL    R315132  12.099  18.489   3.423 -0.0750  0.0104  0.0652
    1CHOL    R415133  12.084  18.630   3.680 -0.1523  0.0590  0.0405
    1CHOL    R515134  12.232  18.481   3.622 -0.1456  0.0300  0.1170
    1CHOL    C115135  12.085  18.311   3.930 -0.2800  0.1006  0.0937
    1CHOL    C215136  11.920  18.591   4.198  0.0667 -0.0188 -0.1576
    1CHOL   ROH15137  13.327  16.911   2.751 -0.1203 -0.0250 -0.0167
    1CHOL    R115138  13.258  16.983   3.016 -0.0845  0.0049 -0.0153
    1CHOL    R215139  13.154  16.803   3.197  0.0166  0.0064  0.0442
    1CHOL    R315140  13.360  16.887   3.351  0.0229  0.1061 -0.0181
    1CHOL    R415141  13.176  16.756   3.538  0.0528  0.1755  0.0656
    1CHOL    R515142  13.256  16.958   3.556  0.0329  0.1950 -0.0419
    1CHOL    C115143  13.383  16.809   3.883  0.0799  0.3674  0.0196
    1CHOL    C215144  13.086  16.762   4.081 -0.0432  0.0980  0.0747
    1CHOL   ROH15145  11.566   2.027   6.541 -0.0032 -0.1023 -0.0360
    1CHOL    R115146  11.625   2.289   6.452 -0.0138 -0.0838  0.0054
    1CHOL    R215147  11.842   2.346   6.291 -0.0587 -0.0589 -0.0640
    1CHOL    R315148  11.653   2.460   6.132 -0.1148 -0.0175  0.0353
    1CHOL    R415149  11.907   2.533   6.007 -0.1877 -0.1126 -0.1283
    1CHOL    R515150  11.748   2.670   6.067 -0.1002 -0.0615 -0.0527
    1CHOL    C115151  11.768   2.749   5.694 -0.3154 -0.1051 -0.0725
    1CHOL    C215152  12.248   2.725   5.609  0.2090  0.0910 -0.0051
    1CHOL   ROH15153  18.275  21.830   6.829  0.1741 -0.0199  0.1342
    1CHOL    R115154  18.272  21.741   6.560 -0.1784  0.1394  0.0806
    1CHOL    R215155  18.130  21.872   6.361  0.0733  0.6420  0.2153
    1CHOL    R315156  18.372  21.874   6.236  0.0436  0.0723  0.1204
    1CHOL    R415157  18.177  21.894   6.020  0.0020  0.4509  0.1917
    1CHOL    R515158  18.337  21.748   6.036 -0.3106  0.0927  0.1648
    1CHOL    C115159  18.430  21.909   5.703 -0.0672 -0.1953  0.0889
    1CHOL    C215160  18.720  21.830   5.428  0.0790 -0.1113  0.1758
    1CHOL   ROH15161   9.295  20.844   2.943  0.1587  0.0164  0.1137
    1CHOL    R115162   9.214  20.831   3.214 -0.0583  0.1446  0.0577
    1CHOL    R215163   9.393  20.855   3.424 -0.1597 -0.1738  0.1840
    1CHOL    R315164   9.223  21.052   3.504  0.1202  0.1232  0.0702
    1CHOL    R415165   9.345  20.952   3.752 -0.0334  0.0740  0.1312
    1CHOL    R515166   9.132  20.971   3.710 -0.0113  0.3646  0.1122
    1CHOL    C115167   9.158  21.194   4.018  0.3028  0.4972 -0.0065
    1CHOL    C215168   9.315  21.161   4.344 -0.1874  0.0526 -0.2571
    1CHOL   ROH15169  17.912  16.689   2.940  0.2381 -0.1083 -0.0011
    1CHOL    R115170  18.016  16.605   3.189  0.2013  0.1348  0.0997
    1CHOL    R215171  18.100  16.783   3.383 -0.1314  0.3334  0.0715
    1CHOL    R315172  17.926  16.644   3.540 -0.0525  0.1870  0.0306
    1CHOL    R415173  18.086  16.800   3.728 -0.0237  0.0824  0.0907
    1CHOL    R515174  18.054  16.585   3.733  0.0213  0.0724 -0.0524
    1CHOL    C115175  17.915  16.680   4.076  0.1130 -0.2013  0.0634
    1CHOL    C215176  18.132  16.443   4.344 -0.0877  0.0293 -0.2017
    1CHOL   ROH15177  20.023  19.038   2.967 -0.0990  0.0447 -0.0015
    1CHOL    R115178  20.139  18.955   3.212  0.0072  0.1018 -0.0325
    1CHOL    R215179  20.177  19.128   3.425 -0.1468  0.0898  0.0009
    1CHOL    R315180  20.036  18.940   3.561  0.0556 -0.0852 -0.0237
    1CHOL    R415181  20.148  19.114   3.769 -0.0498 -0.0379  0.0051
    1CHOL    R515182  20.167  18.897   3.757  0.1472 -0.0235 -0.0668
    1CHOL    C115183  19.999  18.930   4.097  0.1965 -0.2765 -0.0156
    1CHOL    C215184  20.159  18.721   4.306  0.1060 -0.0217 -0.0211
    1CHOL   ROH15185  29.273  15.984   4.116  0.0162  0.0576  0.1360
    1CHOL    R115186  29.045  15.837   4.197  0.0252  0.0814  0.2036
    1CHOL    R215187  28.825  15.957   4.313 -0.0621  0.1503 -0.0335
    1CHOL    R315188  28.691  15.830   4.113  0.0630 -0.1241  0.0509
    1CHOL    R415189  28.493  15.863   4.327 -0.1253  0.3458 -0.1758
    1CHOL    R515190  28.546  15.676   4.227 -0.1206  0.1393  0.1873
    1CHOL    C115191  28.173  15.690   4.148 -0.0448  0.2020 -0.1794
    1CHOL    C215192  28.123  15.504   4.586 -0.1645  0.0709  0.0437
    1CHOL   ROH15193  21.216  14.426   2.545 -0.2670 -0.0829 -0.0093
    1CHOL    R115194  21.138  14.380   2.813 -0.1795 -0.1166  0.0118
    1CHOL    R215195  21.182  14.138   2.941 -0.0306 -0.0963  0.0086
    1CHOL    R315196  21.304  14.296   3.126 -0.0607 -0.0310 -0.0284
    1CHOL    R415197  21.243  14.048   3.269  0.0127 -0.0177  0.0215
    1CHOL    R515198  21.188  14.250   3.330 -0.0351 -0.0221 -0.0137
    1CHOL    C115199  21.393  14.143   3.633  0.0096  0.0894 -0.0059
    1CHOL    C215200  21.472  13.951   3.944  0.0129 -0.3396 -0.0071
    1CHOL   ROH15201   1.798   6.154   4.824  0.0523 -0.1229 -0.0838
    1CHOL    R115202   1.955   6.381   4.886  0.0149 -0.1411  0.0787
    1CHOL    R215203   2.223   6.363   4.950  0.0662 -0.1260 -0.1397
    1CHOL    R315204   2.250   6.544   4.749 -0.1426  0.1352  0.0593
    1CHOL    R415205   2.447   6.627   4.950  0.1489 -0.1949 -0.0722
    1CHOL    R515206   2.291   6.752   4.861  0.0639 -0.0224  0.2900
    1CHOL    C115207   2.602   6.950   4.761  0.0011  0.0102  0.1538
    1CHOL    C215208   2.861   7.123   5.051  0.0111  0.1178 -0.2321
    1CHOL   ROH15209  16.517   7.763   2.951  0.1291 -0.0516  0.2290
    1CHOL    R115210  16.340   7.789   3.171  0.0876 -0.0906  0.2024
    1CHOL    R215211  16.430   7.830   3.429  0.0403 -0.0929  0.2273
    1CHOL    R315212  16.263   8.044   3.419  0.0146 -0.1160  0.2028
    1CHOL    R415213  16.369   8.046   3.692  0.1996  0.0846  0.1193
    1CHOL    R515214  16.159   8.048   3.635  0.1655  0.0259  0.2679
    1CHOL    C115215  16.177   8.372   3.836  0.2687  0.1661  0.0335
    1CHOL    C215216  15.987   8.663   4.060  0.0649 -0.0078 -0.2313
    1CHOL   ROH15217  10.729  12.908   3.081 -0.1557  0.0740 -0.0912
    1CHOL    R115218  10.626  12.864   3.341 -0.1317  0.1497 -0.0676
    1CHOL    R215219  10.764  12.721   3.533 -0.1273  0.1743 -0.0467
    1CHOL    R315220  10.725  12.945   3.682 -0.0783  0.2176 -0.1002
    1CHOL    R415221  10.762  12.730   3.878 -0.2993  0.2326 -0.0493
    1CHOL    R515222  10.595  12.870   3.868 -0.2139  0.3224 -0.1552
    1CHOL    C115223  10.724  12.946   4.219 -0.3534  0.3072 -0.1011
    1CHOL    C215224  10.861  12.906   4.540 -0.1920  0.2236 -0.1244
    1CHOL   ROH15225  15.834  12.930   2.729  0.1383  0.2078 -0.0110
    1CHOL    R115226  15.864  12.953   3.009  0.0383  0.1628  0.0032
    1CHOL    R215227  15.654  12.912   3.185 -0.0088  0.0813 -0.0770
    1CHOL    R315228  15.826  12.734   3.298 -0.0067  0.1019 -0.0469
    1CHOL    R415229  15.636  12.801   3.512 -0.0009  0.1637 -0.0484
    1CHOL    R515230  15.854  12.813   3.522  0.0059  0.1598 -0.0646
    1CHOL    C115231  15.787  12.570   3.808  0.0060  0.2310 -0.0035
    1CHOL    C215232  15.488  12.648   4.103 -0.1819  0.1104  0.2042
    1CHOL   ROH15233  19.577  18.652   6.266  0.0352 -0.1628 -0.0949
    1CHOL    R115234  19.702  18.779   6.046 -0.1133  0.0333 -0.0687
    1CHOL    R215235  19.802  18.638   5.831  0.1722  0.1831 -0.0381
    1CHOL    R315236  19.643  18.805   5.688 -0.0695 -0.0794 -0.0843
    1CHOL    R415237  19.879  18.767   5.520 -0.0058  0.2277 -0.0651
    1CHOL    R515238  19.795  18.957   5.583 -0.2868  0.1216 -0.1134
    1CHOL    C115239  19.774  18.999   5.204 -0.3363  0.0074 -0.1242
    1CHOL    C215240  19.969  19.200   4.921 -0.0594  0.2171  0.0836
    1CHOL   ROH15241  14.181  15.267   2.754  0.0592  0.2685  0.0286
    1CHOL    R115242  14.146  15.389   3.007 -0.0708  0.1712  0.0591
    1CHOL    R215243  14.010  15.266   3.214  0.0347 -0.0139  0.0235
    1CHOL    R315244  14.240  15.316   3.351 -0.0167  0.1709  0.0434
    1CHOL    R415245  14.041  15.258   3.558  0.1049 -0.3836  0.0132
    1CHOL    R515246  14.168  15.435   3.546 -0.1655 -0.1717  0.2028
    1CHOL    C115247  14.274  15.302   3.887  0.0975 -0.4253  0.0260
    1CHOL    C215248  14.304  15.383   4.295 -0.0165 -0.0824  0.2505
    1CHOL   ROH15249   1.329   1.860   5.951  0.0646  0.0190  0.1251
    1CHOL    R115250   1.331   1.908   5.672 -0.1106 -0.0416  0.1129
    1CHOL    R215251   1.103   1.979   5.532 -0.1749  0.0488  0.2620
    1CHOL    R315252   1.257   2.188   5.452 -0.1205 -0.0493  0.1063
    1CHOL    R415253   1.018   2.205   5.285 -0.1565 -0.0577  0.1572
    1CHOL    R515254   1.224   2.200   5.215 -0.1754 -0.1692  0.1074
    1CHOL    C115255   1.113   2.532   5.065 -0.0947 -0.2118 -0.0500
    1CHOL    C215256   1.307   2.801   4.872  0.0413 -0.3775 -0.1507
    1CHOL   ROH15257  10.535  17.675   2.956  0.3027 -0.2286 -0.0483
    1CHOL    R115258  10.369  17.599   3.171  0.1023  0.0433 -0.1019
    1CHOL    R215259  10.394  17.356   3.300 -0.3191  0.0103 -0.0709
    1CHOL    R315260  10.414  17.512   3.522 -0.1609 -0.0002 -0.0767
    1CHOL    R415261  10.392  17.238   3.625 -0.2693  0.0054 -0.0726
    1CHOL    R515262  10.268  17.408   3.681 -0.1626  0.0729 -0.0279
    1CHOL    C115263  10.410  17.315   4.022 -0.0918 -0.0073 -0.0791
    1CHOL    C215264  10.201  17.141   4.308 -0.0815 -0.1708 -0.2896
    1CHOL   ROH15265  21.058  20.514   3.349 -0.2007  0.1788  0.0447
    1CHOL    R115266  20.931  20.378   3.563 -0.3252  0.1023 -0.0774
    1CHOL    R215267  21.038  20.367   3.817 -0.3111 -0.2609 -0.0985
    1CHOL    R315268  20.795  20.466   3.889 -0.2026 -0.0734  0.0240
    1CHOL    R415269  20.961  20.492   4.130 -0.0319 -0.1380 -0.0752
    1CHOL    R515270  20.767  20.393   4.116 -0.1161 -0.0078  0.0601
    1CHOL    C115271  20.688  20.657   4.380  0.2324  0.1094  0.0532
    1CHOL    C215272  20.405  20.866   4.547  0.0212 -0.3034 -0.1036
    1CHOL   ROH15273  12.094   6.925   6.438  0.0148  0.0210 -0.0160
    1CHOL    R115274  12.111   6.926   6.155  0.1037 -0.1142 -0.0127
    1CHOL    R215275  12.132   6.694   6.008  0.0498 -0.1954  0.0948
    1CHOL    R315276  11.915   6.794   5.878  0.1318 -0.1563 -0.0105
    1CHOL    R415277  12.011   6.574   5.707 -0.0844 -0.4437  0.2452
    1CHOL    R515278  11.975   6.781   5.645  0.0986 -0.4873 -0.0001
    1CHOL    C115279  11.737   6.599   5.410 -0.0857 -0.5516  0.2339
    1CHOL    C215280  11.995   6.355   5.244  0.0194 -0.2582 -0.2745
    1CHOL   ROH15281  28.376  24.213   3.318 -0.1070  0.1870  0.0533
    1CHOL    R115282  28.553  24.166   3.534 -0.1257  0.0413  0.0375
    1CHOL    R215283  28.485  24.219   3.796 -0.0807  0.0418  0.0488
    1CHOL    R315284  28.556  23.959   3.833 -0.2412 -0.0096  0.0038
    1CHOL    R415285  28.598  24.085   4.094 -0.0560 -0.0572 -0.0043
    1CHOL    R515286  28.744  23.969   3.981 -0.1771 -0.1478 -0.0675
    1CHOL    C115287  28.731  23.763   4.302 -0.1923 -0.1634 -0.0775
    1CHOL    C215288  28.904  23.758   4.578  0.2575  0.0941  0.0313
    1CHOL   ROH15289  11.416  14.799   6.196  0.0856  0.0729 -0.0002
    1CHOL    R115290  11.496  14.626   5.987  0.0171 -0.0609  0.0826
    1CHOL    R215291  11.327  14.552   5.782  0.0723  0.1447 -0.0425
    1CHOL    R315292  11.528  14.645   5.625  0.3264 -0.1405  0.1035
    1CHOL    R415293  11.350  14.503   5.441  0.0825  0.3822 -0.0771
    1CHOL    R515294  11.564  14.471   5.465  0.0151 -0.0873 -0.0288
    1CHOL    C115295  11.552  14.563   5.095  0.3269  0.2529  0.0398
    1CHOL    C215296  11.613  14.762   4.816 -0.2042 -0.0054  0.1424
    1CHOL   ROH15297   1.259  16.788   5.605 -0.0338 -0.1061  0.0039
    1CHOL    R115298   1.131  16.857   5.362  0.0151  0.0079  0.0095
    1CHOL    R215299   1.185  17.092   5.227  0.0805  0.0491  0.1024
    1CHOL    R315300   1.234  16.924   5.019  0.0799  0.1142  0.0500
    1CHOL    R415301   1.207  17.189   4.896  0.0287  0.1403  0.1256
    1CHOL    R515302   1.097  17.009   4.841  0.0490  0.1419  0.0889
    1CHOL    C115303   1.265  17.088   4.508 -0.0021  0.2542  0.0898
    1CHOL    C215304   1.314  17.110   4.129 -0.1601  0.2036 -0.0406
    1CHOL   ROH15305  15.086   6.014   6.113  0.1730  0.0457  0.0946
    1CHOL    R115306  15.141   6.219   5.926  0.1257 -0.1596 -0.1501
    1CHOL    R215307  15.037   6.219   5.670 -0.2256 -0.2686 -0.0158
    1CHOL    R315308  14.949   6.466   5.740  0.1148 -0.1224 -0.0879
    1CHOL    R415309  14.946   6.467   5.447 -0.1453 -0.3010 -0.0844
    1CHOL    R515310  15.045   6.612   5.576  0.1337 -0.3295 -0.2624
    1CHOL    C115311  14.811   6.843   5.383  0.2209 -0.1826 -0.1922
    1CHOL    C215312  14.754   7.209   5.380  0.0274 -0.4860 -0.1285
    1CHOL   ROH15313  25.573  22.384   3.353  0.4359 -0.0507  0.0604
    1CHOL    R115314  25.565  22.190   3.559  0.3350 -0.0408  0.0658
    1CHOL    R215315  25.731  22.202   3.780  0.1447  0.0357  0.2050
    1CHOL    R315316  25.497  22.188   3.917  0.0341 -0.0469  0.0113
    1CHOL    R415317  25.703  22.195   4.124 -0.1311 -0.0429  0.1834
    1CHOL    R515318  25.545  22.047   4.104 -0.0838 -0.0768  0.0224
    1CHOL    C115319  25.466  22.179   4.453 -0.3958 -0.1659 -0.0109
    1CHOL    C215320  25.416  21.843   4.552 -0.0391  0.0967  0.0693
    1CHOL   ROH15321  18.330  14.409   2.559 -0.1874  0.0351  0.0659
    1CHOL    R115322  18.428  14.283   2.793 -0.1798 -0.0750  0.0028
    1CHOL    R215323  18.555  14.423   2.995 -0.0867 -0.1867  0.0157
    1CHOL    R315324  18.366  14.305   3.151 -0.0897 -0.1708  0.0262
    1CHOL    R415325  18.568  14.403   3.340 -0.0062 -0.2829  0.0086
    1CHOL    R515326  18.491  14.200   3.326 -0.0759 -0.2600 -0.0313
    1CHOL    C115327  18.398  14.281   3.687  0.0379 -0.3240  0.0144
    1CHOL    C215328  18.219  14.154   3.952  0.1402  0.1385  0.2718
    1CHOL   ROH15329  19.026  13.446   2.780 -0.0480 -0.0459  0.0120
    1CHOL    R115330  19.117  13.572   3.016 -0.0202 -0.0179 -0.0122
    1CHOL    R215331  18.961  13.591   3.244 -0.0246  0.0796 -0.0187
    1CHOL    R315332  19.176  13.474   3.362 -0.0632  0.0417  0.0115
    1CHOL    R415333  19.000  13.547   3.584 -0.0771  0.0774 -0.0140
    1CHOL    R515334  19.210  13.600   3.562 -0.0660  0.0368  0.0131
    1CHOL    C115335  19.224  13.411   3.893 -0.1439  0.0405  0.0170
    1CHOL    C215336  19.237  13.084   4.171 -0.1154  0.1838 -0.1513
    1CHOL   ROH15337  16.375  18.630   2.778 -0.0605  0.1522 -0.0043
    1CHOL    R115338  16.262  18.559   3.027 -0.0557  0.1438 -0.0044
    1CHOL    R215339  16.382  18.379   3.199 -0.0635  0.1219 -0.0225
    1CHOL    R315340  16.358  18.583   3.377 -0.0389  0.1106 -0.0064
    1CHOL    R415341  16.349  18.340   3.541  0.2685  0.1040  0.0112
    1CHOL    R515342  16.202  18.501   3.540  0.1584  0.0092  0.1367
    1CHOL    C115343  16.306  18.508   3.907  0.4850  0.0832  0.0458
    1CHOL    C215344  16.209  18.726   4.178 -0.2622 -0.3059 -0.1430
    1CHOL   ROH15345   2.011  20.156   5.717  0.0287  0.0236 -0.0427
    1CHOL    R115346   2.096  20.053   5.468 -0.0436  0.0884 -0.0931
    1CHOL    R215347   2.197  20.213   5.268  0.0678  0.1147 -0.0072
    1CHOL    R315348   2.407  20.039   5.279 -0.0514 -0.0397 -0.1017
    1CHOL    R415349   2.442  20.185   5.025  0.1651  0.2458  0.0735
    1CHOL    R515350   2.436  19.968   5.051  0.0068  0.2085 -0.1811
    1CHOL    C115351   2.782  20.006   4.895  0.1097  0.1770  0.0318
    1CHOL    C215352   2.961  20.099   4.538 -0.1645 -0.0824 -0.3036
    1CHOL   ROH15353   9.198  12.417   6.404  0.0683  0.0837  0.1616
    1CHOL    R115354   9.201  12.285   6.153  0.0867  0.0331  0.1901
    1CHOL    R215355   9.246  12.419   5.915 -0.0861  0.0141  0.1536
    1CHOL    R315356   9.442  12.233   5.886  0.0417  0.1491  0.1233
    1CHOL    R415357   9.326  12.261   5.618 -0.0321  0.0711  0.1359
    1CHOL    R515358   9.352  12.075   5.730  0.1172  0.0837  0.1372
    1CHOL    C115359   9.556  11.994   5.418  0.1193  0.2311  0.0972
    1CHOL    C215360   9.705  11.711   5.249  0.0230  0.2076  0.0662
    1CHOL   ROH15361   2.339  26.866   5.421  0.0557  0.0237 -0.1404
    1CHOL    R115362   2.261  26.954   5.163  0.0260 -0.1698 -0.2006
    1CHOL    R215363   2.116  26.796   4.989 -0.2367 -0.2079  0.0387
    1CHOL    R315364   1.948  27.010   4.987 -0.0042 -0.0229 -0.1001
    1CHOL    R415365   1.904  26.878   4.729 -0.4193 -0.3602  0.1380
    1CHOL    R515366   1.954  27.087   4.760 -0.1533 -0.3642 -0.2246
    1CHOL    C115367   1.623  27.126   4.575 -0.3074 -0.2753  0.0656
    1CHOL    C215368   1.571  27.512   4.390 -0.2930  0.0999 -0.0909
    1CHOL   ROH15369  20.146  13.449   2.362  0.0607  0.3484  0.0397
    1CHOL    R115370  20.113  13.430   2.643 -0.0927  0.2368  0.0161
    1CHOL    R215371  20.326  13.443   2.820 -0.1572 -0.0783  0.1300
    1CHOL    R315372  20.178  13.642   2.931 -0.0038  0.0216  0.1549
    1CHOL    R415373  20.336  13.534   3.153 -0.1108 -0.1425  0.1454
    1CHOL    R515374  20.120  13.559   3.148 -0.0875  0.0335  0.1340
    1CHOL    C115375  20.204  13.775   3.451  0.0605 -0.0862  0.1778
    1CHOL    C215376  20.300  14.043   3.643 -0.1913  0.0805  0.3841
    1CHOL   ROH15377  16.955  16.514   2.854  0.0232  0.2188  0.0304
    1CHOL    R115378  16.929  16.650   3.101 -0.2281  0.1478  0.0455
    1CHOL    R215379  16.715  16.608   3.271 -0.1049 -0.3520  0.0957
    1CHOL    R315380  16.911  16.558   3.453  0.0639  0.0780  0.0439
    1CHOL    R415381  16.675  16.620   3.614  0.0275 -0.2141  0.1071
    1CHOL    R515382  16.871  16.714   3.629 -0.1163  0.1204 -0.0336
    1CHOL    C115383  16.835  16.580   3.984  0.2628  0.2701  0.0651
    1CHOL    C215384  16.936  16.604   4.276  0.0423 -0.2691 -0.1660
    1CHOL   ROH15385   5.352   5.205   3.862  0.1945 -0.0105 -0.0915
    1CHOL    R115386   5.257   5.022   4.057  0.0971 -0.0375 -0.1631
    1CHOL    R215387   5.343   4.760   4.070  0.1842 -0.0066 -0.0790
    1CHOL    R315388   5.400   4.826   4.327 -0.0569  0.0279 -0.0330
    1CHOL    R415389   5.303   4.550   4.341 -0.0593  0.0279 -0.0872
    1CHOL    R515390   5.228   4.720   4.455 -0.1716  0.0387 -0.1778
    1CHOL    C115391   5.332   4.490   4.741 -0.4274  0.0804 -0.0488
    1CHOL    C215392   5.139   4.161   4.914 -0.0554 -0.2332 -0.1738
    1CHOL   ROH15393  19.849  11.427   5.665  0.1842 -0.1318  0.0657
    1CHOL    R115394  19.935  11.338   5.410  0.2401  0.0249  0.0269
    1CHOL    R215395  19.812  11.130   5.275  0.4894 -0.1376  0.0288
    1CHOL    R315396  19.792  11.314   5.076  0.1726 -0.1252  0.0678
    1CHOL    R415397  19.843  11.061   4.938  0.4875 -0.0196  0.0053
    1CHOL    R515398  19.956  11.246   4.916  0.2194  0.1408  0.0056
    1CHOL    C115399  19.843  11.194   4.555  0.1891  0.0607  0.0281
    1CHOL    C215400  19.906  11.129   4.329  0.1597 -0.0736  0.0475
    1CHOL   ROH15401  26.010  21.221   3.624 -0.1033 -0.0926 -0.0324
    1CHOL    R115402  26.043  21.240   3.904 -0.0372 -0.0508 -0.0426
    1CHOL    R215403  26.289  21.284   4.022 -0.0362  0.1572 -0.1154
    1CHOL    R315404  26.158  21.492   4.141 -0.1737  0.0582 -0.0912
    1CHOL    R415405  26.424  21.490   4.265 -0.1070  0.3388 -0.2277
    1CHOL    R515406  26.232  21.486   4.368 -0.0499  0.1760 -0.1281
    1CHOL    C115407  26.381  21.804   4.517 -0.2772  0.3516 -0.2703
    1CHOL    C215408  26.729  22.065   4.629  0.1835 -0.1381 -0.1074
    1CHOL   ROH15409  15.495  18.336   2.759  0.0418  0.1077 -0.0215
    1CHOL    R115410  15.315  18.374   2.974  0.0059  0.0245 -0.0365
    1CHOL    R215411  15.291  18.194   3.182 -0.0069 -0.0398 -0.0949
    1CHOL    R315412  15.340  18.413   3.335 -0.0530 -0.0813 -0.0202
    1CHOL    R415413  15.245  18.210   3.524 -0.1238 -0.1326 -0.1058
    1CHOL    R515414  15.165  18.411   3.499 -0.1106 -0.1222 -0.0801
    1CHOL    C115415  15.263  18.425   3.867 -0.2352 -0.2254 -0.0420
    1CHOL    C215416  15.307  18.500   4.284  0.2573  0.1409 -0.2868
    1CHOL   ROH15417  17.262  14.662   5.854  0.1501  0.0842  0.0596
    1CHOL    R115418  17.411  14.672   5.614  0.0003 -0.0224 -0.0401
    1CHOL    R215419  17.452  14.450   5.455 -0.2092 -0.0684 -0.0386
    1CHOL    R315420  17.348  14.610   5.261 -0.2615 -0.0444  0.0099
    1CHOL    R415421  17.460  14.380   5.116 -0.1678  0.0551 -0.0631
    1CHOL    R515422  17.503  14.591   5.079 -0.2495  0.0806  0.0105
    1CHOL    C115423  17.367  14.490   4.737 -0.1931  0.1495 -0.0320
    1CHOL    C215424  17.317  14.669   4.481 -0.1039 -0.0021  0.0372
    1CHOL   ROH15425  13.360  10.902   3.215 -0.0475 -0.1153  0.0639
    1CHOL    R115426  13.426  10.808   3.473 -0.0188 -0.1599  0.0427
    1CHOL    R215427  13.506  10.976   3.677  0.1973 -0.2109  0.0156
    1CHOL    R315428  13.302  10.858   3.812  0.1497 -0.0468  0.0853
    1CHOL    R415429  13.446  11.013   4.015  0.2811 -0.1114  0.0187
    1CHOL    R515430  13.397  10.801   4.024  0.1446 -0.0669  0.0729
    1CHOL    C115431  13.219  10.923   4.339  0.2853  0.1007  0.0860
    1CHOL    C215432  13.401  11.087   4.607 -0.0118 -0.0345 -0.1029
    1CHOL   ROH15433   2.067   2.952   5.197 -0.0188  0.2247 -0.0319
    1CHOL    R115434   2.189   2.716   5.101 -0.0933  0.2001 -0.0657
    1CHOL    R215435   2.150   2.470   5.221 -0.0664  0.2180 -0.0221
    1CHOL    R315436   2.076   2.395   4.970 -0.1948  0.1998  0.0200
    1CHOL    R415437   2.093   2.144   5.120  0.0602  0.1924 -0.0135
    1CHOL    R515438   2.193   2.189   4.932 -0.0953  0.2727 -0.0799
    1CHOL    C115439   1.990   1.884   4.826  0.0134  0.1604  0.0310
    1CHOL    C215440   1.767   1.677   4.582  0.2646  0.1533  0.1487
    1CHOL   ROH15441   4.904   2.546   6.809 -0.0657 -0.0053  0.1260
    1CHOL    R115442   4.932   2.479   6.535 -0.0022 -0.0645  0.1477
    1CHOL    R215443   4.978   2.669   6.339  0.0296 -0.1093  0.1195
    1CHOL    R315444   5.191   2.509   6.281  0.0507 -0.1095  0.1931
    1CHOL    R415445   5.196   2.716   6.075 -0.0947 -0.2988 -0.0203
    1CHOL    R515446   5.197   2.501   6.042 -0.0494 -0.3396  0.1910
    1CHOL    C115447   5.522   2.594   5.867 -0.1473 -0.4094 -0.0326
    1CHOL    C215448   5.756   2.728   5.550  0.0680  0.1865  0.2164
    1CHOL   ROH15449  18.750  16.221   6.310 -0.1363 -0.2520  0.1426
    1CHOL    R115450  18.694  16.215   6.033 -0.1035  0.0738  0.1246
    1CHOL    R215451  18.647  16.444   5.886  0.3018  0.2852  0.3038
    1CHOL    R315452  18.847  16.346   5.730  0.1689  0.0782  0.2612
    1CHOL    R415453  18.707  16.540   5.559  0.2839  0.1636  0.2650
    1CHOL    R515454  18.749  16.332   5.511  0.0879  0.1162  0.2954
    1CHOL    C115455  18.930  16.504   5.222  0.1485 -0.1017  0.2025
    1CHOL    C215456  18.941  16.719   4.783  0.0023 -0.1911 -0.5303
    1CHOL   ROH15457   9.625  16.548   5.909  0.2274  0.0307  0.0984
    1CHOL    R115458   9.749  16.326   5.786  0.0021 -0.1125  0.1260
    1CHOL    R215459   9.624  16.175   5.590 -0.1109  0.0563  0.0682
    1CHOL    R315460   9.850  16.232   5.449  0.0146 -0.2073  0.1555
    1CHOL    R415461   9.696  16.056   5.273 -0.2424  0.1642 -0.0038
    1CHOL    R515462   9.902  16.028   5.336 -0.2937 -0.2174  0.0206
    1CHOL    C115463   9.949  16.040   4.957 -0.2011 -0.0203  0.0362
    1CHOL    C215464  10.088  15.765   4.669  0.1456  0.1885 -0.1356
    1CHOL   ROH15465   9.954  11.977   3.369 -0.2567  0.2683 -0.3595
    1CHOL    R115466   9.878  12.210   3.510 -0.1505  0.1686 -0.1335
    1CHOL    R215467   9.684  12.208   3.706 -0.0375  0.0383 -0.0236
    1CHOL    R315468   9.881  12.322   3.856  0.0599 -0.0990 -0.0443
    1CHOL    R415469   9.655  12.290   4.041  0.0090  0.1704 -0.0509
    1CHOL    R515470   9.764  12.474   4.000  0.1882  0.0577 -0.1009
    1CHOL    C115471   9.822  12.444   4.376  0.1276  0.1184 -0.0863
    1CHOL    C215472   9.424  12.385   4.536  0.2279 -0.1751 -0.3268
    1CHOL   ROH15473  10.941  18.469   2.758 -0.0880  0.0362  0.0059
    1CHOL    R115474  11.088  18.442   2.999  0.0022  0.0450 -0.0473
    1CHOL    R215475  11.085  18.635   3.197 -0.0017  0.0087 -0.0106
    1CHOL    R315476  11.011  18.426   3.355  0.1253 -0.0476 -0.0247
    1CHOL    R415477  11.098  18.634   3.543 -0.1515  0.0518 -0.0046
    1CHOL    R515478  11.170  18.428   3.534  0.0457  0.1174  0.0446
    1CHOL    C115479  11.035  18.437   3.891 -0.1196  0.0241 -0.0144
    1CHOL    C215480  11.040  18.431   4.229  0.1382 -0.1881 -0.1677
    1CHOL   ROH15481  17.065  17.951   2.943 -0.2501  0.0080 -0.0046
    1CHOL    R115482  17.206  17.930   3.188 -0.1256 -0.1439 -0.0870
    1CHOL    R215483  17.284  18.151   3.334  0.1194 -0.2259 -0.0832
    1CHOL    R315484  17.150  18.026   3.535  0.1374 -0.1702 -0.0367
    1CHOL    R415485  17.342  18.202   3.671 -0.0026  0.0187 -0.0970
    1CHOL    R515486  17.317  17.987   3.702  0.1097  0.0288  0.0349
    1CHOL    C115487  17.250  18.114   4.055 -0.0567  0.2134 -0.0613
    1CHOL    C215488  17.231  18.319   4.409  0.0518 -0.0595  0.0990
    1CHOL   ROH15489  16.034  17.523   6.182  0.0645  0.1017 -0.0951
    1CHOL    R115490  16.192  17.608   5.963  0.0281  0.1804 -0.0912
    1CHOL    R215491  16.145  17.524   5.704  0.1261  0.0926 -0.0806
    1CHOL    R315492  16.138  17.791   5.653 -0.0729  0.0783 -0.1352
    1CHOL    R415493  16.224  17.669   5.400 -0.0908  0.0773 -0.1459
    1CHOL    R515494  16.325  17.828   5.509 -0.1524  0.1708 -0.2191
    1CHOL    C115495  16.263  18.003   5.176 -0.4038  0.0548 -0.2351
    1CHOL    C215496  16.229  18.103   4.822 -0.2805  0.2871  0.0846
    1CHOL   ROH15497  15.813   3.807   3.514  0.2120  0.0661 -0.0069
    1CHOL    R115498  15.950   3.868   3.754  0.0998 -0.1127  0.1041
    1CHOL    R215499  16.055   3.672   3.920  0.3459 -0.2308 -0.1889
    1CHOL    R315500  16.284   3.814   3.887  0.1636  0.1391  0.0559
    1CHOL    R415501  16.324   3.667   4.136  0.4398 -0.4514 -0.3072
    1CHOL    R515502  16.346   3.881   4.108  0.1672 -0.3342  0.2138
    1CHOL    C115503  16.697   3.797   4.231  0.3235 -0.2324 -0.1462
    1CHOL    C215504  17.042   3.682   4.359 -0.1329  0.3159  0.2903
    1DPPC   NC315505  17.395  18.541   2.509 -0.0639  0.2583  0.3296
    1DPPC   PO415506  17.441  18.083   2.540 -0.2056  0.0297 -0.1262
    1DPPC   GL115507  17.510  18.241   2.922  0.1373  0.0079  0.0171
    1DPPC   GL215508  17.700  18.025   3.072 -0.2576  0.3239 -0.0318
    1DPPC   C1A15509  17.713  18.486   3.324  0.3978 -0.1883 -0.0863
    1DPPC   C2A15510  17.702  18.559   3.765  0.0392  0.0421 -0.0662
    1DPPC   C3A15511  17.660  18.602   4.223  0.3025 -0.2692 -0.0853
    1DPPC   C4A15512  17.623  18.631   4.658 -0.3168  0.1333  0.2532
    1DPPC   C1B15513  17.820  18.085   3.540 -0.2353 -0.2145 -0.1758
    1DPPC   C2B15514  17.749  18.128   4.031  0.1215  0.1101 -0.0319
    1DPPC   C3B15515  17.719  18.022   4.393  0.0596  0.3696  0.0089
    1DPPC   C4B15516  17.545  18.102   4.780  0.1270 -0.0774 -0.0018
    1DPPC   NC315517  14.672  10.913   2.259  0.4011  0.3209 -0.1431
    1DPPC   PO415518  14.422  10.664   2.460 -0.0292 -0.1619 -0.4302
    1DPPC   GL115519  14.322  10.635   2.855 -0.1581  0.2314  0.2602
    1DPPC   GL215520  14.591  10.387   2.906  0.1184 -0.0239  0.0793
    1DPPC   C1A15521  14.238  10.399   3.289 -0.0488 -0.1933 -0.0657
    1DPPC   C2A15522  14.243  10.508   3.782  0.3267 -0.3583  0.1925
    1DPPC   C3A15523  14.388  10.480   4.218 -0.0332  0.0768 -0.0803
    1DPPC   C4A15524  14.155  10.688   4.627  0.0766  0.2393 -0.1509
    1DPPC   C1B15525  14.743  10.401   3.320 -0.2471  0.1610 -0.2621
    1DPPC   C2B15526  14.774  10.522   3.669  0.1226  0.0247 -0.0236
    1DPPC   C3B15527  14.798  10.710   4.035  0.1989 -0.0313  0.1592
    1DPPC   C4B15528  14.694  10.737   4.539  0.0678 -0.3794  0.0134
    1DPPC   NC315529   0.851  18.282   2.471 -0.1229 -0.0039  0.2096
    1DPPC   PO415530   1.284  18.391   2.713  0.1325 -0.3088  0.2294
    1DPPC   GL115531   1.342  18.228   3.136 -0.1932  0.1904  0.0348
    1DPPC   GL215532   1.537  17.951   2.999 -0.0087  0.2477  0.0739
    1DPPC   C1A15533   1.215  18.274   3.611  0.0989  0.0555 -0.0672
    1DPPC   C2A15534   1.365  18.374   4.021  0.1212 -0.2147 -0.0018
    1DPPC   C3A15535   1.549  18.577   4.340  0.2374 -0.0095  0.0305
    1DPPC   C4A15536   1.559  19.034   4.460 -0.3809 -0.1929 -0.3211
    1DPPC   C1B15537   1.482  17.774   3.544  0.1050 -0.0917 -0.0617
    1DPPC   C2B15538   1.436  17.875   3.976  0.2878  0.0623 -0.1401
    1DPPC   C3B15539   1.627  17.634   4.277  0.3113 -0.2167  0.2475
    1DPPC   C4B15540   2.019  17.621   4.530 -0.0421  0.1464  0.0651
    1DPPC   NC315541  16.966  18.571   1.649 -0.1564  0.0987 -0.0789
    1DPPC   PO415542  17.055  18.629   2.129  0.1540  0.1830  0.0844
    1DPPC   GL115543  16.896  18.712   2.561 -0.0433 -0.1923  0.1076
    1DPPC   GL215544  16.708  19.017   2.714 -0.0561  0.0162 -0.1164
    1DPPC   C1A15545  16.854  18.472   2.890  0.0445 -0.1191  0.0266
    1DPPC   C2A15546  16.872  18.351   3.310  0.0316 -0.1788  0.1924
    1DPPC   C3A15547  16.836  18.356   3.796  0.2625  0.3012 -0.0518
    1DPPC   C4A15548  16.684  18.482   4.210 -0.1444 -0.0296  0.0248
    1DPPC   C1B15549  16.734  18.855   3.172 -0.0463 -0.1899 -0.4673
    1DPPC   C2B15550  16.726  18.793   3.621 -0.1813  0.2692  0.2689
    1DPPC   C3B15551  16.737  18.942   4.060  0.1510  0.2152  0.3192
    1DPPC   C4B15552  16.555  18.963   4.459  0.1922  0.1213  0.1644
    1DPPC   NC315553  10.335  12.534   2.818  0.1648  0.1266  0.1332
    1DPPC   PO415554  10.265  12.140   2.988 -0.1397 -0.2658  0.1762
    1DPPC   GL115555  10.429  12.328   3.375  0.1192 -0.2759  0.1353
    1DPPC   GL215556  10.761  12.232   3.359  0.1101  0.2220 -0.0498
    1DPPC   C1A15557  10.400  12.378   3.815  0.2732  0.0621 -0.1510
    1DPPC   C2A15558  10.470  12.422   4.144 -0.0454  0.0265  0.1298
    1DPPC   C3A15559  10.813  12.351   4.468  0.0651  0.1679  0.2301
    1DPPC   C4A15560  11.050  12.353   4.878 -0.0028 -0.1296  0.2308
    1DPPC   C1B15561  10.838  12.140   3.849 -0.2627  0.0634  0.0065
    1DPPC   C2B15562  10.680  11.966   4.147  0.1157 -0.3804 -0.0440
    1DPPC   C3B15563  10.710  11.916   4.646  0.1078 -0.1301  0.2133
    1DPPC   C4B15564  10.418  12.051   4.996 -0.0156  0.0918 -0.0012
    1DPPC   NC315565  20.733  20.184   2.587 -0.1497  0.0812 -0.0009
    1DPPC   PO415566  20.898  19.829   2.839 -0.3027 -0.1109 -0.0392
    1DPPC   GL115567  20.691  19.472   2.981  0.3183 -0.1324  0.0929
    1DPPC   GL215568  20.353  19.432   3.037  0.0026  0.0281  0.0334
    1DPPC   C1A15569  20.660  19.103   3.232  0.0567 -0.2425 -0.3933
    1DPPC   C2A15570  20.667  19.028   3.642  0.2239 -0.0953  0.0576
    1DPPC   C3A15571  20.556  19.014   4.108 -0.1939 -0.2555 -0.0480
    1DPPC   C4A15572  20.763  19.053   4.499  0.1458 -0.0891 -0.2042
    1DPPC   C1B15573  20.577  19.547   3.473  0.0379  0.1789  0.0355
    1DPPC   C2B15574  20.530  19.502   3.898 -0.1305  0.0472  0.4771
    1DPPC   C3B15575  20.609  19.558   4.372 -0.4644  0.0192  0.1279
    1DPPC   C4B15576  20.162  19.647   4.564  0.1698  0.0455 -0.4403
    1DPPC   NC315577  14.212  10.175   2.689 -0.0030  0.0659 -0.0586
    1DPPC   PO415578  14.642  10.124   2.431  0.0245 -0.3596  0.1150
    1DPPC   GL115579  14.661   9.866   2.895 -0.0316 -0.3629 -0.2817
    1DPPC   GL215580  14.953   9.896   2.989 -0.0947  0.0689 -0.1559
    1DPPC   C1A15581  14.490   9.986   3.227  0.1344  0.0770 -0.0710
    1DPPC   C2A15582  14.551  10.057   3.639  0.3384  0.0351  0.1728
    1DPPC   C3A15583  14.678   9.888   4.010  0.2155  0.3174  0.0090
    1DPPC   C4A15584  14.280   9.993   4.254 -0.3217 -0.0740  0.0997
    1DPPC   C1B15585  14.959   9.809   3.399  0.2835 -0.0449  0.5416
    1DPPC   C2B15586  15.073  10.165   3.620 -0.2577 -0.0800 -0.2763
    1DPPC   C3B15587  15.115  10.255   3.983  0.0750  0.0120 -0.0801
    1DPPC   C4B15588  14.833  10.231   4.336 -0.0997 -0.4292 -0.0663
    1DPPC   NC315589  18.839  22.009   2.590 -0.1983 -0.1587 -0.1814
    1DPPC   PO415590  18.500  22.149   2.990  0.0517 -0.4325 -0.0275
    1DPPC   GL115591  18.548  21.853   3.316 -0.2334  0.1435 -0.1556
    1DPPC   GL215592  18.819  21.898   3.538 -0.2807  0.0970 -0.3316
    1DPPC   C1A15593  18.305  21.694   3.681  0.0324  0.1850 -0.1764
    1DPPC   C2A15594  18.194  21.673   4.081  0.1193 -0.0367  0.3158
    1DPPC   C3A15595  17.943  21.803   4.430 -0.1371  0.0802 -0.2397
    1DPPC   C4A15596  18.143  22.237   4.570 -0.0902 -0.2143 -0.1250
    1DPPC   C1B15597  18.652  21.929   4.052 -0.0586  0.0485 -0.1160
    1DPPC   C2B15598  18.473  21.824   4.484  0.2308 -0.2932  0.0535
    1DPPC   C3B15599  18.143  21.503   4.768 -0.1029  0.1927 -0.1552
    1DPPC   C4B15600  18.049  21.134   5.035  0.2680 -0.2244 -0.1578
    1DPPC   NC315601  22.451  17.564   2.157  0.2201  0.3329  0.0606
    1DPPC   PO415602  22.655  17.604   2.650 -0.0646  0.2687 -0.3794
    1DPPC   GL115603  22.503  17.442   3.035 -0.3620 -0.1029 -0.0897
    1DPPC   GL215604  22.286  17.610   3.156  0.0282 -0.2206  0.1257
    1DPPC   C1A15605  22.693  17.130   3.210  0.1519  0.2487  0.1581
    1DPPC   C2A15606  22.742  16.870   3.457 -0.3719  0.0323 -0.4206
    1DPPC   C3A15607  22.840  16.576   3.781  0.0517  0.1547 -0.1224
    1DPPC   C4A15608  22.956  16.291   4.054 -0.0108  0.0521  0.1588
    1DPPC   C1B15609  22.335  17.382   3.489 -0.1566 -0.0948  0.2425
    1DPPC   C2B15610  22.472  17.458   3.983  0.2628 -0.0404  0.0313
    1DPPC   C3B15611  22.845  17.472   4.197 -0.0411 -0.0883 -0.1360
    1DPPC   C4B15612  23.310  17.243   4.327  0.1578  0.0270  0.0529
    1DPPC   NC315613  14.082  14.372   2.421  0.1859  0.1805 -0.1147
    1DPPC   PO415614  14.023  14.848   2.431  0.3292 -0.0040  0.0292
    1DPPC   GL115615  13.940  14.840   2.902  0.0122 -0.0503 -0.3035
    1DPPC   GL215616  13.676  15.001   2.972 -0.2661 -0.0618  0.0437
    1DPPC   C1A15617  13.975  14.810   3.418 -0.0604 -0.4164  0.2656
    1DPPC   C2A15618  14.063  14.847   3.798 -0.3118  0.1131  0.0228
    1DPPC   C3A15619  14.169  14.908   4.195  0.0783  0.3077  0.0692
    1DPPC   C4A15620  14.214  14.840   4.531  0.3681 -0.0957 -0.0430
    1DPPC   C1B15621  13.508  14.970   3.270  0.0243  0.2432  0.1239
    1DPPC   C2B15622  13.531  14.853   3.712 -0.0476 -0.5406 -0.2127
    1DPPC   C3B15623  13.613  14.761   4.124 -0.3015 -0.0466  0.2663
    1DPPC   C4B15624  13.659  14.727   4.645  0.1281  0.0275 -0.0286
    1DPPC   NC315625  23.071  11.971   2.730 -0.2344  0.0654  0.1044
    1DPPC   PO415626  22.831  12.319   2.477 -0.1525 -0.1420  0.0299
    1DPPC   GL115627  22.566  12.156   2.770 -0.1048 -0.2178 -0.2804
    1DPPC   GL215628  22.404  11.897   2.608 -0.0911 -0.1109  0.3732
    1DPPC   C1A15629  22.387  12.100   3.185  0.0182 -0.0794  0.1615
    1DPPC   C2A15630  22.348  12.006   3.622  0.0561  0.0666 -0.0924
    1DPPC   C3A15631  22.352  11.829   4.059  0.1496 -0.0981  0.0565
    1DPPC   C4A15632  22.557  11.733   4.489  0.0226 -0.1097  0.1841
    1DPPC   C1B15633  22.114  11.807   2.901  0.1920  0.1654  0.2848
    1DPPC   C2B15634  22.068  11.708   3.272  0.1157 -0.0608 -0.0493
    1DPPC   C3B15635  21.954  11.775   3.696 -0.0469  0.0079  0.0979
    1DPPC   C4B15636  22.046  11.454   4.139 -0.0420  0.1699  0.0332
    1DPPC   NC315637  11.757  20.346   2.168  0.1537  0.2000  0.3545
    1DPPC   PO415638  11.681  20.433   2.598  0.0087 -0.0758 -0.0609
    1DPPC   GL115639  11.859  20.455   3.005  0.0483 -0.3949  0.1858
    1DPPC   GL215640  11.927  20.059   3.024  0.2419 -0.0325  0.2336
    1DPPC   C1A15641  12.085  20.606   3.322  0.2792 -0.1762 -0.1608
    1DPPC   C2A15642  11.925  20.601   3.749 -0.1727  0.0282 -0.4187
    1DPPC   C3A15643  11.680  20.683   4.130 -0.0961 -0.0864  0.2223
    1DPPC   C4A15644  11.352  20.870   4.179  0.2004  0.1229  0.3476
    1DPPC   C1B15645  11.687  20.259   3.389  0.1216  0.0259  0.4200
    1DPPC   C2B15646  11.684  20.147   3.755 -0.0909 -0.1415 -0.3650
    1DPPC   C3B15647  11.706  20.189   4.261  0.2021 -0.0272  0.0243
    1DPPC   C4B15648  11.886  19.880   4.540  0.0635  0.0217 -0.2473
    1DPPC   NC315649  13.912   9.286   2.704 -0.0721  0.1401 -0.2998
    1DPPC   PO415650  14.275   9.558   2.706 -0.0152  0.2192  0.0831
    1DPPC   GL115651  14.287   9.455   3.181 -0.1928  0.1827 -0.0854
    1DPPC   GL215652  13.907   9.276   3.218 -0.1367  0.0226  0.0715
    1DPPC   C1A15653  14.385   9.553   3.641  0.0444  0.4438 -0.2088
    1DPPC   C2A15654  14.271   9.511   4.004 -0.0076  0.0920 -0.1333
    1DPPC   C3A15655  14.178   9.476   4.410 -0.0844  0.1256  0.1409
    1DPPC   C4A15656  14.223   9.812   4.700 -0.0224 -0.3090 -0.0080
    1DPPC   C1B15657  13.983   9.241   3.584  0.2082  0.0246  0.0924
    1DPPC   C2B15658  13.904   9.094   4.060 -0.0241 -0.0749  0.0463
    1DPPC   C3B15659  13.829   9.158   4.509 -0.0860 -0.2066  0.0273
    1DPPC   C4B15660  13.739   9.518   4.763 -0.1448  0.2410  0.0864
    1DPPC   NC315661  12.792  12.349   2.243 -0.0489 -0.0896 -0.0411
    1DPPC   PO415662  13.199  12.657   2.391  0.2228  0.0791  0.1880
    1DPPC   GL115663  12.871  12.413   2.743  0.1330  0.0428 -0.1719
    1DPPC   GL215664  12.781  12.647   3.014 -0.2510  0.0828  0.0372
    1DPPC   C1A15665  12.852  12.186   3.115  0.1181 -0.0598  0.1958
    1DPPC   C2A15666  12.955  12.246   3.571  0.1820 -0.1499  0.0290
    1DPPC   C3A15667  13.051  12.238   3.881 -0.2991 -0.0632  0.2476
    1DPPC   C4A15668  13.220  12.355   4.270  0.0450 -0.1665 -0.1474
    1DPPC   C1B15669  12.618  12.617   3.342  0.4198  0.0186  0.1066
    1DPPC   C2B15670  12.602  12.528   3.747  0.0613 -0.3269  0.0230
    1DPPC   C3B15671  12.746  12.541   4.164  0.0347 -0.1323  0.1567
    1DPPC   C4B15672  12.799  12.709   4.611 -0.0353 -0.0868  0.0063
    1DPPC   NC315673  18.657  17.958   2.728 -0.0508 -0.2754  0.0038
    1DPPC   PO415674  18.806  18.222   2.415  0.0851 -0.2823 -0.1634
    1DPPC   GL115675  19.058  18.388   2.828  0.0446  0.2446  0.1084
    1DPPC   GL215676  19.290  18.211   2.880 -0.0119  0.1659 -0.1470
    1DPPC   C1A15677  19.098  18.495   3.246  0.1554  0.0078 -0.1178
    1DPPC   C2A15678  19.141  18.433   3.634 -0.2685 -0.3747  0.1801
    1DPPC   C3A15679  19.085  18.356   4.013  0.3017 -0.3095 -0.0639
    1DPPC   C4A15680  19.232  18.464   4.466  0.0881 -0.1125 -0.0639
    1DPPC   C1B15681  19.516  18.186   3.319  0.1826  0.0513  0.1787
    1DPPC   C2B15682  19.531  18.182   3.789  0.1666  0.1309  0.0078
    1DPPC   C3B15683  19.412  17.968   4.199  0.2375 -0.2531  0.2591
    1DPPC   C4B15684  19.218  17.910   4.572  0.0570  0.1857  0.0430
    1DPPC   NC315685  19.091  19.750   2.501 -0.2618  0.0163 -0.0628
    1DPPC   PO415686  19.369  20.001   2.666  0.1487 -0.0585  0.3049
    1DPPC   GL115687  19.342  19.706   2.961  0.1359  0.2327 -0.0544
    1DPPC   GL215688  18.961  19.892   3.009  0.2797 -0.0542  0.1291
    1DPPC   C1A15689  19.177  19.539   3.333 -0.2817  0.0460 -0.0315
    1DPPC   C2A15690  19.198  19.452   3.791 -0.1796  0.1118  0.2004
    1DPPC   C3A15691  19.171  19.485   4.241 -0.1078 -0.2700  0.0812
    1DPPC   C4A15692  19.103  19.418   4.601  0.0366 -0.2813  0.0168
    1DPPC   C1B15693  18.915  19.908   3.409 -0.0145  0.2467  0.2007
    1DPPC   C2B15694  18.888  19.854   3.820  0.2400  0.3212 -0.0757
    1DPPC   C3B15695  18.969  19.988   4.218 -0.0745 -0.1157  0.2138
    1DPPC   C4B15696  19.283  20.377   4.419  0.0088 -0.1517 -0.0912
    1DPPC   NC315697   9.102  10.162   3.353  0.1494  0.0800 -0.0216
    1DPPC   PO415698   9.008   9.751   3.176  0.1441  0.1657  0.6045
    1DPPC   GL115699   8.894   9.637   3.577 -0.0844 -0.1478 -0.2289
    1DPPC   GL215700   8.715   9.777   3.770  0.3506  0.0527 -0.1752
    1DPPC   C1A15701   9.007   9.502   4.013 -0.0005 -0.0423 -0.0152
    1DPPC   C2A15702   8.939   9.552   4.442 -0.1084  0.0368 -0.0656
    1DPPC   C3A15703   8.816   9.718   4.806 -0.0820 -0.2286 -0.1113
    1DPPC   C4A15704   9.050   9.830   5.128 -0.2660 -0.0740 -0.0130
    1DPPC   C1B15705   8.641   9.871   4.152 -0.0236  0.3129 -0.0006
    1DPPC   C2B15706   8.476   9.943   4.495  0.0493  0.0338  0.2836
    1DPPC   C3B15707   8.249   9.864   4.843 -0.1501  0.0634  0.1200
    1DPPC   C4B15708   8.043   9.828   5.082 -0.1393  0.0190  0.0592
    1DPPC   NC315709  21.932  18.442   2.708 -0.0203  0.1938 -0.1163
    1DPPC   PO415710  21.909  18.938   2.872 -0.1045  0.3376 -0.0611
    1DPPC   GL115711  22.087  19.136   3.257 -0.0108  0.4188 -0.2778
    1DPPC   GL215712  21.994  18.852   3.399 -0.0279 -0.3845  0.0886
    1DPPC   C1A15713  22.190  19.183   3.696 -0.0655 -0.0949 -0.1496
    1DPPC   C2A15714  22.279  19.145   4.139  0.2070 -0.1938  0.0046
    1DPPC   C3A15715  22.322  19.146   4.598 -0.1777  0.0098  0.1522
    1DPPC   C4A15716  22.381  19.501   4.843 -0.0344  0.0176  0.2101
    1DPPC   C1B15717  21.981  18.763   3.843  0.0182  0.1266 -0.1681
    1DPPC   C2B15718  21.882  18.853   4.272  0.2002 -0.0068 -0.1839
    1DPPC   C3B15719  21.902  18.881   4.729  0.1045  0.1964  0.2484
    1DPPC   C4B15720  21.618  18.896   5.034  0.0709  0.0590 -0.1407
    1DPPC   NC315721  11.596  12.361   2.096  0.1735  0.3058  0.0885
    1DPPC   PO415722  11.669  12.030   2.400 -0.1542  0.2362 -0.1687
    1DPPC   GL115723  11.807  12.173   2.759  0.0208 -0.3116  0.1227
    1DPPC   GL215724  11.973  12.409   2.913  0.0559  0.0142 -0.0262
    1DPPC   C1A15725  11.621  12.173   3.181 -0.3279  0.2339 -0.0132
    1DPPC   C2A15726  11.642  12.250   3.657  0.0889 -0.1082 -0.1518
    1DPPC   C3A15727  11.738  12.148   4.075  0.2384  0.2650 -0.0242
    1DPPC   C4A15728  11.711  12.294   4.376  0.1777  0.1760  0.4810
    1DPPC   C1B15729  12.126  12.233   3.239 -0.4874  0.2803  0.1035
    1DPPC   C2B15730  12.138  12.318   3.763 -0.0540 -0.0009 -0.0533
    1DPPC   C3B15731  12.237  12.365   4.178  0.1409  0.0273 -0.0189
    1DPPC   C4B15732  12.344  12.211   4.641 -0.0106  0.0937 -0.0848
    1DPPC   NC315733  20.088   6.709   2.875 -0.0020  0.0149  0.0446
    1DPPC   PO415734  19.792   6.402   2.907 -0.0716 -0.1633  0.1640
    1DPPC   GL115735  19.892   6.554   3.402  0.0597  0.2497  0.4425
    1DPPC   GL215736  20.224   6.417   3.326  0.1050  0.0223 -0.0331
    1DPPC   C1A15737  19.949   6.729   3.799  0.1701  0.1260 -0.0144
    1DPPC   C2A15738  19.866   6.853   4.102  0.0113 -0.0186  0.0255
    1DPPC   C3A15739  19.942   7.083   4.395 -0.1098  0.2034 -0.2717
    1DPPC   C4A15740  19.884   7.590   4.578 -0.0111  0.2312 -0.1168
    1DPPC   C1B15741  20.289   6.359   3.776 -0.4724 -0.1059  0.2187
    1DPPC   C2B15742  20.075   6.301   4.190 -0.0594  0.1167 -0.0268
    1DPPC   C3B15743  19.979   6.369   4.584 -0.1436  0.1609  0.2024
    1DPPC   C4B15744  19.657   6.338   4.911 -0.1572  0.0671 -0.2907
    1DPPC   NC315745   3.923  22.035   1.697  0.2680  0.2401  0.3212
    1DPPC   PO415746   3.754  21.973   2.103 -0.3930  0.1988 -0.0016
    1DPPC   GL115747   3.907  21.950   2.561 -0.2189  0.4791 -0.0778
    1DPPC   GL215748   4.222  21.761   2.629 -0.0745  0.1171  0.2674
    1DPPC   C1A15749   3.972  22.017   3.004  0.0026  0.1130  0.0519
    1DPPC   C2A15750   3.852  22.211   3.417  0.0033  0.0620  0.0665
    1DPPC   C3A15751   4.066  22.379   3.732  0.0781  0.0044  0.0700
    1DPPC   C4A15752   4.443  22.100   3.888  0.2029  0.1029 -0.1099
    1DPPC   C1B15753   4.167  21.591   3.028 -0.0636 -0.0150  0.3163
    1DPPC   C2B15754   3.850  21.554   3.289 -0.1015 -0.0977 -0.0075
    1DPPC   C3B15755   3.678  21.165   3.515 -0.1252 -0.1591  0.1025
    1DPPC   C4B15756   3.515  20.735   3.363 -0.0834 -0.1061  0.1505
    1DPPC   NC315757  23.876  18.705   2.583 -0.4079 -0.3266 -0.0616
    1DPPC   PO415758  23.766  19.075   2.710  0.1588 -0.1183  0.0545
    1DPPC   GL115759  23.949  19.139   3.107 -0.0179 -0.1418  0.0157
    1DPPC   GL215760  24.244  19.262   2.998 -0.1920 -0.0045 -0.0540
    1DPPC   C1A15761  23.942  19.137   3.583 -0.0132 -0.1081  0.1448
    1DPPC   C2A15762  23.772  19.088   4.031  0.1234 -0.2928  0.1778
    1DPPC   C3A15763  23.656  19.234   4.414  0.2102  0.0354  0.0494
    1DPPC   C4A15764  23.679  19.523   4.743 -0.2941  0.1679 -0.0839
    1DPPC   C1B15765  24.414  19.001   3.382 -0.1768  0.0139 -0.2120
    1DPPC   C2B15766  24.409  19.035   3.855  0.0649  0.1870  0.1951
    1DPPC   C3B15767  24.300  19.103   4.195 -0.2681 -0.0127 -0.2193
    1DPPC   C4B15768  24.166  19.374   4.507  0.2352 -0.3809  0.1674
    1DPPC   NC315769  10.187  17.475   2.595  0.1817 -0.1597 -0.3901
    1DPPC   PO415770  10.014  17.171   2.260  0.0240 -0.0398 -0.4808
    1DPPC   GL115771   9.644  17.025   2.597 -0.1310  0.0355 -0.3153
    1DPPC   GL215772   9.557  16.738   2.666  0.1852 -0.0363  0.0737
    1DPPC   C1A15773   9.451  17.290   2.812 -0.1488  0.0682 -0.3073
    1DPPC   C2A15774   9.255  17.273   3.214  0.2437  0.1342  0.4936
    1DPPC   C3A15775   9.125  17.154   3.552  0.1705 -0.0441 -0.0722
    1DPPC   C4A15776   8.835  17.115   3.791  0.3597  0.1174  0.0545
    1DPPC   C1B15777   9.671  16.866   3.090  0.0806  0.0661  0.0294
    1DPPC   C2B15778   9.425  16.755   3.427  0.0839 -0.1126 -0.2022
    1DPPC   C3B15779   9.298  16.747   3.786  0.3561 -0.2097 -0.2197
    1DPPC   C4B15780   9.336  16.618   4.182 -0.0120 -0.1366  0.0730
    1DPPC   NC315781  16.291  14.772   1.696  0.0622  0.0397 -0.2914
    1DPPC   PO415782  16.446  14.599   2.119  0.3275  0.0343  0.2237
    1DPPC   GL115783  16.507  14.609   2.482 -0.1621 -0.1447 -0.1751
    1DPPC   GL215784  16.741  14.881   2.458 -0.0700 -0.0546 -0.0246
    1DPPC   C1A15785  16.584  14.381   2.784  0.1274  0.0663 -0.0384
    1DPPC   C2A15786  16.627  14.313   3.250 -0.1253 -0.0001 -0.1714
    1DPPC   C3A15787  16.534  14.399   3.665 -0.0925 -0.2081 -0.1013
    1DPPC   C4A15788  16.748  14.335   4.014  0.1950  0.0157 -0.1941
    1DPPC   C1B15789  16.900  14.790   2.835 -0.0429  0.1814 -0.0836
    1DPPC   C2B15790  16.847  14.784   3.275  0.3712  0.1294  0.3588
    1DPPC   C3B15791  16.958  14.738   3.678 -0.0539 -0.3598 -0.1017
    1DPPC   C4B15792  17.080  14.758   4.061 -0.0503  0.2275 -0.0914
    1DPPC   NC315793  15.802  18.992   2.222 -0.0872 -0.0896  0.3136
    1DPPC   PO415794  15.373  19.194   2.287 -0.0462 -0.4225  0.1589
    1DPPC   GL115795  15.455  19.109   2.655 -0.0657 -0.2371  0.2112
    1DPPC   GL215796  15.283  18.845   2.771  0.1765  0.1727 -0.1303
    1DPPC   C1A15797  15.796  19.353   2.879  0.0168  0.3163  0.1062
    1DPPC   C2A15798  15.771  19.298   3.324 -0.0046 -0.1104  0.1727
    1DPPC   C3A15799  15.705  19.278   3.762  0.0406  0.3296  0.0212
    1DPPC   C4A15800  15.688  19.391   4.116  0.2265  0.1288  0.0550
    1DPPC   C1B15801  15.370  19.005   3.163  0.1398 -0.1497  0.1266
    1DPPC   C2B15802  15.262  18.904   3.501  0.0287  0.2492  0.1178
    1DPPC   C3B15803  15.230  19.020   3.912 -0.0746 -0.0717  0.1522
    1DPPC   C4B15804  15.211  19.126   4.335  0.1232  0.1271  0.0855
    1DPPC   NC315805  11.910  10.763   2.781 -0.2189 -0.1542  0.2380
    1DPPC   PO415806  12.169  11.097   2.688  0.0822 -0.0317 -0.1715
    1DPPC   GL115807  12.448  11.257   2.989 -0.0183 -0.4154  0.0962
    1DPPC   GL215808  12.552  10.969   3.133 -0.3409  0.0448  0.3895
    1DPPC   C1A15809  12.483  11.441   3.338  0.5422  0.0804 -0.2610
    1DPPC   C2A15810  12.469  11.531   3.872  0.1339 -0.2948 -0.0441
    1DPPC   C3A15811  12.497  11.592   4.323 -0.1463  0.0090 -0.0237
    1DPPC   C4A15812  12.559  11.522   4.763  0.1590 -0.2728  0.1002
    1DPPC   C1B15813  12.900  11.172   3.158 -0.2396  0.2318 -0.0098
    1DPPC   C2B15814  13.212  11.260   3.500  0.1553 -0.1031  0.0453
    1DPPC   C3B15815  13.122  11.375   3.904  0.1744  0.0106 -0.1043
    1DPPC   C4B15816  13.288  11.410   4.242  0.2744 -0.2640  0.0550
    1DPPC   NC315817  13.663  19.010   1.878 -0.0348  0.3469  0.1278
    1DPPC   PO415818  13.570  18.993   2.321 -0.0352  0.1974 -0.1137
    1DPPC   GL115819  13.277  19.020   2.703 -0.1999  0.2364 -0.2082
    1DPPC   GL215820  13.179  18.807   2.796  0.0260 -0.1125  0.1772
    1DPPC   C1A15821  13.447  18.865   3.114  0.0044  0.2909 -0.3606
    1DPPC   C2A15822  13.448  18.807   3.446 -0.0283 -0.1607 -0.1276
    1DPPC   C3A15823  13.380  18.745   3.886 -0.1304 -0.2025  0.2433
    1DPPC   C4A15824  13.549  18.548   4.270  0.0077  0.0211 -0.0319
    1DPPC   C1B15825  13.062  18.508   3.146  0.0444 -0.0608  0.0091
    1DPPC   C2B15826  13.063  18.472   3.621  0.0487 -0.1891 -0.0563
    1DPPC   C3B15827  13.274  18.199   3.885 -0.1254 -0.0904 -0.3091
    1DPPC   C4B15828  13.218  17.825   4.072  0.0736  0.0597 -0.1152
    1DPPC   NC315829  22.412  15.058   1.877 -0.0684 -0.2400  0.1640
    1DPPC   PO415830  22.590  14.770   2.078 -0.0992  0.1833 -0.0440
    1DPPC   GL115831  22.399  14.911   2.431  0.0338 -0.1001 -0.1892
    1DPPC   GL215832  22.162  15.154   2.290  0.0055  0.0392  0.2412
    1DPPC   C1A15833  22.612  14.977   2.785  0.0092  0.0924 -0.0112
    1DPPC   C2A15834  22.622  14.883   3.112  0.1364  0.1512 -0.1136
    1DPPC   C3A15835  22.422  14.749   3.489  0.0223  0.1667 -0.1643
    1DPPC   C4A15836  22.109  14.458   3.611  0.0353 -0.1874  0.3021
    1DPPC   C1B15837  22.188  15.359   2.655  0.0562  0.0728 -0.0336
    1DPPC   C2B15838  22.277  15.285   3.121  0.0501 -0.1094 -0.0313
    1DPPC   C3B15839  22.426  15.277   3.536 -0.1861  0.3371 -0.0033
    1DPPC   C4B15840  22.453  15.028   3.894  0.1746 -0.1117  0.1637
    1DPPC   NC315841  14.822  19.966   2.187  0.0092 -0.0459 -0.0127
    1DPPC   PO415842  15.142  20.010   2.179 -0.1057 -0.4920  0.0183
    1DPPC   GL115843  15.056  19.800   2.572 -0.1790 -0.1254 -0.0303
    1DPPC   GL215844  15.085  19.480   2.574  0.0308  0.4773 -0.2677
    1DPPC   C1A15845  15.186  19.895   3.009  0.1841  0.0727 -0.3971
    1DPPC   C2A15846  15.213  20.091   3.371 -0.2870 -0.0891  0.1690
    1DPPC   C3A15847  15.277  20.082   3.772  0.0391  0.0474 -0.0661
    1DPPC   C4A15848  15.104  20.104   4.177  0.0492 -0.0186  0.3071
    1DPPC   C1B15849  15.255  19.425   3.013  0.0056  0.0073 -0.0427
    1DPPC   C2B15850  15.257  19.409   3.392  0.1233 -0.0586 -0.0480
    1DPPC   C3B15851  15.279  19.552   3.813 -0.0452  0.2480 -0.2212
    1DPPC   C4B15852  15.126  19.605   4.280  0.3331 -0.0073  0.3930
    1DPPC   NC315853  27.671   8.931   1.998 -0.1383 -0.3403 -0.2047
    1DPPC   PO415854  27.749   8.670   2.393  0.1883 -0.0720 -0.0898
    1DPPC   GL115855  27.649   8.842   2.780 -0.1620 -0.2594  0.0104
    1DPPC   GL215856  27.699   9.095   2.872 -0.1841 -0.0917  0.2121
    1DPPC   C1A15857  27.789   8.676   3.253  0.0132  0.1349  0.2446
    1DPPC   C2A15858  27.715   8.602   3.678 -0.0763 -0.1664 -0.1033
    1DPPC   C3A15859  27.682   8.386   4.032  0.1425 -0.0827  0.0117
    1DPPC   C4A15860  27.443   8.117   4.451 -0.0622 -0.0045  0.0869
    1DPPC   C1B15861  27.431   9.091   3.234 -0.1275  0.3891 -0.2170
    1DPPC   C2B15862  27.575   9.121   3.623  0.1426  0.3022 -0.6652
    1DPPC   C3B15863  27.875   9.308   3.973  0.0455 -0.0256  0.0433
    1DPPC   C4B15864  27.826   9.326   4.400  0.0144  0.2218  0.1147
    1DPPC   NC315865  13.424   9.608   2.326 -0.1085  0.3740  0.1972
    1DPPC   PO415866  13.459   9.498   2.624 -0.0595 -0.3563  0.0713
    1DPPC   GL115867  13.517   9.651   2.914 -0.3362 -0.0972  0.1421
    1DPPC   GL215868  13.371   9.501   3.209 -0.2174 -0.1997 -0.0886
    1DPPC   C1A15869  13.541  10.023   3.237 -0.1358  0.1606  0.0286
    1DPPC   C2A15870  13.644  10.396   3.395  0.3665  0.2799 -0.0047
    1DPPC   C3A15871  13.687  10.465   3.761  0.0906 -0.2262  0.1410
    1DPPC   C4A15872  13.853  10.625   4.093  0.1537  0.3039 -0.0353
    1DPPC   C1B15873  13.540   9.563   3.549 -0.0696  0.0662  0.1468
    1DPPC   C2B15874  13.731   9.498   3.946 -0.0875  0.1991  0.0171
    1DPPC   C3B15875  13.561   9.479   4.235  0.0048 -0.2893 -0.1007
    1DPPC   C4B15876  13.300   9.402   4.661 -0.1413  0.0938  0.0462
    1DPPC   NC315877  12.904  17.927   2.123  0.3708  0.0324  0.1637
    1DPPC   PO415878  13.277  18.142   2.299 -0.1010 -0.1520 -0.2237
    1DPPC   GL115879  13.390  18.360   2.656  0.0089  0.0264 -0.2742
    1DPPC   GL215880  13.678  18.597   2.642 -0.0302 -0.0892  0.3311
    1DPPC   C1A15881  13.587  18.430   3.133 -0.4633 -0.1359 -0.4086
    1DPPC   C2A15882  13.645  18.397   3.554  0.3271  0.2291 -0.0687
    1DPPC   C3A15883  13.843  18.228   3.877  0.0209 -0.1487  0.2309
    1DPPC   C4A15884  13.783  18.112   4.229  0.0845  0.0973 -0.2186
    1DPPC   C1B15885  13.923  18.808   3.012  0.2682  0.0473 -0.0828
    1DPPC   C2B15886  13.927  18.810   3.429  0.1704 -0.1513  0.0786
    1DPPC   C3B15887  13.988  18.729   3.875 -0.0010 -0.3366  0.1592
    1DPPC   C4B15888  13.939  18.914   4.218  0.2324  0.1431  0.2158
    1DPPC   NC315889   7.603  19.441   2.233 -0.0003 -0.0289 -0.1962
    1DPPC   PO415890   7.559  19.921   2.010  0.2836 -0.0393 -0.0826
    1DPPC   GL115891   7.631  20.088   2.397  0.1217  0.1375  0.0327
    1DPPC   GL215892   7.867  20.058   2.605 -0.1207  0.2157  0.0013
    1DPPC   C1A15893   7.544  20.337   2.802  0.0270  0.1535 -0.2238
    1DPPC   C2A15894   7.559  20.063   3.215 -0.1693 -0.2545  0.0133
    1DPPC   C3A15895   7.633  20.169   3.679  0.2519 -0.1565 -0.0970
    1DPPC   C4A15896   7.796  20.247   4.099  0.3409 -0.1115 -0.2238
    1DPPC   C1B15897   8.016  19.927   2.921  0.1129  0.2406  0.1721
    1DPPC   C2B15898   8.095  19.978   3.402  0.0732  0.1263  0.0349
    1DPPC   C3B15899   8.143  20.017   3.819  0.0889  0.3520  0.0647
    1DPPC   C4B15900   8.246  20.103   4.273 -0.0964  0.2519  0.2097
    1DPPC   NC315901  19.300  13.051   2.194  0.1356  0.1282  0.0364
    1DPPC   PO415902  19.260  13.353   2.258  0.2638 -0.0301  0.0999
    1DPPC   GL115903  19.529  13.315   2.602  0.3168  0.3192 -0.0036
    1DPPC   GL215904  19.670  13.029   2.519 -0.0950 -0.0296  0.1750
    1DPPC   C1A15905  19.673  13.534   2.978  0.0958  0.1208 -0.0723
    1DPPC   C2A15906  19.703  13.605   3.431  0.0253  0.1362  0.2430
    1DPPC   C3A15907  19.799  13.746   3.848 -0.0189 -0.2002 -0.0172
    1DPPC   C4A15908  19.530  13.649   4.172 -0.0502 -0.0273 -0.0576
    1DPPC   C1B15909  19.417  13.129   3.068 -0.0434  0.1981  0.1075
    1DPPC   C2B15910  19.491  13.162   3.515  0.0460  0.0039 -0.3450
    1DPPC   C3B15911  19.735  13.231   3.882  0.2035 -0.2157 -0.3284
    1DPPC   C4B15912  19.929  13.305   4.278  0.0259 -0.2072 -0.0313
    1DPPC   NC315913  10.267   7.907   3.289 -0.1517  0.1009 -0.0863
    1DPPC   PO415914  10.420   8.324   3.026 -0.1396  0.2287 -0.0098
    1DPPC   GL115915  10.503   8.384   3.531  0.0794  0.0440 -0.0995
    1DPPC   GL215916  10.460   8.130   3.691 -0.0005 -0.2143 -0.0947
    1DPPC   C1A15917  10.579   8.540   3.964 -0.0234  0.2983  0.3323
    1DPPC   C2A15918  10.619   8.708   4.371 -0.3087  0.0257 -0.2728
    1DPPC   C3A15919  10.634   8.862   4.784 -0.1544 -0.0308 -0.0194
    1DPPC   C4A15920  10.473   9.175   4.983 -0.1228  0.2503  0.1418
    1DPPC   C1B15921  10.340   8.056   4.050  0.0222 -0.3274 -0.0619
    1DPPC   C2B15922  10.248   8.395   4.348 -0.0516 -0.1152  0.0848
    1DPPC   C3B15923  10.242   8.498   4.719  0.2492  0.3226  0.2486
    1DPPC   C4B15924  10.090   8.304   5.075  0.1120 -0.0198  0.0100
    1DPPC   NC315925  20.455  12.667   2.314  0.0672  0.0316  0.1635
    1DPPC   PO415926  20.103  12.945   2.213 -0.1129 -0.1300  0.0651
    1DPPC   GL115927  20.143  12.945   2.615  0.0424 -0.0940  0.2966
    1DPPC   GL215928  20.235  12.737   2.786 -0.0043 -0.1704  0.1076
    1DPPC   C1A15929  19.961  13.098   3.030  0.1080  0.2927  0.1180
    1DPPC   C2A15930  20.008  13.177   3.430  0.1284  0.2817 -0.0362
    1DPPC   C3A15931  20.203  13.421   3.790  0.1724  0.1151 -0.2020
    1DPPC   C4A15932  20.288  13.674   4.098 -0.0726  0.0792  0.0376
    1DPPC   C1B15933  20.226  12.707   3.254  0.1266 -0.0709  0.0389
    1DPPC   C2B15934  20.244  12.742   3.552 -0.1231  0.0150  0.1753
    1DPPC   C3B15935  20.160  12.899   3.923 -0.1592  0.1267 -0.2643
    1DPPC   C4B15936  20.157  12.753   4.328  0.2489 -0.2460 -0.0916
    1DPPC   NC315937  18.844  10.341   2.135 -0.0872  0.0441 -0.1359
    1DPPC   PO415938  18.535  10.733   2.215 -0.1464 -0.2534  0.1453
    1DPPC   GL115939  18.679  10.538   2.679 -0.1182 -0.2832  0.0756
    1DPPC   GL215940  18.921  10.740   2.748  0.2198 -0.0314  0.0400
    1DPPC   C1A15941  18.637  10.678   3.133  0.5771  0.1977  0.4220
    1DPPC   C2A15942  18.798  10.853   3.513  0.0096  0.2100 -0.0564
    1DPPC   C3A15943  18.697  10.844   3.918  0.1142  0.2242 -0.2667
    1DPPC   C4A15944  18.959  10.990   4.211  0.1526 -0.0346 -0.1522
    1DPPC   C1B15945  19.308  10.660   2.947 -0.1156 -0.0749  0.0208
    1DPPC   C2B15946  19.281  10.775   3.394 -0.1046  0.2669  0.0208
    1DPPC   C3B15947  19.116  10.603   3.850 -0.2672 -0.3589  0.0121
    1DPPC   C4B15948  18.793  10.337   3.917 -0.2480  0.0024  0.1381
    1DPPC   NC315949  19.796  10.434   1.472 -0.0467 -0.0684  0.1309
    1DPPC   PO415950  19.775  10.489   1.876  0.0751 -0.3413 -0.1565
    1DPPC   GL115951  19.988  10.785   2.231  0.0531  0.0286 -0.1527
    1DPPC   GL215952  20.311  10.944   2.150 -0.1258  0.0648 -0.2977
    1DPPC   C1A15953  20.104  10.755   2.646  0.0470 -0.0548  0.0442
    1DPPC   C2A15954  20.041  10.573   3.020  0.3685 -0.1421 -0.2277
    1DPPC   C3A15955  19.702  10.539   3.265 -0.1043 -0.0314 -0.0527
    1DPPC   C4A15956  19.769  10.524   3.724  0.0198  0.1144  0.2357
    1DPPC   C1B15957  20.484  11.124   2.534  0.1931 -0.2445 -0.1445
    1DPPC   C2B15958  20.547  10.743   2.824  0.0539  0.2638 -0.0046
    1DPPC   C3B15959  20.567  10.488   3.280  0.0582 -0.1067  0.0699
    1DPPC   C4B15960  20.647  10.277   3.623  0.1432 -0.0995 -0.1598
    1DPPC   NC315961  18.783  13.478   2.077  0.2988  0.1058 -0.0493
    1DPPC   PO415962  18.799  13.060   1.968  0.0795  0.0665  0.0244
    1DPPC   GL115963  18.764  13.108   2.433 -0.1921  0.4134 -0.1768
    1DPPC   GL215964  18.581  13.427   2.518 -0.1728  0.2153 -0.0676
    1DPPC   C1A15965  18.883  12.992   2.782 -0.3614  0.0499 -0.1249
    1DPPC   C2A15966  18.966  13.023   3.246  0.1486 -0.0452 -0.1006
    1DPPC   C3A15967  19.056  12.962   3.703  0.3815 -0.0873 -0.2076
    1DPPC   C4A15968  19.011  12.691   3.958  0.1067 -0.0701  0.0339
    1DPPC   C1B15969  18.597  13.352   2.970 -0.1349  0.0266  0.1631
    1DPPC   C2B15970  18.560  13.243   3.467  0.0606  0.1153 -0.1704
    1DPPC   C3B15971  18.601  12.948   3.800 -0.1836  0.1153  0.0260
    1DPPC   C4B15972  18.505  12.628   4.074 -0.1215  0.0737 -0.2678
    1DPPC   NC315973  13.627  12.784   2.225 -0.1836  0.1160 -0.1979
    1DPPC   PO415974  13.732  13.198   2.403  0.1363  0.0713  0.0781
    1DPPC   GL115975  13.461  12.946   2.717  0.0037  0.3284 -0.2195
    1DPPC   GL215976  13.780  12.936   2.848  0.1816  0.0907  0.0013
    1DPPC   C1A15977  13.170  12.974   3.059  0.1451  0.0881 -0.0106
    1DPPC   C2A15978  13.017  13.031   3.362  0.0703 -0.1213 -0.0071
    1DPPC   C3A15979  13.087  12.756   3.748  0.0157  0.0346 -0.0046
    1DPPC   C4A15980  13.229  12.850   4.253  0.2977 -0.0301 -0.0179
    1DPPC   C1B15981  13.644  12.850   3.205  0.1120 -0.1128  0.0039
    1DPPC   C2B15982  13.519  12.961   3.608 -0.0426 -0.1138  0.0575
    1DPPC   C3B15983  13.623  12.941   3.981 -0.0799 -0.0678 -0.0482
    1DPPC   C4B15984  13.950  12.831   4.237  0.3115 -0.0891 -0.3002
    1DPPC   NC315985   4.869  22.222   2.589  0.1182  0.0187 -0.1111
    1DPPC   PO415986   4.728  21.831   2.400  0.1816 -0.1631  0.1368
    1DPPC   GL115987   4.645  21.549   2.815  0.0330  0.0319  0.1202
    1DPPC   GL215988   4.526  21.949   2.968 -0.2357 -0.1719  0.0531
    1DPPC   C1A15989   4.563  21.328   3.203 -0.0305 -0.1076 -0.1152
    1DPPC   C2A15990   4.147  21.163   3.359  0.1228 -0.0633  0.0989
    1DPPC   C3A15991   4.116  20.823   3.577  0.2376  0.0029  0.3373
    1DPPC   C4A15992   3.862  20.811   3.852  0.0920 -0.0937  0.0051
    1DPPC   C1B15993   4.295  21.898   3.378  0.3158 -0.0582  0.1306
    1DPPC   C2B15994   4.187  21.619   3.646 -0.1974 -0.4359 -0.0039
    1DPPC   C3B15995   4.344  21.616   4.031 -0.1952  0.0106 -0.0929
    1DPPC   C4B15996   4.636  21.854   4.337  0.2414 -0.2740 -0.0541
    1DPPC   NC315997  12.987   8.881   2.917 -0.4011  0.1603 -0.0195
    1DPPC   PO415998  12.657   8.756   2.889  0.1059 -0.0979 -0.0826
    1DPPC   GL115999  12.785   8.751   3.334  0.1416 -0.0272 -0.0540
    1DPPC   GL216000  13.148   8.766   3.403  0.0682  0.1891 -0.0774
    1DPPC   C1A16001  12.894   8.874   3.812  0.0513  0.1901  0.2320
    1DPPC   C2A16002  12.883   8.797   4.308 -0.0977 -0.1863 -0.0207
    1DPPC   C3A16003  12.575   8.788   4.689 -0.0508  0.0637 -0.2748
    1DPPC   C4A16004  12.360   8.554   5.077  0.1391 -0.0552  0.2421
    1DPPC   C1B16005  13.337   8.513   3.744  0.1697  0.1969  0.1552
    1DPPC   C2B16006  13.277   8.414   4.150 -0.2198 -0.0305 -0.2189
    1DPPC   C3B16007  13.303   8.378   4.543  0.2286  0.0681  0.1048
    1DPPC   C4B16008  13.120   8.132   4.811 -0.1688 -0.0876 -0.1604
    1DPPC   NC316009  27.670  22.327   2.935 -0.0779  0.0469  0.0728
    1DPPC   PO416010  27.285  22.501   2.810 -0.0005 -0.1466 -0.0143
    1DPPC   GL116011  27.353  22.928   3.126 -0.1028 -0.1575  0.1594
    1DPPC   GL216012  27.028  23.009   3.189 -0.1414 -0.0939  0.0690
    1DPPC   C1A16013  27.618  22.967   3.509  0.1645 -0.0077  0.0359
    1DPPC   C2A16014  27.718  22.819   3.998  0.1518 -0.0593 -0.2002
    1DPPC   C3A16015  27.607  23.151   4.346  0.0175 -0.2267 -0.1506
    1DPPC   C4A16016  27.871  23.186   4.766  0.1304 -0.4271  0.0857
    1DPPC   C1B16017  27.146  22.895   3.574  0.1219 -0.3809  0.0328
    1DPPC   C2B16018  26.876  22.869   3.923 -0.0294 -0.2468 -0.3393
    1DPPC   C3B16019  27.101  22.862   4.243  0.4060 -0.2391  0.3357
    1DPPC   C4B16020  27.409  22.707   4.570  0.4533  0.1724 -0.0795
    1DPPC   NC316021   4.625   1.330   3.156  0.0562 -0.1901  0.0125
    1DPPC   PO416022   4.845   0.942   3.389  0.1114 -0.0934 -0.1285
    1DPPC   GL116023   4.664   0.858   3.780  0.0585 -0.3157 -0.0900
    1DPPC   GL216024   4.688   0.517   3.705 -0.0262 -0.2817 -0.0265
    1DPPC   C1A16025   4.366   0.897   4.156  0.0422 -0.1506 -0.1635
    1DPPC   C2A16026   4.343   1.089   4.537 -0.0697 -0.0384 -0.4407
    1DPPC   C3A16027   4.326   1.332   4.961 -0.1078 -0.0271 -0.0204
    1DPPC   C4A16028   4.632   1.329   5.363  0.1725  0.0083 -0.2311
    1DPPC   C1B16029   4.511   0.378   4.107 -0.0595 -0.0215  0.1222
    1DPPC   C2B16030   4.256   0.366   4.341 -0.1284 -0.1140  0.1255
    1DPPC   C3B16031   3.948   0.601   4.621 -0.1177  0.0177  0.2077
    1DPPC   C4B16032   3.750   0.955   4.809  0.0861  0.0691 -0.1261
    1DPPC   NC316033  14.733   9.128   2.055  0.3775 -0.1713  0.2142
    1DPPC   PO416034  14.834   9.170   2.501 -0.4812  0.1524  0.1258
    1DPPC   GL116035  14.750   9.318   2.922  0.2217  0.3398  0.0817
    1DPPC   GL216036  15.095   9.380   3.073  0.0386  0.3279  0.1890
    1DPPC   C1A16037  14.732   9.250   3.399  0.0622 -0.1942  0.2246
    1DPPC   C2A16038  14.845   9.364   3.816 -0.0974  0.1969 -0.3739
    1DPPC   C3A16039  14.691   9.434   4.225  0.1614 -0.2097 -0.0881
    1DPPC   C4A16040  14.715   9.745   4.536  0.2158  0.1099  0.1637
    1DPPC   C1B16041  15.252   9.383   3.510 -0.1200  0.2225  0.0523
    1DPPC   C2B16042  15.170   9.751   3.886 -0.0085  0.2970  0.2081
    1DPPC   C3B16043  15.138   9.812   4.289 -0.1612  0.1913  0.1308
    1DPPC   C4B16044  15.201   9.759   4.610  0.1410  0.0375 -0.1047
    1DPPC   NC316045   5.281  14.215   2.517 -0.2332 -0.1246 -0.1440
    1DPPC   PO416046   5.395  14.685   2.484 -0.0400  0.2584  0.2255
    1DPPC   GL116047   5.552  14.473   2.875 -0.1983 -0.0842 -0.1869
    1DPPC   GL216048   5.729  14.161   2.914  0.0255  0.1469  0.0934
    1DPPC   C1A16049   5.412  14.416   3.328  0.2325  0.0849 -0.0428
    1DPPC   C2A16050   5.384  14.076   3.548  0.3009  0.0083  0.2102
    1DPPC   C3A16051   5.461  14.025   3.933 -0.1060  0.1757  0.2754
    1DPPC   C4A16052   5.297  13.945   4.342  0.1786  0.1003 -0.0442
    1DPPC   C1B16053   5.879  14.052   3.398  0.0927 -0.3054  0.1240
    1DPPC   C2B16054   5.869  14.174   3.740  0.0501  0.0100  0.3749
    1DPPC   C3B16055   6.219  14.277   3.932 -0.1191  0.4408  0.4969
    1DPPC   C4B16056   6.431  14.496   4.141  0.2498  0.1828 -0.0922
    1DPPC   NC316057  20.628  13.462   1.655  0.2375 -0.0892  0.0390
    1DPPC   PO416058  21.021  13.224   1.968  0.1767 -0.2129  0.0850
    1DPPC   GL116059  20.954  13.083   2.419 -0.0473  0.0954 -0.2749
    1DPPC   GL216060  20.609  13.044   2.583  0.0185 -0.3059 -0.1089
    1DPPC   C1A16061  21.083  13.120   2.868 -0.1465 -0.0522 -0.1419
    1DPPC   C2A16062  21.016  13.202   3.394  0.0156  0.3284  0.0035
    1DPPC   C3A16063  21.050  13.355   3.876  0.1408  0.2855 -0.0918
    1DPPC   C4A16064  20.765  13.566   4.100  0.0359 -0.0267  0.2654
    1DPPC   C1B16065  20.488  13.078   3.056 -0.2005  0.0833 -0.0168
    1DPPC   C2B16066  20.541  13.196   3.445  0.0952 -0.1783 -0.3204
    1DPPC   C3B16067  20.649  13.613   3.547 -0.0782  0.1409 -0.1424
    1DPPC   C4B16068  20.734  14.010   3.405  0.0283  0.2218  0.0993
    1DPPC   NC316069  11.219  11.300   2.961 -0.2505 -0.0384 -0.1377
    1DPPC   PO416070  11.599  11.200   2.631 -0.2525  0.0230 -0.3315
    1DPPC   GL116071  11.700  11.142   3.118  0.2326 -0.0136 -0.1895
    1DPPC   GL216072  11.620  10.852   3.190  0.0874 -0.0938  0.0921
    1DPPC   C1A16073  11.964  11.200   3.350  0.1278  0.0821  0.2174
    1DPPC   C2A16074  12.051  11.233   3.737  0.0714 -0.0507  0.4670
    1DPPC   C3A16075  12.102  11.270   4.194 -0.1167 -0.2140  0.2085
    1DPPC   C4A16076  12.009  11.410   4.602  0.1118 -0.0946 -0.2511
    1DPPC   C1B16077  11.751  10.561   3.434  0.0059 -0.0667 -0.1678
    1DPPC   C2B16078  11.755  10.498   3.842 -0.1095  0.0930 -0.1996
    1DPPC   C3B16079  11.920  10.442   4.208 -0.1994 -0.1116 -0.1012
    1DPPC   C4B16080  11.917  10.512   4.645  0.1855 -0.0188 -0.1873
    1DPPC   NC316081  11.318  19.114   2.586  0.1378  0.2632  0.2264
    1DPPC   PO416082  10.966  19.023   2.401  0.0685 -0.2171  0.0758
    1DPPC   GL116083  10.883  19.021   2.800  0.0004 -0.0666  0.1136
    1DPPC   GL216084  10.993  19.185   3.118 -0.0550 -0.0267  0.0475
    1DPPC   C1A16085  10.621  18.742   3.044  0.2475  0.0212  0.2683
    1DPPC   C2A16086  10.543  18.685   3.406 -0.0382  0.0737 -0.0039
    1DPPC   C3A16087  10.510  18.522   3.778 -0.0781  0.0602 -0.0634
    1DPPC   C4A16088  10.312  18.628   4.157 -0.1163  0.1383 -0.3607
    1DPPC   C1B16089  10.929  19.073   3.560  0.0258 -0.2951  0.0434
    1DPPC   C2B16090  10.789  18.892   3.976 -0.1375 -0.1161  0.2818
    1DPPC   C3B16091  10.633  18.922   4.405  0.0222  0.1306  0.2098
    1DPPC   C4B16092  10.235  19.089   4.498 -0.2349  0.2871  0.0578
    1DPPC   NC316093  22.320  17.974   2.686 -0.0111 -0.1139  0.0374
    1DPPC   PO416094  22.414  18.309   2.926  0.0632 -0.1030  0.0740
    1DPPC   GL116095  22.335  18.165   3.349  0.0503 -0.1429  0.1188
    1DPPC   GL216096  22.602  18.215   3.423  0.0676  0.4214 -0.2242
    1DPPC   C1A16097  22.351  17.921   3.793  0.0570 -0.0631 -0.1449
    1DPPC   C2A16098  22.114  17.804   4.187  0.1695 -0.0842  0.2168
    1DPPC   C3A16099  22.242  17.625   4.611 -0.1337 -0.2486  0.1016
    1DPPC   C4A16100  22.434  17.228   4.845  0.2891 -0.4589  0.1983
    1DPPC   C1B16101  22.712  17.714   3.556  0.0135 -0.0210  0.0579
    1DPPC   C2B16102  22.844  17.354   3.627  0.2437 -0.1566 -0.0305
    1DPPC   C3B16103  22.961  17.056   3.872  0.2843 -0.0396 -0.0524
    1DPPC   C4B16104  23.108  16.748   4.192 -0.1357 -0.0632 -0.1236
    1DPPC   NC316105  16.629  16.470   2.275  0.2665  0.3019 -0.0393
    1DPPC   PO416106  16.292  16.124   2.212 -0.0736  0.0662  0.0690
    1DPPC   GL116107  16.329  16.355   2.751 -0.3712  0.1253 -0.0924
    1DPPC   GL216108  16.052  16.593   2.859  0.0659  0.0463  0.1084
    1DPPC   C1A16109  16.325  16.303   3.233 -0.0099  0.2119  0.3073
    1DPPC   C2A16110  16.212  16.428   3.600  0.0180  0.0207  0.1794
    1DPPC   C3A16111  16.335  16.398   3.985  0.1482 -0.2320 -0.1368
    1DPPC   C4A16112  16.448  16.492   4.426  0.0546 -0.1753  0.0034
    1DPPC   C1B16113  16.254  16.827   3.191  0.0580 -0.0053 -0.0165
    1DPPC   C2B16114  16.319  16.965   3.598 -0.0679  0.2748  0.1756
    1DPPC   C3B16115  16.479  16.908   4.013  0.1592  0.0984  0.0288
    1DPPC   C4B16116  16.589  16.996   4.378  0.0813 -0.0232 -0.2375
    1DPPC   NC316117  19.719  16.695   1.780  0.1747 -0.0920  0.1985
    1DPPC   PO416118  19.673  16.568   2.213  0.0938  0.2521 -0.2713
    1DPPC   GL116119  19.696  16.380   2.631 -0.1648  0.0805 -0.4205
    1DPPC   GL216120  19.740  16.676   2.855  0.0271  0.3083  0.1003
    1DPPC   C1A16121  19.406  16.077   2.987  0.0391 -0.3003  0.1594
    1DPPC   C2A16122  19.334  16.164   3.437  0.2761 -0.0859  0.1202
    1DPPC   C3A16123  19.249  16.181   3.744  0.0607  0.0579  0.1742
    1DPPC   C4A16124  19.313  16.311   4.072 -0.0118 -0.6184  0.3434
    1DPPC   C1B16125  19.679  16.497   3.208 -0.1100  0.1348 -0.1717
    1DPPC   C2B16126  19.672  16.519   3.617  0.3450 -0.2683 -0.1711
    1DPPC   C3B16127  19.806  16.425   3.997  0.0899  0.1362  0.0978
    1DPPC   C4B16128  19.719  16.187   4.292 -0.1929 -0.2573 -0.1190
    1DPPC   NC316129  21.419  17.789   2.384  0.1374  0.2469 -0.1702
    1DPPC   PO416130  21.923  17.891   2.315  0.1685 -0.2275 -0.0012
    1DPPC   GL116131  21.858  17.958   2.851  0.2357  0.2656 -0.0976
    1DPPC   GL216132  21.741  17.733   2.782 -0.0098  0.2394  0.3079
    1DPPC   C1A16133  21.911  17.947   3.332 -0.0135 -0.1055  0.0047
    1DPPC   C2A16134  21.948  17.657   3.621  0.2138 -0.0748 -0.2411
    1DPPC   C3A16135  21.827  17.419   4.037 -0.0158 -0.1167  0.1675
    1DPPC   C4A16136  22.034  17.123   4.326  0.1462  0.1254 -0.0597
    1DPPC   C1B16137  21.863  17.395   3.157  0.2091 -0.0348  0.0305
    1DPPC   C2B16138  21.842  17.101   3.494  0.0702 -0.0476 -0.1150
    1DPPC   C3B16139  21.847  16.943   3.883 -0.1163  0.0577 -0.1347
    1DPPC   C4B16140  21.903  16.645   4.231  0.0341 -0.2185 -0.1481
    1DPPC   NC316141  24.016  12.806   2.274 -0.1822  0.3844  0.4544
    1DPPC   PO416142  23.571  12.846   2.366  0.1537 -0.0974  0.1964
    1DPPC   GL116143  23.775  12.703   2.735 -0.1250  0.2285 -0.1372
    1DPPC   GL216144  24.031  12.800   2.819  0.1052 -0.0536  0.3894
    1DPPC   C1A16145  23.652  12.736   3.127 -0.3503  0.0243 -0.0708
    1DPPC   C2A16146  23.681  12.737   3.452 -0.4022 -0.2410  0.0806
    1DPPC   C3A16147  23.706  12.979   3.786  0.0560 -0.0096 -0.0370
    1DPPC   C4A16148  23.372  13.304   3.806  0.0996 -0.1547  0.0530
    1DPPC   C1B16149  24.210  12.813   3.223  0.0585 -0.3302 -0.0716
    1DPPC   C2B16150  24.129  12.814   3.579 -0.3212  0.1138  0.0850
    1DPPC   C3B16151  24.198  13.046   3.922 -0.0747 -0.0042 -0.0709
    1DPPC   C4B16152  24.334  13.425   4.063 -0.0420 -0.0941 -0.2687
    1DPPC   NC316153  10.835  19.900   2.232  0.0978  0.3488 -0.3503
    1DPPC   PO416154  10.791  19.437   2.171  0.0080  0.2548  0.2095
    1DPPC   GL116155  10.697  19.431   2.634  0.2933 -0.1996  0.3120
    1DPPC   GL216156  10.434  19.338   2.708 -0.1523  0.0951 -0.0626
    1DPPC   C1A16157  10.811  19.673   2.942 -0.0930 -0.0529 -0.0738
    1DPPC   C2A16158  10.878  19.595   3.363  0.1241  0.1206 -0.1206
    1DPPC   C3A16159  10.947  19.561   3.783 -0.0023  0.0928  0.0820
    1DPPC   C4A16160  10.864  19.397   4.191  0.0512 -0.0464 -0.2463
    1DPPC   C1B16161  10.522  19.172   3.152 -0.2518  0.2799  0.0343
    1DPPC   C2B16162  10.458  19.140   3.646  0.1315  0.1671 -0.1486
    1DPPC   C3B16163  10.214  19.043   3.970  0.1415  0.3717 -0.1689
    1DPPC   C4B16164   9.841  19.210   4.200  0.0370 -0.0329 -0.1380
    1DPPC   NC316165  12.714  12.869   2.208 -0.0132 -0.1183 -0.5148
    1DPPC   PO416166  12.452  12.615   2.472  0.1412 -0.1834 -0.2976
    1DPPC   GL116167  12.317  12.796   2.809  0.1148  0.3036  0.1489
    1DPPC   GL216168  12.390  13.069   2.862 -0.0358 -0.0744  0.1605
    1DPPC   C1A16169  12.061  12.736   3.271 -0.0249 -0.0099  0.1214
    1DPPC   C2A16170  12.215  12.865   3.657 -0.0521 -0.1580 -0.2711
    1DPPC   C3A16171  12.266  12.876   4.097 -0.3966 -0.1378  0.0241
    1DPPC   C4A16172  12.247  12.977   4.527 -0.0491 -0.0255  0.3118
    1DPPC   C1B16173  12.506  13.094   3.256 -0.1195 -0.0257 -0.0145
    1DPPC   C2B16174  12.682  13.041   3.728 -0.2651 -0.1805 -0.0854
    1DPPC   C3B16175  12.715  13.033   4.211 -0.0484  0.2553 -0.0262
    1DPPC   C4B16176  12.629  13.239   4.646 -0.2638  0.1829  0.0771
    1DPPC   NC316177  22.107   4.025   2.969  0.0852  0.2247  0.1438
    1DPPC   PO416178  22.254   4.429   2.746  0.0225 -0.0716  0.2888
    1DPPC   GL116179  22.323   4.476   3.171 -0.0264 -0.0743  0.1358
    1DPPC   GL216180  22.482   4.169   3.245  0.0807 -0.0578 -0.4088
    1DPPC   C1A16181  22.223   4.517   3.521  0.0533  0.1494  0.2661
    1DPPC   C2A16182  22.390   4.668   3.953  0.2801  0.0914 -0.1483
    1DPPC   C3A16183  22.815   4.714   4.152  0.1694 -0.1203  0.2042
    1DPPC   C4A16184  22.993   5.016   4.493  0.1669 -0.3801  0.2779
    1DPPC   C1B16185  22.331   4.073   3.622 -0.4445 -0.3104  0.3284
    1DPPC   C2B16186  21.988   4.014   3.912  0.0269 -0.1442 -0.0769
    1DPPC   C3B16187  21.724   3.902   4.317 -0.3367 -0.0147  0.0375
    1DPPC   C4B16188  21.708   4.220   4.697 -0.0614  0.0366 -0.2089
    1DPPC   NC316189   8.177  12.567   2.494 -0.0941 -0.2522 -0.1967
    1DPPC   PO416190   8.450  12.902   2.740 -0.2670  0.2081 -0.4258
    1DPPC   GL116191   8.744  13.067   3.001 -0.0252  0.1239  0.0016
    1DPPC   GL216192   8.869  13.419   2.987  0.0604  0.0920  0.1737
    1DPPC   C1A16193   9.078  13.166   3.367  0.0882  0.0784 -0.1620
    1DPPC   C2A16194   9.188  13.181   3.825  0.1256  0.0748  0.1578
    1DPPC   C3A16195   9.343  13.284   4.196  0.0616 -0.0185  0.0245
    1DPPC   C4A16196   9.540  13.330   4.673 -0.1955 -0.0797  0.1183
    1DPPC   C1B16197   8.871  13.629   3.333  0.3547 -0.2731  0.4080
    1DPPC   C2B16198   9.072  13.662   3.697  0.2136 -0.1082  0.0171
    1DPPC   C3B16199   9.150  13.746   4.085  0.1166 -0.1342  0.0327
    1DPPC   C4B16200   9.105  13.629   4.474  0.0555 -0.0537 -0.0878
    1DPPC   NC316201  18.160  18.134   1.918  0.2280  0.1439 -0.1302
    1DPPC   PO416202  18.192  18.109   2.432  0.2577 -0.1743 -0.0261
    1DPPC   GL116203  18.168  18.177   2.831  0.1929 -0.1420 -0.1042
    1DPPC   GL216204  18.236  17.935   3.008  0.0482  0.0396 -0.2043
    1DPPC   C1A16205  18.175  18.333   3.244  0.1380  0.0650 -0.0839
    1DPPC   C2A16206  18.223  18.458   3.617  0.3155  0.0672 -0.1506
    1DPPC   C3A16207  18.139  18.391   3.967 -0.3820  0.0659 -0.0187
    1DPPC   C4A16208  18.288  18.435   4.307 -0.0433  0.0411 -0.2041
    1DPPC   C1B16209  18.153  17.792   3.346 -0.0332 -0.0800 -0.0907
    1DPPC   C2B16210  18.096  17.803   3.814 -0.1224 -0.0253 -0.0213
    1DPPC   C3B16211  18.197  17.974   4.286  0.2075  0.1913 -0.2497
    1DPPC   C4B16212  18.037  18.246   4.659 -0.0325 -0.0262  0.0306
    1DPPC   NC316213  20.292   7.029   2.315  0.3080 -0.2229 -0.1522
    1DPPC   PO416214  20.256   7.139   2.761 -0.2235 -0.1481  0.0323
    1DPPC   GL116215  19.896   7.294   2.985 -0.1552 -0.1211 -0.5418
    1DPPC   GL216216  19.725   6.943   3.073 -0.0489  0.1563 -0.3211
    1DPPC   C1A16217  19.628   7.387   3.382 -0.1082  0.0618  0.0868
    1DPPC   C2A16218  19.317   7.442   3.756  0.2380 -0.2582 -0.0618
    1DPPC   C3A16219  18.973   7.193   3.909  0.2260  0.0322 -0.1928
    1DPPC   C4A16220  18.706   7.095   4.239  0.1959 -0.0249 -0.1421
    1DPPC   C1B16221  19.515   6.876   3.472 -0.0060 -0.1799  0.3318
    1DPPC   C2B16222  19.431   6.977   3.879  0.0012  0.0612 -0.0454
    1DPPC   C3B16223  19.259   6.915   4.290 -0.0428  0.0138 -0.0750
    1DPPC   C4B16224  18.908   6.816   4.608  0.0085  0.1997 -0.0774
    1DPPC   NC316225  16.753  14.187   2.153  0.1269  0.2490  0.0783
    1DPPC   PO416226  16.956  14.446   2.053 -0.2002 -0.2456  0.2384
    1DPPC   GL116227  16.996  14.467   2.528  0.0286  0.2339  0.0559
    1DPPC   GL216228  17.048  14.119   2.623 -0.1848 -0.1267  0.2456
    1DPPC   C1A16229  17.356  14.672   2.760 -0.1812  0.0879  0.2774
    1DPPC   C2A16230  17.552  14.676   3.177 -0.2360 -0.0593 -0.3008
    1DPPC   C3A16231  17.804  14.445   3.435  0.2911  0.1420  0.0466
    1DPPC   C4A16232  18.050  14.015   3.492 -0.1251 -0.2519  0.2736
    1DPPC   C1B16233  17.073  14.339   3.057 -0.0088  0.0967 -0.0570
    1DPPC   C2B16234  17.159  14.393   3.378 -0.0571 -0.2031  0.1283
    1DPPC   C3B16235  17.192  14.287   3.749 -0.0094 -0.0983 -0.1587
    1DPPC   C4B16236  17.354  14.285   4.140 -0.2954  0.0079  0.0964
    1DPPC   NC316237  21.556  11.920   2.040 -0.3378 -0.2198 -0.0293
    1DPPC   PO416238  21.210  12.245   2.263 -0.3643  0.2435 -0.0206
    1DPPC   GL116239  21.236  12.146   2.707 -0.1307  0.1176 -0.0266
    1DPPC   GL216240  21.457  12.369   2.738  0.2050 -0.0489  0.0948
    1DPPC   C1A16241  21.298  12.246   3.188  0.2525 -0.1758 -0.0279
    1DPPC   C2A16242  21.254  12.290   3.607  0.2169  0.2400  0.1041
    1DPPC   C3A16243  21.071  12.432   4.005  0.1629  0.0813 -0.0618
    1DPPC   C4A16244  20.911  12.276   4.239  0.0115  0.1123 -0.1642
    1DPPC   C1B16245  21.348  12.685   2.980  0.0945 -0.1356  0.0407
    1DPPC   C2B16246  21.302  12.807   3.425 -0.1144 -0.0284  0.1719
    1DPPC   C3B16247  21.334  12.890   3.804  0.0698 -0.1257 -0.2802
    1DPPC   C4B16248  21.230  13.006   4.235  0.1751  0.2389 -0.3645
    1DPPC   NC316249  20.826  16.093   2.433 -0.1041  0.0513  0.0697
    1DPPC   PO416250  20.447  15.803   2.347  0.1036 -0.3539  0.1510
    1DPPC   GL116251  20.421  15.873   2.663 -0.0134 -0.0529  0.1888
    1DPPC   GL216252  20.112  15.860   2.768  0.0014 -0.3448  0.0838
    1DPPC   C1A16253  20.560  15.897   3.070 -0.1127  0.0279 -0.1378
    1DPPC   C2A16254  20.357  15.911   3.566 -0.3633  0.1864  0.1049
    1DPPC   C3A16255  20.222  16.132   3.806  0.0434 -0.0723 -0.0860
    1DPPC   C4A16256  20.219  16.170   4.223  0.1222 -0.0139 -0.0409
    1DPPC   C1B16257  20.080  16.075   3.151 -0.0957  0.0927 -0.1953
    1DPPC   C2B16258  19.848  16.071   3.489  0.0700  0.2755 -0.1720
    1DPPC   C3B16259  19.681  15.955   3.841  0.4675 -0.2362 -0.0006
    1DPPC   C4B16260  19.438  15.812   4.224  0.1374 -0.0720 -0.0235
    1DPPC   NC316261  19.644  14.047   1.957 -0.1791 -0.1180 -0.1116
    1DPPC   PO416262  20.047  13.933   2.117  0.4691 -0.0936  0.0124
    1DPPC   GL116263  19.814  14.007   2.443 -0.0428 -0.1646  0.0429
    1DPPC   GL216264  19.690  13.761   2.501  0.1072  0.1410 -0.0782
    1DPPC   C1A16265  19.842  14.010   2.975 -0.2469 -0.0861 -0.0612
    1DPPC   C2A16266  19.873  14.157   3.366  0.1239 -0.1647  0.1119
    1DPPC   C3A16267  19.850  14.232   3.685  0.0446 -0.0353  0.1442
    1DPPC   C4A16268  19.949  14.221   4.066 -0.0753  0.0607  0.1087
    1DPPC   C1B16269  19.356  13.954   2.827  0.2250 -0.0549  0.2714
    1DPPC   C2B16270  19.343  13.965   3.230  0.1968 -0.0424  0.1511
    1DPPC   C3B16271  19.428  14.004   3.648 -0.1532 -0.3336  0.1410
    1DPPC   C4B16272  19.445  14.183   4.052  0.3326  0.3272 -0.0702
    1DPPC   NC316273  21.200  14.854   2.214 -0.0833  0.0370  0.3316
    1DPPC   PO416274  20.876  14.666   2.172 -0.2831  0.0331  0.1924
    1DPPC   GL116275  20.730  14.603   2.555 -0.0802  0.2472 -0.1703
    1DPPC   GL216276  20.625  14.311   2.623  0.0786  0.2708  0.0240
    1DPPC   C1A16277  20.907  14.842   2.885 -0.0604  0.0111 -0.0336
    1DPPC   C2A16278  21.110  14.747   3.219  0.0771 -0.0016  0.2004
    1DPPC   C3A16279  21.161  14.809   3.640 -0.0622  0.2120  0.1769
    1DPPC   C4A16280  21.244  14.868   4.038  0.0789 -0.1981  0.0662
    1DPPC   C1B16281  20.704  14.397   3.070  0.1489 -0.0046  0.2016
    1DPPC   C2B16282  20.814  14.490   3.476  0.0395 -0.1226 -0.2364
    1DPPC   C3B16283  20.950  14.328   3.809 -0.0893  0.0443 -0.0597
    1DPPC   C4B16284  21.177  14.282   4.145 -0.0808 -0.1089  0.0486
    1DPPC   NC316285  18.267  20.965   2.474 -0.0438 -0.0351  0.0481
    1DPPC   PO416286  18.535  21.167   2.602 -0.0645 -0.0970  0.1693
    1DPPC   GL116287  18.401  21.019   3.016  0.3219 -0.2279 -0.3600
    1DPPC   GL216288  18.485  21.275   3.182 -0.1477  0.1373  0.0701
    1DPPC   C1A16289  18.487  20.765   3.359 -0.0350  0.0235  0.0788
    1DPPC   C2A16290  18.466  20.806   3.789  0.0789 -0.0651  0.1165
    1DPPC   C3A16291  18.371  20.823   4.258 -0.1924 -0.0500  0.0407
    1DPPC   C4A16292  18.368  21.010   4.713 -0.2368 -0.0360  0.0436
    1DPPC   C1B16293  18.134  21.166   3.565  0.3659 -0.1738 -0.1232
    1DPPC   C2B16294  18.182  21.192   3.953  0.2250 -0.1797  0.0240
    1DPPC   C3B16295  17.998  21.242   4.300  0.0754  0.0307 -0.4033
    1DPPC   C4B16296  17.870  20.904   4.675  0.0135 -0.0163  0.0415
    1DPPC   NC316297  18.019  13.179   1.568  0.0857 -0.0099 -0.1338
    1DPPC   PO416298  17.841  13.335   1.906 -0.1166 -0.3885  0.4864
    1DPPC   GL116299  17.894  13.236   2.399  0.2209 -0.0578 -0.2974
    1DPPC   GL216300  17.546  13.241   2.645  0.1565  0.2227  0.1569
    1DPPC   C1A16301  18.114  13.354   2.763  0.1145  0.0005  0.0460
    1DPPC   C2A16302  18.136  13.314   3.227 -0.3311 -0.3174  0.0274
    1DPPC   C3A16303  18.161  13.294   3.705 -0.0778  0.0062 -0.4262
    1DPPC   C4A16304  18.256  13.153   4.076 -0.0270  0.1085  0.0112
    1DPPC   C1B16305  17.663  13.179   3.045  0.1946  0.0458  0.0858
    1DPPC   C2B16306  17.737  13.043   3.430  0.0983  0.1028  0.0823
    1DPPC   C3B16307  17.706  13.070   3.858 -0.0900  0.1718 -0.0952
    1DPPC   C4B16308  17.806  13.077   4.199 -0.2283  0.0236 -0.1086
    1DPPC   NC316309  19.842  11.713   2.089  0.3742 -0.1727  0.1009
    1DPPC   PO416310  19.865  11.248   2.099  0.2690 -0.3661 -0.0984
    1DPPC   GL116311  19.517  11.375   2.448 -0.3521 -0.0267  0.0304
    1DPPC   GL216312  19.193  11.236   2.299  0.1302 -0.0409  0.0753
    1DPPC   C1A16313  19.431  11.608   2.802  0.0036 -0.1572  0.0969
    1DPPC   C2A16314  19.461  11.738   3.241  0.2246 -0.0648 -0.1963
    1DPPC   C3A16315  19.695  11.519   3.673  0.0518  0.0929  0.1733
    1DPPC   C4A16316  19.772  11.510   4.036 -0.1626  0.0041  0.1027
    1DPPC   C1B16317  19.068  11.206   2.739 -0.1091 -0.0629  0.0195
    1DPPC   C2B16318  19.046  11.167   3.142  0.0181 -0.0473  0.2964
    1DPPC   C3B16319  19.139  11.213   3.544 -0.2542 -0.0515  0.0546
    1DPPC   C4B16320  19.290  11.288   3.931 -0.1537  0.0811  0.0531
    1DPPC   NC316321  14.992  15.441   2.146 -0.2521 -0.1208  0.1266
    1DPPC   PO416322  15.073  15.797   2.151  0.1549 -0.0619  0.1657
    1DPPC   GL116323  14.966  15.964   2.556 -0.0415 -0.0527  0.0978
    1DPPC   GL216324  15.251  16.060   2.627 -0.2647  0.2217 -0.2547
    1DPPC   C1A16325  14.801  15.883   2.834 -0.1533 -0.0133  0.0038
    1DPPC   C2A16326  14.894  15.852   3.285 -0.1950 -0.1692 -0.1028
    1DPPC   C3A16327  14.946  15.929   3.700  0.2252 -0.0253  0.2557
    1DPPC   C4A16328  15.086  15.808   4.125  0.2042 -0.0002 -0.0935
    1DPPC   C1B16329  15.351  16.014   2.995  0.3070  0.1400  0.0500
    1DPPC   C2B16330  15.486  15.942   3.334  0.1398  0.0160 -0.1174
    1DPPC   C3B16331  15.439  15.884   3.823  0.2361 -0.3435 -0.1214
    1DPPC   C4B16332  15.511  16.007   4.337  0.0961 -0.1233  0.0539
    1DPPC   NC316333  10.647   1.670   3.291 -0.0193 -0.4060  0.0713
    1DPPC   PO416334  10.414   1.261   3.240  0.2716  0.1641 -0.2017
    1DPPC   GL116335  10.229   1.136   3.706 -0.1407 -0.1053 -0.1324
    1DPPC   GL216336   9.896   1.267   3.773  0.1134 -0.2223  0.0003
    1DPPC   C1A16337  10.218   1.285   4.226  0.2100  0.1558  0.0091
    1DPPC   C2A16338  10.305   1.259   4.676  0.1782 -0.2977  0.1070
    1DPPC   C3A16339  10.042   1.485   4.942  0.3996  0.2003  0.2993
    1DPPC   C4A16340   9.885   1.760   5.290  0.0378 -0.3206  0.1026
    1DPPC   C1B16341   9.938   0.889   4.083 -0.3547 -0.0085  0.1452
    1DPPC   C2B16342   9.674   0.697   4.467 -0.1796  0.0180  0.0794
    1DPPC   C3B16343   9.368   0.996   4.710  0.1227 -0.2310 -0.1420
    1DPPC   C4B16344   9.456   1.434   4.824 -0.1327  0.4480 -0.1621
    1DPPC   NC316345  16.602  13.240   2.135  0.1014  0.0638  0.0103
    1DPPC   PO416346  16.983  13.486   2.115  0.0169 -0.0462  0.0818
    1DPPC   GL116347  16.700  13.626   2.476 -0.1234  0.0504 -0.1335
    1DPPC   GL216348  16.695  13.433   2.605 -0.2372  0.0751 -0.1334
    1DPPC   C1A16349  16.578  13.890   2.821 -0.0017 -0.1393 -0.0883
    1DPPC   C2A16350  16.536  13.823   3.266  0.0992  0.1147  0.0919
    1DPPC   C3A16351  16.158  13.620   3.624 -0.1197  0.0194  0.0918
    1DPPC   C4A16352  16.179  13.541   4.033  0.0391  0.1085  0.0388
    1DPPC   C1B16353  16.857  13.242   2.970 -0.1763 -0.0862  0.0066
    1DPPC   C2B16354  16.845  13.291   3.480 -0.0125 -0.0671  0.0675
    1DPPC   C3B16355  16.843  13.441   3.780 -0.1249 -0.1846  0.1108
    1DPPC   C4B16356  16.747  13.437   4.102 -0.0578 -0.0688 -0.0979
    1DPPC   NC316357  17.617  21.387   2.859  0.0182 -0.0218  0.0869
    1DPPC   PO416358  17.415  20.918   2.761  0.0557 -0.2201  0.0765
    1DPPC   GL116359  17.473  20.888   3.234  0.0420 -0.0127 -0.1740
    1DPPC   GL216360  17.542  21.158   3.325 -0.1042  0.0655 -0.6894
    1DPPC   C1A16361  17.435  20.697   3.603 -0.1862  0.1556  0.2436
    1DPPC   C2A16362  17.319  20.674   4.023  0.2102 -0.1775 -0.0503
    1DPPC   C3A16363  17.309  20.768   4.462  0.0150  0.1899  0.0598
    1DPPC   C4A16364  17.302  20.813   4.827 -0.0233  0.2608  0.0941
    1DPPC   C1B16365  17.606  21.131   3.661  0.0098 -0.0284 -0.1433
    1DPPC   C2B16366  17.525  21.134   4.071 -0.3417  0.4135 -0.1740
    1DPPC   C3B16367  17.568  21.189   4.478 -0.0651 -0.1327 -0.2181
    1DPPC   C4B16368  17.641  21.421   4.810 -0.0211  0.0415 -0.1394
    1DPPC   NC316369  22.409  16.008   1.780 -0.0713  0.4334  0.1266
    1DPPC   PO416370  22.218  15.576   1.830 -0.0210 -0.1431  0.1362
    1DPPC   GL116371  22.420  15.633   2.273  0.1106  0.1435  0.1776
    1DPPC   GL216372  22.429  15.974   2.350 -0.0870  0.1138  0.1077
    1DPPC   C1A16373  22.685  15.507   2.546  0.0249 -0.1600 -0.0704
    1DPPC   C2A16374  22.838  15.398   3.014  0.1037  0.2108  0.0166
    1DPPC   C3A16375  22.942  15.162   3.438 -0.0944 -0.0736 -0.1100
    1DPPC   C4A16376  22.868  14.796   3.621 -0.1520 -0.2524 -0.0551
    1DPPC   C1B16377  22.464  15.889   2.751 -0.0012 -0.1469  0.3297
    1DPPC   C2B16378  22.557  15.703   3.197  0.0151 -0.2137 -0.1217
    1DPPC   C3B16379  22.812  15.639   3.530 -0.0038  0.2069  0.1035
    1DPPC   C4B16380  22.760  15.401   3.883  0.0297  0.2666  0.1169
    1DPPC   NC316381  21.026  18.750   2.587  0.1784 -0.2171 -0.0102
    1DPPC   PO416382  21.376  18.606   2.792 -0.0800 -0.0192  0.2320
    1DPPC   GL116383  21.435  18.580   3.214 -0.0206 -0.1757  0.0923
    1DPPC   GL216384  21.785  18.438   3.198 -0.0765  0.3203  0.3804
    1DPPC   C1A16385  21.556  18.577   3.615 -0.0396  0.1917 -0.0584
    1DPPC   C2A16386  21.476  18.563   3.997  0.1239  0.2127 -0.2070
    1DPPC   C3A16387  21.473  18.492   4.381  0.1753  0.1957 -0.2561
    1DPPC   C4A16388  21.391  18.273   4.752 -0.2029  0.1479  0.1335
    1DPPC   C1B16389  21.986  18.325   3.659  0.1744 -0.2280 -0.2327
    1DPPC   C2B16390  21.956  18.341   4.111  0.1021  0.2352  0.0740
    1DPPC   C3B16391  21.926  18.391   4.552  0.1469  0.2579 -0.1156
    1DPPC   C4B16392  21.765  18.425   5.045  0.2473 -0.1900  0.0146
    1DPPC   NC316393  10.165  20.108   1.981  0.3335 -0.1622 -0.1988
    1DPPC   PO416394  10.504  20.255   2.237  0.0219 -0.1067  0.1734
    1DPPC   GL116395  10.529  20.362   2.698  0.2474  0.3007  0.2254
    1DPPC   GL216396  10.669  20.660   2.718  0.3034  0.0792 -0.2385
    1DPPC   C1A16397  10.388  20.346   3.148 -0.0653  0.1772 -0.0015
    1DPPC   C2A16398  10.198  20.214   3.595  0.0492 -0.1157 -0.1138
    1DPPC   C3A16399  10.021  20.182   3.912  0.0173 -0.0334 -0.3733
    1DPPC   C4A16400  10.347  20.045   4.233  0.0229  0.1814  0.0498
    1DPPC   C1B16401  10.693  20.681   3.154  0.2006  0.0165 -0.0770
    1DPPC   C2B16402  10.610  20.567   3.561 -0.0579 -0.1606  0.0013
    1DPPC   C3B16403  10.575  20.375   3.868 -0.0217  0.0261 -0.0070
    1DPPC   C4B16404  10.723  20.351   4.310 -0.0673  0.0367  0.1657
    1DPPC   NC316405  16.145  12.589   2.523  0.0037  0.2025  0.0825
    1DPPC   PO416406  16.191  12.908   2.131  0.0734  0.0837  0.2226
    1DPPC   GL116407  16.272  13.124   2.577 -0.2778 -0.1526 -0.0168
    1DPPC   GL216408  16.497  12.981   2.656  0.1765  0.0059  0.1422
    1DPPC   C1A16409  16.318  13.295   2.946  0.0934  0.2388  0.0971
    1DPPC   C2A16410  16.392  13.199   3.355 -0.0422 -0.2312 -0.1490
    1DPPC   C3A16411  16.319  13.173   3.785 -0.1341 -0.0333  0.1173
    1DPPC   C4A16412  16.314  13.121   4.302 -0.4010  0.0029  0.2906
    1DPPC   C1B16413  16.331  12.782   3.086  0.0107 -0.0673 -0.0132
    1DPPC   C2B16414  16.342  12.731   3.584  0.1539 -0.4341  0.0263
    1DPPC   C3B16415  16.210  12.723   3.942 -0.0478  0.0219  0.1728
    1DPPC   C4B16416  16.084  12.672   4.291  0.1153  0.3869 -0.0807
    1DPPC   NC316417  13.677  15.968   2.208  0.0866  0.0225  0.1817
    1DPPC   PO416418  13.937  15.646   2.272  0.1365 -0.0273 -0.2740
    1DPPC   GL116419  13.887  15.754   2.792  0.1480 -0.0245 -0.1214
    1DPPC   GL216420  13.589  15.949   2.829  0.1941 -0.2077  0.3293
    1DPPC   C1A16421  13.899  15.731   3.241 -0.3355  0.0925  0.0887
    1DPPC   C2A16422  13.915  15.845   3.725 -0.2190 -0.1891 -0.0079
    1DPPC   C3A16423  13.947  15.698   4.107 -0.0125 -0.1970 -0.0488
    1DPPC   C4A16424  13.739  15.660   4.446  0.2036  0.0289 -0.1059
    1DPPC   C1B16425  13.476  15.941   3.232  0.0973  0.0214 -0.0027
    1DPPC   C2B16426  13.506  15.891   3.566  0.1140 -0.1364 -0.3471
    1DPPC   C3B16427  13.449  15.735   3.968 -0.1107 -0.2332 -0.0740
    1DPPC   C4B16428  13.313  15.466   4.382 -0.2602  0.1959 -0.2921
    1DPPC   NC316429  11.599  18.669   2.244 -0.0998  0.2451  0.0391
    1DPPC   PO416430  11.936  18.413   2.528  0.0850 -0.2207  0.2385
    1DPPC   GL116431  11.927  18.110   2.913 -0.0605 -0.0997  0.2805
    1DPPC   GL216432  12.098  18.152   3.066  0.2185 -0.0196  0.1937
    1DPPC   C1A16433  11.684  17.963   3.322 -0.3349 -0.0175  0.2005
    1DPPC   C2A16434  11.781  17.872   3.744 -0.1093 -0.0585 -0.1621
    1DPPC   C3A16435  11.658  17.829   4.067 -0.1622  0.0781  0.0202
    1DPPC   C4A16436  11.829  17.638   4.357 -0.1944 -0.1227 -0.1667
    1DPPC   C1B16437  12.139  18.039   3.404 -0.3152 -0.0827 -0.0260
    1DPPC   C2B16438  12.311  17.957   3.749 -0.1270  0.3810 -0.0352
    1DPPC   C3B16439  12.293  17.896   4.239 -0.2236  0.1076 -0.2308
    1DPPC   C4B16440  12.202  17.807   4.634  0.1896  0.0575  0.0011
    1DPPC   NC316441  17.838  16.034   1.894  0.0759 -0.0158 -0.3637
    1DPPC   PO416442  17.975  16.149   2.182 -0.0717 -0.2384 -0.0599
    1DPPC   GL116443  17.934  16.027   2.589  0.0938 -0.1669 -0.0237
    1DPPC   GL216444  18.211  15.991   2.633 -0.1658 -0.0870 -0.0573
    1DPPC   C1A16445  17.827  16.114   2.976  0.3021  0.2589  0.0803
    1DPPC   C2A16446  17.786  16.192   3.393 -0.0407  0.3620 -0.0189
    1DPPC   C3A16447  17.692  16.190   3.838  0.2925 -0.2843  0.0398
    1DPPC   C4A16448  17.674  16.195   4.187  0.4421 -0.0417 -0.2154
    1DPPC   C1B16449  18.245  16.193   3.106  0.0320 -0.0470  0.0360
    1DPPC   C2B16450  18.271  16.221   3.470  0.1088 -0.0046 -0.1843
    1DPPC   C3B16451  18.174  16.077   3.849 -0.0587  0.1178  0.0577
    1DPPC   C4B16452  18.006  15.811   4.224 -0.1786  0.0427 -0.3595
    1DPPC   NC316453  13.406  10.592   2.770  0.0243  0.1342  0.0058
    1DPPC   PO416454  13.887  10.671   2.600  0.3650  0.0651 -0.0085
    1DPPC   GL116455  13.848  10.775   3.069 -0.2296 -0.1840 -0.1755
    1DPPC   GL216456  14.062  11.031   3.015  0.0618  0.2440  0.0381
    1DPPC   C1A16457  13.984  10.901   3.553  0.0317  0.0388  0.1999
    1DPPC   C2A16458  14.038  11.058   3.886  0.1944  0.1083  0.0024
    1DPPC   C3A16459  13.936  11.030   4.350  0.3800  0.1190  0.0235
    1DPPC   C4A16460  13.918  11.088   4.754  0.1868  0.1616 -0.2828
    1DPPC   C1B16461  14.241  11.286   3.313 -0.1735 -0.1717  0.0639
    1DPPC   C2B16462  14.252  11.570   3.616  0.3229  0.0795  0.2137
    1DPPC   C3B16463  14.188  11.573   4.072 -0.1885 -0.0889 -0.2736
    1DPPC   C4B16464  14.243  11.507   4.616 -0.0146  0.0551 -0.2468
    1DPPC   NC316465   8.632  14.747   2.279  0.1048  0.3246 -0.3650
    1DPPC   PO416466   8.164  14.563   2.301  0.0608 -0.1310 -0.2270
    1DPPC   GL116467   8.354  14.662   2.671  0.0670  0.0206  0.2281
    1DPPC   GL216468   8.612  14.411   2.743 -0.1378  0.2273 -0.0949
    1DPPC   C1A16469   8.231  14.958   2.979 -0.2561  0.1793 -0.0395
    1DPPC   C2A16470   8.152  14.812   3.382 -0.0549 -0.2184 -0.2317
    1DPPC   C3A16471   8.234  14.698   3.799 -0.0711 -0.2837 -0.3648
    1DPPC   C4A16472   8.246  14.701   4.142  0.1705 -0.1099 -0.2008
    1DPPC   C1B16473   8.495  14.530   3.121  0.0095  0.0983 -0.1314
    1DPPC   C2B16474   8.600  14.514   3.537 -0.1661 -0.1717  0.4071
    1DPPC   C3B16475   8.646  14.463   3.894 -0.0731  0.3677  0.0006
    1DPPC   C4B16476   8.707  14.575   4.257  0.2770 -0.1517 -0.3177
    1DPPC   NC316477   8.836  21.207   2.242  0.1011 -0.0258  0.2570
    1DPPC   PO416478   8.541  21.153   1.976  0.0265  0.0576 -0.0649
    1DPPC   GL116479   8.384  21.271   2.479 -0.0237  0.1327 -0.1532
    1DPPC   GL216480   8.613  21.256   2.721  0.2425 -0.0175  0.1849
    1DPPC   C1A16481   8.087  21.041   2.813  0.0661 -0.1254 -0.1429
    1DPPC   C2A16482   7.911  21.218   3.157 -0.0644 -0.2528 -0.0145
    1DPPC   C3A16483   7.827  21.236   3.612  0.1452  0.3666  0.0639
    1DPPC   C4A16484   7.965  21.187   4.045  0.1768 -0.0669  0.1692
    1DPPC   C1B16485   8.487  21.254   3.053  0.2493 -0.0967  0.0457
    1DPPC   C2B16486   8.239  21.474   3.368  0.1695 -0.2034  0.4600
    1DPPC   C3B16487   8.216  21.603   3.759  0.1615 -0.2177 -0.0545
    1DPPC   C4B16488   8.300  21.514   4.260 -0.2695  0.0792  0.1176
    1DPPC   NC316489  20.243  12.019   1.681 -0.0643 -0.2044 -0.3003
    1DPPC   PO416490  20.147  12.070   2.084 -0.1248 -0.1887 -0.0146
    1DPPC   GL116491  20.244  11.810   2.403  0.4044  0.0518  0.1200
    1DPPC   GL216492  20.278  11.506   2.345 -0.0252 -0.4204  0.1820
    1DPPC   C1A16493  20.432  11.746   2.751  0.3038 -0.3380 -0.0822
    1DPPC   C2A16494  20.507  11.736   3.121  0.0899 -0.3042  0.0283
    1DPPC   C3A16495  20.498  11.829   3.551 -0.1528  0.3413 -0.2703
    1DPPC   C4A16496  20.497  11.526   3.808  0.3179  0.0079 -0.0874
    1DPPC   C1B16497  20.100  11.255   2.743  0.2607  0.1417  0.1948
    1DPPC   C2B16498  20.188  11.056   3.009  0.2293  0.0911  0.0942
    1DPPC   C3B16499  20.148  10.846   3.458  0.4491  0.1819  0.1914
    1DPPC   C4B16500  20.297  10.638   3.830  0.0258  0.0632 -0.2767
    1DPPC   NC316501  17.075  17.781   2.334 -0.1437  0.0379  0.0047
    1DPPC   PO416502  16.609  17.882   2.226  0.3195  0.0185  0.0504
    1DPPC   GL116503  16.612  17.903   2.673 -0.0802 -0.0429 -0.0816
    1DPPC   GL216504  16.522  18.104   2.808  0.1588 -0.1319  0.1477
    1DPPC   C1A16505  16.476  17.559   3.047 -0.0470  0.1363  0.1399
    1DPPC   C2A16506  16.383  17.492   3.491 -0.0324 -0.0887  0.0394
    1DPPC   C3A16507  16.298  17.483   3.904 -0.0135  0.0696 -0.0971
    1DPPC   C4A16508  16.146  17.197   4.234 -0.2231  0.2188  0.0668
    1DPPC   C1B16509  16.682  17.930   3.247  0.1213  0.0627 -0.0524
    1DPPC   C2B16510  16.612  17.905   3.669 -0.1519  0.1260 -0.2702
    1DPPC   C3B16511  16.759  17.975   4.102 -0.1880 -0.1408 -0.1265
    1DPPC   C4B16512  17.041  17.850   4.404 -0.0276 -0.2356  0.2370
    1DPPC   NC316513  27.499  29.406   2.487  0.0859 -0.1777  0.0001
    1DPPC   PO416514  27.815  29.273   2.766  0.1677 -0.0269 -0.3291
    1DPPC   GL116515  28.043  29.463   3.146 -0.1351  0.1334  0.2947
    1DPPC   GL216516  28.166  29.742   3.202  0.1217 -0.0082  0.0376
    1DPPC   C1A16517  28.176  29.358   3.480 -0.1609  0.1612  0.0144
    1DPPC   C2A16518  28.205  29.520   3.886 -0.2267  0.2822 -0.0168
    1DPPC   C3A16519  28.403  29.357   4.244 -0.1278 -0.3539  0.0433
    1DPPC   C4A16520  28.652  29.552   4.530 -0.4391  0.0957 -0.2135
    1DPPC   C1B16521  28.242  29.907   3.633  0.1552 -0.3921  0.2676
    1DPPC   C2B16522  28.059  30.195   4.001  0.2152  0.0442  0.0822
    1DPPC   C3B16523  27.688  30.384   4.315  0.1004  0.0756 -0.0816
    1DPPC   C4B16524  27.462  30.600   4.627 -0.1065 -0.1440  0.1548
    1DPPC   NC316525  16.367  10.352   2.331 -0.0604 -0.2787  0.0262
    1DPPC   PO416526  15.974  10.415   2.099 -0.2984 -0.1736  0.1353
    1DPPC   GL116527  15.946  10.337   2.538  0.0955 -0.1439 -0.0002
    1DPPC   GL216528  15.602  10.329   2.828 -0.0587  0.0781  0.1676
    1DPPC   C1A16529  16.039  10.335   3.051  0.0387 -0.1394  0.0704
    1DPPC   C2A16530  16.273   9.956   3.240  0.1269  0.0367  0.0454
    1DPPC   C3A16531  16.255   9.556   3.330 -0.0653 -0.0281  0.2323
    1DPPC   C4A16532  16.474   9.241   3.491 -0.4789 -0.0219 -0.4704
    1DPPC   C1B16533  15.605  10.330   3.275  0.0201  0.0170  0.0113
    1DPPC   C2B16534  15.929  10.318   3.517  0.3447 -0.1764  0.0141
    1DPPC   C3B16535  16.127  10.453   3.959 -0.4016  0.0209  0.0369
    1DPPC   C4B16536  15.943  10.129   4.261 -0.0467  0.0987 -0.0226
    1DPPC   NC316537  12.629  19.782   2.271  0.0386  0.0484  0.3287
    1DPPC   PO416538  12.318  19.985   2.573  0.1577  0.2334 -0.0994
    1DPPC   GL116539  12.440  19.963   3.010 -0.4031  0.1041  0.1086
    1DPPC   GL216540  12.742  19.979   3.164 -0.1977 -0.1391 -0.0048
    1DPPC   C1A16541  12.273  20.128   3.418 -0.1385 -0.2120 -0.2524
    1DPPC   C2A16542  12.173  20.166   3.873 -0.2321 -0.0072  0.2451
    1DPPC   C3A16543  12.268  20.187   4.306 -0.0132 -0.0924  0.0835
    1DPPC   C4A16544  12.289  20.147   4.795  0.1407 -0.0573  0.1407
    1DPPC   C1B16545  12.778  20.114   3.473  0.0045 -0.1708  0.0977
    1DPPC   C2B16546  12.674  20.122   3.849  0.0437 -0.1338 -0.0079
    1DPPC   C3B16547  12.672  20.000   4.178  0.1175 -0.1647  0.1498
    1DPPC   C4B16548  12.993  19.809   4.397 -0.2266  0.1582  0.0453
    1DPPC   NC316549  14.208  18.322   2.069  0.1954 -0.0026  0.1419
    1DPPC   PO416550  14.171  17.902   2.105 -0.0353  0.0966  0.0375
    1DPPC   GL116551  14.065  17.817   2.513  0.2648  0.0608  0.1572
    1DPPC   GL216552  14.254  17.828   2.702  0.2122 -0.3191  0.0893
    1DPPC   C1A16553  13.879  17.520   2.874 -0.4481 -0.2493 -0.0415
    1DPPC   C2A16554  13.615  17.385   3.253  0.0202  0.1813  0.0048
    1DPPC   C3A16555  13.695  17.233   3.630 -0.1124 -0.0135  0.0316
    1DPPC   C4A16556  13.690  17.164   4.075  0.1474  0.0856 -0.0415
    1DPPC   C1B16557  14.387  17.587   2.978 -0.2109 -0.2010 -0.3052
    1DPPC   C2B16558  14.556  17.685   3.340 -0.2427  0.1402  0.2345
    1DPPC   C3B16559  14.509  17.674   3.718 -0.3696  0.0582 -0.0955
    1DPPC   C4B16560  14.232  17.950   3.971  0.2134  0.0894 -0.0739
    1DPPC   NC316561  14.629  15.798   1.722  0.0424 -0.1753 -0.2543
    1DPPC   PO416562  14.486  15.573   2.080 -0.0704  0.0764  0.0431
    1DPPC   GL116563  14.445  15.634   2.561  0.0425  0.3235  0.2825
    1DPPC   GL216564  14.689  15.439   2.639 -0.1630  0.2725 -0.1486
    1DPPC   C1A16565  14.326  15.873   2.970  0.2698  0.0234 -0.2672
    1DPPC   C2A16566  14.347  15.899   3.353  0.1841 -0.1724  0.1561
    1DPPC   C3A16567  14.454  15.887   3.762  0.0830  0.1607  0.1713
    1DPPC   C4A16568  14.603  15.813   4.107 -0.1793  0.1385 -0.1733
    1DPPC   C1B16569  14.647  15.402   3.072 -0.0451 -0.1257 -0.1423
    1DPPC   C2B16570  14.677  15.466   3.499  0.3551  0.0156 -0.1595
    1DPPC   C3B16571  14.832  15.396   3.874  0.1050 -0.3516  0.0512
    1DPPC   C4B16572  14.798  15.344   4.221 -0.1022 -0.3578 -0.1761
    1DPPC   NC316573  12.596  10.218   2.464  0.1666 -0.0136  0.0032
    1DPPC   PO416574  12.793  10.128   2.897 -0.0258  0.0710 -0.0351
    1DPPC   GL116575  12.950  10.017   3.252 -0.2949  0.0794  0.0402
    1DPPC   GL216576  12.772   9.761   3.333 -0.0367  0.1364 -0.1360
    1DPPC   C1A16577  13.205   9.926   3.652  0.1517 -0.1173 -0.0879
    1DPPC   C2A16578  13.424   9.868   3.979  0.0430  0.5128  0.1012
    1DPPC   C3A16579  13.320   9.913   4.363 -0.1371  0.2222 -0.0015
    1DPPC   C4A16580  13.432  10.060   4.699 -0.0674 -0.0176 -0.2119
    1DPPC   C1B16581  12.720   9.956   3.734 -0.0159  0.0280  0.0215
    1DPPC   C2B16582  12.843  10.000   4.197  0.3702 -0.2144 -0.1296
    1DPPC   C3B16583  12.928  10.275   4.536 -0.2709  0.1214  0.2791
    1DPPC   C4B16584  12.989  10.205   4.960 -0.1277  0.0106  0.0770
    1DPPC   NC316585  16.922  12.164   2.166 -0.0959  0.0489 -0.1003
    1DPPC   PO416586  16.890  12.502   2.478  0.2086  0.0255  0.2808
    1DPPC   GL116587  16.963  12.721   2.736 -0.1705  0.1918 -0.0254
    1DPPC   GL216588  17.283  12.864   2.811 -0.0708  0.2219  0.2142
    1DPPC   C1A16589  16.827  12.771   3.117  0.2956 -0.1401 -0.2212
    1DPPC   C2A16590  16.872  12.784   3.484  0.1825 -0.1985  0.0182
    1DPPC   C3A16591  16.701  12.960   3.937 -0.1237 -0.1711  0.0422
    1DPPC   C4A16592  16.639  12.681   4.151 -0.0016 -0.0584  0.0485
    1DPPC   C1B16593  17.308  12.843   3.217  0.4185 -0.1759 -0.3364
    1DPPC   C2B16594  17.353  12.796   3.639 -0.1060 -0.6314  0.2644
    1DPPC   C3B16595  17.224  13.045   3.996 -0.1265  0.0687  0.2602
    1DPPC   C4B16596  17.367  13.267   4.335 -0.1148  0.0989  0.1930
    1DPPC   NC316597  15.625  15.586   1.649  0.1127 -0.0762  0.0931
    1DPPC   PO416598  15.455  15.546   2.161 -0.2188  0.1812  0.0774
    1DPPC   GL116599  15.644  15.762   2.522 -0.1583 -0.0865  0.0159
    1DPPC   GL216600  15.973  15.953   2.566 -0.2441 -0.1619 -0.1841
    1DPPC   C1A16601  15.596  15.597   2.933 -0.4125 -0.1618 -0.3595
    1DPPC   C2A16602  15.748  15.510   3.354 -0.1197 -0.1070  0.0200
    1DPPC   C3A16603  15.887  15.588   3.771  0.2462  0.0302 -0.1501
    1DPPC   C4A16604  15.912  15.736   4.160 -0.0933 -0.2141 -0.2611
    1DPPC   C1B16605  15.887  15.963   3.041 -0.0712  0.0832  0.1306
    1DPPC   C2B16606  16.010  15.942   3.369  0.0801  0.3415 -0.0723
    1DPPC   C3B16607  16.242  15.940   3.739  0.1757 -0.0230 -0.2704
    1DPPC   C4B16608  16.375  15.913   4.239  0.1378 -0.1933 -0.3071
    1DPPC   NC316609  14.773  20.671   1.687 -0.2996  0.0270  0.1512
    1DPPC   PO416610  14.414  20.768   1.990  0.1000 -0.0376 -0.1379
    1DPPC   GL116611  14.217  20.851   2.396  0.2063 -0.2929 -0.1851
    1DPPC   GL216612  13.899  20.750   2.537 -0.1621 -0.0446  0.2073
    1DPPC   C1A16613  14.292  20.960   2.849 -0.0680  0.2970  0.0510
    1DPPC   C2A16614  14.438  21.195   3.163 -0.0477 -0.2339  0.0285
    1DPPC   C3A16615  14.614  21.378   3.517 -0.0451 -0.1917 -0.1553
    1DPPC   C4A16616  14.538  21.416   3.947 -0.0472 -0.1756 -0.1145
    1DPPC   C1B16617  13.889  20.754   3.009 -0.1979  0.1076 -0.1913
    1DPPC   C2B16618  14.055  20.696   3.467  0.1947  0.2107  0.0063
    1DPPC   C3B16619  14.175  21.082   3.662  0.0756 -0.1164 -0.0457
    1DPPC   C4B16620  14.074  21.322   4.070 -0.0517 -0.3407 -0.0300
    1DPPC   NC316621  13.169  18.721   2.296 -0.1417  0.0326 -0.1655
    1DPPC   PO416622  12.825  18.403   2.422  0.1189  0.0719 -0.0883
    1DPPC   GL116623  12.638  18.386   2.798  0.0317 -0.2918 -0.1453
    1DPPC   GL216624  12.646  18.672   2.932  0.0653  0.0400 -0.0792
    1DPPC   C1A16625  12.556  18.247   3.177  0.2189  0.0164  0.0654
    1DPPC   C2A16626  12.704  18.174   3.528 -0.0239 -0.1995  0.1271
    1DPPC   C3A16627  12.695  18.070   3.985  0.0621 -0.1633  0.0654
    1DPPC   C4A16628  12.875  18.224   4.326 -0.0868  0.0633 -0.0230
    1DPPC   C1B16629  12.640  18.663   3.367  0.0909  0.2127 -0.2075
    1DPPC   C2B16630  12.643  18.563   3.827  0.0277 -0.1817 -0.0660
    1DPPC   C3B16631  12.403  18.427   4.241 -0.1726  0.2858 -0.0128
    1DPPC   C4B16632  12.525  18.312   4.634  0.0075 -0.0303  0.2829
    1DPPC   NC316633  10.834  15.785   2.304 -0.2170  0.0409 -0.0151
    1DPPC   PO416634  10.339  15.710   2.243  0.2227 -0.0520 -0.0236
    1DPPC   GL116635  10.421  15.474   2.659  0.2973  0.1058 -0.1668
    1DPPC   GL216636  10.659  15.232   2.652 -0.0314 -0.5818 -0.3492
    1DPPC   C1A16637  10.432  15.669   2.990  0.0284 -0.1420 -0.2415
    1DPPC   C2A16638  10.457  15.760   3.432  0.0261 -0.0056  0.3494
    1DPPC   C3A16639  10.525  15.909   3.855 -0.3065  0.0883 -0.3996
    1DPPC   C4A16640  10.502  15.926   4.253  0.3967  0.1672 -0.0137
    1DPPC   C1B16641  10.498  15.163   3.108  0.1404  0.0437 -0.0472
    1DPPC   C2B16642  10.454  15.269   3.517  0.2360 -0.0868 -0.0478
    1DPPC   C3B16643  10.274  15.434   3.895 -0.0951 -0.1129 -0.2497
    1DPPC   C4B16644  10.077  15.524   4.236 -0.0950 -0.2248 -0.2838
    1DPPC   NC316645  21.398  16.199   2.112 -0.0868 -0.2380 -0.0083
    1DPPC   PO416646  21.366  15.805   2.180 -0.1462  0.2331 -0.0571
    1DPPC   GL116647  21.336  15.892   2.550 -0.0658  0.1027  0.0911
    1DPPC   GL216648  20.979  15.728   2.735  0.0294 -0.0387  0.0428
    1DPPC   C1A16649  21.458  15.656   2.933  0.0165 -0.0739 -0.2054
    1DPPC   C2A16650  21.420  15.578   3.398  0.1724  0.1193  0.2640
    1DPPC   C3A16651  21.421  15.566   3.842  0.0356 -0.0813  0.0567
    1DPPC   C4A16652  21.495  15.311   4.183 -0.0243  0.2195  0.1490
    1DPPC   C1B16653  21.015  15.537   3.077  0.2119  0.1407 -0.2591
    1DPPC   C2B16654  20.990  15.229   3.413  0.0401 -0.2407 -0.1921
    1DPPC   C3B16655  20.993  15.307   3.827 -0.2839  0.1555 -0.1706
    1DPPC   C4B16656  21.101  15.596   4.208  0.0861  0.0856 -0.0180
    1DPPC   NC316657  17.902  17.747   2.744 -0.1729 -0.0027  0.0013
    1DPPC   PO416658  18.283  17.639   2.593 -0.1373 -0.1108  0.2730
    1DPPC   GL116659  18.501  17.486   2.939 -0.0583  0.0951 -0.1681
    1DPPC   GL216660  18.506  17.174   3.025 -0.0690  0.0900  0.4306
    1DPPC   C1A16661  18.603  17.612   3.309 -0.2084 -0.1806  0.1637
    1DPPC   C2A16662  18.504  17.556   3.672  0.2613 -0.0582  0.3656
    1DPPC   C3A16663  18.438  17.540   4.120  0.0835  0.0302  0.0716
    1DPPC   C4A16664  18.233  17.506   4.516  0.1557  0.1426  0.2906
    1DPPC   C1B16665  18.599  17.056   3.375  0.2996 -0.2329  0.1651
    1DPPC   C2B16666  18.622  17.096   3.822  0.2748  0.0438 -0.2912
    1DPPC   C3B16667  18.638  17.086   4.287 -0.0945  0.0311  0.0761
    1DPPC   C4B16668  18.606  17.083   4.691 -0.0684 -0.4500 -0.0347
    1DPPC   NC316669  20.918  16.511   1.925 -0.0349  0.2757  0.0355
    1DPPC   PO416670  21.037  16.567   2.365  0.0981 -0.0332  0.0877
    1DPPC   GL116671  21.032  16.657   2.693  0.1088 -0.1714 -0.1672
    1DPPC   GL216672  21.303  16.681   2.779 -0.0677 -0.1826 -0.0602
    1DPPC   C1A16673  20.946  16.850   3.088  0.0904 -0.0634  0.0856
    1DPPC   C2A16674  20.910  16.685   3.519  0.0424  0.3047 -0.0891
    1DPPC   C3A16675  20.905  16.743   3.981 -0.0290 -0.1310  0.0519
    1DPPC   C4A16676  20.687  16.734   4.458  0.1317  0.2251  0.1177
    1DPPC   C1B16677  21.299  16.544   3.249  0.1557 -0.2290  0.2584
    1DPPC   C2B16678  21.266  16.392   3.741 -0.0637  0.0058  0.0522
    1DPPC   C3B16679  21.160  16.069   4.124  0.0372  0.0986  0.2208
    1DPPC   C4B16680  21.498  16.029   4.517 -0.1296 -0.1150  0.2959
    1DPPC   NC316681  14.890  17.385   1.578  0.3013  0.1823  0.0215
    1DPPC   PO416682  14.940  17.398   2.017 -0.0098 -0.4412  0.1787
    1DPPC   GL116683  15.106  17.406   2.563 -0.3461  0.0385 -0.0594
    1DPPC   GL216684  14.805  17.505   2.753  0.2333 -0.1750  0.1359
    1DPPC   C1A16685  15.375  17.396   2.988 -0.2715 -0.0740  0.2829
    1DPPC   C2A16686  15.284  17.423   3.452  0.2002  0.2398 -0.0126
    1DPPC   C3A16687  15.299  17.383   3.878 -0.0371  0.1567 -0.1418
    1DPPC   C4A16688  15.353  17.139   4.152 -0.2918  0.0855  0.1876
    1DPPC   C1B16689  14.820  17.340   3.089 -0.2791  0.1592 -0.1067
    1DPPC   C2B16690  14.835  17.224   3.422 -0.1136  0.0846 -0.1738
    1DPPC   C3B16691  14.753  17.235   3.862  0.1254 -0.3655 -0.0602
    1DPPC   C4B16692  14.571  17.381   4.144  0.1563 -0.3146  0.1064
    1DPPC   NC316693  21.677  10.995   2.120 -0.0404  0.1893  0.1066
    1DPPC   PO416694  21.659  11.361   2.007 -0.1981 -0.0595  0.1612
    1DPPC   GL116695  21.638  11.471   2.432 -0.0989 -0.1525 -0.3704
    1DPPC   GL216696  21.600  11.841   2.533 -0.2692 -0.2189  0.0590
    1DPPC   C1A16697  21.361  11.418   2.805  0.0979 -0.0525  0.3261
    1DPPC   C2A16698  21.212  11.244   3.139  0.2995  0.1615 -0.0183
    1DPPC   C3A16699  21.114  11.122   3.562  0.2968 -0.0287  0.0183
    1DPPC   C4A16700  20.927  11.314   3.894  0.0855  0.0777 -0.0536
    1DPPC   C1B16701  21.616  11.829   2.934 -0.2476  0.0009 -0.1339
    1DPPC   C2B16702  21.512  11.721   3.314  0.0594  0.1092  0.1646
    1DPPC   C3B16703  21.468  11.755   3.677  0.0857 -0.0797 -0.0658
    1DPPC   C4B16704  21.399  12.065   4.009  0.2168  0.0259  0.1086
    1DPPC   NC316705  14.499   7.969   2.253 -0.1340  0.1009 -0.5141
    1DPPC   PO416706  14.525   7.958   2.758  0.1432  0.1353 -0.1866
    1DPPC   GL116707  14.628   8.060   3.224  0.2750 -0.2696  0.0767
    1DPPC   GL216708  14.388   7.992   3.412  0.2666  0.0124 -0.2241
    1DPPC   C1A16709  14.772   8.367   3.458 -0.0073 -0.0166  0.0680
    1DPPC   C2A16710  14.701   8.408   3.861  0.2556 -0.1817 -0.0879
    1DPPC   C3A16711  14.719   8.493   4.248  0.3305 -0.1933 -0.0464
    1DPPC   C4A16712  14.721   8.557   4.713  0.2667 -0.3954 -0.2302
    1DPPC   C1B16713  14.258   7.899   3.789  0.1025  0.0202  0.0843
    1DPPC   C2B16714  14.370   7.876   4.183 -0.2352 -0.1902  0.2085
    1DPPC   C3B16715  14.199   7.840   4.559  0.3043 -0.3334  0.1678
    1DPPC   C4B16716  14.170   7.939   4.948  0.4133 -0.1406 -0.3771
    1DPPC   NC316717  11.240  20.711   2.244  0.0560  0.0742  0.5004
    1DPPC   PO416718  11.110  20.463   2.539 -0.2084 -0.1514  0.1418
    1DPPC   GL116719  11.006  20.108   2.647 -0.0699  0.2030 -0.0901
    1DPPC   GL216720  11.374  19.996   2.748 -0.0032  0.0888 -0.0358
    1DPPC   C1A16721  10.839  20.157   3.082  0.1192  0.1515  0.0745
    1DPPC   C2A16722  10.744  20.007   3.575  0.0095 -0.0807  0.1578
    1DPPC   C3A16723  10.816  19.954   4.014 -0.0083  0.0932 -0.3632
    1DPPC   C4A16724  10.883  19.797   4.524  0.0452 -0.0699 -0.2611
    1DPPC   C1B16725  11.322  19.926   3.193  0.0509 -0.0074  0.2934
    1DPPC   C2B16726  11.277  19.913   3.550 -0.0954  0.0035  0.0984
    1DPPC   C3B16727  11.339  19.823   4.040  0.4050 -0.1817  0.0551
    1DPPC   C4B16728  11.368  19.851   4.412 -0.1648  0.2516  0.0748
    1DPPC   NC316729  24.086  17.813   2.193 -0.1801 -0.2022  0.1337
    1DPPC   PO416730  24.453  17.725   2.478 -0.0475 -0.3691 -0.0730
    1DPPC   GL116731  24.454  17.761   2.883 -0.1163  0.1328  0.0062
    1DPPC   GL216732  24.266  17.562   3.109 -0.1917  0.4507 -0.1038
    1DPPC   C1A16733  24.672  17.872   3.145 -0.3134 -0.2548  0.0671
    1DPPC   C2A16734  24.584  17.731   3.507 -0.3220 -0.3106 -0.3683
    1DPPC   C3A16735  24.368  17.502   3.738  0.0600  0.1712  0.1555
    1DPPC   C4A16736  24.372  17.150   4.020  0.0790  0.0908 -0.0100
    1DPPC   C1B16737  24.463  17.239   3.319 -0.1177 -0.1948 -0.4853
    1DPPC   C2B16738  24.486  16.916   3.512  0.1800 -0.2163  0.0070
    1DPPC   C3B16739  24.707  16.862   3.839  0.0082  0.2644  0.0009
    1DPPC   C4B16740  25.107  16.888   3.993  0.0292  0.1549  0.0467
    1DPPC   NC316741  16.956  19.176   2.266  0.0569  0.1408  0.1808
    1DPPC   PO416742  17.305  19.040   2.506  0.0956 -0.0939  0.3247
    1DPPC   GL116743  17.206  19.014   2.957  0.1886 -0.1439  0.0736
    1DPPC   GL216744  17.304  18.721   3.022 -0.1386  0.4118  0.2435
    1DPPC   C1A16745  17.126  19.106   3.295  0.0206 -0.0804  0.0033
    1DPPC   C2A16746  17.104  19.123   3.780 -0.1920  0.1760 -0.1061
    1DPPC   C3A16747  17.196  19.205   4.196  0.0116 -0.1943 -0.1650
    1DPPC   C4A16748  16.918  19.302   4.463  0.1721  0.3182 -0.2619
    1DPPC   C1B16749  17.200  18.666   3.485 -0.2670 -0.0385  0.0591
    1DPPC   C2B16750  17.222  18.652   3.925 -0.0440  0.0907  0.0571
    1DPPC   C3B16751  17.278  18.810   4.392  0.0006 -0.0971 -0.0184
    1DPPC   C4B16752  17.412  19.195   4.596  0.2695  0.0773 -0.0765
    1DPPC   NC316753  15.050  10.320   2.082  0.2845 -0.2270 -0.1212
    1DPPC   PO416754  15.173  10.733   2.004  0.2362 -0.4182  0.1899
    1DPPC   GL116755  15.095  11.052   2.445  0.0040  0.1730  0.1377
    1DPPC   GL216756  15.288  10.842   2.632  0.0036 -0.0429  0.0362
    1DPPC   C1A16757  14.880  11.299   2.740 -0.2106  0.2567  0.0192
    1DPPC   C2A16758  15.134  11.612   3.037  0.1322 -0.0105 -0.0725
    1DPPC   C3A16759  15.203  11.692   3.515 -0.2811 -0.3772 -0.3112
    1DPPC   C4A16760  15.182  11.691   3.900  0.0210  0.1174 -0.1285
    1DPPC   C1B16761  15.261  11.062   2.982 -0.0934 -0.0298 -0.1475
    1DPPC   C2B16762  15.102  11.240   3.333  0.0499  0.0047  0.0091
    1DPPC   C3B16763  14.973  11.225   3.840  0.3349  0.1440 -0.0994
    1DPPC   C4B16764  15.005  11.117   4.183 -0.0967 -0.2041  0.1276
    1DPPC   NC316765  19.511  14.986   2.036  0.0631 -0.1885 -0.0760
    1DPPC   PO416766  19.935  15.079   2.274 -0.1478  0.0622  0.3097
    1DPPC   GL116767  20.018  15.306   2.707  0.5058  0.3091  0.0141
    1DPPC   GL216768  20.252  15.397   2.743  0.1746  0.2985 -0.2000
    1DPPC   C1A16769  20.042  15.564   3.203 -0.1952 -0.0028 -0.0553
    1DPPC   C2A16770  20.028  15.525   3.683  0.3932 -0.1667  0.4230
    1DPPC   C3A16771  20.042  15.656   4.111  0.0318  0.2151 -0.1842
    1DPPC   C4A16772  20.298  15.707   4.481 -0.1490  0.4012  0.0680
    1DPPC   C1B16773  20.615  15.372   2.902 -0.1589  0.0284  0.1308
    1DPPC   C2B16774  20.599  15.517   3.376  0.4776 -0.0439 -0.0204
    1DPPC   C3B16775  20.500  15.390   3.775 -0.0241  0.0055  0.0852
    1DPPC   C4B16776  20.595  15.355   4.151 -0.0478  0.4514  0.2335
    1DPPC   NC316777  18.892  12.449   1.760 -0.1089  0.1025 -0.4637
    1DPPC   PO416778  19.268  12.484   2.072 -0.0255  0.1896 -0.1860
    1DPPC   GL116779  19.360  12.578   2.433 -0.1641 -0.0626  0.0836
    1DPPC   GL216780  19.675  12.546   2.545  0.0715  0.2570 -0.1620
    1DPPC   C1A16781  19.208  12.626   2.810 -0.1602 -0.3751 -0.0071
    1DPPC   C2A16782  19.242  12.615   3.192  0.0719  0.1200 -0.0106
    1DPPC   C3A16783  19.315  12.547   3.550  0.0464 -0.3135 -0.2685
    1DPPC   C4A16784  19.402  12.426   3.952  0.1451 -0.0267 -0.1168
    1DPPC   C1B16785  19.777  12.596   2.893  0.1035  0.3932 -0.2770
    1DPPC   C2B16786  19.718  12.734   3.247 -0.3146 -0.0735 -0.2926
    1DPPC   C3B16787  19.810  12.678   3.708 -0.2281  0.2182 -0.3824
    1DPPC   C4B16788  19.698  12.807   4.106  0.0172  0.0016  0.2127
    1DPPC   NC316789   8.556  10.768   3.091 -0.0134 -0.0766 -0.0345
    1DPPC   PO416790   8.889  10.534   3.094 -0.2987  0.0175  0.1465
    1DPPC   GL116791   9.059  10.741   3.549  0.0373  0.4512  0.2118
    1DPPC   GL216792   8.912  11.072   3.450  0.1712  0.0711  0.1481
    1DPPC   C1A16793   9.220  10.566   4.003  0.0516 -0.0159 -0.1666
    1DPPC   C2A16794   9.217  10.678   4.413  0.1929  0.0854 -0.0121
    1DPPC   C3A16795   9.043  10.739   4.749 -0.3097  0.4046  0.0592
    1DPPC   C4A16796   9.058  10.789   5.162 -0.1679 -0.0025  0.0476
    1DPPC   C1B16797   8.921  11.048   3.961 -0.4103 -0.1247 -0.2929
    1DPPC   C2B16798   8.879  11.043   4.260  0.0322 -0.0913 -0.0844
    1DPPC   C3B16799   8.819  11.152   4.594 -0.1565  0.2108 -0.2228
    1DPPC   C4B16800   9.072  11.347   4.903 -0.3567 -0.0318  0.0084
    1DPPC   NC316801  18.492   8.660   2.099 -0.2054  0.0443  0.2122
    1DPPC   PO416802  18.627   9.062   2.162 -0.1632 -0.6066 -0.1743
    1DPPC   GL116803  18.602   9.067   2.597 -0.3748  0.1619  0.3172
    1DPPC   GL216804  18.301   9.155   2.841  0.2117  0.0113  0.2568
    1DPPC   C1A16805  18.798   9.027   3.023 -0.3813  0.1300 -0.1615
    1DPPC   C2A16806  19.020   8.956   3.367 -0.0189 -0.2402 -0.0158
    1DPPC   C3A16807  19.053   8.627   3.635 -0.0893 -0.0837 -0.1810
    1DPPC   C4A16808  19.071   8.223   3.899  0.0323 -0.0111 -0.4406
    1DPPC   C1B16809  18.329   9.181   3.251 -0.3391 -0.1964 -0.1752
    1DPPC   C2B16810  18.666   9.298   3.540 -0.0392  0.1161 -0.1228
    1DPPC   C3B16811  18.819   8.996   3.854 -0.0520 -0.1064  0.0882
    1DPPC   C4B16812  18.790   8.580   4.086  0.0488 -0.0823 -0.0324
    1DPPC   NC316813  20.237  14.352   2.359  0.0096  0.3976  0.0764
    1DPPC   PO416814  19.831  14.571   2.241  0.0935  0.0849 -0.1014
    1DPPC   GL116815  19.743  14.732   2.588 -0.1046 -0.0496  0.0287
    1DPPC   GL216816  19.576  14.452   2.729 -0.0955  0.3421 -0.0045
    1DPPC   C1A16817  19.826  14.903   2.932 -0.1054  0.2689  0.0216
    1DPPC   C2A16818  19.915  15.115   3.351 -0.1351  0.0205 -0.1379
    1DPPC   C3A16819  19.958  15.047   3.774  0.0011  0.0945 -0.0745
    1DPPC   C4A16820  20.300  14.991   3.981 -0.1668  0.5340  0.1705
    1DPPC   C1B16821  19.512  14.483   3.155 -0.0443 -0.1105 -0.4000
    1DPPC   C2B16822  19.643  14.687   3.533  0.1983 -0.1867  0.0700
    1DPPC   C3B16823  19.685  14.678   3.986  0.1276 -0.0325 -0.0694
    1DPPC   C4B16824  19.904  14.979   4.251  0.1290 -0.0746  0.0935
    1DPPC   NC316825  14.219  16.909   2.285  0.1664 -0.2370 -0.2294
    1DPPC   PO416826  14.566  17.137   2.338 -0.3556  0.0596  0.2036
    1DPPC   GL116827  14.758  17.042   2.658  0.3424 -0.3235  0.0943
    1DPPC   GL216828  15.100  16.994   2.787  0.0224 -0.0907 -0.0739
    1DPPC   C1A16829  14.718  16.814   3.092  0.1755 -0.0257 -0.0526
    1DPPC   C2A16830  14.857  16.765   3.575  0.0494  0.1508  0.3134
    1DPPC   C3A16831  14.964  16.757   3.989  0.1321  0.0016  0.3251
    1DPPC   C4A16832  15.104  16.757   4.376 -0.0420 -0.1123 -0.0414
    1DPPC   C1B16833  15.170  16.986   3.172 -0.0961  0.2384 -0.0899
    1DPPC   C2B16834  15.322  16.890   3.654 -0.0420 -0.1358  0.0505
    1DPPC   C3B16835  15.542  16.717   4.009 -0.0076  0.3236  0.3008
    1DPPC   C4B16836  15.549  16.501   4.346  0.0943 -0.2731  0.2322
    1DPPC   NC316837   8.657  25.602   2.373  0.0974  0.2315 -0.1745
    1DPPC   PO416838   8.607  25.984   2.364  0.0044 -0.2162 -0.2180
    1DPPC   GL116839   8.392  25.939   2.677  0.0431 -0.0032  0.1089
    1DPPC   GL216840   8.313  26.247   2.787 -0.0461 -0.1902  0.0927
    1DPPC   C1A16841   8.182  25.893   3.081 -0.3790  0.0746 -0.0592
    1DPPC   C2A16842   8.191  25.627   3.440 -0.1317  0.2418 -0.0862
    1DPPC   C3A16843   8.134  25.455   3.892 -0.3090  0.2184  0.0268
    1DPPC   C4A16844   7.952  25.143   4.295 -0.2760 -0.2073  0.1686
    1DPPC   C1B16845   8.685  26.263   3.082 -0.2187  0.0862 -0.3515
    1DPPC   C2B16846   8.692  26.015   3.522 -0.1240 -0.3016  0.2266
    1DPPC   C3B16847   8.590  25.692   3.937 -0.1102  0.4565  0.1408
    1DPPC   C4B16848   8.451  25.242   4.256 -0.1243  0.0479 -0.1546
    1DPPC   NC316849  15.056  14.112   2.399  0.0430  0.0259  0.2431
    1DPPC   PO416850  15.437  14.167   2.334 -0.3667  0.0161 -0.0261
    1DPPC   GL116851  15.270  14.604   2.597 -0.0794  0.3979 -0.1850
    1DPPC   GL216852  14.941  14.525   2.700 -0.0077  0.1626  0.0537
    1DPPC   C1A16853  15.265  14.777   2.980 -0.2123  0.3254  0.2040
    1DPPC   C2A16854  15.333  14.699   3.370  0.1663 -0.0055 -0.0383
    1DPPC   C3A16855  15.440  14.711   3.757  0.1443 -0.1914 -0.0776
    1DPPC   C4A16856  15.535  14.682   4.151  0.2903 -0.3578  0.1469
    1DPPC   C1B16857  14.812  14.538   3.088  0.0982  0.2038  0.0176
    1DPPC   C2B16858  14.810  14.493   3.479  0.2040 -0.0404 -0.1105
    1DPPC   C3B16859  14.969  14.450   3.963  0.1972  0.2353  0.1368
    1DPPC   C4B16860  14.856  14.466   4.416 -0.3146  0.0100  0.0048
    1DPPC   NC316861   4.594  14.363   2.252 -0.2530  0.0148 -0.0401
    1DPPC   PO416862   4.879  14.482   2.562 -0.2780  0.0002  0.0014
    1DPPC   GL116863   4.979  14.460   2.949 -0.1587 -0.0870 -0.0346
    1DPPC   GL216864   5.131  14.701   3.052  0.1180  0.1888 -0.0226
    1DPPC   C1A16865   4.942  14.330   3.429 -0.0072  0.0186 -0.0495
    1DPPC   C2A16866   5.066  14.424   3.855 -0.1995 -0.0862  0.0322
    1DPPC   C3A16867   5.093  14.567   4.290  0.0078  0.1446 -0.2394
    1DPPC   C4A16868   4.899  14.681   4.671 -0.1098 -0.0673 -0.0027
    1DPPC   C1B16869   5.098  14.849   3.521 -0.1472  0.1511  0.3156
    1DPPC   C2B16870   5.251  14.913   3.925 -0.0492  0.1419  0.1930
    1DPPC   C3B16871   5.567  14.772   4.190  0.1262  0.1254  0.2412
    1DPPC   C4B16872   5.413  14.762   4.573  0.4438 -0.1711  0.0146
    1DPPC   NC316873  20.374  19.913   2.809 -0.3420  0.0223  0.1141
    1DPPC   PO416874  20.097  20.222   2.961  0.1750 -0.3166  0.1402
    1DPPC   GL116875  20.302  19.927   3.303  0.0678  0.1890 -0.0220
    1DPPC   GL216876  20.091  20.038   3.436  0.1514 -0.0081 -0.0547
    1DPPC   C1A16877  20.526  20.106   3.711 -0.2500  0.3898 -0.0100
    1DPPC   C2A16878  20.468  20.034   4.149  0.0961 -0.0628 -0.1434
    1DPPC   C3A16879  20.553  20.151   4.549  0.0040  0.0783 -0.0472
    1DPPC   C4A16880  20.619  19.887   4.900 -0.2499  0.3990 -0.0020
    1DPPC   C1B16881  20.085  19.993   3.852 -0.1966  0.1384  0.2937
    1DPPC   C2B16882  19.938  20.051   4.256 -0.1264  0.1548  0.2183
    1DPPC   C3B16883  20.006  20.101   4.699  0.2308  0.0052  0.0148
    1DPPC   C4B16884  20.224  20.202   5.085  0.1006 -0.1168  0.0792
    1DPPC   NC316885  10.335  16.917   1.870  0.1659 -0.1895 -0.1229
    1DPPC   PO416886  10.276  16.484   2.035  0.1203  0.4229 -0.0933
    1DPPC   GL116887  10.541  16.323   2.448  0.0760  0.0129 -0.0051
    1DPPC   GL216888  10.528  16.085   2.672  0.0175 -0.1416 -0.3674
    1DPPC   C1A16889  10.575  16.527   2.915 -0.0411  0.4020  0.3759
    1DPPC   C2A16890  10.750  16.502   3.354  0.0475 -0.0556  0.1077
    1DPPC   C3A16891  10.628  16.437   3.790 -0.3104 -0.1049 -0.1126
    1DPPC   C4A16892  10.763  16.309   4.197 -0.0551 -0.0400 -0.0031
    1DPPC   C1B16893  10.397  16.156   3.104  0.2827 -0.4868 -0.0443
    1DPPC   C2B16894  10.277  16.248   3.534  0.1856  0.3040 -0.1643
    1DPPC   C3B16895  10.202  16.290   3.961 -0.0626  0.3228  0.1177
    1DPPC   C4B16896   9.928  16.070   4.328 -0.0637 -0.0909 -0.4037
    1DPPC   NC316897   9.901  11.903   2.779 -0.1108 -0.2151  0.1271
    1DPPC   PO416898  10.020  12.226   2.576  0.0105  0.1777  0.1532
    1DPPC   GL116899   9.839  12.424   2.992  0.1202 -0.2894 -0.1707
    1DPPC   GL216900   9.636  12.228   3.002  0.2577 -0.1707 -0.0912
    1DPPC   C1A16901   9.903  12.680   3.348  0.0161  0.3250 -0.1712
    1DPPC   C2A16902  10.192  12.774   3.611  0.0837  0.1058  0.0553
    1DPPC   C3A16903  10.126  12.814   4.015  0.0198 -0.0619 -0.2371
    1DPPC   C4A16904  10.294  12.812   4.437 -0.1479 -0.4071 -0.0682
    1DPPC   C1B16905   9.389  12.005   3.385  0.0046 -0.0912  0.1552
    1DPPC   C2B16906   9.256  11.996   3.820  0.0100 -0.1799 -0.3942
    1DPPC   C3B16907   9.165  12.123   4.224  0.1131  0.4480 -0.1012
    1DPPC   C4B16908   8.895  12.482   4.347  0.1795 -0.2275 -0.0848
    1DPPC   NC316909  18.102  10.942   2.161 -0.2064  0.0417  0.4508
    1DPPC   PO416910  17.729  10.731   2.013 -0.2280  0.1280  0.1035
    1DPPC   GL116911  17.714  11.142   2.387  0.1148 -0.1814 -0.1997
    1DPPC   GL216912  17.996  11.247   2.571 -0.1916  0.2312 -0.0619
    1DPPC   C1A16913  17.546  11.337   2.696  0.2766 -0.0583 -0.1169
    1DPPC   C2A16914  17.707  11.668   2.896  0.0628 -0.0890  0.0790
    1DPPC   C3A16915  17.732  12.014   3.294 -0.0397 -0.1184 -0.0703
    1DPPC   C4A16916  17.557  12.041   3.645 -0.1657 -0.1562  0.0441
    1DPPC   C1B16917  18.063  11.250   2.993  0.1025  0.1007  0.2399
    1DPPC   C2B16918  18.047  11.309   3.432 -0.2988  0.0009 -0.0789
    1DPPC   C3B16919  17.812  11.014   3.720  0.3034  0.1228  0.0251
    1DPPC   C4B16920  17.544  10.928   4.033  0.1253  0.1015  0.2389
    1DPPC   NC316921  25.366  12.817   1.638  0.2324 -0.0050 -0.2161
    1DPPC   PO416922  25.102  12.823   1.961 -0.2264 -0.1565 -0.0112
    1DPPC   GL116923  24.790  12.883   2.327  0.1813  0.4239 -0.0867
    1DPPC   GL216924  24.448  12.941   2.518 -0.0695 -0.1408  0.2573
    1DPPC   C1A16925  24.815  12.482   2.677  0.0175  0.1469  0.2077
    1DPPC   C2A16926  24.442  12.523   2.959 -0.0905 -0.1283 -0.1415
    1DPPC   C3A16927  24.437  12.429   3.432 -0.2465  0.0491  0.0331
    1DPPC   C4A16928  24.724  12.318   3.660 -0.1411  0.0607 -0.0048
    1DPPC   C1B16929  24.609  12.959   2.910  0.2992 -0.4174  0.1766
    1DPPC   C2B16930  24.676  12.826   3.368 -0.3158 -0.4357 -0.1838
    1DPPC   C3B16931  24.605  12.827   3.730 -0.0321 -0.1492  0.1772
    1DPPC   C4B16932  24.346  12.435   3.938  0.1347  0.0582 -0.1351
    1DPPC   NC316933   9.651   9.361   3.103 -0.0608  0.0230  0.0121
    1DPPC   PO416934   9.379   9.006   3.236 -0.0109 -0.3647  0.1659
    1DPPC   GL116935   9.296   9.177   3.636  0.0643 -0.0013 -0.4635
    1DPPC   GL216936   9.052   9.142   3.698 -0.0816 -0.2444 -0.2410
    1DPPC   C1A16937   9.330   9.121   4.144  0.1285 -0.1710  0.4986
    1DPPC   C2A16938   9.360   9.179   4.583 -0.2068  0.4018 -0.0963
    1DPPC   C3A16939   9.286   9.418   4.973 -0.2023  0.0169  0.3840
    1DPPC   C4A16940   9.440   9.516   5.403  0.2071  0.0672  0.1142
    1DPPC   C1B16941   8.812   9.069   4.125  0.0806 -0.0000  0.2750
    1DPPC   C2B16942   8.839   9.069   4.578  0.1393  0.1544  0.1316
    1DPPC   C3B16943   9.026   9.044   4.938  0.0925  0.0374  0.0076
    1DPPC   C4B16944   9.203   9.002   5.398  0.2454 -0.0353  0.1562
    1DPPC   NC316945  10.388  10.717   2.851 -0.0198 -0.2225  0.1033
    1DPPC   PO416946  10.464  10.291   2.951  0.2812  0.3275  0.1881
    1DPPC   GL116947  10.624  10.528   3.350  0.0228 -0.1916  0.0662
    1DPPC   GL216948  10.625  10.847   3.381 -0.0465 -0.0113  0.0715
    1DPPC   C1A16949  10.626  10.443   3.720 -0.1510  0.0219  0.0474
    1DPPC   C2A16950  10.646  10.465   4.130  0.0110 -0.1144  0.3274
    1DPPC   C3A16951  10.836  10.447   4.500  0.2710  0.2744  0.1711
    1DPPC   C4A16952  10.919  10.490   4.949 -0.0765 -0.0750  0.0920
    1DPPC   C1B16953  10.667  10.918   3.886 -0.4521  0.0513  0.1753
    1DPPC   C2B16954  10.776  11.035   4.284  0.1619 -0.1974  0.0850
    1DPPC   C3B16955  11.071  10.999   4.698 -0.0033  0.2422  0.1535
    1DPPC   C4B16956  11.096  11.226   5.107  0.0043  0.0706 -0.4516
    1DPPC   NC316957  11.390   9.478   2.207 -0.0579 -0.0250 -0.0116
    1DPPC   PO416958  11.268   9.033   2.407  0.0133  0.1637  0.0586
    1DPPC   GL116959  11.323   9.090   2.817  0.0102  0.0018  0.2112
    1DPPC   GL216960  11.221   8.821   3.040 -0.0399  0.0276 -0.0900
    1DPPC   C1A16961  11.530   9.207   3.255 -0.0568 -0.0155  0.2159
    1DPPC   C2A16962  11.329   9.511   3.579 -0.0317  0.0116 -0.0504
    1DPPC   C3A16963  11.441   9.586   3.939  0.1347 -0.2307  0.2181
    1DPPC   C4A16964  11.513   9.654   4.364 -0.1087  0.0980  0.0965
    1DPPC   C1B16965  11.477   8.763   3.494  0.1846  0.1569 -0.2776
    1DPPC   C2B16966  11.660   8.711   3.940  0.2465  0.1667  0.1255
    1DPPC   C3B16967  11.852   8.568   4.241  0.1557  0.0195 -0.0806
    1DPPC   C4B16968  12.150   8.377   4.538  0.1368 -0.2429  0.0313
    1DPPC   NC316969  14.971  13.407   2.222 -0.0155  0.3019  0.1149
    1DPPC   PO416970  14.898  13.746   2.124  0.1716 -0.0376  0.1270
    1DPPC   GL116971  14.843  13.724   2.614  0.1114  0.1027 -0.2003
    1DPPC   GL216972  14.778  14.018   2.777 -0.0098  0.3059 -0.0296
    1DPPC   C1A16973  15.131  13.683   3.000  0.3127  0.2230  0.2024
    1DPPC   C2A16974  15.021  13.641   3.380 -0.0545 -0.2755  0.0714
    1DPPC   C3A16975  14.998  13.623   3.787  0.0840  0.1721  0.2917
    1DPPC   C4A16976  14.966  13.469   4.198  0.0785 -0.1430  0.2909
    1DPPC   C1B16977  14.601  14.092   3.213 -0.0504 -0.0433  0.2191
    1DPPC   C2B16978  14.645  14.008   3.595 -0.2885  0.1141  0.3614
    1DPPC   C3B16979  14.732  13.938   4.052 -0.2452  0.0632 -0.3811
    1DPPC   C4B16980  14.585  13.688   4.486 -0.0308  0.1128 -0.2828
    1DPPC   NC316981  21.844  13.648   2.058  0.1528 -0.1198  0.0380
    1DPPC   PO416982  21.855  13.443   2.490  0.1143 -0.0124 -0.2863
    1DPPC   GL116983  21.922  13.650   2.775 -0.1669 -0.3268  0.0112
    1DPPC   GL216984  22.179  13.768   2.846 -0.4792  0.0037 -0.2062
    1DPPC   C1A16985  21.646  13.725   3.176 -0.1200 -0.1891  0.2020
    1DPPC   C2A16986  21.307  13.619   3.528  0.1440  0.0468  0.4810
    1DPPC   C3A16987  21.041  13.832   3.758  0.1588  0.1854  0.2538
    1DPPC   C4A16988  20.646  13.981   3.994 -0.0704 -0.1966 -0.0215
    1DPPC   C1B16989  22.029  14.160   3.054 -0.0191  0.3130 -0.0813
    1DPPC   C2B16990  21.785  14.284   3.257 -0.0695  0.1171  0.0874
    1DPPC   C3B16991  21.615  14.571   3.523 -0.0602 -0.0947  0.0517
    1DPPC   C4B16992  21.566  14.536   3.900  0.2672  0.0754 -0.1400
    1DPPC   NC316993  18.446  13.986   1.517  0.0951 -0.0203  0.3505
    1DPPC   PO416994  18.610  13.990   1.910  0.0231  0.0997 -0.1340
    1DPPC   GL116995  18.601  13.928   2.343 -0.0128  0.1914  0.2589
    1DPPC   GL216996  18.300  13.868   2.406 -0.1302  0.0149 -0.0068
    1DPPC   C1A16997  18.817  14.031   2.620  0.0063  0.0302 -0.3387
    1DPPC   C2A16998  18.889  14.022   3.060 -0.0327 -0.2269  0.0858
    1DPPC   C3A16999  18.960  14.028   3.529  0.1964  0.1208  0.1263
    1DPPC   C4A17000  18.996  14.132   3.864  0.1164 -0.0344  0.1721
    1DPPC   C1B17001  18.458  13.820   2.849  0.0995  0.0161  0.2579
    1DPPC   C2B17002  18.454  13.695   3.316 -0.0386 -0.1577  0.2358
    1DPPC   C3B17003  18.512  13.778   3.739  0.3220  0.5939  0.0005
    1DPPC   C4B17004  18.689  13.435   3.988 -0.0245 -0.0921  0.1072
    1DPPC   NC317005  15.777  26.191   2.969  0.1093  0.0384  0.2899
    1DPPC   PO417006  15.909  26.146   3.419 -0.0321  0.1355 -0.1615
    1DPPC   GL117007  16.008  26.075   3.800 -0.3328 -0.2905 -0.0958
    1DPPC   GL217008  15.868  25.816   3.805 -0.2951 -0.1035  0.1135
    1DPPC   C1A17009  15.963  26.042   4.234 -0.1958  0.3501  0.1319
    1DPPC   C2A17010  16.091  26.098   4.635  0.0786 -0.3059 -0.0241
    1DPPC   C3A17011  16.259  26.117   5.079 -0.1726 -0.2771 -0.1650
    1DPPC   C4A17012  16.569  26.022   5.353 -0.2390  0.1773 -0.0631
    1DPPC   C1B17013  15.591  25.623   4.099 -0.0067  0.4355  0.0152
    1DPPC   C2B17014  15.251  25.643   4.456 -0.4125  0.2116  0.4843
    1DPPC   C3B17015  15.223  25.652   4.864  0.1000  0.1380 -0.3930
    1DPPC   C4B17016  14.904  25.700   5.188 -0.2363  0.0882 -0.2158
    1DPPC   NC317017  18.012  12.364   2.152  0.0100 -0.0516 -0.3632
    1DPPC   PO417018  18.448  12.219   2.397  0.2048 -0.2452 -0.1503
    1DPPC   GL117019  18.547  12.033   2.756 -0.0644 -0.1263 -0.0649
    1DPPC   GL217020  18.280  12.188   2.865 -0.0061  0.0553 -0.0236
    1DPPC   C1A17021  18.634  11.938   3.119 -0.0150  0.1998  0.1259
    1DPPC   C2A17022  18.549  11.939   3.484 -0.0782  0.1430  0.0503
    1DPPC   C3A17023  18.468  11.797   3.981 -0.4561 -0.0413  0.1959
    1DPPC   C4A17024  18.060  11.714   4.159 -0.0746  0.2771  0.1864
    1DPPC   C1B17025  18.108  12.349   3.148  0.0841 -0.1614 -0.3287
    1DPPC   C2B17026  18.188  12.296   3.476 -0.2404  0.0173  0.2524
    1DPPC   C3B17027  18.160  12.286   3.883 -0.3151 -0.1819 -0.0651
    1DPPC   C4B17028  18.384  12.192   4.212 -0.0231 -0.0590 -0.1235
    1DPPC   NC317029   5.216  19.374   2.190 -0.1664 -0.2273  0.0086
    1DPPC   PO417030   5.645  19.272   2.263 -0.3481  0.0091  0.1703
    1DPPC   GL117031   5.710  19.514   2.577 -0.2932  0.3112  0.1464
    1DPPC   GL217032   5.351  19.504   2.651  0.1446  0.0074  0.0536
    1DPPC   C1A17033   5.814  19.615   3.022  0.1317  0.1490  0.4101
    1DPPC   C2A17034   5.759  19.683   3.512  0.0469  0.0310  0.2079
    1DPPC   C3A17035   5.584  19.985   3.775 -0.1940 -0.1532  0.1626
    1DPPC   C4A17036   5.258  20.114   4.059 -0.0444 -0.0482 -0.0018
    1DPPC   C1B17037   4.965  19.362   2.950  0.1409  0.2066 -0.2661
    1DPPC   C2B17038   4.572  19.530   3.154  0.2271 -0.0874 -0.0968
    1DPPC   C3B17039   4.385  19.496   3.572 -0.2398  0.0416  0.1046
    1DPPC   C4B17040   4.589  19.376   3.970  0.1084  0.0519  0.1027
    1DPPC   NC317041  14.166  21.256   1.929  0.0344  0.0650 -0.0414
    1DPPC   PO417042  13.882  21.197   2.232  0.3770  0.2044 -0.0725
    1DPPC   GL117043  13.914  21.311   2.724  0.0610  0.2543 -0.1613
    1DPPC   GL217044  13.763  21.602   2.917 -0.1727  0.0438 -0.1026
    1DPPC   C1A17045  13.965  21.213   3.220  0.0823 -0.3622  0.1474
    1DPPC   C2A17046  13.727  21.182   3.629  0.4209  0.1563  0.1447
    1DPPC   C3A17047  13.818  20.797   3.928  0.0940 -0.0320  0.0232
    1DPPC   C4A17048  14.010  20.670   4.297  0.1041 -0.1970 -0.0894
    1DPPC   C1B17049  13.673  21.603   3.323  0.1645  0.0014 -0.0610
    1DPPC   C2B17050  13.623  21.759   3.804  0.1517  0.0769 -0.0836
    1DPPC   C3B17051  13.632  22.083   4.172 -0.0159  0.0769 -0.0423
    1DPPC   C4B17052  13.652  22.484   4.456 -0.2279  0.3462 -0.3683
    1DPPC   NC317053  20.116  17.808   2.325 -0.0145 -0.1752  0.0677
    1DPPC   PO417054  19.747  18.046   2.529 -0.1227  0.2176  0.1018
    1DPPC   GL117055  19.804  18.293   2.872  0.1069 -0.2199 -0.1248
    1DPPC   GL217056  20.055  18.567   2.911 -0.0604  0.3022  0.1009
    1DPPC   C1A17057  19.977  17.975   3.177  0.0081 -0.0481 -0.0537
    1DPPC   C2A17058  19.955  18.007   3.634 -0.0015  0.1066 -0.0113
    1DPPC   C3A17059  20.248  18.061   3.866  0.2016  0.1135  0.2582
    1DPPC   C4A17060  20.512  18.074   4.171  0.1109  0.1156 -0.1236
    1DPPC   C1B17061  20.056  18.437   3.385 -0.1233 -0.1155 -0.1656
    1DPPC   C2B17062  19.935  18.488   3.848 -0.0838 -0.0919  0.2581
    1DPPC   C3B17063  19.941  18.125   4.224  0.0361 -0.4033 -0.0427
    1DPPC   C4B17064  19.814  17.922   4.541 -0.2135 -0.3165 -0.2892
    1DPPC   NC317065  14.359  15.181   2.293  0.2346  0.1659 -0.0792
    1DPPC   PO417066  14.761  14.988   2.318 -0.1623 -0.1099  0.0747
    1DPPC   GL117067  14.556  14.900   2.667 -0.0564 -0.0457 -0.2946
    1DPPC   GL217068  14.837  15.009   2.901 -0.0895 -0.0866  0.1703
    1DPPC   C1A17069  14.380  14.913   3.084  0.0240 -0.0292  0.1470
    1DPPC   C2A17070  14.520  14.892   3.523  0.1163 -0.0309 -0.1002
    1DPPC   C3A17071  14.563  14.886   3.953 -0.0711  0.0572  0.4657
    1DPPC   C4A17072  14.686  14.919   4.340  0.0965  0.0879  0.1652
    1DPPC   C1B17073  14.873  14.992   3.228  0.2679 -0.0414  0.2455
    1DPPC   C2B17074  14.977  14.927   3.688 -0.2956 -0.2847  0.2009
    1DPPC   C3B17075  15.120  14.963   4.136 -0.1747 -0.1066 -0.1111
    1DPPC   C4B17076  15.232  15.134   4.448 -0.0136 -0.0643  0.1822
    1DPPC   NC317077  13.214  15.981   2.432  0.0636 -0.1483  0.0691
    1DPPC   PO417078  13.315  16.349   2.251 -0.2516  0.0799  0.0248
    1DPPC   GL117079  13.307  16.404   2.690 -0.1295  0.0275  0.0708
    1DPPC   GL217080  13.018  16.454   2.905  0.3264  0.3962 -0.0859
    1DPPC   C1A17081  13.532  16.455   3.063 -0.0051 -0.2406  0.1936
    1DPPC   C2A17082  13.540  16.436   3.446  0.0062 -0.2288  0.1935
    1DPPC   C3A17083  13.596  16.258   3.874 -0.0351 -0.1143  0.1822
    1DPPC   C4A17084  13.697  16.136   4.256  0.3776  0.3574 -0.2797
    1DPPC   C1B17085  13.023  16.283   3.318  0.2372 -0.2858  0.1275
    1DPPC   C2B17086  13.069  16.297   3.723  0.0022  0.1703  0.0032
    1DPPC   C3B17087  13.040  16.205   4.119 -0.1504 -0.0157  0.0502
    1DPPC   C4B17088  12.967  16.281   4.526  0.2583 -0.5009  0.0134
    1DPPC   NC317089  29.257  10.147   2.585 -0.0780  0.1581 -0.1462
    1DPPC   PO417090  29.611  10.095   2.894  0.1141  0.0679  0.1733
    1DPPC   GL117091  29.649  10.192   3.340  0.0765  0.0486 -0.1045
    1DPPC   GL217092  29.600  10.499   3.300  0.0635  0.2118 -0.0972
    1DPPC   C1A17093  29.626  10.298   3.805 -0.0326  0.1313  0.1727
    1DPPC   C2A17094  29.546  10.141   4.233  0.2124  0.1209  0.0727
    1DPPC   C3A17095  29.240  10.318   4.470 -0.0211  0.0823 -0.2097
    1DPPC   C4A17096  29.019  10.692   4.694 -0.3064 -0.3364  0.2366
    1DPPC   C1B17097  29.657  10.732   3.639 -0.1355 -0.3646 -0.0289
    1DPPC   C2B17098  29.467  10.695   4.040 -0.1914  0.1916  0.4548
    1DPPC   C3B17099  29.548  10.861   4.332 -0.2139 -0.0766 -0.2794
    1DPPC   C4B17100  29.400  11.093   4.677 -0.0099  0.0501  0.0864
    1DPPC   NC317101  16.111   6.797   2.748  0.2769  0.1041  0.2724
    1DPPC   PO417102  15.625   6.702   2.692  0.0803  0.1376  0.0903
    1DPPC   GL117103  15.763   6.592   2.958 -0.1998 -0.1061 -0.1847
    1DPPC   GL217104  15.911   6.382   3.093 -0.0338 -0.1589  0.2016
    1DPPC   C1A17105  15.746   6.755   3.426  0.0970  0.0106 -0.0147
    1DPPC   C2A17106  15.636   6.762   3.850  0.0605  0.0569  0.0737
    1DPPC   C3A17107  15.664   6.783   4.264  0.1356  0.1103 -0.1728
    1DPPC   C4A17108  15.605   6.791   4.706 -0.0237  0.2723 -0.1902
    1DPPC   C1B17109  16.028   6.317   3.547  0.1769 -0.0514 -0.1072
    1DPPC   C2B17110  16.087   6.579   3.787  0.0328 -0.3276 -0.1248
    1DPPC   C3B17111  16.286   6.506   4.161  0.1443  0.0506 -0.4064
    1DPPC   C4B17112  16.643   6.615   4.445 -0.1061  0.4405  0.0214
    1DPPC   NC317113  13.495  14.302   2.510 -0.1358 -0.0731  0.0444
    1DPPC   PO417114  13.560  14.685   2.561  0.4017 -0.2094  0.0571
    1DPPC   GL117115  13.307  14.641   2.880  0.0606  0.2574  0.0226
    1DPPC   GL217116  13.256  14.327   2.952 -0.0873 -0.0875  0.0252
    1DPPC   C1A17117  13.044  14.553   3.356  0.0881  0.0408  0.0174
    1DPPC   C2A17118  13.164  14.559   3.792 -0.3120  0.0798 -0.3315
    1DPPC   C3A17119  13.336  14.314   4.117  0.3486 -0.1039 -0.1000
    1DPPC   C4A17120  13.103  13.998   4.424 -0.1370  0.2360  0.3189
    1DPPC   C1B17121  13.189  14.020   3.241  0.0633  0.2238  0.1218
    1DPPC   C2B17122  13.242  13.994   3.712  0.1288 -0.1996  0.0634
    1DPPC   C3B17123  13.193  13.809   4.010  0.1065  0.0209  0.3789
    1DPPC   C4B17124  13.342  13.475   4.349 -0.0903  0.0303 -0.0347
    1DPPC   NC317125  16.422  15.710   1.940  0.0374  0.1331 -0.0211
    1DPPC   PO417126  16.790  15.413   2.053  0.1757  0.1313  0.0310
    1DPPC   GL117127  16.661  15.387   2.398  0.0128  0.3111 -0.4408
    1DPPC   GL217128  16.455  15.704   2.438 -0.0351 -0.1439 -0.1137
    1DPPC   C1A17129  16.669  15.247   2.848 -0.1202  0.1480  0.0106
    1DPPC   C2A17130  16.770  15.306   3.212 -0.1485  0.2004  0.1702
    1DPPC   C3A17131  16.697  15.156   3.637 -0.0157 -0.0041  0.0601
    1DPPC   C4A17132  16.520  14.977   3.943 -0.0747  0.1383 -0.1544
    1DPPC   C1B17133  16.382  15.819   2.844  0.0988 -0.3249  0.2900
    1DPPC   C2B17134  16.472  15.741   3.209  0.0843 -0.3642 -0.0090
    1DPPC   C3B17135  16.587  15.643   3.527  0.0006  0.0682  0.0670
    1DPPC   C4B17136  16.596  15.559   3.945  0.2028  0.5579 -0.0409
    1DPPC   NC317137  10.441  14.371   2.320  0.1772 -0.1999  0.0565
    1DPPC   PO417138  10.800  14.238   2.433 -0.0449  0.0648  0.1892
    1DPPC   GL117139  10.873  14.024   2.737  0.0492  0.0022 -0.2166
    1DPPC   GL217140  11.238  14.148   2.766  0.1503 -0.6031  0.1536
    1DPPC   C1A17141  10.881  13.784   3.082 -0.0070  0.1792 -0.0329
    1DPPC   C2A17142  10.895  13.853   3.515  0.0785 -0.0189 -0.3070
    1DPPC   C3A17143  10.989  13.961   4.020 -0.0115 -0.2303  0.0603
    1DPPC   C4A17144  11.010  13.987   4.406  0.2895 -0.0912  0.5372
    1DPPC   C1B17145  11.080  14.244   3.178 -0.2954  0.1218  0.4145
    1DPPC   C2B17146  11.125  14.325   3.592  0.0658 -0.1229  0.0281
    1DPPC   C3B17147  10.979  14.466   4.084  0.1542 -0.0882 -0.1132
    1DPPC   C4B17148  10.914  14.542   4.399  0.0149  0.0592  0.2532
    1DPPC   NC317149  13.457  20.299   1.910  0.1087 -0.2192 -0.0128
    1DPPC   PO417150  13.662  20.441   2.307  0.0216  0.2610  0.0268
    1DPPC   GL117151  13.849  20.227   2.619 -0.0944  0.1741 -0.0419
    1DPPC   GL217152  14.200  20.363   2.671  0.0660 -0.1165  0.3395
    1DPPC   C1A17153  13.830  20.230   3.028 -0.3308  0.0679 -0.0219
    1DPPC   C2A17154  13.635  20.359   3.465  0.0141 -0.4020  0.0422
    1DPPC   C3A17155  13.467  20.337   3.877 -0.1047 -0.2925 -0.1145
    1DPPC   C4A17156  13.449  20.483   4.278  0.0683  0.4221 -0.1434
    1DPPC   C1B17157  14.251  20.432   3.050  0.0018  0.3268  0.2121
    1DPPC   C2B17158  14.211  20.219   3.417  0.1283 -0.1312  0.1246
    1DPPC   C3B17159  14.094  20.290   3.807  0.0087 -0.1818  0.0426
    1DPPC   C4B17160  13.856  20.214   4.155  0.1233  0.4282 -0.1893
    1DPPC   NC317161  13.520  19.516   2.495 -0.2029 -0.0083  0.1183
    1DPPC   PO417162  13.154  19.575   2.692 -0.3612  0.1904 -0.3030
    1DPPC   GL117163  13.369  19.372   2.986  0.1748 -0.0064 -0.2819
    1DPPC   GL217164  13.235  19.590   3.237 -0.0385 -0.1923  0.1369
    1DPPC   C1A17165  13.604  19.270   3.347 -0.1881 -0.0772 -0.2006
    1DPPC   C2A17166  13.593  19.197   3.816  0.1998 -0.1387 -0.2514
    1DPPC   C3A17167  13.787  19.369   4.128  0.3250 -0.0484  0.1941
    1DPPC   C4A17168  13.887  19.670   4.423  0.0289  0.0304 -0.1195
    1DPPC   C1B17169  13.294  19.559   3.656  0.0670  0.1171 -0.1428
    1DPPC   C2B17170  13.261  19.480   4.107 -0.0146  0.1590 -0.0497
    1DPPC   C3B17171  13.347  19.070   4.235  0.1588  0.1171  0.1118
    1DPPC   C4B17172  13.618  18.928   4.583  0.0650  0.2186 -0.1226
    1DPPC   NC317173  15.225  21.164   1.952  0.1386  0.3076  0.1381
    1DPPC   PO417174  15.513  20.877   2.218 -0.1391  0.0360 -0.0565
    1DPPC   GL117175  15.237  20.803   2.588 -0.1213 -0.0472 -0.0674
    1DPPC   GL217176  15.070  20.501   2.565  0.1216  0.5003  0.0984
    1DPPC   C1A17177  15.157  20.949   3.039  0.2918 -0.0727 -0.1539
    1DPPC   C2A17178  15.063  21.030   3.433 -0.1542 -0.2741  0.0050
    1DPPC   C3A17179  14.987  21.119   3.944  0.1238 -0.0105  0.0242
    1DPPC   C4A17180  15.109  21.539   4.191  0.1123  0.3444  0.1269
    1DPPC   C1B17181  15.177  20.460   2.968  0.1548 -0.0887  0.1212
    1DPPC   C2B17182  15.141  20.562   3.361 -0.2402 -0.0492 -0.0942
    1DPPC   C3B17183  15.108  20.551   3.873 -0.0854  0.0165 -0.1594
    1DPPC   C4B17184  14.993  20.678   4.234 -0.0903 -0.1414  0.0445
    1DPPC   NC317185  17.971  14.590   2.303 -0.4679  0.2954 -0.3036
    1DPPC   PO417186  18.300  14.806   2.247 -0.1259 -0.1180  0.1463
    1DPPC   GL117187  18.632  14.841   2.512 -0.2934 -0.2342  0.1720
    1DPPC   GL217188  18.888  14.503   2.590 -0.0921  0.3065  0.1937
    1DPPC   C1A17189  18.794  14.868   2.943  0.0381  0.2025  0.1446
    1DPPC   C2A17190  18.703  14.903   3.313 -0.1410  0.3634 -0.0308
    1DPPC   C3A17191  18.781  14.682   3.701 -0.0042 -0.2046  0.0906
    1DPPC   C4A17192  18.665  14.455   4.025  0.1567  0.0388  0.0704
    1DPPC   C1B17193  19.094  14.492   2.896  0.0026 -0.3626  0.0145
    1DPPC   C2B17194  19.048  14.442   3.261  0.1234 -0.0531 -0.0297
    1DPPC   C3B17195  19.246  14.473   3.628  0.1792 -0.1711 -0.1149
    1DPPC   C4B17196  19.133  14.612   4.006  0.0026  0.0045 -0.3419
    1DPPC   NC317197  11.623  13.431   2.502 -0.1115 -0.0450 -0.0497
    1DPPC   PO417198  11.437  13.142   2.700 -0.1302  0.0884 -0.0910
    1DPPC   GL117199  11.065  13.299   2.984 -0.2023 -0.2247  0.1817
    1DPPC   GL217200  10.694  13.445   2.790 -0.0040  0.1098 -0.1116
    1DPPC   C1A17201  11.126  13.086   3.373  0.3369  0.1462  0.2010
    1DPPC   C2A17202  11.223  13.051   3.786  0.2336 -0.2353 -0.2758
    1DPPC   C3A17203  11.303  13.055   4.243  0.1752 -0.0377 -0.0039
    1DPPC   C4A17204  11.395  13.086   4.677 -0.1260 -0.0566 -0.1586
    1DPPC   C1B17205  10.672  13.391   3.274 -0.0608  0.0020  0.0188
    1DPPC   C2B17206  10.618  13.389   3.704  0.1082  0.0472 -0.2032
    1DPPC   C3B17207  10.925  13.369   4.025  0.1088  0.3863 -0.1012
    1DPPC   C4B17208  11.044  13.436   4.414  0.1908 -0.3048 -0.0048
    1DPPC   NC317209  13.848  13.636   2.133 -0.1172  0.1522 -0.1248
    1DPPC   PO417210  13.859  13.948   2.418 -0.0570  0.2087  0.0521
    1DPPC   GL117211  13.658  13.760   2.705 -0.0346  0.1815  0.2151
    1DPPC   GL217212  13.574  13.953   2.941  0.1356  0.1832 -0.0528
    1DPPC   C1A17213  13.493  13.506   2.957  0.0958  0.1229 -0.0842
    1DPPC   C2A17214  13.301  13.469   3.213  0.0344  0.0435 -0.1402
    1DPPC   C3A17215  13.404  13.466   3.667 -0.1264  0.1042 -0.3074
    1DPPC   C4A17216  13.197  13.243   3.961 -0.1439  0.0216 -0.0561
    1DPPC   C1B17217  13.651  13.813   3.370  0.2696  0.0409  0.1369
    1DPPC   C2B17218  13.716  13.833   3.843 -0.0761 -0.3517 -0.0185
    1DPPC   C3B17219  13.592  13.892   4.258 -0.0054  0.0527  0.3828
    1DPPC   C4B17220  13.708  14.157   4.614  0.0728  0.1727  0.1039
    1DPPC   NC317221  10.736  11.674   2.416  0.0673  0.0313 -0.1141
    1DPPC   PO417222  10.349  11.645   2.734 -0.0754 -0.1092 -0.0237
    1DPPC   GL117223  10.163  11.611   3.151  0.1023  0.1810 -0.0181
    1DPPC   GL217224  10.433  11.786   3.299 -0.0427 -0.0232  0.1624
    1DPPC   C1A17225  10.032  11.467   3.483  0.0112 -0.0947 -0.3729
    1DPPC   C2A17226   9.949  11.383   3.930  0.0515 -0.0041 -0.1425
    1DPPC   C3A17227   9.820  11.398   4.404  0.1297 -0.0309 -0.0962
    1DPPC   C4A17228   9.978  11.302   4.782 -0.3144  0.1579 -0.1199
    1DPPC   C1B17229  10.475  11.806   3.644 -0.0031 -0.3063 -0.0502
    1DPPC   C2B17230  10.110  11.871   3.836 -0.0439  0.0458 -0.1158
    1DPPC   C3B17231  10.051  11.946   4.189  0.0482 -0.2733 -0.0665
    1DPPC   C4B17232  10.285  12.253   4.559 -0.0762 -0.0601 -0.0419
    1DPPC   NC317233  15.157  16.606   1.779  0.1675 -0.1283 -0.1620
    1DPPC   PO417234  15.486  16.709   2.062  0.1056 -0.2565 -0.1753
    1DPPC   GL117235  15.443  16.703   2.516 -0.0800  0.0164 -0.1567
    1DPPC   GL217236  15.567  16.891   2.756 -0.0680 -0.1696 -0.0711
    1DPPC   C1A17237  15.650  16.346   2.807  0.3384 -0.1913 -0.2910
    1DPPC   C2A17238  15.780  16.406   3.189  0.0772  0.0738  0.0858
    1DPPC   C3A17239  15.735  16.221   3.612  0.2320 -0.0207 -0.0831
    1DPPC   C4A17240  15.842  16.259   3.902  0.1029  0.3618 -0.1092
    1DPPC   C1B17241  15.652  16.893   3.155  0.1131  0.2489 -0.0616
    1DPPC   C2B17242  15.762  16.760   3.567  0.1668  0.3302 -0.1229
    1DPPC   C3B17243  16.028  16.744   3.908  0.1471 -0.2352 -0.1256
    1DPPC   C4B17244  16.035  16.705   4.287 -0.2849 -0.0451  0.1829
    1DPPC   NC317245  15.814  13.274   2.213 -0.1266  0.1376  0.0293
    1DPPC   PO417246  15.378  13.234   2.128 -0.0424  0.0692  0.0918
    1DPPC   GL117247  15.334  13.143   2.531 -0.0665 -0.1681 -0.0195
    1DPPC   GL217248  15.100  13.310   2.674 -0.1457 -0.0304  0.2358
    1DPPC   C1A17249  15.330  12.913   2.850 -0.1003  0.0763  0.2381
    1DPPC   C2A17250  15.170  12.845   3.262  0.5278 -0.0848  0.1610
    1DPPC   C3A17251  15.180  12.719   3.657 -0.1804  0.0248  0.0205
    1DPPC   C4A17252  15.021  12.627   4.036 -0.0476  0.2448 -0.1126
    1DPPC   C1B17253  14.809  13.221   3.072 -0.1917 -0.2383 -0.0755
    1DPPC   C2B17254  14.870  13.168   3.466 -0.0372  0.0292 -0.0792
    1DPPC   C3B17255  14.836  13.094   3.892  0.1414 -0.2623  0.1128
    1DPPC   C4B17256  14.522  12.852   4.155 -0.0131 -0.0629 -0.1252
    1DPPC   NC317257  18.123  19.061   2.049  0.1687 -0.0405  0.3293
    1DPPC   PO417258  18.114  18.965   2.511 -0.1273 -0.4304  0.1758
    1DPPC   GL117259  18.178  18.797   2.970 -0.1230 -0.1238  0.1304
    1DPPC   GL217260  18.521  18.655   3.130  0.0030 -0.0678  0.0852
    1DPPC   C1A17261  18.149  18.917   3.426 -0.0113 -0.0254  0.2612
    1DPPC   C2A17262  18.148  18.924   3.900 -0.0095 -0.1436  0.1516
    1DPPC   C3A17263  18.206  18.973   4.262 -0.0267  0.3909  0.1318
    1DPPC   C4A17264  18.162  18.980   4.654  0.1101 -0.0180  0.0771
    1DPPC   C1B17265  18.675  18.787   3.527 -0.0600  0.4124  0.0879
    1DPPC   C2B17266  18.583  18.727   3.962  0.3235 -0.0793  0.0936
    1DPPC   C3B17267  18.773  18.642   4.350  0.1150  0.0400 -0.1908
    1DPPC   C4B17268  18.570  18.502   4.777  0.2464  0.3766  0.1599
    1DPPC   NC317269  10.072  17.759   2.123 -0.3389  0.0292 -0.1009
    1DPPC   PO417270  10.112  17.998   2.572 -0.2902 -0.1202  0.0359
    1DPPC   GL117271  10.029  17.816   2.933  0.0714  0.1114  0.2486
    1DPPC   GL217272   9.688  17.758   2.827  0.2275  0.0582 -0.2617
    1DPPC   C1A17273   9.997  17.812   3.401  0.0957 -0.0351 -0.0580
    1DPPC   C2A17274   9.870  17.644   3.802  0.0492 -0.2040 -0.0944
    1DPPC   C3A17275   9.735  17.331   4.204  0.1712 -0.1573 -0.0942
    1DPPC   C4A17276   9.331  17.506   4.517 -0.4369  0.3594  0.1532
    1DPPC   C1B17277   9.559  17.723   3.201  0.0162  0.1158  0.3268
    1DPPC   C2B17278   9.376  17.683   3.518  0.1150 -0.2071 -0.1152
    1DPPC   C3B17279   9.398  17.491   3.902  0.2165 -0.2447 -0.0022
    1DPPC   C4B17280   9.232  17.149   4.126  0.2348  0.1032 -0.1984
    1DPPC   NC317281  11.794  19.874   2.489 -0.1824  0.0419 -0.0743
    1DPPC   PO417282  11.585  19.508   2.641 -0.1940  0.0732  0.0660
    1DPPC   GL117283  11.524  19.425   3.008  0.0490  0.0641  0.1369
    1DPPC   GL217284  11.660  19.598   3.196  0.1240  0.0168  0.1206
    1DPPC   C1A17285  11.380  19.289   3.465 -0.2559  0.0558  0.1227
    1DPPC   C2A17286  11.348  19.238   3.891  0.1709  0.2345  0.0113
    1DPPC   C3A17287  11.311  19.128   4.227 -0.1989 -0.2192 -0.1251
    1DPPC   C4A17288  11.101  18.931   4.446 -0.3606 -0.1668  0.0491
    1DPPC   C1B17289  11.788  19.706   3.599  0.0939 -0.0476  0.0364
    1DPPC   C2B17290  11.811  19.711   4.066  0.1158 -0.1303 -0.0498
    1DPPC   C3B17291  11.608  19.448   4.373  0.0374  0.1913 -0.2240
    1DPPC   C4B17292  11.173  19.403   4.597 -0.1926 -0.2601 -0.1825
    1DPPC   NC317293  11.243  17.279   1.914  0.0208 -0.1876 -0.0005
    1DPPC   PO417294  11.231  16.831   1.965  0.1059  0.1525  0.2091
    1DPPC   GL117295  11.201  16.845   2.438  0.2628 -0.1890 -0.0940
    1DPPC   GL217296  10.941  16.595   2.554  0.0050 -0.1966 -0.0966
    1DPPC   C1A17297  11.019  17.057   2.812  0.0507 -0.3735 -0.0765
    1DPPC   C2A17298  10.783  16.958   3.185 -0.0234  0.0819 -0.0747
    1DPPC   C3A17299  10.829  16.889   3.604  0.0893  0.5497  0.0946
    1DPPC   C4A17300  10.772  16.819   4.045  0.3361  0.0844 -0.0082
    1DPPC   C1B17301  11.066  16.589   2.951 -0.1593  0.3744 -0.0509
    1DPPC   C2B17302  11.231  16.562   3.394  0.1798 -0.0775 -0.1100
    1DPPC   C3B17303  11.132  16.517   3.812  0.1293 -0.0745 -0.2803
    1DPPC   C4B17304  11.283  16.312   4.167  0.2287  0.3433  0.2172
    1DPPC   NC317305  15.301  12.527   1.992 -0.4907 -0.0436  0.0516
    1DPPC   PO417306  15.370  12.186   2.236 -0.0211  0.0582  0.0963
    1DPPC   GL117307  15.454  12.195   2.660  0.2418  0.5152 -0.3584
    1DPPC   GL217308  15.441  11.946   2.834  0.1276 -0.1025  0.3520
    1DPPC   C1A17309  15.354  12.411   3.097 -0.1649 -0.2239  0.0570
    1DPPC   C2A17310  15.413  12.336   3.504 -0.3910  0.1192 -0.1320
    1DPPC   C3A17311  15.444  12.186   3.915 -0.2217 -0.0186 -0.1255
    1DPPC   C4A17312  15.247  12.066   4.336 -0.0743 -0.1333 -0.0542
    1DPPC   C1B17313  15.555  11.971   3.148  0.1710 -0.1649 -0.1222
    1DPPC   C2B17314  15.700  11.773   3.508 -0.2157 -0.3106 -0.1470
    1DPPC   C3B17315  15.693  11.764   3.862 -0.1482  0.1299  0.0369
    1DPPC   C4B17316  15.617  11.785   4.211  0.1453  0.1464 -0.0127
    1DPPC   NC317317  15.804  13.871   2.245  0.0248  0.2114  0.0616
    1DPPC   PO417318  16.214  13.544   2.292 -0.1170 -0.2496 -0.1052
    1DPPC   GL117319  16.129  13.711   2.639 -0.0608 -0.0109 -0.1561
    1DPPC   GL217320  15.857  13.453   2.711  0.2277  0.0870 -0.1584
    1DPPC   C1A17321  16.113  13.656   3.122 -0.2400 -0.2636  0.3616
    1DPPC   C2A17322  15.857  13.370   3.339 -0.1558  0.0285 -0.1765
    1DPPC   C3A17323  15.789  13.334   3.708 -0.1348 -0.1035  0.1267
    1DPPC   C4A17324  15.820  13.031   4.036  0.0237 -0.3490 -0.2176
    1DPPC   C1B17325  15.573  13.348   2.949 -0.1259 -0.2537 -0.2348
    1DPPC   C2B17326  15.336  13.304   3.304 -0.0086  0.0196 -0.0760
    1DPPC   C3B17327  15.326  13.186   3.764 -0.0282 -0.0656  0.0192
    1DPPC   C4B17328  15.247  13.053   4.179 -0.2590  0.1380 -0.2387
    1DPPC   NC317329  16.458  11.762   2.656  0.0229 -0.1730 -0.3545
    1DPPC   PO417330  16.679  11.492   2.270  0.3262  0.1077 -0.0013
    1DPPC   GL117331  16.930  11.512   2.731 -0.1895  0.3260  0.1714
    1DPPC   GL217332  16.768  11.628   3.078 -0.0240  0.0594 -0.0064
    1DPPC   C1A17333  17.115  11.296   3.105 -0.0125  0.2228  0.0920
    1DPPC   C2A17334  17.175  11.100   3.487  0.1588 -0.1071 -0.2049
    1DPPC   C3A17335  17.333  11.315   3.833  0.1502 -0.1660  0.0913
    1DPPC   C4A17336  17.531  11.648   4.007 -0.0201  0.2347 -0.2875
    1DPPC   C1B17337  16.744  11.485   3.410  0.1029  0.1496  0.1497
    1DPPC   C2B17338  16.660  11.370   3.839  0.1488 -0.0111 -0.0942
    1DPPC   C3B17339  16.770  11.090   4.168 -0.1349 -0.0654 -0.1023
    1DPPC   C4B17340  17.279  11.236   4.320  0.0356 -0.1395 -0.2046
    1DPPC   NC317341  12.136  20.538   2.430 -0.1852 -0.3521 -0.0988
    1DPPC   PO417342  12.049  20.849   2.699  0.1507  0.3168  0.1223
    1DPPC   GL117343  12.091  20.999   2.992 -0.0325  0.0578 -0.0036
    1DPPC   GL217344  12.383  20.956   3.088  0.0323 -0.1595 -0.2006
    1DPPC   C1A17345  12.094  21.046   3.473  0.1549 -0.1221  0.5559
    1DPPC   C2A17346  12.286  21.025   3.843  0.0246 -0.0212  0.2289
    1DPPC   C3A17347  12.090  20.940   4.256 -0.1317 -0.0697  0.2250
    1DPPC   C4A17348  12.060  20.616   4.480  0.1560  0.1114 -0.2181
    1DPPC   C1B17349  12.563  20.623   3.303  0.1166  0.1936  0.0523
    1DPPC   C2B17350  12.575  20.654   3.676  0.0389  0.2956  0.0130
    1DPPC   C3B17351  12.503  20.642   4.106 -0.0970  0.1610  0.0237
    1DPPC   C4B17352  12.547  20.762   4.550  0.1394 -0.0786 -0.1239
    1DPPC   NC317353  19.259  17.910   2.513  0.0024 -0.0438 -0.1920
    1DPPC   PO417354  18.943  17.658   2.420 -0.1766  0.2521  0.1157
    1DPPC   GL117355  18.973  17.475   2.904  0.0732  0.0554  0.3388
    1DPPC   GL217356  19.010  17.740   3.047  0.0974 -0.0644  0.0885
    1DPPC   C1A17357  19.024  17.333   3.354  0.0345 -0.2603 -0.0143
    1DPPC   C2A17358  19.052  17.319   3.720 -0.1254  0.1352  0.0784
    1DPPC   C3A17359  19.164  17.168   4.133 -0.0724 -0.2608  0.0778
    1DPPC   C4A17360  19.043  17.242   4.582 -0.0043 -0.1537  0.0794
    1DPPC   C1B17361  19.070  17.902   3.420 -0.2737 -0.2770  0.0572
    1DPPC   C2B17362  19.054  17.874   3.877  0.0638  0.3259  0.0645
    1DPPC   C3B17363  18.923  17.580   4.182 -0.0685  0.0787 -0.1300
    1DPPC   C4B17364  18.748  17.651   4.547  0.1108  0.2347 -0.0512
    1DPPC   NC317365  12.871  15.382   2.121 -0.1197 -0.2172  0.0447
    1DPPC   PO417366  12.406  15.403   2.179  0.1422  0.1922 -0.2210
    1DPPC   GL117367  12.342  15.458   2.656 -0.4012 -0.3354  0.0274
    1DPPC   GL217368  12.079  15.350   2.884  0.2940  0.0257 -0.1880
    1DPPC   C1A17369  12.598  15.290   2.970  0.3069 -0.2488  0.0501
    1DPPC   C2A17370  12.606  15.272   3.452 -0.1225 -0.0911 -0.6046
    1DPPC   C3A17371  12.694  15.262   3.888 -0.1169  0.2461 -0.2160
    1DPPC   C4A17372  12.860  15.299   4.282 -0.2576 -0.0674 -0.1864
    1DPPC   C1B17373  12.096  15.131   3.315 -0.0070 -0.0635  0.1377
    1DPPC   C2B17374  12.158  15.205   3.684 -0.2906 -0.1885 -0.0118
    1DPPC   C3B17375  12.126  15.156   4.100 -0.2553 -0.0596 -0.0690
    1DPPC   C4B17376  11.933  15.151   4.553  0.1367  0.2684 -0.2052
    1DPPC   NC317377  18.893  12.152   2.219  0.2813 -0.0376  0.2547
    1DPPC   PO417378  19.309  11.798   2.091 -0.0472 -0.0062  0.0362
    1DPPC   GL117379  19.244  12.010   2.559  0.2179 -0.3132  0.0956
    1DPPC   GL217380  18.987  12.172   2.672 -0.1943 -0.3909 -0.2383
    1DPPC   C1A17381  19.521  12.159   2.785  0.1268 -0.1088  0.0649
    1DPPC   C2A17382  19.611  12.241   3.289 -0.4046 -0.0179  0.2346
    1DPPC   C3A17383  19.753  12.010   3.551  0.3573  0.1852 -0.0204
    1DPPC   C4A17384  20.085  11.843   3.836  0.1257  0.3520 -0.1153
    1DPPC   C1B17385  19.101  12.160   3.066  0.2994 -0.1457  0.2192
    1DPPC   C2B17386  19.113  12.035   3.539  0.0165  0.0774  0.0337
    1DPPC   C3B17387  19.319  11.901   3.847  0.0188  0.0780  0.1257
    1DPPC   C4B17388  19.614  11.984   4.152  0.3347  0.2110  0.0498
    1DPPC   NC317389  21.217  11.170   1.913 -0.1737  0.1066  0.2104
    1DPPC   PO417390  21.208  11.603   2.016 -0.1740  0.1292  0.0589
    1DPPC   GL117391  21.107  11.740   2.391  0.0676  0.1601 -0.0034
    1DPPC   GL217392  20.787  11.798   2.391  0.0645 -0.0706 -0.1576
    1DPPC   C1A17393  21.002  11.758   2.977 -0.1266  0.2149 -0.0201
    1DPPC   C2A17394  21.000  11.653   3.484  0.2117 -0.2015  0.4181
    1DPPC   C3A17395  20.893  11.857   3.912  0.1422  0.0152  0.0069
    1DPPC   C4A17396  20.506  11.930   4.089 -0.1722 -0.1885  0.1613
    1DPPC   C1B17397  20.751  12.138   2.729 -0.0338  0.1672 -0.2740
    1DPPC   C2B17398  20.802  12.112   3.284  0.0682  0.0810  0.0696
    1DPPC   C3B17399  20.711  12.277   3.642 -0.1733  0.0400  0.4813
    1DPPC   C4B17400  20.481  12.463   3.922  0.2048 -0.0603 -0.1502
    1DPPC   NC317401  11.012  18.070   2.390  0.0923 -0.1049  0.1483
    1DPPC   PO417402  11.342  18.244   2.420  0.4017 -0.0698  0.0541
    1DPPC   GL117403  11.512  18.447   2.799 -0.3566  0.0062  0.3110
    1DPPC   GL217404  11.457  18.646   2.775  0.0088 -0.0788 -0.1192
    1DPPC   C1A17405  11.633  18.469   3.284 -0.5132 -0.2143 -0.0206
    1DPPC   C2A17406  11.670  18.331   3.713 -0.0410  0.0385  0.0495
    1DPPC   C3A17407  11.551  18.288   4.122 -0.2161 -0.0120  0.0371
    1DPPC   C4A17408  11.800  18.177   4.499  0.0969 -0.1773 -0.3391
    1DPPC   C1B17409  11.540  18.909   3.110  0.2234 -0.3815 -0.0070
    1DPPC   C2B17410  11.544  18.839   3.602  0.2148  0.2752  0.0872
    1DPPC   C3B17411  11.520  18.754   4.003  0.3600 -0.2009  0.1167
    1DPPC   C4B17412  11.464  18.598   4.504  0.0017  0.0789  0.0432
    1DPPC   NC317413  28.802  29.485   2.611  0.1696 -0.0579 -0.3033
    1DPPC   PO417414  29.002  29.623   2.997  0.1002 -0.0978 -0.1386
    1DPPC   GL117415  28.931  29.508   3.472  0.1979 -0.0479 -0.1209
    1DPPC   GL217416  28.602  29.587   3.502 -0.0932  0.0967  0.1659
    1DPPC   C1A17417  29.076  29.446   3.939 -0.2407 -0.2153  0.2774
    1DPPC   C2A17418  29.406  29.382   4.161  0.0008 -0.1214  0.1610
    1DPPC   C3A17419  29.455  29.386   4.662 -0.3175  0.1026  0.2063
    1DPPC   C4A17420  29.073  29.394   4.900  0.1015 -0.1870 -0.0547
    1DPPC   C1B17421  28.665  29.730   3.917 -0.4900  0.0528  0.0560
    1DPPC   C2B17422  28.633  30.033   4.209 -0.0807  0.2879  0.1538
    1DPPC   C3B17423  28.739  30.513   4.161 -0.2687  0.0188  0.1115
    1DPPC   C4B17424  28.744  30.876   4.166 -0.1776 -0.1850  0.3948
    1DPPC   NC317425  15.663  15.139   1.954 -0.2170 -0.2537  0.1130
    1DPPC   PO417426  15.931  14.876   2.079  0.3032  0.0781 -0.2900
    1DPPC   GL117427  16.013  14.580   2.350 -0.0945 -0.0321 -0.1935
    1DPPC   GL217428  15.747  14.746   2.521  0.5240 -0.3247  0.0642
    1DPPC   C1A17429  16.073  14.263   2.704  0.0799 -0.4289  0.0164
    1DPPC   C2A17430  16.136  14.199   3.075 -0.1048  0.2995 -0.0105
    1DPPC   C3A17431  16.154  14.126   3.477  0.1127  0.1553  0.0577
    1DPPC   C4A17432  16.171  14.061   3.918 -0.1972  0.1191 -0.1950
    1DPPC   C1B17433  15.699  14.557   2.928 -0.1583  0.2618 -0.1667
    1DPPC   C2B17434  15.769  14.414   3.333  0.0813  0.0788 -0.1380
    1DPPC   C3B17435  15.819  14.351   3.744  0.3563  0.2407 -0.0260
    1DPPC   C4B17436  15.807  14.302   4.241 -0.0723  0.0051  0.2791
    1DPPC   NC317437  12.159  14.250   2.358  0.1382  0.0703  0.2328
    1DPPC   PO417438  12.372  13.911   2.511 -0.1153  0.1921 -0.0648
    1DPPC   GL117439  12.547  13.952   2.875  0.1151 -0.1118  0.1950
    1DPPC   GL217440  12.363  13.825   3.088  0.4540 -0.1702  0.1167
    1DPPC   C1A17441  12.692  14.189   3.158 -0.2628  0.0809 -0.3005
    1DPPC   C2A17442  12.775  14.240   3.592  0.0248  0.0502  0.3358
    1DPPC   C3A17443  12.847  14.204   4.016  0.0638 -0.3685 -0.2408
    1DPPC   C4A17444  12.842  14.503   4.268 -0.0025 -0.1746 -0.0855
    1DPPC   C1B17445  12.399  13.872   3.409 -0.0977  0.0220 -0.2315
    1DPPC   C2B17446  12.459  13.918   3.863 -0.1602 -0.0004 -0.0272
    1DPPC   C3B17447  12.519  13.869   4.328  0.0627 -0.2066  0.1056
    1DPPC   C4B17448  12.666  13.755   4.635 -0.3520  0.1425  0.1433
    1DPPC   NC317449  12.146  17.108   2.261  0.1059 -0.2523  0.2750
    1DPPC   PO417450  12.244  17.532   2.273  0.2695 -0.1845  0.1269
    1DPPC   GL117451  12.202  17.688   2.717 -0.0622 -0.1476 -0.4390
    1DPPC   GL217452  12.426  17.812   2.860 -0.0218 -0.1104 -0.3195
    1DPPC   C1A17453  11.889  17.580   3.087  0.2988  0.0306  0.0568
    1DPPC   C2A17454  11.778  17.243   3.315 -0.2375  0.0913 -0.0747
    1DPPC   C3A17455  11.774  17.088   3.802  0.0853 -0.2578 -0.4298
    1DPPC   C4A17456  11.744  17.159   4.174 -0.0543 -0.2540  0.0973
    1DPPC   C1B17457  12.633  17.700   3.274  0.4012 -0.3468 -0.1194
    1DPPC   C2B17458  12.754  17.657   3.673 -0.1578 -0.1090  0.0586
    1DPPC   C3B17459  12.742  17.579   4.145  0.0461 -0.1748  0.2532
    1DPPC   C4B17460  12.670  17.757   4.507  0.2438  0.0962  0.1205
    1DPPC   NC317461  14.860  18.242   1.964 -0.1565 -0.3809  0.0474
    1DPPC   PO417462  15.003  17.885   2.175 -0.0754  0.0349 -0.2083
    1DPPC   GL117463  14.986  17.909   2.523  0.1977 -0.1465  0.1923
    1DPPC   GL217464  15.183  17.928   2.721 -0.1245 -0.0176  0.1430
    1DPPC   C1A17465  14.672  17.984   2.904 -0.2597 -0.0594  0.2188
    1DPPC   C2A17466  14.793  18.148   3.276  0.1577  0.0985  0.0995
    1DPPC   C3A17467  14.765  18.146   3.660 -0.2629  0.0558 -0.0766
    1DPPC   C4A17468  14.880  18.218   4.123 -0.2599  0.0890  0.1146
    1DPPC   C1B17469  15.058  17.746   3.079  0.0827  0.0214 -0.0302
    1DPPC   C2B17470  14.997  17.740   3.571 -0.1063 -0.2020 -0.1769
    1DPPC   C3B17471  14.931  17.706   3.999 -0.0559 -0.1531  0.2480
    1DPPC   C4B17472  14.995  17.403   4.346  0.3162 -0.3048 -0.3084
    1DPPC   NC317473  16.026  10.863   2.392  0.0240 -0.6203  0.0224
    1DPPC   PO417474  15.838  11.307   2.437  0.2376 -0.3521  0.0850
    1DPPC   GL117475  15.858  11.079   2.835 -0.0214  0.3087  0.3232
    1DPPC   GL217476  15.704  10.830   2.956 -0.1551  0.0084  0.0074
    1DPPC   C1A17477  16.175  10.853   3.079 -0.2107  0.0819 -0.0388
    1DPPC   C2A17478  16.232  10.775   3.521  0.0343 -0.0240 -0.0801
    1DPPC   C3A17479  16.385  10.822   3.993  0.2124 -0.0738 -0.1436
    1DPPC   C4A17480  16.660  10.618   4.423  0.1144  0.2624  0.1338
    1DPPC   C1B17481  15.764  10.898   3.373 -0.2197  0.0654  0.1554
    1DPPC   C2B17482  15.816  10.877   3.795  0.0576 -0.2549  0.0535
    1DPPC   C3B17483  15.896  11.012   4.216  0.2518 -0.3074  0.0011
    1DPPC   C4B17484  16.241  11.085   4.366 -0.1026 -0.0824 -0.0251
    1DPPC   NC317485  13.508   7.753   2.807  0.0474 -0.1143  0.1103
    1DPPC   PO417486  13.566   8.100   3.072 -0.1756 -0.0830 -0.3421
    1DPPC   GL117487  13.255   8.117   3.424  0.0230  0.1843 -0.0778
    1DPPC   GL217488  12.934   8.319   3.490  0.1066 -0.0467 -0.0492
    1DPPC   C1A17489  13.282   7.916   3.810  0.1814 -0.1867 -0.2597
    1DPPC   C2A17490  13.165   7.936   4.188  0.2031  0.3327 -0.3996
    1DPPC   C3A17491  13.334   7.773   4.553  0.3046 -0.1071 -0.0498
    1DPPC   C4A17492  13.484   7.715   4.962 -0.0752 -0.2596  0.1154
    1DPPC   C1B17493  12.841   8.305   3.962 -0.1424 -0.2335  0.1113
    1DPPC   C2B17494  12.733   8.317   4.430  0.0538 -0.2258 -0.0318
    1DPPC   C3B17495  12.623   8.197   4.789  0.1051  0.3493 -0.1067
    1DPPC   C4B17496  12.164   8.038   4.938 -0.0013  0.0079 -0.0137
    1DPPC   NC317497   9.441  12.574   2.597 -0.2093  0.4028  0.0491
    1DPPC   PO417498   9.103  12.236   2.709  0.2600  0.2181  0.1789
    1DPPC   GL117499   9.010  12.359   3.112 -0.0876 -0.0815 -0.1348
    1DPPC   GL217500   8.819  12.464   3.089  0.0018 -0.0773  0.1658
    1DPPC   C1A17501   8.913  12.212   3.526  0.0240  0.1715 -0.1297
    1DPPC   C2A17502   8.828  12.282   3.919 -0.0364 -0.1579  0.1132
    1DPPC   C3A17503   8.418  12.404   4.133 -0.2503  0.2861  0.0745
    1DPPC   C4A17504   8.057  12.622   4.258  0.0618  0.0190 -0.1264
    1DPPC   C1B17505   8.860  12.717   3.469  0.1434 -0.0524  0.0694
    1DPPC   C2B17506   8.860  12.821   3.931  0.1407 -0.0676  0.1225
    1DPPC   C3B17507   8.478  12.861   4.161 -0.0587  0.0599  0.0048
    1DPPC   C4B17508   8.317  13.197   4.306  0.3180 -0.2919  0.0398
    1DPPC   NC317509   8.434  16.859   2.177  0.4746  0.1553 -0.1575
    1DPPC   PO417510   8.034  16.745   2.111 -0.1640  0.0550  0.2074
    1DPPC   GL117511   8.073  16.450   2.419  0.1739 -0.2037  0.2776
    1DPPC   GL217512   8.452  16.423   2.396  0.0809 -0.1734  0.1987
    1DPPC   C1A17513   8.113  16.485   2.852 -0.1713  0.0567 -0.1713
    1DPPC   C2A17514   8.102  16.342   3.218  0.0868 -0.0805 -0.0729
    1DPPC   C3A17515   8.032  16.290   3.673 -0.2634 -0.0741  0.0536
    1DPPC   C4A17516   8.025  16.271   4.137  0.0111  0.0033  0.0392
    1DPPC   C1B17517   8.642  16.110   2.756 -0.0228  0.2906 -0.0702
    1DPPC   C2B17518   8.603  16.208   3.243 -0.0678  0.0332 -0.1933
    1DPPC   C3B17519   8.615  16.142   3.729  0.3236  0.0786  0.0133
    1DPPC   C4B17520   8.440  15.858   4.153  0.0721 -0.0530 -0.0560
    1DPPC   NC317521  11.519  16.408   2.122  0.0473 -0.0448  0.4119
    1DPPC   PO417522  11.791  16.083   2.369  0.1217 -0.2793  0.0553
    1DPPC   GL117523  11.563  16.150   2.694  0.1545  0.0312 -0.0890
    1DPPC   GL217524  11.377  16.425   2.606  0.1266 -0.0523 -0.0965
    1DPPC   C1A17525  11.468  16.207   3.041 -0.1773 -0.1190 -0.3979
    1DPPC   C2A17526  11.587  16.146   3.348 -0.0168  0.2231 -0.1250
    1DPPC   C3A17527  11.545  16.145   3.687  0.1871 -0.1386 -0.0983
    1DPPC   C4A17528  11.808  16.080   4.004  0.1329 -0.0117  0.1322
    1DPPC   C1B17529  11.556  16.684   2.947  0.1195  0.0286  0.3994
    1DPPC   C2B17530  11.715  16.692   3.418  0.0902 -0.3878 -0.0537
    1DPPC   C3B17531  11.655  16.609   3.790  0.0341 -0.0496 -0.0413
    1DPPC   C4B17532  11.587  16.678   4.258  0.2393  0.1542 -0.2346
    1DPPC   NC317533  17.426  13.275   2.126 -0.1084  0.2080  0.0126
    1DPPC   PO417534  17.619  12.813   2.259  0.0100  0.0795  0.1523
    1DPPC   GL117535  17.688  12.612   2.610 -0.0481  0.1864  0.1584
    1DPPC   GL217536  18.021  12.551   2.629  0.2397 -0.3553 -0.0190
    1DPPC   C1A17537  17.733  12.689   3.056 -0.1247 -0.1469 -0.0240
    1DPPC   C2A17538  17.728  12.521   3.517 -0.1285  0.1305  0.0430
    1DPPC   C3A17539  17.629  12.462   3.893 -0.1426 -0.5351  0.2725
    1DPPC   C4A17540  17.740  12.150   4.155 -0.2378 -0.2342 -0.1546
    1DPPC   C1B17541  18.256  12.864   2.935  0.2346 -0.2866  0.4472
    1DPPC   C2B17542  18.261  12.838   3.380 -0.1085 -0.0261  0.0601
    1DPPC   C3B17543  18.125  12.742   3.766  0.0017  0.0923  0.0164
    1DPPC   C4B17544  17.993  12.636   4.199  0.0080  0.2647 -0.0607
    1DPPC   NC317545  17.243  20.481   2.931 -0.1656  0.0351  0.2968
    1DPPC   PO417546  17.752  20.424   2.994 -0.1398 -0.1793  0.1858
    1DPPC   GL117547  17.589  20.334   3.297  0.1447 -0.2861  0.0367
    1DPPC   GL217548  17.454  20.052   3.265  0.0707 -0.1807 -0.4030
    1DPPC   C1A17549  17.485  20.210   3.789 -0.0031 -0.0623 -0.2438
    1DPPC   C2A17550  17.504  20.150   4.235  0.1354 -0.1331 -0.1370
    1DPPC   C3A17551  17.320  20.067   4.621 -0.0312  0.1818 -0.0039
    1DPPC   C4A17552  17.308  20.136   5.063  0.0807 -0.0870  0.1630
    1DPPC   C1B17553  17.683  19.809   3.608 -0.0393  0.0127 -0.2727
    1DPPC   C2B17554  17.564  19.597   3.946 -0.0395 -0.2693 -0.1439
    1DPPC   C3B17555  17.543  19.650   4.393  0.1745 -0.0759  0.0867
    1DPPC   C4B17556  17.236  19.636   4.780  0.0115 -0.1476 -0.0212
    1DPPC   NC317557  16.102   1.342   3.323  0.2406  0.1475 -0.0878
    1DPPC   PO417558  16.130   0.918   3.384 -0.2284 -0.2089  0.1493
    1DPPC   GL117559  16.439   1.064   3.596  0.1765 -0.0866 -0.0709
    1DPPC   GL217560  16.375   1.370   3.731  0.2994  0.2678  0.1055
    1DPPC   C1A17561  16.642   0.924   4.008 -0.3023  0.2608  0.0720
    1DPPC   C2A17562  16.780   0.601   4.316 -0.0695 -0.0647 -0.0766
    1DPPC   C3A17563  16.885   0.201   4.566  0.1306 -0.0006  0.0321
    1DPPC   C4A17564  16.648  -0.315   4.580 -0.1005  0.0696  0.0502
    1DPPC   C1B17565  16.668   1.530   3.947 -0.0395  0.0835  0.3749
    1DPPC   C2B17566  16.676   1.891   4.084 -0.2543 -0.1467 -0.1524
    1DPPC   C3B17567  16.912   2.111   4.378  0.0446 -0.0581 -0.0637
    1DPPC   C4B17568  17.164   2.300   4.707 -0.5279 -0.1781 -0.2030
    1DPPC   NC317569  10.636   9.545   2.241 -0.1521 -0.4018 -0.0597
    1DPPC   PO417570  10.659   9.755   2.747 -0.0424  0.1438  0.1604
    1DPPC   GL117571  10.581   9.498   3.066 -0.0403 -0.0976  0.0504
    1DPPC   GL217572  10.817   9.203   3.030  0.0702 -0.0659 -0.0290
    1DPPC   C1A17573  10.676   9.524   3.423 -0.1953  0.1506 -0.2442
    1DPPC   C2A17574  10.838   9.458   3.825  0.1623  0.2515 -0.1005
    1DPPC   C3A17575  10.915   9.491   4.293 -0.0300 -0.1979 -0.4619
    1DPPC   C4A17576  10.885   9.435   4.704 -0.1164 -0.0144  0.0366
    1DPPC   C1B17577  11.051   9.118   3.401 -0.4330 -0.0278  0.1824
    1DPPC   C2B17578  11.203   9.061   3.846 -0.0228 -0.0881 -0.1297
    1DPPC   C3B17579  11.444   9.071   4.236 -0.1730  0.1589 -0.0101
    1DPPC   C4B17580  11.696   8.972   4.552 -0.1708 -0.1172 -0.1430
    1DPPC   NC317581  11.613  12.665   2.599  0.1452 -0.0913 -0.0392
    1DPPC   PO417582  11.247  12.614   2.424  0.0718  0.0155 -0.0812
    1DPPC   GL117583  11.256  12.709   2.939  0.2035 -0.1176  0.2044
    1DPPC   GL217584  11.161  12.455   3.180  0.0208 -0.1467  0.3612
    1DPPC   C1A17585  11.556  12.702   3.322 -0.2648 -0.0727  0.3098
    1DPPC   C2A17586  11.721  12.749   3.637 -0.3214  0.0811  0.0435
    1DPPC   C3A17587  11.819  12.631   4.040  0.1929  0.2052  0.0575
    1DPPC   C4A17588  11.784  12.803   4.426  0.1022  0.1960 -0.3564
    1DPPC   C1B17589  11.219  12.490   3.665 -0.1210 -0.2088  0.2781
    1DPPC   C2B17590  11.254  12.592   4.047  0.0545 -0.0602  0.2358
    1DPPC   C3B17591  11.322  12.636   4.520 -0.1704  0.2133  0.1967
    1DPPC   C4B17592  11.597  12.520   4.834 -0.1706  0.1597  0.0649
    1DPPC   NC317593  23.222  12.522   2.178 -0.0822 -0.1559 -0.1290
    1DPPC   PO417594  23.358  12.427   2.606 -0.0001 -0.1518 -0.1196
    1DPPC   GL117595  23.390  12.331   3.025 -0.0646 -0.0860 -0.1443
    1DPPC   GL217596  23.390  12.017   3.116 -0.1498 -0.2068 -0.0554
    1DPPC   C1A17597  23.406  12.326   3.465  0.0453 -0.0554  0.1986
    1DPPC   C2A17598  23.514  12.481   3.877  0.1973 -0.0805  0.0011
    1DPPC   C3A17599  23.896  12.609   4.066  0.0469  0.0268 -0.1486
    1DPPC   C4A17600  24.192  12.686   4.359 -0.1362 -0.0701  0.3175
    1DPPC   C1B17601  23.073  11.863   3.392 -0.1821 -0.0010  0.1253
    1DPPC   C2B17602  22.826  11.849   3.702  0.1710  0.1771  0.0888
    1DPPC   C3B17603  22.787  12.081   4.079 -0.1546 -0.0177 -0.2382
    1DPPC   C4B17604  22.663  12.313   4.494 -0.1229 -0.2220 -0.0005
    1DPPC   NC317605  23.570  17.902   2.658  0.0144  0.2903 -0.0739
    1DPPC   PO417606  23.725  18.245   2.467  0.1037  0.1308 -0.1064
    1DPPC   GL117607  23.736  18.289   2.907 -0.2244  0.0638 -0.0304
    1DPPC   GL217608  23.831  17.965   3.064 -0.0194 -0.0374 -0.0152
    1DPPC   C1A17609  23.740  18.346   3.375  0.0434  0.0943 -0.3951
    1DPPC   C2A17610  23.871  18.180   3.818 -0.2300  0.0539  0.1170
    1DPPC   C3A17611  23.988  17.907   4.092  0.0518 -0.2871  0.0003
    1DPPC   C4A17612  24.022  17.572   4.254  0.2587  0.3250  0.0544
    1DPPC   C1B17613  24.182  18.094   3.435 -0.1150  0.1303  0.1157
    1DPPC   C2B17614  24.427  18.142   3.858 -0.0886  0.1125  0.2778
    1DPPC   C3B17615  24.321  18.238   4.248  0.4456  0.1963 -0.1308
    1DPPC   C4B17616  24.275  18.436   4.648  0.1760  0.0470  0.0107
    1DPPC   NC317617  10.706  11.955   2.902 -0.1860  0.1525  0.0574
    1DPPC   PO417618  11.112  11.736   2.778 -0.1247  0.2593  0.0568
    1DPPC   GL117619  11.174  11.930   3.197  0.0608  0.1264  0.3878
    1DPPC   GL217620  10.940  11.726   3.429  0.1415  0.2488  0.1262
    1DPPC   C1A17621  11.329  11.928   3.618  0.0793  0.0732 -0.1474
    1DPPC   C2A17622  11.257  12.043   4.039 -0.1582  0.2755  0.0811
    1DPPC   C3A17623  11.231  12.034   4.556 -0.1003  0.1716 -0.1558
    1DPPC   C4A17624  11.179  11.620   4.726 -0.1429  0.0448  0.0989
    1DPPC   C1B17625  10.956  11.633   3.844 -0.0621  0.1759 -0.0673
    1DPPC   C2B17626  10.974  11.529   4.284 -0.0499 -0.2135  0.0657
    1DPPC   C3B17627  10.816  11.358   4.697  0.2276  0.1172  0.0543
    1DPPC   C4B17628  10.445  11.237   4.953  0.0765 -0.0308 -0.0210
    1DPPC   NC317629  21.407  20.692   2.650  0.2025  0.0892 -0.2226
    1DPPC   PO417630  21.100  20.436   2.859  0.0570 -0.2346 -0.1625
    1DPPC   GL117631  21.284  20.120   3.090 -0.0393  0.1438 -0.2718
    1DPPC   GL217632  21.556  19.901   3.207  0.1671 -0.1669  0.1020
    1DPPC   C1A17633  21.120  19.924   3.487 -0.1952 -0.2972  0.1388
    1DPPC   C2A17634  20.940  19.927   3.864  0.0105 -0.0012 -0.2703
    1DPPC   C3A17635  20.939  19.953   4.314  0.0664 -0.1118 -0.1145
    1DPPC   C4A17636  21.024  20.333   4.614  0.0359  0.0228  0.2570
    1DPPC   C1B17637  21.560  19.658   3.553  0.1556  0.2695  0.2703
    1DPPC   C2B17638  21.402  19.643   3.982  0.1718 -0.0013  0.2447
    1DPPC   C3B17639  21.504  19.629   4.383 -0.1365 -0.1092 -0.0420
    1DPPC   C4B17640  21.560  19.552   4.898 -0.1229  0.0048  0.0651
    1DPPC   NC317641  17.242  16.716   2.179  0.1305  0.1640  0.0821
    1DPPC   PO417642  17.131  16.348   2.327 -0.0217  0.0472  0.0811
    1DPPC   GL117643  17.251  16.150   2.720  0.1612  0.0446  0.1582
    1DPPC   GL217644  17.445  15.901   2.576 -0.3590 -0.0586  0.0833
    1DPPC   C1A17645  17.345  16.119   3.199 -0.0842 -0.3281  0.4343
    1DPPC   C2A17646  17.200  16.191   3.612  0.5604  0.0445 -0.0613
    1DPPC   C3A17647  17.188  16.246   3.996 -0.0742 -0.3394  0.2782
    1DPPC   C4A17648  17.268  16.144   4.486  0.1264 -0.0814  0.0167
    1DPPC   C1B17649  17.471  15.677   2.975 -0.3789  0.2327  0.1384
    1DPPC   C2B17650  17.505  15.720   3.510  0.0298  0.1113  0.1011
    1DPPC   C3B17651  17.416  15.775   3.969 -0.1838  0.1782  0.0722
    1DPPC   C4B17652  17.485  15.626   4.341  0.2304  0.0069 -0.1523
    1DPPC   NC317653  22.699  19.868   2.920 -0.2519 -0.0813  0.2513
    1DPPC   PO417654  22.859  19.460   2.771  0.0621 -0.2870 -0.1932
    1DPPC   GL117655  22.570  19.355   3.214  0.0779  0.0132 -0.0232
    1DPPC   GL217656  22.375  19.618   3.292  0.2959  0.0355  0.1309
    1DPPC   C1A17657  22.696  19.158   3.592 -0.2011  0.0910 -0.1065
    1DPPC   C2A17658  22.878  19.078   3.937 -0.1086  0.2541 -0.1850
    1DPPC   C3A17659  22.847  19.009   4.409  0.1175  0.1348 -0.0860
    1DPPC   C4A17660  23.086  18.779   4.806 -0.5097  0.0468  0.1755
    1DPPC   C1B17661  22.454  19.655   3.631 -0.1535  0.1453  0.1329
    1DPPC   C2B17662  22.599  19.606   4.009 -0.0026  0.0172 -0.2471
    1DPPC   C3B17663  22.682  19.468   4.445  0.0194 -0.0480  0.0763
    1DPPC   C4B17664  22.766  19.242   4.868 -0.2637 -0.2970 -0.1439
    1DPPC   NC317665  11.851  17.942   2.437  0.5638  0.1649 -0.1575
    1DPPC   PO417666  11.405  17.769   2.244 -0.4162  0.1445 -0.2827
    1DPPC   GL117667  11.374  17.784   2.671  0.1692 -0.1431 -0.0322
    1DPPC   GL217668  11.139  17.949   2.872  0.0017 -0.1377  0.0393
    1DPPC   C1A17669  11.423  17.556   3.080  0.1452  0.0586  0.1104
    1DPPC   C2A17670  11.441  17.529   3.521  0.0572 -0.0453  0.0206
    1DPPC   C3A17671  11.376  17.478   3.848  0.3152  0.0939 -0.0252
    1DPPC   C4A17672  11.251  17.503   4.325  0.2368 -0.1426  0.1146
    1DPPC   C1B17673  11.163  17.902   3.348 -0.2136  0.0663 -0.1751
    1DPPC   C2B17674  11.260  17.944   3.746  0.0469 -0.0322 -0.2084
    1DPPC   C3B17675  11.133  17.944   4.129 -0.2966 -0.3428  0.0914
    1DPPC   C4B17676  11.375  17.998   4.480  0.1262  0.0451  0.0455
    1DPPC   NC317677   8.506  11.178   2.671 -0.1839  0.1251 -0.1253
    1DPPC   PO417678   8.624  11.256   3.136  0.1146 -0.0985  0.1439
    1DPPC   GL117679   8.320  11.246   3.482  0.0526 -0.2404  0.0189
    1DPPC   GL217680   8.136  11.016   3.368 -0.0570  0.0238  0.1347
    1DPPC   C1A17681   8.553  11.319   3.890  0.0790 -0.3282 -0.1397
    1DPPC   C2A17682   8.475  11.464   4.308 -0.0191  0.0713  0.1598
    1DPPC   C3A17683   8.461  11.518   4.677 -0.1365 -0.0160  0.0104
    1DPPC   C4A17684   8.244  11.899   4.725 -0.1781  0.0633 -0.1521
    1DPPC   C1B17685   7.851  11.104   3.682 -0.1622  0.0449 -0.0021
    1DPPC   C2B17686   7.733  11.242   4.115  0.0119 -0.1447  0.1675
    1DPPC   C3B17687   7.711  11.112   4.625  0.1007  0.1000  0.0878
    1DPPC   C4B17688   7.517  10.824   4.955 -0.0272  0.1246  0.1100
    1DPPC   NC317689  28.917  23.408   2.190 -0.2816 -0.3958  0.0071
    1DPPC   PO417690  28.590  23.356   2.641  0.0253  0.1055  0.1929
    1DPPC   GL117691  28.618  23.575   3.148  0.1815 -0.0132  0.1147
    1DPPC   GL217692  28.394  23.690   3.309 -0.0225 -0.3632 -0.0965
    1DPPC   C1A17693  28.809  23.571   3.456 -0.0186 -0.2498 -0.0483
    1DPPC   C2A17694  29.071  23.504   3.716 -0.3304 -0.0534 -0.0851
    1DPPC   C3A17695  29.393  23.425   3.878  0.2721  0.0049 -0.0976
    1DPPC   C4A17696  29.754  23.335   4.102  0.0837  0.3111  0.1655
    1DPPC   C1B17697  28.073  23.450   3.544  0.2592 -0.0694  0.4340
    1DPPC   C2B17698  27.862  23.447   3.933 -0.0126 -0.0649 -0.1000
    1DPPC   C3B17699  27.907  23.548   4.387  0.0499 -0.0851 -0.0241
    1DPPC   C4B17700  28.030  23.663   4.828  0.1788  0.0277 -0.1209
    1DPPC   NC317701   9.886  11.390   2.796 -0.1911  0.1131  0.0745
    1DPPC   PO417702   9.971  10.963   2.769  0.2184  0.1215 -0.2077
    1DPPC   GL117703  10.059  10.723   3.200  0.0975 -0.2214 -0.3790
    1DPPC   GL217704  10.015  10.387   3.135  0.0257  0.1877  0.2966
    1DPPC   C1A17705  10.159  10.983   3.614 -0.1219 -0.1875 -0.0342
    1DPPC   C2A17706  10.241  10.949   4.080 -0.1646  0.0430 -0.1027
    1DPPC   C3A17707  10.277  11.021   4.517 -0.1555 -0.0759 -0.2512
    1DPPC   C4A17708  10.589  10.774   4.746 -0.0046 -0.2466  0.1423
    1DPPC   C1B17709  10.091  10.419   3.604 -0.3946  0.2875 -0.3308
    1DPPC   C2B17710  10.173  10.429   4.038  0.2316  0.1782  0.0569
    1DPPC   C3B17711  10.263  10.502   4.469 -0.0343 -0.0832 -0.0878
    1DPPC   C4B17712  10.375  10.332   4.825 -0.0954 -0.3357  0.2050
    1DPPC   NC317713  16.461  18.369   2.359 -0.2351 -0.0574 -0.0954
    1DPPC   PO417714  16.300  18.863   2.321 -0.1034 -0.2510  0.1166
    1DPPC   GL117715  16.207  19.087   2.661  0.0282 -0.0575 -0.0910
    1DPPC   GL217716  16.344  19.365   2.629 -0.1411 -0.3363 -0.1883
    1DPPC   C1A17717  16.279  19.061   3.104  0.2675  0.2847  0.0339
    1DPPC   C2A17718  16.173  18.999   3.562  0.1832 -0.0122  0.1508
    1DPPC   C3A17719  16.184  19.180   4.058  0.0950 -0.1006 -0.1648
    1DPPC   C4A17720  16.024  19.110   4.522  0.4032 -0.0243 -0.2491
    1DPPC   C1B17721  16.187  19.530   3.195  0.0763 -0.0649  0.3763
    1DPPC   C2B17722  16.106  19.525   3.625 -0.0996 -0.0983 -0.3088
    1DPPC   C3B17723  16.144  19.675   4.071 -0.0383  0.1648 -0.0325
    1DPPC   C4B17724  15.955  19.665   4.450 -0.1614  0.1948  0.2033
    1DPPC   NC317725  19.018  17.023   2.257 -0.0725  0.0676 -0.0447
    1DPPC   PO417726  19.272  17.286   2.537 -0.0234 -0.0047  0.1838
    1DPPC   GL117727  19.481  17.295   2.894  0.0948  0.1969  0.3208
    1DPPC   GL217728  19.326  17.082   3.063  0.0364 -0.0234 -0.0907
    1DPPC   C1A17729  19.879  17.096   3.179 -0.0063 -0.1741  0.2534
    1DPPC   C2A17730  19.970  17.102   3.617  0.0067  0.2150  0.0062
    1DPPC   C3A17731  19.945  16.903   4.029 -0.1083  0.0974 -0.0474
    1DPPC   C4A17732  19.898  17.140   4.473 -0.0076 -0.1760  0.0216
    1DPPC   C1B17733  19.477  16.962   3.424 -0.2019 -0.2343  0.0657
    1DPPC   C2B17734  19.494  16.978   3.852 -0.2326 -0.0497  0.2919
    1DPPC   C3B17735  19.543  16.826   4.267  0.1370 -0.1386  0.1812
    1DPPC   C4B17736  19.434  16.990   4.630 -0.2522  0.0226 -0.1443
    1DPPC   NC317737  21.050  17.054   2.186  0.0169 -0.1685 -0.1412
    1DPPC   PO417738  21.441  17.279   2.362  0.1989  0.0794 -0.0454
    1DPPC   GL117739  21.594  17.214   2.757  0.0182  0.0645 -0.1609
    1DPPC   GL217740  21.817  17.065   2.634 -0.1223  0.0528  0.2237
    1DPPC   C1A17741  21.403  17.013   3.155 -0.1707  0.2687 -0.1486
    1DPPC   C2A17742  21.413  16.969   3.618 -0.0019  0.1740  0.3054
    1DPPC   C3A17743  21.356  16.839   3.942 -0.0090  0.0599  0.2679
    1DPPC   C4A17744  21.513  16.907   4.381  0.0588  0.0985  0.0366
    1DPPC   C1B17745  22.145  17.009   3.009 -0.3026 -0.0990  0.0532
    1DPPC   C2B17746  22.275  16.902   3.435 -0.0975  0.4535  0.0823
    1DPPC   C3B17747  22.387  16.934   3.892 -0.2563  0.2854  0.1836
    1DPPC   C4B17748  22.611  17.040   4.344  0.1720 -0.2022 -0.1017
    1DPPC   NC317749  14.689  14.189   1.972  0.0874 -0.0665  0.2456
    1DPPC   PO417750  14.583  14.338   2.431 -0.1381  0.1809  0.1114
    1DPPC   GL117751  14.372  14.409   2.802  0.0890 -0.3480 -0.1317
    1DPPC   GL217752  14.219  14.144   2.820  0.1918  0.0573  0.0370
    1DPPC   C1A17753  14.317  14.496   3.257  0.1237  0.0347 -0.1100
    1DPPC   C2A17754  14.333  14.439   3.599  0.1391  0.1377 -0.1821
    1DPPC   C3A17755  14.491  14.401   4.020 -0.3038 -0.0147 -0.1032
    1DPPC   C4A17756  14.376  14.254   4.386 -0.1373 -0.0085  0.2518
    1DPPC   C1B17757  14.051  14.019   3.195  0.2133  0.1168 -0.1672
    1DPPC   C2B17758  14.173  13.940   3.530 -0.0636 -0.3090  0.2828
    1DPPC   C3B17759  14.225  14.009   3.876  0.0605 -0.0379 -0.1461
    1DPPC   C4B17760  14.110  13.804   4.258 -0.0098  0.0118  0.0420
    1DPPC   NC317761  22.646  12.906   1.781 -0.3332 -0.1080  0.4787
    1DPPC   PO417762  22.613  12.800   2.195 -0.0541 -0.2900  0.0592
    1DPPC   GL117763  22.552  12.866   2.679  0.3765 -0.0467  0.1969
    1DPPC   GL217764  22.393  12.620   2.748  0.1350 -0.1984  0.2233
    1DPPC   C1A17765  22.676  12.983   3.015  0.1769  0.0002  0.1848
    1DPPC   C2A17766  22.561  12.966   3.429 -0.1609 -0.0320  0.0934
    1DPPC   C3A17767  22.607  12.853   3.900 -0.0255  0.0761  0.0621
    1DPPC   C4A17768  22.818  12.951   4.213 -0.1428  0.0375 -0.1261
    1DPPC   C1B17769  22.319  12.662   3.169  0.0607 -0.2725 -0.1779
    1DPPC   C2B17770  22.257  12.633   3.608 -0.2493  0.3155 -0.0987
    1DPPC   C3B17771  22.391  12.357   4.020  0.2698 -0.3601 -0.0310
    1DPPC   C4B17772  22.166  12.220   4.334 -0.0364 -0.3184 -0.2335
    1DPPC   NC317773  13.047  21.203   2.461  0.1384  0.0836  0.0627
    1DPPC   PO417774  12.970  20.856   2.377 -0.1617 -0.1736  0.2233
    1DPPC   GL117775  13.336  20.793   2.634  0.2547 -0.0215 -0.0956
    1DPPC   GL217776  13.492  21.080   2.658  0.1475  0.0329  0.1187
    1DPPC   C1A17777  13.426  20.491   2.980  0.1156  0.2724 -0.1213
    1DPPC   C2A17778  13.379  20.057   3.154 -0.2162 -0.0775  0.2973
    1DPPC   C3A17779  13.237  19.997   3.525  0.1009 -0.1862 -0.1394
    1DPPC   C4A17780  13.110  19.989   3.906 -0.1431 -0.1369 -0.1676
    1DPPC   C1B17781  13.486  21.147   3.089 -0.0766 -0.2699  0.0491
    1DPPC   C2B17782  13.504  20.812   3.380  0.1511  0.0521 -0.1805
    1DPPC   C3B17783  13.301  20.886   3.733  0.3224 -0.0523 -0.4406
    1DPPC   C4B17784  13.346  20.894   4.157 -0.1132 -0.2409  0.3282
    1DPPC   NC317785  16.605  20.872   2.379 -0.2049  0.0295 -0.2053
    1DPPC   PO417786  16.424  20.445   2.434  0.2206 -0.0426  0.1377
    1DPPC   GL117787  16.238  20.777   2.698 -0.0468  0.0883 -0.5222
    1DPPC   GL217788  16.257  21.159   2.702 -0.1322 -0.2662 -0.0146
    1DPPC   C1A17789  16.317  20.890   3.123  0.0357  0.0508  0.0372
    1DPPC   C2A17790  16.558  21.109   3.447 -0.0651  0.1014 -0.1543
    1DPPC   C3A17791  16.448  21.196   3.853 -0.1007 -0.1005 -0.3545
    1DPPC   C4A17792  16.513  21.049   4.235 -0.4822 -0.0228  0.2451
    1DPPC   C1B17793  16.609  21.290   3.005 -0.1210 -0.0789  0.0517
    1DPPC   C2B17794  16.767  21.597   3.296 -0.3343  0.0887 -0.2773
    1DPPC   C3B17795  16.707  21.589   3.679 -0.0147 -0.0046 -0.3552
    1DPPC   C4B17796  16.634  21.528   4.204 -0.2490 -0.0143 -0.0827
    1DPPC   NC317797  15.055  16.885   2.292 -0.0936  0.1187 -0.1699
    1DPPC   PO417798  14.621  16.623   2.328 -0.1619  0.0278 -0.1543
    1DPPC   GL117799  14.343  16.599   2.675 -0.0616 -0.1159 -0.2901
    1DPPC   GL217800  14.532  16.315   2.720 -0.1172  0.3951 -0.1382
    1DPPC   C1A17801  14.286  16.639   3.122  0.2182 -0.0985  0.1844
    1DPPC   C2A17802  14.352  16.688   3.585 -0.0671  0.1488 -0.2076
    1DPPC   C3A17803  14.238  16.884   3.975 -0.1785 -0.0184 -0.2440
    1DPPC   C4A17804  14.187  17.030   4.407 -0.1450  0.2500 -0.0844
    1DPPC   C1B17805  14.648  16.267   3.120  0.0767 -0.1114  0.1487
    1DPPC   C2B17806  14.562  16.304   3.472  0.1740 -0.1896 -0.0311
    1DPPC   C3B17807  14.638  16.352   3.862 -0.1537  0.4161  0.1702
    1DPPC   C4B17808  14.542  16.580   4.211  0.0201  0.2352 -0.0107
    1DPPC   NC317809  15.487  20.395   2.333  0.2017  0.1402 -0.3884
    1DPPC   PO417810  15.808  20.012   2.316  0.5079 -0.0273 -0.0800
    1DPPC   GL117811  15.982  20.252   2.611  0.0647 -0.1365 -0.0172
    1DPPC   GL217812  15.608  20.217   2.812 -0.0255  0.0529  0.0490
    1DPPC   C1A17813  16.087  20.371   2.979  0.1778  0.3018  0.2110
    1DPPC   C2A17814  16.068  20.452   3.414  0.1578  0.1266 -0.1010
    1DPPC   C3A17815  16.189  20.776   3.711  0.1364  0.0395  0.2721
    1DPPC   C4A17816  15.963  21.168   3.773  0.0343  0.0571  0.1650
    1DPPC   C1B17817  15.651  20.319   3.227 -0.0832 -0.1631  0.1511
    1DPPC   C2B17818  15.650  20.393   3.717 -0.1629 -0.3554  0.0062
    1DPPC   C3B17819  15.582  20.356   4.183 -0.0858 -0.1223  0.2036
    1DPPC   C4B17820  15.425  20.512   4.527 -0.1813 -0.0697  0.1556
    1DPPC   NC317821  19.102  16.111   1.764  0.5321  0.2148 -0.2205
    1DPPC   PO417822  18.879  16.158   2.116 -0.2877  0.1191 -0.1480
    1DPPC   GL117823  18.771  15.906   2.463  0.2078  0.2873  0.0283
    1DPPC   GL217824  18.803  15.573   2.448  0.0184  0.0536  0.3161
    1DPPC   C1A17825  18.649  15.736   2.895 -0.1363  0.1976  0.0759
    1DPPC   C2A17826  18.498  15.818   3.315 -0.1353 -0.0545  0.2112
    1DPPC   C3A17827  18.484  15.669   3.633 -0.0709  0.2034 -0.2103
    1DPPC   C4A17828  18.528  15.498   4.016  0.1900 -0.1002  0.2649
    1DPPC   C1B17829  18.855  15.271   2.764 -0.0876  0.2450  0.2164
    1DPPC   C2B17830  18.754  15.347   3.211  0.0456  0.2546  0.2143
    1DPPC   C3B17831  18.871  15.262   3.685 -0.0815 -0.1635 -0.2561
    1DPPC   C4B17832  18.892  15.139   4.111 -0.0898 -0.2420 -0.2620
    1DPPC   NC317833  20.135  16.745   2.386 -0.0486 -0.5232  0.3749
    1DPPC   PO417834  20.542  16.469   2.309 -0.1734  0.0928  0.1076
    1DPPC   GL117835  20.534  16.526   2.714 -0.2674 -0.0268 -0.0733
    1DPPC   GL217836  20.212  16.369   2.792  0.1691 -0.0025  0.0057
    1DPPC   C1A17837  20.622  16.406   3.071 -0.1020 -0.0903  0.0609
    1DPPC   C2A17838  20.556  16.354   3.461 -0.0932 -0.1110 -0.0912
    1DPPC   C3A17839  20.818  16.287   3.853  0.1297  0.0315 -0.0372
    1DPPC   C4A17840  20.764  16.331   4.265 -0.1789 -0.0661  0.2783
    1DPPC   C1B17841  20.123  16.617   3.253 -0.3713  0.2274  0.1114
    1DPPC   C2B17842  20.230  16.653   3.722  0.1511 -0.2832 -0.0965
    1DPPC   C3B17843  20.413  16.580   4.022 -0.1091  0.1900 -0.3369
    1DPPC   C4B17844  20.182  16.702   4.415 -0.1009  0.3882 -0.2681
    1DPPC   NC317845   9.158  18.214   2.105  0.1069 -0.0656  0.1927
    1DPPC   PO417846   9.267  18.522   2.415  0.2677 -0.0680 -0.2775
    1DPPC   GL117847   9.112  18.745   2.696  0.2079  0.2226  0.0842
    1DPPC   GL217848   9.193  19.078   2.709  0.1781 -0.0521  0.0054
    1DPPC   C1A17849   8.976  18.795   3.062 -0.2169 -0.1333 -0.1031
    1DPPC   C2A17850   8.940  18.860   3.519 -0.0586 -0.2098 -0.0119
    1DPPC   C3A17851   9.267  18.943   3.827  0.1886  0.0880  0.0932
    1DPPC   C4A17852   9.656  18.937   3.852 -0.1014  0.0307 -0.1791
    1DPPC   C1B17853   9.487  19.082   2.929 -0.2039 -0.0457 -0.0404
    1DPPC   C2B17854   9.538  19.090   3.395  0.2915 -0.1650 -0.0123
    1DPPC   C3B17855   9.515  19.445   3.792 -0.0296  0.0522  0.5062
    1DPPC   C4B17856   9.405  19.767   3.958  0.0382  0.1926  0.0711
    1DPPC   NC317857  15.851   7.652   2.326 -0.1581 -0.1395  0.0920
    1DPPC   PO417858  16.235   7.472   2.563 -0.1652  0.0440  0.1001
    1DPPC   GL117859  16.204   7.324   2.994 -0.0241 -0.2766 -0.0021
    1DPPC   GL217860  16.432   7.124   3.000  0.0069  0.2957 -0.1715
    1DPPC   C1A17861  16.131   7.102   3.394 -0.2032 -0.0149 -0.3374
    1DPPC   C2A17862  16.122   7.118   3.895  0.1349 -0.1906 -0.2875
    1DPPC   C3A17863  16.163   6.930   4.247  0.0799 -0.0506 -0.0294
    1DPPC   C4A17864  16.202   6.933   4.715  0.0932  0.0903 -0.2768
    1DPPC   C1B17865  16.569   7.304   3.473  0.0583  0.0430 -0.1160
    1DPPC   C2B17866  16.498   7.428   3.869  0.2827 -0.0833 -0.1235
    1DPPC   C3B17867  16.305   7.438   4.335  0.0431 -0.1730  0.2024
    1DPPC   C4B17868  16.508   7.385   4.665  0.0054  0.1602  0.4071
    1DPPC   NC317869  25.099  13.297   2.184 -0.3424  0.1693  0.4200
    1DPPC   PO417870  24.645  13.418   2.288 -0.1526 -0.0652 -0.3265
    1DPPC   GL117871  24.872  13.337   2.744 -0.1702 -0.1330 -0.1281
    1DPPC   GL217872  25.064  13.119   2.666 -0.1720 -0.2484 -0.1500
    1DPPC   C1A17873  24.792  13.237   3.207 -0.0401 -0.2816 -0.1625
    1DPPC   C2A17874  25.024  13.177   3.580  0.0137  0.0467  0.3373
    1DPPC   C3A17875  24.889  13.347   3.937 -0.1463 -0.1950 -0.0667
    1DPPC   C4A17876  24.707  13.239   4.251 -0.4020  0.5417  0.1262
    1DPPC   C1B17877  25.304  13.174   3.103  0.0368 -0.3036 -0.0542
    1DPPC   C2B17878  25.486  12.948   3.449  0.2343  0.1606 -0.1163
    1DPPC   C3B17879  25.313  12.928   3.922  0.2110 -0.0741  0.1276
    1DPPC   C4B17880  25.225  13.024   4.313  0.0782 -0.0161  0.1333
    1DPPC   NC317881  12.618   8.966   2.418  0.2652  0.1624 -0.1743
    1DPPC   PO417882  12.577   9.288   2.799  0.0926  0.0497  0.0525
    1DPPC   GL117883  12.347   9.321   3.151  0.4456  0.2121  0.0569
    1DPPC   GL217884  12.342   9.102   3.228 -0.0287  0.2523  0.0927
    1DPPC   C1A17885  12.412   9.560   3.596  0.0225 -0.2784  0.1219
    1DPPC   C2A17886  12.475   9.603   4.042 -0.0604 -0.0517  0.1652
    1DPPC   C3A17887  12.479   9.709   4.459  0.0380  0.0397 -0.2405
    1DPPC   C4A17888  12.517   9.904   4.889 -0.0395 -0.2933 -0.1081
    1DPPC   C1B17889  12.484   9.039   3.611  0.1252  0.3323 -0.0854
    1DPPC   C2B17890  12.534   9.091   4.054  0.0540 -0.2432  0.1643
    1DPPC   C3B17891  12.600   9.208   4.446 -0.1721 -0.0125  0.0659
    1DPPC   C4B17892  12.829   9.291   4.830 -0.0576  0.2479 -0.1410
    1DPPC   NC317893  19.847  19.067   2.323 -0.0119 -0.0889 -0.0050
    1DPPC   PO417894  19.618  19.277   2.726 -0.2895  0.0902 -0.0400
    1DPPC   GL117895  19.732  19.389   3.180  0.1150 -0.1547  0.1549
    1DPPC   GL217896  19.924  19.656   3.121 -0.1895 -0.2680 -0.2153
    1DPPC   C1A17897  19.674  19.316   3.620 -0.0114 -0.0858 -0.3611
    1DPPC   C2A17898  19.553  19.228   4.067  0.2655  0.1215 -0.1291
    1DPPC   C3A17899  19.624  19.514   4.477  0.0777  0.0413 -0.3378
    1DPPC   C4A17900  19.728  19.658   4.884  0.2108  0.1295  0.0569
    1DPPC   C1B17901  20.102  19.582   3.594 -0.1219  0.0397 -0.4570
    1DPPC   C2B17902  20.032  19.499   4.041 -0.1377  0.3734 -0.0102
    1DPPC   C3B17903  20.263  19.204   4.467 -0.0634 -0.1174 -0.0631
    1DPPC   C4B17904  20.474  19.175   4.885 -0.0551 -0.0083 -0.1738
    1DPPC   NC317905  23.989  23.520   3.192  0.1724  0.0036  0.2917
    1DPPC   PO417906  24.387  23.328   3.169 -0.0924  0.0548  0.1082
    1DPPC   GL117907  24.358  23.720   3.476 -0.0190  0.1882 -0.0194
    1DPPC   GL217908  24.063  23.836   3.754 -0.2790  0.0672 -0.0308
    1DPPC   C1A17909  24.570  23.880   3.817  0.2471 -0.3310  0.0433
    1DPPC   C2A17910  24.630  24.084   4.287  0.0625  0.0818  0.0006
    1DPPC   C3A17911  25.126  24.079   4.469 -0.0205  0.0011  0.1192
    1DPPC   C4A17912  25.552  24.081   4.423 -0.0488 -0.1203  0.0162
    1DPPC   C1B17913  24.100  23.801   4.204 -0.1560 -0.0658 -0.0438
    1DPPC   C2B17914  24.409  23.757   4.560 -0.1231  0.1572  0.1347
    1DPPC   C3B17915  24.875  23.731   4.756  0.1150  0.0365 -0.0121
    1DPPC   C4B17916  25.338  23.741   4.819  0.0437 -0.0973 -0.1218
    1DPPC   NC317917   5.791  15.980   2.375 -0.3412  0.0780  0.2535
    1DPPC   PO417918   6.035  16.341   2.202 -0.2107  0.1545  0.1213
    1DPPC   GL117919   6.130  16.194   2.697  0.1789 -0.1108 -0.1799
    1DPPC   GL217920   5.790  16.292   2.842  0.0759  0.1188  0.1618
    1DPPC   C1A17921   6.224  15.749   2.967 -0.1118 -0.3581  0.0424
    1DPPC   C2A17922   6.286  15.594   3.431  0.2099 -0.0196  0.1825
    1DPPC   C3A17923   6.278  15.337   3.860 -0.4984  0.0003 -0.0063
    1DPPC   C4A17924   6.160  15.262   4.266  0.0179  0.0340 -0.3180
    1DPPC   C1B17925   5.603  16.328   3.278 -0.1278  0.0772  0.3732
    1DPPC   C2B17926   5.426  16.015   3.523  0.0079  0.1925 -0.2010
    1DPPC   C3B17927   5.027  16.101   3.715  0.0688  0.0059  0.1324
    1DPPC   C4B17928   4.790  16.512   3.833  0.0212 -0.0199 -0.0775
    1DPPC   NC317929  20.952  19.387   2.022 -0.1564  0.2259 -0.0914
    1DPPC   PO417930  21.038  19.243   2.509  0.1239 -0.2206 -0.0025
    1DPPC   GL117931  21.093  19.168   2.916  0.1418 -0.2171  0.2230
    1DPPC   GL217932  21.066  18.909   3.051  0.1143  0.1322 -0.0406
    1DPPC   C1A17933  21.182  19.434   3.317  0.1304 -0.0874  0.1009
    1DPPC   C2A17934  21.023  19.418   3.687 -0.2677 -0.0624 -0.1957
    1DPPC   C3A17935  21.017  19.323   4.059 -0.0308  0.1724 -0.0581
    1DPPC   C4A17936  21.102  19.385   4.606  0.3338 -0.2965 -0.0140
    1DPPC   C1B17937  21.111  18.956   3.412 -0.0534  0.0143  0.2846
    1DPPC   C2B17938  21.115  18.846   3.778  0.2861 -0.1170  0.6370
    1DPPC   C3B17939  21.077  18.801   4.192  0.0776  0.1551 -0.0207
    1DPPC   C4B17940  21.023  18.627   4.616  0.1927 -0.0388 -0.2105
    1DPPC   NC317941  20.204   9.594   2.635 -0.1061 -0.0223 -0.0019
    1DPPC   PO417942  19.830   9.366   2.435 -0.0545  0.1702  0.2267
    1DPPC   GL117943  19.468   9.505   2.727  0.0494  0.1223  0.2905
    1DPPC   GL217944  19.703   9.517   2.952 -0.0011 -0.1408  0.0637
    1DPPC   C1A17945  19.174   9.437   3.110  0.3196  0.1117 -0.1457
    1DPPC   C2A17946  19.147   9.334   3.658  0.1713 -0.0995  0.1117
    1DPPC   C3A17947  19.334   9.078   3.993  0.0092 -0.1620 -0.0727
    1DPPC   C4A17948  19.463   8.697   4.016  0.1983 -0.1582 -0.3273
    1DPPC   C1B17949  19.901   9.295   3.336 -0.1925  0.0496  0.0843
    1DPPC   C2B17950  19.997   9.004   3.743  0.0244 -0.1595 -0.3463
    1DPPC   C3B17951  19.961   8.686   4.116  0.3143  0.4597 -0.1300
    1DPPC   C4B17952  19.660   8.251   4.135  0.3137  0.2286 -0.3294
    1DPPC   NC317953  17.868  17.309   2.399  0.0552 -0.1895  0.0339
    1DPPC   PO417954  18.187  17.036   2.579  0.0462  0.0824 -0.0190
    1DPPC   GL117955  17.993  17.296   2.902 -0.5249 -0.0124 -0.2628
    1DPPC   GL217956  17.737  17.148   2.904 -0.1187  0.2046  0.2861
    1DPPC   C1A17957  18.090  17.289   3.324 -0.1527  0.1424 -0.1403
    1DPPC   C2A17958  18.139  17.285   3.760  0.0825  0.0461  0.3627
    1DPPC   C3A17959  18.065  17.159   4.103  0.2461  0.3450 -0.1438
    1DPPC   C4A17960  18.139  16.911   4.470 -0.0500  0.1540 -0.1526
    1DPPC   C1B17961  17.647  17.069   3.303 -0.1198 -0.0230  0.1813
    1DPPC   C2B17962  17.701  17.077   3.729  0.1078  0.0262 -0.0581
    1DPPC   C3B17963  17.542  17.112   4.190  0.0555 -0.0074 -0.1063
    1DPPC   C4B17964  17.804  17.273   4.540 -0.2415  0.1001  0.2112
    1DPPC   NC317965  21.978  10.504   2.710  0.0816  0.1004  0.0884
    1DPPC   PO417966  22.166  10.091   2.807  0.1746  0.1830 -0.0363
    1DPPC   GL117967  22.001  10.239   3.186  0.1114 -0.0326  0.1259
    1DPPC   GL217968  22.268  10.028   3.305  0.0391 -0.1085  0.3344
    1DPPC   C1A17969  21.913  10.261   3.548  0.2902  0.2341  0.0059
    1DPPC   C2A17970  21.592  10.162   3.779  0.0399  0.2404  0.1769
    1DPPC   C3A17971  21.452   9.750   3.999  0.3202 -0.1556  0.0029
    1DPPC   C4A17972  21.531   9.645   4.435 -0.1379 -0.0124  0.2301
    1DPPC   C1B17973  22.337  10.511   3.388 -0.1115  0.1157  0.1046
    1DPPC   C2B17974  22.508  10.877   3.424  0.0950 -0.4216 -0.2579
    1DPPC   C3B17975  22.776  11.067   3.661 -0.1251  0.0920  0.0854
    1DPPC   C4B17976  23.105  10.949   3.911 -0.0689  0.0313 -0.1244
    1DPPC   NC317977  12.377  16.312   2.121  0.2034 -0.1816  0.0601
    1DPPC   PO417978  12.478  16.767   2.263  0.0914 -0.2446  0.0223
    1DPPC   GL117979  12.517  16.697   2.707  0.0304  0.3057  0.0267
    1DPPC   GL217980  12.803  16.829   2.797 -0.0994  0.1426  0.1466
    1DPPC   C1A17981  12.574  16.530   3.153 -0.0246  0.3123  0.0272
    1DPPC   C2A17982  12.617  16.661   3.618  0.0249 -0.1758 -0.0260
    1DPPC   C3A17983  12.606  16.642   4.038 -0.1252  0.2964 -0.1033
    1DPPC   C4A17984  12.617  16.632   4.517  0.2099  0.6079  0.1212
    1DPPC   C1B17985  12.731  17.046   3.249  0.0884 -0.2286  0.1215
    1DPPC   C2B17986  12.794  17.139   3.602 -0.1611  0.0999  0.0327
    1DPPC   C3B17987  12.658  17.111   4.030 -0.1739  0.1515  0.3106
    1DPPC   C4B17988  12.828  17.079   4.363  0.0809 -0.0059  0.1779
    1DPPC   NC317989  11.813   1.230   3.878 -0.1007  0.0486  0.1911
    1DPPC   PO417990  11.406   1.218   3.625 -0.0110 -0.2368 -0.0330
    1DPPC   GL117991  11.253   0.993   3.926  0.1986 -0.0037 -0.0413
    1DPPC   GL217992  11.516   0.912   4.105  0.0455 -0.0215 -0.2137
    1DPPC   C1A17993  11.068   0.822   4.243  0.0569  0.1766 -0.0982
    1DPPC   C2A17994  10.955   0.684   4.575 -0.1519 -0.0851 -0.0112
    1DPPC   C3A17995  10.543   0.698   4.810 -0.3323 -0.2207 -0.0700
    1DPPC   C4A17996  10.148   0.663   5.062  0.2217  0.0784  0.2266
    1DPPC   C1B17997  11.424   1.159   4.447 -0.0073 -0.0265 -0.3817
    1DPPC   C2B17998  11.273   1.068   4.834 -0.3624 -0.0946 -0.1621
    1DPPC   C3B17999  10.973   0.866   5.054 -0.0321 -0.3228  0.0573
    1DPPC   C4B18000  10.695   0.535   5.256  0.3050  0.0888 -0.2203
    1DPPC   NC318001  21.897  15.962   1.590 -0.2392 -0.0319  0.0826
    1DPPC   PO418002  21.880  16.289   1.940  0.0356 -0.0644 -0.0389
    1DPPC   GL118003  21.898  16.171   2.392 -0.1786  0.0898 -0.1194
    1DPPC   GL218004  21.619  16.325   2.557  0.0140 -0.0081  0.1755
    1DPPC   C1A18005  21.977  15.837   2.677  0.1035 -0.4049  0.1030
    1DPPC   C2A18006  21.979  15.776   3.074 -0.2120 -0.0516  0.0357
    1DPPC   C3A18007  21.948  15.490   3.417  0.2203 -0.1773  0.3753
    1DPPC   C4A18008  21.865  15.400   3.860  0.2463 -0.2243  0.2254
    1DPPC   C1B18009  21.626  16.197   3.087 -0.1878  0.1672 -0.2443
    1DPPC   C2B18010  21.663  16.027   3.470 -0.1571  0.1480 -0.1445
    1DPPC   C3B18011  21.607  16.056   3.903 -0.1420 -0.0370  0.0144
    1DPPC   C4B18012  21.513  16.407   4.182 -0.0050 -0.0202 -0.0487
    1DPPC   NC318013  14.358  19.464   1.903 -0.1064  0.0970 -0.2350
    1DPPC   PO418014  14.495  19.512   2.306 -0.1145 -0.2269  0.0350
    1DPPC   GL118015  14.606  19.483   2.620  0.0670 -0.3089  0.2749
    1DPPC   GL218016  14.720  19.656   2.945 -0.0226  0.2363  0.1180
    1DPPC   C1A18017  14.259  19.348   2.930  0.0878  0.0267 -0.2119
    1DPPC   C2A18018  14.079  19.314   3.289  0.1491  0.1346 -0.1209
    1DPPC   C3A18019  14.085  19.309   3.709 -0.1908 -0.1067 -0.1126
    1DPPC   C4A18020  14.299  19.355   4.075  0.0210 -0.2103 -0.0085
    1DPPC   C1B18021  14.840  19.715   3.379  0.1837 -0.1337  0.0322
    1DPPC   C2B18022  14.859  19.772   3.808 -0.2279  0.1430 -0.1338
    1DPPC   C3B18023  14.675  19.823   4.163  0.1816 -0.0252 -0.0526
    1DPPC   C4B18024  14.473  19.572   4.476  0.0454  0.0508  0.1628
    1DPPC   NC318025  10.089  29.183   3.286 -0.2528 -0.3392 -0.1698
    1DPPC   PO418026  10.381  29.532   3.306  0.1424  0.0578 -0.0776
    1DPPC   GL118027  10.728  29.474   3.572 -0.2476 -0.1475 -0.0481
    1DPPC   GL218028  10.713  29.777   3.702 -0.0092 -0.1556 -0.0889
    1DPPC   C1A18029  11.064  29.466   3.987  0.0159 -0.1636  0.2050
    1DPPC   C2A18030  10.894  29.549   4.489 -0.1720 -0.3065  0.2000
    1DPPC   C3A18031  11.020  29.456   4.846  0.0678  0.1226  0.1988
    1DPPC   C4A18032  10.880  29.489   5.306 -0.0196 -0.1683 -0.2656
    1DPPC   C1B18033  10.569  29.701   4.132  0.0392  0.0335 -0.0885
    1DPPC   C2B18034  10.531  29.907   4.532 -0.1199 -0.0465 -0.4267
    1DPPC   C3B18035  10.810  29.953   4.871 -0.1454 -0.0845  0.0360
    1DPPC   C4B18036  10.936  29.983   5.238  0.4205  0.4302 -0.1826
    1DPPC   NC318037   0.823  22.700   2.461  0.2236 -0.2918 -0.0801
    1DPPC   PO418038   0.639  23.088   2.531  0.0708  0.2556 -0.0647
    1DPPC   GL118039   0.579  22.815   2.897  0.4254 -0.0976  0.3688
    1DPPC   GL218040   0.420  22.551   2.793 -0.1323 -0.0141  0.2865
    1DPPC   C1A18041   0.228  22.771   3.216 -0.3349  0.0510  0.1667
    1DPPC   C2A18042  -0.025  22.617   3.552  0.1088 -0.0191  0.1311
    1DPPC   C3A18043  -0.293  22.253   3.801  0.2837 -0.1499  0.2215
    1DPPC   C4A18044  -0.652  22.402   4.119 -0.2854  0.0937  0.1182
    1DPPC   C1B18045   0.505  22.344   3.190 -0.0340  0.3820 -0.0947
    1DPPC   C2B18046   0.488  22.554   3.627  0.1596  0.1142 -0.0786
    1DPPC   C3B18047   0.224  22.510   3.994 -0.1314 -0.2700 -0.1487
    1DPPC   C4B18048  -0.080  22.370   4.251 -0.2269  0.0003  0.3365
    1DPPC   NC318049  12.937  16.622   2.406 -0.0979  0.0410  0.0716
    1DPPC   PO418050  12.773  16.233   2.469 -0.1253  0.0734 -0.0719
    1DPPC   GL118051  12.570  16.138   2.903  0.3228 -0.1688 -0.0263
    1DPPC   GL218052  12.500  15.869   2.966  0.1705  0.3223  0.0673
    1DPPC   C1A18053  12.575  16.076   3.398 -0.1026 -0.1851  0.1816
    1DPPC   C2A18054  12.582  16.143   3.826 -0.2168 -0.0835  0.0813
    1DPPC   C3A18055  12.564  16.188   4.245  0.0530 -0.0960 -0.1364
    1DPPC   C4A18056  12.486  16.057   4.679 -0.0686  0.0836 -0.2711
    1DPPC   C1B18057  12.354  15.639   3.285  0.0437  0.1243 -0.2872
    1DPPC   C2B18058  12.349  15.679   3.698 -0.0528  0.1587  0.1797
    1DPPC   C3B18059  12.386  15.700   4.115 -0.0631 -0.0868 -0.0625
    1DPPC   C4B18060  12.391  15.483   4.442 -0.0960 -0.1713  0.0908
    1DPPC   NC318061  12.672  17.556   2.486  0.0660  0.0108  0.0899
    1DPPC   PO418062  12.912  17.136   2.456 -0.0844 -0.2080 -0.0584
    1DPPC   GL118063  13.140  17.401   2.784  0.1241 -0.1555  0.0491
    1DPPC   GL218064  12.865  17.395   2.986 -0.1407  0.1753 -0.0159
    1DPPC   C1A18065  13.438  17.670   2.772 -0.0369 -0.1811  0.1626
    1DPPC   C2A18066  13.727  17.994   2.813 -0.1084  0.0057 -0.0622
    1DPPC   C3A18067  13.846  17.939   3.196  0.0611 -0.1203  0.1039
    1DPPC   C4A18068  14.034  17.748   3.555  0.1941 -0.1180  0.0964
    1DPPC   C1B18069  13.105  17.405   3.266  0.1808  0.1054  0.3828
    1DPPC   C2B18070  13.202  17.503   3.617 -0.0627  0.1678 -0.1866
    1DPPC   C3B18071  13.107  17.270   3.979 -0.1055 -0.0092  0.2937
    1DPPC   C4B18072  13.311  17.404   4.323  0.1239  0.0662  0.0776
    1DPPC   NC318073  11.586  15.832   1.977 -0.0745  0.1501 -0.0371
    1DPPC   PO418074  11.332  15.836   2.382 -0.1397 -0.1970 -0.3102
    1DPPC   GL118075  11.111  15.480   2.615  0.0253 -0.2028 -0.2836
    1DPPC   GL218076  11.113  15.151   2.501 -0.0227 -0.1086 -0.0424
    1DPPC   C1A18077  10.901  15.550   2.970  0.0837  0.0140  0.1572
    1DPPC   C2A18078  10.852  15.480   3.335 -0.3177 -0.3737 -0.2113
    1DPPC   C3A18079  10.805  15.556   3.785 -0.2179 -0.0996  0.0473
    1DPPC   C4A18080  10.690  15.426   4.262  0.1375  0.0906 -0.1488
    1DPPC   C1B18081  11.090  15.118   3.011  0.2254 -0.0411  0.1932
    1DPPC   C2B18082  11.112  15.092   3.407 -0.1462 -0.2639  0.3767
    1DPPC   C3B18083  11.146  15.183   3.884 -0.2102 -0.2255 -0.1305
    1DPPC   C4B18084  11.060  15.054   4.268  0.0129 -0.0862 -0.0695
    1DPPC   NC318085  18.564  19.076   2.695  0.1199 -0.0311  0.1142
    1DPPC   PO418086  18.596  19.628   2.775 -0.0545 -0.0089  0.0771
    1DPPC   GL118087  18.429  19.724   3.150  0.0964  0.2694 -0.2482
    1DPPC   GL218088  18.429  19.870   3.425 -0.2425 -0.2045 -0.0777
    1DPPC   C1A18089  18.082  19.402   3.368 -0.0695  0.0434 -0.3024
    1DPPC   C2A18090  18.026  19.400   3.821  0.2482  0.0383  0.1489
    1DPPC   C3A18091  18.023  19.505   4.346 -0.0390  0.2733  0.1486
    1DPPC   C4A18092  17.852  19.439   4.696  0.3654  0.0785  0.1345
    1DPPC   C1B18093  18.385  19.773   3.835  0.5217  0.3417  0.2837
    1DPPC   C2B18094  18.484  19.689   4.313  0.0619  0.3896  0.2583
    1DPPC   C3B18095  18.761  19.781   4.661 -0.3491 -0.0565  0.0459
    1DPPC   C4B18096  18.605  19.871   5.162  0.1123 -0.0252  0.1468
    1DPPC   NC318097  11.149   9.970   2.785 -0.2004  0.0783 -0.1807
    1DPPC   PO418098  11.296  10.283   2.942 -0.3521 -0.0774 -0.0540
    1DPPC   GL118099  11.561  10.126   3.266 -0.0985 -0.2858 -0.1770
    1DPPC   GL218100  11.549   9.815   3.275  0.3345  0.2260  0.1855
    1DPPC   C1A18101  11.520  10.094   3.690 -0.0521  0.1122 -0.1240
    1DPPC   C2A18102  11.563  10.062   4.030  0.4152  0.0287 -0.0051
    1DPPC   C3A18103  11.621  10.134   4.464 -0.0928  0.0722 -0.0584
    1DPPC   C4A18104  11.589  10.033   4.876 -0.0491 -0.0799 -0.0729
    1DPPC   C1B18105  11.859   9.660   3.509 -0.1272 -0.0775  0.0465
    1DPPC   C2B18106  12.045   9.767   3.819 -0.1624 -0.0907  0.1653
    1DPPC   C3B18107  11.983   9.849   4.208 -0.0770 -0.1581 -0.1752
    1DPPC   C4B18108  12.047   9.829   4.651  0.0779 -0.2102  0.0556
    1DPPC   NC318109   9.660  10.524   2.740  0.2100 -0.2291  0.0101
    1DPPC   PO418110   9.547  10.212   3.071  0.2142 -0.0459  0.0440
    1DPPC   GL118111   9.543  10.357   3.449 -0.0929 -0.2984 -0.0891
    1DPPC   GL218112   9.636  10.661   3.546  0.1891  0.0777  0.5049
    1DPPC   C1A18113   9.625  10.302   3.915  0.1142 -0.1333  0.0751
    1DPPC   C2A18114   9.727  10.387   4.381  0.0920 -0.0832 -0.0822
    1DPPC   C3A18115   9.548  10.350   4.780 -0.0553  0.2929 -0.0057
    1DPPC   C4A18116   9.337  10.311   5.128  0.1462 -0.1994 -0.1070
    1DPPC   C1B18117   9.746  10.786   3.995 -0.1533  0.0668 -0.1680
    1DPPC   C2B18118   9.782  10.890   4.428  0.4056  0.3462 -0.3507
    1DPPC   C3B18119   9.928  10.645   4.814  0.1831 -0.3409 -0.1380
    1DPPC   C4B18120  10.178  10.840   5.117 -0.1319 -0.1876 -0.3270
    1DPPC   NC318121  26.128  14.841   2.648  0.3081 -0.0877  0.0827
    1DPPC   PO418122  25.866  15.018   2.415  0.0225 -0.3217 -0.1297
    1DPPC   GL118123  25.614  15.005   2.781 -0.0391  0.1993 -0.1393
    1DPPC   GL218124  25.545  15.184   2.849  0.3973 -0.1310 -0.0760
    1DPPC   C1A18125  25.705  14.908   3.237 -0.1145 -0.0232  0.2875
    1DPPC   C2A18126  25.789  14.798   3.623  0.0111  0.2784 -0.1199
    1DPPC   C3A18127  25.720  14.474   3.910 -0.0316 -0.2399 -0.1281
    1DPPC   C4A18128  25.657  14.084   3.942 -0.0922  0.0440 -0.1033
    1DPPC   C1B18129  25.353  15.294   3.246 -0.1510  0.1515 -0.2177
    1DPPC   C2B18130  25.359  15.532   3.578  0.3632  0.3308 -0.1482
    1DPPC   C3B18131  25.296  15.663   3.936  0.6008 -0.1189  0.0763
    1DPPC   C4B18132  25.423  15.745   4.386  0.0390  0.0785  0.0715
    1DPPC   NC318133  19.225  16.228   2.380 -0.0808 -0.0724  0.0968
    1DPPC   PO418134  18.934  16.558   2.408 -0.0473 -0.0489 -0.2553
    1DPPC   GL118135  18.619  16.380   2.795 -0.2070 -0.0939  0.0681
    1DPPC   GL218136  18.391  16.533   2.821 -0.3063 -0.0390  0.2033
    1DPPC   C1A18137  18.795  16.195   3.199  0.0125 -0.0866 -0.0323
    1DPPC   C2A18138  18.724  16.110   3.644 -0.2153 -0.0682  0.1034
    1DPPC   C3A18139  18.836  16.121   3.997  0.3849  0.1822  0.1651
    1DPPC   C4A18140  18.487  16.008   4.351  0.2646 -0.2932 -0.1322
    1DPPC   C1B18141  18.534  16.574   3.254 -0.0113 -0.1552 -0.4380
    1DPPC   C2B18142  18.567  16.636   3.658  0.0933  0.2246 -0.0497
    1DPPC   C3B18143  18.486  16.481   4.043  0.3342  0.1685  0.0789
    1DPPC   C4B18144  18.600  16.610   4.401 -0.1982  0.2168  0.1858
    1DPPC   NC318145   9.431  18.916   2.300  0.2768 -0.0525  0.1142
    1DPPC   PO418146   9.961  18.826   2.363  0.1677 -0.2336  0.0491
    1DPPC   GL118147   9.658  18.650   2.651  0.1236  0.1882 -0.0419
    1DPPC   GL218148   9.912  18.444   2.818  0.0055  0.2645  0.0920
    1DPPC   C1A18149   9.495  18.625   3.089 -0.0744  0.0214 -0.1577
    1DPPC   C2A18150   9.506  18.562   3.518  0.2479 -0.1774  0.1085
    1DPPC   C3A18151   9.365  18.471   3.892 -0.1971  0.0606  0.3488
    1DPPC   C4A18152   9.029  18.569   4.066 -0.0355 -0.0786 -0.1621
    1DPPC   C1B18153   9.772  18.214   3.208  0.3367  0.3451  0.0335
    1DPPC   C2B18154   9.633  18.101   3.536 -0.0284  0.0777  0.0464
    1DPPC   C3B18155   9.555  17.935   3.979  0.0815  0.1467  0.0638
    1DPPC   C4B18156   9.820  17.835   4.375 -0.0415 -0.0101 -0.1280
    1DPPC   NC318157  18.061  16.546   2.479 -0.1883 -0.0044 -0.1861
    1DPPC   PO418158  17.623  16.853   2.487  0.1824 -0.1772 -0.0629
    1DPPC   GL118159  17.392  16.730   2.723 -0.3326 -0.2667  0.2028
    1DPPC   GL218160  17.237  17.015   2.897  0.1655 -0.2141 -0.0251
    1DPPC   C1A18161  17.416  16.581   3.103  0.2442  0.0228  0.4426
    1DPPC   C2A18162  17.435  16.613   3.503  0.3314 -0.0599 -0.0683
    1DPPC   C3A18163  17.466  16.616   3.877 -0.0408 -0.2002  0.1048
    1DPPC   C4A18164  17.464  16.599   4.368 -0.0290  0.1847 -0.2855
    1DPPC   C1B18165  17.139  17.039   3.336  0.2624 -0.2970  0.2038
    1DPPC   C2B18166  17.243  17.093   3.814 -0.0977  0.1632  0.0604
    1DPPC   C3B18167  17.046  17.067   4.215 -0.1819 -0.0356  0.4423
    1DPPC   C4B18168  16.858  17.325   4.600 -0.2134 -0.2921 -0.1341
    1DPPC   NC318169   7.962  11.744   2.662  0.0424  0.4724  0.0113
    1DPPC   PO418170   8.294  11.663   2.732  0.0557  0.1596 -0.2994
    1DPPC   GL118171   8.036  11.744   3.135 -0.5141  0.4858 -0.1508
    1DPPC   GL218172   7.684  11.866   3.221  0.0700 -0.2284 -0.1406
    1DPPC   C1A18173   8.103  11.715   3.570  0.0546 -0.0376  0.0693
    1DPPC   C2A18174   8.087  11.480   3.932 -0.1403  0.3244 -0.0161
    1DPPC   C3A18175   8.009  11.523   4.463 -0.0318 -0.2570 -0.1695
    1DPPC   C4A18176   7.875  11.615   4.899  0.3019  0.1692 -0.1364
    1DPPC   C1B18177   7.935  12.203   3.468  0.1571 -0.1541  0.0103
    1DPPC   C2B18178   8.081  12.219   3.838  0.0237  0.0657  0.0560
    1DPPC   C3B18179   8.015  12.088   4.307  0.2964  0.1876  0.1976
    1DPPC   C4B18180   7.716  12.043   4.614  0.4240 -0.1329 -0.0552
    1DPPC   NC318181  21.079  10.294   2.297 -0.0578 -0.2844  0.2673
    1DPPC   PO418182  21.545  10.488   2.344  0.2507 -0.1274  0.1102
    1DPPC   GL118183  21.379  10.415   2.698  0.0020 -0.2620  0.1804
    1DPPC   GL218184  21.593  10.165   2.870 -0.3118 -0.0367  0.0058
    1DPPC   C1A18185  21.099  10.212   3.016 -0.4324 -0.1305  0.0813
    1DPPC   C2A18186  20.980   9.899   3.382  0.1030  0.0030 -0.1332
    1DPPC   C3A18187  21.054   9.898   3.829  0.3018 -0.3241  0.0034
    1DPPC   C4A18188  20.774   9.856   4.142 -0.3222 -0.3934 -0.2574
    1DPPC   C1B18189  21.526   9.999   3.269  0.1272  0.1245  0.3150
    1DPPC   C2B18190  21.335   9.652   3.507 -0.3985  0.0939  0.0464
    1DPPC   C3B18191  21.303   9.311   3.790 -0.0748  0.0490 -0.2385
    1DPPC   C4B18192  21.523   9.230   4.146  0.0490 -0.0434 -0.0141
    1DPPC   NC318193  18.911  18.769   2.522  0.0139  0.4534 -0.0961
    1DPPC   PO418194  19.323  18.823   2.546 -0.1506 -0.0118 -0.1062
    1DPPC   GL118195  19.440  18.863   2.950 -0.0652  0.3231  0.2281
    1DPPC   GL218196  19.345  19.125   3.116  0.0375  0.2682  0.3448
    1DPPC   C1A18197  19.594  18.748   3.277 -0.2752  0.1543  0.2456
    1DPPC   C2A18198  19.589  18.810   3.682  0.0109  0.1717 -0.3844
    1DPPC   C3A18199  19.538  18.613   4.086  0.0565 -0.2459 -0.2139
    1DPPC   C4A18200  19.753  18.465   4.522  0.0878  0.4212 -0.0321
    1DPPC   C1B18201  19.108  18.997   3.538 -0.1787 -0.2135 -0.2249
    1DPPC   C2B18202  19.075  18.843   3.955 -0.0049 -0.0794  0.1137
    1DPPC   C3B18203  19.271  18.974   4.374  0.0693  0.0507  0.1671
    1DPPC   C4B18204  19.708  18.977   4.515  0.0829 -0.0234  0.1137
    1DPPC   NC318205   9.286   7.945   3.370 -0.2466  0.1215 -0.2748
    1DPPC   PO418206   9.732   8.001   3.384  0.0334 -0.3732 -0.2701
    1DPPC   GL118207   9.769   8.289   3.781 -0.1519 -0.3257 -0.5066
    1DPPC   GL218208   9.469   8.246   3.842 -0.2137 -0.1591  0.3796
    1DPPC   C1A18209   9.836   8.189   4.226 -0.0305 -0.0236 -0.1134
    1DPPC   C2A18210   9.840   8.077   4.723  0.0625  0.0588 -0.3634
    1DPPC   C3A18211   9.700   7.989   5.174  0.0737  0.1608  0.0007
    1DPPC   C4A18212   9.492   8.194   5.494  0.1058  0.1987  0.1566
    1DPPC   C1B18213   9.306   8.140   4.205 -0.0808  0.1724  0.0199
    1DPPC   C2B18214   9.375   8.193   4.606  0.0407 -0.1625 -0.0302
    1DPPC   C3B18215   9.273   8.195   4.990  0.1093 -0.0429  0.1636
    1DPPC   C4B18216   9.015   8.170   5.332 -0.2695 -0.2270  0.2936
    1DPPC   NC318217  23.729  15.258   2.589  0.0612  0.1317 -0.0965
    1DPPC   PO418218  24.058  14.935   2.521 -0.1283 -0.0525  0.0514
    1DPPC   GL118219  24.032  14.953   2.968 -0.2217  0.0333 -0.1536
    1DPPC   GL218220  23.708  15.077   3.123 -0.2619  0.0066  0.1033
    1DPPC   C1A18221  24.167  15.003   3.388  0.4844 -0.1767 -0.0911
    1DPPC   C2A18222  24.195  15.080   3.816  0.1032 -0.0826  0.1494
    1DPPC   C3A18223  24.076  15.345   4.241 -0.2067  0.1033 -0.1535
    1DPPC   C4A18224  24.088  15.383   4.618 -0.1965  0.0095  0.3017
    1DPPC   C1B18225  23.496  15.019   3.461 -0.0772 -0.2391 -0.1756
    1DPPC   C2B18226  23.334  14.828   3.861  0.0370  0.1218  0.0435
    1DPPC   C3B18227  23.230  14.662   4.306  0.3272  0.0115 -0.0967
    1DPPC   C4B18228  23.050  14.244   4.370 -0.0750 -0.1255 -0.1817
    1DPPC   NC318229  16.341  19.966   2.379  0.1542  0.0851 -0.0088
    1DPPC   PO418230  16.713  19.684   2.493  0.0376 -0.0558  0.1864
    1DPPC   GL118231  16.540  19.817   2.942 -0.1491  0.0813  0.1203
    1DPPC   GL218232  16.543  20.162   2.848 -0.1407 -0.1691  0.0454
    1DPPC   C1A18233  16.329  19.946   3.310 -0.0455 -0.1524  0.1383
    1DPPC   C2A18234  16.176  20.091   3.731  0.2316 -0.1348  0.0738
    1DPPC   C3A18235  16.082  20.318   4.056 -0.1025  0.2571 -0.0673
    1DPPC   C4A18236  16.021  20.687   4.205 -0.1197 -0.0627  0.2800
    1DPPC   C1B18237  16.547  20.432   3.177  0.1775  0.0980 -0.2006
    1DPPC   C2B18238  16.576  20.408   3.598 -0.0877 -0.0440  0.1869
    1DPPC   C3B18239  16.552  20.621   3.962  0.2031  0.1572 -0.1316
    1DPPC   C4B18240  16.426  20.444   4.387 -0.0154  0.1870  0.0886
    1DPPC   NC318241  14.152  20.385   2.176 -0.3769 -0.1755  0.1566
    1DPPC   PO418242  14.259  20.009   2.137 -0.0296  0.0328 -0.2199
    1DPPC   GL118243  14.456  19.984   2.574 -0.0004  0.1354 -0.1038
    1DPPC   GL218244  14.706  20.151   2.725 -0.0258  0.0281 -0.1098
    1DPPC   C1A18245  14.282  19.933   2.972  0.1708 -0.3293  0.0662
    1DPPC   C2A18246  14.347  19.778   3.301 -0.0808  0.0617  0.1301
    1DPPC   C3A18247  14.371  19.714   3.692 -0.2006 -0.2988 -0.2194
    1DPPC   C4A18248  14.140  19.859   4.042 -0.1763 -0.1388 -0.2760
    1DPPC   C1B18249  14.780  20.126   3.149  0.2422  0.0897  0.0826
    1DPPC   C2B18250  14.737  20.191   3.560 -0.1015  0.0246  0.0300
    1DPPC   C3B18251  14.590  20.234   3.923  0.1542  0.0008  0.0393
    1DPPC   C4B18252  14.534  20.422   4.291  0.0119  0.1144 -0.1469
    1DPPC   NC318253  11.672  16.638   1.652  0.0228  0.0847  0.1291
    1DPPC   PO418254  11.685  16.865   2.111 -0.1071  0.3429  0.0938
    1DPPC   GL118255  11.679  16.944   2.498 -0.2585  0.0917  0.0383
    1DPPC   GL218256  11.972  16.947   2.733  0.1045  0.0284 -0.1014
    1DPPC   C1A18257  11.468  17.148   2.813  0.2921  0.0402  0.1237
    1DPPC   C2A18258  11.351  17.040   3.269 -0.2702  0.1135 -0.0838
    1DPPC   C3A18259  11.296  16.961   3.726  0.0141 -0.1026  0.1475
    1DPPC   C4A18260  11.185  17.049   4.183  0.1029  0.1441 -0.2862
    1DPPC   C1B18261  12.097  16.777   3.027  0.0538 -0.0563 -0.1611
    1DPPC   C2B18262  12.208  16.904   3.473 -0.0937  0.2515 -0.1665
    1DPPC   C3B18263  12.208  16.883   3.983 -0.0613 -0.2803  0.2938
    1DPPC   C4B18264  12.267  16.923   4.363 -0.1192  0.3061 -0.2013
    1DPPC   NC318265  28.388  23.813   2.804 -0.0143 -0.0330 -0.1861
    1DPPC   PO418266  28.133  24.163   2.923 -0.2842  0.1008  0.1717
    1DPPC   GL118267  27.829  24.370   3.183  0.0897 -0.2469 -0.0989
    1DPPC   GL218268  27.654  24.500   3.165  0.1118  0.1009 -0.0842
    1DPPC   C1A18269  27.815  24.420   3.583 -0.0069 -0.0150 -0.0595
    1DPPC   C2A18270  27.572  24.403   3.959 -0.1205  0.0703  0.2000
    1DPPC   C3A18271  27.461  24.266   4.330  0.3177  0.1335  0.1058
    1DPPC   C4A18272  27.491  23.969   4.693  0.1551 -0.2363 -0.2212
    1DPPC   C1B18273  27.388  24.200   3.444  0.1230  0.0166 -0.2990
    1DPPC   C2B18274  27.432  23.883   3.816  0.0545 -0.2421  0.2975
    1DPPC   C3B18275  27.460  23.715   4.276  0.0122  0.0547  0.2204
    1DPPC   C4B18276  27.381  23.507   4.732 -0.2986 -0.0755  0.4106
    1DPPC   NC318277  20.618  17.838   2.450 -0.0201  0.0788 -0.0666
    1DPPC   PO418278  20.947  17.521   2.388 -0.1140  0.1472 -0.1077
    1DPPC   GL118279  20.978  17.701   2.779 -0.1275  0.0688  0.1708
    1DPPC   GL218280  21.254  17.610   2.834  0.0770 -0.0783  0.0336
    1DPPC   C1A18281  20.948  17.882   3.180 -0.0558  0.1801  0.3008
    1DPPC   C2A18282  20.983  17.765   3.635 -0.0741 -0.0462 -0.0210
    1DPPC   C3A18283  21.063  17.786   4.098 -0.1241  0.2846 -0.0170
    1DPPC   C4A18284  21.022  17.623   4.559 -0.1535  0.0667 -0.0642
    1DPPC   C1B18285  21.378  17.585   3.166  0.1208  0.0746  0.0972
    1DPPC   C2B18286  21.438  17.420   3.458 -0.2045  0.4088  0.1105
    1DPPC   C3B18287  21.446  17.425   3.766 -0.1294  0.0521  0.0443
    1DPPC   C4B18288  21.358  17.394   4.234 -0.1384  0.1141 -0.1765
    1DPPC   NC318289  14.607  11.953   2.463 -0.0428 -0.0945 -0.2325
    1DPPC   PO418290  14.127  12.174   2.485  0.0215 -0.1097 -0.0057
    1DPPC   GL118291  14.425  12.370   2.699 -0.1023 -0.2335 -0.0330
    1DPPC   GL218292  14.348  12.651   2.820  0.0528 -0.0484  0.1565
    1DPPC   C1A18293  14.458  12.260   3.118  0.0518 -0.1081 -0.4601
    1DPPC   C2A18294  14.329  12.047   3.426  0.1523  0.0857  0.0285
    1DPPC   C3A18295  14.436  12.019   3.858 -0.0316 -0.1887  0.1128
    1DPPC   C4A18296  14.441  11.980   4.292 -0.0156  0.0427  0.1506
    1DPPC   C1B18297  14.065  12.569   3.094  0.1127 -0.2535 -0.1662
    1DPPC   C2B18298  13.911  12.204   3.137 -0.2188  0.2561 -0.0430
    1DPPC   C3B18299  13.652  11.989   2.943  0.0569  0.1630  0.0196
    1DPPC   C4B18300  13.215  12.045   2.880 -0.1125 -0.2325  0.0366
    1DPPC   NC318301  15.873  16.861   2.349 -0.0524  0.0187 -0.1106
    1DPPC   PO418302  16.378  16.882   2.593  0.3271  0.2692  0.0804
    1DPPC   GL118303  16.704  17.063   2.897 -0.2455 -0.1652 -0.0762
    1DPPC   GL218304  16.877  17.439   2.836  0.1180  0.0275 -0.0507
    1DPPC   C1A18305  16.677  17.121   3.342 -0.0310 -0.0618 -0.0328
    1DPPC   C2A18306  16.751  17.225   3.686  0.1051  0.0585  0.0558
    1DPPC   C3A18307  16.721  17.455   4.153 -0.1916  0.0304 -0.0416
    1DPPC   C4A18308  16.496  17.668   4.501 -0.0242  0.1752 -0.2154
    1DPPC   C1B18309  16.939  17.522   3.220 -0.2743  0.1385  0.2846
    1DPPC   C2B18310  17.040  17.566   3.644  0.1560 -0.0470  0.2961
    1DPPC   C3B18311  17.191  17.579   4.007 -0.2425 -0.0824  0.1708
    1DPPC   C4B18312  17.397  17.552   4.404  0.2089  0.1547 -0.1554
    1DPPC   NC318313   9.556  13.432   2.482  0.1250  0.1607  0.1683
    1DPPC   PO418314   9.334  13.091   2.653  0.2378  0.0343 -0.3322
    1DPPC   GL118315   9.365  13.377   3.015 -0.1556  0.3056 -0.0205
    1DPPC   GL218316   9.251  13.729   2.996 -0.0676 -0.1919  0.1272
    1DPPC   C1A18317   9.427  13.473   3.437 -0.1084 -0.0686  0.0349
    1DPPC   C2A18318   9.581  13.530   3.827  0.0651  0.4055  0.2087
    1DPPC   C3A18319   9.882  13.507   4.190 -0.2284 -0.1249  0.0753
    1DPPC   C4A18320  10.033  13.442   4.522 -0.1976 -0.0159  0.2031
    1DPPC   C1B18321   9.541  13.938   3.334  0.1568  0.3395 -0.3379
    1DPPC   C2B18322   9.610  14.051   3.832 -0.0956  0.0252 -0.3212
    1DPPC   C3B18323   9.632  13.993   4.176 -0.3171 -0.1839 -0.0965
    1DPPC   C4B18324   9.595  13.807   4.565  0.1859 -0.1450  0.1571
    1DPPC   NC318325  16.376  15.097   2.087  0.1465 -0.1605  0.4239
    1DPPC   PO418326  16.110  15.276   1.826 -0.3360  0.0005  0.1459
    1DPPC   GL118327  16.056  15.369   2.333 -0.0998 -0.0690 -0.0029
    1DPPC   GL218328  15.689  15.243   2.467  0.0631 -0.1202 -0.0487
    1DPPC   C1A18329  16.095  15.457   2.724  0.0407  0.0421 -0.0332
    1DPPC   C2A18330  16.205  15.271   3.091 -0.2783  0.0011 -0.1090
    1DPPC   C3A18331  16.185  15.240   3.565 -0.1376 -0.0799  0.0147
    1DPPC   C4A18332  16.127  15.238   4.079 -0.0506 -0.2756 -0.0789
    1DPPC   C1B18333  15.720  15.143   2.916 -0.1157 -0.0881 -0.0701
    1DPPC   C2B18334  15.750  15.056   3.414 -0.3501 -0.2028 -0.0007
    1DPPC   C3B18335  15.722  15.064   3.841  0.0506 -0.1626  0.0170
    1DPPC   C4B18336  15.739  15.141   4.278  0.1561 -0.1496  0.1205
    1DPPC   NC318337  12.088   9.717   2.952 -0.0280 -0.1807 -0.0592
    1DPPC   PO418338  12.324  10.006   2.842  0.0747  0.2354  0.0273
    1DPPC   GL118339  12.427  10.200   3.266  0.4131  0.1114  0.0653
    1DPPC   GL218340  12.596  10.423   3.384 -0.2763  0.1056  0.0970
    1DPPC   C1A18341  12.071  10.185   3.581  0.0584  0.3401 -0.1479
    1DPPC   C2A18342  12.348  10.183   3.997  0.1002  0.1316  0.1560
    1DPPC   C3A18343  12.388  10.307   4.421 -0.0202  0.0381 -0.0384
    1DPPC   C4A18344  12.505  10.524   4.794  0.0640  0.1029 -0.0114
    1DPPC   C1B18345  12.745  10.451   3.787 -0.0308 -0.5348  0.0816
    1DPPC   C2B18346  12.894  10.731   4.034  0.0053  0.2253  0.1085
    1DPPC   C3B18347  12.785  10.757   4.423  0.0570  0.0214  0.0098
    1DPPC   C4B18348  13.009  10.753   4.801 -0.0534  0.2786  0.1959
    1DPPC   NC318349  12.335  11.529   2.156  0.2450  0.0335 -0.0546
    1DPPC   PO418350  12.522  11.458   2.548 -0.0320 -0.1881  0.3525
    1DPPC   GL118351  12.607  11.746   2.977 -0.0857  0.0897  0.0474
    1DPPC   GL218352  12.905  11.672   3.155  0.0556  0.0223  0.0127
    1DPPC   C1A18353  12.511  11.980   3.339 -0.1753 -0.0449 -0.2333
    1DPPC   C2A18354  12.558  12.013   3.803  0.0018 -0.0087 -0.0519
    1DPPC   C3A18355  12.580  12.065   4.282  0.1290  0.1136  0.1385
    1DPPC   C4A18356  12.839  12.255   4.577  0.0083  0.1967 -0.4695
    1DPPC   C1B18357  12.871  11.685   3.575 -0.4832  0.1608 -0.0101
    1DPPC   C2B18358  12.946  11.767   4.052  0.0005 -0.0013  0.0417
    1DPPC   C3B18359  12.946  11.708   4.505  0.0814 -0.2800 -0.1136
    1DPPC   C4B18360  13.168  11.535   4.781  0.2804 -0.1909 -0.0845
    1DPPC   NC318361  22.845  20.518   2.976  0.1296 -0.1402 -0.0485
    1DPPC   PO418362  23.029  20.193   2.945  0.1162  0.1618  0.1085
    1DPPC   GL118363  22.817  20.214   3.396 -0.0801  0.0179  0.0158
    1DPPC   GL218364  22.610  20.096   3.337  0.3024  0.0628 -0.0518
    1DPPC   C1A18365  22.830  20.079   3.858 -0.2971  0.0413  0.1347
    1DPPC   C2A18366  22.707  20.021   4.297 -0.0301 -0.2361  0.1142
    1DPPC   C3A18367  22.839  19.809   4.736 -0.2148 -0.3011  0.2464
    1DPPC   C4A18368  23.103  19.627   5.081  0.0824  0.0705  0.0815
    1DPPC   C1B18369  22.371  20.184   3.621  0.0154 -0.2719  0.2862
    1DPPC   C2B18370  22.206  20.080   4.009 -0.3794 -0.0069 -0.0933
    1DPPC   C3B18371  22.244  19.634   4.340  0.1687  0.3033 -0.1171
    1DPPC   C4B18372  21.885  19.338   4.513  0.0840 -0.0299 -0.0969
    1DPPC   NC318373  12.876   6.648   2.939 -0.3012 -0.0123 -0.0202
    1DPPC   PO418374  13.240   6.806   3.162  0.2189 -0.0792 -0.2270
    1DPPC   GL118375  12.955   6.768   3.526 -0.0307  0.0952  0.0060
    1DPPC   GL218376  12.757   6.528   3.405  0.1747  0.0594  0.0102
    1DPPC   C1A18377  13.051   6.845   3.976 -0.0797 -0.1244  0.1237
    1DPPC   C2A18378  12.983   6.791   4.418 -0.0302  0.0652  0.1582
    1DPPC   C3A18379  12.972   6.928   4.813  0.0711  0.0130 -0.0393
    1DPPC   C4A18380  13.199   7.195   5.219 -0.1761  0.1402  0.0906
    1DPPC   C1B18381  12.686   6.369   3.805  0.0269 -0.1940  0.0036
    1DPPC   C2B18382  13.024   6.320   4.133 -0.1805 -0.2206  0.0155
    1DPPC   C3B18383  13.376   6.383   4.434  0.2535  0.0304  0.2558
    1DPPC   C4B18384  13.415   6.740   4.732  0.0097  0.2072 -0.0293
    1DPPC   NC318385   6.571  26.575   2.585  0.1133 -0.0972  0.0550
    1DPPC   PO418386   6.929  26.335   2.666 -0.2417 -0.1092 -0.2108
    1DPPC   GL118387   7.114  26.236   3.007  0.2259 -0.0842  0.1743
    1DPPC   GL218388   7.417  26.379   2.870 -0.1582  0.1195  0.1231
    1DPPC   C1A18389   7.316  26.010   3.391  0.1624  0.0110  0.0686
    1DPPC   C2A18390   7.426  26.098   3.807  0.1578 -0.2547  0.0413
    1DPPC   C3A18391   7.656  25.974   4.212 -0.3397  0.0152  0.1040
    1DPPC   C4A18392   7.749  25.892   4.641  0.0225 -0.0221  0.0594
    1DPPC   C1B18393   7.800  26.194   3.072 -0.1683  0.1304 -0.0516
    1DPPC   C2B18394   7.862  26.135   3.445  0.1631  0.1933 -0.3375
    1DPPC   C3B18395   7.811  25.825   3.696 -0.0619 -0.2279  0.1083
    1DPPC   C4B18396   7.691  25.525   3.994 -0.0297 -0.2128 -0.0942
    1DPPC   NC318397  22.039  17.130   1.562  0.1173  0.1800 -0.0277
    1DPPC   PO418398  22.387  17.025   1.903  0.2004  0.2121 -0.0481
    1DPPC   GL118399  22.196  16.875   2.316 -0.1932  0.1708 -0.1896
    1DPPC   GL218400  22.018  16.648   2.380 -0.1411 -0.1294 -0.1592
    1DPPC   C1A18401  22.503  16.881   2.670  0.2107  0.1701  0.0249
    1DPPC   C2A18402  22.481  16.664   3.046  0.1860  0.3815  0.2837
    1DPPC   C3A18403  22.448  16.441   3.473  0.1282 -0.1219  0.0082
    1DPPC   C4A18404  22.597  16.116   3.700  0.1804  0.0599 -0.3048
    1DPPC   C1B18405  22.145  16.463   2.775 -0.2505  0.0788  0.0507
    1DPPC   C2B18406  22.149  16.241   3.060 -0.0193  0.2013  0.0072
    1DPPC   C3B18407  22.167  16.045   3.449  0.0617 -0.2515  0.2598
    1DPPC   C4B18408  22.331  15.706   3.738  0.1446 -0.1211  0.1031
    1DPPC   NC318409  10.081  25.851   2.103 -0.0246  0.2416 -0.2646
    1DPPC   PO418410  10.476  25.856   2.402  0.0281 -0.0817  0.3156
    1DPPC   GL118411  10.593  25.817   2.860  0.4741 -0.0242  0.2002
    1DPPC   GL218412  10.385  25.603   2.956  0.1427 -0.2851  0.2852
    1DPPC   C1A18413  10.708  25.878   3.257  0.0529 -0.3235 -0.1150
    1DPPC   C2A18414  10.693  25.591   3.608  0.1563 -0.1751 -0.1106
    1DPPC   C3A18415  10.966  25.545   3.906  0.0829  0.4070  0.1941
    1DPPC   C4A18416  11.264  25.188   4.011  0.1563 -0.4597  0.1954
    1DPPC   C1B18417  10.284  25.512   3.365 -0.0717 -0.1763 -0.1990
    1DPPC   C2B18418  10.233  25.381   3.765  0.0208 -0.0090  0.2055
    1DPPC   C3B18419   9.919  25.595   4.003 -0.0827 -0.1566 -0.0124
    1DPPC   C4B18420   9.527  25.471   4.188  0.0828 -0.2698  0.3562
    1DPPC   NC318421  14.441   7.520   3.023 -0.2877  0.0270 -0.1061
    1DPPC   PO418422  14.939   7.563   2.888 -0.1151  0.3262  0.1149
    1DPPC   GL118423  14.826   7.625   3.363 -0.1216  0.0720 -0.1784
    1DPPC   GL218424  14.527   7.510   3.504 -0.2611  0.0364  0.0058
    1DPPC   C1A18425  14.711   7.896   3.781  0.0033 -0.2677 -0.0596
    1DPPC   C2A18426  14.843   8.036   4.262  0.1094  0.1903  0.1209
    1DPPC   C3A18427  15.182   8.306   4.425  0.2439  0.1883 -0.4156
    1DPPC   C4A18428  15.645   8.375   4.505  0.2911 -0.1309  0.0361
    1DPPC   C1B18429  14.635   7.426   3.926 -0.3029 -0.1072 -0.0814
    1DPPC   C2B18430  14.572   7.503   4.379  0.1747 -0.2129  0.1020
    1DPPC   C3B18431  14.396   7.233   4.639 -0.0511  0.0484  0.0278
    1DPPC   C4B18432  14.047   7.006   4.648 -0.0306  0.1417 -0.1602
    1DPPC   NC318433   9.532  14.519   2.099  0.0004  0.0176  0.0104
    1DPPC   PO418434   9.177  14.446   2.440 -0.0683  0.1420  0.1038
    1DPPC   GL118435   9.163  14.248   2.748 -0.2481  0.0055  0.1379
    1DPPC   GL218436   9.479  14.163   2.865  0.1279  0.1872  0.0711
    1DPPC   C1A18437   8.970  14.085   3.080  0.1790 -0.0169  0.2098
    1DPPC   C2A18438   8.958  14.129   3.629 -0.0708 -0.2326 -0.1036
    1DPPC   C3A18439   9.190  14.266   4.018 -0.0731  0.0550 -0.0504
    1DPPC   C4A18440   9.213  14.162   4.404  0.1139  0.0609  0.0219
    1DPPC   C1B18441   9.438  14.393   3.186  0.2922  0.1619  0.2936
    1DPPC   C2B18442   9.380  14.455   3.537  0.0793 -0.0797  0.0193
    1DPPC   C3B18443   9.182  14.801   3.762 -0.0358  0.0412  0.0008
    1DPPC   C4B18444   9.101  14.887   4.168 -0.1382  0.1822 -0.2645
    1DPPC   NC318445   8.511  18.957   2.132 -0.0187 -0.0109 -0.1182
    1DPPC   PO418446   8.391  19.391   2.051 -0.3063  0.2230 -0.0373
    1DPPC   GL118447   8.415  19.539   2.495  0.0575  0.1919  0.0822
    1DPPC   GL218448   8.344  19.803   2.596 -0.0153 -0.0245  0.1373
    1DPPC   C1A18449   8.309  19.449   2.943 -0.1446  0.0833 -0.3468
    1DPPC   C2A18450   8.405  19.553   3.364  0.0828  0.2352 -0.1580
    1DPPC   C3A18451   8.473  19.442   3.835  0.1116  0.4174 -0.0899
    1DPPC   C4A18452   8.322  19.182   4.206 -0.1755  0.0184 -0.2865
    1DPPC   C1B18453   8.530  19.870   2.975 -0.2185 -0.1660  0.0128
    1DPPC   C2B18454   8.631  20.024   3.448 -0.1727  0.0979 -0.1111
    1DPPC   C3B18455   8.658  19.962   3.924  0.1693  0.0749  0.0825
    1DPPC   C4B18456   8.819  20.030   4.388 -0.2674 -0.0002 -0.0782
    1DPPC   NC318457  15.648  11.757   2.414  0.0941  0.0266  0.3368
    1DPPC   PO418458  15.917  12.138   2.506  0.0221  0.0129 -0.2514
    1DPPC   GL118459  16.013  11.850   2.866  0.0970 -0.0030  0.2368
    1DPPC   GL218460  15.851  11.608   2.863  0.3084  0.0580  0.1811
    1DPPC   C1A18461  16.248  11.875   3.229  0.0506  0.0693 -0.1719
    1DPPC   C2A18462  16.460  11.922   3.637  0.2488  0.2846 -0.0607
    1DPPC   C3A18463  16.412  11.762   4.005 -0.0571 -0.1400  0.2446
    1DPPC   C4A18464  16.497  11.558   4.279 -0.1450 -0.1279  0.2151
    1DPPC   C1B18465  15.694  11.380   3.201 -0.2675 -0.0375  0.0664
    1DPPC   C2B18466  15.483  11.254   3.683  0.1521  0.1455 -0.2895
    1DPPC   C3B18467  15.454  11.279   4.017  0.2413  0.0528 -0.1701
    1DPPC   C4B18468  15.272  11.483   4.457  0.0920 -0.0443  0.1033
    1DPPC   NC318469  11.109  14.589   2.412 -0.4939 -0.2337  0.0906
    1DPPC   PO418470  10.701  14.779   2.384 -0.2034  0.0948  0.0882
    1DPPC   GL118471  10.372  14.746   2.613  0.1378 -0.0878 -0.0166
    1DPPC   GL218472  10.008  14.643   2.415 -0.0212  0.4352  0.2036
    1DPPC   C1A18473  10.259  14.716   3.010 -0.0838 -0.0828  0.0520
    1DPPC   C2A18474  10.200  14.859   3.383 -0.2062  0.0915  0.4002
    1DPPC   C3A18475  10.190  14.910   3.855  0.0607 -0.0579  0.1157
    1DPPC   C4A18476   9.916  14.976   4.241  0.0584  0.1111 -0.2362
    1DPPC   C1B18477   9.809  14.682   2.835  0.1764 -0.0255  0.0416
    1DPPC   C2B18478   9.744  14.781   3.231  0.1738  0.0722 -0.0283
    1DPPC   C3B18479   9.703  14.786   3.717 -0.1532 -0.0418  0.1506
    1DPPC   C4B18480   9.555  14.601   4.062 -0.1502  0.0716  0.0004
    1DPPC   NC318481  12.139  15.024   2.481 -0.0537 -0.1759  0.0096
    1DPPC   PO418482  11.923  14.693   2.241 -0.1498 -0.3274  0.0855
    1DPPC   GL118483  11.939  14.598   2.752 -0.1392 -0.1441 -0.0509
    1DPPC   GL218484  12.198  14.371   2.915 -0.1207  0.1350  0.3093
    1DPPC   C1A18485  11.874  14.677   3.162 -0.0306  0.0847 -0.0071
    1DPPC   C2A18486  11.949  14.724   3.546  0.0663  0.1093 -0.0148
    1DPPC   C3A18487  11.992  14.665   3.952 -0.1815  0.1044  0.2278
    1DPPC   C4A18488  11.920  14.697   4.377 -0.3684 -0.0176  0.1449
    1DPPC   C1B18489  12.110  14.248   3.303 -0.1473  0.0187 -0.3993
    1DPPC   C2B18490  12.198  14.290   3.616  0.1641  0.0526 -0.1411
    1DPPC   C3B18491  12.342  14.364   4.091  0.1004  0.4272  0.1328
    1DPPC   C4B18492  12.309  14.430   4.543  0.1192 -0.0292  0.0850
    1DPPC   NC318493  14.584  12.616   2.225  0.1431  0.0756 -0.1583
    1DPPC   PO418494  14.517  13.022   2.022  0.0912 -0.1771 -0.0890
    1DPPC   GL118495  14.631  13.114   2.451 -0.0195 -0.0496 -0.0688
    1DPPC   GL218496  14.828  12.798   2.668  0.0996  0.0794  0.4009
    1DPPC   C1A18497  14.387  13.166   2.802  0.4655  0.0701  0.2406
    1DPPC   C2A18498  14.417  12.900   3.216  0.1683  0.1977 -0.2457
    1DPPC   C3A18499  14.210  12.837   3.600  0.0847  0.1875  0.2648
    1DPPC   C4A18500  14.050  12.427   3.645  0.0002 -0.0138  0.1629
    1DPPC   C1B18501  14.800  12.621   3.005 -0.0545  0.2047  0.1940
    1DPPC   C2B18502  14.704  12.681   3.485 -0.0945 -0.1499  0.1443
    1DPPC   C3B18503  14.526  12.468   3.790  0.2233  0.1389 -0.0592
    1DPPC   C4B18504  14.266  12.453   4.080 -0.0397 -0.1351 -0.2708
    1DPPC   NC318505  16.297  22.438   2.254 -0.2429 -0.0025 -0.0395
    1DPPC   PO418506  16.724  22.498   2.404 -0.2659  0.1681  0.0777
    1DPPC   GL118507  16.446  22.165   2.727  0.1871  0.1188  0.1095
    1DPPC   GL218508  16.656  21.988   2.993 -0.0491  0.0947  0.1508
    1DPPC   C1A18509  16.202  22.297   3.139  0.1387  0.1368  0.1511
    1DPPC   C2A18510  16.024  22.283   3.526 -0.0425 -0.1104  0.0062
    1DPPC   C3A18511  15.841  22.466   3.859  0.1235  0.1476 -0.2942
    1DPPC   C4A18512  15.611  22.814   4.082 -0.0121  0.0842  0.0049
    1DPPC   C1B18513  16.464  21.987   3.449  0.1096  0.0987 -0.0521
    1DPPC   C2B18514  16.318  22.025   3.864  0.0276 -0.0700  0.4108
    1DPPC   C3B18515  16.402  22.002   4.275  0.0285  0.1033 -0.0262
    1DPPC   C4B18516  16.590  22.253   4.558 -0.1343  0.1520  0.0278
    1DPPC   NC318517   3.610   1.999   3.171  0.0463  0.2060  0.0425
    1DPPC   PO418518   3.955   2.127   3.402  0.2108  0.1405 -0.2652
    1DPPC   GL118519   3.600   2.229   3.608 -0.1098 -0.2078 -0.3697
    1DPPC   GL218520   3.365   2.407   3.524  0.1718  0.0191  0.1463
    1DPPC   C1A18521   3.252   2.146   3.958 -0.0217  0.1800  0.2203
    1DPPC   C2A18522   3.077   2.237   4.388  0.3445 -0.1834 -0.0562
    1DPPC   C3A18523   3.135   2.247   4.865 -0.2189  0.1364 -0.0653
    1DPPC   C4A18524   3.081   2.397   5.289  0.1932  0.0455 -0.1548
    1DPPC   C1B18525   2.945   2.478   3.724 -0.0276  0.0585 -0.4484
    1DPPC   C2B18526   2.830   2.532   4.058  0.2897 -0.2436  0.2501
    1DPPC   C3B18527   2.885   2.691   4.501 -0.2537 -0.1690 -0.0627
    1DPPC   C4B18528   2.878   3.044   4.716  0.0708  0.0478  0.1597
    1DPPC   NC318529  12.342  18.658   2.402  0.0889 -0.2749 -0.2829
    1DPPC   PO418530  12.288  19.105   2.521 -0.1845  0.1488  0.2270
    1DPPC   GL118531  12.277  19.120   2.993  0.0020  0.0814  0.3309
    1DPPC   GL218532  11.974  19.162   3.148 -0.0092  0.1093 -0.0441
    1DPPC   C1A18533  12.404  19.130   3.417 -0.1232 -0.0310 -0.2325
    1DPPC   C2A18534  12.438  18.990   3.731 -0.0067  0.0622  0.0080
    1DPPC   C3A18535  12.343  18.940   4.079 -0.0122 -0.0163  0.1890
    1DPPC   C4A18536  12.359  18.941   4.484  0.1225 -0.2257  0.3678
    1DPPC   C1B18537  11.927  19.219   3.509  0.3077  0.1895 -0.3391
    1DPPC   C2B18538  11.856  19.178   3.942 -0.0121 -0.0643  0.0388
    1DPPC   C3B18539  11.875  19.047   4.346 -0.0139 -0.0926  0.2708
    1DPPC   C4B18540  11.618  19.063   4.727  0.2264  0.0144  0.0621
    1DPPC   NC318541  11.207  15.447   2.081  0.0848 -0.2611 -0.0762
    1DPPC   PO418542  11.482  15.324   2.186 -0.1300 -0.2608 -0.3912
    1DPPC   GL118543  11.623  15.098   2.516  0.1015 -0.2451  0.0118
    1DPPC   GL218544  11.463  14.766   2.670  0.2211 -0.1619  0.0940
    1DPPC   C1A18545  11.641  15.095   3.036 -0.2312 -0.1480  0.1042
    1DPPC   C2A18546  11.598  15.130   3.420 -0.1807  0.1541 -0.1679
    1DPPC   C3A18547  11.669  15.174   3.879 -0.0527 -0.0837 -0.0220
    1DPPC   C4A18548  11.559  15.191   4.241 -0.1020  0.3067  0.1691
    1DPPC   C1B18549  11.346  14.653   3.026 -0.1465 -0.2948 -0.0838
    1DPPC   C2B18550  11.421  14.716   3.439  0.3182  0.0252 -0.3242
    1DPPC   C3B18551  11.454  14.764   3.882  0.0912  0.0401 -0.1553
    1DPPC   C4B18552  11.391  14.695   4.343 -0.0694 -0.2613 -0.1055
    1DPPC   NC318553  10.907  12.955   2.619 -0.0380  0.1791 -0.0435
    1DPPC   PO418554  10.503  12.934   2.573  0.1307 -0.0499  0.1489
    1DPPC   GL118555  10.339  13.136   2.909 -0.0470  0.1894  0.0851
    1DPPC   GL218556   9.907  13.132   2.915  0.1513  0.1767  0.0239
    1DPPC   C1A18557  10.241  13.198   3.339 -0.0547 -0.3555  0.0296
    1DPPC   C2A18558  10.150  13.292   3.713 -0.0040  0.1651  0.0769
    1DPPC   C3A18559  10.317  13.278   4.114 -0.0021 -0.1175 -0.4257
    1DPPC   C4A18560  10.504  13.254   4.552  0.3220  0.3151  0.1499
    1DPPC   C1B18561   9.740  13.141   3.280 -0.1884 -0.0815  0.3238
    1DPPC   C2B18562   9.684  13.073   3.659  0.2952  0.1351  0.0271
    1DPPC   C3B18563   9.665  13.058   3.954  0.1264 -0.0391  0.2090
    1DPPC   C4B18564   9.697  12.927   4.298 -0.2602  0.1575 -0.1576
    1DPPC   NC318565  13.988  11.126   2.490  0.3486  0.0126 -0.2874
    1DPPC   PO418566  14.285  11.526   2.488  0.1098  0.0665 -0.5908
    1DPPC   GL118567  14.489  11.660   2.909  0.0396 -0.2338  0.3627
    1DPPC   GL218568  14.326  11.843   2.873  0.1779  0.1100 -0.0193
    1DPPC   C1A18569  14.686  11.537   3.240 -0.2424  0.0264  0.2042
    1DPPC   C2A18570  14.705  11.592   3.712 -0.0487 -0.2523 -0.3087
    1DPPC   C3A18571  14.719  11.497   4.201 -0.3551  0.1538  0.0385
    1DPPC   C4A18572  14.688  11.285   4.603  0.2109  0.0036 -0.0943
    1DPPC   C1B18573  13.953  11.681   3.178  0.3445 -0.0477 -0.0686
    1DPPC   C2B18574  13.824  11.948   3.547 -0.3515 -0.0568  0.1770
    1DPPC   C3B18575  13.953  12.002   3.977 -0.1156  0.1932 -0.0630
    1DPPC   C4B18576  13.892  12.006   4.379 -0.0090 -0.0643 -0.2363
    1DPPC   NC318577  14.853  19.094   2.375 -0.1189  0.1320  0.0075
    1DPPC   PO418578  14.562  18.670   2.210 -0.0849 -0.1011 -0.1868
    1DPPC   GL118579  14.544  18.696   2.633  0.2736  0.0819  0.0380
    1DPPC   GL218580  14.752  18.449   2.750 -0.2533  0.1826 -0.0271
    1DPPC   C1A18581  14.430  18.866   3.117 -0.2586  0.1028 -0.0600
    1DPPC   C2A18582  14.387  18.924   3.607  0.4991  0.1105 -0.0687
    1DPPC   C3A18583  14.420  18.885   4.062 -0.1322 -0.1469  0.3682
    1DPPC   C4A18584  14.363  18.878   4.477 -0.2124  0.2009 -0.0610
    1DPPC   C1B18585  14.920  18.621   3.116  0.0141  0.1811 -0.0728
    1DPPC   C2B18586  14.673  18.589   3.448 -0.0751  0.1870 -0.1682
    1DPPC   C3B18587  14.860  18.712   3.849  0.3242 -0.2992  0.0758
    1DPPC   C4B18588  14.896  18.725   4.229 -0.2259 -0.0148  0.5455
    1DPPC   NC318589  22.131  13.031   2.484 -0.2436  0.2766  0.1350
    1DPPC   PO418590  21.891  12.685   2.395  0.1765 -0.0161 -0.0238
    1DPPC   GL118591  21.809  12.780   2.828 -0.0633 -0.0663  0.2361
    1DPPC   GL218592  21.544  13.089   2.643  0.4303  0.0897 -0.1103
    1DPPC   C1A18593  21.829  12.790   3.254  0.0646 -0.0443  0.4781
    1DPPC   C2A18594  21.825  12.826   3.761 -0.2370  0.3829  0.3760
    1DPPC   C3A18595  22.064  12.770   4.111 -0.2882  0.1493 -0.1069
    1DPPC   C4A18596  22.392  12.696   4.406  0.1772 -0.3654  0.0731
    1DPPC   C1B18597  21.584  13.221   3.061  0.0293  0.0830 -0.0616
    1DPPC   C2B18598  21.589  13.212   3.489  0.1857 -0.5944 -0.1570
    1DPPC   C3B18599  21.615  13.285   3.927 -0.0574  0.2033 -0.3244
    1DPPC   C4B18600  21.395  13.551   4.241 -0.2697  0.1255  0.1335
    1DPPC   NC318601  17.023  15.857   1.763 -0.0712 -0.0966  0.2473
    1DPPC   PO418602  16.748  16.025   2.026 -0.3004  0.0749 -0.0818
    1DPPC   GL118603  16.918  15.835   2.393 -0.1702 -0.3933  0.3167
    1DPPC   GL218604  16.752  16.072   2.660  0.1329 -0.2643 -0.3773
    1DPPC   C1A18605  16.931  15.662   2.877  0.2030  0.3718  0.2472
    1DPPC   C2A18606  17.035  15.718   3.298  0.0809  0.0715 -0.2357
    1DPPC   C3A18607  17.039  15.557   3.703  0.0924 -0.0068 -0.1286
    1DPPC   C4A18608  17.002  15.270   4.074 -0.0851 -0.0749  0.2455
    1DPPC   C1B18609  16.799  16.132   3.156 -0.0743  0.1957  0.1749
    1DPPC   C2B18610  16.697  16.121   3.547  0.2938 -0.0210  0.0079
    1DPPC   C3B18611  16.753  16.037   3.930 -0.0911  0.0490  0.2561
    1DPPC   C4B18612  16.942  15.809   4.200  0.1700 -0.0126  0.1239
    1DPPC   NC318613   9.299  17.078   2.174  0.3822 -0.0283  0.1355
    1DPPC   PO418614   8.918  16.959   2.027 -0.1815 -0.0247  0.2183
    1DPPC   GL118615   8.871  16.731   2.341 -0.0328 -0.0611 -0.1326
    1DPPC   GL218616   9.067  16.837   2.517  0.1393 -0.0121 -0.1110
    1DPPC   C1A18617   8.695  16.643   2.778 -0.0204  0.2212  0.1181
    1DPPC   C2A18618   8.460  16.681   3.163  0.2682 -0.0457  0.2266
    1DPPC   C3A18619   8.335  16.779   3.594  0.2676  0.2637  0.0257
    1DPPC   C4A18620   8.359  16.976   3.907 -0.0442 -0.0076  0.1154
    1DPPC   C1B18621   9.149  16.797   2.932  0.0701 -0.1246 -0.1138
    1DPPC   C2B18622   8.914  16.719   3.348  0.1373 -0.0338 -0.1300
    1DPPC   C3B18623   8.771  16.631   3.775  0.2470 -0.0205  0.1916
    1DPPC   C4B18624   8.473  16.514   4.105 -0.4187 -0.1933  0.1819
    1DPPC   NC318625  17.318  15.436   2.087  0.0463 -0.0423 -0.1069
    1DPPC   PO418626  17.798  15.638   2.270 -0.0118 -0.0562  0.1672
    1DPPC   GL118627  18.024  15.487   2.680 -0.2663  0.1717 -0.0400
    1DPPC   GL218628  18.378  15.369   2.687  0.1820  0.1151  0.0427
    1DPPC   C1A18629  18.035  15.687   3.087 -0.0653  0.4103 -0.1318
    1DPPC   C2A18630  18.017  15.760   3.548  0.1879  0.3327 -0.0638
    1DPPC   C3A18631  17.912  15.461   3.870 -0.2207 -0.0049 -0.0200
    1DPPC   C4A18632  18.052  15.352   4.162  0.0399  0.0928  0.0816
    1DPPC   C1B18633  18.248  15.270   3.081  0.4412  0.2396 -0.0053
    1DPPC   C2B18634  18.313  15.179   3.504  0.0277  0.0199 -0.4259
    1DPPC   C3B18635  18.357  14.957   3.971  0.2331 -0.0554  0.1729
    1DPPC   C4B18636  18.592  14.810   4.337 -0.4437 -0.0974 -0.2704
    1DPPC   NC318637  26.023  23.768   2.450 -0.1838 -0.0138  0.0888
    1DPPC   PO418638  25.928  23.651   2.799 -0.0686 -0.0585 -0.2736
    1DPPC   GL118639  25.771  23.656   3.200 -0.3143  0.3176  0.0632
    1DPPC   GL218640  25.484  23.476   3.349 -0.3309  0.0077 -0.0347
    1DPPC   C1A18641  25.946  23.599   3.650  0.0140 -0.0526  0.0496
    1DPPC   C2A18642  26.262  23.479   3.968 -0.4946 -0.2060  0.2121
    1DPPC   C3A18643  26.412  23.044   4.144 -0.1424 -0.2371  0.3184
    1DPPC   C4A18644  26.645  22.990   4.498 -0.1592 -0.0955  0.0769
    1DPPC   C1B18645  25.556  23.179   3.774  0.0004  0.2076  0.0896
    1DPPC   C2B18646  25.925  23.176   4.047  0.1464  0.0429 -0.2429
    1DPPC   C3B18647  25.974  23.111   4.447 -0.0341 -0.2480 -0.0051
    1DPPC   C4B18648  26.291  23.015   4.802  0.0540 -0.0023 -0.3068
    1DPPC   NC318649  11.642  14.348   2.434 -0.1031 -0.0881  0.1844
    1DPPC   PO418650  11.663  13.965   2.543 -0.0309 -0.1534  0.6512
    1DPPC   GL118651  11.898  13.807   2.813  0.0232  0.0960  0.3689
    1DPPC   GL218652  11.930  13.507   2.830  0.1727 -0.1477 -0.2207
    1DPPC   C1A18653  11.902  13.771   3.292 -0.1090  0.3641 -0.0888
    1DPPC   C2A18654  11.932  13.761   3.647 -0.1519 -0.1661  0.0458
    1DPPC   C3A18655  11.985  13.884   4.043 -0.3337 -0.1733  0.1894
    1DPPC   C4A18656  11.980  13.973   4.470 -0.0045 -0.1327  0.0048
    1DPPC   C1B18657  12.120  13.337   3.123  0.3059 -0.1716  0.1426
    1DPPC   C2B18658  12.305  13.425   3.629  0.0272 -0.2714  0.2618
    1DPPC   C3B18659  12.267  13.464   4.017 -0.1749  0.0187  0.0593
    1DPPC   C4B18660  12.222  13.453   4.348  0.2027  0.0819  0.0523
    1DPPC   NC318661  12.809  20.059   2.688  0.0996  0.2187  0.1335
    1DPPC   PO418662  12.638  20.365   2.402 -0.5227 -0.0240  0.0634
    1DPPC   GL118663  12.878  20.564   2.802 -0.3857  0.0218  0.1159
    1DPPC   GL218664  12.926  20.417   3.019 -0.0334  0.3075  0.2195
    1DPPC   C1A18665  13.091  20.904   3.044 -0.1967 -0.2508 -0.0810
    1DPPC   C2A18666  13.184  21.250   3.416 -0.0226  0.2229 -0.0325
    1DPPC   C3A18667  13.209  21.377   3.783 -0.0904 -0.1427  0.1333
    1DPPC   C4A18668  13.467  21.346   4.054 -0.2089  0.0012 -0.4438
    1DPPC   C1B18669  13.052  20.545   3.447  0.1804  0.1859  0.1731
    1DPPC   C2B18670  13.000  20.503   3.820 -0.4969  0.0827  0.4436
    1DPPC   C3B18671  12.968  20.457   4.234 -0.1049 -0.0384 -0.2931
    1DPPC   C4B18672  13.059  20.721   4.571  0.0344 -0.4365  0.1332
    1DPPC   NC318673   7.418  21.195   2.255  0.0416  0.3735 -0.1365
    1DPPC   PO418674   7.835  20.847   2.228 -0.1058 -0.2904 -0.0341
    1DPPC   GL118675   8.065  20.530   2.579 -0.1538  0.0081 -0.0482
    1DPPC   GL218676   8.326  20.343   2.679 -0.2467  0.1338 -0.1072
    1DPPC   C1A18677   7.924  20.522   3.016 -0.1714  0.1324 -0.1677
    1DPPC   C2A18678   7.951  20.494   3.447 -0.3064  0.2546  0.2044
    1DPPC   C3A18679   7.825  20.691   3.775  0.1389 -0.0642 -0.0377
    1DPPC   C4A18680   7.545  20.978   3.912  0.0473 -0.1258 -0.2892
    1DPPC   C1B18681   8.367  20.340   3.158 -0.2453 -0.4447  0.0564
    1DPPC   C2B18682   8.479  20.469   3.563 -0.2750  0.3328  0.1404
    1DPPC   C3B18683   8.237  20.513   3.961 -0.1533 -0.0651 -0.4077
    1DPPC   C4B18684   7.866  20.683   4.292 -0.2905  0.0103 -0.0595
    1DPPC   NC318685  16.533   2.869   2.497  0.2533  0.1333  0.2100
    1DPPC   PO418686  16.646   2.579   2.763  0.0757  0.1431  0.0862
    1DPPC   GL118687  16.698   2.677   3.168  0.1214 -0.2197 -0.2863
    1DPPC   GL218688  16.354   2.649   3.312  0.1389  0.1609  0.0470
    1DPPC   C1A18689  16.931   2.739   3.523 -0.0296  0.0503  0.1126
    1DPPC   C2A18690  16.892   2.869   3.858 -0.1820 -0.0448 -0.0787
    1DPPC   C3A18691  16.940   2.644   4.288 -0.3505  0.2452 -0.1917
    1DPPC   C4A18692  16.757   2.519   4.638  0.2931 -0.1034 -0.4909
    1DPPC   C1B18693  16.426   2.682   3.739 -0.1553  0.0398  0.1167
    1DPPC   C2B18694  16.420   2.840   4.099 -0.0986 -0.0832 -0.0085
    1DPPC   C3B18695  16.420   2.967   4.432 -0.5155 -0.1026  0.1077
    1DPPC   C4B18696  16.268   3.149   4.811 -0.0149 -0.0248 -0.0928
    1DPPC   NC318697   4.976  28.573   3.029  0.2751 -0.1254 -0.1724
    1DPPC   PO418698   4.494  28.578   3.182  0.2826  0.0129  0.0922
    1DPPC   GL118699   4.311  28.282   3.298 -0.2089 -0.0909 -0.0695
    1DPPC   GL218700   4.451  28.110   3.512  0.2540 -0.3388  0.1008
    1DPPC   C1A18701   3.976  28.074   3.597 -0.0322  0.1648  0.1799
    1DPPC   C2A18702   3.826  27.791   3.848 -0.0565  0.0431 -0.1311
    1DPPC   C3A18703   3.637  27.359   3.844 -0.1024  0.0284  0.1705
    1DPPC   C4A18704   3.586  26.977   3.909 -0.0459 -0.1133 -0.1269
    1DPPC   C1B18705   4.361  27.847   3.868 -0.0682  0.0591  0.1028
    1DPPC   C2B18706   4.467  27.595   4.237 -0.3325  0.0074  0.0267
    1DPPC   C3B18707   4.434  27.322   4.575  0.0224 -0.2111 -0.1518
    1DPPC   C4B18708   4.475  27.111   4.969  0.0949  0.2003  0.3197
    1DPPC   NC318709  18.005  20.244   2.584  0.2878 -0.1959 -0.0696
    1DPPC   PO418710  18.367  20.309   2.526  0.1320  0.2521 -0.5277
    1DPPC   GL118711  18.510  20.175   2.921 -0.1079  0.1261 -0.0441
    1DPPC   GL218712  18.738  20.331   3.138  0.0250  0.2585  0.0653
    1DPPC   C1A18713  18.267  20.304   3.356 -0.1070  0.1665  0.0607
    1DPPC   C2A18714  18.062  20.177   3.681 -0.1664 -0.0102  0.0495
    1DPPC   C3A18715  17.875  19.982   4.037 -0.2456 -0.2219 -0.1828
    1DPPC   C4A18716  17.963  19.972   4.403 -0.2083  0.3669  0.0223
    1DPPC   C1B18717  18.705  20.338   3.572 -0.3097 -0.1174 -0.3416
    1DPPC   C2B18718  18.499  20.324   3.970  0.0381  0.0403 -0.0467
    1DPPC   C3B18719  18.395  20.278   4.334 -0.1348 -0.0260  0.1288
    1DPPC   C4B18720  18.318  20.035   4.706 -0.1572  0.3114 -0.1778
    1DPPC   NC318721  10.897  10.592   2.969  0.1638 -0.2010 -0.0429
    1DPPC   PO418722  10.845  10.976   2.995 -0.3040  0.0778  0.1342
    1DPPC   GL118723  11.092  10.971   3.392  0.0877  0.0261  0.0920
    1DPPC   GL218724  11.011  11.174   3.593 -0.1878  0.0233  0.1933
    1DPPC   C1A18725  11.515  10.985   3.650  0.2178 -0.0149 -0.0069
    1DPPC   C2A18726  11.748  10.935   4.064  0.2277  0.1364  0.0704
    1DPPC   C3A18727  11.778  10.951   4.480  0.0203 -0.0942  0.1563
    1DPPC   C4A18728  11.965  10.932   4.821 -0.1635 -0.0092 -0.2696
    1DPPC   C1B18729  11.121  11.135   3.954  0.4974 -0.1187 -0.1795
    1DPPC   C2B18730  11.308  11.179   4.296  0.1571  0.1192  0.1013
    1DPPC   C3B18731  11.504  11.279   4.725  0.1298  0.2644  0.0908
    1DPPC   C4B18732  11.693  11.609   5.030 -0.1439  0.1919 -0.0141
    1DPPC   NC318733  10.774  16.648   2.093 -0.0919  0.2658 -0.2716
    1DPPC   PO418734  10.375  16.873   2.368  0.0093  0.3856  0.2506
    1DPPC   GL118735  10.244  16.837   2.704 -0.0707  0.2033  0.2565
    1DPPC   GL218736  10.025  16.533   2.737 -0.0475 -0.0143  0.2166
    1DPPC   C1A18737  10.169  16.940   3.127  0.2238  0.2973  0.0862
    1DPPC   C2A18738  10.319  16.757   3.495 -0.1689 -0.1365  0.2225
    1DPPC   C3A18739  10.321  16.821   3.939  0.0156 -0.1727 -0.1156
    1DPPC   C4A18740  10.410  16.655   4.381  0.0905 -0.0027  0.0949
    1DPPC   C1B18741   9.981  16.460   3.179 -0.0644 -0.0304 -0.0597
    1DPPC   C2B18742   9.857  16.571   3.594 -0.0939 -0.1456  0.1896
    1DPPC   C3B18743   9.663  16.328   3.880  0.0054  0.2329  0.2004
    1DPPC   C4B18744   9.473  16.080   4.145  0.1136  0.2408  0.0717
    1DPPC   NC318745  10.878   8.906   2.661 -0.2856  0.0070  0.1366
    1DPPC   PO418746  10.447   8.819   2.723 -0.2835 -0.1753  0.4685
    1DPPC   GL118747  10.403   8.780   3.180  0.0622  0.1546  0.1022
    1DPPC   GL218748  10.442   9.010   3.318  0.1681 -0.1747 -0.1024
    1DPPC   C1A18749  10.146   8.758   3.681  0.0282 -0.1211 -0.0544
    1DPPC   C2A18750  10.194   8.907   4.065  0.3906 -0.0959 -0.1168
    1DPPC   C3A18751  10.161   8.968   4.500 -0.2685  0.0972  0.0737
    1DPPC   C4A18752  10.074   8.897   4.993 -0.1310 -0.0314  0.2831
    1DPPC   C1B18753  10.694   8.894   3.641 -0.0883 -0.0249  0.2261
    1DPPC   C2B18754  10.748   9.067   4.074 -0.2235 -0.1351 -0.1935
    1DPPC   C3B18755  10.962   9.003   4.397  0.1996 -0.0084 -0.0496
    1DPPC   C4B18756  11.256   9.149   4.729  0.1758  0.4207  0.2841
    1DPPC   NC318757  18.364  11.646   1.705 -0.0011  0.2522 -0.1216
    1DPPC   PO418758  18.390  12.049   1.907 -0.3128 -0.2051 -0.2097
    1DPPC   GL118759  18.556  11.697   2.148 -0.0517  0.0381 -0.2071
    1DPPC   GL218760  18.853  11.700   2.380 -0.0070 -0.1489 -0.2256
    1DPPC   C1A18761  18.425  11.586   2.559 -0.1605  0.2049  0.1479
    1DPPC   C2A18762  18.218  11.667   2.831 -0.0390  0.0111 -0.0122
    1DPPC   C3A18763  18.158  11.805   3.255 -0.1953 -0.0645  0.0423
    1DPPC   C4A18764  18.086  11.815   3.657  0.0956  0.0328  0.0334
    1DPPC   C1B18765  18.920  11.706   2.805  0.0064 -0.0288 -0.1123
    1DPPC   C2B18766  18.970  11.622   3.300 -0.2470 -0.1634 -0.2898
    1DPPC   C3B18767  18.912  11.598   3.697 -0.2336 -0.1189 -0.2329
    1DPPC   C4B18768  18.896  11.633   4.107 -0.0149 -0.0566 -0.2782
    1DPPC   NC318769  10.709  22.951   2.109  0.1393  0.0511  0.0358
    1DPPC   PO418770  10.594  22.501   2.330 -0.1823  0.3989  0.0268
    1DPPC   GL118771  10.510  22.590   2.828  0.3016 -0.0097 -0.0803
    1DPPC   GL218772  10.281  22.780   2.907  0.0809  0.1425  0.0138
    1DPPC   C1A18773  10.431  22.538   3.307  0.2874  0.5552 -0.2223
    1DPPC   C2A18774  10.338  22.534   3.729  0.2443 -0.3050 -0.0058
    1DPPC   C3A18775  10.341  22.517   4.155 -0.0719 -0.1647 -0.0478
    1DPPC   C4A18776  10.066  22.197   4.405  0.0670  0.2448  0.2568
    1DPPC   C1B18777  10.307  23.049   3.197 -0.3495 -0.1972 -0.1483
    1DPPC   C2B18778  10.346  23.047   3.569  0.0066 -0.3174  0.0230
    1DPPC   C3B18779  10.667  22.861   3.926 -0.0758 -0.0056 -0.2241
    1DPPC   C4B18780  10.884  22.711   4.149  0.0705  0.0970 -0.0556
    1DPPC   NC318781  18.086  15.226   2.271  0.0437 -0.2508 -0.3446
    1DPPC   PO418782  17.729  15.001   2.161  0.0518  0.0216 -0.1038
    1DPPC   GL118783  17.811  15.017   2.676  0.0107 -0.0740  0.1760
    1DPPC   GL218784  18.177  14.931   2.722 -0.1050  0.0014  0.1788
    1DPPC   C1A18785  17.765  15.270   3.106 -0.0489  0.1625 -0.0508
    1DPPC   C2A18786  17.818  15.277   3.407 -0.1089 -0.3494 -0.0304
    1DPPC   C3A18787  17.827  15.000   3.715 -0.2672  0.3201 -0.0072
    1DPPC   C4A18788  17.483  14.680   3.671 -0.1198 -0.1503 -0.0344
    1DPPC   C1B18789  18.132  14.722   3.031 -0.2433  0.5046  0.0460
    1DPPC   C2B18790  18.204  14.694   3.497  0.1875 -0.2538  0.1374
    1DPPC   C3B18791  18.026  14.637   3.888  0.0630 -0.2434 -0.2013
    1DPPC   C4B18792  17.829  14.676   4.166 -0.1529 -0.0095 -0.0554
    1DPPC   NC318793  20.059   0.985   3.009 -0.1755  0.0430  0.2520
    1DPPC   PO418794  19.759   1.183   2.891  0.0768  0.0862  0.3322
    1DPPC   GL118795  19.601   1.223   3.260  0.0507  0.0672 -0.1772
    1DPPC   GL218796  19.450   1.535   3.467 -0.1382 -0.0906  0.0074
    1DPPC   C1A18797  19.394   1.069   3.725  0.0396  0.2403  0.0201
    1DPPC   C2A18798  19.537   0.878   4.066  0.1729  0.0783 -0.1721
    1DPPC   C3A18799  19.665   0.932   4.549 -0.3193 -0.3343  0.3829
    1DPPC   C4A18800  19.881   0.936   4.956  0.0223 -0.2471  0.3778
    1DPPC   C1B18801  19.327   1.579   3.912  0.1058  0.1672  0.3143
    1DPPC   C2B18802  19.206   1.558   4.331 -0.0791 -0.0974  0.1307
    1DPPC   C3B18803  19.149   1.112   4.593  0.1519 -0.0474  0.1150
    1DPPC   C4B18804  19.159   0.797   4.533 -0.0871 -0.1671  0.0128
    1DPPC   NC318805  13.248  15.043   2.455 -0.0118  0.1781  0.1328
    1DPPC   PO418806  13.307  15.507   2.350 -0.0453  0.3101  0.1887
    1DPPC   GL118807  13.275  15.520   2.753  0.2618  0.1433 -0.2950
    1DPPC   GL218808  13.102  15.390   2.826  0.2431  0.0423  0.1790
    1DPPC   C1A18809  13.536  15.435   3.098  0.0415  0.1183  0.1245
    1DPPC   C2A18810  13.579  15.395   3.577  0.1022 -0.2463  0.1009
    1DPPC   C3A18811  13.737  15.243   4.023 -0.1473 -0.0256 -0.1987
    1DPPC   C4A18812  13.724  15.188   4.421 -0.3396 -0.1969 -0.3845
    1DPPC   C1B18813  13.027  15.094   3.150  0.0925  0.0315 -0.2935
    1DPPC   C2B18814  13.075  15.070   3.548 -0.1376  0.1493 -0.4577
    1DPPC   C3B18815  13.172  15.061   4.000 -0.0400  0.0381 -0.0174
    1DPPC   C4B18816  13.223  14.947   4.501 -0.0224  0.0227  0.0157
    1DPPC   NC318817   9.836  13.786   1.656  0.3009 -0.0510  0.2970
    1DPPC   PO418818   9.877  13.664   2.141  0.0540  0.1907  0.1715
    1DPPC   GL118819   9.986  13.810   2.625 -0.2436 -0.0719 -0.0686
    1DPPC   GL218820   9.763  13.720   2.860  0.0827  0.1024  0.2942
    1DPPC   C1A18821  10.310  13.751   2.966  0.1729 -0.1124 -0.3282
    1DPPC   C2A18822  10.375  13.831   3.450  0.0022  0.1892 -0.0436
    1DPPC   C3A18823  10.515  13.888   3.872 -0.0972 -0.3893 -0.1442
    1DPPC   C4A18824  10.522  13.726   4.304  0.3204 -0.1228  0.1770
    1DPPC   C1B18825   9.894  13.601   3.324  0.0030 -0.3425 -0.2300
    1DPPC   C2B18826  10.029  13.746   3.810 -0.4142  0.1909 -0.0775
    1DPPC   C3B18827  10.095  14.005   4.111 -0.1723 -0.2453  0.3120
    1DPPC   C4B18828  10.074  14.045   4.462 -0.0518 -0.0027  0.0949
    1DPPC   NC318829   8.708  17.594   1.783 -0.3137  0.0659  0.1881
    1DPPC   PO418830   9.022  17.810   1.862  0.0075  0.1416 -0.3023
    1DPPC   GL118831   9.025  17.744   2.269  0.0527 -0.0413  0.3370
    1DPPC   GL218832   9.247  17.864   2.471  0.0548  0.1003  0.3002
    1DPPC   C1A18833   8.690  17.745   2.557 -0.0267  0.0606 -0.1113
    1DPPC   C2A18834   8.569  17.825   2.978 -0.2704 -0.3140  0.0540
    1DPPC   C3A18835   8.443  17.801   3.362 -0.0632  0.1605  0.0348
    1DPPC   C4A18836   8.427  17.882   3.837 -0.1002 -0.2168 -0.2619
    1DPPC   C1B18837   9.073  17.713   2.916 -0.2237 -0.0266  0.3479
    1DPPC   C2B18838   8.882  17.647   3.378  0.1983  0.2009 -0.0896
    1DPPC   C3B18839   8.893  17.630   3.778 -0.1344  0.1920 -0.0643
    1DPPC   C4B18840   8.944  17.556   4.192  0.0692 -0.1605  0.0547
    1DPPC   NC318841  12.613  21.508   1.631  0.0556 -0.1554  0.2208
    1DPPC   PO418842  12.500  21.669   2.097  0.0565  0.0842  0.0827
    1DPPC   GL118843  12.305  21.882   2.525 -0.2122  0.0782 -0.1220
    1DPPC   GL218844  12.577  22.242   2.621 -0.0334  0.2021  0.1246
    1DPPC   C1A18845  12.183  21.696   2.823  0.0219  0.2967  0.2213
    1DPPC   C2A18846  12.281  21.522   3.236  0.2823  0.1449 -0.2865
    1DPPC   C3A18847  12.287  21.495   3.790  0.0311 -0.0513  0.2856
    1DPPC   C4A18848  12.165  21.479   4.177 -0.2620 -0.1699  0.4328
    1DPPC   C1B18849  12.698  21.784   2.954  0.0798 -0.3337  0.2522
    1DPPC   C2B18850  12.739  21.298   3.154 -0.0380 -0.0785  0.0224
    1DPPC   C3B18851  12.716  21.088   3.513 -0.1948  0.2387  0.1122
    1DPPC   C4B18852  12.870  20.977   3.913 -0.0643 -0.2113 -0.1118
    1DPPC   NC318853  12.697  24.817   2.223  0.0368 -0.0311  0.0505
    1DPPC   PO418854  12.413  24.908   2.576  0.0228  0.0071  0.0068
    1DPPC   GL118855  12.577  25.139   2.941  0.2644  0.0913 -0.2137
    1DPPC   GL218856  12.475  24.853   3.099  0.2509  0.3714 -0.0886
    1DPPC   C1A18857  12.856  25.215   3.204  0.0169 -0.1908  0.1884
    1DPPC   C2A18858  13.019  25.060   3.528  0.1102  0.0107  0.2425
    1DPPC   C3A18859  12.947  24.786   3.914 -0.2899  0.1760 -0.1077
    1DPPC   C4A18860  12.748  24.681   4.344 -0.0299 -0.2268  0.0291
    1DPPC   C1B18861  12.566  24.899   3.574  0.1886 -0.2416  0.1449
    1DPPC   C2B18862  12.573  25.065   4.014 -0.0397 -0.0055  0.2354
    1DPPC   C3B18863  12.236  25.012   4.334 -0.2286 -0.1949 -0.1982
    1DPPC   C4B18864  12.009  25.289   4.487  0.2050 -0.0629 -0.1277
    1DPPC   NC318865   9.145  11.752   2.353  0.1621  0.0812 -0.0208
    1DPPC   PO418866   9.445  11.642   2.723 -0.1819  0.0554  0.1058
    1DPPC   GL118867   9.524  11.559   3.112  0.0236  0.0595  0.0411
    1DPPC   GL218868   9.286  11.265   3.191 -0.1499  0.3248  0.1710
    1DPPC   C1A18869   9.549  11.596   3.574  0.1072  0.1276  0.1037
    1DPPC   C2A18870   9.584  11.715   3.979  0.2177  0.2165 -0.0543
    1DPPC   C3A18871   9.550  11.823   4.339 -0.2857  0.3326 -0.2177
    1DPPC   C4A18872   9.491  11.694   4.735  0.0418  0.0103 -0.0443
    1DPPC   C1B18873   9.372  11.088   3.639 -0.1552 -0.0949  0.0854
    1DPPC   C2B18874   9.421  11.050   4.138  0.1371 -0.2925  0.2226
    1DPPC   C3B18875   9.348  11.207   4.505  0.3451  0.2997  0.1116
    1DPPC   C4B18876   9.502  11.031   4.912 -0.2875 -0.3598  0.0295
    1DPPC   NC318877  15.620  18.198   2.275  0.1186 -0.0595 -0.2746
    1DPPC   PO418878  15.522  18.597   2.338  0.1453  0.2160 -0.0844
    1DPPC   GL118879  15.868  18.597   2.590 -0.1840  0.2112 -0.2503
    1DPPC   GL218880  16.019  18.302   2.688  0.0040 -0.0530  0.4448
    1DPPC   C1A18881  15.835  18.821   2.901  0.0547  0.0237 -0.2320
    1DPPC   C2A18882  15.787  18.749   3.336  0.3748  0.3709  0.0633
    1DPPC   C3A18883  15.681  18.736   3.745  0.2352 -0.0182 -0.0656
    1DPPC   C4A18884  15.671  18.910   4.166 -0.4913  0.2125  0.1291
    1DPPC   C1B18885  15.838  18.311   3.077 -0.0434 -0.1760  0.0293
    1DPPC   C2B18886  15.810  18.250   3.361  0.1441  0.2312  0.1343
    1DPPC   C3B18887  15.794  18.304   3.687  0.0065  0.1346 -0.2004
    1DPPC   C4B18888  15.842  18.382   4.094  0.4389 -0.2609 -0.0607
    1DPPC   NC318889  21.392  10.384   1.585 -0.0716  0.1320 -0.0847
    1DPPC   PO418890  21.251  10.693   1.978 -0.3552 -0.0166  0.2969
    1DPPC   GL118891  21.232  10.894   2.358  0.2337 -0.3820 -0.1715
    1DPPC   GL218892  21.192  11.212   2.392  0.1565  0.0649 -0.0517
    1DPPC   C1A18893  21.059  10.879   2.707 -0.2119 -0.1105  0.0363
    1DPPC   C2A18894  20.999  10.701   3.051  0.1599  0.1823 -0.1913
    1DPPC   C3A18895  21.004  10.579   3.449  0.0528  0.0523  0.3524
    1DPPC   C4A18896  21.159  10.325   3.607 -0.1524 -0.0638 -0.0867
    1DPPC   C1B18897  20.868  11.388   2.693  0.1654  0.1593  0.1428
    1DPPC   C2B18898  20.707  11.273   3.006 -0.3497  0.0801  0.0333
    1DPPC   C3B18899  20.651  11.288   3.421  0.1832 -0.1354 -0.1502
    1DPPC   C4B18900  20.694  10.888   3.688  0.0178 -0.1296  0.0570
    1DPPC   NC318901  13.572   7.032   2.894  0.1957 -0.2531  0.1559
    1DPPC   PO418902  13.912   7.361   2.920  0.2699 -0.2245 -0.0769
    1DPPC   GL118903  13.953   7.417   3.312 -0.3523 -0.0342  0.3996
    1DPPC   GL218904  13.712   7.607   3.368  0.1965  0.4019  0.1190
    1DPPC   C1A18905  14.028   7.353   3.710  0.0232  0.1224 -0.0694
    1DPPC   C2A18906  14.002   7.575   4.080 -0.3549 -0.1794  0.0011
    1DPPC   C3A18907  14.107   7.321   4.259 -0.2576  0.2339  0.0470
    1DPPC   C4A18908  14.349   6.943   4.229 -0.1837  0.3760  0.0649
    1DPPC   C1B18909  13.578   7.606   3.693 -0.0061 -0.1745 -0.1199
    1DPPC   C2B18910  13.536   7.601   4.140 -0.0242  0.1169 -0.1244
    1DPPC   C3B18911  13.782   7.545   4.562 -0.3300 -0.1810 -0.3224
    1DPPC   C4B18912  14.050   7.455   4.992 -0.3996 -0.2628 -0.0380
    1DPPC   NC318913  19.223  15.630   1.610  0.2564 -0.0531 -0.0661
    1DPPC   PO418914  19.096  15.308   1.936  0.0535  0.0598 -0.1078
    1DPPC   GL118915  19.280  15.361   2.419  0.1399 -0.2246 -0.1846
    1DPPC   GL218916  19.547  15.327   2.565 -0.1869 -0.0649  0.1326
    1DPPC   C1A18917  19.140  15.687   2.788 -0.1192 -0.0467 -0.2210
    1DPPC   C2A18918  19.128  15.673   3.159 -0.1634  0.1036 -0.1475
    1DPPC   C3A18919  18.998  15.736   3.535 -0.1375  0.0840  0.0171
    1DPPC   C4A18920  19.074  15.696   3.894 -0.0137 -0.0089 -0.1542
    1DPPC   C1B18921  19.604  15.483   3.003 -0.2182  0.1664  0.0568
    1DPPC   C2B18922  19.560  15.626   3.408 -0.0691  0.2532  0.0501
    1DPPC   C3B18923  19.526  15.479   3.880  0.0191  0.0054  0.2141
    1DPPC   C4B18924  19.649  15.387   4.357  0.1180 -0.0798 -0.3874
    1DPPC   NC318925  12.610  10.941   2.617  0.0597 -0.0665  0.0106
    1DPPC   PO418926  12.931  10.559   2.655 -0.3252 -0.0092  0.0714
    1DPPC   GL118927  12.933  10.635   3.025 -0.0235  0.0473  0.2064
    1DPPC   GL218928  13.136  10.445   3.133 -0.0708  0.1517 -0.2741
    1DPPC   C1A18929  12.870  10.807   3.451 -0.3110 -0.0454  0.2541
    1DPPC   C2A18930  12.757  11.116   3.716  0.0870 -0.0779 -0.2636
    1DPPC   C3A18931  12.729  11.240   4.148 -0.1968  0.0073  0.1576
    1DPPC   C4A18932  12.877  11.214   4.512 -0.1320  0.0752  0.2476
    1DPPC   C1B18933  13.158  10.415   3.565 -0.0256 -0.1675  0.0828
    1DPPC   C2B18934  13.194  10.309   4.050 -0.0398  0.4676 -0.1414
    1DPPC   C3B18935  13.414  10.495   4.426  0.0663  0.4163 -0.0079
    1DPPC   C4B18936  13.660  10.645   4.731  0.1590  0.2012 -0.1235
    1DPPC   NC318937  19.129   1.349   3.149  0.1239 -0.3988  0.1987
    1DPPC   PO418938  19.018   1.709   3.237 -0.0523 -0.1134  0.0268
    1DPPC   GL118939  19.014   1.781   3.660 -0.2005  0.1234  0.1315
    1DPPC   GL218940  19.186   2.051   3.734 -0.0524 -0.3403  0.1596
    1DPPC   C1A18941  18.820   1.660   4.033  0.0052 -0.0913  0.2286
    1DPPC   C2A18942  18.727   1.690   4.443 -0.1867  0.3135 -0.0589
    1DPPC   C3A18943  18.395   1.553   4.812  0.0224 -0.2506 -0.0363
    1DPPC   C4A18944  18.037   1.427   4.628  0.0730  0.0113  0.0179
    1DPPC   C1B18945  19.200   2.082   4.144 -0.1590 -0.3489 -0.2952
    1DPPC   C2B18946  19.071   1.997   4.623 -0.2213  0.4256  0.0111
    1DPPC   C3B18947  18.806   1.958   4.924  0.1919 -0.0429 -0.2040
    1DPPC   C4B18948  18.660   1.625   5.287  0.2205 -0.0135 -0.0986
    1DPPC   NC318949  15.753  17.540   1.862 -0.0219 -0.1922 -0.2061
    1DPPC   PO418950  15.969  17.354   2.307 -0.1938 -0.0169 -0.0045
    1DPPC   GL118951  15.893  17.631   2.593  0.2290 -0.2153  0.0983
    1DPPC   GL218952  16.072  17.819   2.870 -0.1322 -0.2137  0.0196
    1DPPC   C1A18953  15.615  17.870   2.943 -0.1187 -0.3224  0.0896
    1DPPC   C2A18954  15.607  17.828   3.330 -0.0174  0.0047  0.1010
    1DPPC   C3A18955  15.505  17.844   3.752  0.4137 -0.2646 -0.0829
    1DPPC   C4A18956  15.341  17.814   4.181 -0.1871  0.1016  0.0794
    1DPPC   C1B18957  16.148  17.931   3.269 -0.0666 -0.4340 -0.2185
    1DPPC   C2B18958  15.995  17.787   3.635 -0.0356 -0.1389 -0.1944
    1DPPC   C3B18959  16.021  17.934   4.066  0.2680 -0.0179  0.0154
    1DPPC   C4B18960  16.268  18.100   4.325  0.2564  0.0602 -0.0921
    1DPPC   NC318961  17.257  12.250   2.687  0.1675  0.0029 -0.0218
    1DPPC   PO418962  16.868  11.992   2.658 -0.1940  0.0803  0.1530
    1DPPC   GL118963  16.864  12.205   3.026 -0.0557 -0.1050 -0.2424
    1DPPC   GL218964  17.210  12.413   3.199 -0.0020 -0.1545  0.1534
    1DPPC   C1A18965  16.646  12.302   3.340  0.1813 -0.0147 -0.0821
    1DPPC   C2A18966  16.639  12.391   3.752  0.0499  0.0435  0.0367
    1DPPC   C3A18967  16.761  12.122   4.132 -0.0913 -0.0536  0.0239
    1DPPC   C4A18968  17.230  12.099   4.256  0.2315 -0.0696 -0.0920
    1DPPC   C1B18969  17.136  12.374   3.697  0.2678 -0.0653  0.1722
    1DPPC   C2B18970  17.168  12.582   4.128  0.2300 -0.3632  0.1482
    1DPPC   C3B18971  17.468  12.721   4.350 -0.0972 -0.1423 -0.1721
    1DPPC   C4B18972  17.726  12.922   4.664  0.2763  0.2462  0.1750
    1DPPC   NC318973   8.736   1.021   3.001 -0.0219 -0.0375  0.2669
    1DPPC   PO418974   8.712   1.376   3.243  0.0844  0.2264  0.0352
    1DPPC   GL118975   8.881   1.413   3.693  0.0194  0.0495  0.2175
    1DPPC   GL218976   9.209   1.348   3.769  0.3150  0.0842 -0.2895
    1DPPC   C1A18977   8.988   1.493   4.179 -0.0392  0.3516  0.1924
    1DPPC   C2A18978   9.063   1.580   4.612 -0.0562  0.0476 -0.3038
    1DPPC   C3A18979   9.254   1.931   4.900 -0.0807 -0.2747  0.1887
    1DPPC   C4A18980   9.555   2.161   5.015  0.0314 -0.1480  0.1712
    1DPPC   C1B18981   9.389   1.728   3.971  0.1274 -0.0983 -0.0099
    1DPPC   C2B18982   9.438   1.738   4.407  0.3152  0.2992  0.1416
    1DPPC   C3B18983   9.745   1.826   4.702  0.1586 -0.0610  0.0921
    1DPPC   C4B18984  10.022   2.036   4.901  0.3058 -0.2636  0.1929
    1DPPC   NC318985  10.828   8.490   3.110  0.1923 -0.1674  0.3660
    1DPPC   PO418986  11.151   8.337   2.940  0.2518 -0.3656  0.2703
    1DPPC   GL118987  11.329   8.044   3.251  0.0629 -0.1065 -0.2108
    1DPPC   GL218988  11.291   7.865   3.177 -0.0966 -0.0519  0.0773
    1DPPC   C1A18989  11.362   8.162   3.680 -0.1556 -0.2414  0.4059
    1DPPC   C2A18990  11.642   8.169   4.036 -0.1348  0.2380 -0.1964
    1DPPC   C3A18991  11.772   8.071   4.441 -0.0176  0.1046  0.2451
    1DPPC   C4A18992  11.660   8.023   4.878  0.0545 -0.0237 -0.0383
    1DPPC   C1B18993  10.945   7.916   3.657 -0.1746 -0.1917 -0.1210
    1DPPC   C2B18994  10.917   8.141   3.995 -0.1885 -0.0677  0.2183
    1DPPC   C3B18995  10.777   8.129   4.376  0.0887  0.0255  0.3382
    1DPPC   C4B18996  10.764   8.361   4.689  0.4082 -0.1730  0.1954
    1DPPC   NC318997  10.249  18.377   2.336  0.0459 -0.0375 -0.1893
    1DPPC   PO418998  10.512  17.957   2.300  0.0459 -0.3163  0.1488
    1DPPC   GL118999  10.631  18.086   2.672  0.0434  0.3672 -0.1517
    1DPPC   GL219000  10.408  18.419   2.792 -0.0521  0.0412  0.1198
    1DPPC   C1A19001  10.735  18.112   3.091  0.1162  0.3203  0.0196
    1DPPC   C2A19002  10.641  17.912   3.399 -0.0744  0.0611 -0.0664
    1DPPC   C3A19003  10.730  18.008   3.796  0.0658  0.0015 -0.1509
    1DPPC   C4A19004  10.615  18.171   4.231  0.0747  0.0455  0.0683
    1DPPC   C1B19005  10.262  18.291   3.142  0.0210 -0.0286 -0.1943
    1DPPC   C2B19006  10.231  18.136   3.648  0.0300  0.0322 -0.3088
    1DPPC   C3B19007  10.289  17.830   3.982  0.2307 -0.2244  0.1610
    1DPPC   C4B19008  10.283  17.652   4.435 -0.3562  0.0582  0.0835
    1DPPC   NC319009   4.879   9.791   3.208  0.1161 -0.3244  0.0066
    1DPPC   PO419010   4.473   9.941   3.343 -0.1806 -0.2199 -0.1069
    1DPPC   GL119011   4.572  10.195   3.648  0.0207  0.0661 -0.1416
    1DPPC   GL219012   4.871  10.106   3.685  0.1397  0.1833 -0.0988
    1DPPC   C1A19013   4.466  10.522   3.929 -0.1761 -0.0713  0.2716
    1DPPC   C2A19014   4.489  10.470   4.376  0.3250  0.1514 -0.2003
    1DPPC   C3A19015   4.398  10.352   4.855  0.0819  0.1056  0.1637
    1DPPC   C4A19016   3.972  10.355   5.005  0.2498 -0.1384 -0.3205
    1DPPC   C1B19017   4.759  10.132   4.105  0.1023 -0.0013 -0.1574
    1DPPC   C2B19018   4.927  10.258   4.478  0.1169 -0.1777 -0.2043
    1DPPC   C3B19019   4.835  10.533   4.714  0.2167 -0.3139 -0.1144
    1DPPC   C4B19020   4.601  10.782   4.720 -0.2634 -0.0527  0.1542
    1DPPC   NC319021  10.102   9.110   2.964 -0.0546 -0.1896  0.2577
    1DPPC   PO419022  10.052   9.461   2.886 -0.1236 -0.1529 -0.1658
    1DPPC   GL119023  10.137   9.495   3.368  0.0216  0.1402 -0.1797
    1DPPC   GL219024   9.942   9.275   3.549 -0.1174 -0.2134 -0.0734
    1DPPC   C1A19025  10.365   9.271   3.739 -0.1772  0.0497  0.5151
    1DPPC   C2A19026  10.372   9.350   4.190 -0.0970 -0.0950  0.1774
    1DPPC   C3A19027  10.293   9.494   4.570 -0.5175 -0.1332  0.3628
    1DPPC   C4A19028  10.153   9.648   4.911  0.0733 -0.0940 -0.0361
    1DPPC   C1B19029   9.824   9.205   4.000  0.1314  0.0265 -0.3155
    1DPPC   C2B19030   9.868   9.320   4.308 -0.1477 -0.1435 -0.0871
    1DPPC   C3B19031   9.780   9.389   4.746  0.0045 -0.1304 -0.0052
    1DPPC   C4B19032   9.568   9.051   5.011  0.0455 -0.0632  0.0076
    1DPPC   NC319033  22.868  18.515   3.088  0.0208  0.1226  0.1039
    1DPPC   PO419034  22.889  18.994   2.984  0.0330 -0.3789 -0.3632
    1DPPC   GL119035  23.075  19.010   3.322  0.2576 -0.1220  0.2565
    1DPPC   GL219036  23.206  19.305   3.430  0.2983  0.1652  0.1606
    1DPPC   C1A19037  22.966  18.676   3.667  0.1584 -0.1421  0.1009
    1DPPC   C2A19038  22.994  18.592   4.193 -0.1894 -0.2558 -0.2699
    1DPPC   C3A19039  22.823  18.299   4.607 -0.1723  0.2828 -0.0571
    1DPPC   C4A19040  22.878  18.240   4.958  0.0396  0.1049 -0.0257
    1DPPC   C1B19041  23.347  19.202   3.822 -0.0771 -0.2700  0.2241
    1DPPC   C2B19042  23.302  19.012   4.186  0.1131 -0.0979 -0.0449
    1DPPC   C3B19043  23.433  18.695   4.493 -0.0449 -0.1149  0.1328
    1DPPC   C4B19044  23.288  18.312   4.440 -0.1817 -0.0438  0.1871
    1DPPC   NC319045  17.328  14.054   2.214  0.2237  0.0612 -0.2945
    1DPPC   PO419046  17.774  14.137   2.260 -0.1177  0.2084  0.1825
    1DPPC   GL119047  17.546  14.131   2.631  0.0357  0.0668 -0.2380
    1DPPC   GL219048  17.841  14.369   2.771 -0.1315 -0.6857 -0.1849
    1DPPC   C1A19049  17.511  14.119   3.099 -0.0338  0.1945 -0.1175
    1DPPC   C2A19050  17.579  13.984   3.587  0.1147 -0.1001 -0.3519
    1DPPC   C3A19051  17.757  14.224   3.870  0.3166 -0.0894 -0.2686
    1DPPC   C4A19052  17.798  14.141   4.215  0.2123 -0.1595 -0.4233
    1DPPC   C1B19053  17.988  14.076   2.941 -0.0408  0.0139 -0.0573
    1DPPC   C2B19054  17.801  13.729   3.063 -0.0471  0.1013 -0.0934
    1DPPC   C3B19055  17.577  13.571   3.371 -0.1278  0.0700  0.0019
    1DPPC   C4B19056  17.336  13.304   3.462 -0.2895 -0.2522  0.0892
    1DPPC   NC319057  13.006  11.516   2.588 -0.2601 -0.0450  0.1157
    1DPPC   PO419058  13.472  11.433   2.433 -0.2390 -0.1139 -0.0669
    1DPPC   GL119059  13.421  11.582   2.840 -0.1454 -0.0806 -0.0105
    1DPPC   GL219060  13.302  11.438   2.951 -0.3538  0.1021 -0.0781
    1DPPC   C1A19061  13.418  11.686   3.321 -0.2489 -0.1842  0.1729
    1DPPC   C2A19062  13.344  11.783   3.749  0.0278 -0.2135  0.0018
    1DPPC   C3A19063  13.417  11.875   4.123  0.1686  0.0046 -0.0748
    1DPPC   C4A19064  13.411  12.008   4.582  0.2283 -0.2246  0.1802
    1DPPC   C1B19065  13.657  11.302   3.204  0.1334  0.0062  0.0983
    1DPPC   C2B19066  13.731  11.407   3.615 -0.0311 -0.0310 -0.0993
    1DPPC   C3B19067  13.748  11.419   3.998  0.0692  0.1923  0.0942
    1DPPC   C4B19068  13.706  11.528   4.451 -0.3022  0.0563 -0.2470
    1DPPC   NC319069  20.786  18.479   1.885  0.1232  0.0763 -0.2254
    1DPPC   PO419070  20.468  18.378   2.175  0.1992  0.3972 -0.0806
    1DPPC   GL119071  20.662  18.445   2.636  0.1348 -0.2908  0.0375
    1DPPC   GL219072  20.612  18.088   2.910 -0.0583  0.1605  0.4289
    1DPPC   C1A19073  20.570  18.644   2.976 -0.0669 -0.0732  0.4340
    1DPPC   C2A19074  20.488  18.637   3.386 -0.1247  0.0606 -0.0654
    1DPPC   C3A19075  20.427  18.499   3.748 -0.1851  0.1049 -0.1201
    1DPPC   C4A19076  20.595  18.548   4.227 -0.0618 -0.0466  0.3854
    1DPPC   C1B19077  20.445  18.075   3.334  0.2337  0.3110 -0.0452
    1DPPC   C2B19078  20.520  17.709   3.562  0.1682 -0.0224  0.1993
    1DPPC   C3B19079  20.645  17.544   3.936  0.1486  0.0108  0.2520
    1DPPC   C4B19080  20.586  17.621   4.337 -0.1080  0.2519  0.0969
    1DPPC   NC319081  13.620  17.292   1.935 -0.0263 -0.5051 -0.3092
    1DPPC   PO419082  13.747  16.852   1.935 -0.2987  0.1452  0.0606
    1DPPC   GL119083  13.793  16.741   2.470  0.2180  0.0806 -0.2484
    1DPPC   GL219084  13.794  16.363   2.603  0.1358 -0.1574  0.1074
    1DPPC   C1A19085  13.796  16.831   2.923 -0.0107 -0.3097  0.2425
    1DPPC   C2A19086  13.856  16.824   3.304 -0.0551  0.2391  0.1346
    1DPPC   C3A19087  13.842  16.749   3.698 -0.0652 -0.1550  0.1386
    1DPPC   C4A19088  13.801  16.695   4.175 -0.3257  0.0955 -0.0599
    1DPPC   C1B19089  14.011  16.304   2.957  0.1486  0.1016  0.0768
    1DPPC   C2B19090  13.970  16.275   3.441  0.2990 -0.0027 -0.1792
    1DPPC   C3B19091  14.175  16.247   3.858  0.2064  0.2851 -0.1254
    1DPPC   C4B19092  14.161  16.262   4.220 -0.0837  0.0648 -0.0422
    1DPPC   NC319093  17.287  19.470   2.738 -0.1194  0.2243 -0.2083
    1DPPC   PO419094  17.077  19.905   2.851  0.2863 -0.0259  0.1578
    1DPPC   GL119095  16.947  20.105   3.157  0.1265  0.2292 -0.2024
    1DPPC   GL219096  17.084  20.354   3.354  0.2742  0.2244 -0.1056
    1DPPC   C1A19097  16.736  19.941   3.538  0.0084 -0.0876 -0.1287
    1DPPC   C2A19098  16.544  19.935   4.027 -0.0274  0.0354  0.1377
    1DPPC   C3A19099  16.320  19.984   4.467 -0.2944 -0.2458 -0.0453
    1DPPC   C4A19100  15.901  20.211   4.539  0.0056  0.2555 -0.2783
    1DPPC   C1B19101  17.000  20.368   3.831 -0.0449 -0.4183 -0.1283
    1DPPC   C2B19102  16.993  20.384   4.332  0.2646  0.0854 -0.0563
    1DPPC   C3B19103  16.809  20.732   4.654 -0.1653 -0.2104  0.0341
    1DPPC   C4B19104  16.733  20.988   5.019 -0.1182 -0.4110 -0.2024
    1DPPC   NC319105  25.478  21.809   2.679 -0.0162 -0.2474 -0.0342
    1DPPC   PO419106  25.591  22.133   2.911  0.2834  0.1537  0.1316
    1DPPC   GL119107  25.674  21.889   3.187 -0.0081  0.1408  0.2747
    1DPPC   GL219108  26.026  21.660   3.275  0.1228 -0.0694  0.1055
    1DPPC   C1A19109  25.584  21.688   3.590  0.0581 -0.1234 -0.0706
    1DPPC   C2A19110  25.295  21.673   3.849 -0.0051 -0.0239  0.0581
    1DPPC   C3A19111  25.128  21.485   4.233 -0.0997  0.0543  0.0303
    1DPPC   C4A19112  25.374  21.299   4.506 -0.2344  0.0616  0.1597
    1DPPC   C1B19113  26.053  21.750   3.700  0.0465 -0.0278  0.0082
    1DPPC   C2B19114  26.181  21.973   4.049 -0.1152  0.1982 -0.0577
    1DPPC   C3B19115  26.293  22.290   4.346 -0.0591  0.0393 -0.3271
    1DPPC   C4B19116  26.122  22.644   4.584  0.0523  0.1308 -0.2748
    1DPPC   NC319117  15.298   7.228   2.854 -0.1267 -0.0108 -0.0504
    1DPPC   PO419118  15.749   7.615   2.835 -0.2485 -0.3278 -0.2390
    1DPPC   GL119119  15.864   7.643   3.298  0.0155 -0.1339  0.1427
    1DPPC   GL219120  15.640   7.765   3.542  0.1977 -0.1471 -0.2111
    1DPPC   C1A19121  16.077   7.569   3.631 -0.0740 -0.1645  0.0674
    1DPPC   C2A19122  16.059   7.588   3.872  0.2965  0.1442  0.1439
    1DPPC   C3A19123  16.064   7.896   4.142  0.0972 -0.0523 -0.0100
    1DPPC   C4A19124  16.148   8.179   4.416  0.0175  0.2160  0.1535
    1DPPC   C1B19125  15.622   7.901   3.901 -0.1257  0.0620  0.1668
    1DPPC   C2B19126  15.563   7.970   4.318 -0.0046 -0.0854 -0.3411
    1DPPC   C3B19127  15.307   7.801   4.559  0.4940  0.2326  0.0581
    1DPPC   C4B19128  14.978   7.702   4.623 -0.0385 -0.1394  0.0578
    1DPPC   NC319129  14.054   8.352   3.068  0.0622  0.0833  0.1005
    1DPPC   PO419130  13.990   8.830   3.009  0.0374  0.0579  0.0067
    1DPPC   GL119131  13.976   8.724   3.475 -0.0936  0.1254 -0.3332
    1DPPC   GL219132  14.220   8.476   3.607  0.1771 -0.3374 -0.0363
    1DPPC   C1A19133  13.796   8.644   3.849 -0.2921 -0.2003 -0.0408
    1DPPC   C2A19134  13.799   8.656   4.258 -0.2552  0.1790  0.1119
    1DPPC   C3A19135  13.729   8.669   4.583  0.1800  0.0180 -0.0910
    1DPPC   C4A19136  13.586   8.553   4.885 -0.1292 -0.1263  0.1009
    1DPPC   C1B19137  14.231   8.346   4.016  0.1484 -0.0207  0.2996
    1DPPC   C2B19138  14.222   8.354   4.433  0.0999  0.0382 -0.0925
    1DPPC   C3B19139  14.114   8.449   4.852  0.3765  0.0497 -0.3473
    1DPPC   C4B19140  14.113   8.457   5.229  0.0938  0.0988 -0.3200
    1DPPC   NC319141  19.753  17.070   2.558 -0.0856 -0.0481 -0.1809
    1DPPC   PO419142  20.148  17.316   2.415  0.1937 -0.1065 -0.1658
    1DPPC   GL119143  20.048  17.410   2.837 -0.2857 -0.0989 -0.4049
    1DPPC   GL219144  20.210  17.677   2.800 -0.2482 -0.0303  0.2401
    1DPPC   C1A19145  20.069  17.541   3.310  0.1131 -0.2626  0.0757
    1DPPC   C2A19146  20.108  17.543   3.841  0.0419  0.0416  0.0611
    1DPPC   C3A19147  20.105  17.615   4.347  0.0288  0.2807 -0.1445
    1DPPC   C4A19148  20.249  17.677   4.756 -0.2148  0.0339  0.0260
    1DPPC   C1B19149  20.517  17.637   3.074 -0.0722 -0.0676 -0.0270
    1DPPC   C2B19150  20.885  17.328   3.236 -0.0648  0.1787 -0.2962
    1DPPC   C3B19151  20.996  17.254   3.740  0.0529  0.3911  0.0913
    1DPPC   C4B19152  20.868  17.222   4.268 -0.0148  0.0425  0.0884
    1DIPC   NC319153  24.650  26.060   3.255  0.0412  0.3877  0.2448
    1DIPC   PO419154  24.427  25.709   3.323  0.2492 -0.2552 -0.0755
    1DIPC   GL119155  24.446  25.881   3.710 -0.0236  0.0198 -0.2790
    1DIPC   GL219156  24.314  26.132   3.785  0.1908  0.0952  0.0671
    1DIPC   C1A19157  24.629  25.992   4.159  0.0244  0.0308  0.2665
    1DIPC   D2A19158  24.748  25.985   4.596  0.0621  0.0932  0.0795
    1DIPC   D3A19159  25.033  25.750   4.787  0.0842  0.1241 -0.1819
    1DIPC   C4A19160  25.452  25.945   4.720 -0.1327 -0.3928  0.1828
    1DIPC   C1B19161  24.110  26.135   4.058  0.0565  0.3624  0.1191
    1DIPC   D2B19162  23.835  26.136   4.376 -0.0353 -0.2314 -0.1751
    1DIPC   D3B19163  23.423  25.836   4.457  0.2962 -0.1387  0.0276
    1DIPC   C4B19164  23.178  25.999   4.677  0.1884 -0.1021  0.4384
    1DIPC   NC319165  15.563  25.309   2.327 -0.1520 -0.0447 -0.2713
    1DIPC   PO419166  15.546  24.995   2.528  0.2562  0.0303 -0.2683
    1DIPC   GL119167  15.407  24.848   2.947 -0.3456  0.1398  0.1718
    1DIPC   GL219168  15.284  25.094   3.251  0.2299  0.2241  0.0612
    1DIPC   C1A19169  15.561  24.530   3.239 -0.2008 -0.0391 -0.0352
    1DIPC   D2A19170  15.343  24.245   3.466  0.0247 -0.1227  0.1190
    1DIPC   D3A19171  14.920  24.111   3.587  0.0336  0.1798 -0.0067
    1DIPC   C4A19172  15.033  23.730   3.883  0.0984 -0.1793  0.1236
    1DIPC   C1B19173  15.254  24.937   3.731  0.2638  0.0109 -0.0463
    1DIPC   D2B19174  15.508  24.997   4.125 -0.2291  0.0357  0.0715
    1DIPC   D3B19175  15.332  25.143   4.572 -0.2429 -0.0289 -0.1291
    1DIPC   C4B19176  15.568  25.195   4.987 -0.1440 -0.0357 -0.0023
    1DIPC   NC319177   0.977   3.060   2.768 -0.0286 -0.2795  0.2414
    1DIPC   PO419178   0.692   3.132   3.066 -0.1507  0.2009  0.0972
    1DIPC   GL119179   0.446   3.143   3.436 -0.1925 -0.0011  0.0893
    1DIPC   GL219180   0.069   3.082   3.535  0.2806 -0.0308  0.2869
    1DIPC   C1A19181   0.602   3.156   3.781 -0.0483  0.2060  0.0172
    1DIPC   D2A19182   0.690   3.277   4.243 -0.0661  0.0806  0.0267
    1DIPC   D3A19183   0.685   3.583   4.394  0.2550 -0.0263 -0.1993
    1DIPC   C4A19184   0.747   3.821   4.798  0.0742  0.1951 -0.3153
    1DIPC   C1B19185   0.041   2.984   3.981 -0.1566 -0.0754 -0.2275
    1DIPC   D2B19186   0.290   2.891   4.329  0.0903 -0.1873 -0.0417
    1DIPC   D3B19187   0.223   3.289   4.593 -0.1105  0.0715  0.1409
    1DIPC   C4B19188  -0.185   3.395   4.740 -0.0710 -0.1332 -0.0911
    1DIPC   NC319189  15.577  27.483   3.258  0.0799 -0.0073 -0.1673
    1DIPC   PO419190  15.931  27.207   3.397 -0.6979 -0.1348 -0.0594
    1DIPC   GL119191  16.093  26.950   3.760  0.2611  0.0458 -0.0280
    1DIPC   GL219192  16.320  26.747   3.909  0.1530  0.0299  0.3379
    1DIPC   C1A19193  15.902  27.019   4.200 -0.3870  0.1822 -0.2251
    1DIPC   D2A19194  15.726  27.026   4.523  0.1293  0.0289 -0.1472
    1DIPC   D3A19195  15.965  27.393   4.599  0.1555 -0.0803 -0.1034
    1DIPC   C4A19196  15.836  27.579   4.988  0.1814 -0.2314 -0.0392
    1DIPC   C1B19197  16.376  26.384   4.073 -0.0440  0.1500 -0.3704
    1DIPC   D2B19198  16.571  25.972   4.001  0.0051 -0.1989  0.3200
    1DIPC   D3B19199  16.346  25.716   4.165  0.0172 -0.1080  0.3176
    1DIPC   C4B19200  15.986  25.671   4.489 -0.3316  0.1064  0.2003
    1DIPC   NC319201   3.454  12.231   3.075  0.0047 -0.0086 -0.4068
    1DIPC   PO419202   3.563  12.558   2.928  0.0229 -0.1258  0.2747
    1DIPC   GL119203   3.584  12.699   3.362  0.0811  0.3091 -0.2068
    1DIPC   GL219204   3.379  12.952   3.512  0.0623  0.2279 -0.0688
    1DIPC   C1A19205   3.663  12.468   3.761 -0.3663  0.2075 -0.1646
    1DIPC   D2A19206   3.873  12.352   4.191  0.0535  0.0138  0.1049
    1DIPC   D3A19207   4.009  12.824   4.071  0.1589  0.3533  0.0458
    1DIPC   C4A19208   3.904  12.948   3.691  0.0606  0.0919  0.2441
    1DIPC   C1B19209   3.263  13.183   3.868 -0.1269  0.3138 -0.2154
    1DIPC   D2B19210   3.161  13.015   4.271  0.1297  0.0016  0.0135
    1DIPC   D3B19211   2.801  12.778   4.434 -0.1275 -0.1556  0.3316
    1DIPC   C4B19212   2.527  12.716   4.195  0.0257 -0.0824 -0.2573
    1DIPC   NC319213  17.973   7.844   1.912 -0.3825 -0.2028 -0.1468
    1DIPC   PO419214  18.117   7.411   2.191  0.1790 -0.0395 -0.1453
    1DIPC   GL119215  18.034   7.489   2.645 -0.3382 -0.2059  0.0191
    1DIPC   GL219216  18.178   7.281   2.769  0.1375  0.1804  0.3326
    1DIPC   C1A19217  18.112   7.796   2.898  0.1380 -0.1839 -0.0423
    1DIPC   D2A19218  18.091   7.897   3.337 -0.0707 -0.0186 -0.1529
    1DIPC   D3A19219  18.097   7.897   3.835 -0.0836  0.2898 -0.3749
    1DIPC   C4A19220  17.850   7.968   4.210  0.1070 -0.1335 -0.3860
    1DIPC   C1B19221  18.256   7.421   3.197 -0.1174  0.4494 -0.2473
    1DIPC   D2B19222  18.521   7.406   3.660  0.1525 -0.0080  0.0064
    1DIPC   D3B19223  18.586   7.605   4.063 -0.0346 -0.0076 -0.0625
    1DIPC   C4B19224  18.340   7.914   4.318  0.2296  0.2273 -0.1371
    1DIPC   NC319225   0.144  10.806   2.398 -0.1624 -0.1958  0.3132
    1DIPC   PO419226  -0.235  10.936   2.667  0.0150  0.0489  0.1281
    1DIPC   GL119227  -0.321  11.057   3.127 -0.0057  0.0035  0.0977
    1DIPC   GL219228  -0.564  11.450   3.101  0.0116 -0.0426  0.0228
    1DIPC   C1A19229  -0.655  10.924   3.273 -0.1406  0.0567  0.0380
    1DIPC   D2A19230  -1.043  10.855   3.335  0.2419  0.0087  0.3663
    1DIPC   D3A19231  -1.068  10.858   3.766  0.2501 -0.0731 -0.0942
    1DIPC   C4A19232  -1.345  11.052   4.053  0.2482 -0.1148  0.0057
    1DIPC   C1B19233  -0.529  11.831   3.393  0.2013 -0.2077 -0.1496
    1DIPC   D2B19234  -0.714  11.786   3.835  0.0312  0.0903 -0.1196
    1DIPC   D3B19235  -0.740  11.723   4.241  0.2166  0.2438  0.0605
    1DIPC   C4B19236  -0.539  11.638   4.600 -0.0007 -0.0927 -0.0232
    1DIPC   NC319237  27.229  19.193   2.916 -0.1180  0.3496 -0.0811
    1DIPC   PO419238  26.805  19.425   2.952  0.0458  0.2657  0.0905
    1DIPC   GL119239  27.067  19.281   3.375  0.2984 -0.0566  0.0517
    1DIPC   GL219240  27.313  19.367   3.450  0.0674 -0.0914  0.1355
    1DIPC   C1A19241  26.897  19.061   3.719  0.0847 -0.2053  0.0462
    1DIPC   D2A19242  26.680  18.850   3.850  0.0215  0.2668  0.1197
    1DIPC   D3A19243  26.562  18.508   4.031  0.1613 -0.2020  0.0922
    1DIPC   C4A19244  26.514  18.433   4.446  0.0991 -0.1468 -0.0519
    1DIPC   C1B19245  27.360  19.155   3.706 -0.1198  0.1012  0.1117
    1DIPC   D2B19246  27.317  19.078   4.094  0.3505  0.0001 -0.3249
    1DIPC   D3B19247  27.048  18.749   4.148 -0.0206 -0.1481 -0.2515
    1DIPC   C4B19248  26.736  18.860   4.314  0.2313  0.0757  0.0391
    1DIPC   NC319249  13.424  28.537   3.537  0.2682 -0.2650 -0.0682
    1DIPC   PO419250  13.711  28.759   3.702  0.0246  0.0127  0.1472
    1DIPC   GL119251  13.408  28.974   3.873  0.0134  0.1496  0.0509
    1DIPC   GL219252  13.489  29.230   3.793  0.4433  0.0302 -0.0920
    1DIPC   C1A19253  13.215  29.191   4.239 -0.1887 -0.1913  0.0770
    1DIPC   D2A19254  13.517  29.279   4.558  0.0938 -0.1990 -0.0146
    1DIPC   D3A19255  13.337  29.453   4.809  0.3096 -0.1361  0.2775
    1DIPC   C4A19256  13.373  29.922   5.030 -0.3090 -0.0197  0.0667
    1DIPC   C1B19257  13.817  29.212   4.153  0.2192  0.1815  0.1184
    1DIPC   D2B19258  14.009  29.194   4.525 -0.0194 -0.1138 -0.0613
    1DIPC   D3B19259  14.248  29.477   4.595 -0.0746 -0.4475 -0.3201
    1DIPC   C4B19260  14.479  29.719   4.942 -0.0833  0.0126 -0.2513
    1DIPC   NC319261   1.428  25.971   2.566  0.2438 -0.1699  0.0718
    1DIPC   PO419262   1.765  26.263   2.663  0.1613  0.1196 -0.1574
    1DIPC   GL119263   1.835  26.481   2.919 -0.0796  0.2950 -0.1076
    1DIPC   GL219264   2.114  26.308   3.001  0.0026 -0.1509 -0.0775
    1DIPC   C1A19265   1.932  26.715   3.264 -0.2185  0.0593 -0.0820
    1DIPC   D2A19266   1.988  26.747   3.735  0.1317  0.2258 -0.2792
    1DIPC   D3A19267   2.353  26.724   3.898  0.1348  0.0734  0.2714
    1DIPC   C4A19268   2.253  26.808   4.365 -0.2644 -0.3168 -0.1816
    1DIPC   C1B19269   1.801  26.154   3.283 -0.0589  0.2569 -0.2351
    1DIPC   D2B19270   1.793  26.231   3.673 -0.1872  0.0043 -0.1119
    1DIPC   D3B19271   1.649  25.920   3.978 -0.0060  0.0937 -0.2548
    1DIPC   C4B19272   1.876  25.486   3.985  0.1008 -0.3633 -0.0576
    1DIPC   NC319273  27.806  13.589   2.023 -0.0697  0.0815  0.1024
    1DIPC   PO419274  27.661  13.858   2.332 -0.0755  0.3226 -0.2420
    1DIPC   GL119275  27.670  13.629   2.662 -0.1817 -0.2622  0.1241
    1DIPC   GL219276  27.993  13.645   2.867  0.1529  0.0894 -0.1864
    1DIPC   C1A19277  27.623  13.263   2.843 -0.2599  0.1742 -0.2576
    1DIPC   D2A19278  27.881  12.985   3.088 -0.0279  0.0581 -0.0371
    1DIPC   D3A19279  27.785  12.957   3.465  0.0242  0.0775  0.0074
    1DIPC   C4A19280  27.510  13.297   3.702 -0.0541 -0.0902  0.0814
    1DIPC   C1B19281  28.008  13.412   3.291  0.1508  0.0130  0.0295
    1DIPC   D2B19282  28.025  13.459   3.798  0.1541  0.0452  0.1017
    1DIPC   D3B19283  28.050  13.786   4.078  0.0974 -0.0585 -0.1524
    1DIPC   C4B19284  27.747  13.973   4.366  0.0233 -0.1106  0.0863
    1DIPC   NC319285  14.073   1.284   3.574  0.2058  0.0683  0.0508
    1DIPC   PO419286  14.239   0.943   3.562  0.0593 -0.1975 -0.1234
    1DIPC   GL119287  14.256   0.983   4.051  0.2462 -0.2783 -0.0691
    1DIPC   GL219288  14.438   1.106   4.260  0.0010  0.0219 -0.1650
    1DIPC   C1A19289  14.055   0.904   4.482 -0.2935  0.1178  0.1327
    1DIPC   D2A19290  14.151   1.066   4.895  0.2306 -0.0805 -0.1783
    1DIPC   D3A19291  13.803   0.974   5.141 -0.4006  0.1551 -0.0275
    1DIPC   C4A19292  13.381   1.163   5.100 -0.2782 -0.0356  0.1523
    1DIPC   C1B19293  14.446   1.346   4.589  0.0447 -0.0824 -0.0997
    1DIPC   D2B19294  14.562   1.620   4.808 -0.0481 -0.0357 -0.0466
    1DIPC   D3B19295  14.237   1.825   4.512  0.2092  0.0518 -0.1377
    1DIPC   C4B19296  14.418   2.092   4.315  0.0860  0.0547 -0.0463
    1DIPC   NC319297  29.644  29.095   2.736 -0.0451 -0.1736  0.0138
    1DIPC   PO419298  29.313  28.761   3.057  0.0691 -0.3676  0.0131
    1DIPC   GL119299  29.171  28.541   3.430 -0.0676 -0.3141 -0.0266
    1DIPC   GL219300  29.295  28.222   3.594 -0.1734 -0.1440  0.0355
    1DIPC   C1A19301  28.877  28.608   3.785 -0.2918  0.3330 -0.0845
    1DIPC   D2A19302  28.753  28.815   4.149 -0.0347 -0.0442 -0.0347
    1DIPC   D3A19303  28.612  28.500   4.358 -0.0973 -0.0560  0.3869
    1DIPC   C4A19304  28.544  28.548   4.719 -0.1914 -0.3555  0.0500
    1DIPC   C1B19305  29.661  27.932   3.605 -0.1386  0.0883  0.0957
    1DIPC   D2B19306  29.807  27.898   4.037  0.0724 -0.1110  0.1076
    1DIPC   D3B19307  29.471  28.098   4.035 -0.1677  0.0787 -0.2290
    1DIPC   C4B19308  29.319  28.457   4.010  0.0827 -0.2174 -0.2287
    1DIPC   NC319309  27.800   1.604   3.036 -0.2144 -0.1807 -0.0726
    1DIPC   PO419310  27.796   2.136   3.023  0.2743  0.2669 -0.0723
    1DIPC   GL119311  27.776   2.134   3.434  0.1152  0.0587 -0.1575
    1DIPC   GL219312  27.441   2.229   3.674 -0.2079  0.2997 -0.2321
    1DIPC   C1A19313  27.747   1.851   3.788  0.2043 -0.1696 -0.1225
    1DIPC   D2A19314  27.342   1.568   3.948  0.1596  0.0387  0.1760
    1DIPC   D3A19315  27.550   1.810   4.287  0.0425 -0.1699 -0.1032
    1DIPC   C4A19316  27.963   1.888   4.336 -0.1180 -0.2417  0.0137
    1DIPC   C1B19317  27.797   2.236   4.032 -0.0104  0.3765 -0.3044
    1DIPC   D2B19318  27.840   2.458   4.447 -0.0559 -0.1461 -0.1710
    1DIPC   D3B19319  27.593   2.102   4.729  0.0614 -0.1766 -0.0550
    1DIPC   C4B19320  27.179   1.902   4.592 -0.2965  0.3879 -0.0436
    1DIPC   NC319321   1.914   6.224   2.830 -0.0629  0.3197 -0.0137
    1DIPC   PO419322   2.211   6.271   3.181  0.1089  0.1745  0.0214
    1DIPC   GL119323   2.158   6.203   3.662 -0.4608  0.2927  0.1638
    1DIPC   GL219324   2.451   6.047   3.706 -0.0569 -0.1978  0.2070
    1DIPC   C1A19325   1.879   6.141   3.945 -0.1104 -0.0192 -0.2619
    1DIPC   D2A19326   1.622   6.031   4.257 -0.1268 -0.5423  0.0941
    1DIPC   D3A19327   1.977   6.336   4.394 -0.1403  0.0182 -0.0844
    1DIPC   C4A19328   1.982   6.713   4.099  0.3055  0.1429 -0.0378
    1DIPC   C1B19329   2.419   6.143   4.108  0.0602 -0.0657  0.2975
    1DIPC   D2B19330   2.477   5.995   4.556 -0.0621 -0.2131  0.0949
    1DIPC   D3B19331   2.246   5.863   4.842  0.0471 -0.0289 -0.2583
    1DIPC   C4B19332   2.426   5.750   5.249  0.2205 -0.0461 -0.0799
    1DIPC   NC319333   8.724   3.499   3.300 -0.3369  0.1036 -0.1845
    1DIPC   PO419334   8.865   3.153   3.433 -0.1089 -0.1575 -0.1615
    1DIPC   GL119335   9.008   3.226   3.804 -0.2300  0.1250  0.1805
    1DIPC   GL219336   8.789   2.970   4.002  0.2736  0.1882 -0.3916
    1DIPC   C1A19337   9.003   3.406   4.197  0.0593 -0.0821  0.2534
    1DIPC   D2A19338   9.149   3.427   4.629 -0.0805 -0.3238 -0.0149
    1DIPC   D3A19339   9.238   3.062   4.790 -0.0528  0.0876 -0.2632
    1DIPC   C4A19340   9.609   2.937   5.053 -0.0201 -0.0188  0.4521
    1DIPC   C1B19341   8.756   3.096   4.510 -0.0559 -0.0372  0.0996
    1DIPC   D2B19342   8.738   3.291   4.819  0.0265 -0.0847  0.0793
    1DIPC   D3B19343   8.390   3.315   5.228 -0.4772  0.3598  0.1167
    1DIPC   C4B19344   8.658   3.061   5.454  0.3245 -0.1279 -0.0619
    1DIPC   NC319345  24.386   7.213   2.762  0.1994 -0.2262  0.1144
    1DIPC   PO419346  24.787   6.984   2.860 -0.0497 -0.2007 -0.2994
    1DIPC   GL119347  24.835   7.113   3.343 -0.0734  0.2558  0.3098
    1DIPC   GL219348  24.695   7.237   3.618 -0.1356  0.2402  0.0458
    1DIPC   C1A19349  25.174   7.186   3.711  0.4043  0.0202 -0.0179
    1DIPC   D2A19350  25.607   7.212   3.826  0.2303 -0.0662 -0.0265
    1DIPC   D3A19351  25.419   6.995   4.089 -0.0733  0.2421 -0.1610
    1DIPC   C4A19352  25.614   6.745   4.440 -0.2519  0.0430  0.4247
    1DIPC   C1B19353  24.382   7.214   3.912  0.1598 -0.0913  0.1320
    1DIPC   D2B19354  24.352   7.053   4.356 -0.2889  0.0969  0.3681
    1DIPC   D3B19355  24.275   7.207   4.761 -0.1335 -0.1000 -0.1256
    1DIPC   C4B19356  23.944   6.912   4.959  0.0410 -0.0627  0.0868
    1DIPC   NC319357   7.988  17.547   1.757  0.0111 -0.0997 -0.0083
    1DIPC   PO419358   8.255  17.683   1.998  0.1702  0.0037  0.1580
    1DIPC   GL119359   8.231  17.717   2.372  0.0877 -0.1378  0.0028
    1DIPC   GL219360   7.888  17.880   2.370 -0.2540 -0.0879  0.2094
    1DIPC   C1A19361   8.199  17.463   2.657 -0.0423 -0.1818  0.3159
    1DIPC   D2A19362   7.965  17.327   2.979 -0.2150  0.1210 -0.0013
    1DIPC   D3A19363   8.033  16.967   3.170 -0.0402 -0.3941  0.1546
    1DIPC   C4A19364   7.876  16.707   3.468 -0.0155 -0.0867  0.1040
    1DIPC   C1B19365   7.683  17.662   2.630  0.2187 -0.3303  0.2658
    1DIPC   D2B19366   7.502  17.249   2.656  0.2991 -0.2303 -0.0103
    1DIPC   D3B19367   7.941  16.967   2.545 -0.1971  0.3794 -0.2328
    1DIPC   C4B19368   8.354  16.982   2.768 -0.3837 -0.0566 -0.1859
    1DIPC   NC319369  10.152  25.232   2.580  0.2512  0.0541 -0.3489
    1DIPC   PO419370  10.554  25.218   2.515  0.0156  0.1088  0.0618
    1DIPC   GL119371  10.590  24.978   2.835  0.0579 -0.3425 -0.1129
    1DIPC   GL219372  11.000  24.982   2.900 -0.1059  0.0141  0.0311
    1DIPC   C1A19373  10.444  25.005   3.236  0.0222  0.2011 -0.1563
    1DIPC   D2A19374  10.123  24.924   3.725  0.0208  0.0672  0.3374
    1DIPC   D3A19375  10.374  25.001   4.143 -0.1614 -0.0186 -0.2701
    1DIPC   C4A19376  10.807  25.146   4.201 -0.0004 -0.1610 -0.2462
    1DIPC   C1B19377  10.860  24.782   3.306 -0.2622 -0.1088  0.1987
    1DIPC   D2B19378  10.844  24.785   3.693 -0.1742  0.1883 -0.1244
    1DIPC   D3B19379  10.456  24.636   3.561  0.2014  0.2208  0.0326
    1DIPC   C4B19380  10.183  24.421   3.781 -0.0037 -0.1442 -0.1219
    1DIPC   NC319381  10.383  28.895   2.621 -0.1334 -0.0045  0.1460
    1DIPC   PO419382  10.376  28.784   3.093 -0.2148  0.1889  0.3086
    1DIPC   GL119383  10.480  28.848   3.539 -0.0945  0.0074 -0.0935
    1DIPC   GL219384  10.822  28.922   3.529 -0.1660  0.2098 -0.1281
    1DIPC   C1A19385  10.514  28.958   3.918 -0.0700  0.4354 -0.1681
    1DIPC   D2A19386  10.545  28.807   4.240 -0.1018  0.2282  0.3783
    1DIPC   D3A19387  10.585  28.880   4.737 -0.4704 -0.0238  0.0242
    1DIPC   C4A19388  10.566  29.109   5.152 -0.3195  0.3420  0.1039
    1DIPC   C1B19389  11.033  28.840   3.980 -0.0078  0.1648  0.0171
    1DIPC   D2B19390  10.961  29.088   4.411  0.0838 -0.0416  0.2867
    1DIPC   D3B19391  11.079  28.956   4.811  0.0586  0.0176 -0.0550
    1DIPC   C4B19392  11.122  28.556   5.001 -0.0132 -0.1873  0.1668
    1DIPC   NC319393  11.090   2.594   3.521  0.1032  0.0742 -0.1826
    1DIPC   PO419394  11.526   2.544   3.606 -0.1927  0.1959  0.0666
    1DIPC   GL119395  11.615   2.651   4.123 -0.1498  0.1647  0.1244
    1DIPC   GL219396  12.008   2.638   4.263  0.1897 -0.1386  0.0989
    1DIPC   C1A19397  11.374   2.441   4.466 -0.3314 -0.0250 -0.0131
    1DIPC   D2A19398  11.119   2.107   4.663 -0.1002 -0.2525  0.2683
    1DIPC   D3A19399  10.967   2.425   4.885  0.1655  0.0315 -0.0502
    1DIPC   C4A19400  10.635   2.662   4.786  0.0144 -0.1010 -0.0020
    1DIPC   C1B19401  11.812   2.649   4.646 -0.2262 -0.1773  0.1559
    1DIPC   D2B19402  11.507   2.622   4.939 -0.2975 -0.2595  0.0595
    1DIPC   D3B19403  11.367   2.648   5.340 -0.0798 -0.1191 -0.0817
    1DIPC   C4B19404  10.953   2.789   5.309  0.0569 -0.1262 -0.2341
    1DIPC   NC319405   7.410  12.386   2.187  0.0588 -0.2074  0.2390
    1DIPC   PO419406   7.232  12.364   2.600  0.0696  0.2368 -0.0597
    1DIPC   GL119407   7.309  12.451   3.017 -0.0683  0.2150 -0.0462
    1DIPC   GL219408   7.198  12.137   3.185 -0.1050  0.1849 -0.0477
    1DIPC   C1A19409   7.470  12.769   3.253 -0.0013  0.1931 -0.1068
    1DIPC   D2A19410   7.362  13.022   3.643 -0.1490 -0.1826  0.2401
    1DIPC   D3A19411   7.022  13.074   4.009 -0.0714  0.4060  0.0333
    1DIPC   C4A19412   7.059  13.311   4.294  0.2271  0.2652 -0.0336
    1DIPC   C1B19413   7.504  12.370   3.465  0.1543  0.2348 -0.0043
    1DIPC   D2B19414   7.579  12.123   3.839 -0.1409  0.0112  0.3810
    1DIPC   D3B19415   7.620  12.391   4.217  0.1825  0.0522  0.2743
    1DIPC   C4B19416   7.282  12.438   4.477  0.0884  0.1295  0.0509
    1DIPC   NC319417  23.420  11.975   2.361  0.2141  0.4071  0.1690
    1DIPC   PO419418  23.224  11.527   2.598 -0.1114 -0.0505 -0.0882
    1DIPC   GL119419  23.184  11.496   3.008  0.2913 -0.1658  0.0233
    1DIPC   GL219420  23.493  11.508   3.235 -0.1675 -0.0950  0.2152
    1DIPC   C1A19421  23.109  11.384   3.470  0.1867 -0.0203 -0.3243
    1DIPC   D2A19422  23.469  11.310   3.726  0.0499  0.1478 -0.2809
    1DIPC   D3A19423  23.610  11.443   4.083 -0.2111 -0.0937 -0.3164
    1DIPC   C4A19424  23.357  11.229   4.422 -0.0007  0.0183  0.2666
    1DIPC   C1B19425  23.570  11.796   3.637  0.1298  0.0788 -0.5930
    1DIPC   D2B19426  23.227  11.933   3.948  0.0843  0.1835  0.0552
    1DIPC   D3B19427  23.101  11.506   4.008 -0.1920 -0.1325 -0.0903
    1DIPC   C4B19428  22.670  11.421   4.070  0.0097  0.2480 -0.0632
    1DIPC   NC319429   6.873   8.098   3.633 -0.4296 -0.0358  0.3655
    1DIPC   PO419430   6.362   8.406   3.607 -0.2009  0.2180  0.0563
    1DIPC   GL119431   6.279   8.515   4.022 -0.2784  0.0538 -0.0532
    1DIPC   GL219432   5.979   8.298   4.110  0.0994 -0.1891  0.0056
    1DIPC   C1A19433   6.016   8.804   4.217  0.0816 -0.3320  0.1943
    1DIPC   D2A19434   5.734   9.280   4.252  0.1063 -0.3052 -0.3012
    1DIPC   D3A19435   5.501   8.897   4.388  0.3690  0.0572  0.2099
    1DIPC   C4A19436   5.443   8.998   4.725 -0.1877  0.1270  0.0357
    1DIPC   C1B19437   6.178   7.997   4.270 -0.0189 -0.0639 -0.1590
    1DIPC   D2B19438   6.519   8.013   4.129 -0.1672  0.0429 -0.0105
    1DIPC   D3B19439   6.589   8.210   4.483 -0.0072  0.0635  0.1135
    1DIPC   C4B19440   6.528   8.576   4.461 -0.0611  0.4584 -0.2052
    1DIPC   NC319441  28.876  29.014   3.120  0.2181  0.1162  0.1391
    1DIPC   PO419442  28.563  28.927   2.765  0.2235 -0.2798  0.2931
    1DIPC   GL119443  28.598  28.594   3.058  0.2266  0.0183 -0.1179
    1DIPC   GL219444  28.799  28.451   3.099  0.0207  0.1065  0.0230
    1DIPC   C1A19445  28.405  28.464   3.526 -0.1974  0.0474 -0.0533
    1DIPC   D2A19446  28.358  28.184   3.956 -0.1390  0.1943  0.1866
    1DIPC   D3A19447  28.280  28.146   4.433 -0.0205  0.0154  0.0160
    1DIPC   C4A19448  27.869  28.365   4.510 -0.1937 -0.0592 -0.0966
    1DIPC   C1B19449  28.877  28.087   3.284  0.4580  0.2109 -0.1683
    1DIPC   D2B19450  28.940  27.599   3.376 -0.0039  0.0215  0.1444
    1DIPC   D3B19451  28.596  27.437   3.709  0.1077  0.0348  0.0698
    1DIPC   C4B19452  28.425  27.694   3.978  0.0569  0.2673  0.0294
    1DIPC   NC319453   9.428  23.571   2.147 -0.1190 -0.1650  0.0744
    1DIPC   PO419454   9.746  23.230   2.257  0.3816 -0.1728  0.2163
    1DIPC   GL119455   9.800  23.075   2.701 -0.0853  0.0315 -0.0094
    1DIPC   GL219456   9.838  23.152   3.003 -0.1319 -0.0154  0.1128
    1DIPC   C1A19457   9.780  22.640   2.868  0.1053  0.0772 -0.0758
    1DIPC   D2A19458   9.962  22.305   3.070  0.0161 -0.2846 -0.0815
    1DIPC   D3A19459   9.508  22.372   3.170 -0.0707 -0.1761  0.1358
    1DIPC   C4A19460   9.223  22.087   3.193  0.1287  0.2326 -0.1551
    1DIPC   C1B19461   9.920  22.788   3.357 -0.0718 -0.0087  0.2088
    1DIPC   D2B19462   9.817  22.463   3.581 -0.0990 -0.0192  0.1220
    1DIPC   D3B19463   9.905  22.289   3.882  0.0169  0.2090 -0.1349
    1DIPC   C4B19464   9.814  21.896   4.003 -0.0073  0.2263  0.1953
    1DIPC   NC319465  10.186  20.924   2.108  0.0153 -0.0253  0.1169
    1DIPC   PO419466   9.806  20.916   2.407  0.2208  0.2092  0.1697
    1DIPC   GL119467   9.907  20.854   2.836 -0.0294 -0.1486 -0.0497
    1DIPC   GL219468  10.241  20.777   2.996 -0.0491 -0.0823  0.0796
    1DIPC   C1A19469   9.881  20.987   3.282 -0.3007  0.1457  0.0690
    1DIPC   D2A19470   9.855  21.004   3.733 -0.0886 -0.1095 -0.1084
    1DIPC   D3A19471   9.606  21.303   3.553  0.1649 -0.1354  0.0678
    1DIPC   C4A19472   9.548  21.240   3.064  0.0854  0.0729  0.2097
    1DIPC   C1B19473   9.993  20.363   2.894 -0.3353  0.2606 -0.0807
    1DIPC   D2B19474   9.973  20.014   3.141 -0.2987 -0.2680  0.2877
    1DIPC   D3B19475   9.873  19.794   2.787  0.0157 -0.2274 -0.0297
    1DIPC   C4B19476   9.916  19.447   2.932  0.3601 -0.0083 -0.0191
    1DIPC   NC319477  24.394  22.981   2.754  0.1584 -0.1372 -0.1216
    1DIPC   PO419478  23.926  23.053   2.961  0.2020 -0.3377 -0.1154
    1DIPC   GL119479  23.996  23.057   3.410  0.0379 -0.0187  0.1273
    1DIPC   GL219480  24.202  23.260   3.675  0.0269  0.1156 -0.0809
    1DIPC   C1A19481  24.036  22.767   3.758 -0.5349  0.1536 -0.0009
    1DIPC   D2A19482  24.125  22.807   4.158 -0.1519  0.0949 -0.1012
    1DIPC   D3A19483  24.421  22.665   4.303  0.1291  0.2000 -0.3255
    1DIPC   C4A19484  24.790  22.877   4.383 -0.2803 -0.0134  0.1110
    1DIPC   C1B19485  23.931  23.247   4.009  0.2511  0.0561  0.3564
    1DIPC   D2B19486  23.559  23.036   4.289  0.3843 -0.1197 -0.2000
    1DIPC   D3B19487  23.555  23.517   4.407  0.0347  0.0516 -0.0014
    1DIPC   C4B19488  23.296  23.552   4.847  0.2957  0.0215  0.0685
    1DIPC   NC319489  10.239  15.179   2.283  0.1484 -0.0055  0.2909
    1DIPC   PO419490   9.884  14.985   2.041 -0.2180  0.3791 -0.0308
    1DIPC   GL119491   9.563  14.953   2.461 -0.2008 -0.0519  0.1002
    1DIPC   GL219492   9.653  15.279   2.453  0.0439 -0.0363 -0.1825
    1DIPC   C1A19493   9.478  15.078   2.884 -0.0511 -0.2160  0.1221
    1DIPC   D2A19494   9.344  15.060   3.350 -0.1592  0.1855 -0.2353
    1DIPC   D3A19495   9.240  15.378   3.526 -0.0443 -0.0867 -0.0603
    1DIPC   C4A19496   9.094  15.393   3.957 -0.0575 -0.0828  0.1994
    1DIPC   C1B19497   9.846  15.573   2.713 -0.0473 -0.2654 -0.1493
    1DIPC   D2B19498   9.996  15.929   2.985 -0.2032 -0.1492 -0.3679
    1DIPC   D3B19499   9.933  15.953   3.410  0.0678  0.0367 -0.0837
    1DIPC   C4B19500  10.010  15.837   3.839 -0.0783 -0.0886  0.2307
    1DIPC   NC319501   8.042  25.764   2.362 -0.2405  0.2247  0.2745
    1DIPC   PO419502   8.259  25.358   2.135  0.1564 -0.0467  0.1519
    1DIPC   GL119503   8.230  25.324   2.602 -0.1082 -0.0430  0.0863
    1DIPC   GL219504   8.209  25.499   2.849  0.1206 -0.0041 -0.0792
    1DIPC   C1A19505   8.418  25.089   3.024 -0.4744 -0.0383  0.2337
    1DIPC   D2A19506   8.495  24.678   3.078  0.1840  0.0765  0.1811
    1DIPC   D3A19507   8.299  24.445   3.371  0.3040 -0.3381  0.2418
    1DIPC   C4A19508   8.384  24.579   3.809  0.0583 -0.0523 -0.3949
    1DIPC   C1B19509   8.595  25.549   3.160 -0.1820  0.0117  0.4066
    1DIPC   D2B19510   8.730  25.285   3.424 -0.2180 -0.0182  0.0386
    1DIPC   D3B19511   8.310  25.060   3.533 -0.0988 -0.1387  0.2017
    1DIPC   C4B19512   8.067  24.959   3.823  0.0198 -0.3271 -0.1225
    1DIPC   NC319513  20.195   2.415   2.753  0.3250  0.1020 -0.0114
    1DIPC   PO419514  19.787   2.059   2.783  0.1023 -0.3215  0.2842
    1DIPC   GL119515  19.816   2.037   3.152  0.1665 -0.2045 -0.0317
    1DIPC   GL219516  19.637   2.000   3.371 -0.1611 -0.2239  0.2474
    1DIPC   C1A19517  20.048   1.769   3.379  0.0088 -0.0496  0.1812
    1DIPC   D2A19518  20.274   1.830   3.832  0.1638 -0.0307  0.1718
    1DIPC   D3A19519  20.120   1.560   4.139 -0.0564  0.0924 -0.0168
    1DIPC   C4A19520  19.737   1.411   4.285 -0.2731 -0.2424  0.0402
    1DIPC   C1B19521  19.956   2.207   3.615 -0.0336 -0.1570 -0.3214
    1DIPC   D2B19522  20.117   2.530   3.855 -0.1564  0.1066 -0.0168
    1DIPC   D3B19523  20.222   2.489   4.246 -0.0512 -0.0675 -0.1470
    1DIPC   C4B19524  20.585   2.433   4.191  0.3053 -0.1776 -0.0813
    1DIPC   NC319525  11.672   7.222   2.686 -0.0519  0.0845  0.2606
    1DIPC   PO419526  11.683   6.937   3.057 -0.0518 -0.1348 -0.2057
    1DIPC   GL119527  11.886   6.905   3.455 -0.0978  0.1197 -0.3056
    1DIPC   GL219528  11.662   6.687   3.619 -0.2391 -0.0318  0.2051
    1DIPC   C1A19529  11.987   6.989   3.883  0.0074  0.0156  0.2015
    1DIPC   D2A19530  12.358   6.881   4.108 -0.0827 -0.0822 -0.3433
    1DIPC   D3A19531  12.554   6.905   3.715 -0.3162  0.0208 -0.1600
    1DIPC   C4A19532  12.298   7.160   3.495 -0.0429  0.2205  0.1554
    1DIPC   C1B19533  11.633   6.725   4.051  0.2841  0.0468  0.2740
    1DIPC   D2B19534  11.864   6.915   4.348 -0.4876  0.1658  0.1072
    1DIPC   D3B19535  11.574   6.563   4.560  0.0143 -0.1181 -0.0372
    1DIPC   C4B19536  11.578   6.366   4.922 -0.2687  0.2805 -0.0235
    1DIPC   NC319537  27.732   6.409   2.940  0.4497 -0.1225  0.1065
    1DIPC   PO419538  27.869   6.065   3.077  0.2067  0.0924 -0.1107
    1DIPC   GL119539  27.654   6.157   3.433 -0.0324  0.0465 -0.3849
    1DIPC   GL219540  27.326   6.458   3.400  0.0485  0.0689  0.1020
    1DIPC   C1A19541  27.634   6.180   3.825 -0.2887 -0.1784 -0.2407
    1DIPC   D2A19542  27.955   6.303   4.049 -0.1051 -0.1228  0.2853
    1DIPC   D3A19543  27.927   6.356   4.483 -0.0506 -0.2632  0.1159
    1DIPC   C4A19544  27.630   6.130   4.739  0.1523  0.0543  0.2042
    1DIPC   C1B19545  27.387   6.853   3.518 -0.0908  0.0739 -0.3076
    1DIPC   D2B19546  27.622   7.125   3.216  0.0812  0.1723  0.1270
    1DIPC   D3B19547  27.963   6.846   3.370  0.0845 -0.1088  0.1328
    1DIPC   C4B19548  27.879   6.547   3.610 -0.0775  0.0818  0.0371
    1DIPC   NC319549   7.056  17.802   1.975  0.0173  0.0615 -0.4044
    1DIPC   PO419550   7.016  17.840   2.406  0.1548  0.0498 -0.0098
    1DIPC   GL119551   6.845  18.063   2.657 -0.0899 -0.0235  0.4427
    1DIPC   GL219552   6.843  18.405   2.601 -0.2179  0.2606  0.2827
    1DIPC   C1A19553   6.616  18.279   3.065 -0.0649 -0.0845 -0.0179
    1DIPC   D2A19554   6.782  18.321   3.448  0.0256 -0.0165 -0.2606
    1DIPC   D3A19555   7.191  18.344   3.368  0.2390 -0.1219 -0.1597
    1DIPC   C4A19556   7.422  18.126   3.613  0.0488  0.0350 -0.1691
    1DIPC   C1B19557   6.961  18.651   2.983  0.0536 -0.0673 -0.0489
    1DIPC   D2B19558   7.092  18.857   3.355  0.0620  0.3646 -0.1832
    1DIPC   D3B19559   7.336  19.126   3.755  0.1255  0.0750 -0.0148
    1DIPC   C4B19560   7.389  18.971   4.121 -0.0870 -0.1184  0.2305
    1DIPC   NC319561   8.905  15.543   1.366  0.0608  0.3460 -0.1805
    1DIPC   PO419562   9.152  15.797   1.786  0.0467 -0.3421  0.0383
    1DIPC   GL119563   9.094  15.733   2.169 -0.1707 -0.0384 -0.0332
    1DIPC   GL219564   9.052  15.931   2.453 -0.0055 -0.1247 -0.1535
    1DIPC   C1A19565   9.182  15.430   2.501 -0.1486 -0.0810  0.2640
    1DIPC   D2A19566   9.035  15.003   2.621 -0.1840 -0.0242  0.1940
    1DIPC   D3A19567   9.108  14.686   2.856  0.3078 -0.1691  0.0693
    1DIPC   C4A19568   9.038  14.690   3.269 -0.1586 -0.2789 -0.2031
    1DIPC   C1B19569   9.373  15.791   2.796  0.0873 -0.0243  0.0004
    1DIPC   D2B19570   9.596  15.765   3.176 -0.0446 -0.0478  0.0201
    1DIPC   D3B19571   9.505  15.780   3.640 -0.1292  0.2254  0.2869
    1DIPC   C4B19572   9.137  15.897   3.827  0.0074  0.2529 -0.2736
    1DIPC   NC319573   5.592   7.351   3.051 -0.3437 -0.0276 -0.0799
    1DIPC   PO419574   5.328   7.413   3.555 -0.0056  0.1704 -0.0237
    1DIPC   GL119575   5.373   7.423   4.058  0.1389 -0.3655  0.1781
    1DIPC   GL219576   5.023   7.396   3.960 -0.1225  0.1683  0.1647
    1DIPC   C1A19577   5.430   7.468   4.473 -0.0312 -0.2674  0.1804
    1DIPC   D2A19578   5.486   7.497   4.910  0.1749  0.2193  0.0844
    1DIPC   D3A19579   5.106   7.516   5.144  0.0013  0.1706  0.3114
    1DIPC   C4A19580   4.695   7.788   5.246  0.0721 -0.3272 -0.1999
    1DIPC   C1B19581   4.718   7.577   4.324 -0.1261  0.4969 -0.0650
    1DIPC   D2B19582   4.654   7.808   4.712  0.1650  0.2032 -0.2138
    1DIPC   D3B19583   5.069   7.671   4.704  0.3412  0.0406 -0.2703
    1DIPC   C4B19584   5.434   7.974   4.741  0.1841 -0.0797  0.1614
    1DIPC   NC319585  25.197  16.718   1.915 -0.0431 -0.1278 -0.1405
    1DIPC   PO419586  25.364  16.672   2.306  0.0100 -0.2882  0.0127
    1DIPC   GL119587  25.101  16.667   2.779  0.0255 -0.1675  0.1077
    1DIPC   GL219588  24.889  16.967   2.737 -0.1702  0.0175  0.1743
    1DIPC   C1A19589  25.351  16.378   3.042 -0.0268 -0.0607 -0.0890
    1DIPC   D2A19590  25.694  16.153   3.158  0.3529 -0.0550  0.2808
    1DIPC   D3A19591  25.803  16.306   3.575  0.2203  0.0930 -0.1161
    1DIPC   C4A19592  26.127  16.222   3.847  0.2129  0.2708 -0.2628
    1DIPC   C1B19593  25.265  17.214   2.999 -0.0927  0.1276  0.1782
    1DIPC   D2B19594  25.640  17.394   2.806 -0.0140  0.0415 -0.0502
    1DIPC   D3B19595  25.774  17.131   3.168  0.0073 -0.0849 -0.0074
    1DIPC   C4B19596  25.791  16.754   3.455  0.2562 -0.0983 -0.3328
    1DIPC   NC319597  26.659  22.609   3.199  0.0121 -0.0554  0.2744
    1DIPC   PO419598  26.399  22.411   2.868 -0.0178 -0.0831  0.3927
    1DIPC   GL119599  26.276  22.126   3.233  0.3675 -0.1357  0.0526
    1DIPC   GL219600  26.020  22.265   3.173  0.0560  0.0674  0.2552
    1DIPC   C1A19601  26.536  22.048   3.551 -0.4045  0.2040 -0.0255
    1DIPC   D2A19602  26.607  21.685   3.884  0.2884  0.0670 -0.0692
    1DIPC   D3A19603  26.785  22.140   4.080 -0.0786  0.0103 -0.0127
    1DIPC   C4A19604  26.768  22.533   4.342 -0.5232  0.1319 -0.3502
    1DIPC   C1B19605  26.158  22.436   3.585 -0.0142 -0.2854 -0.2695
    1DIPC   D2B19606  26.442  22.551   3.925 -0.2973  0.0236 -0.2680
    1DIPC   D3B19607  26.841  22.428   3.710 -0.0025  0.0445 -0.2070
    1DIPC   C4B19608  27.072  22.184   3.613 -0.3833 -0.0317 -0.0923
    1DIPC   NC319609  24.243   3.854   3.353  0.2783 -0.0022  0.1522
    1DIPC   PO419610  24.167   4.323   3.343 -0.1333  0.3336 -0.1075
    1DIPC   GL119611  24.154   4.380   3.772  0.1782  0.0811  0.1939
    1DIPC   GL219612  23.867   4.487   3.842  0.2379  0.2251  0.0584
    1DIPC   C1A19613  24.214   4.415   4.192  0.4358  0.1628  0.2365
    1DIPC   D2A19614  24.273   4.269   4.552 -0.0123  0.0204 -0.3866
    1DIPC   D3A19615  24.469   4.752   4.535 -0.0578  0.2557  0.2446
    1DIPC   C4A19616  24.597   4.923   4.990  0.0254  0.0753  0.0317
    1DIPC   C1B19617  23.758   4.458   4.278 -0.0403 -0.1656 -0.0735
    1DIPC   D2B19618  23.928   4.730   4.467  0.2924 -0.2270  0.0278
    1DIPC   D3B19619  23.913   5.119   4.745  0.1331  0.1723 -0.0318
    1DIPC   C4B19620  23.931   5.315   4.323  0.0412 -0.5887  0.2580
    1DIPC   NC319621  21.076  27.726   2.898 -0.0181 -0.2693  0.0751
    1DIPC   PO419622  20.649  27.681   3.130 -0.1123 -0.0276  0.2092
    1DIPC   GL119623  20.715  27.504   3.549 -0.1551  0.0318 -0.1384
    1DIPC   GL219624  20.710  27.779   3.801 -0.0990 -0.0467  0.2276
    1DIPC   C1A19625  21.007  27.291   3.914 -0.1547 -0.0151 -0.0732
    1DIPC   D2A19626  21.382  27.247   4.201  0.1891 -0.0119 -0.2017
    1DIPC   D3A19627  21.542  27.234   3.764  0.1062 -0.1234 -0.1102
    1DIPC   C4A19628  21.294  27.021   3.611  0.0484 -0.0206 -0.1946
    1DIPC   C1B19629  20.650  27.576   4.159 -0.0442 -0.0297  0.0177
    1DIPC   D2B19630  20.700  27.726   4.570 -0.1420  0.3026  0.2777
    1DIPC   D3B19631  20.724  27.752   4.966 -0.1509  0.0084  0.1765
    1DIPC   C4B19632  21.074  27.787   5.290  0.1860 -0.1201  0.1846
    1DIPC   NC319633  26.944  17.656   2.843  0.0301 -0.1233 -0.2477
    1DIPC   PO419634  27.108  18.135   2.866 -0.0561 -0.0824 -0.1456
    1DIPC   GL119635  27.061  18.372   3.263  0.0035 -0.2845 -0.0775
    1DIPC   GL219636  26.730  18.529   3.429 -0.1561 -0.0198 -0.3165
    1DIPC   C1A19637  27.129  18.638   3.665  0.2400  0.0420  0.1905
    1DIPC   D2A19638  27.135  18.311   3.976  0.2671 -0.4498 -0.2065
    1DIPC   D3A19639  27.011  18.247   4.409 -0.1609  0.0106  0.0530
    1DIPC   C4A19640  26.904  17.703   4.523 -0.0177  0.1150 -0.0090
    1DIPC   C1B19641  26.756  18.142   3.716 -0.3224 -0.0617  0.0038
    1DIPC   D2B19642  26.810  17.896   4.096  0.3811 -0.2690 -0.3798
    1DIPC   D3B19643  26.446  17.936   4.187  0.3236 -0.0185  0.0041
    1DIPC   C4B19644  26.327  18.036   4.682 -0.2704  0.3056 -0.3017
    1DIPC   NC319645   5.667  11.976   2.662  0.0505  0.1244 -0.0965
    1DIPC   PO419646   5.422  11.601   2.727  0.0611  0.4472 -0.2331
    1DIPC   GL119647   5.358  11.833   3.062 -0.0844 -0.0932  0.1661
    1DIPC   GL219648   5.169  12.109   3.141 -0.0900  0.1028 -0.3235
    1DIPC   C1A19649   5.521  12.055   3.464  0.0263  0.3067  0.2988
    1DIPC   D2A19650   5.506  11.981   3.850 -0.2148  0.1097  0.2196
    1DIPC   D3A19651   5.545  11.829   4.227 -0.2398 -0.2424 -0.2995
    1DIPC   C4A19652   5.171  11.528   4.235  0.0045  0.0218 -0.0538
    1DIPC   C1B19653   4.996  11.815   3.396  0.4140 -0.1033  0.2145
    1DIPC   D2B19654   4.781  11.495   3.327 -0.0665 -0.0982  0.1281
    1DIPC   D3B19655   4.475  11.362   3.621 -0.2170 -0.0454 -0.0539
    1DIPC   C4B19656   4.405  11.064   3.950  0.2238  0.0835 -0.1117
    1DIPC   NC319657   1.184   7.794   3.330  0.1136 -0.0064 -0.0516
    1DIPC   PO419658   1.419   7.358   3.334  0.0291 -0.1482 -0.0721
    1DIPC   GL119659   1.221   7.230   3.714 -0.0488  0.2822  0.0044
    1DIPC   GL219660   1.178   6.910   3.652  0.2164  0.1094  0.0572
    1DIPC   C1A19661   1.079   7.687   3.928  0.2558  0.3222  0.0268
    1DIPC   D2A19662   1.225   8.089   3.802 -0.1144  0.4910 -0.1939
    1DIPC   D3A19663   1.341   8.052   4.214 -0.1048  0.1304 -0.0386
    1DIPC   C4A19664   1.796   8.271   4.247  0.1702 -0.0027 -0.1987
    1DIPC   C1B19665   1.066   6.682   3.975 -0.2469  0.0385 -0.2624
    1DIPC   D2B19666   1.006   6.679   4.349  0.3655  0.0438  0.4267
    1DIPC   D3B19667   1.025   6.172   4.293 -0.0124  0.0147 -0.0174
    1DIPC   C4B19668   1.283   5.975   4.632  0.0252 -0.0589 -0.1719
    1DIPC   NC319669  28.157   9.637   1.833 -0.1055 -0.1634 -0.1446
    1DIPC   PO419670  28.097   9.628   2.179 -0.1276  0.2928 -0.0525
    1DIPC   GL119671  28.233   9.643   2.702  0.1821  0.1498 -0.0511
    1DIPC   GL219672  28.169   9.392   2.816  0.3574 -0.2429 -0.0920
    1DIPC   C1A19673  28.229   9.810   3.151  0.3249  0.0648  0.1637
    1DIPC   D2A19674  28.245  10.099   3.405 -0.0638  0.0841  0.1020
    1DIPC   D3A19675  28.189  10.242   3.889  0.1285 -0.1862  0.0789
    1DIPC   C4A19676  27.771  10.374   4.132  0.2283  0.2096 -0.0929
    1DIPC   C1B19677  28.022   9.280   3.191 -0.0907 -0.1156  0.0831
    1DIPC   D2B19678  28.046   9.036   3.541  0.0019 -0.0815  0.0501
    1DIPC   D3B19679  28.410   9.271   3.828  0.2699 -0.1058 -0.3626
    1DIPC   C4B19680  28.295   9.325   4.275 -0.0159 -0.2065  0.0569
    1DIPC   NC319681  16.226   4.349   2.509 -0.0367 -0.1024 -0.5806
    1DIPC   PO419682  15.851   4.514   2.808 -0.0405  0.1763 -0.0611
    1DIPC   GL119683  15.913   4.399   3.257  0.2897 -0.3509  0.0059
    1DIPC   GL219684  15.770   4.765   3.470  0.0561 -0.0505 -0.0207
    1DIPC   C1A19685  15.613   4.254   3.534 -0.0540 -0.0398 -0.1421
    1DIPC   D2A19686  15.408   4.425   3.818  0.1909  0.2827 -0.2130
    1DIPC   D3A19687  15.681   4.380   4.066 -0.3937  0.4489 -0.1444
    1DIPC   C4A19688  16.020   4.389   3.758 -0.5168  0.0971 -0.1217
    1DIPC   C1B19689  15.779   4.824   3.937 -0.2278  0.1338  0.2641
    1DIPC   D2B19690  15.735   5.084   4.201 -0.1672  0.0951 -0.0140
    1DIPC   D3B19691  15.716   4.794   4.576 -0.3119 -0.2819 -0.0594
    1DIPC   C4B19692  15.392   4.556   4.912 -0.4176 -0.0406  0.0832
    1DIPC   NC319693  20.523  22.239   3.144  0.0449  0.0551  0.1528
    1DIPC   PO419694  20.276  22.000   2.939  0.1768  0.0419  0.1336
    1DIPC   GL119695  20.172  21.980   3.397 -0.1773  0.1806  0.1141
    1DIPC   GL219696  20.139  22.258   3.557  0.0502  0.2147  0.0404
    1DIPC   C1A19697  20.017  21.864   3.750 -0.0044 -0.0533  0.1973
    1DIPC   D2A19698  19.965  21.622   4.134  0.1935 -0.0624 -0.2189
    1DIPC   D3A19699  20.133  21.837   4.534  0.3943  0.0471 -0.0037
    1DIPC   C4A19700  19.904  21.838   4.965 -0.0200 -0.1507  0.2376
    1DIPC   C1B19701  20.190  22.329   3.974  0.0213  0.1399  0.4551
    1DIPC   D2B19702  20.241  22.307   4.398 -0.1430 -0.0120 -0.2702
    1DIPC   D3B19703  20.690  22.482   4.751 -0.2029 -0.1186  0.2522
    1DIPC   C4B19704  21.018  22.303   5.072 -0.1996 -0.1350 -0.0758
    1DIPC   NC319705  16.838  26.362   3.139 -0.1080  0.1139 -0.2147
    1DIPC   PO419706  16.680  26.192   3.533 -0.1748  0.2451  0.0668
    1DIPC   GL119707  16.957  26.181   3.811  0.1231  0.1064  0.1076
    1DIPC   GL219708  17.028  25.827   4.051  0.1145  0.2242  0.0858
    1DIPC   C1A19709  16.922  26.315   4.270 -0.0141  0.0868 -0.1589
    1DIPC   D2A19710  16.996  26.690   4.477  0.2781  0.0532 -0.1072
    1DIPC   D3A19711  16.508  26.751   4.405  0.2336 -0.0099  0.1188
    1DIPC   C4A19712  16.208  26.939   4.727  0.2642 -0.1745 -0.0271
    1DIPC   C1B19713  16.948  25.746   4.443  0.0702  0.0556  0.1772
    1DIPC   D2B19714  16.542  25.614   4.568 -0.3490  0.1589 -0.0255
    1DIPC   D3B19715  16.546  26.079   4.488  0.0685 -0.0121  0.2232
    1DIPC   C4B19716  16.510  26.432   4.770  0.2494  0.0993 -0.0705
    1DIPC   NC319717   7.862  15.517   2.334 -0.2338  0.1133 -0.2806
    1DIPC   PO419718   7.365  15.730   2.380 -0.0266 -0.3558 -0.1095
    1DIPC   GL119719   7.142  15.542   2.678 -0.3005  0.1853 -0.3260
    1DIPC   GL219720   7.100  15.226   2.697  0.0686  0.1110 -0.1842
    1DIPC   C1A19721   6.760  15.569   3.019  0.3153 -0.2067  0.0399
    1DIPC   D2A19722   6.790  15.784   3.399 -0.1728  0.2528 -0.0707
    1DIPC   D3A19723   6.880  15.553   3.735 -0.1954 -0.2246 -0.0756
    1DIPC   C4A19724   6.866  15.688   4.134  0.4543 -0.0337  0.0299
    1DIPC   C1B19725   7.228  15.363   3.143 -0.2551 -0.0467  0.1502
    1DIPC   D2B19726   7.354  15.248   3.651 -0.3822  0.0288 -0.0379
    1DIPC   D3B19727   7.318  15.680   3.500 -0.0024 -0.1589 -0.0001
    1DIPC   C4B19728   7.061  16.055   3.735 -0.0526  0.2766 -0.0535
    1DIPC   NC319729   7.659  19.079   1.876 -0.2039  0.1066 -0.0423
    1DIPC   PO419730   7.979  19.220   2.302 -0.0779 -0.0977  0.1154
    1DIPC   GL119731   7.919  19.526   2.641  0.0122 -0.1395 -0.3248
    1DIPC   GL219732   7.719  19.342   2.718  0.5545  0.2867  0.1895
    1DIPC   C1A19733   7.888  19.523   3.189 -0.0178  0.1046  0.1322
    1DIPC   D2A19734   8.029  19.521   3.662  0.0884  0.1041  0.1089
    1DIPC   D3A19735   7.985  19.067   3.611  0.1660  0.1832 -0.2549
    1DIPC   C4A19736   7.899  18.952   4.012  0.1815 -0.3317  0.1896
    1DIPC   C1B19737   7.446  19.014   2.985  0.0885 -0.0003 -0.3293
    1DIPC   D2B19738   7.523  19.142   3.300  0.2169  0.1023 -0.0326
    1DIPC   D3B19739   7.235  19.484   3.092  0.2216 -0.2465 -0.1818
    1DIPC   C4B19740   7.495  19.770   2.810  0.3466 -0.0070  0.1013
    1DIPC   NC319741  22.023   6.925   3.251  0.1803 -0.2125 -0.1256
    1DIPC   PO419742  22.249   6.503   3.192 -0.0946 -0.0001 -0.1167
    1DIPC   GL119743  22.427   6.694   3.577  0.2553  0.0536  0.0103
    1DIPC   GL219744  22.324   6.891   3.834 -0.1645  0.0940 -0.0152
    1DIPC   C1A19745  22.525   6.462   3.784  0.1081  0.0926 -0.3163
    1DIPC   D2A19746  22.630   6.465   4.218  0.0826  0.3160  0.1567
    1DIPC   D3A19747  22.938   6.357   4.415  0.0659 -0.1108 -0.1699
    1DIPC   C4A19748  23.131   6.569   4.708  0.0887  0.1037  0.1263
    1DIPC   C1B19749  22.757   6.892   3.897 -0.0459  0.2493  0.1778
    1DIPC   D2B19750  23.026   6.829   4.313 -0.1178 -0.3472  0.2783
    1DIPC   D3B19751  22.715   6.862   4.596  0.1118 -0.1423 -0.1547
    1DIPC   C4B19752  22.524   6.356   4.705  0.0705 -0.0164 -0.2446
    1DIPC   NC319753  25.855  20.319   3.307  0.0554  0.0671 -0.3553
    1DIPC   PO419754  25.483  20.396   3.501  0.0273  0.0117 -0.0820
    1DIPC   GL119755  25.450  20.485   3.943 -0.0631 -0.1288 -0.0872
    1DIPC   GL219756  25.728  20.347   4.192 -0.2134 -0.1914 -0.0416
    1DIPC   C1A19757  25.529  20.804   4.369 -0.2904  0.3444 -0.1550
    1DIPC   D2A19758  25.612  20.857   4.741  0.0432  0.2227 -0.2944
    1DIPC   D3A19759  25.153  20.823   4.724  0.1095  0.3273 -0.1939
    1DIPC   C4A19760  24.847  20.698   4.555  0.0458  0.1570  0.0030
    1DIPC   C1B19761  25.891  20.009   4.494  0.2879 -0.0198 -0.2099
    1DIPC   D2B19762  26.154  19.718   4.716  0.1343  0.2970 -0.4655
    1DIPC   D3B19763  26.156  20.120   4.960  0.0553 -0.0779  0.1656
    1DIPC   C4B19764  26.029  20.475   4.626 -0.0655  0.3965  0.0167
    1DIPC   NC319765  22.050  23.420   2.742 -0.0107  0.3181 -0.0055
    1DIPC   PO419766  22.479  23.390   3.005 -0.0801 -0.3231 -0.0937
    1DIPC   GL119767  22.727  23.446   3.406  0.3238 -0.1045  0.3521
    1DIPC   GL219768  22.699  23.819   3.575  0.1691 -0.0357 -0.2027
    1DIPC   C1A19769  22.988  23.444   3.745 -0.0358  0.1177 -0.2314
    1DIPC   D2A19770  23.107  23.857   3.858  0.2355  0.2279 -0.0858
    1DIPC   D3A19771  22.746  23.814   4.139 -0.0869 -0.0237  0.1075
    1DIPC   C4A19772  22.634  24.090   4.410  0.2345  0.1020 -0.0513
    1DIPC   C1B19773  22.424  23.597   3.821  0.0785 -0.0131  0.0749
    1DIPC   D2B19774  22.129  23.410   4.037  0.0682  0.3617 -0.0111
    1DIPC   D3B19775  21.803  23.160   3.878  0.2100 -0.0151  0.2311
    1DIPC   C4B19776  21.544  22.856   4.108 -0.0365  0.1111 -0.0095
    1DIPC   NC319777   6.902  15.264   2.233  0.2335 -0.3189  0.2143
    1DIPC   PO419778   6.927  14.888   2.289  0.0023  0.0123 -0.2239
    1DIPC   GL119779   6.715  14.837   2.680 -0.1153  0.0643  0.1512
    1DIPC   GL219780   6.394  14.695   2.820  0.2479  0.1947 -0.1752
    1DIPC   C1A19781   6.627  15.106   3.054 -0.0162  0.3006  0.4059
    1DIPC   D2A19782   6.704  15.199   3.426  0.3738 -0.1459  0.2146
    1DIPC   D3A19783   6.655  15.013   3.971 -0.1611 -0.1534 -0.3284
    1DIPC   C4A19784   6.994  15.212   4.200  0.2751 -0.0561 -0.0458
    1DIPC   C1B19785   6.506  14.668   3.276  0.0531 -0.1243  0.0613
    1DIPC   D2B19786   6.523  14.589   3.628  0.0414  0.1357 -0.0843
    1DIPC   D3B19787   6.400  14.172   3.404  0.1427  0.1194 -0.1105
    1DIPC   C4B19788   6.207  14.279   3.035  0.0740  0.0285  0.2973
    1DIPC   NC319789   3.755  21.522   2.335  0.1277 -0.2062 -0.1346
    1DIPC   PO419790   3.396  21.479   2.289 -0.2550 -0.0515 -0.1820
    1DIPC   GL119791   3.134  21.623   2.616 -0.0542 -0.1804 -0.1343
    1DIPC   GL219792   2.816  21.525   2.642 -0.0226  0.3229  0.1364
    1DIPC   C1A19793   3.417  21.832   2.893  0.1102 -0.7145 -0.2646
    1DIPC   D2A19794   3.616  22.287   2.940 -0.1037 -0.1647 -0.2564
    1DIPC   D3A19795   4.067  22.478   3.010  0.0009  0.0942 -0.0446
    1DIPC   C4A19796   4.364  22.403   3.283 -0.1387 -0.4383 -0.1362
    1DIPC   C1B19797   2.533  21.665   2.917 -0.4150 -0.1446  0.0737
    1DIPC   D2B19798   2.550  21.949   3.135  0.2345 -0.0167  0.2474
    1DIPC   D3B19799   2.992  21.892   3.138 -0.0304  0.1152  0.3683
    1DIPC   C4B19800   3.189  21.448   3.056  0.2045 -0.0841 -0.0004
    1DIPC   NC319801   4.428   2.134   3.332 -0.2539  0.0640  0.0236
    1DIPC   PO419802   4.298   1.822   3.242 -0.1556  0.2017  0.2150
    1DIPC   GL119803   4.339   1.705   3.639  0.0399  0.1399  0.1971
    1DIPC   GL219804   4.043   1.759   3.837 -0.1195  0.1084  0.3735
    1DIPC   C1A19805   4.278   1.349   3.965 -0.5038  0.1213  0.1111
    1DIPC   D2A19806   4.116   1.620   4.353  0.0221  0.2107  0.0639
    1DIPC   D3A19807   3.944   1.383   4.667  0.1586  0.2958  0.2787
    1DIPC   C4A19808   3.821   1.553   5.078  0.2326 -0.0529  0.0490
    1DIPC   C1B19809   3.760   2.074   4.070 -0.2172  0.2610 -0.2545
    1DIPC   D2B19810   3.502   2.043   4.341 -0.0360  0.2537 -0.0780
    1DIPC   D3B19811   3.658   2.256   4.774  0.1793  0.1507  0.0230
    1DIPC   C4B19812   3.557   2.388   5.163 -0.1472  0.0504 -0.2701
    1DIPC   NC319813   5.958  17.475   2.505  0.1690  0.1149 -0.2184
    1DIPC   PO419814   6.264  17.127   2.631 -0.1452 -0.1661 -0.0194
    1DIPC   GL119815   6.657  17.049   2.800  0.3249  0.1900  0.2615
    1DIPC   GL219816   6.822  17.242   2.885  0.3239  0.2309 -0.0252
    1DIPC   C1A19817   6.784  16.907   3.280  0.2558  0.0309 -0.1059
    1DIPC   D2A19818   7.127  16.904   3.432  0.0036 -0.0350 -0.0788
    1DIPC   D3A19819   6.804  16.951   3.851 -0.1778  0.0271  0.2946
    1DIPC   C4A19820   6.353  16.841   3.768  0.0045 -0.0389 -0.0322
    1DIPC   C1B19821   6.842  17.391   3.260  0.3618 -0.1339 -0.0383
    1DIPC   D2B19822   6.961  17.374   3.655 -0.1619 -0.2163 -0.1242
    1DIPC   D3B19823   7.010  17.798   3.630  0.1718  0.2459  0.3291
    1DIPC   C4B19824   6.972  17.932   3.243 -0.1022 -0.0719 -0.1730
    1DIPC   NC319825   9.438   0.451   3.266  0.0715 -0.0416 -0.1331
    1DIPC   PO419826   9.856   0.286   3.250 -0.1442  0.2271 -0.0911
    1DIPC   GL119827   9.723   0.216   3.731 -0.1438 -0.1544  0.0222
    1DIPC   GL219828   9.383   0.289   3.746 -0.1810  0.0167  0.3532
    1DIPC   C1A19829   9.851   0.417   4.016 -0.2520 -0.0044 -0.0954
    1DIPC   D2A19830  10.137   0.396   4.309 -0.2191 -0.0364  0.0965
    1DIPC   D3A19831  10.220   0.372   4.654  0.0682 -0.0044  0.2102
    1DIPC   C4A19832   9.989   0.024   4.810  0.4356 -0.0401 -0.1681
    1DIPC   C1B19833   9.301   0.462   4.197 -0.2251  0.2058  0.0567
    1DIPC   D2B19834   9.139   0.582   4.637  0.0682  0.0144  0.1261
    1DIPC   D3B19835   9.442   0.654   5.119 -0.0056 -0.3133 -0.0335
    1DIPC   C4B19836   9.720   0.421   5.266 -0.1177 -0.2326 -0.0809
    1DIPC   NC319837   0.130  15.224   1.976  0.1063 -0.0499  0.0192
    1DIPC   PO419838  -0.071  15.036   2.294 -0.1619  0.0754 -0.1919
    1DIPC   GL119839   0.005  15.178   2.701 -0.0708 -0.2305 -0.1368
    1DIPC   GL219840  -0.071  15.496   2.807  0.3104 -0.1144 -0.0633
    1DIPC   C1A19841  -0.074  15.022   3.251 -0.0655 -0.3654  0.0493
    1DIPC   D2A19842  -0.047  15.047   3.741 -0.0759 -0.0380  0.2176
    1DIPC   D3A19843  -0.114  15.362   3.733  0.1283 -0.0726 -0.2296
    1DIPC   C4A19844  -0.312  15.554   3.432 -0.1129  0.2104  0.0005
    1DIPC   C1B19845   0.108  15.538   3.143 -0.4490  0.0593  0.2081
    1DIPC   D2B19846   0.297  15.351   3.503  0.0503 -0.1187  0.1014
    1DIPC   D3B19847   0.389  15.220   3.874 -0.0134  0.0534  0.1155
    1DIPC   C4B19848   0.591  15.456   4.154  0.1004 -0.3969  0.2517
    1DIPC   NC319849  20.475  28.538   2.942 -0.1622 -0.0235 -0.2184
    1DIPC   PO419850  20.718  28.331   3.123 -0.0575  0.0596  0.0153
    1DIPC   GL119851  20.489  28.146   3.512 -0.2950  0.1659 -0.0266
    1DIPC   GL219852  20.441  28.273   3.739 -0.0377  0.1743  0.3206
    1DIPC   C1A19853  20.233  27.858   3.857  0.0259 -0.2481  0.0421
    1DIPC   D2A19854  20.175  27.685   4.267 -0.1781  0.1130 -0.1299
    1DIPC   D3A19855  19.828  27.938   4.449 -0.4742  0.1874  0.0295
    1DIPC   C4A19856  19.829  28.271   4.659  0.1113  0.1860  0.1603
    1DIPC   C1B19857  20.561  28.169   4.183 -0.0706 -0.1838 -0.0625
    1DIPC   D2B19858  20.371  28.100   4.534 -0.0542 -0.0460  0.0459
    1DIPC   D3B19859  20.433  28.221   4.947  0.0165 -0.0819 -0.2478
    1DIPC   C4B19860  20.110  28.458   5.026 -0.1033  0.0252  0.0073
    1DIPC   NC319861  10.758   6.352   3.136 -0.0701  0.2147  0.0893
    1DIPC   PO419862  10.454   6.387   3.513  0.2352 -0.0239 -0.0696
    1DIPC   GL119863  10.308   6.421   3.881 -0.0204 -0.3328 -0.1507
    1DIPC   GL219864  10.212   6.735   4.062  0.0312  0.1255  0.0571
    1DIPC   C1A19865  10.057   6.236   4.211 -0.0048 -0.0113 -0.0922
    1DIPC   D2A19866   9.754   6.104   4.597 -0.3177  0.4570 -0.0604
    1DIPC   D3A19867   9.945   5.799   4.518  0.3019  0.1170 -0.3187
    1DIPC   C4A19868   9.843   5.515   4.836 -0.0285  0.0445 -0.0188
    1DIPC   C1B19869  10.020   6.902   4.407  0.1712 -0.2723  0.0055
    1DIPC   D2B19870   9.877   7.040   4.750  0.0932  0.2863  0.0968
    1DIPC   D3B19871  10.094   7.229   5.198 -0.0484 -0.2110 -0.0982
    1DIPC   C4B19872   9.748   7.475   5.451 -0.1416 -0.0517  0.2778
    1DIPC   NC319873   3.783   8.437   2.626  0.0131  0.1375 -0.0076
    1DIPC   PO419874   3.617   8.903   2.731 -0.3175 -0.0206  0.2787
    1DIPC   GL119875   3.452   8.699   3.027  0.0395 -0.1365  0.1234
    1DIPC   GL219876   3.269   8.489   3.063  0.1949 -0.3790  0.0474
    1DIPC   C1A19877   3.537   8.718   3.460 -0.2734 -0.1077 -0.1681
    1DIPC   D2A19878   3.512   8.652   3.973 -0.0621 -0.2840  0.1256
    1DIPC   D3A19879   3.858   8.354   4.205  0.4204 -0.2492 -0.5053
    1DIPC   C4A19880   3.885   8.297   4.663  0.0514 -0.1054 -0.1355
    1DIPC   C1B19881   3.369   8.173   3.468  0.2963  0.1217  0.0096
    1DIPC   D2B19882   3.280   8.187   3.922  0.0027  0.1389 -0.0821
    1DIPC   D3B19883   3.112   8.569   3.689  0.2147 -0.3050  0.0788
    1DIPC   C4B19884   2.744   8.783   3.743 -0.0179 -0.1934 -0.1887
    1DIPC   NC319885  11.081  23.171   2.564  0.3899  0.0469  0.1665
    1DIPC   PO419886  10.631  22.951   2.595 -0.0138 -0.1024  0.2137
    1DIPC   GL119887  10.778  23.050   3.003 -0.4082  0.0079  0.1021
    1DIPC   GL219888  11.050  22.753   2.903 -0.1083 -0.0377  0.2887
    1DIPC   C1A19889  10.764  22.881   3.436  0.0024 -0.1133 -0.0809
    1DIPC   D2A19890  11.146  22.981   3.773  0.0309  0.1039  0.0737
    1DIPC   D3A19891  11.397  23.348   3.786 -0.0530 -0.1549  0.2542
    1DIPC   C4A19892  11.472  23.685   4.131 -0.3073  0.0045 -0.0724
    1DIPC   C1B19893  11.267  22.691   3.380  0.0624 -0.0415 -0.2694
    1DIPC   D2B19894  11.317  22.469   3.808  0.0908  0.4858 -0.0741
    1DIPC   D3B19895  11.840  22.195   3.752  0.0550  0.1999  0.1346
    1DIPC   C4B19896  12.105  21.982   4.087 -0.0688 -0.2302 -0.0026
    1DIPC   NC319897   5.549  27.265   3.069 -0.0353 -0.3406  0.1831
    1DIPC   PO419898   5.940  27.311   3.122  0.1615  0.3831 -0.4793
    1DIPC   GL119899   5.809  27.225   3.601  0.0030  0.1094 -0.3303
    1DIPC   GL219900   5.684  27.471   3.605 -0.1086  0.1367  0.1196
    1DIPC   C1A19901   6.006  27.424   4.028 -0.2633  0.0145  0.0759
    1DIPC   D2A19902   5.910  27.767   4.275 -0.3167  0.0068  0.2915
    1DIPC   D3A19903   5.689  28.058   3.924 -0.0756 -0.2588  0.1122
    1DIPC   C4A19904   5.360  28.247   4.025 -0.1318  0.0636  0.2044
    1DIPC   C1B19905   5.497  27.513   4.033 -0.0993  0.0589  0.0429
    1DIPC   D2B19906   5.448  27.902   4.372 -0.3832 -0.0510  0.0000
    1DIPC   D3B19907   5.347  27.640   4.721  0.1655 -0.0091  0.0346
    1DIPC   C4B19908   5.559  27.498   5.100 -0.4929  0.0111  0.0479
    1DIPC   NC319909  19.201   5.292   3.130  0.3465 -0.1568 -0.0437
    1DIPC   PO419910  18.823   5.042   2.836  0.0881  0.1716  0.2173
    1DIPC   GL119911  18.439   5.062   3.122  0.1154 -0.1211  0.1903
    1DIPC   GL219912  18.189   4.924   3.060  0.2567  0.2727  0.4934
    1DIPC   C1A19913  18.273   5.228   3.577 -0.0211  0.0298 -0.3245
    1DIPC   D2A19914  18.194   4.915   3.888  0.1020  0.0603 -0.2339
    1DIPC   D3A19915  18.282   4.591   4.307 -0.0899  0.2602 -0.2026
    1DIPC   C4A19916  18.455   4.213   4.555 -0.1089 -0.1225  0.2676
    1DIPC   C1B19917  18.023   4.757   3.474 -0.2337 -0.0982 -0.0109
    1DIPC   D2B19918  18.203   4.431   3.798  0.0556  0.2286 -0.0087
    1DIPC   D3B19919  18.579   4.173   3.669  0.1758  0.0348 -0.0610
    1DIPC   C4B19920  19.074   4.202   3.811  0.0981 -0.1981 -0.0601
    1DIPC   NC319921   1.812   3.803   3.342 -0.1798  0.0519 -0.2739
    1DIPC   PO419922   1.432   3.641   3.104 -0.0399  0.0984  0.0297
    1DIPC   GL119923   1.336   3.450   3.480 -0.3055  0.2776 -0.0514
    1DIPC   GL219924   0.951   3.380   3.505  0.0988  0.1510  0.3625
    1DIPC   C1A19925   1.307   3.412   3.892 -0.1469  0.1939  0.3214
    1DIPC   D2A19926   1.249   3.473   4.331  0.3099 -0.1135  0.2843
    1DIPC   D3A19927   1.149   3.942   4.519 -0.0237 -0.0009 -0.2667
    1DIPC   C4A19928   1.262   4.301   4.274  0.1046 -0.1220 -0.0668
    1DIPC   C1B19929   0.773   3.641   3.825 -0.2713  0.0801 -0.0728
    1DIPC   D2B19930   0.370   3.575   3.927  0.0122 -0.0803 -0.0428
    1DIPC   D3B19931   0.475   3.942   4.061  0.0510  0.0387  0.1438
    1DIPC   C4B19932   0.737   4.106   4.376  0.3261 -0.0330  0.0730
    1DIPC   NC319933   5.448   3.889   3.176 -0.3243  0.2932 -0.0914
    1DIPC   PO419934   5.085   3.718   3.275  0.0904  0.0995  0.4820
    1DIPC   GL119935   5.197   3.837   3.660  0.2603 -0.1019 -0.0016
    1DIPC   GL219936   5.002   3.672   3.869  0.0684 -0.0634  0.2397
    1DIPC   C1A19937   5.035   4.203   3.928  0.1254  0.0863 -0.0896
    1DIPC   D2A19938   5.024   4.146   4.429  0.2459 -0.0048 -0.1607
    1DIPC   D3A19939   4.850   4.553   4.700  0.0900  0.0899  0.1207
    1DIPC   C4A19940   5.127   4.965   4.912  0.0146  0.0506  0.2676
    1DIPC   C1B19941   5.144   3.540   4.206 -0.1612  0.0670  0.0883
    1DIPC   D2B19942   5.105   3.649   4.661  0.0445  0.2337  0.3274
    1DIPC   D3B19943   4.766   3.710   4.893  0.0434  0.1525 -0.1412
    1DIPC   C4B19944   4.678   4.191   5.150 -0.1218 -0.0504 -0.3177
    1DIPC   NC319945  15.341   1.057   3.370  0.1881  0.0446  0.1271
    1DIPC   PO419946  15.686   1.097   3.499  0.0189 -0.0392 -0.0302
    1DIPC   GL119947  15.943   1.061   3.880  0.3000 -0.0171 -0.0936
    1DIPC   GL219948  16.201   0.802   3.944  0.0138  0.3884 -0.2083
    1DIPC   C1A19949  16.311   1.239   4.194 -0.0932 -0.0032 -0.0924
    1DIPC   D2A19950  16.646   1.083   4.481 -0.0703  0.0929  0.1345
    1DIPC   D3A19951  17.047   1.178   4.775 -0.1559 -0.1978 -0.0500
    1DIPC   C4A19952  17.265   0.733   4.984 -0.3994 -0.1492 -0.2600
    1DIPC   C1B19953  16.252   0.721   4.322 -0.2656  0.1311  0.0105
    1DIPC   D2B19954  16.299   0.813   4.796  0.1478  0.0136 -0.0738
    1DIPC   D3B19955  16.750   0.607   4.834  0.1845 -0.5163 -0.1121
    1DIPC   C4B19956  16.923   0.218   5.083 -0.4485 -0.1594  0.1448
    1DIPC   NC319957  14.364  27.136   3.369 -0.0750 -0.1763 -0.0650
    1DIPC   PO419958  14.705  26.610   3.410  0.0526 -0.0894  0.1228
    1DIPC   GL119959  14.711  26.524   3.850 -0.1425 -0.1844 -0.1149
    1DIPC   GL219960  15.111  26.508   3.977  0.1672 -0.2496  0.1372
    1DIPC   C1A19961  14.537  26.479   4.353  0.0093 -0.2593  0.2085
    1DIPC   D2A19962  14.397  26.508   4.743 -0.0734 -0.0203 -0.2106
    1DIPC   D3A19963  14.790  26.122   4.719 -0.0744  0.0417 -0.3906
    1DIPC   C4A19964  15.097  26.347   4.490 -0.1328 -0.0490 -0.1361
    1DIPC   C1B19965  14.934  26.775   4.275  0.0488 -0.1467  0.0302
    1DIPC   D2B19966  14.700  26.949   4.573 -0.0047 -0.0592  0.1732
    1DIPC   D3B19967  14.910  27.243   4.997 -0.2325  0.0022 -0.0930
    1DIPC   C4B19968  15.330  27.324   4.958  0.2978 -0.0120 -0.3422
    1DIPC   NC319969  28.502   4.469   3.271  0.2096  0.2287  0.3155
    1DIPC   PO419970  28.735   4.756   3.096 -0.1184  0.2488  0.0927
    1DIPC   GL119971  28.936   5.005   3.527 -0.4545  0.3891  0.0529
    1DIPC   GL219972  29.027   5.384   3.593  0.0401  0.1155 -0.1437
    1DIPC   C1A19973  29.109   4.921   3.992 -0.0573  0.0466 -0.1344
    1DIPC   D2A19974  29.301   4.985   4.450  0.0409 -0.1175 -0.2165
    1DIPC   D3A19975  29.357   4.654   4.762  0.0400  0.0453 -0.2371
    1DIPC   C4A19976  29.300   4.864   5.114 -0.0899 -0.0241 -0.0206
    1DIPC   C1B19977  28.690   5.322   3.881 -0.2836 -0.0296  0.1242
    1DIPC   D2B19978  28.355   5.198   3.910 -0.0088  0.0271  0.1109
    1DIPC   D3B19979  28.074   5.139   4.215  0.0151  0.1699 -0.3153
    1DIPC   C4B19980  27.969   5.454   4.552 -0.1945  0.0083  0.0006
    1DIPC   NC319981   6.870  18.844   2.307 -0.3950  0.0666 -0.1909
    1DIPC   PO419982   7.376  19.050   2.316  0.0952 -0.4221 -0.0079
    1DIPC   GL119983   6.985  19.114   2.680  0.1345 -0.4170 -0.2825
    1DIPC   GL219984   6.628  19.330   2.523 -0.1735 -0.0446  0.0334
    1DIPC   C1A19985   6.820  19.178   3.095  0.0369 -0.1469 -0.1980
    1DIPC   D2A19986   6.430  19.352   3.364 -0.2149 -0.2244 -0.1023
    1DIPC   D3A19987   6.605  19.368   3.815 -0.3573  0.1207  0.3067
    1DIPC   C4A19988   6.849  19.075   3.962 -0.1422 -0.1320 -0.0603
    1DIPC   C1B19989   6.389  19.376   2.869  0.1425  0.0626  0.0381
    1DIPC   D2B19990   6.019  19.163   2.927 -0.1534 -0.0274  0.1339
    1DIPC   D3B19991   5.994  19.164   3.267  0.2698  0.1172  0.1813
    1DIPC   C4B19992   5.913  18.972   3.595  0.0899 -0.2629  0.1187
    1DIPC   NC319993  28.951  16.886   2.478 -0.0875  0.0056 -0.0412
    1DIPC   PO419994  28.891  16.398   2.534 -0.0601  0.5185  0.0476
    1DIPC   GL119995  29.121  16.599   2.925 -0.0963  0.1607  0.2062
    1DIPC   GL219996  29.445  16.569   3.035  0.2220  0.3793 -0.1249
    1DIPC   C1A19997  29.137  16.785   3.395  0.1761 -0.0990 -0.1384
    1DIPC   D2A19998  29.097  16.915   3.787  0.1105  0.2124  0.1808
    1DIPC   D3A19999  29.305  16.503   3.785  0.1356 -0.0252  0.0863
    1DIPC   C4A20000  29.619  16.385   4.027 -0.1157 -0.0999  0.4115
    1DIPC   C1B20001  29.712  16.517   3.434  0.1339  0.2238 -0.0324
    1DIPC   D2B20002  30.002  16.504   3.739  0.3725  0.0438  0.0489
    1DIPC   D3B20003  29.957  16.096   3.566  0.0043  0.0228 -0.2022
    1DIPC   C4B20004  29.625  15.868   3.796 -0.0496 -0.1388 -0.0377
    1DIPC   NC320005  26.567   6.472   2.803  0.0023  0.1072 -0.0840
    1DIPC   PO420006  26.422   6.411   3.174 -0.1249  0.2451 -0.0450
    1DIPC   GL120007  26.522   6.171   3.520  0.2575 -0.2680 -0.1870
    1DIPC   GL220008  26.833   6.224   3.550 -0.0988 -0.4641  0.1399
    1DIPC   C1A20009  26.292   5.805   3.530  0.1444 -0.2490  0.1345
    1DIPC   D2A20010  26.331   5.512   3.787 -0.1470 -0.1854 -0.0756
    1DIPC   D3A20011  26.105   5.880   4.100 -0.0589  0.2458 -0.1313
    1DIPC   C4A20012  25.736   5.993   4.082  0.1888  0.1807 -0.2862
    1DIPC   C1B20013  26.629   6.569   3.815 -0.0859 -0.1282 -0.0716
    1DIPC   D2B20014  26.552   6.719   4.207 -0.0321 -0.0608  0.2591
    1DIPC   D3B20015  26.822   6.572   4.446 -0.0544  0.0601 -0.2945
    1DIPC   C4B20016  27.075   7.002   4.515  0.0639  0.0002 -0.0068
    1DIPC   NC320017  28.839  12.396   2.203  0.2742 -0.0470  0.1939
    1DIPC   PO420018  28.604  12.718   2.070 -0.3497 -0.0221 -0.2234
    1DIPC   GL120019  28.745  12.903   2.495  0.1096 -0.1020  0.3124
    1DIPC   GL220020  28.965  12.681   2.687 -0.1022 -0.2889  0.0205
    1DIPC   C1A20021  29.032  13.178   2.661  0.0612 -0.0958 -0.2946
    1DIPC   D2A20022  29.331  13.302   2.971  0.0571 -0.0885  0.0963
    1DIPC   D3A20023  29.196  13.154   3.450  0.2236  0.0694  0.1330
    1DIPC   C4A20024  29.388  13.276   3.787  0.3102  0.0546  0.0670
    1DIPC   C1B20025  29.311  12.734   2.905 -0.0534 -0.1097 -0.3306
    1DIPC   D2B20026  29.484  12.736   3.307 -0.2818  0.2895 -0.0523
    1DIPC   D3B20027  29.721  13.135   3.303  0.1212 -0.1486 -0.2023
    1DIPC   C4B20028  29.845  13.199   2.983  0.0035 -0.0739 -0.0368
    1DIPC   NC320029   8.658  10.101   2.990 -0.0469  0.0747 -0.0443
    1DIPC   PO420030   8.560  10.128   3.391 -0.2561  0.2628 -0.1172
    1DIPC   GL120031   8.339  10.216   3.774 -0.0151  0.0832 -0.2121
    1DIPC   GL220032   8.110  10.416   3.759 -0.1675  0.0086  0.3039
    1DIPC   C1A20033   8.155  10.013   4.138 -0.1254 -0.2545 -0.1746
    1DIPC   D2A20034   8.057  10.204   4.489 -0.0711 -0.1403  0.3238
    1DIPC   D3A20035   8.009  10.548   4.322 -0.2528  0.2242 -0.2370
    1DIPC   C4A20036   7.739  10.749   4.085  0.1416  0.0411 -0.0151
    1DIPC   C1B20037   7.697  10.244   4.002 -0.2571  0.0822  0.0397
    1DIPC   D2B20038   7.554  10.105   4.414 -0.0309  0.1953  0.0033
    1DIPC   D3B20039   7.626  10.266   4.836  0.1696 -0.1367  0.1683
    1DIPC   C4B20040   8.013  10.318   5.269  0.4099 -0.3306  0.4959
    1DIPC   NC320041  16.528  24.958   2.972 -0.0609 -0.2721 -0.0505
    1DIPC   PO420042  16.323  24.513   3.044  0.0360 -0.0749 -0.2050
    1DIPC   GL120043  16.617  24.685   3.407  0.3849  0.1075  0.4005
    1DIPC   GL220044  16.770  24.501   3.580  0.0936 -0.0610  0.2929
    1DIPC   C1A20045  16.705  24.983   3.848  0.1365  0.2438  0.0402
    1DIPC   D2A20046  16.460  25.193   4.195 -0.2762 -0.1822 -0.0875
    1DIPC   D3A20047  16.864  25.225   4.436 -0.2676 -0.1707 -0.0197
    1DIPC   C4A20048  17.130  25.121   4.217 -0.1759 -0.3545  0.0119
    1DIPC   C1B20049  16.438  24.488   3.893  0.1011 -0.0489  0.0281
    1DIPC   D2B20050  16.116  24.239   4.007 -0.0817  0.1674  0.0652
    1DIPC   D3B20051  16.512  24.046   4.159  0.2265 -0.0216  0.0872
    1DIPC   C4B20052  16.666  24.277   4.483 -0.0211 -0.0330 -0.1035
    1DIPC   NC320053   8.968  24.312   2.330  0.3914 -0.1662  0.1899
    1DIPC   PO420054   9.209  23.979   2.220 -0.0751  0.1430  0.2441
    1DIPC   GL120055   9.143  23.927   2.618 -0.0703 -0.0285 -0.0459
    1DIPC   GL220056   8.830  23.851   2.690  0.2154 -0.1754 -0.2781
    1DIPC   C1A20057   9.267  23.862   3.058 -0.4034  0.0798  0.2058
    1DIPC   D2A20058   9.114  23.654   3.466 -0.0790 -0.1190 -0.0020
    1DIPC   D3A20059   9.285  23.791   3.801  0.2404 -0.0961 -0.1508
    1DIPC   C4A20060   8.934  23.787   4.087  0.1791 -0.1872 -0.3025
    1DIPC   C1B20061   8.655  23.655   3.138  0.4739  0.0217  0.2473
    1DIPC   D2B20062   8.603  23.550   3.618  0.0929  0.2238  0.0770
    1DIPC   D3B20063   8.434  23.909   3.761  0.0948  0.0095 -0.0422
    1DIPC   C4B20064   8.405  24.205   4.128 -0.3498 -0.0326  0.3227
    1DIPC   NC320065  20.007   7.897   2.288  0.0809 -0.0573 -0.4407
    1DIPC   PO420066  20.329   7.640   2.423 -0.1673 -0.3856 -0.2152
    1DIPC   GL120067  20.191   7.702   2.800 -0.1472  0.1321  0.1156
    1DIPC   GL220068  20.442   7.558   3.017 -0.0394  0.0701  0.0100
    1DIPC   C1A20069  19.848   7.851   3.166  0.1335 -0.0297  0.0993
    1DIPC   D2A20070  19.861   8.045   3.556  0.0408 -0.0569  0.0494
    1DIPC   D3A20071  19.768   7.783   3.783  0.2231  0.1424 -0.1831
    1DIPC   C4A20072  19.923   7.781   4.142  0.2665 -0.3673 -0.1535
    1DIPC   C1B20073  20.194   7.511   3.423 -0.1473 -0.1441 -0.0107
    1DIPC   D2B20074  20.325   7.739   3.775 -0.3928 -0.0646 -0.4432
    1DIPC   D3B20075  20.154   8.223   3.955 -0.0890  0.1449  0.0727
    1DIPC   C4B20076  20.456   8.613   3.943  0.2374  0.0768 -0.3362
    1DIPC   NC320077  26.584  17.048   2.578  0.3622 -0.1073 -0.0929
    1DIPC   PO420078  26.979  17.167   2.673 -0.3217 -0.0263 -0.0439
    1DIPC   GL120079  27.233  16.913   3.009 -0.4443 -0.2083  0.0403
    1DIPC   GL220080  27.067  17.040   3.315 -0.0864  0.0171  0.3298
    1DIPC   C1A20081  27.651  16.787   3.248 -0.0929 -0.0931  0.1019
    1DIPC   D2A20082  28.074  16.696   3.234  0.0924  0.0604  0.0940
    1DIPC   D3A20083  27.941  16.255   3.071 -0.1887  0.0778  0.1321
    1DIPC   C4A20084  28.189  15.891   3.150  0.1945  0.1320  0.1326
    1DIPC   C1B20085  27.174  16.832   3.682  0.0714 -0.0546 -0.2482
    1DIPC   D2B20086  27.423  16.807   4.152 -0.0543 -0.2555  0.1724
    1DIPC   D3B20087  27.366  16.268   4.081 -0.1230 -0.3448 -0.1524
    1DIPC   C4B20088  27.235  15.911   4.216  0.0186  0.1230 -0.2068
    1DIPC   NC320089   6.363  27.590   3.110  0.0632  0.2384  0.0997
    1DIPC   PO420090   6.129  27.747   3.348 -0.1321  0.1530 -0.0455
    1DIPC   GL120091   6.316  27.505   3.609  0.0815 -0.1224 -0.2646
    1DIPC   GL220092   6.284  27.220   3.427  0.2597  0.0525 -0.0944
    1DIPC   C1A20093   6.437  27.177   3.926 -0.2228 -0.0300 -0.2314
    1DIPC   D2A20094   6.570  26.732   3.975  0.0132  0.1814  0.1888
    1DIPC   D3A20095   6.534  26.974   4.467 -0.0169 -0.2163  0.1202
    1DIPC   C4A20096   6.286  27.365   4.415 -0.1058  0.0120  0.2281
    1DIPC   C1B20097   6.569  26.956   3.493 -0.0626 -0.1033  0.0461
    1DIPC   D2B20098   6.786  26.648   3.436 -0.0317  0.0652 -0.0742
    1DIPC   D3B20099   7.032  27.048   3.391 -0.0571  0.0264  0.0972
    1DIPC   C4B20100   7.409  27.001   3.662  0.0143 -0.2318 -0.2230
    1DIPC   NC320101   6.856   3.341   3.272 -0.1667  0.1355  0.0735
    1DIPC   PO420102   6.783   2.899   3.316  0.1861  0.0931  0.0774
    1DIPC   GL120103   6.817   2.987   3.761 -0.0598 -0.4438 -0.1281
    1DIPC   GL220104   7.055   2.785   3.783 -0.0364 -0.0525 -0.3211
    1DIPC   C1A20105   6.795   3.056   4.197 -0.2005  0.0405  0.2117
    1DIPC   D2A20106   6.574   3.166   4.542 -0.2447 -0.1410 -0.1081
    1DIPC   D3A20107   6.372   2.731   4.394  0.2064  0.2762 -0.0745
    1DIPC   C4A20108   6.212   2.411   4.671  0.0601  0.0800 -0.1559
    1DIPC   C1B20109   6.793   2.532   4.067 -0.1584  0.0411 -0.1190
    1DIPC   D2B20110   6.531   2.141   4.251  0.0467 -0.2067 -0.0262
    1DIPC   D3B20111   6.546   2.063   4.661  0.1412  0.3451  0.1500
    1DIPC   C4B20112   6.772   1.709   4.923  0.5234 -0.3374  0.0184
    1DIPC   NC320113   3.257   7.784   2.614  0.3853 -0.1873 -0.0684
    1DIPC   PO420114   3.244   7.468   3.027 -0.2198 -0.2374 -0.0388
    1DIPC   GL120115   3.174   7.557   3.472 -0.0311 -0.0234 -0.2595
    1DIPC   GL220116   2.977   7.335   3.665  0.3031 -0.0342  0.0271
    1DIPC   C1A20117   3.296   7.645   3.915  0.1069 -0.4601  0.1076
    1DIPC   D2A20118   3.218   7.764   4.287 -0.0271  0.0516 -0.0261
    1DIPC   D3A20119   3.465   8.050   4.581  0.0412  0.1635 -0.0666
    1DIPC   C4A20120   3.468   8.489   4.467  0.0648 -0.1620 -0.1534
    1DIPC   C1B20121   2.708   7.229   3.991  0.1504  0.0350 -0.3737
    1DIPC   D2B20122   2.437   7.546   4.303  0.0799  0.0098 -0.0305
    1DIPC   D3B20123   2.400   7.395   4.774 -0.1322  0.2457 -0.1827
    1DIPC   C4B20124   2.002   7.213   4.965 -0.1669 -0.1429  0.2343
    1DIPC   NC320125  19.818  22.271   2.962  0.2013  0.2894 -0.3907
    1DIPC   PO420126  20.109  22.597   3.124  0.0941 -0.1685  0.2829
    1DIPC   GL120127  19.770  22.569   3.484  0.0574 -0.1226 -0.2330
    1DIPC   GL220128  19.621  22.786   3.583  0.2346  0.0103 -0.0144
    1DIPC   C1A20129  19.586  22.188   3.822  0.4046 -0.2338 -0.0894
    1DIPC   D2A20130  19.436  21.814   4.110  0.2591  0.1795 -0.1135
    1DIPC   D3A20131  19.837  22.075   4.240 -0.2600  0.1235  0.0825
    1DIPC   C4A20132  19.736  22.286   4.649 -0.2570  0.0999  0.1723
    1DIPC   C1B20133  19.313  22.667   3.934  0.2491  0.0106  0.1630
    1DIPC   D2B20134  18.991  22.784   4.238  0.0902  0.3620 -0.1207
    1DIPC   D3B20135  19.410  22.845   4.510  0.3335  0.0928  0.0465
    1DIPC   C4B20136  19.769  22.763   4.769  0.2223  0.1920  0.0079
    1DIPC   NC320137  27.310  28.799   3.144  0.2364  0.2419 -0.0600
    1DIPC   PO420138  27.702  28.781   2.860 -0.2023 -0.4082 -0.1678
    1DIPC   GL120139  27.713  28.459   3.104  0.2938 -0.0427 -0.2492
    1DIPC   GL220140  28.003  28.528   3.269  0.1714 -0.2339  0.1085
    1DIPC   C1A20141  27.558  28.300   3.428  0.3426 -0.3594  0.0439
    1DIPC   D2A20142  27.234  28.438   3.705 -0.2268  0.0120 -0.2382
    1DIPC   D3A20143  26.875  28.146   3.621 -0.2213  0.0781  0.2624
    1DIPC   C4A20144  26.469  28.060   3.739  0.1475  0.1927  0.0014
    1DIPC   C1B20145  27.832  28.564   3.687  0.0181 -0.0118 -0.1140
    1DIPC   D2B20146  27.983  28.537   4.039 -0.0401  0.1420 -0.0508
    1DIPC   D3B20147  28.255  28.959   3.915 -0.1683  0.0945 -0.0338
    1DIPC   C4B20148  28.657  29.208   3.811 -0.2591  0.0387 -0.0857
    1DIPC   NC320149   3.259  28.297   2.771  0.0781  0.0466  0.1674
    1DIPC   PO420150   3.432  28.645   2.872  0.2042  0.2788 -0.0209
    1DIPC   GL120151   3.724  28.424   3.289 -0.0087 -0.0323  0.1304
    1DIPC   GL220152   4.003  28.609   3.404  0.0520 -0.1174  0.3504
    1DIPC   C1A20153   3.546  28.280   3.567  0.1779  0.1315 -0.2042
    1DIPC   D2A20154   3.545  28.246   4.014 -0.1178  0.3262  0.1517
    1DIPC   D3A20155   3.689  28.133   4.424  0.1212  0.0723 -0.0732
    1DIPC   C4A20156   3.507  27.872   4.627 -0.0253  0.0853  0.0334
    1DIPC   C1B20157   4.024  28.644   3.791 -0.0692  0.3882 -0.2699
    1DIPC   D2B20158   4.021  28.268   4.068 -0.0631  0.2616 -0.2580
    1DIPC   D3B20159   4.221  28.135   4.330  0.0784  0.0684  0.2863
    1DIPC   C4B20160   4.532  28.331   4.565  0.3791 -0.2236  0.0868
    1DIPC   NC320161  29.726  14.226   2.060 -0.2277  0.2573  0.0550
    1DIPC   PO420162  29.257  14.425   2.043 -0.0424 -0.1975  0.0674
    1DIPC   GL120163  29.391  14.260   2.483  0.0662  0.0082 -0.2555
    1DIPC   GL220164  29.275  14.295   2.763  0.0003  0.0570 -0.2311
    1DIPC   C1A20165  29.802  14.135   2.692  0.2748 -0.0086  0.0121
    1DIPC   D2A20166  29.836  14.117   3.125 -0.1761 -0.1463  0.1335
    1DIPC   D3A20167  29.749  14.157   3.557 -0.0698  0.3156  0.1222
    1DIPC   C4A20168  29.384  14.157   3.641  0.0502 -0.1643  0.0292
    1DIPC   C1B20169  29.331  14.122   3.150  0.3236 -0.0329 -0.0975
    1DIPC   D2B20170  29.141  13.756   3.486  0.0496  0.0952 -0.0226
    1DIPC   D3B20171  29.293  13.741   3.953  0.4241  0.2050 -0.1296
    1DIPC   C4B20172  29.712  13.887   4.041  0.1031  0.1411  0.1223
    1DIPC   NC320173  27.654  16.374   1.824 -0.1081 -0.0746 -0.2254
    1DIPC   PO420174  27.566  16.233   2.218 -0.2816  0.2248  0.0645
    1DIPC   GL120175  27.546  16.106   2.680 -0.1325 -0.1189  0.1037
    1DIPC   GL220176  27.478  15.834   2.850 -0.0372 -0.1792  0.2821
    1DIPC   C1A20177  27.429  16.343   3.071 -0.1736  0.0088  0.1665
    1DIPC   D2A20178  27.440  16.416   3.586 -0.0575 -0.0480 -0.1779
    1DIPC   D3A20179  27.861  16.504   3.630  0.0346  0.1157  0.0942
    1DIPC   C4A20180  27.836  16.878   3.874  0.3389  0.3605  0.0365
    1DIPC   C1B20181  27.532  15.934   3.317 -0.0713 -0.0969 -0.3371
    1DIPC   D2B20182  27.882  15.941   3.560  0.1336 -0.0152 -0.2226
    1DIPC   D3B20183  27.951  16.107   3.985 -0.1916  0.2237 -0.4142
    1DIPC   C4B20184  28.067  16.081   4.439  0.0498  0.0585  0.1634
    1DIPC   NC320185   2.468  28.830   2.479 -0.2262 -0.2550 -0.0731
    1DIPC   PO420186   2.451  28.690   2.926  0.2432  0.1991  0.0493
    1DIPC   GL120187   2.602  28.645   3.397 -0.1959 -0.0862 -0.2454
    1DIPC   GL220188   2.730  28.954   3.405 -0.3786 -0.2004  0.0959
    1DIPC   C1A20189   2.432  28.607   3.753 -0.1676  0.1378 -0.0074
    1DIPC   D2A20190   2.399  28.714   4.198 -0.3773 -0.1746  0.1259
    1DIPC   D3A20191   2.358  29.019   4.466 -0.1436  0.0271 -0.0989
    1DIPC   C4A20192   2.672  29.335   4.611 -0.0196  0.0871  0.1193
    1DIPC   C1B20193   3.092  28.909   3.736  0.3362 -0.1420  0.0317
    1DIPC   D2B20194   3.448  28.694   3.812 -0.2072 -0.2967 -0.1082
    1DIPC   D3B20195   3.726  28.723   4.232  0.0617  0.0767 -0.1783
    1DIPC   C4B20196   3.518  28.720   4.612 -0.2682  0.1181 -0.0778
    1DIPC   NC320197  17.655   7.262   2.438 -0.0283 -0.2312 -0.3862
    1DIPC   PO420198  17.225   7.191   2.585 -0.0331  0.1819  0.0763
    1DIPC   GL120199  17.260   7.215   2.966 -0.0900 -0.0000  0.0674
    1DIPC   GL220200  17.039   7.379   3.061  0.0440 -0.1808 -0.0749
    1DIPC   C1A20201  17.098   6.987   3.323 -0.0786 -0.3534  0.1274
    1DIPC   D2A20202  17.221   6.860   3.664  0.4450 -0.2808 -0.0407
    1DIPC   D3A20203  17.121   7.333   3.726 -0.2248 -0.3796 -0.2518
    1DIPC   C4A20204  17.314   7.611   3.474 -0.0944 -0.2684 -0.1516
    1DIPC   C1B20205  16.896   7.688   3.288 -0.1647  0.0101  0.1418
    1DIPC   D2B20206  16.846   7.786   3.665 -0.1461 -0.1622  0.0575
    1DIPC   D3B20207  17.171   7.836   4.003 -0.1554 -0.0635 -0.1791
    1DIPC   C4B20208  17.439   8.219   4.049 -0.1697 -0.0143 -0.3202
    1DIPC   NC320209  22.145   0.102   3.248 -0.1883  0.1004 -0.1713
    1DIPC   PO420210  21.712  -0.118   3.247 -0.0329  0.1800  0.0948
    1DIPC   GL120211  22.042  -0.319   3.595  0.1880  0.0607 -0.0293
    1DIPC   GL220212  22.428  -0.383   3.691 -0.2452 -0.0809 -0.0581
    1DIPC   C1A20213  21.774  -0.404   3.996 -0.0137  0.0282  0.0466
    1DIPC   D2A20214  21.701  -0.453   4.391 -0.1060 -0.1369  0.2581
    1DIPC   D3A20215  21.343  -0.144   4.178 -0.1864 -0.1441 -0.1317
    1DIPC   C4A20216  20.954  -0.055   4.400 -0.1050  0.0973  0.0456
    1DIPC   C1B20217  22.502  -0.255   4.107  0.1455 -0.2923 -0.1346
    1DIPC   D2B20218  22.477  -0.441   4.506 -0.2530 -0.0235 -0.1512
    1DIPC   D3B20219  22.150  -0.508   4.601  0.3208  0.2377 -0.2263
    1DIPC   C4B20220  22.020  -0.865   4.526 -0.0531 -0.2510  0.1968
    1DIPC   NC320221  10.841  21.248   2.602  0.0177  0.3143 -0.1073
    1DIPC   PO420222  11.287  21.301   2.479  0.4358  0.1325  0.0072
    1DIPC   GL120223  11.470  21.340   2.997 -0.0766 -0.1491 -0.0422
    1DIPC   GL220224  11.225  21.470   3.268 -0.0962 -0.0518  0.2918
    1DIPC   C1A20225  11.633  21.316   3.487 -0.3441 -0.0299 -0.0657
    1DIPC   D2A20226  11.792  21.174   3.880 -0.1622  0.2050 -0.0474
    1DIPC   D3A20227  11.512  20.881   3.619 -0.2864 -0.1770 -0.0803
    1DIPC   C4A20228  11.614  20.837   3.215 -0.3101  0.1894  0.4767
    1DIPC   C1B20229  11.235  21.511   3.725 -0.0199  0.2488  0.0442
    1DIPC   D2B20230  11.360  21.418   4.084  0.2235 -0.2027 -0.2026
    1DIPC   D3B20231  10.847  21.303   4.110  0.2245  0.0853 -0.0540
    1DIPC   C4B20232  10.486  21.346   4.392  0.1556 -0.0065 -0.0928
    1DIPC   NC320233  22.879   4.259   2.949  0.1565  0.2228  0.2774
    1DIPC   PO420234  23.156   4.575   3.108  0.0873  0.0403 -0.4791
    1DIPC   GL120235  22.966   4.446   3.404  0.0152 -0.1826 -0.1452
    1DIPC   GL220236  23.164   4.389   3.577 -0.1564  0.2031 -0.0261
    1DIPC   C1A20237  22.740   4.382   3.805 -0.0780 -0.1157  0.1273
    1DIPC   D2A20238  22.706   4.288   4.345 -0.1028  0.2198  0.0031
    1DIPC   D3A20239  23.053   4.116   4.189 -0.2447 -0.0463 -0.2022
    1DIPC   C4A20240  23.433   4.080   4.178 -0.1313 -0.0902  0.0683
    1DIPC   C1B20241  23.347   4.570   4.019  0.1366  0.1286 -0.0177
    1DIPC   D2B20242  23.460   4.815   4.402  0.1909  0.0650 -0.1023
    1DIPC   D3B20243  23.073   4.442   4.582 -0.3252 -0.0662  0.3768
    1DIPC   C4B20244  22.683   4.630   4.847 -0.3333  0.1903 -0.0651
    1DIPC   NC320245  16.355   3.477   2.611 -0.0031  0.2578  0.0904
    1DIPC   PO420246  16.476   3.849   2.757 -0.0755 -0.2484  0.0912
    1DIPC   GL120247  16.466   3.738   3.092  0.3428  0.0355  0.0104
    1DIPC   GL220248  16.765   3.776   3.285  0.0012  0.2356 -0.0584
    1DIPC   C1A20249  16.253   3.598   3.479  0.1545 -0.0761  0.1305
    1DIPC   D2A20250  16.167   3.159   3.710  0.0319 -0.0453 -0.0522
    1DIPC   D3A20251  16.602   3.103   3.559  0.1884 -0.0067  0.2421
    1DIPC   C4A20252  16.819   3.297   3.245  0.6166 -0.3329  0.2553
    1DIPC   C1B20253  16.702   3.622   3.695 -0.1020  0.0934 -0.3819
    1DIPC   D2B20254  16.727   3.321   4.070 -0.2684 -0.1709  0.0425
    1DIPC   D3B20255  16.964   3.121   4.371  0.0104  0.2648 -0.1031
    1DIPC   C4B20256  16.953   3.265   4.803 -0.0846  0.0400  0.4262
    1DIPC   NC320257  12.781  22.105   2.209 -0.0897  0.1686  0.3739
    1DIPC   PO420258  12.427  22.450   2.151  0.0311  0.0398 -0.0405
    1DIPC   GL120259  12.465  22.663   2.432 -0.1195 -0.0416  0.0484
    1DIPC   GL220260  12.554  22.982   2.507 -0.0297 -0.1413  0.0588
    1DIPC   C1A20261  12.422  22.626   2.887  0.0499 -0.0315  0.1169
    1DIPC   D2A20262  12.507  22.697   3.278 -0.1908 -0.2129  0.0301
    1DIPC   D3A20263  12.320  22.411   3.610  0.1980 -0.3193  0.5016
    1DIPC   C4A20264  12.501  22.399   4.024  0.1049 -0.1251  0.0236
    1DIPC   C1B20265  12.943  22.690   2.616  0.0429  0.1482 -0.0793
    1DIPC   D2B20266  13.307  22.649   2.931  0.0771 -0.0645  0.2714
    1DIPC   D3B20267  13.020  22.724   3.252  0.0823  0.0889 -0.2698
    1DIPC   C4B20268  12.819  22.429   3.623  0.4917 -0.1206  0.0418
    1DIPC   NC320269  10.047   6.726   3.522 -0.1453 -0.0992 -0.1817
    1DIPC   PO420270   9.771   6.371   3.642 -0.1492  0.0545 -0.1297
    1DIPC   GL120271   9.716   6.675   4.036 -0.0458 -0.1918 -0.0659
    1DIPC   GL220272   9.565   6.520   4.329 -0.0082  0.0666 -0.0769
    1DIPC   C1A20273   9.668   7.060   4.156  0.0621 -0.3228 -0.1122
    1DIPC   D2A20274   9.404   7.285   4.419  0.1109  0.0286 -0.0222
    1DIPC   D3A20275   9.446   6.909   4.580  0.0064 -0.0447 -0.0414
    1DIPC   C4A20276   9.491   6.627   4.948 -0.0436 -0.1463  0.1242
    1DIPC   C1B20277   9.957   6.524   4.682 -0.0184 -0.0039  0.1528
    1DIPC   D2B20278   9.899   6.492   5.178 -0.1108 -0.2610 -0.2317
    1DIPC   D3B20279   9.647   6.154   5.105 -0.0291  0.3101  0.1575
    1DIPC   C4B20280   9.794   5.750   5.288 -0.0791  0.3049  0.0134
    1DIPC   NC320281  13.345   4.743   2.941  0.0678 -0.0904 -0.4941
    1DIPC   PO420282  13.539   4.876   3.348  0.3835 -0.1606  0.0131
    1DIPC   GL120283  13.389   4.829   3.714  0.0624 -0.1238 -0.2812
    1DIPC   GL220284  13.043   4.966   3.685 -0.2555 -0.0537  0.2189
    1DIPC   C1A20285  13.416   5.003   4.132  0.1876  0.3362 -0.3270
    1DIPC   D2A20286  13.184   5.279   4.488  0.0602  0.2710  0.0736
    1DIPC   D3A20287  13.396   5.305   4.930  0.0704 -0.0172 -0.1629
    1DIPC   C4A20288  13.494   4.934   5.209  0.0528  0.0711 -0.4195
    1DIPC   C1B20289  12.932   5.151   3.989 -0.1349  0.0803  0.1006
    1DIPC   D2B20290  12.834   5.460   4.212 -0.0065 -0.0162 -0.0189
    1DIPC   D3B20291  12.636   5.608   4.636 -0.0237 -0.0956  0.0337
    1DIPC   C4B20292  13.016   5.803   4.890  0.0964  0.0208 -0.0405
    1DIPC   NC320293  18.703   2.374   2.436 -0.0606 -0.0135  0.1535
    1DIPC   PO420294  18.875   2.553   2.871  0.1434  0.0278  0.1598
    1DIPC   GL120295  18.997   2.641   3.369 -0.2479  0.0199 -0.1914
    1DIPC   GL220296  19.356   2.431   3.493  0.0226  0.5392 -0.1125
    1DIPC   C1A20297  18.888   2.831   3.671  0.0167 -0.0300  0.2574
    1DIPC   D2A20298  18.666   2.865   4.077  0.0415 -0.0751 -0.0018
    1DIPC   D3A20299  18.672   3.253   3.795 -0.1742  0.1667  0.1666
    1DIPC   C4A20300  18.932   3.265   3.370 -0.0143  0.1581  0.1082
    1DIPC   C1B20301  19.573   2.363   3.878  0.1659  0.0258  0.0514
    1DIPC   D2B20302  19.648   2.362   4.387  0.3547  0.2050 -0.1823
    1DIPC   D3B20303  19.949   2.078   4.150  0.0911 -0.0982 -0.1579
    1DIPC   C4B20304  19.736   1.883   4.004 -0.1957  0.0288 -0.1655
    1DIPC   NC320305  15.138  26.667   3.115  0.2121  0.1004  0.0133
    1DIPC   PO420306  15.374  26.381   3.225  0.2109  0.0919  0.0318
    1DIPC   GL120307  15.514  26.457   3.612  0.2175 -0.1832  0.1419
    1DIPC   GL220308  15.639  26.720   3.717 -0.0557  0.2634 -0.0330
    1DIPC   C1A20309  15.467  26.244   4.070 -0.0030  0.1846  0.2038
    1DIPC   D2A20310  15.160  25.866   3.969  0.1781 -0.0960 -0.0441
    1DIPC   D3A20311  14.892  26.033   4.203  0.1232  0.0573  0.0372
    1DIPC   C4A20312  14.780  25.699   4.502  0.1110 -0.0296 -0.1671
    1DIPC   C1B20313  15.857  26.556   4.116 -0.1438 -0.1373 -0.1119
    1DIPC   D2B20314  16.080  26.518   4.451 -0.0750 -0.3187  0.0465
    1DIPC   D3B20315  15.640  26.418   4.599  0.0746  0.1030  0.0834
    1DIPC   C4B20316  15.560  25.991   4.529  0.0131  0.0139 -0.1203
    1DIPC   NC320317   0.854  15.692   2.468  0.0084  0.2517 -0.1536
    1DIPC   PO420318   1.274  15.896   2.602 -0.0609 -0.2448 -0.0372
    1DIPC   GL120319   1.338  16.089   3.064 -0.1269 -0.1347 -0.0090
    1DIPC   GL220320   1.630  16.384   3.098  0.2513 -0.0755 -0.2528
    1DIPC   C1A20321   1.394  16.140   3.528  0.0413  0.5843  0.1613
    1DIPC   D2A20322   1.395  16.039   4.013  0.1685 -0.1308 -0.1503
    1DIPC   D3A20323   1.178  15.773   3.771 -0.0508  0.0591 -0.0780
    1DIPC   C4A20324   1.275  15.670   3.331  0.2042  0.3768 -0.1770
    1DIPC   C1B20325   1.452  16.603   3.431  0.0412  0.2116 -0.1931
    1DIPC   D2B20326   1.351  16.525   3.837  0.1738  0.0712 -0.0880
    1DIPC   D3B20327   1.053  16.692   4.069  0.2317  0.2204 -0.1070
    1DIPC   C4B20328   0.808  17.102   3.896  0.0241  0.4070  0.0079
    1DIPC   NC320329  27.554   4.749   2.993 -0.3512 -0.1688  0.4686
    1DIPC   PO420330  27.092   4.918   3.144  0.0386  0.1126  0.1290
    1DIPC   GL120331  27.111   4.690   3.532  0.0061  0.2188  0.2263
    1DIPC   GL220332  27.118   4.965   3.813  0.2900  0.0248 -0.1547
    1DIPC   C1A20333  27.199   4.491   3.889  0.0799  0.0145  0.0441
    1DIPC   D2A20334  27.468   4.653   4.177  0.3904 -0.1461  0.2857
    1DIPC   D3A20335  27.480   4.432   4.675 -0.3270  0.3967  0.4278
    1DIPC   C4A20336  27.873   4.398   4.883  0.0687  0.0261 -0.4816
    1DIPC   C1B20337  26.992   5.053   4.215 -0.0011 -0.0059  0.2693
    1DIPC   D2B20338  27.107   4.797   4.564  0.2451 -0.0345  0.1806
    1DIPC   D3B20339  27.051   4.391   4.446 -0.1150 -0.3738  0.1178
    1DIPC   C4B20340  26.823   4.104   4.717  0.1825 -0.0872 -0.1393
    1DIPC   NC320341  19.013  23.244   3.208  0.0152 -0.2562  0.0243
    1DIPC   PO420342  19.353  23.025   3.251 -0.0404  0.1742  0.2757
    1DIPC   GL120343  19.011  22.858   3.541  0.2545  0.0577 -0.1483
    1DIPC   GL220344  18.863  23.096   3.705 -0.1049  0.0132  0.2086
    1DIPC   C1A20345  18.755  22.576   3.807 -0.1477 -0.0629  0.1116
    1DIPC   D2A20346  18.585  22.366   4.202  0.1954  0.0608 -0.1642
    1DIPC   D3A20347  18.805  22.324   4.629  0.2086  0.1239  0.0935
    1DIPC   C4A20348  18.854  22.538   5.043  0.1070 -0.1227 -0.1092
    1DIPC   C1B20349  18.678  23.185   4.012 -0.0586 -0.1474 -0.2024
    1DIPC   D2B20350  18.576  23.318   4.342 -0.0518  0.1078 -0.2782
    1DIPC   D3B20351  18.134  23.315   4.547  0.0337 -0.1875 -0.0318
    1DIPC   C4B20352  17.777  23.165   4.796 -0.0118  0.3819  0.1493
    1DIPC   NC320353   6.538   0.096   3.376  0.2251  0.1299 -0.1730
    1DIPC   PO420354   6.104   0.113   3.564 -0.1886 -0.2314 -0.2006
    1DIPC   GL120355   5.938   0.213   3.893 -0.0939  0.0519 -0.5318
    1DIPC   GL220356   5.547   0.221   3.852 -0.2378 -0.4381  0.1553
    1DIPC   C1A20357   5.919   0.209   4.263 -0.0009 -0.0426 -0.0742
    1DIPC   D2A20358   5.696   0.065   4.681  0.0326  0.2627  0.2567
    1DIPC   D3A20359   6.132   0.206   4.774  0.1762  0.2669  0.2005
    1DIPC   C4A20360   6.529   0.445   4.589  0.1501 -0.1147  0.1754
    1DIPC   C1B20361   5.492  -0.054   4.216 -0.0567  0.0333 -0.0773
    1DIPC   D2B20362   5.538  -0.523   4.312  0.0059  0.0759  0.0041
    1DIPC   D3B20363   5.492  -0.386   4.714 -0.0402  0.0330  0.0070
    1DIPC   C4B20364   5.812  -0.431   5.013  0.2572 -0.0257  0.1311
    1DIPC   NC320365  24.245  21.806   2.899 -0.0836  0.0079 -0.2840
    1DIPC   PO420366  24.209  22.131   3.192  0.3871  0.0706 -0.0601
    1DIPC   GL120367  24.230  21.963   3.589  0.0012  0.0271  0.1851
    1DIPC   GL220368  24.115  22.277   3.721 -0.0130  0.0421 -0.1669
    1DIPC   C1A20369  24.216  21.764   3.936 -0.0471 -0.2273 -0.0747
    1DIPC   D2A20370  24.061  21.903   4.390 -0.0543  0.1628  0.0233
    1DIPC   D3A20371  23.672  22.066   4.371  0.3353 -0.0247  0.1372
    1DIPC   C4A20372  23.403  22.115   4.689 -0.1160 -0.0042 -0.0979
    1DIPC   C1B20373  24.036  22.316   4.139  0.0934  0.0973  0.0794
    1DIPC   D2B20374  24.059  22.328   4.582  0.1450 -0.0182  0.0130
    1DIPC   D3B20375  23.929  21.979   4.880  0.1532  0.0977  0.2274
    1DIPC   C4B20376  23.497  21.753   5.065  0.0351 -0.0932 -0.2988
    1DIPC   NC320377  11.146   4.370   3.332  0.2852 -0.0176 -0.2743
    1DIPC   PO420378  10.627   4.519   3.286 -0.0267  0.1459 -0.0683
    1DIPC   GL120379  10.602   4.420   3.722 -0.0193  0.0241  0.2876
    1DIPC   GL220380  10.449   4.679   3.954 -0.1752  0.3673  0.1860
    1DIPC   C1A20381  10.651   4.328   4.191 -0.0734  0.1887  0.2604
    1DIPC   D2A20382  10.451   4.403   4.580  0.0404  0.0595  0.3400
    1DIPC   D3A20383  10.592   4.715   4.805 -0.1050  0.0217 -0.2613
    1DIPC   C4A20384  10.342   5.007   4.899  0.1797 -0.5549 -0.0161
    1DIPC   C1B20385  10.765   4.833   4.298  0.1157 -0.0892  0.1308
    1DIPC   D2B20386  10.627   5.176   4.528 -0.0553 -0.0228  0.0632
    1DIPC   D3B20387  11.033   5.304   4.609 -0.0046 -0.1733  0.2977
    1DIPC   C4B20388  11.475   5.132   4.778 -0.3425  0.1078 -0.0305
    1DIPC   NC320389  15.473  22.220   2.179 -0.0224  0.1406 -0.0444
    1DIPC   PO420390  15.353  21.768   2.048  0.0090  0.3174  0.2136
    1DIPC   GL120391  15.210  21.878   2.444  0.3316 -0.1202 -0.0837
    1DIPC   GL220392  15.393  21.677   2.715  0.0958 -0.1041 -0.0250
    1DIPC   C1A20393  14.978  21.913   2.867 -0.1050 -0.1878  0.2750
    1DIPC   D2A20394  14.583  21.772   3.158 -0.0274 -0.1516  0.0101
    1DIPC   D3A20395  14.168  21.725   3.340  0.0897 -0.1115 -0.0325
    1DIPC   C4A20396  14.087  21.598   3.690  0.1634  0.0903 -0.1553
    1DIPC   C1B20397  15.248  21.327   2.718 -0.0078  0.3758  0.1617
    1DIPC   D2B20398  14.793  21.067   2.756  0.2633  0.0068 -0.2038
    1DIPC   D3B20399  14.771  21.430   2.902  0.0199  0.1286  0.2790
    1DIPC   C4B20400  15.024  21.571   3.233  0.0231 -0.1631  0.0430
    1DIPC   NC320401  16.264  23.413   2.267 -0.0015 -0.0683 -0.2819
    1DIPC   PO420402  16.396  22.926   2.420 -0.0529 -0.0960  0.0275
    1DIPC   GL120403  16.225  22.672   2.740 -0.0466  0.1565 -0.1156
    1DIPC   GL220404  16.088  22.865   3.046  0.0236  0.4690 -0.0691
    1DIPC   C1A20405  15.754  22.506   3.019 -0.2220  0.1752 -0.2336
    1DIPC   D2A20406  15.561  22.365   3.387  0.4346  0.1249 -0.4402
    1DIPC   D3A20407  15.234  22.429   3.644 -0.2397 -0.0621  0.3421
    1DIPC   C4A20408  15.279  22.430   3.997 -0.2042 -0.1522  0.2133
    1DIPC   C1B20409  15.754  22.976   2.889  0.1079 -0.0797 -0.3627
    1DIPC   D2B20410  15.518  23.227   3.199  0.2451  0.2394  0.0165
    1DIPC   D3B20411  15.580  22.873   3.401 -0.2495 -0.0074 -0.1811
    1DIPC   C4B20412  16.007  22.840   3.522 -0.0217 -0.2696  0.0387
    1DIPC   NC320413  25.339   1.515   2.839  0.0576 -0.1284 -0.0249
    1DIPC   PO420414  25.396   1.945   2.671  0.2941  0.1011  0.0152
    1DIPC   GL120415  25.417   1.982   3.177 -0.0372  0.0771 -0.0929
    1DIPC   GL220416  25.514   1.718   3.271  0.2843  0.0943  0.0657
    1DIPC   C1A20417  25.426   2.327   3.510  0.1996 -0.0506  0.2522
    1DIPC   D2A20418  25.490   2.408   3.984 -0.0101 -0.0009  0.0128
    1DIPC   D3A20419  25.830   2.256   4.007  0.1019 -0.0860 -0.1471
    1DIPC   C4A20420  26.160   2.561   3.974  0.1273  0.0401  0.1654
    1DIPC   C1B20421  25.795   1.936   3.545 -0.1155 -0.0582 -0.1665
    1DIPC   D2B20422  26.094   2.203   3.471 -0.0131  0.3021  0.0233
    1DIPC   D3B20423  25.936   2.632   3.430  0.1508 -0.4636 -0.0019
    1DIPC   C4B20424  26.248   3.032   3.652 -0.1920 -0.0487 -0.2024
    1DIPC   NC320425  21.699   5.342   2.864 -0.1030 -0.0260  0.1880
    1DIPC   PO420426  22.090   5.318   3.024  0.0936  0.2155  0.0855
    1DIPC   GL120427  22.363   5.180   3.213  0.2562 -0.0510  0.3230
    1DIPC   GL220428  22.386   4.984   3.238  0.1877  0.3249  0.0869
    1DIPC   C1A20429  22.578   5.252   3.571  0.1616  0.0498 -0.2383
    1DIPC   D2A20430  22.662   5.164   3.983  0.1355  0.2710  0.0992
    1DIPC   D3A20431  22.523   5.136   4.395  0.0839 -0.3354  0.1296
    1DIPC   C4A20432  22.060   5.040   4.522 -0.1399  0.2642 -0.0075
    1DIPC   C1B20433  22.628   4.760   3.522 -0.1230 -0.1771 -0.1376
    1DIPC   D2B20434  23.005   4.969   3.709 -0.0218 -0.0624 -0.0459
    1DIPC   D3B20435  23.140   5.106   4.009  0.1346  0.0415 -0.0458
    1DIPC   C4B20436  23.465   5.361   3.997 -0.0787  0.4227  0.1883
    1DIPC   NC320437  25.792   7.974   2.756  0.0841 -0.2717 -0.0093
    1DIPC   PO420438  25.390   7.997   2.628  0.0348 -0.1345  0.0328
    1DIPC   GL120439  25.436   8.081   3.134 -0.1667  0.3227 -0.2108
    1DIPC   GL220440  25.504   7.741   3.182 -0.1002  0.0491 -0.0630
    1DIPC   C1A20441  25.712   8.418   3.348 -0.2355  0.1535 -0.0632
    1DIPC   D2A20442  26.156   8.369   3.395 -0.3412 -0.1956 -0.0137
    1DIPC   D3A20443  26.465   8.659   3.527 -0.0309  0.0247 -0.0099
    1DIPC   C4A20444  26.759   8.529   3.836 -0.0957 -0.4465  0.2348
    1DIPC   C1B20445  25.521   7.809   3.535 -0.0692  0.0156  0.2423
    1DIPC   D2B20446  25.293   7.655   3.894 -0.2148 -0.0434 -0.0992
    1DIPC   D3B20447  25.122   7.398   4.218  0.0134 -0.0520 -0.0036
    1DIPC   C4B20448  24.984   7.606   4.524 -0.0028 -0.0580 -0.0559
    1DIPC   NC320449  23.041  14.567   2.086  0.0144  0.2841  0.1604
    1DIPC   PO420450  22.799  14.328   2.253 -0.3118 -0.1398  0.1873
    1DIPC   GL120451  22.933  14.084   2.630 -0.1759 -0.0447  0.0596
    1DIPC   GL220452  22.898  13.686   2.612  0.1813 -0.0312  0.0862
    1DIPC   C1A20453  22.669  13.983   2.975 -0.1478 -0.1309 -0.0287
    1DIPC   D2A20454  22.484  14.107   3.410 -0.1913 -0.0358 -0.0726
    1DIPC   D3A20455  22.159  13.771   3.370 -0.0362  0.2515  0.3208
    1DIPC   C4A20456  21.779  13.711   3.631 -0.3357  0.0284  0.0932
    1DIPC   C1B20457  23.023  13.385   2.862  0.1312  0.0694 -0.0131
    1DIPC   D2B20458  22.974  13.307   3.327  0.1457 -0.1823 -0.5059
    1DIPC   D3B20459  22.894  13.351   3.865  0.0075  0.1780  0.1235
    1DIPC   C4B20460  22.811  13.792   4.072  0.1888 -0.1726  0.0527
    1DIPC   NC320461   4.837   5.122   2.996  0.1724 -0.0333  0.0455
    1DIPC   PO420462   5.053   5.220   3.402 -0.0225 -0.1473  0.0898
    1DIPC   GL120463   4.885   5.032   3.661  0.2447  0.1359 -0.2801
    1DIPC   GL220464   5.016   4.708   3.674  0.0910  0.0804  0.2778
    1DIPC   C1A20465   4.508   4.977   3.724 -0.0553 -0.0751 -0.1711
    1DIPC   D2A20466   4.318   5.208   4.044  0.1743 -0.2472  0.2917
    1DIPC   D3A20467   4.725   5.219   4.158 -0.1328  0.2353 -0.0834
    1DIPC   C4A20468   4.956   5.125   4.465 -0.3058  0.0185  0.1413
    1DIPC   C1B20469   4.836   4.763   4.132 -0.0522 -0.2538 -0.4095
    1DIPC   D2B20470   4.470   4.806   4.338 -0.0956 -0.1491 -0.0431
    1DIPC   D3B20471   4.096   4.618   4.454  0.2637 -0.1522 -0.2032
    1DIPC   C4B20472   3.773   4.387   4.557 -0.2025 -0.1430  0.3049
    1DIPC   NC320473   9.779  27.093   2.469  0.0604  0.0275 -0.3085
    1DIPC   PO420474  10.152  26.782   2.471 -0.2075 -0.0865 -0.1044
    1DIPC   GL120475  10.197  26.688   3.006  0.0131  0.1513  0.0725
    1DIPC   GL220476  10.466  26.872   3.136  0.1027 -0.1295 -0.0852
    1DIPC   C1A20477  10.090  26.638   3.455  0.2632 -0.1141 -0.1170
    1DIPC   D2A20478  10.196  26.847   3.821 -0.0268  0.0801  0.3374
    1DIPC   D3A20479   9.936  26.946   4.160  0.1932  0.0868 -0.1320
    1DIPC   C4A20480  10.053  26.598   4.433  0.1392 -0.1459 -0.1060
    1DIPC   C1B20481  10.714  26.970   3.494  0.2226 -0.1566 -0.0777
    1DIPC   D2B20482  10.684  26.930   3.953  0.0060 -0.1007  0.0454
    1DIPC   D3B20483  10.415  26.938   4.314 -0.0255  0.0183 -0.0009
    1DIPC   C4B20484  10.191  26.866   4.784  0.0987 -0.0499  0.1118
    1DIPC   NC320485  29.023  27.533   2.355 -0.1516  0.2484  0.1100
    1DIPC   PO420486  28.875  27.360   2.746  0.2087  0.1434  0.0822
    1DIPC   GL120487  29.084  27.170   3.081 -0.2410  0.0489 -0.1146
    1DIPC   GL220488  29.468  27.209   3.165 -0.0597 -0.2893 -0.1156
    1DIPC   C1A20489  29.044  27.116   3.465 -0.0057 -0.2508  0.0318
    1DIPC   D2A20490  28.753  27.024   3.873  0.3322  0.2731 -0.0868
    1DIPC   D3A20491  28.900  26.869   4.221  0.0293  0.0315 -0.0392
    1DIPC   C4A20492  28.958  26.493   4.535 -0.1151 -0.1452 -0.1190
    1DIPC   C1B20493  29.388  27.398   3.586  0.1092  0.3607 -0.1881
    1DIPC   D2B20494  29.228  27.781   3.784 -0.0377 -0.0478 -0.0285
    1DIPC   D3B20495  29.051  27.396   4.001  0.1005  0.1011  0.2520
    1DIPC   C4B20496  29.299  26.963   3.868  0.0604  0.3308 -0.1401
    1DIPC   NC320497  12.208   1.576   3.577  0.0097 -0.3999  0.0739
    1DIPC   PO420498  12.274   1.228   3.666 -0.2981  0.1004  0.1755
    1DIPC   GL120499  12.274   1.378   4.152 -0.0544 -0.0046 -0.2253
    1DIPC   GL220500  12.337   1.760   4.360 -0.0983  0.1351 -0.0214
    1DIPC   C1A20501  12.115   1.351   4.644 -0.2239 -0.0563  0.1884
    1DIPC   D2A20502  11.954   1.479   5.101  0.0759  0.0322 -0.0078
    1DIPC   D3A20503  11.556   1.712   5.081 -0.0206  0.0128 -0.0030
    1DIPC   C4A20504  11.121   1.527   5.140 -0.0297  0.1238  0.0437
    1DIPC   C1B20505  12.494   1.691   4.834  0.1966  0.0124  0.1585
    1DIPC   D2B20506  12.481   1.641   5.285 -0.0325 -0.0332 -0.1854
    1DIPC   D3B20507  12.489   2.099   5.573  0.0239 -0.2504  0.1943
    1DIPC   C4B20508  12.735   2.433   5.597  0.0813  0.1424  0.0035
    1DIPC   NC320509   0.127   1.128   3.035 -0.3184  0.0467 -0.0227
    1DIPC   PO420510  -0.120   0.885   2.783  0.1542 -0.0608  0.2254
    1DIPC   GL120511  -0.192   0.742   3.156 -0.2681 -0.0450  0.0331
    1DIPC   GL220512  -0.060   0.532   3.310  0.0701 -0.1312 -0.1522
    1DIPC   C1A20513  -0.355   0.998   3.558 -0.1800 -0.0036  0.1815
    1DIPC   D2A20514  -0.629   1.030   3.838  0.0972  0.1139  0.0144
    1DIPC   D3A20515  -0.190   1.087   3.990 -0.1943 -0.0976 -0.1611
    1DIPC   C4A20516   0.145   0.957   4.161 -0.3793 -0.1357  0.1650
    1DIPC   C1B20517   0.192   0.247   3.614 -0.2302  0.1310 -0.0331
    1DIPC   D2B20518   0.437   0.012   3.698  0.3352  0.3274 -0.0398
    1DIPC   D3B20519   0.290  -0.124   4.154  0.0316  0.1698  0.0633
    1DIPC   C4B20520   0.171   0.090   4.511 -0.1508 -0.1305 -0.3889
    1DIPC   NC320521  24.448  14.530   2.363 -0.0333  0.1615  0.0959
    1DIPC   PO420522  24.843  14.671   2.290 -0.0275  0.1975  0.1115
    1DIPC   GL120523  24.883  14.439   2.669  0.0807 -0.2337 -0.0935
    1DIPC   GL220524  24.585  14.361   2.827  0.0754 -0.4029 -0.1177
    1DIPC   C1A20525  24.964  14.151   3.073 -0.0337 -0.1466 -0.2100
    1DIPC   D2A20526  24.701  14.157   3.307  0.0431  0.2474  0.0372
    1DIPC   D3A20527  24.829  14.564   3.560 -0.0316 -0.0945 -0.0627
    1DIPC   C4A20528  24.631  14.789   3.957  0.1412  0.0298  0.2634
    1DIPC   C1B20529  24.440  14.617   3.144  0.0645 -0.0519 -0.0509
    1DIPC   D2B20530  24.300  14.535   3.650 -0.2485 -0.0060  0.0266
    1DIPC   D3B20531  24.230  14.635   4.181  0.1078 -0.0227  0.2297
    1DIPC   C4B20532  24.464  14.945   4.345 -0.3048  0.1396 -0.1945
    1DIPC   NC320533   1.512   2.469   2.668  0.1669  0.0164 -0.1589
    1DIPC   PO420534   1.401   2.609   3.082  0.0305 -0.0518 -0.1676
    1DIPC   GL120535   1.328   2.683   3.500 -0.0630  0.1705 -0.4252
    1DIPC   GL220536   1.266   2.960   3.641  0.0060 -0.1545  0.0991
    1DIPC   C1A20537   1.314   2.527   3.978  0.0046 -0.2172 -0.1978
    1DIPC   D2A20538   1.443   2.694   4.389 -0.2173  0.1507  0.2602
    1DIPC   D3A20539   1.359   2.367   4.622  0.0096 -0.0009  0.0776
    1DIPC   C4A20540   0.968   2.191   4.713  0.0147  0.3252 -0.1143
    1DIPC   C1B20541   1.186   3.014   4.162 -0.3021 -0.0421  0.0988
    1DIPC   D2B20542   1.037   3.124   4.574  0.2719  0.0082  0.2208
    1DIPC   D3B20543   0.669   3.095   4.714  0.2749 -0.1329 -0.2451
    1DIPC   C4B20544   0.428   3.385   5.059  0.0912 -0.3190  0.2668
    1DIPC   NC320545   6.611  25.205   2.503 -0.4913 -0.0285 -0.1458
    1DIPC   PO420546   6.478  25.498   2.665 -0.2312  0.2505 -0.0615
    1DIPC   GL120547   6.375  25.725   3.084 -0.1070 -0.0832  0.1761
    1DIPC   GL220548   6.103  26.053   3.134 -0.0529 -0.0738  0.0546
    1DIPC   C1A20549   6.529  26.074   3.296 -0.0338  0.5323 -0.2745
    1DIPC   D2A20550   6.850  26.170   3.459 -0.2137  0.2776  0.2274
    1DIPC   D3A20551   6.711  26.290   3.873  0.2644  0.1173 -0.0007
    1DIPC   C4A20552   6.536  26.063   4.268 -0.1244 -0.1086  0.0055
    1DIPC   C1B20553   6.004  26.273   3.407 -0.1840  0.1464  0.2019
    1DIPC   D2B20554   6.299  26.390   3.605 -0.0064  0.1134  0.4260
    1DIPC   D3B20555   6.260  25.952   3.695  0.2842 -0.3041 -0.2804
    1DIPC   C4B20556   6.120  25.604   3.547  0.0108  0.0898  0.3006
    1DIPC   NC320557   1.362  16.362   2.678 -0.1202 -0.0329 -0.1767
    1DIPC   PO420558   1.287  16.753   2.413  0.0302  0.1673  0.2905
    1DIPC   GL120559   0.955  16.812   2.735  0.0270  0.0547 -0.0018
    1DIPC   GL220560   0.685  16.676   2.775  0.0160  0.0533  0.2555
    1DIPC   C1A20561   1.053  16.952   3.186 -0.1524  0.1706 -0.1424
    1DIPC   D2A20562   0.948  16.691   3.565 -0.2374 -0.2398  0.3101
    1DIPC   D3A20563   1.276  17.007   3.647  0.0698  0.0704 -0.1091
    1DIPC   C4A20564   1.169  17.386   3.692  0.3811 -0.1373 -0.1052
    1DIPC   C1B20565   0.581  16.884   3.179 -0.1468  0.4355 -0.2735
    1DIPC   D2B20566   0.429  16.918   3.648  0.2117 -0.0641  0.3828
    1DIPC   D3B20567   0.554  16.683   3.923 -0.0599  0.1193  0.0274
    1DIPC   C4B20568   0.331  16.811   4.235  0.1570 -0.0439  0.0277
    1DIPC   NC320569  21.717  27.388   3.006  0.1898 -0.0245 -0.2037
    1DIPC   PO420570  21.344  27.303   2.845  0.0285 -0.0872 -0.0007
    1DIPC   GL120571  21.428  26.924   3.019  0.0958 -0.3325  0.0194
    1DIPC   GL220572  21.695  26.957   3.302 -0.0647  0.1411  0.2168
    1DIPC   C1A20573  21.268  26.644   3.246 -0.1099 -0.0959  0.0813
    1DIPC   D2A20574  21.081  26.554   3.608 -0.1189  0.0431  0.0012
    1DIPC   D3A20575  20.583  26.435   3.670  0.2736 -0.0089  0.0418
    1DIPC   C4A20576  20.300  26.738   3.869  0.0853 -0.0488  0.0212
    1DIPC   C1B20577  21.581  26.672   3.736 -0.1290 -0.0090 -0.1516
    1DIPC   D2B20578  21.403  26.642   4.056  0.0130 -0.1227  0.0926
    1DIPC   D3B20579  21.355  26.201   4.039 -0.0755  0.2394  0.2056
    1DIPC   C4B20580  21.421  26.118   3.575  0.0482 -0.0782  0.1099
    1DIPC   NC320581  29.841   5.788   2.532  0.1333  0.0853  0.1896
    1DIPC   PO420582  30.061   5.598   2.793 -0.0148 -0.2018 -0.0104
    1DIPC   GL120583  29.994   5.463   3.219  0.2924 -0.0337 -0.3191
    1DIPC   GL220584  29.951   5.109   3.253 -0.1148 -0.2884  0.0996
    1DIPC   C1A20585  29.939   5.478   3.699  0.1812  0.0501  0.3592
    1DIPC   D2A20586  30.022   5.340   4.149 -0.0360 -0.2823 -0.0485
    1DIPC   D3A20587  30.054   5.337   4.570 -0.1036 -0.0688  0.0039
    1DIPC   C4A20588  30.032   5.668   4.743  0.4023  0.1029 -0.2371
    1DIPC   C1B20589  30.012   4.947   3.709  0.0736  0.0648 -0.0829
    1DIPC   D2B20590  30.144   4.797   4.192 -0.1861 -0.0155 -0.0736
    1DIPC   D3B20591  30.226   4.332   4.336 -0.0694 -0.0654 -0.1898
    1DIPC   C4B20592  30.003   3.985   4.437 -0.0129  0.2361  0.0699
    1DIPC   NC320593  28.207  18.861   2.593 -0.0647 -0.0470 -0.0291
    1DIPC   PO420594  27.982  18.589   2.718  0.1947  0.0868  0.2601
    1DIPC   GL120595  27.838  18.563   3.241 -0.2437  0.0514 -0.0218
    1DIPC   GL220596  27.557  18.339   3.236 -0.2403 -0.0918 -0.2281
    1DIPC   C1A20597  27.986  18.519   3.630 -0.0623  0.2834 -0.0382
    1DIPC   D2A20598  27.969  18.356   4.043 -0.0861 -0.4155 -0.2674
    1DIPC   D3A20599  27.549  18.245   4.197 -0.2315 -0.1956 -0.2014
    1DIPC   C4A20600  27.331  17.847   4.178 -0.1134 -0.0198 -0.1047
    1DIPC   C1B20601  27.530  18.320   3.681 -0.1235 -0.0866 -0.2554
    1DIPC   D2B20602  27.628  18.706   3.971  0.0728  0.2515  0.1124
    1DIPC   D3B20603  28.099  18.797   4.018  0.0159 -0.0628  0.1567
    1DIPC   C4B20604  28.119  19.089   4.272  0.0335  0.1383 -0.1270
    1DIPC   NC320605   5.812   7.569   3.644  0.1160  0.0340 -0.0376
    1DIPC   PO420606   5.543   7.854   3.760 -0.1496  0.0568 -0.2371
    1DIPC   GL120607   5.535   8.058   4.108 -0.0473 -0.0251 -0.3512
    1DIPC   GL220608   5.715   7.848   4.254 -0.1912 -0.1052  0.0658
    1DIPC   C1A20609   5.651   8.372   4.448 -0.0293 -0.2170  0.0239
    1DIPC   D2A20610   6.019   8.429   4.612  0.0753  0.0520 -0.3243
    1DIPC   D3A20611   5.861   8.626   4.875 -0.0114  0.2729  0.2277
    1DIPC   C4A20612   5.775   8.925   5.101 -0.0879 -0.1772 -0.1348
    1DIPC   C1B20613   6.013   7.639   4.559 -0.0263  0.4474  0.3663
    1DIPC   D2B20614   6.503   7.789   4.752  0.0885 -0.4331 -0.0562
    1DIPC   D3B20615   6.724   7.413   4.705 -0.2002 -0.1723 -0.1131
    1DIPC   C4B20616   7.020   7.298   5.063  0.1749  0.1183  0.2687
    1DIPC   NC320617  29.370   2.562   2.670 -0.1584  0.0140 -0.1950
    1DIPC   PO420618  29.227   2.685   3.069  0.2700  0.1356  0.0574
    1DIPC   GL120619  29.147   2.737   3.492  0.2165  0.2074 -0.2362
    1DIPC   GL220620  29.068   2.437   3.726 -0.3246  0.2502 -0.2599
    1DIPC   C1A20621  29.095   2.928   3.855  0.1813 -0.2749  0.1556
    1DIPC   D2A20622  29.060   3.076   4.309  0.1403 -0.0647  0.0242
    1DIPC   D3A20623  29.088   3.486   3.991  0.2418  0.1984  0.0557
    1DIPC   C4A20624  28.861   3.578   3.768  0.0189 -0.0598 -0.0642
    1DIPC   C1B20625  29.267   2.155   4.043 -0.1010 -0.3012  0.0317
    1DIPC   D2B20626  29.499   1.958   4.378  0.0766 -0.1321 -0.1351
    1DIPC   D3B20627  29.178   1.670   4.611 -0.0918 -0.1543  0.0138
    1DIPC   C4B20628  28.866   1.557   4.325 -0.4320  0.1413  0.0939
    1DIPC   NC320629   2.012   1.624   2.816  0.2380  0.0732  0.1803
    1DIPC   PO420630   1.910   1.213   2.825  0.3127 -0.1840  0.0281
    1DIPC   GL120631   2.167   1.121   3.109  0.1220 -0.0098  0.0155
    1DIPC   GL220632   2.340   0.888   3.371 -0.1211  0.4021  0.2968
    1DIPC   C1A20633   1.959   1.227   3.582  0.2838 -0.3536  0.2636
    1DIPC   D2A20634   1.621   1.273   3.748 -0.0168  0.0827  0.0096
    1DIPC   D3A20635   1.757   1.679   3.835  0.0499 -0.1593 -0.0116
    1DIPC   C4A20636   1.630   2.083   4.079  0.4317 -0.0266  0.1178
    1DIPC   C1B20637   2.333   0.966   3.775 -0.2880 -0.1167 -0.2299
    1DIPC   D2B20638   2.023   1.016   4.121  0.0866 -0.0636  0.0953
    1DIPC   D3B20639   2.398   1.185   4.493  0.0554  0.3991 -0.3369
    1DIPC   C4B20640   2.204   0.837   4.828 -0.0552 -0.1867  0.1519
    1DIPC   NC320641  27.421  17.026   2.453  0.2174 -0.1408  0.3828
    1DIPC   PO420642  27.746  17.337   2.350  0.2251  0.0590  0.0587
    1DIPC   GL120643  27.732  17.223   2.948  0.3851 -0.0360 -0.2825
    1DIPC   GL220644  27.505  17.294   3.187  0.0324 -0.1228 -0.1408
    1DIPC   C1A20645  27.983  17.187   3.270  0.0245  0.3290 -0.2385
    1DIPC   D2A20646  28.194  17.133   3.660  0.2371 -0.0220 -0.0101
    1DIPC   D3A20647  28.004  17.345   3.938  0.1194 -0.4645 -0.0981
    1DIPC   C4A20648  27.596  17.715   3.773  0.1574  0.3186  0.1729
    1DIPC   C1B20649  27.526  17.247   3.731  0.1153 -0.1215 -0.0147
    1DIPC   D2B20650  27.486  17.328   4.133  0.1391 -0.2577 -0.1617
    1DIPC   D3B20651  27.408  17.444   4.530 -0.2336 -0.2647  0.0276
    1DIPC   C4B20652  27.405  17.901   4.682  0.1264 -0.0128  0.1878
    1DIPC   NC320653  15.424   4.847   2.989  0.1312 -0.2078  0.0005
    1DIPC   PO420654  15.432   5.189   3.241  0.0630 -0.1049  0.0235
    1DIPC   GL120655  15.322   5.263   3.598  0.2507 -0.1340  0.0209
    1DIPC   GL220656  15.341   5.043   3.696 -0.2433 -0.0565  0.1222
    1DIPC   C1A20657  15.428   5.447   3.986  0.0987 -0.0870 -0.1290
    1DIPC   D2A20658  15.528   5.488   4.335  0.0023 -0.1956 -0.0673
    1DIPC   D3A20659  15.607   5.864   4.600  0.0372  0.1148 -0.3547
    1DIPC   C4A20660  15.171   6.060   4.702  0.1208  0.2569 -0.0828
    1DIPC   C1B20661  15.289   4.887   4.094 -0.3923 -0.2821 -0.2306
    1DIPC   D2B20662  15.211   4.877   4.578 -0.2129  0.0630  0.0628
    1DIPC   D3B20663  14.815   4.800   4.336 -0.2014 -0.0719  0.4307
    1DIPC   C4B20664  14.936   4.588   3.994 -0.1577  0.3674 -0.2483
    1DIPC   NC320665   7.044  16.119   2.237  0.0630  0.0620 -0.0960
    1DIPC   PO420666   6.803  15.723   2.366 -0.1917  0.1384  0.1873
    1DIPC   GL120667   6.614  15.990   2.660 -0.3405 -0.0344  0.0076
    1DIPC   GL220668   6.982  15.999   2.713 -0.2930 -0.0779 -0.1152
    1DIPC   C1A20669   6.607  16.123   3.068 -0.2720 -0.0808  0.1221
    1DIPC   D2A20670   6.464  16.538   2.969 -0.1529  0.1225  0.0065
    1DIPC   D3A20671   6.041  16.613   3.133  0.0121  0.0196  0.2077
    1DIPC   C4A20672   5.921  16.660   3.553 -0.2413 -0.1516  0.1939
    1DIPC   C1B20673   7.228  15.964   3.044  0.0086  0.0056 -0.0451
    1DIPC   D2B20674   7.637  16.032   3.308  0.1700  0.0261  0.2387
    1DIPC   D3B20675   7.687  16.259   2.974  0.4295  0.1049  0.1577
    1DIPC   C4B20676   7.661  16.768   2.934 -0.6552 -0.1033  0.1128
    1DIPC   NC320677  15.003   4.543   2.862 -0.2237 -0.1570 -0.1195
    1DIPC   PO420678  14.865   4.294   3.365 -0.0064  0.0293  0.0970
    1DIPC   GL120679  14.667   4.201   3.785  0.1540 -0.0737 -0.1251
    1DIPC   GL220680  14.378   4.139   3.937 -0.1712  0.2539  0.2849
    1DIPC   C1A20681  14.729   4.202   4.256 -0.0882 -0.0177  0.0799
    1DIPC   D2A20682  14.551   4.403   4.561 -0.2113  0.0198 -0.1338
    1DIPC   D3A20683  14.922   4.428   4.782  0.2472  0.2128 -0.0750
    1DIPC   C4A20684  15.161   4.030   4.867 -0.0038 -0.0454  0.0978
    1DIPC   C1B20685  14.169   4.354   4.327  0.1102  0.0282 -0.0688
    1DIPC   D2B20686  13.752   4.329   4.463  0.3018  0.0775  0.0209
    1DIPC   D3B20687  13.975   4.338   4.759  0.1842 -0.1618 -0.3459
    1DIPC   C4B20688  14.309   4.022   4.840  0.1478  0.1138 -0.1110
    1DIPC   NC320689   8.767  20.329   2.239  0.1768 -0.1635 -0.1192
    1DIPC   PO420690   8.830  19.987   2.413  0.0886  0.1754 -0.1721
    1DIPC   GL120691   8.801  20.243   2.734  0.0790 -0.2592 -0.0425
    1DIPC   GL220692   9.038  20.345   2.740 -0.1031  0.0224  0.0985
    1DIPC   C1A20693   8.839  20.468   3.238 -0.1780  0.1182  0.1678
    1DIPC   D2A20694   9.183  20.379   3.488 -0.2346  0.0076  0.3760
    1DIPC   D3A20695   9.141  20.189   3.951 -0.0351  0.2370 -0.0726
    1DIPC   C4A20696   9.153  20.675   4.146 -0.0257 -0.1041  0.1268
    1DIPC   C1B20697   8.995  20.024   3.097  0.0678 -0.1991 -0.0364
    1DIPC   D2B20698   9.150  19.854   3.534  0.0609 -0.1903  0.0078
    1DIPC   D3B20699   9.652  19.993   3.590  0.0013 -0.0532  0.3359
    1DIPC   C4B20700   9.945  19.696   3.848  0.3562  0.1801  0.2246
    1DIPC   NC320701  28.559  11.987   2.514  0.5148  0.1468  0.2588
    1DIPC   PO420702  28.890  12.131   2.688 -0.1270 -0.0476  0.2198
    1DIPC   GL120703  28.674  12.255   2.977  0.1948 -0.0999 -0.0359
    1DIPC   GL220704  28.328  12.289   3.038 -0.2125 -0.2373 -0.1149
    1DIPC   C1A20705  28.968  12.545   3.259  0.0932 -0.1066  0.1016
    1DIPC   D2A20706  29.081  12.686   3.673 -0.0053 -0.2173 -0.1422
    1DIPC   D3A20707  29.512  12.716   3.849  0.0713 -0.1848  0.0677
    1DIPC   C4A20708  29.550  12.922   4.210 -0.2062  0.0943  0.1089
    1DIPC   C1B20709  28.474  12.162   3.484  0.1857 -0.3483 -0.1445
    1DIPC   D2B20710  28.687  12.244   3.897 -0.1327 -0.0934  0.1094
    1DIPC   D3B20711  28.543  12.670   3.697  0.1960  0.1152 -0.0552
    1DIPC   C4B20712  28.276  12.742   3.331 -0.0538  0.1956  0.2074
    1DIPC   NC320713  23.568  24.857   2.797  0.2048 -0.3137 -0.2298
    1DIPC   PO420714  24.003  24.844   2.969 -0.0176  0.0680  0.1690
    1DIPC   GL120715  23.985  24.865   3.378 -0.2608 -0.0120 -0.2459
    1DIPC   GL220716  23.660  25.039   3.438 -0.1230  0.2178  0.0259
    1DIPC   C1A20717  24.236  24.892   3.759 -0.0590 -0.0058  0.5084
    1DIPC   D2A20718  24.299  25.115   4.143  0.3761 -0.2569  0.1455
    1DIPC   D3A20719  24.516  24.672   4.186 -0.1276 -0.0983 -0.0105
    1DIPC   C4A20720  24.992  24.521   4.299  0.0814  0.1480 -0.1240
    1DIPC   C1B20721  23.321  25.252   3.658 -0.1882  0.2570 -0.2443
    1DIPC   D2B20722  22.991  25.422   3.890  0.0078  0.0814  0.2263
    1DIPC   D3B20723  22.956  25.233   4.301  0.2150  0.0878  0.0612
    1DIPC   C4B20724  22.939  25.088   4.778  0.1768  0.0060  0.2911
    1DIPC   NC320725   0.906  13.250   2.561 -0.0159 -0.0468  0.3133
    1DIPC   PO420726   0.559  13.536   2.541  0.1102 -0.1808 -0.1292
    1DIPC   GL120727   0.555  13.423   2.906 -0.0515 -0.1304 -0.0833
    1DIPC   GL220728   0.763  13.167   3.020 -0.0057 -0.0009 -0.2989
    1DIPC   C1A20729   0.651  13.641   3.247  0.0920  0.2077  0.0324
    1DIPC   D2A20730   0.740  13.741   3.706  0.0357  0.0709  0.2429
    1DIPC   D3A20731   0.374  13.630   3.659  0.2106  0.0866  0.1790
    1DIPC   C4A20732   0.199  13.520   4.003  0.3014  0.2260 -0.4076
    1DIPC   C1B20733   1.106  13.451   3.213 -0.0470 -0.0648  0.2841
    1DIPC   D2B20734   1.147  13.552   3.591 -0.1160  0.1509 -0.0697
    1DIPC   D3B20735   1.353  13.824   3.882 -0.0883 -0.1730  0.0682
    1DIPC   C4B20736   1.752  13.906   4.077  0.4324 -0.0935 -0.0758
    1DIPC   NC320737  27.770   9.853   2.461  0.0951 -0.3165  0.1798
    1DIPC   PO420738  27.533   9.537   2.585 -0.1603  0.1487  0.0603
    1DIPC   GL120739  27.644   9.619   2.925  0.0857 -0.2742 -0.2811
    1DIPC   GL220740  27.302   9.631   3.054  0.0828  0.0663  0.1851
    1DIPC   C1A20741  27.749   9.667   3.380  0.0773 -0.2652 -0.1217
    1DIPC   D2A20742  28.092   9.626   3.639  0.2304  0.3005 -0.3051
    1DIPC   D3A20743  28.479   9.631   3.516 -0.0473 -0.0576  0.0049
    1DIPC   C4A20744  28.488   9.388   3.204 -0.1438 -0.0851  0.3021
    1DIPC   C1B20745  27.299   9.505   3.486  0.0671 -0.0404 -0.0898
    1DIPC   D2B20746  27.359   9.470   3.922 -0.3078 -0.0679  0.1420
    1DIPC   D3B20747  27.276   9.939   3.794  0.1386 -0.0036 -0.0349
    1DIPC   C4B20748  27.184  10.330   4.084 -0.2071 -0.1973 -0.1520
    1DIPC   NC320749   1.225   9.782   3.078  0.1928  0.0811 -0.0900
    1DIPC   PO420750   1.174  10.149   3.491  0.4868  0.2952 -0.2003
    1DIPC   GL120751   1.422   9.977   3.743  0.1307 -0.4012  0.0613
    1DIPC   GL220752   1.677  10.201   3.757 -0.2706 -0.1247 -0.3257
    1DIPC   C1A20753   1.700   9.578   3.839 -0.1841 -0.2569  0.3363
    1DIPC   D2A20754   1.633   9.339   4.170  0.0678  0.1214  0.1987
    1DIPC   D3A20755   1.632   9.722   4.433  0.2678 -0.1000 -0.2442
    1DIPC   C4A20756   1.302  10.040   4.442  0.3062 -0.1839  0.2684
    1DIPC   C1B20757   1.695  10.186   4.243 -0.2845 -0.1671  0.0649
    1DIPC   D2B20758   1.686  10.080   4.745  0.1299  0.2666  0.2300
    1DIPC   D3B20759   2.003   9.884   5.088  0.0477  0.0409  0.1177
    1DIPC   C4B20760   2.482   9.712   5.280  0.1957  0.1026  0.0044
    1DIPC   NC320761  11.701  28.238   3.139 -0.2651  0.0215 -0.2761
    1DIPC   PO420762  11.828  27.815   3.353 -0.2785 -0.1272 -0.2155
    1DIPC   GL120763  11.895  27.795   3.785  0.0682  0.1710 -0.4434
    1DIPC   GL220764  11.948  27.498   3.926 -0.0050  0.1294  0.2501
    1DIPC   C1A20765  12.191  27.891   4.198  0.1362 -0.1625  0.2666
    1DIPC   D2A20766  12.179  28.239   4.432 -0.3507  0.0405 -0.1847
    1DIPC   D3A20767  11.901  28.504   4.780 -0.2378  0.0626 -0.1794
    1DIPC   C4A20768  11.728  28.328   5.024 -0.3437  0.2942 -0.0367
    1DIPC   C1B20769  11.758  27.626   4.258 -0.1690 -0.3175 -0.2176
    1DIPC   D2B20770  11.652  27.976   4.493 -0.1612 -0.0360  0.1642
    1DIPC   D3B20771  11.699  28.342   4.296  0.2363 -0.2107  0.4314
    1DIPC   C4B20772  11.979  28.383   3.972  0.2534  0.2899 -0.1120
    1DIPC   NC320773   2.125  10.598   3.293 -0.1068 -0.0945  0.1123
    1DIPC   PO420774   2.226  10.239   3.247  0.1511  0.1284  0.2613
    1DIPC   GL120775   2.227  10.315   3.719 -0.4159  0.0991 -0.1276
    1DIPC   GL220776   1.990  10.595   3.766 -0.1133  0.0871 -0.0938
    1DIPC   C1A20777   2.245  10.382   4.195  0.1045 -0.1378  0.0370
    1DIPC   D2A20778   2.393  10.623   4.588 -0.3432 -0.2502  0.3805
    1DIPC   D3A20779   2.489  10.701   5.058  0.2432 -0.0834  0.0745
    1DIPC   C4A20780   2.702  11.100   5.184 -0.2077 -0.1588  0.2008
    1DIPC   C1B20781   1.911  10.785   4.196 -0.0552  0.2358 -0.2057
    1DIPC   D2B20782   1.710  10.619   4.581  0.1047 -0.1887  0.2488
    1DIPC   D3B20783   1.773  10.993   4.829 -0.0700  0.0923 -0.0339
    1DIPC   C4B20784   1.615  11.008   5.343 -0.0462 -0.1026 -0.2806
    1DIPC   NC320785   6.222  25.024   2.685  0.2015 -0.2326 -0.5107
    1DIPC   PO420786   6.095  24.645   2.703  0.1076  0.2675 -0.1054
    1DIPC   GL120787   6.285  24.670   3.115  0.1394  0.0797  0.0045
    1DIPC   GL220788   6.379  25.065   3.181 -0.3178 -0.4467 -0.0447
    1DIPC   C1A20789   6.183  24.338   3.381  0.0104  0.1876  0.1739
    1DIPC   D2A20790   6.066  24.264   3.837 -0.1775 -0.4333  0.0405
    1DIPC   D3A20791   5.623  24.519   4.124  0.1411  0.2539  0.1490
    1DIPC   C4A20792   5.285  24.562   3.894  0.1334  0.2328  0.2060
    1DIPC   C1B20793   5.959  25.174   3.475  0.0378  0.1859 -0.0288
    1DIPC   D2B20794   5.621  25.387   3.673  0.1071 -0.2796 -0.0498
    1DIPC   D3B20795   5.767  25.551   4.088  0.1069  0.4255  0.2542
    1DIPC   C4B20796   6.084  25.825   4.204 -0.2601  0.2885  0.2884
    1DIPC   NC320797  11.624   0.638   2.768 -0.0704  0.1588  0.1801
    1DIPC   PO420798  11.778   0.404   3.253  0.1452  0.2174 -0.2101
    1DIPC   GL120799  11.858   0.074   3.487 -0.0139 -0.0033 -0.2520
    1DIPC   GL220800  12.086  -0.097   3.615  0.1860  0.2186 -0.4717
    1DIPC   C1A20801  11.650   0.045   3.844  0.0786  0.3024  0.4331
    1DIPC   D2A20802  11.186   0.156   3.969 -0.0562 -0.1514  0.1241
    1DIPC   D3A20803  10.822   0.343   3.767 -0.0010 -0.0698 -0.3339
    1DIPC   C4A20804  10.875   0.706   3.708  0.1304 -0.2682 -0.1835
    1DIPC   C1B20805  12.325  -0.039   4.021 -0.1601 -0.1418  0.1096
    1DIPC   D2B20806  12.390  -0.062   4.495 -0.2370 -0.1980 -0.0524
    1DIPC   D3B20807  12.126   0.026   4.811  0.2180 -0.4316  0.2349
    1DIPC   C4B20808  11.715   0.116   4.774  0.2442  0.0108 -0.1036
    1DIPC   NC320809  19.019  21.762   3.036 -0.1367 -0.0762 -0.2021
    1DIPC   PO420810  19.336  22.017   2.761  0.0864  0.0078  0.2589
    1DIPC   GL120811  19.404  22.004   3.191 -0.0284  0.0303  0.0940
    1DIPC   GL220812  19.616  22.059   3.343 -0.0816 -0.0810 -0.2013
    1DIPC   C1A20813  19.289  21.818   3.582  0.0405 -0.1395 -0.1057
    1DIPC   D2A20814  19.032  21.624   3.944 -0.1537 -0.0040  0.2495
    1DIPC   D3A20815  19.088  22.098   3.909 -0.0354  0.4844 -0.1017
    1DIPC   C4A20816  19.190  22.355   3.554 -0.1043  0.2738  0.3447
    1DIPC   C1B20817  19.705  21.660   3.353  0.1384  0.1532 -0.1459
    1DIPC   D2B20818  19.828  21.258   3.082  0.0051  0.1054  0.2790
    1DIPC   D3B20819  19.732  21.070   3.467  0.3656  0.0586 -0.0515
    1DIPC   C4B20820  19.424  20.861   3.681 -0.1611 -0.0344  0.1271
    1DIPC   NC320821  13.190  24.961   2.291 -0.1362  0.0050  0.1715
    1DIPC   PO420822  13.357  24.689   2.619 -0.3003  0.3544 -0.0976
    1DIPC   GL120823  13.638  24.792   2.993  0.1660 -0.1143 -0.2523
    1DIPC   GL220824  13.505  25.085   3.115  0.0432  0.0782 -0.2727
    1DIPC   C1A20825  13.987  24.737   3.334  0.0397 -0.1033 -0.1649
    1DIPC   D2A20826  14.449  24.655   3.485  0.2708  0.1221  0.0397
    1DIPC   D3A20827  14.450  24.289   3.649 -0.1203  0.2091 -0.1032
    1DIPC   C4A20828  14.334  24.230   4.115  0.0798 -0.1042  0.2040
    1DIPC   C1B20829  13.369  25.395   3.303  0.1283 -0.3924  0.1998
    1DIPC   D2B20830  13.078  25.761   3.457 -0.1631  0.2072  0.1682
    1DIPC   D3B20831  12.890  26.090   3.572  0.1365  0.0914  0.2829
    1DIPC   C4B20832  12.648  26.102   3.885 -0.1694 -0.0181  0.1910
    1DIPC   NC320833   2.959   8.924   3.139  0.3131 -0.1863  0.1812
    1DIPC   PO420834   3.276   9.191   2.999 -0.1066  0.0276 -0.1213
    1DIPC   GL120835   3.315   9.224   3.399  0.1554 -0.0578 -0.3488
    1DIPC   GL220836   3.175   9.120   3.658 -0.1659  0.0124 -0.0439
    1DIPC   C1A20837   3.518   9.542   3.664  0.0043 -0.0527  0.0606
    1DIPC   D2A20838   3.794   9.892   3.827  0.1232  0.0330 -0.1688
    1DIPC   D3A20839   3.568  10.096   4.147  0.2260 -0.1846 -0.0510
    1DIPC   C4A20840   3.230   9.884   4.368  0.0569  0.2792 -0.0283
    1DIPC   C1B20841   3.102   8.980   4.110 -0.0740 -0.1107  0.0314
    1DIPC   D2B20842   2.994   8.554   4.155 -0.3763  0.0836 -0.2228
    1DIPC   D3B20843   2.881   8.797   4.540  0.1575  0.0772  0.1992
    1DIPC   C4B20844   2.756   8.707   4.995  0.0970  0.1416 -0.2678
    1DIPC   NC320845  15.232  29.769   3.586  0.0240 -0.1219  0.0603
    1DIPC   PO420846  15.386  29.380   3.653  0.1212  0.0723  0.0610
    1DIPC   GL120847  15.467  29.211   3.950  0.1807  0.1420 -0.0291
    1DIPC   GL220848  15.196  29.188   4.071  0.0571  0.0402  0.1787
    1DIPC   C1A20849  15.401  28.720   4.058  0.1889 -0.2551 -0.0791
    1DIPC   D2A20850  15.696  28.375   4.315  0.0233  0.2851  0.0419
    1DIPC   D3A20851  15.812  28.814   4.465 -0.2948  0.0152  0.0546
    1DIPC   C4A20852  16.075  28.975   4.740 -0.1613  0.3794 -0.4532
    1DIPC   C1B20853  15.024  29.456   4.429  0.0722 -0.1120  0.1009
    1DIPC   D2B20854  14.950  29.489   4.833 -0.5027 -0.0550 -0.2107
    1DIPC   D3B20855  15.352  29.729   5.150 -0.0666 -0.0160  0.0391
    1DIPC   C4B20856  15.501  30.191   5.125  0.0988  0.1340  0.1940
    1DIPC   NC320857   8.612   2.781   3.595  0.3856  0.5035  0.1187
    1DIPC   PO420858   8.342   3.134   3.518  0.3019  0.1504  0.0283
    1DIPC   GL120859   8.364   3.249   3.928  0.0831  0.2187  0.0514
    1DIPC   GL220860   8.046   3.313   4.033  0.0070  0.0401  0.1309
    1DIPC   C1A20861   8.285   2.931   4.254 -0.1773  0.0346 -0.1277
    1DIPC   D2A20862   8.256   3.200   4.564  0.1894 -0.1447 -0.4353
    1DIPC   D3A20863   8.037   3.135   4.976  0.3445  0.0226 -0.0973
    1DIPC   C4A20864   7.810   3.417   5.267 -0.3506  0.3002 -0.1657
    1DIPC   C1B20865   7.749   3.051   4.308 -0.2208 -0.0521  0.0440
    1DIPC   D2B20866   7.860   2.647   4.359 -0.1361 -0.1997 -0.3581
    1DIPC   D3B20867   7.946   2.574   4.863 -0.3341  0.0845 -0.2144
    1DIPC   C4B20868   8.189   2.301   5.071 -0.0332  0.0702  0.1846
    1DIPC   NC320869  23.243  21.008   3.146  0.2134  0.0664 -0.0840
    1DIPC   PO420870  22.850  20.884   3.326 -0.0760  0.0046 -0.0366
    1DIPC   GL120871  22.891  20.814   3.756 -0.0177  0.3052 -0.1729
    1DIPC   GL220872  22.650  20.555   3.828  0.1722 -0.1273 -0.0589
    1DIPC   C1A20873  23.113  20.632   4.023  0.1937  0.0495 -0.0347
    1DIPC   D2A20874  23.278  20.247   4.215 -0.1898  0.1341 -0.0110
    1DIPC   D3A20875  23.257  20.274   3.771  0.0341  0.1361  0.0959
    1DIPC   C4A20876  23.478  19.919   3.483  0.2523  0.3688 -0.1566
    1DIPC   C1B20877  22.681  20.528   4.231  0.2730  0.0418 -0.0016
    1DIPC   D2B20878  22.664  20.393   4.762  0.0595  0.1478 -0.2347
    1DIPC   D3B20879  22.435  19.981   4.898 -0.1240  0.0522  0.3029
    1DIPC   C4B20880  22.550  19.812   5.231 -0.1303 -0.0320 -0.1274
    1DIPC   NC320881   5.112   8.463   3.008 -0.1099  0.1077  0.0939
    1DIPC   PO420882   4.893   8.319   3.353 -0.3287 -0.3149 -0.0285
    1DIPC   GL120883   4.527   8.176   3.453  0.0189 -0.2778  0.2213
    1DIPC   GL220884   4.498   7.879   3.260  0.0319 -0.1318  0.1865
    1DIPC   C1A20885   4.349   8.248   3.850  0.0767 -0.0562  0.3451
    1DIPC   D2A20886   4.161   8.682   3.991  0.0712 -0.4184 -0.3286
    1DIPC   D3A20887   4.405   8.996   4.213 -0.0044  0.0897 -0.0838
    1DIPC   C4A20888   4.170   9.256   4.588  0.2527  0.0992  0.2741
    1DIPC   C1B20889   4.094   7.907   3.550  0.0608 -0.3237 -0.2711
    1DIPC   D2B20890   3.788   7.673   3.662 -0.0195 -0.1170 -0.1672
    1DIPC   D3B20891   3.731   7.953   3.937 -0.0013 -0.3743  0.0797
    1DIPC   C4B20892   3.837   8.357   3.718  0.4446  0.1794  0.0777
    1DIPC   NC320893  23.119   9.113   2.703 -0.0524 -0.0226  0.4108
    1DIPC   PO420894  23.467   9.427   2.728  0.0315  0.2660 -0.2131
    1DIPC   GL120895  23.295   9.283   3.196  0.2731  0.0266  0.0185
    1DIPC   GL220896  23.551   9.077   3.330  0.2194 -0.0667 -0.0914
    1DIPC   C1A20897  23.193   9.515   3.522 -0.1491  0.4220 -0.4544
    1DIPC   D2A20898  23.246   9.779   3.882  0.0231 -0.0345  0.1539
    1DIPC   D3A20899  22.824   9.762   4.161 -0.4717 -0.0614  0.1371
    1DIPC   C4A20900  22.883  10.071   4.556  0.0736 -0.0554 -0.2067
    1DIPC   C1B20901  23.629   9.209   3.828  0.2653  0.0499 -0.0983
    1DIPC   D2B20902  23.440   9.305   4.169  0.1256 -0.1266 -0.1262
    1DIPC   D3B20903  23.762   9.404   4.425 -0.0229 -0.1819  0.1109
    1DIPC   C4B20904  23.722   9.847   4.535  0.4158 -0.0304  0.0455
    1DIPC   NC320905  26.876  21.565   2.775 -0.3729  0.2991 -0.1801
    1DIPC   PO420906  27.314  21.540   2.928 -0.0261 -0.0491  0.1026
    1DIPC   GL120907  27.497  21.539   3.350  0.0804 -0.0869  0.1272
    1DIPC   GL220908  27.477  21.278   3.549  0.0493  0.3071  0.0413
    1DIPC   C1A20909  27.821  21.562   3.626 -0.1373  0.1414  0.0508
    1DIPC   D2A20910  27.964  21.494   4.052 -0.1145  0.3109 -0.0657
    1DIPC   D3A20911  28.335  21.779   4.197  0.1278 -0.0562  0.0350
    1DIPC   C4A20912  28.611  21.582   4.457 -0.0784  0.0870  0.1275
    1DIPC   C1B20913  27.431  21.336   4.011  0.1158  0.1455  0.1784
    1DIPC   D2B20914  27.295  21.316   4.465 -0.0793 -0.1177  0.1338
    1DIPC   D3B20915  27.525  21.687   4.415  0.1235  0.0896  0.1272
    1DIPC   C4B20916  27.864  21.920   4.307  0.0928 -0.1666  0.0835
    1DIPC   NC320917  23.218   5.864   3.034 -0.0391  0.0483  0.2727
    1DIPC   PO420918  23.211   6.322   3.224  0.1061 -0.1186  0.1012
    1DIPC   GL120919  23.464   6.298   3.648 -0.0908 -0.2936 -0.2387
    1DIPC   GL220920  23.518   6.547   3.845 -0.2762  0.2522 -0.1108
    1DIPC   C1A20921  23.396   6.073   4.040 -0.1378 -0.0438 -0.0729
    1DIPC   D2A20922  23.636   5.775   4.268  0.0447 -0.3440 -0.2270
    1DIPC   D3A20923  23.859   5.792   3.871 -0.0694 -0.0474  0.2700
    1DIPC   C4A20924  24.282   5.503   3.925  0.2115 -0.1654  0.3222
    1DIPC   C1B20925  23.521   6.501   4.366 -0.1177 -0.1033 -0.0025
    1DIPC   D2B20926  23.658   6.540   4.792 -0.0882 -0.0993  0.2175
    1DIPC   D3B20927  23.398   6.284   5.098 -0.0310  0.1097 -0.2332
    1DIPC   C4B20928  23.377   5.913   5.143  0.1151  0.0090 -0.1042
    1DIPC   NC320929  23.987  23.919   2.575 -0.1006  0.1234 -0.1309
    1DIPC   PO420930  23.717  23.857   2.906  0.1295 -0.1618 -0.0848
    1DIPC   GL120931  23.646  23.954   3.366 -0.2743 -0.0672 -0.1958
    1DIPC   GL220932  23.357  23.781   3.439  0.2096  0.0569 -0.2812
    1DIPC   C1A20933  23.341  24.243   3.568  0.1440  0.0717  0.1427
    1DIPC   D2A20934  23.366  24.712   3.662 -0.1263 -0.0202 -0.0557
    1DIPC   D3A20935  23.295  24.928   4.021  0.4599  0.4543  0.1458
    1DIPC   C4A20936  23.361  24.829   4.453  0.0116 -0.3288  0.2179
    1DIPC   C1B20937  23.627  24.006   3.901  0.0789 -0.0994 -0.2831
    1DIPC   D2B20938  23.652  24.057   4.364 -0.2608  0.2829 -0.0321
    1DIPC   D3B20939  23.755  23.920   4.756 -0.0727 -0.0905 -0.2551
    1DIPC   C4B20940  24.162  24.086   4.832  0.2958 -0.1090  0.0604
    1DIPC   NC320941  24.916   8.907   3.069  0.0555 -0.0717  0.1353
    1DIPC   PO420942  25.168   8.888   2.724  0.2265 -0.0786  0.1184
    1DIPC   GL120943  25.440   8.852   3.043 -0.3247  0.0724 -0.0345
    1DIPC   GL220944  25.601   9.123   3.148  0.3667 -0.0973 -0.1013
    1DIPC   C1A20945  25.472   8.887   3.573  0.2917  0.0039 -0.2776
    1DIPC   D2A20946  25.396   9.040   3.951  0.0912  0.0497  0.2863
    1DIPC   D3A20947  25.022   8.899   4.205 -0.4224  0.0198  0.2793
    1DIPC   C4A20948  24.950   8.500   4.320  0.0382  0.0420  0.0503
    1DIPC   C1B20949  25.880   9.269   3.445  0.0745  0.3094  0.4839
    1DIPC   D2B20950  26.085   9.380   3.763  0.2269 -0.2527  0.2709
    1DIPC   D3B20951  25.847   9.109   3.938 -0.0013  0.1911 -0.1968
    1DIPC   C4B20952  25.611   9.251   4.361 -0.4658  0.0840 -0.4779
    1DIPC   NC320953   9.111  28.161   3.023 -0.0007  0.1704 -0.2650
    1DIPC   PO420954   9.473  28.049   3.272 -0.1919  0.0279  0.0168
    1DIPC   GL120955   9.681  27.989   3.595 -0.0271 -0.2257  0.0814
    1DIPC   GL220956   9.730  28.238   3.696  0.2766  0.0315 -0.2140
    1DIPC   C1A20957   9.882  27.893   4.027  0.1426  0.0032  0.1117
    1DIPC   D2A20958   9.854  28.011   4.473 -0.0175  0.1058 -0.0108
    1DIPC   D3A20959   9.481  27.968   4.585  0.1728 -0.1905 -0.1128
    1DIPC   C4A20960   9.426  27.516   4.711  0.0287  0.3992 -0.1973
    1DIPC   C1B20961   9.560  28.690   3.840 -0.2646 -0.2659 -0.0073
    1DIPC   D2B20962   9.226  28.842   4.017  0.1779  0.1707 -0.2532
    1DIPC   D3B20963   8.962  28.659   3.776  0.1836 -0.0264 -0.1051
    1DIPC   C4B20964   8.641  28.747   3.883  0.1715  0.0027 -0.1745
    1DIPC   NC320965  27.945  26.628   2.731 -0.0888  0.2717  0.0985
    1DIPC   PO420966  27.777  26.261   2.812  0.1677  0.0707  0.3456
    1DIPC   GL120967  28.019  26.214   3.207  0.0691 -0.0590 -0.0175
    1DIPC   GL220968  28.149  25.941   3.228  0.2681  0.1431 -0.0086
    1DIPC   C1A20969  28.044  26.322   3.624  0.3186  0.1462 -0.2793
    1DIPC   D2A20970  28.151  26.252   4.032 -0.2430  0.1719 -0.0967
    1DIPC   D3A20971  28.491  26.247   3.785 -0.1043  0.0041 -0.2208
    1DIPC   C4A20972  28.490  26.335   3.390 -0.0848  0.1630  0.0964
    1DIPC   C1B20973  28.224  25.837   3.700  0.1746  0.1280 -0.0059
    1DIPC   D2B20974  28.436  25.829   4.035 -0.2166  0.0915 -0.1056
    1DIPC   D3B20975  28.463  26.061   4.330  0.2490 -0.1059 -0.0617
    1DIPC   C4B20976  28.573  26.495   4.211  0.1259  0.2986 -0.0649
    1DIPC   NC320977   9.452  26.541   1.816 -0.0368  0.0620 -0.0671
    1DIPC   PO420978   9.388  26.753   2.295 -0.0893  0.0495 -0.0668
    1DIPC   GL120979   9.262  26.810   2.741  0.1387  0.1079  0.0379
    1DIPC   GL220980   9.044  26.550   2.773  0.3248  0.2755  0.2104
    1DIPC   C1A20981   9.388  26.768   3.194  0.1670  0.1501 -0.1102
    1DIPC   D2A20982   9.694  26.389   3.346 -0.0383  0.2150  0.3426
    1DIPC   D3A20983   9.420  26.258   3.649 -0.1466 -0.2044  0.0151
    1DIPC   C4A20984   9.475  25.994   4.018 -0.3366 -0.2145 -0.1616
    1DIPC   C1B20985   9.233  26.336   3.044  0.2995 -0.0604 -0.1477
    1DIPC   D2B20986   9.390  25.925   3.221  0.1354 -0.3038 -0.1846
    1DIPC   D3B20987   9.733  25.889   3.487 -0.0510 -0.0184  0.2455
    1DIPC   C4B20988  10.165  26.129   3.326  0.1734  0.1266  0.1276
    1DIPC   NC320989   1.674  17.018   2.508 -0.1741 -0.0057 -0.0159
    1DIPC   PO420990   1.998  17.166   2.365 -0.3986 -0.0238 -0.1066
    1DIPC   GL120991   1.978  17.061   2.887  0.0126  0.1935 -0.0952
    1DIPC   GL220992   2.008  16.729   3.071  0.0488 -0.0875  0.0331
    1DIPC   C1A20993   2.220  17.235   3.268  0.0387  0.1314  0.0291
    1DIPC   D2A20994   2.330  17.390   3.618 -0.1998  0.1670 -0.2579
    1DIPC   D3A20995   1.906  17.511   3.598  0.1912  0.1356 -0.1407
    1DIPC   C4A20996   1.613  17.314   3.798 -0.1910  0.2622 -0.0433
    1DIPC   C1B20997   2.030  16.429   3.379 -0.3981  0.3337  0.1818
    1DIPC   D2B20998   1.834  16.277   3.823 -0.4430  0.0599 -0.1455
    1DIPC   D3B20999   2.245  16.398   4.027 -0.0430  0.0642  0.1186
    1DIPC   C4B21000   2.709  16.387   3.915  0.0685  0.0546  0.0712
    1DIPC   NC321001  24.485   7.862   3.179  0.0394  0.4434  0.2010
    1DIPC   PO421002  24.628   7.493   3.108 -0.3766 -0.0695  0.1934
    1DIPC   GL121003  24.968   7.629   3.445 -0.1018  0.0271  0.2285
    1DIPC   GL221004  24.984   7.942   3.424  0.1540 -0.0341 -0.2320
    1DIPC   C1A21005  24.773   7.702   3.867 -0.1574  0.3360  0.3063
    1DIPC   D2A21006  24.526   7.578   4.265  0.1838  0.1720  0.1273
    1DIPC   D3A21007  24.398   7.742   4.722  0.1131 -0.1106 -0.1013
    1DIPC   C4A21008  24.025   7.826   4.860 -0.2504  0.2635  0.1202
    1DIPC   C1B21009  24.741   8.177   3.739 -0.0506 -0.1007 -0.0719
    1DIPC   D2B21010  24.622   8.227   4.072  0.2804 -0.0120  0.2017
    1DIPC   D3B21011  24.876   8.038   4.321  0.1734  0.1575 -0.0047
    1DIPC   C4B21012  25.161   8.180   4.611 -0.1349  0.0967 -0.1080
    1DIPC   NC321013  24.872  29.276   3.269 -0.2514  0.1322 -0.1469
    1DIPC   PO421014  24.552  28.904   3.377  0.0129 -0.0675  0.1230
    1DIPC   GL121015  24.800  28.817   3.744  0.1670 -0.1318  0.1371
    1DIPC   GL221016  25.103  29.056   3.696 -0.0183  0.0897  0.2689
    1DIPC   C1A21017  24.910  28.658   4.101  0.0079  0.1455 -0.2363
    1DIPC   D2A21018  24.969  28.547   4.514  0.1124  0.0170  0.3345
    1DIPC   D3A21019  25.290  28.873   4.449 -0.0963 -0.0830 -0.2905
    1DIPC   C4A21020  25.320  29.352   4.401 -0.2765 -0.2043 -0.1025
    1DIPC   C1B21021  24.988  29.153   4.081  0.1370 -0.1475 -0.0489
    1DIPC   D2B21022  24.826  29.076   4.536  0.1744 -0.0148 -0.0741
    1DIPC   D3B21023  25.160  29.174   4.930  0.2986  0.4724  0.0069
    1DIPC   C4B21024  25.477  29.121   4.898  0.0237  0.0111  0.2278
    1DIPC   NC321025   9.266  20.924   2.228  0.1496  0.0759 -0.0622
    1DIPC   PO421026   8.961  20.789   2.516 -0.1995 -0.2436  0.2571
    1DIPC   GL121027   8.774  20.815   2.885 -0.0854 -0.1456  0.2422
    1DIPC   GL221028   8.478  20.759   2.900  0.0046  0.1505  0.4496
    1DIPC   C1A21029   8.737  20.912   3.317 -0.0824  0.0011  0.1692
    1DIPC   D2A21030   8.679  21.304   3.573  0.0630  0.1908 -0.1821
    1DIPC   D3A21031   8.663  21.305   3.972 -0.2566  0.2358 -0.0717
    1DIPC   C4A21032   8.922  21.620   4.141 -0.0187 -0.2097  0.0853
    1DIPC   C1B21033   8.226  20.848   3.321 -0.0864  0.0485  0.0405
    1DIPC   D2B21034   8.300  20.993   3.678 -0.1875 -0.3658  0.2622
    1DIPC   D3B21035   8.670  20.773   3.864 -0.2417  0.1048 -0.1461
    1DIPC   C4B21036   8.699  20.483   4.199 -0.1181  0.4238  0.0687
    1DIPC   NC321037   4.073  19.499   1.877  0.4360 -0.3754 -0.0849
    1DIPC   PO421038   4.346  19.815   2.109 -0.1336 -0.0759 -0.0832
    1DIPC   GL121039   4.361  19.554   2.382 -0.0946 -0.3043  0.1664
    1DIPC   GL221040   4.526  19.586   2.639 -0.1889 -0.1159  0.1299
    1DIPC   C1A21041   4.403  19.155   2.832  0.1220 -0.3297 -0.1763
    1DIPC   D2A21042   4.449  18.708   2.958 -0.1020 -0.2086  0.1777
    1DIPC   D3A21043   4.202  18.634   3.312  0.0564  0.0662 -0.1172
    1DIPC   C4A21044   4.329  18.249   3.563 -0.0158  0.1113  0.1821
    1DIPC   C1B21045   4.789  19.927   2.892 -0.1151 -0.0919  0.1621
    1DIPC   D2B21046   5.055  20.239   2.991  0.2204 -0.0044 -0.1868
    1DIPC   D3B21047   5.028  20.501   3.286 -0.0544 -0.0300 -0.1389
    1DIPC   C4B21048   5.306  20.568   3.657  0.0499  0.1685 -0.1433
    1DIPC   NC321049   3.209  12.421   2.290 -0.0679 -0.0888 -0.0543
    1DIPC   PO421050   3.051  12.204   2.755  0.1633 -0.0150  0.0180
    1DIPC   GL121051   2.953  12.345   3.156  0.1137 -0.1970 -0.1605
    1DIPC   GL221052   2.668  12.297   3.238 -0.0041  0.0394  0.1061
    1DIPC   C1A21053   3.158  12.417   3.635 -0.0231 -0.0874  0.2892
    1DIPC   D2A21054   3.307  12.135   3.988 -0.1202 -0.0037  0.0106
    1DIPC   D3A21055   3.336  12.457   4.258  0.2056 -0.2650 -0.0530
    1DIPC   C4A21056   3.494  12.779   4.008  0.1955  0.1656  0.2133
    1DIPC   C1B21057   2.416  12.413   3.607  0.1817  0.3041  0.1547
    1DIPC   D2B21058   2.098  12.548   3.574 -0.1376  0.1728 -0.0068
    1DIPC   D3B21059   2.418  12.962   3.743  0.0604 -0.1240  0.0060
    1DIPC   C4B21060   2.271  13.349   4.011 -0.0319 -0.1106  0.0214
    1DIPC   NC321061   2.073  11.397   2.926 -0.0096 -0.1009 -0.1537
    1DIPC   PO421062   2.087  11.828   2.686 -0.0391  0.0918 -0.1403
    1DIPC   GL121063   1.993  11.931   3.043 -0.1836  0.1311 -0.2340
    1DIPC   GL221064   1.788  11.793   3.180  0.0177  0.1753  0.0285
    1DIPC   C1A21065   2.164  12.021   3.437  0.0340 -0.1256  0.3786
    1DIPC   D2A21066   2.050  12.188   3.905  0.1410  0.0043  0.0851
    1DIPC   D3A21067   2.420  12.034   3.991  0.3767  0.1252 -0.1272
    1DIPC   C4A21068   2.396  12.229   4.329  0.1030 -0.0465 -0.3106
    1DIPC   C1B21069   1.725  11.846   3.700  0.1287 -0.0387  0.0436
    1DIPC   D2B21070   1.535  12.012   4.103  0.0658  0.0230  0.1474
    1DIPC   D3B21071   1.863  12.316   4.322  0.1018  0.0182  0.1048
    1DIPC   C4B21072   2.029  12.667   4.037 -0.3098 -0.2714 -0.0373
    1DIPC   NC321073  23.673   1.915   3.239  0.2753 -0.5861  0.3121
    1DIPC   PO421074  23.739   2.315   3.141  0.0837  0.0007  0.0672
    1DIPC   GL121075  23.875   2.212   3.556 -0.2107  0.1946 -0.0952
    1DIPC   GL221076  24.008   1.999   3.610 -0.0336 -0.0748 -0.3376
    1DIPC   C1A21077  23.849   2.160   4.043 -0.0779  0.2647  0.0954
    1DIPC   D2A21078  23.891   1.972   4.457  0.2468  0.2225  0.0098
    1DIPC   D3A21079  23.642   1.963   4.771 -0.1608  0.0791 -0.0898
    1DIPC   C4A21080  23.636   1.726   5.128  0.0137 -0.1688 -0.1650
    1DIPC   C1B21081  23.846   1.685   3.915 -0.0556 -0.0334 -0.0029
    1DIPC   D2B21082  23.390   1.366   3.928  0.0790 -0.0579 -0.0421
    1DIPC   D3B21083  23.501   1.117   4.264 -0.0329  0.3459  0.0952
    1DIPC   C4B21084  23.702   0.834   3.987 -0.0037 -0.1817  0.0828
    1DIPC   NC321085   7.080  12.774   2.405  0.2368 -0.4356 -0.0784
    1DIPC   PO421086   6.979  13.264   2.531 -0.1321  0.0989 -0.0791
    1DIPC   GL121087   6.974  13.258   3.030  0.0796  0.1155  0.3846
    1DIPC   GL221088   7.067  12.993   3.242 -0.1676  0.0955  0.2567
    1DIPC   C1A21089   6.504  13.059   3.227 -0.0321  0.3954  0.0748
    1DIPC   D2A21090   6.298  12.830   3.453  0.2247 -0.1770 -0.1303
    1DIPC   D3A21091   5.846  12.747   3.258  0.1677 -0.3433  0.0110
    1DIPC   C4A21092   5.534  13.036   3.285  0.0640  0.2023 -0.0099
    1DIPC   C1B21093   6.948  13.361   3.499  0.0406 -0.3433 -0.2490
    1DIPC   D2B21094   6.583  13.210   3.752 -0.2302  0.1014 -0.0361
    1DIPC   D3B21095   6.706  13.521   4.011  0.0738  0.0428  0.0170
    1DIPC   C4B21096   6.645  13.646   4.419  0.3279  0.2859  0.1091
    1DIPC   NC321097   2.393  22.108   2.247 -0.0979  0.0998 -0.0817
    1DIPC   PO421098   2.632  22.474   2.213 -0.2420  0.0867  0.1771
    1DIPC   GL121099   3.049  22.432   2.306  0.0269 -0.0722 -0.0780
    1DIPC   GL221100   3.202  22.693   2.497 -0.0099  0.3432  0.1509
    1DIPC   C1A21101   3.206  22.213   2.697  0.1809  0.1427  0.2819
    1DIPC   D2A21102   2.975  22.425   3.080 -0.0134  0.0190  0.1061
    1DIPC   D3A21103   3.256  22.366   3.338 -0.0206  0.0784  0.0525
    1DIPC   C4A21104   3.434  22.002   3.355 -0.1057 -0.1537 -0.0107
    1DIPC   C1B21105   3.253  22.787   2.898 -0.1705  0.0309 -0.0709
    1DIPC   D2B21106   3.282  22.937   3.231  0.1454  0.2088 -0.1181
    1DIPC   D3B21107   3.599  22.702   3.281  0.2318 -0.1266 -0.1080
    1DIPC   C4B21108   3.956  22.786   3.426  0.0364 -0.0830 -0.2813
    1DIPC   NC321109  29.820  24.397   2.657  0.1400 -0.0085  0.0758
    1DIPC   PO421110  30.282  24.428   2.454 -0.0784 -0.1167  0.0520
    1DIPC   GL121111  30.291  24.586   2.813 -0.1459 -0.0505 -0.0507
    1DIPC   GL221112  30.414  24.516   3.177  0.0430 -0.4289  0.1855
    1DIPC   C1A21113  30.474  25.040   3.114  0.0048 -0.1091  0.2717
    1DIPC   D2A21114  30.628  25.444   3.174  0.1512 -0.2769  0.2709
    1DIPC   D3A21115  30.271  25.747   2.872  0.0155 -0.1321  0.2796
    1DIPC   C4A21116  30.163  26.119   3.156 -0.2841 -0.2524  0.0395
    1DIPC   C1B21117  30.333  24.285   3.502 -0.1809 -0.1628  0.0841
    1DIPC   D2B21118  30.540  24.075   3.841  0.0594  0.1089  0.0198
    1DIPC   D3B21119  30.126  24.079   3.975  0.0601  0.0846  0.7282
    1DIPC   C4B21120  29.958  24.389   3.808  0.1547  0.0898  0.1360
    1DIPC   NC321121  23.776  11.503   2.253 -0.0087 -0.0203  0.0025
    1DIPC   PO421122  24.057  11.819   2.264  0.0208  0.2183  0.1105
    1DIPC   GL121123  24.225  11.921   2.632 -0.1301  0.1080  0.1954
    1DIPC   GL221124  24.562  12.063   2.696  0.1214  0.0305  0.1059
    1DIPC   C1A21125  24.384  11.914   3.137  0.1111  0.1079 -0.0058
    1DIPC   D2A21126  24.520  11.859   3.512  0.0430  0.0491  0.1025
    1DIPC   D3A21127  24.455  11.893   3.955  0.0367 -0.0460  0.0100
    1DIPC   C4A21128  24.995  11.856   4.072  0.0783 -0.1445  0.1652
    1DIPC   C1B21129  24.814  12.197   3.088 -0.4167  0.1756  0.1073
    1DIPC   D2B21130  25.074  12.584   3.170 -0.0995 -0.1090  0.0915
    1DIPC   D3B21131  25.057  12.667   3.605  0.0290  0.1607  0.2942
    1DIPC   C4B21132  24.896  12.716   4.149  0.0376  0.0372  0.1648
    1DIPC   NC321133   8.152   0.203   3.337 -0.1076  0.1169 -0.0467
    1DIPC   PO421134   7.974   0.579   3.280 -0.0379  0.2272 -0.2022
    1DIPC   GL121135   8.044   0.506   3.744 -0.1366  0.0006 -0.1201
    1DIPC   GL221136   7.783   0.665   3.859  0.2492  0.0747  0.0165
    1DIPC   C1A21137   7.922   0.229   4.145 -0.0957 -0.2069 -0.1236
    1DIPC   D2A21138   7.839   0.388   4.556  0.1614  0.3168  0.1426
    1DIPC   D3A21139   8.156   0.361   4.772 -0.0214 -0.3353 -0.0114
    1DIPC   C4A21140   8.046  -0.043   4.982 -0.0654  0.2053  0.0789
    1DIPC   C1B21141   7.529   0.678   4.204  0.1901  0.1029 -0.1461
    1DIPC   D2B21142   7.514   0.780   4.643  0.0696  0.2711  0.1757
    1DIPC   D3B21143   7.975   0.883   4.694  0.0241 -0.1523 -0.1656
    1DIPC   C4B21144   8.061   1.399   4.529 -0.2306  0.2735  0.1847
    1DIPC   NC321145  20.933   6.454   2.828 -0.1368  0.1806  0.0489
    1DIPC   PO421146  20.588   6.292   2.955  0.0526 -0.0721  0.2911
    1DIPC   GL121147  20.761   6.231   3.316  0.0206  0.0357  0.2297
    1DIPC   GL221148  20.699   6.446   3.421 -0.1678  0.1950  0.2375
    1DIPC   C1A21149  20.828   6.280   3.848 -0.2090 -0.0134  0.4669
    1DIPC   D2A21150  20.586   6.418   4.123 -0.1008  0.3263 -0.1420
    1DIPC   D3A21151  20.365   6.662   4.280  0.0908 -0.0315  0.0599
    1DIPC   C4A21152  20.437   7.152   4.469  0.0990 -0.0521  0.2463
    1DIPC   C1B21153  20.485   6.811   3.637  0.2244  0.0954 -0.2159
    1DIPC   D2B21154  20.584   7.262   3.727  0.0249  0.2396 -0.1176
    1DIPC   D3B21155  20.271   7.121   3.997 -0.1222  0.0870  0.2257
    1DIPC   C4B21156  19.874   7.271   3.778  0.0590 -0.2002  0.0690
    1DIPC   NC321157   7.039  26.770   2.946  0.1656 -0.0521  0.2761
    1DIPC   PO421158   7.428  27.036   3.012  0.2171  0.1863 -0.3301
    1DIPC   GL121159   7.579  26.782   3.227 -0.1710 -0.1746 -0.1499
    1DIPC   GL221160   7.251  26.594   3.355 -0.1086  0.3405  0.1067
    1DIPC   C1A21161   7.701  26.569   3.518  0.0055 -0.1627 -0.1988
    1DIPC   D2A21162   7.847  26.311   3.917 -0.0467 -0.0906  0.3712
    1DIPC   D3A21163   7.583  26.635   4.007 -0.1380  0.0443  0.3119
    1DIPC   C4A21164   7.570  26.964   4.180 -0.1384  0.1018 -0.1688
    1DIPC   C1B21165   7.136  26.503   3.789  0.0111  0.1207 -0.1672
    1DIPC   D2B21166   6.959  26.979   3.905 -0.1861 -0.2457 -0.0699
    1DIPC   D3B21167   7.018  27.088   4.316 -0.2731 -0.0300  0.1210
    1DIPC   C4B21168   7.271  26.862   4.651 -0.2812 -0.0229 -0.0578
    1DIPC   NC321169   2.172   9.683   3.290 -0.1389 -0.0028 -0.0616
    1DIPC   PO421170   2.083   9.299   3.394 -0.2229  0.0196  0.1736
    1DIPC   GL121171   2.137   9.077   3.871 -0.0430 -0.0741  0.0835
    1DIPC   GL221172   2.099   9.304   4.107  0.1051  0.3480  0.0263
    1DIPC   C1A21173   2.053   8.851   4.245  0.0021  0.2718 -0.0914
    1DIPC   D2A21174   1.957   8.545   4.560 -0.1246 -0.3046 -0.1276
    1DIPC   D3A21175   1.951   8.207   4.741 -0.1812  0.0905 -0.0271
    1DIPC   C4A21176   1.811   8.315   5.210  0.1302  0.3048  0.3964
    1DIPC   C1B21177   1.978   9.360   4.507  0.2507  0.0832  0.0754
    1DIPC   D2B21178   1.896   9.415   5.008  0.0100  0.1028  0.0094
    1DIPC   D3B21179   2.296   9.428   4.900  0.0884 -0.1398  0.1147
    1DIPC   C4B21180   2.434   9.053   4.627  0.0193  0.1044  0.0685
    1DIPC   NC321181   7.681  23.979   2.100 -0.3143  0.1885  0.0966
    1DIPC   PO421182   8.014  23.883   2.452 -0.1206  0.1331 -0.0308
    1DIPC   GL121183   7.737  24.028   2.705  0.1112 -0.4830  0.2006
    1DIPC   GL221184   7.599  24.404   2.712 -0.0605  0.0286 -0.4742
    1DIPC   C1A21185   7.707  24.228   3.148 -0.2284  0.1418  0.3732
    1DIPC   D2A21186   7.895  24.101   3.553  0.1256 -0.3189  0.1320
    1DIPC   D3A21187   7.880  23.693   3.673  0.2157  0.1468  0.0520
    1DIPC   C4A21188   8.205  23.493   3.923 -0.2152  0.0912  0.0310
    1DIPC   C1B21189   7.422  24.594   3.158  0.0116  0.0609  0.0976
    1DIPC   D2B21190   7.295  24.686   3.574  0.1371 -0.2197 -0.0493
    1DIPC   D3B21191   7.734  24.657   3.581 -0.3477  0.2230 -0.0682
    1DIPC   C4B21192   7.930  24.690   3.147 -0.2448  0.2274  0.0289
    1DIPC   NC321193   5.298  13.390   2.789 -0.0832  0.2474 -0.1717
    1DIPC   PO421194   5.493  13.799   2.668 -0.0355  0.2906 -0.2305
    1DIPC   GL121195   5.122  13.820   2.861 -0.0780 -0.3285  0.0943
    1DIPC   GL221196   5.160  13.990   3.064 -0.0386 -0.0529  0.0048
    1DIPC   C1A21197   4.689  14.122   3.041  0.0351  0.0384 -0.1722
    1DIPC   D2A21198   4.503  14.174   3.547 -0.0309  0.0166 -0.1157
    1DIPC   D3A21199   4.201  14.431   3.295 -0.0071  0.4949  0.1426
    1DIPC   C4A21200   3.806  14.352   2.995  0.0130 -0.2013 -0.0465
    1DIPC   C1B21201   4.870  13.833   3.417  0.0308  0.0463  0.0131
    1DIPC   D2B21202   4.843  13.926   3.818 -0.1469 -0.0945  0.0942
    1DIPC   D3B21203   4.826  13.714   4.265 -0.1069 -0.0244  0.3232
    1DIPC   C4B21204   4.808  14.127   4.576 -0.0754 -0.0690 -0.1784
    1DIPC   NC321205  19.079  29.233   3.278 -0.1859 -0.2465  0.0430
    1DIPC   PO421206  18.651  29.343   3.267  0.1307 -0.0030 -0.2153
    1DIPC   GL121207  18.448  29.505   3.757  0.0227  0.1116 -0.0727
    1DIPC   GL221208  18.224  29.515   3.916 -0.0703  0.0360  0.0541
    1DIPC   C1A21209  18.765  29.641   4.063  0.0444 -0.0588  0.1038
    1DIPC   D2A21210  18.853  29.502   4.432 -0.2048 -0.3611  0.2547
    1DIPC   D3A21211  19.165  29.784   4.593  0.0256 -0.1190  0.2588
    1DIPC   C4A21212  18.972  30.179   4.688 -0.0937  0.1101 -0.0308
    1DIPC   C1B21213  18.371  29.648   4.384 -0.0877 -0.1417 -0.0613
    1DIPC   D2B21214  18.565  29.740   4.755 -0.0881 -0.3476  0.0080
    1DIPC   D3B21215  18.787  29.541   5.082  0.3588 -0.1886  0.1706
    1DIPC   C4B21216  19.200  29.540   5.167 -0.2118 -0.0261 -0.0816
    1DIPC   NC321217  14.458  24.889   2.523 -0.1256  0.3890  0.2809
    1DIPC   PO421218  14.410  24.475   2.547  0.0666 -0.0711 -0.0665
    1DIPC   GL121219  13.966  24.387   2.841 -0.0616 -0.4599  0.0567
    1DIPC   GL221220  13.670  24.253   2.807 -0.2519  0.0834  0.1222
    1DIPC   C1A21221  14.029  24.231   3.248 -0.0909  0.0237 -0.0919
    1DIPC   D2A21222  13.882  23.990   3.637  0.0561 -0.0125  0.4690
    1DIPC   D3A21223  13.872  23.613   3.846 -0.0108  0.0325  0.0378
    1DIPC   C4A21224  13.865  23.445   4.252  0.3213  0.2179  0.0952
    1DIPC   C1B21225  13.519  24.254   3.293  0.0924  0.0962  0.1404
    1DIPC   D2B21226  13.263  24.372   3.728  0.2051 -0.2884  0.0055
    1DIPC   D3B21227  12.820  24.318   3.951 -0.2663  0.4836 -0.1642
    1DIPC   C4B21228  12.486  24.554   3.885  0.0320  0.1645 -0.0401
    1DIPC   NC321229  10.756   3.538   3.513  0.1636 -0.0827 -0.1293
    1DIPC   PO421230  10.451   3.358   3.805  0.3597 -0.2399 -0.1643
    1DIPC   GL121231  10.149   3.294   4.219 -0.0224 -0.2320 -0.0286
    1DIPC   GL221232  10.479   3.419   4.347  0.1077  0.2110  0.1997
    1DIPC   C1A21233  10.103   3.516   4.616  0.2789 -0.0281  0.1427
    1DIPC   D2A21234  10.203   3.550   5.064  0.0060  0.1912 -0.0778
    1DIPC   D3A21235  10.091   3.080   5.181 -0.0194  0.0360  0.1343
    1DIPC   C4A21236  10.489   2.952   5.211  0.1777  0.2440  0.1178
    1DIPC   C1B21237  10.457   3.866   4.432  0.1091  0.0439 -0.0802
    1DIPC   D2B21238  10.483   3.949   4.913  0.2452  0.0633 -0.0118
    1DIPC   D3B21239  10.649   3.641   4.949  0.1364  0.1533  0.0593
    1DIPC   C4B21240  10.503   3.216   4.777 -0.2427  0.1551  0.1239
    1DIPC   NC321241   8.115  15.790   1.925 -0.0051  0.1881 -0.1042
    1DIPC   PO421242   8.165  15.450   2.005 -0.1040 -0.1445 -0.1447
    1DIPC   GL121243   8.350  15.692   2.378 -0.1312 -0.2133 -0.0185
    1DIPC   GL221244   8.107  15.973   2.610  0.0219 -0.0337  0.1202
    1DIPC   C1A21245   8.674  15.628   2.587 -0.0342  0.2206 -0.0824
    1DIPC   D2A21246   8.915  15.611   2.908 -0.1445 -0.0925  0.0565
    1DIPC   D3A21247   8.532  15.628   3.052  0.1440  0.0836  0.3793
    1DIPC   C4A21248   8.265  15.383   3.294  0.0417  0.1294 -0.3073
    1DIPC   C1B21249   8.098  15.857   3.071  0.3034 -0.1412 -0.0992
    1DIPC   D2B21250   8.267  15.850   3.405 -0.1020 -0.0428 -0.0315
    1DIPC   D3B21251   8.073  15.841   3.747 -0.1034 -0.0746  0.0267
    1DIPC   C4B21252   7.726  15.689   3.845  0.3392  0.1596  0.1398
    1DIPC   NC321253   1.834  22.649   2.808  0.1361  0.0435 -0.2377
    1DIPC   PO421254   2.235  22.373   2.726  0.0511 -0.0033  0.0056
    1DIPC   GL121255   2.438  22.470   3.125  0.0636  0.0805 -0.2076
    1DIPC   GL221256   2.054  22.362   3.231 -0.0379 -0.1010 -0.0639
    1DIPC   C1A21257   2.301  22.803   3.369 -0.2010 -0.4262 -0.0312
    1DIPC   D2A21258   2.303  22.852   3.866  0.2136 -0.1337  0.1818
    1DIPC   D3A21259   2.592  22.540   4.013 -0.1642  0.1096 -0.0841
    1DIPC   C4A21260   3.028  22.482   3.911 -0.0374 -0.0795  0.1195
    1DIPC   C1B21261   1.789  22.302   3.643 -0.0349 -0.0584 -0.4681
    1DIPC   D2B21262   1.445  22.185   3.945  0.0807 -0.0111  0.0318
    1DIPC   D3B21263   1.055  22.019   4.101 -0.5108 -0.0905 -0.0471
    1DIPC   C4B21264   0.978  21.540   4.211 -0.0977 -0.1179  0.0990
    1DIPC   NC321265   5.155  17.344   2.367 -0.2779  0.3270  0.2200
    1DIPC   PO421266   5.575  17.530   2.179  0.2269 -0.1564 -0.0078
    1DIPC   GL121267   5.475  17.661   2.609 -0.2204  0.0051 -0.0392
    1DIPC   GL221268   5.723  17.796   2.799  0.0842  0.0629  0.2073
    1DIPC   C1A21269   5.151  17.887   2.907 -0.0044 -0.2107  0.2527
    1DIPC   D2A21270   5.142  18.242   3.213  0.0747 -0.0156 -0.1454
    1DIPC   D3A21271   4.936  18.165   3.560  0.1615  0.0502  0.2175
    1DIPC   C4A21272   5.016  18.102   3.974 -0.3709  0.1412 -0.2279
    1DIPC   C1B21273   5.856  17.799   3.239  0.0559 -0.1199  0.1511
    1DIPC   D2B21274   6.064  17.601   3.622  0.0248  0.0659  0.0237
    1DIPC   D3B21275   5.674  17.596   3.732  0.0601  0.0751  0.0417
    1DIPC   C4B21276   5.449  17.946   3.858  0.1721 -0.0914  0.0342
    1DIPC   NC321277   6.015  25.790   2.660 -0.4698 -0.0243 -0.2644
    1DIPC   PO421278   5.706  26.104   2.534 -0.2276  0.2068  0.1238
    1DIPC   GL121279   5.562  25.878   2.880 -0.0949  0.3824 -0.4357
    1DIPC   GL221280   5.334  26.011   2.923  0.1696 -0.2618  0.2171
    1DIPC   C1A21281   5.617  25.773   3.312  0.0249 -0.2427 -0.0256
    1DIPC   D2A21282   5.604  25.929   3.720  0.0551 -0.1870 -0.0054
    1DIPC   D3A21283   5.612  26.017   4.226  0.1174  0.1600 -0.0979
    1DIPC   C4A21284   5.519  25.775   4.564 -0.2112  0.1507  0.0234
    1DIPC   C1B21285   5.188  26.023   3.266 -0.1007 -0.0936 -0.1505
    1DIPC   D2B21286   5.137  25.776   3.656  0.2126  0.2891 -0.0860
    1DIPC   D3B21287   4.843  26.049   3.631 -0.0374 -0.0581 -0.0730
    1DIPC   C4B21288   4.795  26.506   3.915  0.1335  0.1330  0.0326
    1DIPC   NC321289   6.646   6.993   3.652 -0.3271 -0.3246 -0.0090
    1DIPC   PO421290   6.218   7.300   3.546  0.2117  0.0021 -0.0569
    1DIPC   GL121291   6.364   7.211   3.995  0.1364  0.0922  0.1444
    1DIPC   GL221292   6.558   7.409   4.094 -0.1257  0.1267 -0.1842
    1DIPC   C1A21293   6.235   7.159   4.397 -0.2403  0.1549 -0.1089
    1DIPC   D2A21294   6.308   6.971   4.809  0.1334  0.2285 -0.0779
    1DIPC   D3A21295   6.177   7.446   4.952  0.0140  0.0313 -0.2964
    1DIPC   C4A21296   6.017   7.500   5.312  0.1262  0.0541 -0.1357
    1DIPC   C1B21297   6.997   7.361   4.269 -0.0840 -0.0087 -0.2001
    1DIPC   D2B21298   7.235   7.207   4.620 -0.1976 -0.0346  0.1550
    1DIPC   D3B21299   7.496   7.465   4.833  0.1553  0.1208 -0.0478
    1DIPC   C4B21300   7.852   7.343   5.124  0.1895  0.0797  0.1802
    1DIPC   NC321301   4.735  23.131   2.341  0.0806  0.2627 -0.1054
    1DIPC   PO421302   5.036  23.398   2.525 -0.2339  0.2284 -0.1436
    1DIPC   GL121303   5.097  23.151   2.870  0.2033 -0.0249  0.1045
    1DIPC   GL221304   5.369  23.003   3.112 -0.0724  0.2557 -0.0669
    1DIPC   C1A21305   4.894  23.154   3.346  0.0093 -0.3475 -0.0385
    1DIPC   D2A21306   4.561  23.167   3.700  0.1329 -0.0093 -0.0247
    1DIPC   D3A21307   4.935  23.376   3.783  0.1956  0.1135  0.1850
    1DIPC   C4A21308   4.985  23.715   3.379 -0.1765  0.1344 -0.0173
    1DIPC   C1B21309   5.153  22.644   3.305  0.0950 -0.0349 -0.1456
    1DIPC   D2B21310   4.806  22.549   3.083 -0.0874 -0.0712 -0.1812
    1DIPC   D3B21311   5.190  22.200   3.091  0.2539 -0.1463 -0.3036
    1DIPC   C4B21312   4.972  21.795   3.131  0.0518  0.2080  0.2709
    1DIPC   NC321313  15.741   4.971   2.685 -0.1545  0.0192 -0.0417
    1DIPC   PO421314  15.941   5.070   3.116 -0.4394 -0.0773 -0.0705
    1DIPC   GL121315  16.211   5.103   3.449  0.0076  0.0040  0.0711
    1DIPC   GL221316  16.574   5.046   3.421  0.1724 -0.1246 -0.4053
    1DIPC   C1A21317  16.383   4.969   3.878 -0.1427 -0.1948 -0.0503
    1DIPC   D2A21318  16.469   5.075   4.373  0.2228  0.0290  0.0109
    1DIPC   D3A21319  16.183   4.840   4.324 -0.0680  0.0753 -0.4486
    1DIPC   C4A21320  16.113   4.508   4.550 -0.3226 -0.0946 -0.2942
    1DIPC   C1B21321  16.382   4.621   3.485 -0.1757  0.3038 -0.2089
    1DIPC   D2B21322  16.537   4.292   3.815  0.3973 -0.0139 -0.1943
    1DIPC   D3B21323  16.507   4.352   4.236  0.1624 -0.0170  0.1922
    1DIPC   C4B21324  16.865   4.195   4.456  0.2043  0.0671 -0.3945
    1DIPC   NC321325  25.091   3.422   3.077  0.0701  0.0995  0.0359
    1DIPC   PO421326  25.059   3.019   3.345  0.2114 -0.0063  0.4168
    1DIPC   GL121327  25.077   3.271   3.774  0.0397  0.3576  0.1722
    1DIPC   GL221328  25.421   3.306   3.858  0.1457  0.0843 -0.1973
    1DIPC   C1A21329  25.120   3.242   4.207 -0.2627  0.0987  0.2370
    1DIPC   D2A21330  25.222   3.360   4.589 -0.1339  0.1134 -0.2489
    1DIPC   D3A21331  25.617   3.634   4.662 -0.0764  0.0353  0.3622
    1DIPC   C4A21332  25.639   3.983   4.916 -0.0365 -0.1096 -0.2144
    1DIPC   C1B21333  25.708   3.302   4.223 -0.1034  0.1485  0.1863
    1DIPC   D2B21334  25.998   3.409   4.403 -0.0995  0.2150  0.3635
    1DIPC   D3B21335  25.962   3.865   4.417  0.2302 -0.0883  0.0303
    1DIPC   C4B21336  25.610   4.160   4.429  0.3118 -0.1960  0.0290
    1DIPC   NC321337  29.065  17.790   2.647  0.1692  0.1835 -0.0481
    1DIPC   PO421338  29.180  18.149   2.765  0.1272 -0.0974  0.0868
    1DIPC   GL121339  29.111  18.040   3.140 -0.0710  0.0438  0.0242
    1DIPC   GL221340  28.778  18.128   3.306 -0.1946  0.1328  0.0878
    1DIPC   C1A21341  29.155  17.933   3.629  0.0761 -0.1467  0.0127
    1DIPC   D2A21342  29.181  17.934   4.119  0.2103 -0.2445 -0.1752
    1DIPC   D3A21343  29.610  18.017   4.133 -0.1273  0.2121 -0.1313
    1DIPC   C4A21344  29.868  17.883   4.463 -0.3503  0.1655  0.0227
    1DIPC   C1B21345  28.810  18.196   3.829  0.2186 -0.1899 -0.2597
    1DIPC   D2B21346  28.399  18.105   4.035 -0.0072  0.0049 -0.0476
    1DIPC   D3B21347  28.552  18.011   4.334 -0.2264  0.2240  0.0836
    1DIPC   C4B21348  28.385  17.788   4.644  0.2518  0.1401  0.3327
    1DIPC   NC321349  27.713  11.163   1.805 -0.0896  0.0259  0.1377
    1DIPC   PO421350  27.788  11.086   2.264 -0.3431  0.0535  0.2303
    1DIPC   GL121351  27.996  11.142   2.708  0.0413 -0.5683 -0.0749
    1DIPC   GL221352  28.110  10.805   2.819 -0.0832  0.0975 -0.0537
    1DIPC   C1A21353  28.289  11.251   3.023  0.0426  0.0024 -0.1063
    1DIPC   D2A21354  28.707  11.256   3.084  0.2440  0.2428 -0.0844
    1DIPC   D3A21355  28.954  11.390   3.440 -0.3774 -0.0253  0.0795
    1DIPC   C4A21356  28.897  11.362   3.824  0.0033  0.0280 -0.1425
    1DIPC   C1B21357  27.932  10.958   3.129  0.1530  0.1174  0.1999
    1DIPC   D2B21358  27.381  11.032   3.125  0.0133 -0.0098 -0.3609
    1DIPC   D3B21359  27.206  11.315   3.459  0.3397  0.1557  0.0709
    1DIPC   C4B21360  27.185  11.012   3.867 -0.3520  0.2411  0.2490
    1DIPC   NC321361  20.117   4.491   2.684  0.0513 -0.1730  0.1607
    1DIPC   PO421362  20.556   4.330   2.789 -0.0040 -0.0819  0.1600
    1DIPC   GL121363  20.537   4.545   3.155  0.1889 -0.0398  0.0301
    1DIPC   GL221364  20.545   4.182   3.310  0.0478 -0.0528 -0.0587
    1DIPC   C1A21365  20.406   4.767   3.414 -0.0339  0.0658 -0.0100
    1DIPC   D2A21366  20.468   5.017   3.598 -0.3633 -0.0153 -0.0361
    1DIPC   D3A21367  20.691   5.340   3.410 -0.1174 -0.0477 -0.2600
    1DIPC   C4A21368  21.161   5.372   3.550  0.1994 -0.1537  0.0131
    1DIPC   C1B21369  20.548   4.076   3.736  0.2453  0.1394  0.3290
    1DIPC   D2B21370  20.430   3.814   4.053 -0.2147 -0.1951 -0.0035
    1DIPC   D3B21371  20.223   4.039   4.370 -0.3878 -0.1577  0.0859
    1DIPC   C4B21372  19.933   3.886   4.682 -0.0373  0.4079 -0.1008
    1DIPC   NC321373   6.032  12.826   2.513 -0.0559 -0.0876  0.2934
    1DIPC   PO421374   6.142  12.605   2.920  0.1870  0.1363 -0.1453
    1DIPC   GL121375   6.372  12.334   3.152  0.0205 -0.1883 -0.1235
    1DIPC   GL221376   6.685  12.067   3.163  0.1650 -0.3022  0.2571
    1DIPC   C1A21377   6.391  12.376   3.558 -0.2229 -0.1132 -0.3250
    1DIPC   D2A21378   6.354  12.207   3.939 -0.1425 -0.2455 -0.0223
    1DIPC   D3A21379   5.873  12.367   4.118  0.0203  0.3673 -0.2029
    1DIPC   C4A21380   5.697  12.260   4.459  0.2985 -0.0570  0.1885
    1DIPC   C1B21381   6.828  12.500   3.186 -0.0812 -0.2907  0.2441
    1DIPC   D2B21382   6.841  12.756   3.614 -0.2041 -0.0867 -0.0350
    1DIPC   D3B21383   6.672  12.709   4.014 -0.0563  0.0606 -0.2012
    1DIPC   C4B21384   6.818  12.357   4.264  0.1608  0.1504  0.2054
    1DIPC   NC321385  21.486   5.994   2.758  0.1306 -0.1371  0.0197
    1DIPC   PO421386  21.273   6.244   3.107 -0.0822  0.0868  0.0998
    1DIPC   GL121387  21.214   6.317   3.537 -0.3357 -0.1859 -0.1166
    1DIPC   GL221388  21.416   6.437   3.797  0.1492  0.1357  0.0777
    1DIPC   C1A21389  21.236   5.987   3.965 -0.0230  0.2415 -0.0324
    1DIPC   D2A21390  21.290   5.936   4.356  0.1524  0.1210 -0.2577
    1DIPC   D3A21391  21.413   5.581   4.584 -0.1369  0.4155 -0.0682
    1DIPC   C4A21392  21.531   5.215   4.344 -0.0761  0.0741 -0.1086
    1DIPC   C1B21393  21.409   6.421   4.351 -0.3058  0.0897 -0.1437
    1DIPC   D2B21394  21.487   6.325   4.699 -0.1596 -0.0246 -0.1415
    1DIPC   D3B21395  21.686   5.965   4.733  0.0363  0.0346 -0.0446
    1DIPC   C4B21396  21.902   5.810   5.052  0.0512 -0.2358  0.0928
    1DIPC   NC321397  22.364   5.739   2.910 -0.0407  0.2236 -0.2101
    1DIPC   PO421398  21.911   5.772   2.672  0.0249 -0.0619  0.2384
    1DIPC   GL121399  21.700   5.753   3.131 -0.0179 -0.0341 -0.0823
    1DIPC   GL221400  22.043   5.648   3.387  0.1945  0.0317 -0.4210
    1DIPC   C1A21401  21.551   5.716   3.471  0.0132  0.2362 -0.0724
    1DIPC   D2A21402  21.502   5.580   3.946  0.0271 -0.2227 -0.1391
    1DIPC   D3A21403  21.175   5.509   4.164  0.0956 -0.0193 -0.1507
    1DIPC   C4A21404  20.967   5.183   4.344 -0.0984  0.1558  0.1647
    1DIPC   C1B21405  22.006   5.693   3.821  0.2170  0.1501 -0.0907
    1DIPC   D2B21406  21.813   6.021   4.035 -0.1099  0.2140 -0.0148
    1DIPC   D3B21407  21.881   5.712   4.387 -0.1929 -0.0955 -0.2091
    1DIPC   C4B21408  22.163   5.939   4.593 -0.1888 -0.0002 -0.0295
    1DIPC   NC321409   3.880  16.288   1.898  0.0987 -0.0565  0.0244
    1DIPC   PO421410   3.554  16.620   2.119 -0.1398 -0.1173 -0.2629
    1DIPC   GL121411   3.610  16.493   2.514  0.2354 -0.1267 -0.1532
    1DIPC   GL221412   3.436  16.343   2.673 -0.1706  0.0456  0.0794
    1DIPC   C1A21413   3.661  16.767   2.849 -0.0629 -0.3195  0.2479
    1DIPC   D2A21414   3.866  16.862   3.166 -0.2000  0.0548 -0.2139
    1DIPC   D3A21415   4.319  16.805   3.088 -0.1262  0.0598 -0.1073
    1DIPC   C4A21416   4.583  17.104   2.948  0.1248 -0.0466  0.0014
    1DIPC   C1B21417   3.607  16.327   3.075 -0.0481  0.0243 -0.2662
    1DIPC   D2B21418   3.602  16.385   3.521  0.1765 -0.0684  0.1157
    1DIPC   D3B21419   3.937  16.089   3.612  0.1675 -0.3325 -0.0211
    1DIPC   C4B21420   4.407  16.194   3.743  0.2860  0.0688  0.0402
    1DIPC   NC321421  22.668   8.105   2.525  0.1231 -0.0393  0.1370
    1DIPC   PO421422  22.844   8.480   2.753  0.0463 -0.2846  0.0778
    1DIPC   GL121423  22.880   8.301   3.168  0.0472 -0.1397  0.1367
    1DIPC   GL221424  22.807   7.977   3.207 -0.1819 -0.1986  0.3232
    1DIPC   C1A21425  22.734   8.511   3.549 -0.1220  0.1795 -0.2715
    1DIPC   D2A21426  22.328   8.686   3.732 -0.1722 -0.1078  0.0026
    1DIPC   D3A21427  21.884   8.595   3.651  0.0477 -0.3506 -0.0497
    1DIPC   C4A21428  21.530   8.633   3.998  0.3856  0.0151  0.1033
    1DIPC   C1B21429  22.686   7.762   3.581 -0.1045  0.3598 -0.1991
    1DIPC   D2B21430  22.470   7.663   3.981 -0.2808 -0.3837  0.0672
    1DIPC   D3B21431  22.447   7.923   4.338  0.0189  0.0969 -0.2823
    1DIPC   C4B21432  22.244   7.768   4.825 -0.1140  0.0964 -0.1232
    1DIPC   NC321433   6.965  20.746   1.727  0.2915 -0.1380  0.4336
    1DIPC   PO421434   7.045  20.839   2.180  0.0745 -0.1903  0.2053
    1DIPC   GL121435   6.967  20.862   2.576 -0.2899 -0.1330 -0.2107
    1DIPC   GL221436   7.022  20.588   2.734 -0.0063 -0.0352  0.2954
    1DIPC   C1A21437   7.078  21.068   2.950 -0.1229 -0.1770 -0.2489
    1DIPC   D2A21438   7.414  21.327   3.150 -0.0105 -0.1461  0.0814
    1DIPC   D3A21439   7.195  21.169   3.481  0.0176  0.0509 -0.0204
    1DIPC   C4A21440   6.884  21.140   3.541  0.1218  0.0940 -0.0782
    1DIPC   C1B21441   7.071  20.293   3.041 -0.0423  0.0607 -0.0447
    1DIPC   D2B21442   6.784  20.208   3.430  0.0447 -0.1212 -0.0268
    1DIPC   D3B21443   7.135  19.938   3.637 -0.0652 -0.2245  0.2215
    1DIPC   C4B21444   7.520  19.641   3.641 -0.1965 -0.0672  0.1882
    1DIPC   NC321445  16.412  27.466   3.519  0.0916  0.2714  0.0786
    1DIPC   PO421446  16.577  27.116   3.727  0.0087 -0.0115 -0.1984
    1DIPC   GL121447  16.600  27.190   4.177  0.0366  0.0104 -0.1328
    1DIPC   GL221448  16.855  27.046   4.172 -0.1094 -0.3685  0.2323
    1DIPC   C1A21449  16.430  27.348   4.493  0.3743  0.1048 -0.1516
    1DIPC   D2A21450  16.384  27.406   5.031  0.1913  0.0166  0.2662
    1DIPC   D3A21451  16.220  27.804   5.260 -0.1758 -0.0495  0.3737
    1DIPC   C4A21452  16.347  28.159   5.345  0.4966 -0.0081  0.1543
    1DIPC   C1B21453  16.822  27.122   4.642  0.5691 -0.0294  0.1740
    1DIPC   D2B21454  16.911  27.324   4.875  0.1468  0.2740 -0.0841
    1DIPC   D3B21455  17.000  27.198   5.253  0.0613 -0.1813 -0.0600
    1DIPC   C4B21456  16.676  27.393   5.480  0.3111 -0.1093  0.2984
    1DIPC   NC321457  25.639  11.439   2.042  0.1965 -0.0084  0.1023
    1DIPC   PO421458  25.395  11.066   2.208  0.0393  0.0078  0.3469
    1DIPC   GL121459  25.632  11.228   2.615 -0.1570  0.1429  0.0018
    1DIPC   GL221460  25.979  11.099   2.678  0.2140 -0.1957  0.0799
    1DIPC   C1A21461  25.541  11.132   3.094  0.3419 -0.2814 -0.1049
    1DIPC   D2A21462  25.724  11.078   3.518  0.1705  0.0412  0.0959
    1DIPC   D3A21463  25.803  11.481   3.808  0.1125 -0.0705  0.1310
    1DIPC   C4A21464  26.053  11.626   4.145  0.2402  0.1984  0.0123
    1DIPC   C1B21465  26.008  11.005   3.046  0.4635 -0.1485 -0.0664
    1DIPC   D2B21466  26.330  11.173   3.204 -0.0301  0.0213  0.1681
    1DIPC   D3B21467  26.414  11.228   3.692  0.0793 -0.1271 -0.3466
    1DIPC   C4B21468  26.079  11.148   4.041  0.0399 -0.5172  0.1292
    1DIPC   NC321469  13.075   1.664   3.473  0.0709  0.0048 -0.2528
    1DIPC   PO421470  12.714   1.573   3.764 -0.0695 -0.1165 -0.0245
    1DIPC   GL121471  12.815   1.574   4.171  0.0436 -0.1600  0.0380
    1DIPC   GL221472  13.083   1.374   4.223  0.0147 -0.1296 -0.1545
    1DIPC   C1A21473  12.760   1.304   4.522  0.4091 -0.2861 -0.1779
    1DIPC   D2A21474  12.686   1.268   4.968  0.2179 -0.0313  0.1076
    1DIPC   D3A21475  12.802   0.894   4.928  0.0759  0.2065 -0.1688
    1DIPC   C4A21476  12.585   0.661   5.170  0.0073  0.1273  0.0468
    1DIPC   C1B21477  13.221   1.069   4.616 -0.0251  0.3267 -0.0541
    1DIPC   D2B21478  13.477   0.724   4.742  0.2847  0.0284  0.1039
    1DIPC   D3B21479  13.822   0.370   5.027  0.0590  0.0092  0.0355
    1DIPC   C4B21480  13.765   0.085   5.379 -0.0636 -0.1253  0.2586
    1DIPC   NC321481  27.028  10.297   2.430 -0.2854 -0.0745 -0.0566
    1DIPC   PO421482  26.750  10.565   2.161 -0.0646 -0.2632  0.1467
    1DIPC   GL121483  26.637  10.712   2.467 -0.0598  0.0637  0.1304
    1DIPC   GL221484  26.570  10.459   2.627  0.0949  0.0019 -0.1868
    1DIPC   C1A21485  26.609  10.871   2.888  0.2671 -0.1917  0.0141
    1DIPC   D2A21486  26.775  10.801   3.320  0.1150 -0.1834 -0.0058
    1DIPC   D3A21487  27.050  10.482   3.403 -0.2352 -0.2103 -0.0958
    1DIPC   C4A21488  27.448  10.595   3.329  0.3641  0.1497  0.1748
    1DIPC   C1B21489  26.714  10.349   3.094 -0.1539  0.0662  0.3416
    1DIPC   D2B21490  26.495  10.331   3.390  0.2094 -0.4732 -0.0971
    1DIPC   D3B21491  26.284  10.684   3.234  0.1058 -0.2294  0.2629
    1DIPC   C4B21492  26.038  10.710   3.512  0.1005  0.2759  0.3998
    1DIPC   NC321493  24.636   1.878   2.957 -0.0884 -0.0855  0.0122
    1DIPC   PO421494  24.833   1.503   2.804  0.0300  0.0977  0.1015
    1DIPC   GL121495  25.017   1.592   3.210 -0.2993  0.1844  0.2930
    1DIPC   GL221496  25.008   1.914   3.470  0.2641  0.2600 -0.4298
    1DIPC   C1A21497  25.065   1.385   3.605  0.0113 -0.0109  0.1647
    1DIPC   D2A21498  24.729   1.241   3.912  0.0690  0.4809  0.1604
    1DIPC   D3A21499  25.219   1.472   4.135  0.2324 -0.0291 -0.0712
    1DIPC   C4A21500  25.518   1.482   3.746  0.2414  0.2597  0.0547
    1DIPC   C1B21501  25.301   1.894   3.682 -0.1111  0.1385  0.1038
    1DIPC   D2B21502  25.488   1.912   4.078 -0.0202 -0.3322  0.2502
    1DIPC   D3B21503  25.915   1.798   4.332  0.2108  0.2173 -0.1958
    1DIPC   C4B21504  26.157   1.985   4.656 -0.0330 -0.1079 -0.0343
    1DIPC   NC321505  19.926  26.567   2.567 -0.3490 -0.3799  0.2069
    1DIPC   PO421506  19.970  26.998   2.793 -0.0145  0.1000  0.0870
    1DIPC   GL121507  20.048  27.037   3.255 -0.2422  0.3274  0.1735
    1DIPC   GL221508  19.879  27.090   3.489 -0.2216 -0.0351  0.2577
    1DIPC   C1A21509  20.350  26.836   3.412 -0.0480 -0.0898 -0.0046
    1DIPC   D2A21510  20.723  26.962   3.640 -0.2302  0.0586  0.0950
    1DIPC   D3A21511  20.846  26.702   4.022  0.1901 -0.1320  0.3832
    1DIPC   C4A21512  21.135  26.737   4.434  0.1660 -0.0469 -0.0475
    1DIPC   C1B21513  19.810  26.830   3.899 -0.2138 -0.1902 -0.3122
    1DIPC   D2B21514  19.607  26.632   4.152  0.3573  0.0874 -0.1740
    1DIPC   D3B21515  19.630  26.873   4.476 -0.1107 -0.0909 -0.0066
    1DIPC   C4B21516  20.021  26.955   4.714 -0.1606  0.1060  0.3824
    1DIPC   NC321517   9.274   4.033   3.398 -0.0920 -0.0796 -0.1083
    1DIPC   PO421518   8.943   4.116   3.481 -0.3543  0.0937  0.3506
    1DIPC   GL121519   8.675   4.043   3.827  0.1759 -0.0378  0.0565
    1DIPC   GL221520   8.792   4.083   4.111 -0.2380 -0.0361 -0.0586
    1DIPC   C1A21521   8.461   4.428   4.117  0.1859  0.2638 -0.1213
    1DIPC   D2A21522   8.152   4.572   4.415  0.0258  0.1212  0.0225
    1DIPC   D3A21523   7.949   4.346   4.751 -0.3574 -0.0024  0.4913
    1DIPC   C4A21524   7.634   4.577   4.843  0.1974 -0.5430 -0.2230
    1DIPC   C1B21525   8.849   4.002   4.593 -0.0021  0.0653 -0.2860
    1DIPC   D2B21526   9.050   3.878   4.885  0.0796  0.1735 -0.0583
    1DIPC   D3B21527   8.678   3.782   5.084 -0.1504  0.1724  0.0484
    1DIPC   C4B21528   8.728   3.609   5.528  0.1369  0.0060 -0.0651
    1DIPC   NC321529   1.845  21.396   2.455  0.0952  0.0394 -0.0598
    1DIPC   PO421530   1.672  21.720   2.606  0.0677  0.0078 -0.3887
    1DIPC   GL121531   1.682  21.540   2.936 -0.0853 -0.0772 -0.0951
    1DIPC   GL221532   2.018  21.475   2.904 -0.2319 -0.3057  0.1646
    1DIPC   C1A21533   1.796  21.359   3.318 -0.3474 -0.1929 -0.1327
    1DIPC   D2A21534   1.516  21.291   3.659 -0.2812 -0.1158 -0.0330
    1DIPC   D3A21535   1.929  21.067   3.724 -0.1677  0.0781 -0.1462
    1DIPC   C4A21536   1.965  20.715   3.936  0.0594 -0.1577 -0.1514
    1DIPC   C1B21537   2.032  21.772   3.222 -0.1157  0.0503 -0.2096
    1DIPC   D2B21538   2.303  22.016   3.529  0.0160 -0.2586 -0.2449
    1DIPC   D3B21539   2.349  21.686   3.864  0.1019  0.0678  0.1099
    1DIPC   C4B21540   2.056  21.682   4.237  0.0452  0.0193  0.1022
    1DIPC   NC321541  25.390   5.252   3.138 -0.1081  0.0661  0.0090
    1DIPC   PO421542  24.964   5.407   3.070 -0.0175  0.0661  0.3898
    1DIPC   GL121543  24.985   5.255   3.478  0.0769 -0.3273 -0.0248
    1DIPC   GL221544  25.117   4.887   3.501 -0.2138  0.1759  0.0510
    1DIPC   C1A21545  24.992   5.419   3.960  0.1075  0.1470  0.1557
    1DIPC   D2A21546  24.805   5.651   4.250  0.0254  0.2867 -0.1550
    1DIPC   D3A21547  25.005   5.921   4.561 -0.5752 -0.0967 -0.2801
    1DIPC   C4A21548  24.857   6.179   4.881  0.2448 -0.1370  0.2161
    1DIPC   C1B21549  25.288   4.551   3.840 -0.1218 -0.1657 -0.5718
    1DIPC   D2B21550  25.150   4.274   4.139  0.1083  0.2060  0.3004
    1DIPC   D3B21551  25.310   3.952   3.779  0.0147 -0.1279 -0.1874
    1DIPC   C4B21552  25.705   3.894   3.983  0.2564  0.1045 -0.1391
    1DIPC   NC321553  20.560  23.562   3.474  0.1425  0.0235  0.2033
    1DIPC   PO421554  20.130  23.473   3.544  0.1053  0.1040 -0.1075
    1DIPC   GL121555  20.169  23.563   3.864 -0.2888 -0.1846  0.2156
    1DIPC   GL221556  20.420  23.712   4.013 -0.0576  0.3701 -0.2276
    1DIPC   C1A21557  19.820  23.533   4.121 -0.1178  0.0431 -0.2031
    1DIPC   D2A21558  19.594  23.271   4.412  0.0689 -0.0966  0.0961
    1DIPC   D3A21559  19.779  23.258   4.787  0.1197  0.3169  0.1081
    1DIPC   C4A21560  19.696  23.379   5.108  0.1020 -0.1358 -0.1186
    1DIPC   C1B21561  20.219  23.689   4.420 -0.0314 -0.1520  0.3661
    1DIPC   D2B21562  20.157  23.905   4.823  0.2259  0.2097 -0.0648
    1DIPC   D3B21563  20.096  24.044   5.231 -0.1146 -0.0332 -0.1577
    1DIPC   C4B21564  19.778  24.292   5.384 -0.1842 -0.0343 -0.2180
    1DIPC   NC321565  10.369   4.960   3.543 -0.2366 -0.1280 -0.3439
    1DIPC   PO421566  10.760   5.117   3.677 -0.1578  0.1825 -0.1694
    1DIPC   GL121567  11.106   5.122   4.008 -0.2206 -0.2438 -0.0270
    1DIPC   GL221568  11.460   4.949   3.917 -0.0886  0.0816  0.2411
    1DIPC   C1A21569  11.442   5.410   4.316  0.1917  0.0128 -0.0120
    1DIPC   D2A21570  11.895   5.352   4.602  0.1838 -0.2575  0.2322
    1DIPC   D3A21571  11.741   5.449   4.964  0.0131 -0.1355 -0.0001
    1DIPC   C4A21572  11.456   5.346   5.220  0.0611  0.0479 -0.1041
    1DIPC   C1B21573  11.402   4.878   4.307 -0.0522  0.3770  0.1068
    1DIPC   D2B21574  11.109   4.705   4.630  0.2594  0.0971  0.1159
    1DIPC   D3B21575  11.175   4.364   4.465  0.0112  0.2582 -0.1061
    1DIPC   C4B21576  11.242   4.492   4.029 -0.1280 -0.1427  0.0179
    1DIPC   NC321577   6.433   5.531   3.882  0.2397  0.0884 -0.0381
    1DIPC   PO421578   6.799   5.574   3.657  0.1618  0.0593 -0.0783
    1DIPC   GL121579   6.946   5.640   4.074 -0.2029  0.2037  0.4290
    1DIPC   GL221580   6.728   5.416   4.330 -0.1344 -0.2772  0.3345
    1DIPC   C1A21581   7.094   6.026   4.255  0.2696 -0.2555  0.1026
    1DIPC   D2A21582   6.976   6.460   4.377  0.0951 -0.1665  0.1911
    1DIPC   D3A21583   6.492   6.532   4.405 -0.1588  0.0355  0.0155
    1DIPC   C4A21584   6.375   6.513   4.796  0.1308  0.3101  0.2183
    1DIPC   C1B21585   6.938   5.715   4.690  0.3315  0.1962  0.3957
    1DIPC   D2B21586   7.103   5.823   5.123  0.2040  0.0660 -0.1507
    1DIPC   D3B21587   6.965   5.795   5.605 -0.0803  0.2848 -0.0202
    1DIPC   C4B21588   6.939   5.895   5.967  0.0388 -0.0911  0.0547
    1DIPC   NC321589   9.496  29.772   3.407 -0.2630 -0.1707 -0.2055
    1DIPC   PO421590   9.213  29.466   3.618  0.0059 -0.1175 -0.1638
    1DIPC   GL121591   9.225  29.334   3.930 -0.0921  0.1387 -0.1655
    1DIPC   GL221592   8.926  29.245   3.980  0.1905  0.0963  0.0484
    1DIPC   C1A21593   9.301  29.271   4.435 -0.2632 -0.1926  0.1560
    1DIPC   D2A21594   9.218  29.521   4.782 -0.0429 -0.0918  0.3182
    1DIPC   D3A21595   9.500  29.713   4.958  0.2743 -0.0347  0.1332
    1DIPC   C4A21596   9.752  29.538   5.301  0.1139  0.1663  0.1515
    1DIPC   C1B21597   8.813  29.439   4.374  0.1540 -0.0037  0.0483
    1DIPC   D2B21598   8.696  29.389   4.755  0.0449  0.0424  0.1165
    1DIPC   D3B21599   8.932  29.122   4.938  0.0314  0.0715  0.0174
    1DIPC   C4B21600   9.327  29.234   5.178  0.2263  0.2996 -0.0475
    1DIPC   NC321601  26.625  15.666   2.413  0.2264 -0.2799  0.1638
    1DIPC   PO421602  26.712  16.097   2.383 -0.3836  0.0509  0.0519
    1DIPC   GL121603  26.864  16.078   2.802 -0.0030  0.1619 -0.2161
    1DIPC   GL221604  26.685  16.033   3.123 -0.0999 -0.4141  0.0016
    1DIPC   C1A21605  27.045  15.783   3.173 -0.2737  0.1107 -0.0718
    1DIPC   D2A21606  27.280  15.518   3.404  0.0080 -0.2039  0.1452
    1DIPC   D3A21607  27.239  15.388   3.848  0.2680 -0.0444  0.1614
    1DIPC   C4A21608  27.276  14.923   3.736  0.2450  0.0260 -0.1846
    1DIPC   C1B21609  26.587  15.903   3.487 -0.2833  0.0893  0.0163
    1DIPC   D2B21610  26.954  15.778   3.667 -0.0841 -0.0125  0.0134
    1DIPC   D3B21611  27.402  15.860   3.750 -0.1448  0.0906  0.2292
    1DIPC   C4B21612  27.676  15.546   3.921 -0.0259 -0.2108  0.0270
    1DIPC   NC321613  26.340  19.483   3.089  0.3265 -0.2788 -0.1532
    1DIPC   PO421614  25.959  19.511   2.886 -0.1164  0.1976  0.2557
    1DIPC   GL121615  25.845  19.784   3.253  0.2273 -0.0063 -0.1558
    1DIPC   GL221616  26.028  19.849   3.307 -0.1321  0.1909 -0.3738
    1DIPC   C1A21617  25.765  19.600   3.729  0.1660 -0.0110 -0.1570
    1DIPC   D2A21618  25.560  19.234   3.794  0.2170  0.2891 -0.2253
    1DIPC   D3A21619  25.231  19.410   3.771 -0.0015  0.1664  0.0443
    1DIPC   C4A21620  25.123  19.573   4.246 -0.0104 -0.1483  0.0537
    1DIPC   C1B21621  26.220  19.752   3.749 -0.1320  0.3244 -0.0523
    1DIPC   D2B21622  26.237  19.724   4.203 -0.2814  0.4715 -0.0377
    1DIPC   D3B21623  26.627  19.826   4.177 -0.2323 -0.1135 -0.0034
    1DIPC   C4B21624  26.676  20.012   3.834 -0.4600 -0.1776  0.0453
    1DIPC   NC321625   9.785  24.535   1.956 -0.1427  0.0882  0.0168
    1DIPC   PO421626   9.459  24.417   2.264  0.2323  0.2076 -0.0302
    1DIPC   GL121627   9.478  24.315   2.689 -0.3027  0.0876 -0.1655
    1DIPC   GL221628   9.741  24.427   2.796  0.1014 -0.3402 -0.0002
    1DIPC   C1A21629   9.301  24.391   3.047  0.0232 -0.2613 -0.0455
    1DIPC   D2A21630   9.326  24.221   3.523  0.1470  0.1152 -0.0319
    1DIPC   D3A21631   9.680  24.121   3.802 -0.0709 -0.0228 -0.0860
    1DIPC   C4A21632   9.443  24.051   4.166  0.1808 -0.0560  0.1216
    1DIPC   C1B21633   9.755  24.056   3.050 -0.0849 -0.0810  0.0147
    1DIPC   D2B21634  10.000  23.978   3.401 -0.0464 -0.2419 -0.1768
    1DIPC   D3B21635  10.395  24.073   3.243  0.1730 -0.1414  0.0243
    1DIPC   C4B21636  10.581  24.113   3.561 -0.0510  0.1204 -0.0497
    1DIPC   NC321637   2.515  21.091   2.141 -0.1826  0.1870  0.2186
    1DIPC   PO421638   2.288  21.054   2.475  0.1638 -0.2543 -0.0029
    1DIPC   GL121639   2.470  21.128   2.779  0.1490 -0.3656  0.2523
    1DIPC   GL221640   2.275  21.081   3.052 -0.0145 -0.2065 -0.2236
    1DIPC   C1A21641   2.774  21.225   3.116 -0.0666 -0.1221  0.2537
    1DIPC   D2A21642   3.120  20.936   3.114 -0.1302 -0.1066  0.0635
    1DIPC   D3A21643   3.125  21.047   3.536  0.0679  0.0868  0.3962
    1DIPC   C4A21644   3.291  21.556   3.571 -0.2400  0.0582 -0.1231
    1DIPC   C1B21645   2.266  21.355   3.388  0.2234 -0.0123 -0.0873
    1DIPC   D2B21646   2.659  21.590   3.466 -0.1979 -0.1202  0.1311
    1DIPC   D3B21647   2.855  21.528   3.913 -0.0172  0.4187  0.0572
    1DIPC   C4B21648   2.825  20.990   3.983 -0.1496  0.1443  0.1297
    1DIPC   NC321649  19.516  10.835   2.094  0.0126 -0.0513  0.4556
    1DIPC   PO421650  19.253  10.405   1.892 -0.0887  0.0094 -0.0528
    1DIPC   GL121651  19.366  10.407   2.343 -0.0599  0.0969  0.0934
    1DIPC   GL221652  19.149  10.315   2.646 -0.3480 -0.2751  0.0261
    1DIPC   C1A21653  19.729  10.392   2.645  0.1207  0.0088  0.0102
    1DIPC   D2A21654  19.677  10.107   3.013 -0.1358 -0.0890 -0.0882
    1DIPC   D3A21655  20.039   9.986   2.835 -0.0345 -0.0658 -0.2363
    1DIPC   C4A21656  20.369  10.274   2.730  0.0238  0.1016  0.0933
    1DIPC   C1B21657  19.000  10.305   3.010  0.0812  0.2496 -0.0286
    1DIPC   D2B21658  18.849  10.260   3.378 -0.0530 -0.1706  0.0728
    1DIPC   D3B21659  19.269  10.275   3.389 -0.3529  0.1536 -0.0594
    1DIPC   C4B21660  19.352  10.124   3.789 -0.1870 -0.0828 -0.2160
    1DIPC   NC321661  11.963  26.566   2.787 -0.0081 -0.0454 -0.1388
    1DIPC   PO421662  12.005  26.837   3.141 -0.4608  0.0808  0.5429
    1DIPC   GL121663  12.110  26.750   3.561 -0.1506 -0.1470 -0.2885
    1DIPC   GL221664  12.071  26.454   3.696 -0.0761  0.4004  0.0682
    1DIPC   C1A21665  12.470  26.722   3.795 -0.1601  0.2040 -0.0291
    1DIPC   D2A21666  12.849  26.571   3.733  0.0041 -0.3690  0.1058
    1DIPC   D3A21667  13.065  26.266   4.100 -0.1527  0.3154  0.1594
    1DIPC   C4A21668  12.854  26.358   4.562 -0.0382  0.1167  0.1942
    1DIPC   C1B21669  11.740  26.153   3.684 -0.0032  0.0885 -0.0403
    1DIPC   D2B21670  11.384  26.235   3.726 -0.0748 -0.1424 -0.1613
    1DIPC   D3B21671  11.476  26.253   4.170  0.1790  0.2358 -0.2478
    1DIPC   C4B21672  11.816  26.497   4.187 -0.2900  0.3878  0.3629
    1DIPC   NC321673  27.509  21.089   3.098 -0.0518  0.1532 -0.2106
    1DIPC   PO421674  27.829  20.743   3.142  0.2527 -0.1907 -0.1422
    1DIPC   GL121675  28.283  20.724   3.302  0.2333 -0.2223  0.1742
    1DIPC   GL221676  28.420  20.557   3.172  0.1361  0.3722 -0.1218
    1DIPC   C1A21677  28.634  20.911   3.572 -0.0093 -0.0839 -0.0005
    1DIPC   D2A21678  28.863  21.114   3.900 -0.0200 -0.2228  0.2026
    1DIPC   D3A21679  28.841  20.750   4.188  0.1911  0.2717  0.1384
    1DIPC   C4A21680  28.423  20.707   4.082 -0.2292 -0.1876  0.2648
    1DIPC   C1B21681  28.476  20.349   3.586 -0.2681  0.0651  0.1015
    1DIPC   D2B21682  28.561  20.222   4.006  0.0218 -0.2621 -0.1531
    1DIPC   D3B21683  28.766  20.236   4.497  0.3790 -0.0993 -0.0544
    1DIPC   C4B21684  29.159  20.208   4.512 -0.0442  0.0704  0.1908
    1DIPC   NC321685  28.812  14.505   2.465  0.1026  0.2290 -0.0223
    1DIPC   PO421686  28.448  14.179   2.372  0.2212 -0.1348  0.2577
    1DIPC   GL121687  28.449  13.859   2.750  0.1497 -0.0273 -0.3237
    1DIPC   GL221688  28.657  14.112   2.877 -0.3194 -0.2102  0.2869
    1DIPC   C1A21689  28.416  13.699   3.174  0.0288 -0.3585  0.0220
    1DIPC   D2A21690  28.312  13.856   3.594 -0.0493 -0.0054 -0.2160
    1DIPC   D3A21691  28.444  13.601   3.952  0.2482 -0.0695 -0.1851
    1DIPC   C4A21692  28.432  13.735   4.382 -0.1021 -0.0559 -0.1840
    1DIPC   C1B21693  28.232  14.153   3.152 -0.2262  0.4601 -0.1787
    1DIPC   D2B21694  27.919  14.191   3.422 -0.3214 -0.2217  0.2518
    1DIPC   D3B21695  27.756  13.924   3.141  0.2313  0.0045  0.0828
    1DIPC   C4B21696  27.482  13.533   3.256 -0.1160 -0.0587 -0.0620
    1DIPC   NC321697  20.645   0.882   2.342 -0.4841 -0.0725 -0.0436
    1DIPC   PO421698  20.562   1.019   2.842  0.0855  0.1844  0.3889
    1DIPC   GL121699  20.544   1.022   3.285  0.1995  0.2957 -0.0737
    1DIPC   GL221700  20.362   0.846   3.559 -0.0258 -0.0674  0.0645
    1DIPC   C1A21701  20.347   1.380   3.463  0.0249  0.2150 -0.2537
    1DIPC   D2A21702  19.922   1.380   3.600  0.1182 -0.0388  0.0663
    1DIPC   D3A21703  19.976   1.086   3.933  0.1915  0.0591  0.3748
    1DIPC   C4A21704  20.283   0.963   4.193  0.1208 -0.3442  0.0393
    1DIPC   C1B21705  20.589   0.690   3.977 -0.1273 -0.1982 -0.1645
    1DIPC   D2B21706  20.463   0.347   4.273  0.0032 -0.0795  0.1233
    1DIPC   D3B21707  20.150   0.639   4.565 -0.1762  0.0390  0.0674
    1DIPC   C4B21708  20.388   0.943   4.914 -0.1532  0.0348  0.0161
    1DIPC   NC321709  13.465   3.912   2.701 -0.0672  0.0407  0.1424
    1DIPC   PO421710  13.619   4.307   2.901 -0.1002  0.0288  0.1904
    1DIPC   GL121711  13.811   4.355   3.381  0.0908  0.1050 -0.0266
    1DIPC   GL221712  13.954   4.044   3.535  0.2377  0.0340  0.0895
    1DIPC   C1A21713  13.873   4.437   3.888  0.0782  0.1319  0.0263
    1DIPC   D2A21714  13.840   4.775   4.215  0.1595 -0.1076 -0.3117
    1DIPC   D3A21715  13.560   4.835   4.584  0.2466 -0.2226  0.2436
    1DIPC   C4A21716  13.513   4.517   4.906  0.0416  0.2613  0.2420
    1DIPC   C1B21717  13.899   3.911   4.049  0.2159  0.0209  0.1795
    1DIPC   D2B21718  13.615   3.614   4.233 -0.0436 -0.0030 -0.2960
    1DIPC   D3B21719  13.419   3.958   4.254 -0.1379 -0.1151  0.3681
    1DIPC   C4B21720  13.415   4.446   4.087  0.3124 -0.2529 -0.0638
    1DIPC   NC321721   6.499  22.394   1.596  0.0403 -0.1856 -0.1252
    1DIPC   PO421722   6.604  22.113   1.905  0.1898  0.0413 -0.0298
    1DIPC   GL121723   6.678  21.951   2.300 -0.1115  0.1591  0.0087
    1DIPC   GL221724   6.523  22.061   2.597 -0.1669 -0.1945  0.2079
    1DIPC   C1A21725   7.025  21.770   2.493  0.0530 -0.1544 -0.1177
    1DIPC   D2A21726   7.296  21.630   2.768  0.0692  0.0772 -0.0086
    1DIPC   D3A21727   7.658  21.524   2.633  0.2406 -0.1988 -0.2522
    1DIPC   C4A21728   8.150  21.618   2.787  0.0319  0.2845  0.1115
    1DIPC   C1B21729   6.768  21.870   2.914  0.1795  0.4495  0.2283
    1DIPC   D2B21730   6.934  21.486   3.170 -0.1406 -0.3214 -0.0262
    1DIPC   D3B21731   6.944  21.676   3.644 -0.1154 -0.1333  0.1922
    1DIPC   C4B21732   6.694  21.493   4.013 -0.1116  0.0867  0.4608
    1DIPC   NC321733  14.387  23.131   2.333 -0.1609  0.3229  0.0924
    1DIPC   PO421734  14.563  22.804   2.154 -0.1377  0.2994 -0.0570
    1DIPC   GL121735  14.619  22.704   2.599  0.1390  0.2734 -0.1687
    1DIPC   GL221736  14.522  22.345   2.533  0.2836 -0.0656 -0.1481
    1DIPC   C1A21737  14.252  22.603   2.915 -0.0051 -0.0011  0.4531
    1DIPC   D2A21738  13.774  22.587   2.970 -0.3445  0.3541 -0.1852
    1DIPC   D3A21739  13.728  22.633   3.307  0.1356  0.1839 -0.2320
    1DIPC   C4A21740  13.600  22.880   3.642  0.2947 -0.0353  0.1409
    1DIPC   C1B21741  14.737  22.405   2.957 -0.0507 -0.2155  0.1267
    1DIPC   D2B21742  14.921  22.152   3.285 -0.1968  0.2015  0.2442
    1DIPC   D3B21743  14.744  22.377   3.526  0.1212  0.0973 -0.2092
    1DIPC   C4B21744  14.556  22.770   3.303  0.0863  0.1080 -0.0570
    1DIPC   NC321745   6.840   8.727   2.878 -0.0666  0.1041  0.1579
    1DIPC   PO421746   6.957   9.131   3.152 -0.5217 -0.2138 -0.3574
    1DIPC   GL121747   6.930   9.297   3.502  0.1667 -0.0347 -0.0292
    1DIPC   GL221748   7.071   9.083   3.690  0.0061 -0.1877  0.1486
    1DIPC   C1A21749   6.700   9.611   3.949 -0.0185 -0.2978 -0.1003
    1DIPC   D2A21750   6.613   9.596   4.399  0.1788 -0.3113 -0.2110
    1DIPC   D3A21751   6.736   9.902   4.761  0.4872 -0.1320  0.0402
    1DIPC   C4A21752   6.969   9.594   5.030 -0.0107  0.0711 -0.1222
    1DIPC   C1B21753   6.575   9.082   3.892  0.1022  0.0719 -0.0401
    1DIPC   D2B21754   6.466   9.000   4.209  0.2033 -0.2182 -0.2792
    1DIPC   D3B21755   6.668   9.123   4.560 -0.2303  0.0806 -0.1434
    1DIPC   C4B21756   6.475   9.397   4.873  0.3529  0.0740 -0.0421
    1DIPC   NC321757   5.785  13.581   2.171 -0.2587  0.1594  0.0481
    1DIPC   PO421758   5.852  13.353   2.592  0.0639  0.0099  0.2200
    1DIPC   GL121759   5.755  13.550   2.965 -0.3147  0.0908  0.2976
    1DIPC   GL221760   5.575  13.733   3.143  0.0953 -0.2746 -0.0490
    1DIPC   C1A21761   6.066  13.653   3.136 -0.0846 -0.0612 -0.0073
    1DIPC   D2A21762   6.326  13.431   3.413  0.2263 -0.1380 -0.3643
    1DIPC   D3A21763   6.433  13.721   3.666 -0.1190  0.1175 -0.0422
    1DIPC   C4A21764   6.179  13.806   4.136  0.0529 -0.0901 -0.2661
    1DIPC   C1B21765   5.666  13.567   3.529 -0.1161  0.1592 -0.2782
    1DIPC   D2B21766   5.926  13.143   3.608 -0.0822  0.2778 -0.0252
    1DIPC   D3B21767   6.110  13.366   3.861  0.2353  0.0274 -0.0759
    1DIPC   C4B21768   6.059  13.377   4.291  0.0995  0.0381  0.1235
    1DIPC   NC321769  16.759   6.124   2.623  0.0763  0.1199  0.0998
    1DIPC   PO421770  16.627   5.832   2.884  0.0710 -0.0321 -0.5425
    1DIPC   GL121771  16.822   5.808   3.330 -0.1777 -0.1001 -0.2125
    1DIPC   GL221772  16.786   5.529   3.391 -0.2351  0.1301 -0.0176
    1DIPC   C1A21773  17.086   5.967   3.741  0.0868  0.0498 -0.0205
    1DIPC   D2A21774  17.362   6.091   4.204  0.2036 -0.0541  0.0030
    1DIPC   D3A21775  17.774   6.167   4.181  0.2244  0.0410  0.0573
    1DIPC   C4A21776  18.016   6.487   4.273 -0.0935  0.1855 -0.2657
    1DIPC   C1B21777  16.919   5.245   3.767 -0.1922  0.1412  0.0151
    1DIPC   D2B21778  16.875   4.923   4.091 -0.2034  0.2035 -0.0556
    1DIPC   D3B21779  17.069   5.268   4.318  0.4070 -0.0789 -0.1839
    1DIPC   C4B21780  17.346   5.029   4.565  0.1242 -0.0960 -0.2558
    1DIPC   NC321781   4.749  25.958   2.294  0.3588  0.2662 -0.2417
    1DIPC   PO421782   4.439  26.112   2.476  0.1725 -0.2704 -0.0258
    1DIPC   GL121783   4.112  26.115   2.880 -0.1061 -0.3699  0.1847
    1DIPC   GL221784   4.217  25.725   2.960 -0.3734  0.0253  0.2915
    1DIPC   C1A21785   4.136  26.084   3.306 -0.1745  0.0237  0.0300
    1DIPC   D2A21786   4.283  25.994   3.702  0.0838 -0.5522 -0.2098
    1DIPC   D3A21787   4.194  25.555   3.876 -0.0255 -0.2941  0.0238
    1DIPC   C4A21788   4.296  25.416   4.328  0.1163  0.2839 -0.0971
    1DIPC   C1B21789   4.213  25.586   3.369  0.2135  0.1520  0.0965
    1DIPC   D2B21790   4.066  25.198   3.456  0.0196  0.1262 -0.1889
    1DIPC   D3B21791   3.849  25.026   3.049 -0.0229 -0.2461  0.0927
    1DIPC   C4B21792   3.868  25.339   2.745 -0.0127 -0.0459 -0.1700
    1DIPC   NC321793  27.604  20.252   2.821 -0.0925  0.2110  0.2053
    1DIPC   PO421794  27.225  20.162   3.006  0.2981  0.0100  0.0293
    1DIPC   GL121795  27.200  20.164   3.514  0.2240  0.1573  0.1838
    1DIPC   GL221796  27.141  19.942   3.714 -0.4340 -0.1464  0.1690
    1DIPC   C1A21797  27.589  20.199   3.840 -0.3938 -0.0809 -0.1620
    1DIPC   D2A21798  28.026  20.466   3.757  0.2898 -0.1335 -0.2101
    1DIPC   D3A21799  27.926  20.353   4.186  0.1542 -0.2010 -0.1593
    1DIPC   C4A21800  28.237  20.394   4.528  0.2723  0.0153  0.2173
    1DIPC   C1B21801  27.257  20.050   4.173 -0.1079  0.0169  0.0607
    1DIPC   D2B21802  27.629  19.994   4.393 -0.1892  0.1466  0.2554
    1DIPC   D3B21803  27.696  20.338   4.711  0.2343 -0.2547  0.0155
    1DIPC   C4B21804  27.940  20.742   4.628  0.1660  0.0363 -0.4215
    1DIPC   NC321805   8.088  22.715   2.285  0.0148 -0.0083  0.0402
    1DIPC   PO421806   8.225  22.804   2.575 -0.0249 -0.0613 -0.0366
    1DIPC   GL121807   8.003  22.605   2.873 -0.2998  0.1137 -0.4829
    1DIPC   GL221808   7.968  22.711   3.109 -0.0399 -0.0798  0.0048
    1DIPC   C1A21809   7.623  22.420   2.947  0.3008 -0.2451  0.2187
    1DIPC   D2A21810   7.516  22.485   3.406 -0.2199  0.0524 -0.1595
    1DIPC   D3A21811   7.765  22.454   3.790 -0.0171 -0.1066  0.2991
    1DIPC   C4A21812   8.149  22.656   3.884  0.2470  0.0210 -0.1222
    1DIPC   C1B21813   7.828  22.859   3.410  0.3290 -0.0735 -0.0630
    1DIPC   D2B21814   7.893  23.125   3.776  0.1253  0.0110  0.2345
    1DIPC   D3B21815   7.839  22.916   4.203 -0.1610  0.2563 -0.1574
    1DIPC   C4B21816   7.926  23.221   4.425  0.1015 -0.0307  0.1151
    1DIPC   NC321817   4.468  29.622   2.779  0.0720 -0.1741  0.2441
    1DIPC   PO421818   4.766  29.442   3.208 -0.1322  0.2554  0.3083
    1DIPC   GL121819   4.954  29.500   3.677 -0.0254 -0.1256 -0.0015
    1DIPC   GL221820   4.697  29.326   3.827 -0.4279  0.2135  0.1934
    1DIPC   C1A21821   4.961  29.644   4.097  0.0684  0.3589 -0.3596
    1DIPC   D2A21822   5.106  29.695   4.456  0.0857  0.2167  0.0549
    1DIPC   D3A21823   5.193  30.121   4.692 -0.2465 -0.2629 -0.2202
    1DIPC   C4A21824   5.075  30.534   4.727 -0.1136  0.0683 -0.1772
    1DIPC   C1B21825   4.533  29.379   4.321 -0.0904  0.1718 -0.2406
    1DIPC   D2B21826   4.453  29.175   4.610  0.6110 -0.0480  0.2119
    1DIPC   D3B21827   4.142  28.975   4.541  0.3670  0.1528 -0.0589
    1DIPC   C4B21828   4.068  28.557   4.557  0.3430  0.1407  0.2178
    1DIPC   NC321829  18.214   3.073   2.221 -0.0414  0.2914  0.2441
    1DIPC   PO421830  18.483   2.791   2.585  0.0784  0.0479  0.0900
    1DIPC   GL121831  18.311   2.792   2.952 -0.0702  0.0502 -0.1600
    1DIPC   GL221832  18.513   2.634   3.243  0.0356 -0.1697  0.4306
    1DIPC   C1A21833  18.124   2.995   3.351  0.0668 -0.1323 -0.0116
    1DIPC   D2A21834  17.868   2.915   3.724 -0.4911 -0.2569 -0.0534
    1DIPC   D3A21835  18.164   2.990   3.995 -0.0630  0.1219 -0.2377
    1DIPC   C4A21836  18.242   3.389   4.102  0.0118 -0.1331 -0.1476
    1DIPC   C1B21837  18.347   2.631   3.648 -0.2481 -0.2500  0.0130
    1DIPC   D2B21838  18.027   2.377   3.758 -0.1701 -0.0349 -0.0255
    1DIPC   D3B21839  17.814   2.578   4.101 -0.1383  0.0305  0.1759
    1DIPC   C4B21840  17.769   3.065   4.243  0.1276  0.2295 -0.0416
    1DIPC   NC321841   7.391  23.719   2.593  0.2867  0.0937 -0.3516
    1DIPC   PO421842   7.619  23.541   2.362 -0.2296  0.1666 -0.3147
    1DIPC   GL121843   7.758  23.529   2.853  0.0940 -0.1027  0.0059
    1DIPC   GL221844   7.339  23.401   2.933 -0.2138 -0.3288  0.3039
    1DIPC   C1A21845   7.591  23.732   3.215  0.2687  0.0246 -0.0214
    1DIPC   D2A21846   7.484  23.500   3.537 -0.1808  0.1241  0.1897
    1DIPC   D3A21847   7.564  23.448   3.970 -0.3312 -0.0984  0.4873
    1DIPC   C4A21848   7.238  23.498   4.301  0.1961 -0.2039  0.0113
    1DIPC   C1B21849   7.056  23.226   3.269  0.1956 -0.1019 -0.4025
    1DIPC   D2B21850   6.957  22.865   3.517  0.0176  0.1542  0.1902
    1DIPC   D3B21851   6.614  22.988   3.227 -0.2813 -0.0249 -0.0613
    1DIPC   C4B21852   6.508  23.363   3.325  0.2277  0.2719 -0.1065
    1DIPC   NC321853   7.947   2.235   3.132  0.2151 -0.3360  0.4072
    1DIPC   PO421854   7.491   2.360   3.183  0.1708 -0.2550  0.0819
    1DIPC   GL121855   7.406   2.351   3.609  0.1324  0.2761  0.1288
    1DIPC   GL221856   7.716   2.261   3.705 -0.0992  0.0383 -0.0939
    1DIPC   C1A21857   7.343   2.126   4.061  0.2582  0.0202 -0.0781
    1DIPC   D2A21858   7.063   2.066   4.452  0.1024 -0.0435 -0.0503
    1DIPC   D3A21859   6.888   1.801   4.188 -0.1396 -0.1826 -0.0318
    1DIPC   C4A21860   6.530   1.646   4.421  0.3419 -0.0678  0.0733
    1DIPC   C1B21861   7.860   2.226   4.089  0.0064 -0.2292 -0.1676
    1DIPC   D2B21862   7.893   2.063   4.554 -0.1122  0.1143  0.0050
    1DIPC   D3B21863   7.536   2.104   4.796 -0.1846 -0.0434  0.0065
    1DIPC   C4B21864   7.434   2.218   5.149  0.1120  0.1391  0.3604
    1DIPC   NC321865  22.204  21.524   3.343  0.2261  0.3264  0.1214
    1DIPC   PO421866  21.801  21.529   3.572  0.4252 -0.0288  0.1115
    1DIPC   GL121867  21.726  21.802   3.882 -0.0288  0.2703  0.4215
    1DIPC   GL221868  21.777  22.100   3.872 -0.3008 -0.1144 -0.1473
    1DIPC   C1A21869  21.638  21.942   4.324 -0.2086 -0.3854  0.0754
    1DIPC   D2A21870  21.872  22.074   4.634  0.0669 -0.0667  0.0421
    1DIPC   D3A21871  21.961  21.630   4.563 -0.0975 -0.2858  0.0376
    1DIPC   C4A21872  21.851  21.475   4.198  0.2120  0.0612  0.4120
    1DIPC   C1B21873  22.143  22.088   4.216  0.1419  0.1539 -0.0632
    1DIPC   D2B21874  22.379  21.967   4.462 -0.0712  0.1449  0.2714
    1DIPC   D3B21875  22.592  21.931   4.160 -0.1909  0.0023  0.0016
    1DIPC   C4B21876  22.842  21.548   4.071  0.2375  0.2428 -0.1611
    1DIPC   NC321877  28.974  22.411   2.477 -0.2726  0.1853  0.2189
    1DIPC   PO421878  28.669  22.726   2.522 -0.2264  0.0743 -0.0121
    1DIPC   GL121879  28.675  22.912   2.929  0.2162 -0.0290 -0.0443
    1DIPC   GL221880  28.811  23.048   3.228 -0.0751  0.3675  0.0977
    1DIPC   C1A21881  28.500  22.655   3.298  0.0841  0.0948  0.1647
    1DIPC   D2A21882  28.686  22.678   3.658 -0.0325  0.0623  0.1235
    1DIPC   D3A21883  28.706  22.568   4.061 -0.0061 -0.0076  0.1978
    1DIPC   C4A21884  28.829  22.173   4.215  0.4530  0.1298  0.3716
    1DIPC   C1B21885  28.538  23.205   3.534  0.0765 -0.0563 -0.2568
    1DIPC   D2B21886  28.487  23.511   3.835  0.0347 -0.1146  0.2205
    1DIPC   D3B21887  28.304  23.558   4.111  0.1786  0.0406 -0.2377
    1DIPC   C4B21888  28.425  23.438   4.518  0.1691 -0.4689 -0.0360
    1DIPC   NC321889   4.010  13.611   2.454 -0.0765 -0.1307  0.0369
    1DIPC   PO421890   4.298  13.968   2.424 -0.1065  0.0204 -0.1419
    1DIPC   GL121891   4.186  13.965   2.807  0.0735 -0.1787 -0.0522
    1DIPC   GL221892   4.380  13.787   2.895 -0.2452 -0.0775  0.1536
    1DIPC   C1A21893   4.042  13.859   3.252  0.1283 -0.1252  0.0747
    1DIPC   D2A21894   3.962  14.175   3.669 -0.2107  0.2966  0.1551
    1DIPC   D3A21895   3.580  14.143   3.416 -0.1223 -0.0803 -0.0475
    1DIPC   C4A21896   3.623  13.871   3.010  0.2526  0.0899 -0.3623
    1DIPC   C1B21897   4.422  13.635   3.355 -0.5403  0.0789  0.2355
    1DIPC   D2B21898   4.220  13.707   3.757  0.0118 -0.2218 -0.2570
    1DIPC   D3B21899   3.852  13.460   3.907 -0.0811 -0.3321  0.2035
    1DIPC   C4B21900   3.617  13.249   4.226 -0.4611  0.0349 -0.0956
    1DIPC   NC321901  18.655   9.643   1.543 -0.0329 -0.1754 -0.1593
    1DIPC   PO421902  18.606   9.881   1.981  0.0770  0.2763 -0.0386
    1DIPC   GL121903  18.530  10.027   2.415 -0.0775  0.0347 -0.0942
    1DIPC   GL221904  18.307  10.318   2.483  0.0106 -0.3680  0.3232
    1DIPC   C1A21905  18.503  10.166   2.922 -0.0388  0.0487 -0.2516
    1DIPC   D2A21906  18.353  10.212   3.328  0.2796 -0.1804  0.2405
    1DIPC   D3A21907  18.418  10.464   3.645 -0.2290  0.0242  0.0355
    1DIPC   C4A21908  18.376  10.527   4.059 -0.1434  0.0835 -0.0667
    1DIPC   C1B21909  18.187  10.617   2.806 -0.0122 -0.1299 -0.0494
    1DIPC   D2B21910  18.177  10.805   3.228  0.1469 -0.0341 -0.0485
    1DIPC   D3B21911  17.976  10.600   3.508  0.2019  0.2933 -0.1463
    1DIPC   C4B21912  17.865  10.558   3.883 -0.3035  0.3413 -0.0472
    1DIPC   NC321913   3.825  26.987   2.195  0.2634 -0.1695  0.2417
    1DIPC   PO421914   3.403  26.790   2.445  0.2777 -0.2364  0.2876
    1DIPC   GL121915   3.217  26.888   2.817 -0.1226  0.0423  0.1483
    1DIPC   GL221916   3.245  27.236   2.994  0.3923 -0.1099  0.0439
    1DIPC   C1A21917   3.247  26.703   3.152 -0.1762  0.3394 -0.0920
    1DIPC   D2A21918   3.171  26.649   3.608 -0.1501  0.1724  0.0566
    1DIPC   D3A21919   2.699  26.340   3.553 -0.1839 -0.1500 -0.2186
    1DIPC   C4A21920   2.299  26.453   3.460  0.0274 -0.0471  0.1252
    1DIPC   C1B21921   3.068  27.194   3.390  0.1775 -0.0268  0.2084
    1DIPC   D2B21922   3.172  27.251   3.815 -0.3053 -0.2207  0.1906
    1DIPC   D3B21923   3.025  26.936   3.983  0.1293  0.0459  0.0113
    1DIPC   C4B21924   2.800  26.558   3.983 -0.2138  0.1646  0.2090
    1DIPC   NC321925  15.017   6.379   3.195 -0.0873 -0.0228 -0.3879
    1DIPC   PO421926  14.851   6.750   3.260  0.2262  0.1703 -0.0908
    1DIPC   GL121927  15.082   6.857   3.638 -0.1118 -0.0523 -0.2685
    1DIPC   GL221928  14.940   7.186   3.572 -0.0283  0.0930 -0.2517
    1DIPC   C1A21929  15.191   7.080   4.006 -0.0911 -0.2395  0.1917
    1DIPC   D2A21930  15.058   7.332   4.236  0.1672 -0.2086  0.3202
    1DIPC   D3A21931  15.378   7.287   4.582  0.0290  0.1684  0.0925
    1DIPC   C4A21932  15.369   7.201   5.081  0.0481  0.1059 -0.2025
    1DIPC   C1B21933  15.127   7.531   3.746 -0.0721  0.1016  0.0660
    1DIPC   D2B21934  15.185   7.755   4.056  0.0015  0.1421  0.0957
    1DIPC   D3B21935  15.190   8.105   3.894 -0.1106  0.1777 -0.2672
    1DIPC   C4B21936  15.182   8.490   3.938 -0.1455  0.1013  0.2685
    1DIPC   NC321937  28.002   3.844   3.473  0.1537  0.2818 -0.4760
    1DIPC   PO421938  28.338   3.996   3.283 -0.0235 -0.1554  0.1590
    1DIPC   GL121939  28.305   3.982   3.845  0.0941  0.0288  0.1014
    1DIPC   GL221940  28.196   4.167   4.083  0.3872 -0.0745  0.1185
    1DIPC   C1A21941  28.539   3.711   4.156 -0.1702  0.1476 -0.1737
    1DIPC   D2A21942  28.494   3.398   4.349 -0.1468  0.0677  0.2306
    1DIPC   D3A21943  28.766   3.301   4.676  0.0107  0.1570 -0.0250
    1DIPC   C4A21944  28.889   3.155   5.109  0.4076 -0.2065 -0.0288
    1DIPC   C1B21945  27.888   4.465   4.352  0.3010  0.4675 -0.3117
    1DIPC   D2B21946  27.803   4.805   4.570 -0.1049 -0.1941  0.2263
    1DIPC   D3B21947  28.228   4.992   4.713 -0.0243 -0.2330  0.2268
    1DIPC   C4B21948  28.427   4.866   5.042  0.0760  0.0460 -0.0225
    1DIPC   NC321949  11.597   2.122   3.323  0.3480  0.0818 -0.0105
    1DIPC   PO421950  11.205   2.087   3.496  0.3142 -0.1935  0.2301
    1DIPC   GL121951  11.531   2.127   3.873 -0.2280  0.0703 -0.4154
    1DIPC   GL221952  11.850   2.238   3.989 -0.1281 -0.1689  0.2415
    1DIPC   C1A21953  11.557   1.936   4.291 -0.0756  0.1800 -0.3067
    1DIPC   D2A21954  11.608   2.157   4.761 -0.0250 -0.0294 -0.0423
    1DIPC   D3A21955  11.304   2.175   5.090  0.0342  0.1830  0.2317
    1DIPC   C4A21956  10.962   1.998   5.192  0.0673 -0.0736 -0.2669
    1DIPC   C1B21957  11.986   2.123   4.436 -0.2156 -0.2523  0.1113
    1DIPC   D2B21958  11.977   1.817   4.755 -0.1466  0.0457  0.0450
    1DIPC   D3B21959  12.229   2.072   5.111  0.0260  0.2626 -0.3198
    1DIPC   C4B21960  12.368   2.486   5.228 -0.0499 -0.1106  0.0150
    1DIPC   NC321961   0.996   7.995   2.890  0.1868 -0.2556 -0.1275
    1DIPC   PO421962   1.101   8.276   3.194 -0.1834  0.3673 -0.0729
    1DIPC   GL121963   1.310   8.491   3.482 -0.1460  0.1605 -0.2224
    1DIPC   GL221964   1.571   8.389   3.612  0.2432 -0.0516 -0.0152
    1DIPC   C1A21965   1.243   8.861   3.608  0.3618 -0.2200 -0.0216
    1DIPC   D2A21966   1.656   9.080   3.655  0.0278  0.0938  0.0755
    1DIPC   D3A21967   1.919   8.768   3.553 -0.0480  0.1343  0.1698
    1DIPC   C4A21968   2.077   8.485   3.845 -0.0716  0.2325 -0.2265
    1DIPC   C1B21969   1.566   8.686   3.930  0.1475  0.1691  0.1937
    1DIPC   D2B21970   1.578   8.802   4.409 -0.1197  0.0163  0.1336
    1DIPC   D3B21971   1.213   9.029   4.307  0.1538  0.1497  0.2305
    1DIPC   C4B21972   1.216   9.248   3.896 -0.1294 -0.1302  0.3001
    1DIPC   NC321973   8.445  27.722   2.563  0.1262 -0.2061  0.2882
    1DIPC   PO421974   8.724  27.828   2.959  0.2378  0.0317 -0.1129
    1DIPC   GL121975   8.412  27.822   3.402  0.1156  0.0933 -0.0723
    1DIPC   GL221976   8.357  28.048   3.632 -0.0230 -0.1531 -0.2919
    1DIPC   C1A21977   8.155  27.503   3.606  0.1687  0.3217  0.0580
    1DIPC   D2A21978   7.965  27.052   3.660  0.0558  0.2098  0.2239
    1DIPC   D3A21979   8.056  26.744   3.753 -0.1239  0.4038  0.1337
    1DIPC   C4A21980   8.328  26.602   4.063 -0.2288  0.1768  0.0324
    1DIPC   C1B21981   8.618  27.690   3.806 -0.1750  0.2373 -0.2008
    1DIPC   D2B21982   8.823  27.475   4.045  0.0307  0.0713  0.0433
    1DIPC   D3B21983   8.681  27.198   4.399  0.1719  0.3473  0.0381
    1DIPC   C4B21984   8.825  26.715   4.236  0.0778 -0.3579 -0.3068
    1DIPC   NC321985   6.667   9.771   2.817 -0.0340 -0.2646  0.0028
    1DIPC   PO421986   6.352   9.898   3.116 -0.1724 -0.0601 -0.0817
    1DIPC   GL121987   6.362  10.024   3.559  0.2966  0.0326  0.0759
    1DIPC   GL221988   6.119  10.164   3.684 -0.2280 -0.2577 -0.0756
    1DIPC   C1A21989   6.276   9.865   4.045  0.2879  0.1784 -0.3329
    1DIPC   D2A21990   6.436  10.099   4.436 -0.0515  0.0083  0.0181
    1DIPC   D3A21991   6.220  10.465   4.798  0.2813  0.0250 -0.4151
    1DIPC   C4A21992   6.106  10.271   5.153  0.2441  0.0140  0.3294
    1DIPC   C1B21993   5.847  10.356   3.918  0.1571  0.0813  0.3021
    1DIPC   D2B21994   5.514  10.587   3.941 -0.1252 -0.2137 -0.2712
    1DIPC   D3B21995   5.468  10.627   4.421  0.1337 -0.0480  0.0743
    1DIPC   C4B21996   5.771  11.005   4.419  0.1519 -0.0400 -0.0380
    1DIPC   NC321997  25.401  26.053   3.054 -0.0534  0.2357  0.2128
    1DIPC   PO421998  24.990  25.767   3.021 -0.2031  0.0442  0.1013
    1DIPC   GL121999  25.095  25.876   3.427 -0.0870 -0.1003 -0.3195
    1DIPC   GL222000  24.889  26.125   3.663 -0.1356 -0.1949  0.0287
    1DIPC   C1A22001  25.115  25.697   3.855 -0.0489 -0.1025 -0.0012
    1DIPC   D2A22002  25.025  25.653   4.197  0.1045  0.0048 -0.2187
    1DIPC   D3A22003  25.142  26.079   4.361  0.1522 -0.2322  0.0425
    1DIPC   C4A22004  25.497  26.209   4.351  0.0534  0.1566  0.0107
    1DIPC   C1B22005  25.274  26.162   3.857 -0.2236  0.1337  0.0052
    1DIPC   D2B22006  25.708  26.155   3.926  0.0061 -0.2083 -0.0508
    1DIPC   D3B22007  25.683  26.653   4.137 -0.1834  0.2525  0.0919
    1DIPC   C4B22008  25.573  26.953   3.823  0.5159  0.1372 -0.0508
    1DIPC   NC322009  18.878   0.530   2.856 -0.0246 -0.2720 -0.2974
    1DIPC   PO422010  19.264   0.333   2.910 -0.0011 -0.0602  0.0450
    1DIPC   GL122011  19.535   0.305   3.364 -0.2786 -0.2503  0.0291
    1DIPC   GL222012  19.480   0.600   3.515 -0.1524 -0.0897  0.0988
    1DIPC   C1A22013  19.855   0.133   3.648  0.1061  0.0849  0.2926
    1DIPC   D2A22014  20.211  -0.111   3.567 -0.1363 -0.0933  0.2245
    1DIPC   D3A22015  20.489   0.015   3.895 -0.0229  0.0550 -0.1629
    1DIPC   C4A22016  20.516  -0.368   4.110  0.2433  0.1793 -0.0588
    1DIPC   C1B22017  19.503   0.416   3.921  0.0164 -0.2386  0.2565
    1DIPC   D2B22018  19.599   0.412   4.331  0.0852  0.3133 -0.1255
    1DIPC   D3B22019  19.198   0.292   4.264  0.0098  0.2011 -0.0091
    1DIPC   C4B22020  19.122   0.068   3.954  0.0367  0.2446 -0.1392
    1DIPC   NC322021  16.762   7.209   2.619 -0.0206 -0.0846 -0.0778
    1DIPC   PO422022  16.710   6.771   2.780  0.1215  0.1207  0.3993
    1DIPC   GL122023  16.813   6.603   3.090 -0.2359 -0.0480 -0.1557
    1DIPC   GL222024  16.830   6.229   3.106 -0.2039  0.0340 -0.1754
    1DIPC   C1A22025  17.187   6.434   3.434 -0.1266  0.0436 -0.0619
    1DIPC   D2A22026  17.410   6.400   3.819 -0.0650 -0.0683 -0.1658
    1DIPC   D3A22027  17.100   6.587   4.196 -0.0523  0.1475 -0.0079
    1DIPC   C4A22028  17.042   6.281   4.587 -0.1766 -0.4448  0.0953
    1DIPC   C1B22029  17.298   6.044   3.176 -0.1583  0.2486  0.0574
    1DIPC   D2B22030  17.648   6.075   3.487 -0.0018 -0.2192  0.4549
    1DIPC   D3B22031  17.608   5.901   3.821  0.0027 -0.0612 -0.0163
    1DIPC   C4B22032  17.911   5.580   3.682  0.1127 -0.0069 -0.1708
    1DIPC   NC322033   8.226   1.290   3.089 -0.2816 -0.1714  0.1635
    1DIPC   PO422034   7.838   1.383   3.339  0.2864 -0.3716  0.1829
    1DIPC   GL122035   7.691   1.327   3.671  0.1317  0.0791 -0.3781
    1DIPC   GL222036   7.892   1.167   3.792  0.2919  0.1865  0.3101
    1DIPC   C1A22037   7.385   1.184   4.003 -0.3786 -0.3689  0.0244
    1DIPC   D2A22038   7.189   1.084   4.341  0.2779 -0.0999  0.2544
    1DIPC   D3A22039   7.589   1.257   4.539  0.2756 -0.1744  0.2429
    1DIPC   C4A22040   7.656   1.070   5.007  0.2061 -0.1678 -0.0174
    1DIPC   C1B22041   7.951   1.077   4.139  0.0437 -0.0369  0.0100
    1DIPC   D2B22042   8.154   0.770   4.160 -0.3581  0.1631  0.0969
    1DIPC   D3B22043   8.453   0.915   3.990 -0.4947  0.0973  0.1526
    1DIPC   C4B22044   8.598   1.283   4.079  0.2002  0.1188 -0.0396
    1DIPC   NC322045  20.999   8.639   2.084  0.3348 -0.1619  0.1320
    1DIPC   PO422046  20.821   8.594   2.475  0.1438 -0.0325 -0.1762
    1DIPC   GL122047  20.636   8.614   2.813 -0.0436  0.0984 -0.1693
    1DIPC   GL222048  20.279   8.645   2.873  0.1794 -0.0149  0.2253
    1DIPC   C1A22049  20.724   8.602   3.238  0.1313 -0.0414 -0.0231
    1DIPC   D2A22050  20.647   8.931   3.585 -0.2440  0.2490 -0.2682
    1DIPC   D3A22051  20.761   9.100   4.057 -0.1215 -0.0571 -0.1173
    1DIPC   C4A22052  21.088   9.448   4.225 -0.1223 -0.0370  0.0021
    1DIPC   C1B22053  20.350   8.290   3.122 -0.2372 -0.0143 -0.0056
    1DIPC   D2B22054  20.341   7.995   3.350  0.0182  0.2044  0.0686
    1DIPC   D3B22055  20.576   8.227   3.626  0.1068  0.2904 -0.0942
    1DIPC   C4B22056  20.690   8.180   4.066  0.2602 -0.0185 -0.0565
    1DIPC   NC322057  26.345  28.907   3.235 -0.0563 -0.0028  0.0923
    1DIPC   PO422058  26.397  29.304   3.129 -0.0741 -0.2889  0.0895
    1DIPC   GL122059  26.600  29.235   3.543  0.2527 -0.0581  0.0760
    1DIPC   GL222060  26.874  29.496   3.655  0.0222 -0.2693  0.0680
    1DIPC   C1A22061  26.670  29.073   3.945 -0.0730  0.1238  0.1448
    1DIPC   D2A22062  26.565  28.909   4.138  0.4293 -0.3879 -0.1166
    1DIPC   D3A22063  26.363  28.989   4.558  0.1935 -0.1171  0.2508
    1DIPC   C4A22064  26.355  28.767   4.936 -0.0671 -0.1421  0.1790
    1DIPC   C1B22065  26.882  29.639   4.057 -0.0653  0.2961 -0.1548
    1DIPC   D2B22066  26.806  29.779   4.557  0.0240  0.0104 -0.2991
    1DIPC   D3B22067  26.684  29.826   4.994  0.2180 -0.1084 -0.0078
    1DIPC   C4B22068  26.751  30.176   5.095  0.0032  0.2640 -0.0717
    1DIPC   NC322069  17.621  23.120   3.158  0.3199  0.0067  0.0650
    1DIPC   PO422070  17.630  22.694   3.070  0.1291 -0.2325  0.2191
    1DIPC   GL122071  17.334  22.365   3.245 -0.0783  0.1110 -0.2689
    1DIPC   GL222072  17.075  22.078   3.190 -0.2369 -0.1567 -0.1890
    1DIPC   C1A22073  17.175  22.503   3.601  0.1780  0.0427 -0.0452
    1DIPC   D2A22074  16.936  22.517   4.031  0.1174  0.0094 -0.1108
    1DIPC   D3A22075  17.125  22.232   4.397  0.0757  0.1457  0.2773
    1DIPC   C4A22076  17.623  22.236   4.536  0.2573  0.1762 -0.1084
    1DIPC   C1B22077  16.984  22.002   3.596 -0.3459 -0.0771 -0.1143
    1DIPC   D2B22078  16.840  21.935   4.023 -0.0174  0.2600 -0.5102
    1DIPC   D3B22079  16.955  21.746   4.528  0.2361  0.4761 -0.0850
    1DIPC   C4B22080  16.624  21.743   4.651 -0.2773 -0.0952 -0.1006
    1DIPC   NC322081  25.398   6.174   2.682  0.1732 -0.2208  0.2853
    1DIPC   PO422082  25.024   6.362   2.999 -0.1934 -0.2381 -0.0069
    1DIPC   GL122083  25.142   6.501   3.480 -0.0184  0.2626  0.2559
    1DIPC   GL222084  24.851   6.528   3.684  0.1303 -0.2278  0.2419
    1DIPC   C1A22085  25.356   6.497   3.848 -0.0371 -0.0273 -0.1645
    1DIPC   D2A22086  25.281   6.322   4.308 -0.0116  0.1336  0.0265
    1DIPC   D3A22087  25.714   6.312   4.566  0.0345  0.1384  0.1086
    1DIPC   C4A22088  26.175   6.622   4.576  0.0085  0.0673 -0.1458
    1DIPC   C1B22089  24.894   6.688   4.178 -0.1498 -0.0210 -0.1494
    1DIPC   D2B22090  24.817   7.123   4.476  0.2036  0.3387  0.1362
    1DIPC   D3B22091  25.282   7.069   4.703 -0.1872  0.0104 -0.0350
    1DIPC   C4B22092  25.642   7.338   4.508  0.0558  0.2077  0.2464
    1DIPC   NC322093  16.001   0.284   3.281 -0.2489 -0.4619  0.0617
    1DIPC   PO422094  15.751  -0.072   3.539 -0.1103 -0.0134  0.0399
    1DIPC   GL122095  15.880  -0.256   3.922 -0.0469 -0.0507 -0.2132
    1DIPC   GL222096  15.491  -0.232   4.062  0.0677  0.2048 -0.1822
    1DIPC   C1A22097  15.997  -0.151   4.420  0.0378  0.1497  0.2552
    1DIPC   D2A22098  15.800   0.055   4.700 -0.1311  0.0898 -0.0607
    1DIPC   D3A22099  16.111   0.263   4.793 -0.0213  0.0466  0.2022
    1DIPC   C4A22100  16.405   0.122   4.368  0.4199 -0.0177 -0.0135
    1DIPC   C1B22101  15.525  -0.267   4.485 -0.2131  0.2135 -0.3273
    1DIPC   D2B22102  15.788  -0.433   4.883 -0.2785  0.1383  0.0852
    1DIPC   D3B22103  15.945  -0.094   5.183  0.0106  0.0894  0.1355
    1DIPC   C4B22104  15.689  -0.108   5.533 -0.0174 -0.0677  0.0662
    1DIPC   NC322105  28.397  10.515   2.058  0.0777 -0.1233  0.2859
    1DIPC   PO422106  28.050  10.604   2.301 -0.0766 -0.1254 -0.1360
    1DIPC   GL122107  27.956  10.343   2.662 -0.3294 -0.2659  0.1736
    1DIPC   GL222108  28.176  10.164   2.819 -0.1792 -0.2777  0.0506
    1DIPC   C1A22109  27.857  10.396   3.100 -0.1765  0.0089 -0.1420
    1DIPC   D2A22110  27.992  10.561   3.512 -0.0963 -0.1921  0.4041
    1DIPC   D3A22111  28.207  10.919   3.717  0.3565 -0.0752 -0.1832
    1DIPC   C4A22112  28.493  11.130   3.553  0.1707  0.1609 -0.3262
    1DIPC   C1B22113  28.344  10.444   3.084  0.2528  0.2884 -0.0850
    1DIPC   D2B22114  28.384  10.799   3.197  0.0876  0.1510  0.0393
    1DIPC   D3B22115  28.515  10.515   3.591 -0.1006  0.3379  0.0216
    1DIPC   C4B22116  28.539  10.534   3.988  0.2382 -0.1507  0.0820
    1DIPC   NC322117  28.107  28.492   2.781  0.1170  0.0358 -0.1081
    1DIPC   PO422118  28.388  28.196   2.781 -0.2592  0.4649 -0.0643
    1DIPC   GL122119  28.218  28.063   3.183 -0.0012  0.1774 -0.1922
    1DIPC   GL222120  28.433  27.948   3.422  0.0468 -0.0693  0.1618
    1DIPC   C1A22121  27.994  28.101   3.633  0.1074 -0.2902  0.1489
    1DIPC   D2A22122  27.670  28.102   4.036 -0.0637 -0.1208 -0.1073
    1DIPC   D3A22123  27.976  27.854   4.110  0.0545  0.1664 -0.1574
    1DIPC   C4A22124  27.780  27.499   4.272 -0.0911 -0.1198  0.0028
    1DIPC   C1B22125  28.799  28.081   3.800 -0.0317  0.2654  0.0596
    1DIPC   D2B22126  28.710  27.869   4.317  0.0028  0.0356 -0.0261
    1DIPC   D3B22127  29.055  28.173   4.352  0.1638 -0.0621  0.1887
    1DIPC   C4B22128  29.461  28.197   4.564  0.1052  0.0222 -0.1104
    1DIPC   NC322129  21.608   9.172   2.369 -0.0011  0.2947 -0.0345
    1DIPC   PO422130  21.641   8.956   2.830  0.0234 -0.1980  0.1532
    1DIPC   GL122131  21.558   9.116   3.208 -0.0044 -0.0774 -0.0441
    1DIPC   GL222132  21.571   9.433   3.156  0.2660  0.1534  0.1316
    1DIPC   C1A22133  21.789   9.174   3.564 -0.4076  0.2533 -0.3535
    1DIPC   D2A22134  21.946   9.002   4.011  0.0015 -0.0825 -0.1068
    1DIPC   D3A22135  22.335   8.938   4.269  0.3064  0.2074 -0.1966
    1DIPC   C4A22136  22.238   8.790   4.686  0.2018  0.1709 -0.0836
    1DIPC   C1B22137  21.833   9.657   3.567  0.1486  0.0673 -0.0311
    1DIPC   D2B22138  21.910   9.494   3.949 -0.0755  0.3310 -0.1092
    1DIPC   D3B22139  22.085  10.026   4.192  0.0649 -0.2544  0.1921
    1DIPC   C4B22140  22.020  10.115   4.490  0.3428  0.1717  0.1047
    1DIPC   NC322141  22.165  29.698   2.905  0.1944 -0.0053 -0.0533
    1DIPC   PO422142  22.251  29.270   3.210 -0.1962  0.2743 -0.1594
    1DIPC   GL122143  22.333  28.934   3.634 -0.0988 -0.0891  0.1460
    1DIPC   GL222144  22.688  28.911   3.717  0.0251 -0.0722  0.4934
    1DIPC   C1A22145  22.119  28.694   3.963 -0.1116 -0.1615 -0.1205
    1DIPC   D2A22146  22.254  28.587   4.363  0.2523  0.2884 -0.3731
    1DIPC   D3A22147  22.504  28.888   4.519 -0.1765  0.0540  0.2570
    1DIPC   C4A22148  22.418  29.141   4.913  0.2030 -0.0555  0.0897
    1DIPC   C1B22149  22.734  28.711   4.077  0.1231 -0.0798  0.0384
    1DIPC   D2B22150  22.715  28.250   4.192 -0.0034 -0.3245  0.4568
    1DIPC   D3B22151  22.841  28.356   4.567  0.0675 -0.0678 -0.1602
    1DIPC   C4B22152  23.136  28.710   4.606 -0.1743  0.1017  0.2309
    1DIPC   NC322153  20.263   3.389   2.571  0.0942  0.3335 -0.1753
    1DIPC   PO422154  19.901   3.078   2.788 -0.0093 -0.0259 -0.2789
    1DIPC   GL122155  20.192   2.843   3.061 -0.1882 -0.2702 -0.0748
    1DIPC   GL222156  20.197   2.538   3.326  0.2921 -0.0104  0.3590
    1DIPC   C1A22157  20.535   3.069   3.380 -0.1895 -0.0843 -0.1237
    1DIPC   D2A22158  20.596   2.785   3.730  0.0271  0.3173  0.0055
    1DIPC   D3A22159  20.546   2.284   3.708  0.0196 -0.0273 -0.0366
    1DIPC   C4A22160  20.473   1.976   3.351  0.2421  0.2457  0.3478
    1DIPC   C1B22161  20.058   2.897   3.578  0.2356 -0.1734 -0.1551
    1DIPC   D2B22162  20.258   3.148   3.764  0.2216  0.0713 -0.1111
    1DIPC   D3B22163  20.126   3.424   4.068 -0.0032 -0.0722 -0.0416
    1DIPC   C4B22164  20.179   3.229   4.531  0.0381  0.4044 -0.1276
    1DIPC   NC322165  16.878  24.626   2.496  0.0613  0.0272  0.0111
    1DIPC   PO422166  16.739  24.108   2.654 -0.2103  0.0390  0.0073
    1DIPC   GL122167  16.567  24.075   3.028  0.1944  0.1886  0.0896
    1DIPC   GL222168  16.848  24.133   3.224 -0.1585 -0.1161  0.2485
    1DIPC   C1A22169  16.663  23.688   3.407 -0.0915  0.1103 -0.0807
    1DIPC   D2A22170  16.962  23.442   3.675 -0.0509 -0.1358  0.3345
    1DIPC   D3A22171  16.779  23.653   3.885  0.0482 -0.1375  0.0027
    1DIPC   C4A22172  16.432  23.577   4.209  0.0648  0.4673 -0.1867
    1DIPC   C1B22173  16.964  23.986   3.575  0.0316 -0.3495 -0.2766
    1DIPC   D2B22174  17.021  24.048   4.057 -0.0895  0.0189 -0.0495
    1DIPC   D3B22175  16.851  23.773   4.417 -0.1797 -0.1969 -0.0643
    1DIPC   C4B22176  17.171  23.597   4.675  0.0019 -0.2419 -0.4717
    1DIPC   NC322177  13.824  21.821   2.453 -0.1265 -0.0322  0.2896
    1DIPC   PO422178  13.443  21.589   2.565 -0.0810  0.1892 -0.0282
    1DIPC   GL122179  13.324  21.996   2.805 -0.0736 -0.0137 -0.0622
    1DIPC   GL222180  13.083  22.243   2.682 -0.2057 -0.2973  0.1616
    1DIPC   C1A22181  13.399  22.269   3.181  0.2447  0.2552  0.0127
    1DIPC   D2A22182  13.339  22.391   3.649  0.0326 -0.3038 -0.0526
    1DIPC   D3A22183  13.717  22.442   3.869 -0.2983  0.1784 -0.0359
    1DIPC   C4A22184  13.954  22.884   3.954  0.0102 -0.1426 -0.1330
    1DIPC   C1B22185  12.887  22.289   3.045 -0.1240 -0.0036  0.1961
    1DIPC   D2B22186  12.617  22.127   3.292 -0.1015  0.2230 -0.3581
    1DIPC   D3B22187  12.695  21.642   3.489  0.0215 -0.0663 -0.1607
    1DIPC   C4B22188  12.766  21.529   4.004 -0.1139 -0.0577  0.1670
    1DIPC   NC322189   0.263   3.702   2.856  0.1605 -0.1112  0.2063
    1DIPC   PO422190  -0.051   3.991   2.645  0.2534  0.1073 -0.1014
    1DIPC   GL122191  -0.052   4.027   3.103 -0.0947 -0.1174 -0.1189
    1DIPC   GL222192  -0.251   3.918   3.397  0.4210  0.4918 -0.1297
    1DIPC   C1A22193   0.102   4.377   3.470 -0.3210 -0.0473 -0.1082
    1DIPC   D2A22194   0.492   4.616   3.525 -0.0004  0.0004 -0.1712
    1DIPC   D3A22195   0.498   4.473   3.908 -0.2083  0.2077  0.1780
    1DIPC   C4A22196   0.775   4.545   4.246 -0.0893 -0.1201  0.2627
    1DIPC   C1B22197  -0.177   3.660   3.760  0.1284 -0.1677  0.1626
    1DIPC   D2B22198  -0.155   3.562   4.167 -0.2115 -0.0595 -0.0598
    1DIPC   D3B22199  -0.404   3.741   4.472  0.4649  0.2036 -0.2620
    1DIPC   C4B22200  -0.845   3.601   4.445  0.1647  0.0335  0.0592
    1DIPC   NC322201   1.973  19.154   1.996  0.1618 -0.2919  0.4377
    1DIPC   PO422202   2.038  19.571   2.396 -0.1232  0.1795  0.0057
    1DIPC   GL122203   1.950  19.395   2.759 -0.1747  0.1760  0.2716
    1DIPC   GL222204   1.904  19.083   2.842 -0.1729  0.2951 -0.0485
    1DIPC   C1A22205   2.076  19.457   3.199  0.1129  0.2901  0.0103
    1DIPC   D2A22206   2.190  19.756   3.447  0.2137 -0.0678  0.0855
    1DIPC   D3A22207   1.863  20.137   3.509 -0.2143 -0.0608  0.3944
    1DIPC   C4A22208   1.662  20.309   3.905  0.0989  0.1535 -0.2087
    1DIPC   C1B22209   1.886  18.758   3.153 -0.0727  0.2131  0.1301
    1DIPC   D2B22210   1.732  18.626   3.533  0.0896  0.0953  0.1195
    1DIPC   D3B22211   1.412  18.852   3.841 -0.1990 -0.0924  0.1529
    1DIPC   C4B22212   1.106  18.810   4.187  0.1516 -0.3222 -0.0023
    1DIPC   NC322213   5.333  26.453   2.659 -0.1056 -0.1036 -0.0217
    1DIPC   PO422214   5.499  26.831   2.845 -0.2341  0.0004  0.4458
    1DIPC   GL122215   5.630  26.804   3.300 -0.1978 -0.0500  0.0126
    1DIPC   GL222216   5.980  26.802   3.287  0.1109 -0.0422  0.3149
    1DIPC   C1A22217   5.428  26.865   3.693  0.1577 -0.0876 -0.3665
    1DIPC   D2A22218   5.483  26.964   4.012  0.2508 -0.1278  0.0443
    1DIPC   D3A22219   5.141  26.743   4.133  0.0803 -0.0368 -0.2100
    1DIPC   C4A22220   4.997  26.550   4.444 -0.2100 -0.1911 -0.1844
    1DIPC   C1B22221   6.073  26.841   3.744 -0.0234  0.1080  0.3782
    1DIPC   D2B22222   6.073  26.948   4.086  0.0527  0.1814 -0.2163
    1DIPC   D3B22223   5.855  27.053   4.401 -0.2269 -0.2087  0.4058
    1DIPC   C4B22224   5.704  27.082   4.797  0.0304  0.0769 -0.0216
    1DIPC   NC322225  22.084  28.104   3.213 -0.1352  0.0428 -0.1835
    1DIPC   PO422226  21.783  28.404   3.073 -0.1156  0.0583 -0.2457
    1DIPC   GL122227  21.525  28.599   3.424  0.1341  0.0882  0.0737
    1DIPC   GL222228  21.205  28.783   3.387 -0.0251  0.1878 -0.1102
    1DIPC   C1A22229  21.648  28.803   3.819  0.1735  0.4345 -0.1501
    1DIPC   D2A22230  21.707  29.020   4.131  0.2988  0.0644 -0.0013
    1DIPC   D3A22231  21.458  28.832   4.475  0.0033 -0.1220 -0.0788
    1DIPC   C4A22232  21.647  28.753   4.909  0.1427 -0.0114  0.2662
    1DIPC   C1B22233  21.178  28.772   3.837 -0.0127  0.2044 -0.2776
    1DIPC   D2B22234  21.381  28.451   4.191 -0.4752  0.2041  0.1305
    1DIPC   D3B22235  21.782  28.494   4.391  0.2241  0.0620  0.1809
    1DIPC   C4B22236  21.809  28.306   4.813  0.0398  0.3881  0.0488
    1DIPC   NC322237  15.214   9.510   2.632 -0.0427  0.2794 -0.0189
    1DIPC   PO422238  15.251  10.004   2.545 -0.0916 -0.0348  0.0046
    1DIPC   GL122239  15.489   9.768   3.013  0.2252 -0.1322  0.2841
    1DIPC   GL222240  15.817   9.870   3.073  0.0889  0.1737 -0.3540
    1DIPC   C1A22241  15.447   9.929   3.451  0.0314  0.2890 -0.0040
    1DIPC   D2A22242  15.514  10.049   3.825 -0.0331 -0.1627  0.1924
    1DIPC   D3A22243  15.621  10.430   3.928  0.2543  0.0583 -0.0681
    1DIPC   C4A22244  15.697  10.588   4.265 -0.0728 -0.1551 -0.2886
    1DIPC   C1B22245  15.881   9.797   3.548 -0.0216  0.3052  0.0480
    1DIPC   D2B22246  16.195   9.999   3.861 -0.0859  0.1160  0.4225
    1DIPC   D3B22247  16.536   9.696   3.782 -0.2840 -0.1143 -0.1414
    1DIPC   C4B22248  16.621   9.667   4.128  0.2301  0.2502  0.0653
    1DIPC   NC322249   0.829  10.872   2.858  0.0941 -0.0027  0.2449
    1DIPC   PO422250   1.049  11.101   3.174  0.0194  0.4502 -0.0092
    1DIPC   GL122251   0.775  10.991   3.388 -0.2103  0.0584 -0.2813
    1DIPC   GL222252   0.615  11.166   3.572  0.0180 -0.1706  0.0244
    1DIPC   C1A22253   0.749  10.667   3.628  0.0184 -0.1018 -0.0290
    1DIPC   D2A22254   0.672  10.246   3.830  0.0565 -0.0416  0.0124
    1DIPC   D3A22255   1.078  10.224   4.011  0.0278  0.0465 -0.1368
    1DIPC   C4A22256   1.436  10.556   4.029 -0.5119 -0.0751 -0.2950
    1DIPC   C1B22257   0.418  11.131   3.986 -0.0715  0.3005 -0.0267
    1DIPC   D2B22258   0.229  11.120   4.402  0.1507 -0.0458 -0.1016
    1DIPC   D3B22259   0.482  11.349   4.744  0.1378 -0.0246 -0.1373
    1DIPC   C4B22260   0.913  11.335   4.721 -0.1090  0.1429 -0.2578
    1DIPC   NC322261   0.261  16.512   2.315 -0.1730  0.1999  0.3224
    1DIPC   PO422262   0.104  16.767   2.590  0.4449 -0.0544  0.1308
    1DIPC   GL122263   0.127  16.429   2.841  0.0692 -0.0659 -0.2009
    1DIPC   GL222264   0.475  16.246   2.911  0.1740 -0.0026  0.1324
    1DIPC   C1A22265   0.046  16.091   3.064 -0.1093 -0.1979  0.1964
    1DIPC   D2A22266  -0.357  15.942   3.131 -0.0347  0.2921 -0.0756
    1DIPC   D3A22267  -0.478  16.155   3.419  0.0467  0.3451 -0.2327
    1DIPC   C4A22268  -0.843  16.344   3.377 -0.2521 -0.1476  0.0760
    1DIPC   C1B22269   0.365  16.476   3.358 -0.4013 -0.1812 -0.1068
    1DIPC   D2B22270   0.606  16.251   3.691  0.2912 -0.0477  0.2317
    1DIPC   D3B22271   0.868  16.126   3.527 -0.1268 -0.3659  0.0062
    1DIPC   C4B22272   0.920  16.373   3.129  0.0572 -0.0716  0.0286
    1DIPC   NC322273  25.751   0.538   3.284 -0.1709  0.3232  0.2043
    1DIPC   PO422274  25.519   0.857   3.377 -0.0864  0.1978  0.0289
    1DIPC   GL122275  25.486   0.933   3.772 -0.1657 -0.0435 -0.2184
    1DIPC   GL222276  25.225   0.934   3.931 -0.0470 -0.2429 -0.2180
    1DIPC   C1A22277  25.575   1.076   4.236 -0.2960 -0.3134 -0.0073
    1DIPC   D2A22278  25.500   1.192   4.664 -0.0114 -0.0832 -0.1258
    1DIPC   D3A22279  25.518   1.574   4.562  0.3030 -0.1908 -0.2432
    1DIPC   C4A22280  25.414   1.731   4.959 -0.1753  0.0995  0.3068
    1DIPC   C1B22281  24.971   1.043   4.257 -0.0075 -0.0070  0.4593
    1DIPC   D2B22282  25.039   1.451   4.614 -0.0314 -0.2151  0.1908
    1DIPC   D3B22283  25.043   1.079   4.865  0.0900  0.0746 -0.1761
    1DIPC   C4B22284  24.880   0.978   5.209  0.3277 -0.0495 -0.0971
    1DIPC   NC322285   5.629  15.236   2.554  0.0711  0.2683  0.2262
    1DIPC   PO422286   5.555  15.577   2.332 -0.5288 -0.3123 -0.1760
    1DIPC   GL122287   5.789  15.631   2.743 -0.2522  0.3284  0.2569
    1DIPC   GL222288   5.781  15.877   3.106  0.0326 -0.1493 -0.0909
    1DIPC   C1A22289   5.858  15.373   3.143  0.1370  0.0057  0.0588
    1DIPC   D2A22290   6.143  15.100   3.376  0.1508  0.1983 -0.1606
    1DIPC   D3A22291   5.828  15.150   3.790 -0.0063  0.0500  0.3178
    1DIPC   C4A22292   5.459  15.204   3.608 -0.0078  0.0704 -0.4664
    1DIPC   C1B22293   6.114  16.093   3.379 -0.4066 -0.1380 -0.2042
    1DIPC   D2B22294   6.381  16.426   3.440 -0.0564  0.0811 -0.0301
    1DIPC   D3B22295   6.685  16.423   3.724 -0.0108  0.0649  0.2080
    1DIPC   C4B22296   7.106  16.539   3.756 -0.1659 -0.1778 -0.0714
    1DIPC   NC322297  29.260  11.851   2.752  0.0004  0.1530  0.0313
    1DIPC   PO422298  28.874  11.603   2.583 -0.2731  0.0969 -0.1902
    1DIPC   GL122299  28.823  11.747   3.043 -0.1928 -0.0615  0.1955
    1DIPC   GL222300  28.557  11.744   2.936 -0.1480  0.4051  0.3441
    1DIPC   C1A22301  28.935  12.001   3.396  0.0347 -0.4348 -0.0187
    1DIPC   D2A22302  29.352  12.281   3.596  0.2612 -0.0675 -0.0885
    1DIPC   D3A22303  29.394  12.222   4.008 -0.0040  0.3187  0.0676
    1DIPC   C4A22304  29.132  12.536   4.235 -0.2067  0.2664 -0.2318
    1DIPC   C1B22305  28.496  11.628   3.404  0.4006 -0.2629  0.2901
    1DIPC   D2B22306  28.303  11.615   3.752  0.2162 -0.2740 -0.0627
    1DIPC   D3B22307  28.653  11.767   3.844 -0.0622  0.1451 -0.0884
    1DIPC   C4B22308  28.786  12.009   4.284 -0.4135 -0.2846  0.1033
    1DIPC   NC322309   5.884   8.505   3.582  0.1078 -0.0248 -0.1805
    1DIPC   PO422310   5.644   8.825   3.613  0.0770 -0.1127  0.1866
    1DIPC   GL122311   5.474   8.523   3.896 -0.0442 -0.1003 -0.0912
    1DIPC   GL222312   5.155   8.319   3.835  0.1407  0.0418  0.0880
    1DIPC   C1A22313   5.166   8.557   4.268  0.1378  0.0077  0.1085
    1DIPC   D2A22314   4.841   8.405   4.570  0.1394 -0.0906  0.0592
    1DIPC   D3A22315   4.620   8.312   4.917  0.0548 -0.1200  0.0605
    1DIPC   C4A22316   4.220   8.382   5.006 -0.2256 -0.0039  0.0332
    1DIPC   C1B22317   4.836   8.248   4.069  0.2233 -0.2481  0.1799
    1DIPC   D2B22318   4.511   7.997   4.262  0.0614  0.2654 -0.0197
    1DIPC   D3B22319   4.324   8.461   4.471 -0.0028  0.0008  0.0199
    1DIPC   C4B22320   4.407   8.797   4.722 -0.1146  0.0370  0.0204
    1DIPC   NC322321   5.697   3.604   3.863 -0.2897 -0.0845  0.1350
    1DIPC   PO422322   5.873   3.316   3.732  0.0280 -0.4271 -0.0655
    1DIPC   GL122323   5.721   3.232   4.205 -0.1171  0.2910 -0.0761
    1DIPC   GL222324   5.908   2.982   4.455  0.2651  0.0504  0.0766
    1DIPC   C1A22325   5.621   3.567   4.516  0.0736  0.0531 -0.4644
    1DIPC   D2A22326   5.461   3.821   4.941 -0.0410  0.2563  0.2706
    1DIPC   D3A22327   5.604   3.456   4.981 -0.3240 -0.2917 -0.6182
    1DIPC   C4A22328   5.818   3.294   5.365 -0.0488  0.0861 -0.1446
    1DIPC   C1B22329   6.127   2.927   4.859 -0.0111 -0.1406  0.0413
    1DIPC   D2B22330   6.503   2.626   4.964 -0.1533 -0.1381 -0.1064
    1DIPC   D3B22331   6.567   2.183   5.212 -0.1487 -0.0709 -0.4819
    1DIPC   C4B22332   6.507   2.093   5.609  0.1617  0.1037 -0.2378
    1DIPC   NC322333  14.163  22.523   2.068 -0.3998  0.0676  0.1608
    1DIPC   PO422334  14.084  22.212   2.344  0.0088 -0.3357  0.2003
    1DIPC   GL122335  14.075  22.148   2.704 -0.0385 -0.4636  0.0520
    1DIPC   GL222336  14.297  22.148   2.946  0.1652 -0.0378 -0.1032
    1DIPC   C1A22337  13.838  22.101   3.058 -0.0682 -0.0320  0.1088
    1DIPC   D2A22338  13.777  22.079   3.481 -0.2174 -0.1803  0.3049
    1DIPC   D3A22339  14.063  22.086   3.837  0.1438  0.3223 -0.0252
    1DIPC   C4A22340  14.077  22.436   4.176  0.2152  0.1748  0.1796
    1DIPC   C1B22341  14.232  22.378   3.328  0.0200 -0.0333  0.0567
    1DIPC   D2B22342  14.304  22.502   3.776  0.2537  0.1135 -0.1621
    1DIPC   D3B22343  14.491  22.230   4.041 -0.1192  0.2724 -0.1582
    1DIPC   C4B22344  14.922  22.093   4.176 -0.0946 -0.0146  0.2213
    1DIPC   NC322345  19.136  25.662   3.283  0.2045 -0.3788  0.0089
    1DIPC   PO422346  18.895  25.342   3.607 -0.2558  0.2889  0.3596
    1DIPC   GL122347  19.281  25.488   3.802 -0.1679  0.0313  0.0916
    1DIPC   GL222348  19.549  25.457   3.616 -0.0888  0.0249 -0.1454
    1DIPC   C1A22349  19.643  25.558   4.121  0.0581  0.0333  0.2147
    1DIPC   D2A22350  19.611  25.452   4.538  0.1292 -0.1496  0.1109
    1DIPC   D3A22351  19.770  25.806   4.690 -0.0094 -0.1755  0.0640
    1DIPC   C4A22352  19.599  26.270   4.581 -0.3873 -0.2079 -0.1018
    1DIPC   C1B22353  19.944  25.773   3.769 -0.2484  0.0299  0.3060
    1DIPC   D2B22354  20.390  25.894   3.800  0.0422  0.0106  0.0991
    1DIPC   D3B22355  20.415  26.308   4.122 -0.3512  0.0827 -0.1785
    1DIPC   C4B22356  20.054  26.531   4.283  0.0082 -0.1655 -0.0179
    1DIPC   NC322357  19.457  21.627   2.471 -0.0017  0.1081  0.2690
    1DIPC   PO422358  19.388  21.437   2.828 -0.0857  0.3715 -0.2583
    1DIPC   GL122359  19.289  21.315   3.300 -0.3346 -0.1091 -0.2843
    1DIPC   GL222360  18.985  21.287   3.432 -0.2303 -0.3161 -0.1809
    1DIPC   C1A22361  19.378  21.354   3.724 -0.0338 -0.0470 -0.0672
    1DIPC   D2A22362  19.381  21.355   4.122  0.1490 -0.2664 -0.0812
    1DIPC   D3A22363  19.784  21.141   4.214  0.0256  0.0515 -0.0488
    1DIPC   C4A22364  19.912  20.858   3.982  0.0403  0.2294 -0.0233
    1DIPC   C1B22365  18.662  21.262   3.706  0.3674 -0.1637 -0.2524
    1DIPC   D2B22366  18.591  21.339   4.051 -0.2932 -0.0599 -0.2015
    1DIPC   D3B22367  18.484  21.371   4.428  0.0418  0.1763 -0.2655
    1DIPC   C4B22368  18.655  21.436   4.870  0.2102  0.0639 -0.1678
    1DIPC   NC322369  26.669   1.582   2.926  0.0571 -0.2739 -0.1296
    1DIPC   PO422370  27.105   1.659   2.994 -0.0924  0.0493  0.0908
    1DIPC   GL122371  26.988   1.648   3.496  0.3450  0.2360  0.3243
    1DIPC   GL222372  27.021   1.944   3.615 -0.0266  0.1263 -0.2449
    1DIPC   C1A22373  26.785   1.537   3.805  0.0699 -0.0390 -0.1312
    1DIPC   D2A22374  26.583   1.107   3.923  0.0846 -0.1187 -0.1722
    1DIPC   D3A22375  26.284   1.222   4.104  0.0968 -0.1420  0.2996
    1DIPC   C4A22376  26.441   1.546   4.347 -0.0816  0.0085  0.0511
    1DIPC   C1B22377  26.966   1.870   4.169  0.1216  0.1325  0.2301
    1DIPC   D2B22378  26.900   1.452   4.287 -0.1768  0.1139  0.1349
    1DIPC   D3B22379  27.099   1.125   3.910  0.1528  0.0556  0.0513
    1DIPC   C4B22380  27.306   1.220   3.541 -0.1081  0.3653 -0.0116
    1DIPC   NC322381  29.234   1.536   2.709 -0.2447 -0.1331  0.0203
    1DIPC   PO422382  29.572   1.862   2.860  0.0678 -0.0222  0.1851
    1DIPC   GL122383  29.413   1.641   3.216 -0.1270  0.0182 -0.1005
    1DIPC   GL222384  29.659   1.378   3.284  0.2427 -0.3453 -0.0439
    1DIPC   C1A22385  29.155   1.446   3.514  0.1144  0.0607  0.3168
    1DIPC   D2A22386  28.784   1.264   3.409 -0.1089  0.3320  0.1131
    1DIPC   D3A22387  29.009   0.948   3.315 -0.0924 -0.0427 -0.2860
    1DIPC   C4A22388  28.985   0.689   3.666 -0.2186 -0.0657 -0.2278
    1DIPC   C1B22389  29.701   1.533   3.681 -0.1985 -0.1710 -0.0528
    1DIPC   D2B22390  29.845   1.645   4.106 -0.1317 -0.3267 -0.1227
    1DIPC   D3B22391  30.313   1.542   4.252 -0.0961  0.1528  0.0677
    1DIPC   C4B22392  30.468   1.102   4.388  0.2892 -0.0069  0.1834
    1DIPC   NC322393   4.707  24.461   2.496 -0.1898  0.0431 -0.3603
    1DIPC   PO422394   4.532  24.938   2.367 -0.4807  0.2081  0.2128
    1DIPC   GL122395   4.511  24.777   2.883  0.0971  0.4945  0.1403
    1DIPC   GL222396   4.180  24.521   2.875 -0.1451 -0.2123 -0.1935
    1DIPC   C1A22397   4.605  24.454   3.185 -0.0826  0.1000  0.0691
    1DIPC   D2A22398   5.069  24.297   3.412 -0.3036  0.1801  0.1455
    1DIPC   D3A22399   5.036  24.086   3.714  0.2859 -0.0085  0.4446
    1DIPC   C4A22400   5.034  24.384   4.230 -0.0957  0.0352 -0.0930
    1DIPC   C1B22401   4.146  24.096   3.082 -0.1447  0.1821 -0.1878
    1DIPC   D2B22402   4.098  23.834   3.455 -0.0080  0.0220 -0.0383
    1DIPC   D3B22403   4.014  23.960   3.813  0.1891 -0.2077  0.1690
    1DIPC   C4B22404   4.209  23.866   4.268  0.0866  0.0366  0.1138
    1DIPC   NC322405  29.148  24.863   2.635  0.0146 -0.0316 -0.1389
    1DIPC   PO422406  29.148  24.919   3.139  0.0451 -0.0140  0.1854
    1DIPC   GL122407  29.444  24.779   3.420  0.0037 -0.0902 -0.2073
    1DIPC   GL222408  29.530  24.524   3.555 -0.2257  0.0074  0.1493
    1DIPC   C1A22409  29.611  24.935   3.838  0.1861  0.0014  0.1640
    1DIPC   D2A22410  29.704  25.376   4.048  0.1729 -0.2380  0.1521
    1DIPC   D3A22411  29.459  25.336   3.608  0.3186 -0.1614  0.1835
    1DIPC   C4A22412  29.157  25.548   3.654 -0.0462 -0.0063  0.0623
    1DIPC   C1B22413  29.497  24.412   3.957  0.2236 -0.0067 -0.0663
    1DIPC   D2B22414  29.741  24.308   4.289  0.2051  0.0120  0.1328
    1DIPC   D3B22415  29.442  24.718   4.464 -0.3068  0.1193 -0.3596
    1DIPC   C4B22416  29.530  25.101   4.527  0.2616  0.1706  0.3404
    1DIPC   NC322417   2.603  15.942   2.339  0.0263 -0.3686 -0.0705
    1DIPC   PO422418   3.000  15.741   2.362  0.1009  0.3070 -0.2368
    1DIPC   GL122419   3.203  15.779   2.681  0.1567 -0.0735 -0.0352
    1DIPC   GL222420   3.511  15.887   2.798 -0.1229  0.2572  0.0012
    1DIPC   C1A22421   3.196  15.514   3.031 -0.1199 -0.0268 -0.1357
    1DIPC   D2A22422   2.921  15.268   3.286 -0.0534  0.0571  0.1538
    1DIPC   D3A22423   3.055  15.341   3.772 -0.0352  0.0295 -0.0469
    1DIPC   C4A22424   3.008  15.744   3.981  0.3013 -0.0946 -0.2359
    1DIPC   C1B22425   3.938  15.933   2.933 -0.2224  0.2838 -0.0019
    1DIPC   D2B22426   4.301  15.860   2.919 -0.3265 -0.0982  0.0089
    1DIPC   D3B22427   4.188  15.824   3.313 -0.1305  0.2354  0.3184
    1DIPC   C4B22428   3.936  15.612   3.698  0.0442  0.2898  0.3332
    1DIPC   NC322429   9.234  28.991   3.320 -0.4460 -0.0132 -0.1741
    1DIPC   PO422430   8.864  28.731   3.250 -0.0118  0.0399 -0.0422
    1DIPC   GL122431   8.815  28.298   3.511  0.1257 -0.2963  0.1823
    1DIPC   GL222432   8.921  28.023   3.435 -0.1968  0.2733 -0.0222
    1DIPC   C1A22433   8.697  28.274   3.981 -0.2115  0.1359 -0.1085
    1DIPC   D2A22434   8.957  27.974   4.190  0.1357 -0.0888 -0.1758
    1DIPC   D3A22435   8.643  27.864   4.363  0.3504 -0.3743 -0.1012
    1DIPC   C4A22436   8.234  27.607   4.159  0.0167  0.0538  0.0177
    1DIPC   C1B22437   9.176  28.088   3.813  0.0030 -0.2288 -0.2091
    1DIPC   D2B22438   9.461  28.160   4.132 -0.2027 -0.0374 -0.1911
    1DIPC   D3B22439   9.310  28.424   4.409  0.0397  0.1902 -0.0940
    1DIPC   C4B22440   8.987  28.129   4.724  0.2699 -0.1352 -0.0108
    1DIPC   NC322441  26.022   6.645   3.271 -0.2300  0.0618  0.2812
    1DIPC   PO422442  25.915   7.049   3.292  0.0522  0.2271  0.2108
    1DIPC   GL122443  25.904   7.450   3.535  0.0176  0.0981 -0.1536
    1DIPC   GL222444  26.166   7.470   3.640  0.2098 -0.2403 -0.3016
    1DIPC   C1A22445  25.855   7.523   4.077  0.0790  0.2984 -0.1391
    1DIPC   D2A22446  26.121   7.566   4.437  0.2643  0.0340  0.2583
    1DIPC   D3A22447  26.202   7.103   4.384  0.0839 -0.1751  0.0897
    1DIPC   C4A22448  26.613   7.140   4.595  0.3573 -0.3826  0.1779
    1DIPC   C1B22449  26.468   7.241   3.887  0.0446  0.3428  0.1465
    1DIPC   D2B22450  26.841   7.157   4.066 -0.1573 -0.0581 -0.2519
    1DIPC   D3B22451  27.259   7.022   3.982 -0.0781  0.3246  0.0398
    1DIPC   C4B22452  27.607   7.178   4.176 -0.0734 -0.1992  0.0383
    1DIPC   NC322453  28.857  19.401   2.082  0.0149  0.1817  0.1841
    1DIPC   PO422454  29.098  19.750   2.086 -0.1137  0.3132  0.0396
    1DIPC   GL122455  29.321  19.666   2.515  0.0375 -0.0675  0.4449
    1DIPC   GL222456  29.423  19.350   2.705  0.1420  0.2291  0.0211
    1DIPC   C1A22457  29.217  19.715   2.945  0.0669  0.0438  0.2474
    1DIPC   D2A22458  29.276  19.910   3.446  0.2203 -0.0755 -0.2009
    1DIPC   D3A22459  29.461  19.603   3.608 -0.0019 -0.2424 -0.2828
    1DIPC   C4A22460  29.611  19.527   3.990  0.4068 -0.0522  0.1012
    1DIPC   C1B22461  29.557  19.409   3.153 -0.1515 -0.0101  0.4639
    1DIPC   D2B22462  29.941  19.463   3.479  0.0632  0.0138 -0.0587
    1DIPC   D3B22463  30.106  19.285   3.855 -0.1435  0.4611 -0.0657
    1DIPC   C4B22464  29.841  18.990   3.904 -0.1468  0.3055  0.1617
    1DIPC   NC322465  11.974   5.816   3.248 -0.1498  0.0853 -0.0781
    1DIPC   PO422466  11.698   5.974   3.433  0.0664  0.1011 -0.1112
    1DIPC   GL122467  11.522   5.812   3.700 -0.2798  0.2539 -0.0068
    1DIPC   GL222468  11.602   5.448   3.826  0.3611 -0.2752  0.1032
    1DIPC   C1A22469  11.238   5.748   4.045 -0.2995 -0.0207 -0.3840
    1DIPC   D2A22470  11.086   5.794   4.424 -0.0374 -0.1124 -0.2898
    1DIPC   D3A22471  11.289   5.728   4.808  0.1695 -0.0050  0.0571
    1DIPC   C4A22472  11.017   5.592   5.110  0.0987 -0.0100  0.0397
    1DIPC   C1B22473  11.884   5.294   4.090 -0.0473  0.1585  0.3084
    1DIPC   D2B22474  11.969   4.963   4.182  0.1132  0.2583 -0.3667
    1DIPC   D3B22475  12.274   5.082   4.398  0.5077  0.0584  0.1225
    1DIPC   C4B22476  12.687   5.036   4.531 -0.0767  0.0945 -0.3723
    1DIPC   NC322477  22.218  25.050   2.792 -0.1178  0.0846  0.1395
    1DIPC   PO422478  21.898  24.758   2.965 -0.0043  0.1448 -0.0300
    1DIPC   GL122479  21.622  24.681   3.290 -0.0727  0.3572  0.0204
    1DIPC   GL222480  21.517  24.408   3.526  0.2234 -0.1629 -0.1428
    1DIPC   C1A22481  21.310  24.940   3.506 -0.0256  0.3710  0.0180
    1DIPC   D2A22482  21.235  25.225   3.927 -0.2722  0.0315 -0.0467
    1DIPC   D3A22483  21.403  25.095   4.302 -0.1869  0.1813  0.2328
    1DIPC   C4A22484  21.243  24.946   4.750 -0.1897 -0.1256  0.4069
    1DIPC   C1B22485  21.746  24.744   3.784  0.2651 -0.0116 -0.1466
    1DIPC   D2B22486  21.995  24.920   4.159 -0.0408 -0.1141 -0.0333
    1DIPC   D3B22487  21.970  25.175   4.588 -0.1264  0.1762  0.0560
    1DIPC   C4B22488  21.595  25.488   4.623 -0.1036 -0.0511  0.2404
    1DIPC   NC322489  22.805   1.990   2.982  0.1139  0.2519  0.0497
    1DIPC   PO422490  22.400   1.905   2.991  0.1046 -0.3946 -0.1522
    1DIPC   GL122491  22.624   1.896   3.462  0.0624  0.2398 -0.0655
    1DIPC   GL222492  22.594   1.553   3.431 -0.1707 -0.1956  0.0728
    1DIPC   C1A22493  22.879   1.817   3.743 -0.0904  0.0970 -0.0176
    1DIPC   D2A22494  22.702   1.628   4.099 -0.0585 -0.0097  0.0761
    1DIPC   D3A22495  22.717   1.750   4.511 -0.3557  0.1141  0.2066
    1DIPC   C4A22496  23.110   1.946   4.704  0.2696  0.1640  0.3458
    1DIPC   C1B22497  22.317   1.541   3.777  0.1248 -0.3892 -0.1248
    1DIPC   D2B22498  21.964   1.374   4.021 -0.1467  0.0226 -0.0423
    1DIPC   D3B22499  22.205   1.176   4.363  0.1020  0.1967  0.0194
    1DIPC   C4B22500  22.637   0.895   4.304  0.1545  0.1838  0.0599
    1DIPC   NC322501  27.744   5.005   2.467  0.2664  0.1593  0.1757
    1DIPC   PO422502  27.951   5.057   2.845  0.1896  0.2573 -0.0367
    1DIPC   GL122503  27.761   5.275   3.203 -0.0702 -0.0886 -0.2867
    1DIPC   GL222504  27.754   5.625   3.213  0.1781  0.0305 -0.0537
    1DIPC   C1A22505  27.833   5.285   3.674 -0.1240 -0.0280  0.2545
    1DIPC   D2A22506  27.557   5.114   3.982 -0.2392 -0.1259  0.1047
    1DIPC   D3A22507  27.478   5.156   4.405 -0.5003 -0.0051  0.1349
    1DIPC   C4A22508  27.595   5.202   4.815 -0.0312  0.1942  0.5114
    1DIPC   C1B22509  27.738   5.706   3.573 -0.2163 -0.1917  0.0019
    1DIPC   D2B22510  28.128   5.686   3.908  0.0126  0.0966 -0.1705
    1DIPC   D3B22511  28.161   5.865   4.272 -0.3699  0.0572  0.2614
    1DIPC   C4B22512  28.569   5.771   4.563  0.0564 -0.3218 -0.2893
    1DIPC   NC322513  24.600   4.961   3.279  0.1250 -0.3207 -0.1061
    1DIPC   PO422514  24.619   4.643   3.563 -0.1203 -0.0181  0.2954
    1DIPC   GL122515  24.720   4.700   4.056  0.2805  0.1999  0.0595
    1DIPC   GL222516  24.688   4.361   4.242 -0.4518 -0.0436 -0.0260
    1DIPC   C1A22517  25.118   4.727   4.346 -0.1304 -0.0285  0.0815
    1DIPC   D2A22518  25.375   4.595   4.665 -0.2759 -0.2633 -0.2040
    1DIPC   D3A22519  25.758   4.509   4.908 -0.4133  0.0690 -0.1326
    1DIPC   C4A22520  26.066   4.252   4.769  0.2732  0.3988 -0.3696
    1DIPC   C1B22521  24.825   4.153   4.667 -0.0605 -0.0143  0.0165
    1DIPC   D2B22522  25.184   3.930   4.704  0.0198 -0.0176 -0.2088
    1DIPC   D3B22523  24.938   3.819   5.120 -0.1367  0.0209  0.0902
    1DIPC   C4B22524  24.495   3.558   5.220  0.2039 -0.2437  0.1113
    1DIPC   NC322525  11.769  25.338   2.353 -0.0361  0.3389 -0.0523
    1DIPC   PO422526  11.951  25.676   2.385 -0.3207 -0.2340 -0.1277
    1DIPC   GL122527  11.845  25.633   2.795 -0.1260 -0.1227  0.3057
    1DIPC   GL222528  11.499  25.746   2.792 -0.1652  0.0879 -0.0347
    1DIPC   C1A22529  11.885  25.349   3.191  0.1387 -0.0976 -0.1649
    1DIPC   D2A22530  11.881  24.992   3.455 -0.3421 -0.1876  0.0935
    1DIPC   D3A22531  11.528  24.935   3.141  0.0633 -0.1234  0.1953
    1DIPC   C4A22532  11.306  24.608   3.113  0.0596  0.2154  0.2615
    1DIPC   C1B22533  11.330  25.475   3.154  0.2567  0.1512  0.1205
    1DIPC   D2B22534  11.401  25.269   3.519 -0.3890  0.1066 -0.0945
    1DIPC   D3B22535  10.999  25.201   3.470 -0.3418  0.0097  0.0996
    1DIPC   C4B22536  10.802  25.369   3.135  0.0213 -0.2544  0.1286
    1DIPC   NC322537  21.361  24.204   3.063  0.0194 -0.0340 -0.2437
    1DIPC   PO422538  21.117  23.813   3.090 -0.1424 -0.0035  0.1158
    1DIPC   GL122539  20.846  23.949   3.513 -0.1439  0.3249 -0.1916
    1DIPC   GL222540  21.100  24.135   3.583  0.1892  0.0099  0.0524
    1DIPC   C1A22541  20.753  24.129   3.952  0.1056  0.0269  0.0127
    1DIPC   D2A22542  20.726  23.957   4.322  0.2200  0.2116  0.0670
    1DIPC   D3A22543  20.304  24.221   4.227  0.0159  0.0861  0.1627
    1DIPC   C4A22544  19.936  24.159   4.428 -0.1457  0.0126  0.0589
    1DIPC   C1B22545  21.163  23.859   3.926 -0.0821  0.0162 -0.1008
    1DIPC   D2B22546  21.000  23.555   4.122  0.4805  0.0024 -0.0862
    1DIPC   D3B22547  21.260  23.643   4.554  0.0457 -0.3261 -0.3636
    1DIPC   C4B22548  20.960  23.951   4.800  0.0006 -0.1802  0.1641
    1DIPC   NC322549   2.602   0.670   2.349 -0.0933 -0.3003  0.0930
    1DIPC   PO422550   2.837   0.801   2.708  0.1872  0.3232  0.1454
    1DIPC   GL122551   2.867   0.634   3.066  0.0492 -0.0609  0.1128
    1DIPC   GL222552   2.571   0.529   3.084  0.2294  0.0124  0.0692
    1DIPC   C1A22553   3.049   0.400   3.466  0.2127 -0.1091 -0.0447
    1DIPC   D2A22554   3.246   0.567   3.917 -0.1503  0.2530 -0.1938
    1DIPC   D3A22555   3.535   0.458   4.290  0.0226 -0.0061  0.2889
    1DIPC   C4A22556   3.463   0.454   4.727  0.0473 -0.0408  0.0364
    1DIPC   C1B22557   2.586   0.494   3.536  0.3125  0.4211  0.0457
    1DIPC   D2B22558   2.749   0.588   3.963  0.3099 -0.2637 -0.1613
    1DIPC   D3B22559   2.739   0.990   4.121  0.0249  0.0753  0.2750
    1DIPC   C4B22560   3.104   1.177   3.990  0.1924  0.2313 -0.0316
    1DIPC   NC322561  29.728  17.277   2.387  0.0025  0.0401 -0.0380
    1DIPC   PO422562  29.250  17.307   2.600  0.0176  0.1617  0.1495
    1DIPC   GL122563  29.361  17.518   3.028 -0.2918  0.1859  0.0311
    1DIPC   GL222564  29.573  17.704   3.163  0.1183 -0.1063  0.1444
    1DIPC   C1A22565  29.160  17.380   3.369  0.0710 -0.3793 -0.0630
    1DIPC   D2A22566  29.273  17.434   3.784 -0.2378  0.1840 -0.4120
    1DIPC   D3A22567  29.337  17.342   4.211 -0.0182  0.1069  0.1032
    1DIPC   C4A22568  29.821  17.399   4.166  0.2683  0.1859  0.2462
    1DIPC   C1B22569  29.973  17.779   3.168  0.1237  0.2013 -0.1022
    1DIPC   D2B22570  30.420  17.742   3.105  0.0634  0.0607 -0.0973
    1DIPC   D3B22571  30.274  18.185   3.054  0.4789 -0.3828  0.1367
    1DIPC   C4B22572  29.998  18.369   3.352  0.1148  0.1160  0.0446
    1DIPC   NC322573   3.133  16.648   2.428  0.0396 -0.0325  0.3406
    1DIPC   PO422574   2.705  16.418   2.261  0.2071  0.2407  0.1300
    1DIPC   GL122575   2.929  16.211   2.653  0.2759  0.3475  0.0908
    1DIPC   GL222576   2.975  16.520   2.866  0.0161 -0.1217  0.0021
    1DIPC   C1A22577   3.063  16.134   3.090  0.0407 -0.1386 -0.2903
    1DIPC   D2A22578   3.034  16.059   3.554  0.1781 -0.2242  0.1581
    1DIPC   D3A22579   2.996  16.485   3.529  0.3122 -0.1643 -0.2364
    1DIPC   C4A22580   3.121  16.745   3.942 -0.0728 -0.2548 -0.0721
    1DIPC   C1B22581   3.239  16.681   3.110 -0.1860  0.1695 -0.0314
    1DIPC   D2B22582   3.386  16.864   3.438  0.0118 -0.1275 -0.0568
    1DIPC   D3B22583   3.567  17.182   3.693 -0.0266  0.1775 -0.3231
    1DIPC   C4B22584   3.966  17.230   3.800  0.4808 -0.3398 -0.0914
    1DIPC   NC322585   6.164   6.365   3.700 -0.1734 -0.2601  0.2310
    1DIPC   PO422586   5.856   6.129   3.393  0.0782 -0.1150 -0.0287
    1DIPC   GL122587   5.772   5.994   3.758 -0.0378 -0.1022  0.0801
    1DIPC   GL222588   5.982   6.061   4.010 -0.0368 -0.3238 -0.2970
    1DIPC   C1A22589   5.588   5.814   4.128  0.4046 -0.0568  0.0930
    1DIPC   D2A22590   5.257   5.503   4.311 -0.0259  0.1693 -0.0891
    1DIPC   D3A22591   5.273   5.477   4.799 -0.0233  0.0138 -0.0840
    1DIPC   C4A22592   5.585   5.545   5.076 -0.0631  0.4578  0.0892
    1DIPC   C1B22593   5.959   5.731   4.426 -0.0741  0.1554  0.1226
    1DIPC   D2B22594   5.997   5.591   4.832  0.1117  0.0565 -0.0835
    1DIPC   D3B22595   6.132   5.577   5.313 -0.2080  0.2871 -0.1754
    1DIPC   C4B22596   6.097   5.371   5.738  0.1215 -0.1338  0.1495
    1DIPC   NC322597   2.193  16.344   2.361  0.1645  0.2690 -0.1589
    1DIPC   PO422598   1.835  16.445   2.614  0.0391 -0.0676 -0.0106
    1DIPC   GL122599   2.148  16.306   2.831 -0.1640  0.1152  0.1044
    1DIPC   GL222600   2.397  16.431   2.856  0.0156 -0.1367  0.0458
    1DIPC   C1A22601   2.333  16.086   3.229  0.2462 -0.0092 -0.1327
    1DIPC   D2A22602   2.431  16.193   3.579 -0.1695  0.0423 -0.3606
    1DIPC   D3A22603   2.198  15.921   3.686  0.0485  0.0724 -0.2645
    1DIPC   C4A22604   2.498  15.937   4.004 -0.0476 -0.2857  0.0330
    1DIPC   C1B22605   2.612  16.546   3.193  0.2874  0.2265 -0.0494
    1DIPC   D2B22606   2.456  16.699   3.578  0.2110 -0.2077 -0.1765
    1DIPC   D3B22607   2.569  16.942   3.950 -0.2384 -0.1921  0.0772
    1DIPC   C4B22608   2.643  16.727   4.373 -0.0064 -0.1950  0.1470
    1DIPC   NC322609  11.629  27.147   3.283  0.1192 -0.1431 -0.0620
    1DIPC   PO422610  11.336  26.723   3.239 -0.0196  0.0115  0.0179
    1DIPC   GL122611  11.630  26.742   3.628  0.2383 -0.2199  0.1860
    1DIPC   GL222612  11.727  26.961   3.707  0.0307 -0.0115 -0.2105
    1DIPC   C1A22613  11.387  26.667   3.944 -0.0907  0.1974 -0.0725
    1DIPC   D2A22614  11.183  27.068   4.139 -0.0705 -0.0370  0.0883
    1DIPC   D3A22615  10.853  27.176   4.440  0.0205  0.2132 -0.1515
    1DIPC   C4A22616  10.460  27.305   4.636 -0.1782 -0.1298 -0.0579
    1DIPC   C1B22617  11.714  27.007   4.134 -0.0165 -0.0558  0.1377
    1DIPC   D2B22618  11.581  27.220   4.515 -0.2905  0.3303 -0.1025
    1DIPC   D3B22619  11.454  26.786   4.476  0.1112  0.2819 -0.0535
    1DIPC   C4B22620  11.635  26.464   4.701  0.2107  0.0866  0.2294
    1DIPC   NC322621  24.889  19.519   2.617 -0.2032  0.2717  0.1691
    1DIPC   PO422622  25.028  19.822   2.984 -0.6355  0.0456  0.1290
    1DIPC   GL122623  24.992  19.782   3.461 -0.1507  0.0011 -0.0171
    1DIPC   GL222624  24.719  19.858   3.544  0.2396 -0.0438 -0.0051
    1DIPC   C1A22625  25.232  19.892   3.841  0.1061 -0.0979 -0.1313
    1DIPC   D2A22626  25.522  19.864   4.162 -0.3675 -0.0485 -0.0369
    1DIPC   D3A22627  25.550  19.619   4.540  0.2189 -0.2332 -0.3401
    1DIPC   C4A22628  25.862  19.479   4.333 -0.0036  0.1784 -0.3352
    1DIPC   C1B22629  24.651  19.950   3.945 -0.1461  0.2404  0.0484
    1DIPC   D2B22630  24.787  20.152   4.376 -0.1975  0.0391 -0.3194
    1DIPC   D3B22631  25.237  20.137   4.483  0.1921 -0.0109 -0.3859
    1DIPC   C4B22632  25.549  20.408   4.763  0.0960 -0.1130  0.0203
    1DIPC   NC322633   6.291  22.934   2.209  0.2450  0.1106 -0.0639
    1DIPC   PO422634   6.161  23.085   2.571 -0.0898  0.0551 -0.1445
    1DIPC   GL122635   6.108  22.860   3.030  0.1316 -0.1447  0.0384
    1DIPC   GL222636   5.849  22.866   3.087 -0.0236  0.2045  0.0006
    1DIPC   C1A22637   6.205  22.908   3.517  0.0624 -0.0099  0.2189
    1DIPC   D2A22638   6.041  23.007   3.998 -0.3007 -0.1139 -0.2130
    1DIPC   D3A22639   5.766  23.313   4.171 -0.0765  0.0772 -0.1471
    1DIPC   C4A22640   5.358  23.249   4.247  0.1170 -0.1269  0.0870
    1DIPC   C1B22641   6.031  23.258   3.253  0.0107  0.1021  0.0937
    1DIPC   D2B22642   6.133  23.449   3.704 -0.0777  0.0350 -0.0180
    1DIPC   D3B22643   6.437  23.736   3.718 -0.1021  0.1380  0.0316
    1DIPC   C4B22644   6.403  23.946   4.135  0.1982  0.1184  0.2200
    1DIPC   NC322645  24.251  16.060   2.434 -0.0241  0.2950  0.1345
    1DIPC   PO422646  24.648  16.162   2.264 -0.0608 -0.0772  0.3459
    1DIPC   GL122647  24.578  16.382   2.686 -0.1764 -0.0670  0.1499
    1DIPC   GL222648  24.588  16.214   2.942 -0.0163  0.1210 -0.2713
    1DIPC   C1A22649  24.596  16.740   3.063 -0.0340 -0.0967  0.1650
    1DIPC   D2A22650  24.938  16.992   3.304  0.0670 -0.0309 -0.1195
    1DIPC   D3A22651  24.851  17.253   3.597 -0.2962  0.2494  0.0055
    1DIPC   C4A22652  24.821  17.405   4.036  0.1393 -0.0352  0.2165
    1DIPC   C1B22653  24.512  16.026   3.319  0.0578  0.2002  0.1258
    1DIPC   D2B22654  24.319  15.987   3.765  0.0929  0.0743  0.1896
    1DIPC   D3B22655  24.454  16.444   3.930 -0.1502  0.1528  0.3665
    1DIPC   C4B22656  24.394  16.743   4.259  0.2557  0.3126 -0.1136
    1DIPC   NC322657  29.191   6.381   2.617 -0.0751  0.0182  0.0457
    1DIPC   PO422658  28.797   6.091   2.629 -0.1122 -0.2913  0.1699
    1DIPC   GL122659  29.132   6.139   3.031 -0.2647 -0.0934  0.1156
    1DIPC   GL222660  29.084   6.369   3.286  0.3241 -0.3084 -0.1306
    1DIPC   C1A22661  29.485   6.148   3.394 -0.0057 -0.3494  0.1743
    1DIPC   D2A22662  29.623   6.209   3.741  0.0112 -0.2665 -0.0127
    1DIPC   D3A22663  29.642   5.883   3.884  0.0345 -0.0449 -0.4248
    1DIPC   C4A22664  29.750   5.828   4.271  0.2010 -0.1212  0.2455
    1DIPC   C1B22665  28.765   6.330   3.575  0.0679  0.1152  0.0788
    1DIPC   D2B22666  28.462   6.153   3.811  0.0578  0.2336  0.0325
    1DIPC   D3B22667  28.393   6.490   4.152  0.2204  0.2441 -0.2635
    1DIPC   C4B22668  28.482   6.275   4.610 -0.0747 -0.1833 -0.1595
    1DIPC   NC322669  26.184  29.696   2.970  0.1337 -0.1294 -0.1623
    1DIPC   PO422670  26.075  29.915   3.111 -0.2001 -0.1396 -0.0630
    1DIPC   GL122671  26.199  30.163   3.528 -0.1669  0.1359 -0.0967
    1DIPC   GL222672  26.105  30.457   3.611 -0.0660 -0.1183  0.0859
    1DIPC   C1A22673  25.960  30.066   3.905  0.2190 -0.3905 -0.0592
    1DIPC   D2A22674  25.761  30.190   4.354 -0.1690 -0.2362  0.0102
    1DIPC   D3A22675  25.731  30.600   4.418  0.0941  0.2872  0.0071
    1DIPC   C4A22676  25.730  30.654   4.787  0.0502 -0.4245 -0.1505
    1DIPC   C1B22677  26.045  30.617   4.001  0.0134 -0.0356 -0.2613
    1DIPC   D2B22678  26.224  30.386   4.264 -0.0202  0.0862  0.0501
    1DIPC   D3B22679  26.177  30.667   4.476  0.0415  0.1717  0.1221
    1DIPC   C4B22680  26.527  30.916   4.527  0.4858  0.3428  0.1927
    1DIPC   NC322681  17.855  28.097   3.418 -0.1871  0.0292  0.1846
    1DIPC   PO422682  18.173  28.080   3.258  0.1249  0.0938 -0.0771
    1DIPC   GL122683  18.260  28.251   3.625  0.1360 -0.0059  0.0048
    1DIPC   GL222684  18.581  28.324   3.564  0.3194 -0.1904  0.4735
    1DIPC   C1A22685  18.221  28.298   4.065  0.0149 -0.0758 -0.2207
    1DIPC   D2A22686  18.191  28.023   4.462 -0.1318  0.0609 -0.0809
    1DIPC   D3A22687  18.486  27.919   4.730  0.1507 -0.2343  0.2411
    1DIPC   C4A22688  18.887  28.115   4.759 -0.0393  0.0160 -0.0798
    1DIPC   C1B22689  18.685  28.226   3.929 -0.0806 -0.1277 -0.2046
    1DIPC   D2B22690  18.975  28.279   4.220 -0.1732 -0.1300  0.0944
    1DIPC   D3B22691  19.139  28.073   3.895 -0.2089  0.4554  0.1564
    1DIPC   C4B22692  19.456  27.965   4.083 -0.0495  0.0485 -0.2254
    1DIPC   NC322693   7.859  14.572   1.960  0.0220  0.0499  0.0750
    1DIPC   PO422694   7.790  14.862   2.303 -0.1715 -0.2046  0.3746
    1DIPC   GL122695   7.806  14.869   2.768  0.4313 -0.1701  0.2050
    1DIPC   GL222696   7.569  14.662   3.065 -0.0876 -0.0171 -0.0805
    1DIPC   C1A22697   7.767  15.128   3.176  0.1086  0.2728  0.1567
    1DIPC   D2A22698   7.788  15.510   3.351  0.1552  0.0482 -0.0152
    1DIPC   D3A22699   7.964  15.251   3.703 -0.1484 -0.0461  0.1195
    1DIPC   C4A22700   8.257  15.417   3.962  0.0772 -0.2409 -0.3658
    1DIPC   C1B22701   7.562  14.754   3.503  0.2864  0.1912  0.2198
    1DIPC   D2B22702   7.695  14.773   3.858  0.0013 -0.3697 -0.1965
    1DIPC   D3B22703   7.695  15.215   4.083  0.0571 -0.0592  0.4154
    1DIPC   C4B22704   7.339  15.530   4.197 -0.3797  0.0259 -0.1518
    1DIPC   NC322705  25.770  14.052   2.306 -0.2500 -0.0047  0.2115
    1DIPC   PO422706  26.242  13.882   2.355 -0.0523  0.3856  0.3201
    1DIPC   GL122707  25.957  13.750   2.699  0.1342 -0.0157 -0.1757
    1DIPC   GL222708  26.174  13.646   2.865 -0.2815  0.1699  0.1898
    1DIPC   C1A22709  25.759  13.859   3.075 -0.1476 -0.2366  0.0031
    1DIPC   D2A22710  25.401  14.024   3.353  0.2592 -0.1224 -0.4197
    1DIPC   D3A22711  25.707  14.378   3.423 -0.2527 -0.3422 -0.2815
    1DIPC   C4A22712  26.091  14.422   3.497 -0.3572 -0.2704 -0.3218
    1DIPC   C1B22713  26.075  13.579   3.286 -0.0778 -0.2685 -0.1682
    1DIPC   D2B22714  25.883  13.832   3.534 -0.1010  0.1746  0.2743
    1DIPC   D3B22715  25.892  13.672   3.976 -0.1457 -0.1288 -0.1722
    1DIPC   C4B22716  26.114  13.952   4.259  0.2476 -0.3969 -0.0613
    1DIPC   NC322717  18.445   6.310   2.898 -0.0344 -0.5533  0.0145
    1DIPC   PO422718  18.158   6.333   2.592 -0.0030  0.1257  0.0127
    1DIPC   GL122719  17.991   6.572   2.979 -0.2429 -0.2133  0.4389
    1DIPC   GL222720  17.731   6.366   3.040 -0.2817  0.1821  0.0438
    1DIPC   C1A22721  18.178   6.847   3.294  0.1347 -0.4352 -0.1045
    1DIPC   D2A22722  18.023   7.145   3.557  0.0817  0.1613 -0.0337
    1DIPC   D3A22723  17.817   7.549   3.638  0.2644 -0.2880  0.0033
    1DIPC   C4A22724  17.580   7.571   4.041 -0.3055 -0.0103 -0.1165
    1DIPC   C1B22725  17.759   6.532   3.409  0.0115 -0.2951 -0.3232
    1DIPC   D2B22726  17.900   6.570   3.777  0.1468 -0.1492 -0.3147
    1DIPC   D3B22727  17.608   6.748   4.110 -0.0532 -0.1312  0.2603
    1DIPC   C4B22728  17.769   7.004   4.455  0.1278  0.5083 -0.1017
    1DIPC   NC322729  27.105   0.023   3.301 -0.1188  0.1919 -0.1567
    1DIPC   PO422730  26.913   0.426   3.163 -0.0760  0.0605 -0.2684
    1DIPC   GL122731  26.718   0.334   3.505  0.1575 -0.0345 -0.1394
    1DIPC   GL222732  26.716   0.020   3.634 -0.1644 -0.1292  0.1384
    1DIPC   C1A22733  26.536   0.536   3.859 -0.0435 -0.1540  0.0018
    1DIPC   D2A22734  26.800   0.733   4.128 -0.1575 -0.1018 -0.2803
    1DIPC   D3A22735  27.103   1.004   4.434  0.1686  0.1931  0.4646
    1DIPC   C4A22736  27.350   1.381   4.502 -0.0643 -0.1020  0.2878
    1DIPC   C1B22737  26.557   0.076   4.105  0.2109 -0.0668 -0.1543
    1DIPC   D2B22738  26.636   0.310   4.476  0.0552 -0.1382 -0.0430
    1DIPC   D3B22739  27.018   0.292   4.426  0.0664 -0.1172  0.1868
    1DIPC   C4B22740  27.288   0.667   4.129  0.0362 -0.3026  0.0386
    1DIPC   NC322741  18.556   5.819   2.926 -0.0216  0.4783 -0.0889
    1DIPC   PO422742  18.708   5.514   3.046 -0.2985  0.1114 -0.0802
    1DIPC   GL122743  18.834   5.383   3.436  0.1185 -0.1315  0.0436
    1DIPC   GL222744  19.084   5.486   3.622  0.2321  0.1317  0.3247
    1DIPC   C1A22745  18.758   5.044   3.752 -0.0293 -0.1444  0.1174
    1DIPC   D2A22746  18.585   5.061   4.193 -0.1051  0.0270 -0.0065
    1DIPC   D3A22747  18.610   5.349   4.388  0.2258 -0.0027  0.0574
    1DIPC   C4A22748  18.177   5.541   4.542 -0.0440 -0.1688  0.0056
    1DIPC   C1B22749  19.069   5.266   4.046  0.1415  0.0660 -0.1005
    1DIPC   D2B22750  19.022   5.056   4.454  0.1626  0.0696 -0.0055
    1DIPC   D3B22751  19.034   4.733   4.034 -0.0997 -0.0049  0.0113
    1DIPC   C4B22752  18.694   4.553   4.001 -0.1665  0.0811  0.2219
    1DIPC   NC322753  28.472  22.199   2.436 -0.2976 -0.1940 -0.2177
    1DIPC   PO422754  28.724  21.969   2.664  0.1819  0.1469 -0.1505
    1DIPC   GL122755  29.040  22.197   2.880  0.0955 -0.0687 -0.0453
    1DIPC   GL222756  29.339  22.080   2.958 -0.2575 -0.2776 -0.1352
    1DIPC   C1A22757  28.961  22.478   3.196  0.1844  0.1068  0.2222
    1DIPC   D2A22758  29.275  22.623   3.582  0.0538  0.0259  0.0260
    1DIPC   D3A22759  29.525  22.413   3.280  0.0700  0.0613  0.1007
    1DIPC   C4A22760  29.733  22.605   2.950  0.3249 -0.0534 -0.0158
    1DIPC   C1B22761  29.462  21.819   3.264 -0.2579 -0.0093  0.1322
    1DIPC   D2B22762  29.215  21.522   3.504 -0.1036  0.2624 -0.1361
    1DIPC   D3B22763  29.240  21.955   3.791 -0.3017 -0.0104  0.2892
    1DIPC   C4B22764  28.940  22.249   3.693  0.0892 -0.0924 -0.0534
    1DIPC   NC322765  12.373  27.219   3.049 -0.2538  0.1029  0.0141
    1DIPC   PO422766  12.086  27.310   3.449 -0.1799 -0.1411 -0.2616
    1DIPC   GL122767  12.324  27.185   3.820 -0.0255 -0.1342  0.1982
    1DIPC   GL222768  12.434  27.384   4.112  0.0291  0.4376  0.0954
    1DIPC   C1A22769  12.254  26.887   4.214  0.1381 -0.1104 -0.0690
    1DIPC   D2A22770  12.510  26.816   4.606 -0.1067  0.2514  0.1977
    1DIPC   D3A22771  12.330  27.191   4.875 -0.1882 -0.1427  0.3126
    1DIPC   C4A22772  12.148  27.067   5.123  0.5160  0.0170  0.0504
    1DIPC   C1B22773  12.122  27.266   4.452  0.1000 -0.0463 -0.0344
    1DIPC   D2B22774  11.944  26.911   4.636 -0.0471  0.0205 -0.0782
    1DIPC   D3B22775  12.148  26.483   4.575  0.0678  0.1016  0.3641
    1DIPC   C4B22776  11.829  26.051   4.731 -0.1939 -0.3666 -0.2947
    1DIPC   NC322777  21.013   0.638   3.022 -0.1297 -0.2600  0.0868
    1DIPC   PO422778  21.474   0.914   2.976 -0.1229  0.2379 -0.0213
    1DIPC   GL122779  21.538   0.829   3.367  0.1586  0.1297 -0.1734
    1DIPC   GL222780  21.376   1.027   3.585 -0.2642  0.1199 -0.0454
    1DIPC   C1A22781  21.403   0.459   3.669  0.0673  0.1323 -0.3952
    1DIPC   D2A22782  21.585   0.033   3.793 -0.0359 -0.1295  0.2514
    1DIPC   D3A22783  21.213  -0.116   3.652  0.0384  0.1745  0.5926
    1DIPC   C4A22784  20.916  -0.320   3.828  0.0779 -0.1239 -0.0479
    1DIPC   C1B22785  21.108   0.733   3.978 -0.1561 -0.0398  0.0802
    1DIPC   D2B22786  20.822   0.676   4.485  0.1069 -0.1453  0.1858
    1DIPC   D3B22787  20.940   0.300   4.742 -0.0067 -0.0295 -0.1218
    1DIPC   C4B22788  21.256   0.447   5.011  0.2842  0.0196  0.0563
    1DIPC   NC322789  13.988  26.533   2.659  0.0673  0.1624 -0.0120
    1DIPC   PO422790  13.701  26.761   2.872  0.1878 -0.0343  0.2041
    1DIPC   GL122791  13.776  26.945   3.388  0.0987  0.0513 -0.0715
    1DIPC   GL222792  13.766  27.224   3.634 -0.2657 -0.3105 -0.2021
    1DIPC   C1A22793  13.595  26.693   3.652  0.4535  0.1320 -0.0873
    1DIPC   D2A22794  13.537  26.575   4.059  0.1793  0.2564 -0.0537
    1DIPC   D3A22795  13.221  26.909   4.030  0.1328 -0.1853 -0.0469
    1DIPC   C4A22796  13.251  27.073   3.631 -0.0877 -0.1817 -0.3495
    1DIPC   C1B22797  13.569  27.243   4.029 -0.2543  0.2383 -0.0189
    1DIPC   D2B22798  13.572  27.013   4.370 -0.4831  0.4108  0.0199
    1DIPC   D3B22799  13.929  26.884   3.943 -0.1783  0.0925  0.0301
    1DIPC   C4B22800  14.318  26.882   4.092 -0.1051 -0.1577  0.2383
    1DIPC   NC322801  10.839  24.643   2.462  0.0119  0.1361 -0.1038
    1DIPC   PO422802  11.070  24.196   2.461  0.0825  0.1811  0.0941
    1DIPC   GL122803  10.982  24.345   2.964 -0.0007  0.0990 -0.3269
    1DIPC   GL222804  10.825  24.073   2.910 -0.0905 -0.1579  0.1035
    1DIPC   C1A22805  10.968  24.302   3.388  0.0047 -0.1837  0.2847
    1DIPC   D2A22806  10.860  24.356   3.891 -0.0622 -0.2698  0.0089
    1DIPC   D3A22807  10.785  24.550   4.353 -0.2951 -0.0115  0.0625
    1DIPC   C4A22808  10.885  24.306   4.634  0.1066 -0.2461  0.3805
    1DIPC   C1B22809  10.912  23.803   3.373  0.1816  0.0597 -0.2767
    1DIPC   D2B22810  11.264  23.873   3.664  0.0804  0.3268  0.1483
    1DIPC   D3B22811  11.336  24.284   3.764 -0.2483  0.0205 -0.0386
    1DIPC   C4B22812  11.269  24.642   4.089 -0.0276  0.1115  0.0326
    1DIPC   NC322813  12.280   2.532   3.833  0.4331  0.1079  0.1722
    1DIPC   PO422814  12.108   2.914   3.709  0.1662  0.1743  0.3030
    1DIPC   GL122815  12.189   3.061   4.075  0.0024  0.1947  0.0570
    1DIPC   GL222816  12.140   3.406   4.199  0.0211 -0.3276  0.1647
    1DIPC   C1A22817  12.375   2.785   4.504 -0.2530  0.3700 -0.4776
    1DIPC   D2A22818  12.295   2.435   4.699 -0.3671  0.3165 -0.3379
    1DIPC   D3A22819  12.553   2.180   4.738  0.0814  0.1480 -0.0605
    1DIPC   C4A22820  12.719   2.141   5.157  0.0025  0.1163 -0.3241
    1DIPC   C1B22821  12.085   3.161   4.557 -0.0526 -0.0677 -0.0984
    1DIPC   D2B22822  12.109   3.463   4.967  0.2329  0.0240  0.0088
    1DIPC   D3B22823  11.826   3.697   4.857 -0.2271 -0.0805  0.0934
    1DIPC   C4B22824  11.523   3.748   5.206  0.1320 -0.1833 -0.2358
    1DIPC   NC322825  10.591  24.889   2.029  0.1071 -0.1968 -0.0685
    1DIPC   PO422826  10.318  24.754   2.434  0.3658  0.1579 -0.0081
    1DIPC   GL122827  10.046  24.836   2.843  0.2689  0.0889 -0.0209
    1DIPC   GL222828   9.707  24.932   2.902  0.3711 -0.3319  0.1780
    1DIPC   C1A22829  10.070  24.626   3.260  0.0407  0.1240 -0.0163
    1DIPC   D2A22830   9.718  24.408   3.337 -0.1339 -0.0569  0.0783
    1DIPC   D3A22831   9.704  24.668   3.665 -0.1096 -0.0372 -0.0220
    1DIPC   C4A22832   9.705  24.515   4.110  0.2326  0.0361  0.0941
    1DIPC   C1B22833   9.414  24.906   3.207 -0.3083  0.0712  0.1782
    1DIPC   D2B22834   9.284  24.998   3.573 -0.3507  0.3422  0.0508
    1DIPC   D3B22835   9.640  25.153   3.878  0.1604 -0.1406  0.1294
    1DIPC   C4B22836   9.865  24.948   4.244  0.0969 -0.2573  0.0057
    1DIPC   NC322837  23.667   7.630   3.363  0.1289 -0.1696 -0.0060
    1DIPC   PO422838  23.796   7.784   2.876  0.1769  0.0017  0.1459
    1DIPC   GL122839  23.962   8.017   3.210  0.2713  0.2344  0.2846
    1DIPC   GL222840  23.744   8.230   3.462 -0.1353 -0.0738 -0.1167
    1DIPC   C1A22841  24.134   8.023   3.640 -0.2545  0.4242 -0.0980
    1DIPC   D2A22842  24.101   7.887   4.124  0.1340 -0.0391  0.0508
    1DIPC   D3A22843  23.701   7.709   4.047  0.2796 -0.2578  0.1723
    1DIPC   C4A22844  23.439   7.532   4.246  0.2436 -0.0193  0.1178
    1DIPC   C1B22845  23.666   8.186   3.890 -0.2625  0.2455  0.1626
    1DIPC   D2B22846  23.301   8.013   4.369  0.3902 -0.1338 -0.1729
    1DIPC   D3B22847  22.928   8.019   4.773  0.0558 -0.0172 -0.1519
    1DIPC   C4B22848  22.520   8.276   4.778  0.1819  0.1223  0.0771
    1DIPC   NC322849  28.594  19.023   2.829 -0.0667  0.0128  0.0643
    1DIPC   PO422850  28.384  19.380   2.894 -0.0643 -0.3673 -0.1284
    1DIPC   GL122851  28.611  19.742   2.938  0.2304  0.0931  0.0243
    1DIPC   GL222852  28.447  19.890   3.295 -0.2442 -0.1613  0.4476
    1DIPC   C1A22853  28.886  19.964   3.175  0.1524  0.2545 -0.2506
    1DIPC   D2A22854  28.880  20.345   3.056 -0.1098 -0.0502  0.0243
    1DIPC   D3A22855  28.974  20.385   3.391 -0.0265  0.0319 -0.0592
    1DIPC   C4A22856  28.945  20.532   3.724  0.2746  0.3434 -0.2118
    1DIPC   C1B22857  28.845  20.035   3.682 -0.1796 -0.1960  0.3705
    1DIPC   D2B22858  29.215  19.960   3.984 -0.0007  0.0432  0.3113
    1DIPC   D3B22859  29.228  19.750   4.304  0.1745  0.0228  0.0379
    1DIPC   C4B22860  29.493  19.793   4.559 -0.0211 -0.0449 -0.1051
    1DIPC   NC322861  24.831  14.174   2.120 -0.2515 -0.2038  0.0645
    1DIPC   PO422862  25.114  13.898   2.390 -0.1291  0.2927  0.0230
    1DIPC   GL122863  25.066  13.771   2.776 -0.1649  0.1124  0.1497
    1DIPC   GL222864  25.318  13.645   2.919 -0.1710  0.0228 -0.0116
    1DIPC   C1A22865  24.644  13.685   3.002  0.0152 -0.1058 -0.2346
    1DIPC   D2A22866  24.302  13.337   2.997 -0.0252 -0.0955 -0.1901
    1DIPC   D3A22867  23.866  13.184   3.155 -0.2035 -0.0636  0.0774
    1DIPC   C4A22868  23.488  13.339   3.169 -0.3225  0.0607  0.3819
    1DIPC   C1B22869  25.101  13.624   3.278 -0.1726  0.1490 -0.0369
    1DIPC   D2B22870  24.939  13.811   3.661 -0.2051 -0.0508  0.0835
    1DIPC   D3B22871  24.569  13.660   3.509 -0.0710 -0.0416  0.1558
    1DIPC   C4B22872  24.369  13.252   3.461 -0.2144 -0.0139 -0.1569
    1DIPC   NC322873   3.798   7.472   3.037  0.1052  0.1975 -0.0547
    1DIPC   PO422874   4.181   7.314   3.245  0.2491 -0.4420 -0.1856
    1DIPC   GL122875   4.309   7.440   3.596 -0.0836 -0.4115 -0.1386
    1DIPC   GL222876   4.568   7.299   3.837  0.0730 -0.0406  0.0238
    1DIPC   C1A22877   4.248   7.624   3.937 -0.3268 -0.3400 -0.0113
    1DIPC   D2A22878   4.238   7.315   4.299  0.2064  0.1231 -0.0008
    1DIPC   D3A22879   4.704   7.060   4.281  0.1510  0.0612 -0.1761
    1DIPC   C4A22880   5.115   7.114   4.502 -0.2641  0.1874 -0.0219
    1DIPC   C1B22881   4.707   6.813   3.793 -0.2227 -0.1445  0.0942
    1DIPC   D2B22882   4.812   6.424   3.964 -0.0369 -0.3384 -0.0892
    1DIPC   D3B22883   5.035   6.585   4.401 -0.0582  0.1459 -0.2473
    1DIPC   C4B22884   4.816   6.775   4.776 -0.0525 -0.0561  0.0523
    1DIPC   NC322885  28.368  21.667   2.951  0.2788  0.2382  0.2581
    1DIPC   PO422886  28.194  22.096   2.827 -0.1413 -0.2402 -0.0637
    1DIPC   GL122887  28.129  22.415   3.075  0.0535  0.1727 -0.4073
    1DIPC   GL222888  28.038  22.739   3.035 -0.2775  0.0046  0.1098
    1DIPC   C1A22889  28.055  22.472   3.558  0.1934  0.0991  0.2314
    1DIPC   D2A22890  27.919  22.336   3.996  0.1231  0.3841  0.1274
    1DIPC   D3A22891  28.186  22.657   4.138  0.1362 -0.1373 -0.0816
    1DIPC   C4A22892  28.056  23.082   4.285 -0.2145 -0.1723  0.2175
    1DIPC   C1B22893  28.136  22.990   3.363  0.1046 -0.1302 -0.1960
    1DIPC   D2B22894  28.093  22.981   3.789  0.1395  0.3189  0.0856
    1DIPC   D3B22895  28.547  23.082   4.088  0.0995 -0.1023 -0.1358
    1DIPC   C4B22896  28.705  23.030   4.431 -0.4930  0.1935  0.0209
    1DIPC   NC322897   8.799   8.835   2.956  0.0157 -0.1502 -0.0625
    1DIPC   PO422898   8.706   8.839   3.355 -0.2148  0.0574 -0.0570
    1DIPC   GL122899   8.620   8.693   3.819  0.0521 -0.0761 -0.2430
    1DIPC   GL222900   8.566   8.400   3.984 -0.1088 -0.0306 -0.0060
    1DIPC   C1A22901   8.594   8.660   4.396  0.2011 -0.1167 -0.0182
    1DIPC   D2A22902   8.377   8.281   4.696 -0.1955 -0.2470  0.1647
    1DIPC   D3A22903   7.996   8.446   4.767 -0.0677  0.2916  0.1820
    1DIPC   C4A22904   7.755   8.434   5.122  0.1312 -0.0565 -0.2810
    1DIPC   C1B22905   8.216   8.380   4.145 -0.1712  0.3142 -0.0691
    1DIPC   D2B22906   7.658   8.509   4.143 -0.2519  0.0816 -0.1440
    1DIPC   D3B22907   7.482   8.940   4.259 -0.2541  0.2574  0.5246
    1DIPC   C4B22908   7.431   9.234   3.966 -0.0514 -0.0949  0.0179
    1DIPC   NC322909  24.494   8.700   2.836 -0.4107  0.1061 -0.0077
    1DIPC   PO422910  24.433   8.916   3.227 -0.0645 -0.0622  0.0223
    1DIPC   GL122911  24.454   8.759   3.627  0.0725 -0.0865 -0.1431
    1DIPC   GL222912  24.159   8.608   3.771  0.0184 -0.0298  0.2888
    1DIPC   C1A22913  24.568   8.791   4.051 -0.0813  0.0799 -0.0690
    1DIPC   D2A22914  24.311   8.728   4.497 -0.2970  0.2526  0.0466
    1DIPC   D3A22915  24.258   9.033   4.830 -0.0018 -0.2254  0.0015
    1DIPC   C4A22916  23.891   9.192   4.906  0.0961  0.4376 -0.3346
    1DIPC   C1B22917  24.155   8.404   4.144  0.1032 -0.0583  0.4547
    1DIPC   D2B22918  24.248   8.235   4.555  0.5002 -0.0362 -0.0729
    1DIPC   D3B22919  23.791   8.116   4.499  0.0016 -0.0054  0.3146
    1DIPC   C4B22920  23.577   8.428   4.382  0.1760 -0.3241 -0.1761
    1DIPC   NC322921  18.758  27.478   3.172 -0.0596 -0.2253  0.2057
    1DIPC   PO422922  18.945  27.102   3.456 -0.4586  0.3935 -0.3068
    1DIPC   GL122923  19.081  26.845   3.893  0.2336 -0.3289  0.0047
    1DIPC   GL222924  19.188  26.515   3.832  0.2083  0.0824 -0.1284
    1DIPC   C1A22925  19.175  26.802   4.365  0.2655 -0.1455  0.0559
    1DIPC   D2A22926  19.290  26.641   4.768  0.3726 -0.2160  0.0336
    1DIPC   D3A22927  19.105  26.269   4.850 -0.0088 -0.0264 -0.1927
    1DIPC   C4A22928  19.454  25.974   4.976  0.3797  0.4019 -0.1347
    1DIPC   C1B22929  18.731  26.503   4.089 -0.2072  0.0614 -0.2255
    1DIPC   D2B22930  18.482  26.227   4.228 -0.1062 -0.0262  0.1377
    1DIPC   D3B22931  18.646  26.133   4.583 -0.0344 -0.0485  0.1000
    1DIPC   C4B22932  18.520  26.222   4.976 -0.3794 -0.6292 -0.1506
    1DIPC   NC322933   6.151  21.985   1.823 -0.2718  0.0920  0.1218
    1DIPC   PO422934   6.144  21.936   2.242  0.5063 -0.4401  0.1553
    1DIPC   GL122935   5.935  22.141   2.603 -0.1298 -0.2265 -0.1279
    1DIPC   GL222936   5.603  22.227   2.740 -0.2152  0.0740 -0.0570
    1DIPC   C1A22937   6.066  22.370   2.973 -0.4325 -0.0331 -0.1660
    1DIPC   D2A22938   6.113  22.306   3.444 -0.2316 -0.1892 -0.2554
    1DIPC   D3A22939   6.039  22.529   3.876  0.0776  0.2929  0.0866
    1DIPC   C4A22940   6.422  22.610   4.054  0.3090 -0.2343  0.2360
    1DIPC   C1B22941   5.662  22.159   3.219  0.0584  0.1253  0.1483
    1DIPC   D2B22942   5.658  22.333   3.582 -0.1394 -0.1790 -0.0683
    1DIPC   D3B22943   5.875  22.030   3.954 -0.1120  0.2862 -0.1080
    1DIPC   C4B22944   5.666  21.610   3.803  0.1306  0.0972 -0.2279
    1DIPC   NC322945  27.414  29.286   3.069  0.0347  0.1827 -0.0296
    1DIPC   PO422946  27.301  29.403   3.479 -0.2848 -0.0146  0.0411
    1DIPC   GL122947  27.211  28.978   3.737 -0.1041  0.0606 -0.1364
    1DIPC   GL222948  27.572  28.981   3.832  0.1087  0.0706  0.0315
    1DIPC   C1A22949  26.990  28.700   4.021 -0.0371 -0.0864  0.0012
    1DIPC   D2A22950  27.126  28.266   4.204  0.1227  0.1033 -0.0151
    1DIPC   D3A22951  27.151  28.251   4.616  0.2949  0.0852 -0.0440
    1DIPC   C4A22952  27.035  28.510   4.995  0.0630 -0.0125  0.0744
    1DIPC   C1B22953  27.450  28.670   4.223  0.1545 -0.1357  0.2156
    1DIPC   D2B22954  27.409  28.637   4.703 -0.3134 -0.2293  0.0232
    1DIPC   D3B22955  27.712  28.661   5.032  0.1636 -0.1574  0.0301
    1DIPC   C4B22956  27.801  28.298   5.326  0.0756  0.2062  0.3485
    1DIPC   NC322957   4.006  26.073   2.175  0.0270 -0.0920 -0.1592
    1DIPC   PO422958   3.717  25.750   2.161  0.1988 -0.1213  0.0336
    1DIPC   GL122959   3.557  25.940   2.529 -0.1507  0.3299 -0.2487
    1DIPC   GL222960   3.762  25.812   2.792 -0.1409 -0.1658 -0.0618
    1DIPC   C1A22961   3.291  25.848   2.861  0.0081 -0.1094 -0.2154
    1DIPC   D2A22962   3.229  25.631   3.309  0.2098 -0.0452 -0.1719
    1DIPC   D3A22963   3.188  25.379   2.948  0.2727 -0.0859  0.0194
    1DIPC   C4A22964   3.439  25.083   2.790  0.1367 -0.0618 -0.0895
    1DIPC   C1B22965   3.701  25.637   3.202  0.1878  0.0784 -0.0839
    1DIPC   D2B22966   3.621  25.388   3.505 -0.0229 -0.0135  0.0367
    1DIPC   D3B22967   3.573  25.011   3.635 -0.0051  0.0917  0.0490
    1DIPC   C4B22968   3.421  24.627   3.804 -0.0204 -0.1297  0.1169
    1DIPC   NC322969  23.944  15.233   2.138 -0.0013 -0.2133 -0.1131
    1DIPC   PO422970  23.926  15.722   2.275  0.0278  0.2053  0.1212
    1DIPC   GL122971  23.865  15.728   2.710 -0.0416  0.0902  0.0021
    1DIPC   GL222972  24.092  15.874   2.835 -0.2944 -0.3990 -0.0241
    1DIPC   C1A22973  23.557  15.863   2.977 -0.0304  0.1143 -0.0706
    1DIPC   D2A22974  23.256  16.147   2.957  0.0930 -0.2332  0.2452
    1DIPC   D3A22975  23.094  15.802   3.195 -0.0694 -0.1148 -0.1869
    1DIPC   C4A22976  23.337  15.458   3.224 -0.1279 -0.4235 -0.3080
    1DIPC   C1B22977  23.994  15.922   3.340 -0.0374 -0.2668  0.0611
    1DIPC   D2B22978  23.562  15.891   3.538  0.0028  0.0039 -0.2585
    1DIPC   D3B22979  23.386  16.328   3.767  0.3489 -0.1618  0.1409
    1DIPC   C4B22980  23.458  16.387   4.235  0.0531 -0.2188 -0.2539
    1DIPC   NC322981  24.004  22.569   3.118 -0.0824 -0.0328  0.0292
    1DIPC   PO422982  24.371  22.595   3.003  0.2478 -0.2047  0.0774
    1DIPC   GL122983  24.475  22.758   3.385  0.0687  0.0786  0.0274
    1DIPC   GL222984  24.541  22.477   3.624  0.0460  0.0534 -0.1195
    1DIPC   C1A22985  24.601  22.916   3.846  0.0751  0.0727 -0.1140
    1DIPC   D2A22986  24.490  23.171   4.189  0.2320  0.0852  0.4668
    1DIPC   D3A22987  24.339  23.261   4.545 -0.1713  0.2396 -0.3524
    1DIPC   C4A22988  23.986  23.505   4.618  0.0844 -0.0395 -0.2106
    1DIPC   C1B22989  24.656  22.101   3.809  0.1290 -0.0064 -0.0603
    1DIPC   D2B22990  24.635  21.645   4.119 -0.3621 -0.0233 -0.0646
    1DIPC   D3B22991  24.857  21.312   3.832  0.3352 -0.0474  0.0738
    1DIPC   C4B22992  25.135  21.252   3.548  0.0362  0.0394  0.1690
    1DIPC   NC322993   7.999  18.371   1.474 -0.2491 -0.1990 -0.0435
    1DIPC   PO422994   7.842  18.594   1.740  0.2810  0.0741 -0.2931
    1DIPC   GL122995   7.976  18.486   2.284 -0.0829  0.3300 -0.0439
    1DIPC   GL222996   8.281  18.547   2.362  0.0258 -0.1603 -0.3487
    1DIPC   C1A22997   7.790  18.334   2.748 -0.1159  0.0540  0.0143
    1DIPC   D2A22998   7.614  18.206   3.139  0.3318 -0.1980 -0.0256
    1DIPC   D3A22999   7.594  18.595   3.231 -0.0181 -0.0786  0.1774
    1DIPC   C4A23000   7.482  18.701   3.656 -0.0381 -0.0388 -0.0650
    1DIPC   C1B23001   8.264  18.153   2.548 -0.4238 -0.3542  0.1769
    1DIPC   D2B23002   8.076  17.902   2.820 -0.2185 -0.1648 -0.0579
    1DIPC   D3B23003   8.120  18.167   3.117 -0.2718  0.0028 -0.1526
    1DIPC   C4B23004   8.016  18.029   3.554 -0.2281 -0.1748  0.0542
    1DIPC   NC323005   2.823  19.426   2.291 -0.1959  0.1470 -0.1589
    1DIPC   PO423006   3.115  19.818   2.374  0.1257 -0.2895  0.1169
    1DIPC   GL123007   3.401  19.887   2.737 -0.0601 -0.2572  0.1410
    1DIPC   GL223008   3.170  19.963   2.911 -0.1384 -0.0082 -0.1802
    1DIPC   C1A23009   3.627  19.757   3.073 -0.1863 -0.1395 -0.0869
    1DIPC   D2A23010   3.730  19.869   3.491  0.2633  0.0687 -0.1470
    1DIPC   D3A23011   3.371  19.568   3.624 -0.1012 -0.0105 -0.2560
    1DIPC   C4A23012   3.483  19.166   3.795 -0.1601  0.0449  0.1044
    1DIPC   C1B23013   3.161  19.934   3.323  0.2507  0.1150  0.0584
    1DIPC   D2B23014   2.961  19.950   3.693 -0.3127 -0.1892 -0.3120
    1DIPC   D3B23015   3.012  19.752   4.023  0.2200 -0.1464 -0.0288
    1DIPC   C4B23016   3.357  19.777   4.332  0.0033  0.1984 -0.2265
    1DIPC   NC323017   2.956  25.068   1.719 -0.2030  0.2150  0.2388
    1DIPC   PO423018   2.753  25.430   1.999 -0.1808 -0.1587  0.1669
    1DIPC   GL123019   2.514  25.294   2.362 -0.2485 -0.1377 -0.0149
    1DIPC   GL223020   2.765  25.184   2.638 -0.1507  0.1910  0.3962
    1DIPC   C1A23021   2.181  25.497   2.543  0.1907  0.0525  0.0005
    1DIPC   D2A23022   1.835  25.800   2.746 -0.0379 -0.1297  0.1116
    1DIPC   D3A23023   1.691  25.682   3.096  0.1141 -0.1398 -0.3293
    1DIPC   C4A23024   1.245  25.841   3.226 -0.0354 -0.1333  0.0173
    1DIPC   C1B23025   2.796  25.031   2.997 -0.0830  0.3216 -0.1412
    1DIPC   D2B23026   2.948  25.237   3.341  0.2258  0.2063 -0.2316
    1DIPC   D3B23027   2.487  25.097   3.506  0.0687  0.3404 -0.0296
    1DIPC   C4B23028   2.363  25.464   3.601 -0.1207  0.0284  0.1363
    1DIPC   NC323029  13.617   0.013   3.045 -0.0054  0.2023  0.0394
    1DIPC   PO423030  14.048   0.015   3.217 -0.0154  0.0131 -0.1775
    1DIPC   GL123031  13.996  -0.108   3.645 -0.1137 -0.0253 -0.1116
    1DIPC   GL223032  13.785  -0.282   3.859 -0.2450  0.0340 -0.2497
    1DIPC   C1A23033  13.953   0.139   4.108 -0.2655 -0.1755 -0.0150
    1DIPC   D2A23034  14.269   0.433   4.248  0.2394  0.0459 -0.0075
    1DIPC   D3A23035  14.413   0.065   4.066  0.0654 -0.0227 -0.1010
    1DIPC   C4A23036  14.215  -0.376   4.128  0.2932 -0.0191  0.2172
    1DIPC   C1B23037  13.715  -0.244   4.349  0.0429  0.0068  0.0082
    1DIPC   D2B23038  13.855  -0.081   4.762  0.1598 -0.3166 -0.1581
    1DIPC   D3B23039  13.825  -0.427   4.910  0.0542  0.1109 -0.1411
    1DIPC   C4B23040  14.217  -0.746   5.002 -0.1023  0.0135 -0.0681
    1DIPC   NC323041  17.572   1.337   2.974  0.1961  0.1671 -0.0854
    1DIPC   PO423042  17.130   1.307   2.822 -0.1218 -0.3179 -0.1110
    1DIPC   GL123043  16.974   1.231   3.207 -0.1043  0.0904 -0.1091
    1DIPC   GL223044  16.972   1.007   3.373 -0.1327  0.1267  0.0793
    1DIPC   C1A23045  17.069   1.521   3.531 -0.0895  0.0628  0.3414
    1DIPC   D2A23046  17.119   1.826   3.936 -0.0579  0.2291 -0.6601
    1DIPC   D3A23047  17.209   1.495   4.260  0.0536  0.0716 -0.0772
    1DIPC   C4A23048  17.580   1.175   4.463 -0.0007 -0.2176  0.2410
    1DIPC   C1B23049  17.169   0.983   3.844  0.0900  0.1188  0.0238
    1DIPC   D2B23050  17.590   0.961   3.977 -0.2661 -0.4078  0.2281
    1DIPC   D3B23051  17.617   1.388   3.865  0.0641 -0.2960 -0.1401
    1DIPC   C4B23052  17.799   1.595   4.207  0.1170 -0.1056 -0.1269
    1DIPC   NC323053   6.782   4.411   3.085  0.1420 -0.1709 -0.2391
    1DIPC   PO423054   7.199   4.201   3.180 -0.2114 -0.0196  0.0555
    1DIPC   GL123055   7.207   4.157   3.635 -0.1732 -0.1405  0.3048
    1DIPC   GL223056   7.161   3.932   3.818 -0.0751  0.1272 -0.0663
    1DIPC   C1A23057   7.214   4.467   3.997 -0.0253  0.2105 -0.2218
    1DIPC   D2A23058   7.288   4.610   4.434  0.1450  0.3556  0.2278
    1DIPC   D3A23059   7.641   4.621   4.297  0.2556  0.0942 -0.1187
    1DIPC   C4A23060   7.688   4.450   3.795 -0.3033  0.4234  0.3747
    1DIPC   C1B23061   7.299   4.014   4.333 -0.0718  0.1518  0.2689
    1DIPC   D2B23062   7.578   4.080   4.576  0.3487 -0.4068  0.0841
    1DIPC   D3B23063   7.715   3.788   4.905  0.0755 -0.4236  0.1714
    1DIPC   C4B23064   7.739   3.904   5.399 -0.1066 -0.0058  0.0663
    1DIPC   NC323065  22.798  29.313   3.230  0.1839 -0.0774  0.1547
    1DIPC   PO423066  22.560  29.762   3.231 -0.1437 -0.3701  0.0028
    1DIPC   GL123067  22.871  29.777   3.590 -0.0804 -0.0053 -0.1850
    1DIPC   GL223068  23.101  29.984   3.661  0.0460  0.1155  0.1072
    1DIPC   C1A23069  22.876  29.398   3.938 -0.3436 -0.1852  0.1033
    1DIPC   D2A23070  22.764  29.245   4.285 -0.0248 -0.2169  0.2640
    1DIPC   D3A23071  22.398  29.110   4.138 -0.0769  0.0519  0.2134
    1DIPC   C4A23072  22.177  29.289   4.006  0.0336 -0.4348  0.1934
    1DIPC   C1B23073  22.859  29.976   4.021 -0.1956  0.2308  0.1003
    1DIPC   D2B23074  22.846  30.362   4.271  0.0396  0.0696  0.3532
    1DIPC   D3B23075  23.109  30.130   4.641  0.1977 -0.1718  0.0915
    1DIPC   C4B23076  23.496  29.801   4.548  0.2494  0.2304  0.3571
    1DIPC   NC323077  27.434   7.879   2.753 -0.1691 -0.1778  0.0803
    1DIPC   PO423078  27.903   7.985   2.564 -0.2110 -0.0094  0.1665
    1DIPC   GL123079  27.989   7.967   3.063  0.0306 -0.0732 -0.0932
    1DIPC   GL223080  27.797   7.687   3.190  0.2788  0.2021 -0.3662
    1DIPC   C1A23081  28.060   8.270   3.435  0.2635 -0.0511  0.2360
    1DIPC   D2A23082  28.234   8.488   3.830  0.0966 -0.2466  0.1582
    1DIPC   D3A23083  27.941   8.797   4.168 -0.0662 -0.2178 -0.1366
    1DIPC   C4A23084  28.219   8.941   4.552  0.0880  0.2397  0.2282
    1DIPC   C1B23085  28.013   7.490   3.497 -0.0295  0.1020  0.1175
    1DIPC   D2B23086  27.937   7.611   3.927 -0.1923  0.0653  0.1532
    1DIPC   D3B23087  27.505   7.828   4.018 -0.2955 -0.1035  0.1936
    1DIPC   C4B23088  27.206   7.578   4.250 -0.0892  0.0557  0.1571
    1DIPC   NC323089  17.325  29.866   3.293 -0.2207 -0.1124  0.2075
    1DIPC   PO423090  17.178  30.285   3.121  0.0614  0.0203 -0.0493
    1DIPC   GL123091  17.221  30.525   3.499  0.0354 -0.2768 -0.0724
    1DIPC   GL223092  16.838  30.545   3.708 -0.0429 -0.0376  0.2559
    1DIPC   C1A23093  17.250  30.418   3.952  0.2862  0.1255 -0.3004
    1DIPC   D2A23094  17.530  30.323   4.303  0.1728  0.1599  0.2393
    1DIPC   D3A23095  17.246  30.439   4.538  0.0513  0.2990 -0.0975
    1DIPC   C4A23096  17.164  30.801   4.360  0.0574  0.3322 -0.0368
    1DIPC   C1B23097  16.748  30.170   3.958 -0.0698 -0.0337 -0.2660
    1DIPC   D2B23098  16.780  29.744   4.035 -0.0692 -0.0472  0.0356
    1DIPC   D3B23099  16.441  29.548   4.064 -0.2279 -0.1232 -0.1412
    1DIPC   C4B23100  16.354  29.180   4.200  0.0007 -0.0726 -0.1674
    1DIPC   NC323101   5.570  25.722   2.290  0.1280  0.0422 -0.0446
    1DIPC   PO423102   5.197  25.920   2.406 -0.2771 -0.0169 -0.0306
    1DIPC   GL123103   5.011  25.629   2.719  0.1257  0.1064  0.0602
    1DIPC   GL223104   4.716  25.795   2.738 -0.1276 -0.0224 -0.0703
    1DIPC   C1A23105   5.175  25.517   3.063 -0.3622 -0.2570 -0.1719
    1DIPC   D2A23106   5.533  25.269   3.218 -0.2083  0.1954 -0.1301
    1DIPC   D3A23107   5.281  25.018   2.954 -0.2756  0.0932 -0.0695
    1DIPC   C4A23108   4.883  25.114   2.879  0.1902 -0.1065  0.1934
    1DIPC   C1B23109   4.735  25.792   3.206  0.1794 -0.0228 -0.0280
    1DIPC   D2B23110   4.680  25.624   3.589  0.0605  0.3150  0.3143
    1DIPC   D3B23111   4.714  25.595   3.992  0.0415 -0.0573  0.1596
    1DIPC   C4B23112   5.135  25.542   4.129 -0.0220  0.0056  0.0990
    1DIPC   NC323113   0.635  29.862   3.119  0.1346 -0.4963  0.3492
    1DIPC   PO423114   0.661  29.455   3.043  0.1769 -0.1218 -0.0891
    1DIPC   GL123115   0.850  29.520   3.506 -0.1632 -0.1586 -0.0702
    1DIPC   GL223116   0.934  29.252   3.611 -0.1757 -0.1317 -0.2531
    1DIPC   C1A23117   0.834  29.612   3.968  0.1318  0.2362  0.2596
    1DIPC   D2A23118   0.840  29.752   4.390 -0.0542  0.2286  0.1790
    1DIPC   D3A23119   1.126  29.387   4.510 -0.1713  0.0449 -0.1972
    1DIPC   C4A23120   1.568  29.418   4.749  0.5168  0.1549  0.0137
    1DIPC   C1B23121   1.274  29.396   3.926 -0.0887  0.2545  0.0911
    1DIPC   D2B23122   1.524  29.637   4.175 -0.1885  0.0679 -0.1426
    1DIPC   D3B23123   1.827  29.295   4.151 -0.2528 -0.2991 -0.0552
    1DIPC   C4B23124   1.897  29.011   4.477 -0.0065 -0.2384 -0.1342
    1DIPC   NC323125  28.542  20.278   2.607  0.3269 -0.2095 -0.0380
    1DIPC   PO423126  28.584  20.766   2.605  0.1691 -0.0130  0.2009
    1DIPC   GL123127  28.763  20.921   2.987 -0.0068  0.0919  0.0779
    1DIPC   GL223128  28.972  20.819   3.140  0.0600  0.0796 -0.1019
    1DIPC   C1A23129  28.805  21.328   3.277 -0.2067 -0.0821  0.3511
    1DIPC   D2A23130  28.621  21.647   3.532  0.2132 -0.2388  0.0705
    1DIPC   D3A23131  28.706  21.610   3.960 -0.0875  0.1463 -0.2292
    1DIPC   C4A23132  29.115  21.524   4.065 -0.0298 -0.2115  0.0118
    1DIPC   C1B23133  29.273  20.889   3.492  0.3915  0.0256  0.0496
    1DIPC   D2B23134  29.310  20.933   3.930 -0.1011 -0.2085 -0.0177
    1DIPC   D3B23135  29.319  20.981   4.332  0.3858  0.0093 -0.1009
    1DIPC   C4B23136  29.223  21.465   4.525 -0.1548 -0.0536  0.1865
    1DIPC   NC323137  23.735  14.123   2.692 -0.0064 -0.0209 -0.2758
    1DIPC   PO423138  23.431  13.767   2.600 -0.2673  0.3756  0.0778
    1DIPC   GL123139  23.348  13.839   3.001 -0.0197  0.1478 -0.2293
    1DIPC   GL223140  23.332  14.183   2.981 -0.1233 -0.0902 -0.0651
    1DIPC   C1A23141  23.156  13.802   3.399 -0.0987 -0.1722 -0.1163
    1DIPC   D2A23142  23.271  13.839   3.887  0.1369 -0.0411 -0.0590
    1DIPC   D3A23143  23.443  13.945   4.330  0.1514  0.0551 -0.2017
    1DIPC   C4A23144  23.448  14.286   4.630  0.2352 -0.1902 -0.1125
    1DIPC   C1B23145  23.559  14.148   3.357  0.0734 -0.1962  0.0636
    1DIPC   D2B23146  23.801  14.239   3.690 -0.0036  0.2451  0.0944
    1DIPC   D3B23147  23.375  14.308   3.805  0.1021 -0.0670  0.3383
    1DIPC   C4B23148  22.961  14.234   3.613  0.2273  0.1556  0.2072
    1DIPC   NC323149  12.635  23.508   2.489 -0.0668  0.2186  0.3707
    1DIPC   PO423150  13.084  23.671   2.513 -0.1076  0.0543  0.1688
    1DIPC   GL123151  12.997  23.619   2.906 -0.1796 -0.0965 -0.1010
    1DIPC   GL223152  13.111  24.061   3.067  0.2162 -0.0701  0.2288
    1DIPC   C1A23153  12.713  23.577   3.219 -0.0377 -0.0869 -0.3906
    1DIPC   D2A23154  12.472  23.502   3.678 -0.0981 -0.0109  0.1298
    1DIPC   D3A23155  12.843  23.596   3.777 -0.1430 -0.0116  0.1886
    1DIPC   C4A23156  13.003  23.301   4.076 -0.1954 -0.0035 -0.2294
    1DIPC   C1B23157  13.189  23.916   3.495 -0.0993 -0.1769 -0.3111
    1DIPC   D2B23158  13.399  23.927   3.889 -0.2425 -0.0941  0.0829
    1DIPC   D3B23159  13.308  23.755   4.235 -0.0441  0.1028 -0.2097
    1DIPC   C4B23160  12.896  23.804   4.220  0.1634 -0.0904 -0.0146
    1DIPC   NC323161  21.837  22.712   3.247 -0.1582  0.2290  0.0127
    1DIPC   PO423162  21.460  22.442   3.530 -0.0200  0.0882 -0.0542
    1DIPC   GL123163  21.206  22.673   3.837  0.0492 -0.2388 -0.1706
    1DIPC   GL223164  21.131  22.415   3.942  0.0681  0.0182  0.1555
    1DIPC   C1A23165  21.077  23.045   3.968 -0.1000  0.2592  0.1973
    1DIPC   D2A23166  21.147  23.195   4.368 -0.1361 -0.0012 -0.1325
    1DIPC   D3A23167  21.127  22.815   4.390  0.1784  0.0089 -0.1354
    1DIPC   C4A23168  21.185  22.642   4.647  0.0589 -0.1400  0.0542
    1DIPC   C1B23169  21.375  22.356   4.278 -0.1376 -0.2093  0.0459
    1DIPC   D2B23170  21.866  22.540   4.328 -0.0585 -0.0656  0.1791
    1DIPC   D3B23171  21.681  22.748   4.617  0.1666  0.0540  0.0678
    1DIPC   C4B23172  21.631  22.665   5.052  0.0120  0.1989  0.1652
    1DIPC   NC323173   0.859  13.963   2.367  0.1567 -0.3112  0.2112
    1DIPC   PO423174   0.534  14.313   2.290 -0.0154  0.0498  0.1700
    1DIPC   GL123175   0.387  14.241   2.719 -0.1129 -0.0968 -0.3504
    1DIPC   GL223176   0.530  13.977   2.900 -0.2689  0.1885 -0.0531
    1DIPC   C1A23177   0.518  14.466   3.122 -0.1873 -0.0632  0.2234
    1DIPC   D2A23178   1.027  14.576   3.115  0.3013  0.1367 -0.1667
    1DIPC   D3A23179   0.889  14.690   3.511  0.0573  0.0553 -0.2602
    1DIPC   C4A23180   0.664  14.516   3.913  0.1278  0.1289  0.0829
    1DIPC   C1B23181   0.343  14.069   3.349 -0.0509 -0.2116 -0.0690
    1DIPC   D2B23182   0.382  14.152   3.789  0.3264  0.0602 -0.0885
    1DIPC   D3B23183   0.289  14.003   4.201 -0.1153  0.0967 -0.2921
    1DIPC   C4B23184   0.027  14.339   4.489 -0.0507 -0.0598  0.2099
    1DIPC   NC323185  21.891  21.297   3.009  0.1391 -0.3830 -0.0650
    1DIPC   PO423186  21.623  20.872   3.021  0.0393 -0.2906 -0.0804
    1DIPC   GL123187  21.550  20.668   3.407  0.0325  0.0083  0.0553
    1DIPC   GL223188  21.402  20.805   3.644 -0.0134 -0.1009  0.2772
    1DIPC   C1A23189  21.520  20.321   3.668  0.0042 -0.0524 -0.0239
    1DIPC   D2A23190  21.662  20.087   3.902 -0.0399 -0.0738  0.1910
    1DIPC   D3A23191  21.343  20.148   4.169  0.1981 -0.2621  0.2354
    1DIPC   C4A23192  21.492  20.076   4.579 -0.2195 -0.0041  0.0240
    1DIPC   C1B23193  21.533  20.668   3.993 -0.2060  0.1437 -0.0607
    1DIPC   D2B23194  21.441  20.601   4.378  0.0265 -0.0614 -0.0105
    1DIPC   D3B23195  21.841  20.427   4.615 -0.1448  0.0180 -0.1742
    1DIPC   C4B23196  22.308  20.297   4.450  0.1131  0.1615  0.0235
    1DIPC   NC323197  29.608  26.785   2.166  0.3851 -0.0591 -0.3178
    1DIPC   PO423198  29.615  26.519   2.559  0.2550 -0.1711 -0.4158
    1DIPC   GL123199  29.675  26.583   2.949  0.0537 -0.4283  0.2343
    1DIPC   GL223200  29.409  26.624   3.110  0.1297  0.2568 -0.1300
    1DIPC   C1A23201  29.902  26.581   3.226  0.0422 -0.5218  0.0256
    1DIPC   D2A23202  29.885  26.879   3.412 -0.0406 -0.1000  0.0592
    1DIPC   D3A23203  29.750  26.730   3.755 -0.0187  0.1479  0.1451
    1DIPC   C4A23204  29.754  26.567   4.033  0.0763 -0.1111  0.1942
    1DIPC   C1B23205  29.349  26.567   3.618  0.1286  0.1485  0.2403
    1DIPC   D2B23206  29.107  26.474   3.976 -0.2251  0.3233 -0.1489
    1DIPC   D3B23207  28.916  26.155   4.181  0.0031 -0.1142  0.0545
    1DIPC   C4B23208  28.901  25.727   4.206 -0.0984  0.0695  0.4793
    1DIPC   NC323209   4.791   0.467   3.213  0.4010 -0.0050  0.0340
    1DIPC   PO423210   4.480   0.040   3.113 -0.1218 -0.1473  0.1093
    1DIPC   GL123211   4.784   0.038   3.482  0.4750  0.0537  0.2914
    1DIPC   GL223212   4.682   0.022   3.710 -0.1428  0.0763  0.2750
    1DIPC   C1A23213   5.087   0.148   3.901 -0.0339 -0.2271  0.0609
    1DIPC   D2A23214   4.976   0.334   4.251  0.1710  0.0299 -0.4804
    1DIPC   D3A23215   4.712   0.260   4.547 -0.3333  0.1679  0.3035
    1DIPC   C4A23216   4.515   0.650   4.714 -0.0771 -0.1161  0.1537
    1DIPC   C1B23217   4.471  -0.211   3.963 -0.3403 -0.0976 -0.1780
    1DIPC   D2B23218   4.252  -0.092   4.277 -0.1523 -0.0229 -0.0102
    1DIPC   D3B23219   4.104  -0.361   4.675  0.0138 -0.0895  0.1356
    1DIPC   C4B23220   3.986  -0.197   5.072  0.0270  0.3560 -0.0026
    1DIPC   NC323221  29.116  20.955   2.524 -0.0962 -0.1363 -0.3433
    1DIPC   PO423222  29.541  21.151   2.648  0.0862  0.1601  0.1336
    1DIPC   GL123223  29.876  21.005   2.930 -0.0689  0.0126  0.0111
    1DIPC   GL223224  29.733  20.833   3.274 -0.1416  0.3389 -0.2510
    1DIPC   C1A23225  30.189  21.055   3.180  0.1123 -0.4767  0.1085
    1DIPC   D2A23226  30.489  21.346   3.301 -0.0573  0.0279 -0.1528
    1DIPC   D3A23227  30.308  21.210   3.674  0.1478  0.2633  0.3402
    1DIPC   C4A23228  30.419  21.357   4.129  0.4193  0.3604 -0.1442
    1DIPC   C1B23229  29.897  20.900   3.615 -0.1746  0.2440 -0.0733
    1DIPC   D2B23230  29.796  21.041   4.075 -0.2067 -0.4928  0.0524
    1DIPC   D3B23231  29.812  21.502   4.141 -0.0633 -0.1141 -0.0583
    1DIPC   C4B23232  29.524  21.852   4.257  0.0974  0.4421  0.3174
    1DIPC   NC323233  25.256  26.829   3.243 -0.0530 -0.0764 -0.4682
    1DIPC   PO423234  25.098  26.423   3.232  0.5452  0.0337  0.0299
    1DIPC   GL123235  24.831  26.835   3.449  0.0905 -0.0936  0.0034
    1DIPC   GL223236  25.028  27.092   3.631  0.0635 -0.0554 -0.4039
    1DIPC   C1A23237  24.611  26.619   3.768  0.0996  0.1546 -0.0869
    1DIPC   D2A23238  24.762  26.508   4.072 -0.0493 -0.0626  0.0003
    1DIPC   D3A23239  24.393  26.464   4.221  0.0587  0.1457  0.1108
    1DIPC   C4A23240  24.101  26.722   4.209  0.0410  0.1288  0.2558
    1DIPC   C1B23241  25.136  27.196   4.108 -0.2550 -0.0191  0.0660
    1DIPC   D2B23242  24.994  27.608   4.316 -0.1939 -0.2820  0.0052
    1DIPC   D3B23243  25.349  27.441   4.478 -0.1147 -0.0406 -0.0328
    1DIPC   C4B23244  25.535  27.039   4.347  0.1467  0.0075  0.1561
    1DIPC   NC323245  17.246  25.885   3.573  0.0116 -0.1179  0.0929
    1DIPC   PO423246  17.570  25.552   3.549  0.0770 -0.0853 -0.0246
    1DIPC   GL123247  17.541  25.716   3.919  0.1955  0.2714  0.0251
    1DIPC   GL223248  17.401  25.493   4.098 -0.1386 -0.0462 -0.3527
    1DIPC   C1A23249  17.756  25.860   4.207  0.0697 -0.1483 -0.0168
    1DIPC   D2A23250  17.689  25.861   4.760 -0.3356 -0.1178 -0.1492
    1DIPC   D3A23251  17.300  25.925   4.830  0.0402  0.1900  0.0274
    1DIPC   C4A23252  16.952  26.133   4.862 -0.0412  0.1666  0.4476
    1DIPC   C1B23253  17.377  25.410   4.562 -0.5501 -0.1422  0.0558
    1DIPC   D2B23254  17.121  25.268   4.910  0.0757 -0.0968 -0.0042
    1DIPC   D3B23255  17.406  25.436   5.159  0.0519 -0.1453 -0.0561
    1DIPC   C4B23256  17.598  25.918   5.266  0.3075 -0.1392  0.2084
    1DIPC   NC323257  23.409   3.674   3.247  0.1062  0.3482  0.0990
    1DIPC   PO423258  23.135   3.445   3.526 -0.1087  0.0422  0.2853
    1DIPC   GL123259  22.935   3.137   3.653  0.0402 -0.0956  0.0244
    1DIPC   GL223260  22.959   2.800   3.661 -0.0719  0.0866  0.0994
    1DIPC   C1A23261  22.484   2.955   3.876 -0.0036 -0.1302  0.2601
    1DIPC   D2A23262  22.373   2.924   4.241 -0.2946 -0.0235  0.2038
    1DIPC   D3A23263  22.649   2.797   4.463 -0.0331 -0.2126  0.2212
    1DIPC   C4A23264  22.778   2.750   4.934 -0.0744  0.0486 -0.0283
    1DIPC   C1B23265  22.936   2.788   4.097  0.2116 -0.2510  0.1341
    1DIPC   D2B23266  23.188   2.806   4.543  0.0250 -0.2660 -0.2350
    1DIPC   D3B23267  23.085   2.459   4.708  0.3473 -0.3239 -0.0639
    1DIPC   C4B23268  23.438   2.210   4.449 -0.0732  0.1771 -0.0521
    1DIPC   NC323269   1.691   5.015   3.225 -0.0540  0.2509 -0.3805
    1DIPC   PO423270   2.069   4.822   3.330  0.1252 -0.4167  0.2541
    1DIPC   GL123271   2.238   5.122   3.727 -0.2526 -0.0240 -0.3285
    1DIPC   GL223272   2.661   5.079   3.852 -0.2666  0.0683 -0.1232
    1DIPC   C1A23273   2.157   5.079   4.113  0.1839 -0.0381  0.0800
    1DIPC   D2A23274   2.245   5.334   4.453  0.0574 -0.0744  0.1298
    1DIPC   D3A23275   1.951   5.022   4.615 -0.0957  0.1811 -0.0293
    1DIPC   C4A23276   1.807   5.122   4.977 -0.1230 -0.3387 -0.3256
    1DIPC   C1B23277   2.751   5.125   4.294 -0.1694 -0.5591  0.1122
    1DIPC   D2B23278   2.770   5.023   4.744 -0.1097 -0.1113  0.2321
    1DIPC   D3B23279   2.486   4.971   5.028 -0.0755  0.2734 -0.0632
    1DIPC   C4B23280   2.407   4.629   5.120 -0.0338 -0.1784  0.4584
    1DIPC   NC323281   5.461  24.654   2.732 -0.0267 -0.2024 -0.0901
    1DIPC   PO423282   5.726  24.987   2.692 -0.2356 -0.0785  0.2251
    1DIPC   GL123283   5.831  24.808   3.151 -0.1238  0.0858  0.0573
    1DIPC   GL223284   5.510  24.625   3.285 -0.3877  0.1150 -0.2062
    1DIPC   C1A23285   5.907  24.696   3.619 -0.2112  0.2164  0.1098
    1DIPC   D2A23286   5.737  24.999   3.954  0.2326  0.2141  0.1039
    1DIPC   D3A23287   6.088  25.173   3.937  0.4356 -0.4863  0.0984
    1DIPC   C4A23288   6.371  25.103   4.248  0.0170  0.1179 -0.2509
    1DIPC   C1B23289   5.389  24.970   3.597  0.2013 -0.1713 -0.3921
    1DIPC   D2B23290   5.052  25.190   3.727 -0.0149 -0.1767 -0.2194
    1DIPC   D3B23291   4.517  25.172   3.743  0.0079 -0.0701  0.1394
    1DIPC   C4B23292   4.141  24.931   3.925  0.1297 -0.3017  0.0992
    1DIPC   NC323293  12.247   7.800   3.054 -0.2795 -0.1201 -0.1691
    1DIPC   PO423294  12.636   7.543   2.976  0.1106 -0.1410  0.1515
    1DIPC   GL123295  12.622   7.723   3.390 -0.3229 -0.3129 -0.1051
    1DIPC   GL223296  12.278   7.731   3.526  0.2505 -0.0645  0.2068
    1DIPC   C1A23297  12.795   7.885   3.710  0.1626  0.0593 -0.1879
    1DIPC   D2A23298  12.717   7.729   4.121  0.4029 -0.0127  0.1057
    1DIPC   D3A23299  12.813   7.799   4.574 -0.1853  0.2071 -0.0309
    1DIPC   C4A23300  13.033   7.497   4.779  0.2683  0.0665 -0.3129
    1DIPC   C1B23301  12.337   7.479   3.881 -0.1140  0.3595  0.2213
    1DIPC   D2B23302  12.187   7.389   4.276  0.0131 -0.1769 -0.1172
    1DIPC   D3B23303  12.129   7.219   4.764 -0.2315 -0.4140  0.1092
    1DIPC   C4B23304  11.894   6.826   4.898 -0.0631  0.1154  0.2687
    1DIPC   NC323305  28.494  27.030   2.803  0.2500  0.1964 -0.2429
    1DIPC   PO423306  28.648  26.637   2.796  0.5089 -0.0914 -0.0478
    1DIPC   GL123307  28.727  26.734   3.193  0.2075  0.2238 -0.2337
    1DIPC   GL223308  28.963  26.685   3.287 -0.1105 -0.0661  0.2054
    1DIPC   C1A23309  28.520  26.971   3.454 -0.1213  0.0532 -0.0524
    1DIPC   D2A23310  28.303  27.425   3.298  0.1550 -0.1847 -0.0361
    1DIPC   D3A23311  28.055  27.640   3.660 -0.2382  0.0736 -0.0426
    1DIPC   C4A23312  27.649  27.502   3.666  0.1288  0.0776 -0.3506
    1DIPC   C1B23313  28.763  26.608   3.674 -0.4726 -0.0299  0.0757
    1DIPC   D2B23314  28.291  26.751   3.871 -0.2022  0.0438  0.0713
    1DIPC   D3B23315  28.065  26.805   4.265 -0.1743 -0.0881  0.0470
    1DIPC   C4B23316  27.620  26.919   4.417  0.0674 -0.1055 -0.0928
    1DIPC   NC323317   7.390  13.198   2.328  0.0679  0.0863  0.1047
    1DIPC   PO423318   7.733  13.196   2.570 -0.1207  0.1737  0.1439
    1DIPC   GL123319   7.678  13.359   2.858 -0.0003  0.1437  0.0432
    1DIPC   GL223320   7.403  13.448   2.947  0.0772  0.0350 -0.3472
    1DIPC   C1A23321   7.772  13.347   3.298  0.0333 -0.0512  0.3165
    1DIPC   D2A23322   7.876  13.220   3.665  0.1644  0.1395 -0.2019
    1DIPC   D3A23323   8.077  13.052   3.851  0.0305  0.0556  0.0243
    1DIPC   C4A23324   8.343  12.797   3.701 -0.0498  0.2654  0.1614
    1DIPC   C1B23325   7.155  13.748   3.108  0.0869  0.1811  0.2700
    1DIPC   D2B23326   6.933  13.864   3.530 -0.4861 -0.0223 -0.1394
    1DIPC   D3B23327   7.122  13.737   3.919 -0.3360 -0.3633  0.1025
    1DIPC   C4B23328   7.010  13.998   4.275  0.1911  0.2349 -0.1475
    1DIPC   NC323329  17.551  25.115   3.141 -0.2454  0.0511 -0.3903
    1DIPC   PO423330  17.222  24.927   3.095 -0.3158  0.2157 -0.1460
    1DIPC   GL123331  17.250  24.662   3.486 -0.5235 -0.4252  0.1388
    1DIPC   GL223332  17.197  24.820   3.797  0.0885  0.1180  0.1328
    1DIPC   C1A23333  17.411  24.317   3.840 -0.0205  0.4369  0.0272
    1DIPC   D2A23334  17.501  24.026   4.301 -0.0628  0.0668  0.1187
    1DIPC   D3A23335  17.257  24.308   4.458  0.1272  0.0735 -0.0840
    1DIPC   C4A23336  17.232  24.403   4.879 -0.1188 -0.1100  0.1657
    1DIPC   C1B23337  16.869  24.692   4.206 -0.0169  0.2952 -0.1944
    1DIPC   D2B23338  16.504  24.723   4.363  0.0754  0.1910 -0.0405
    1DIPC   D3B23339  16.462  24.987   4.695 -0.1862 -0.3646  0.2182
    1DIPC   C4B23340  16.679  25.136   5.059  0.0963  0.1453 -0.2702
    1DIPC   NC323341   5.145  17.207   1.880 -0.0805  0.2954  0.1142
    1DIPC   PO423342   5.035  17.642   2.040  0.1564 -0.3004 -0.0675
    1DIPC   GL123343   4.829  17.765   2.515  0.2288  0.0247  0.1041
    1DIPC   GL223344   4.920  17.483   2.777 -0.0319 -0.2341  0.0834
    1DIPC   C1A23345   4.591  17.824   2.882 -0.0319 -0.0669 -0.0899
    1DIPC   D2A23346   4.245  17.904   3.260 -0.1372 -0.3380  0.2888
    1DIPC   D3A23347   3.978  17.716   2.903 -0.0998 -0.4558 -0.1761
    1DIPC   C4A23348   4.313  17.447   2.628 -0.0661 -0.2607 -0.0685
    1DIPC   C1B23349   4.957  17.392   3.112 -0.1305 -0.0471  0.2461
    1DIPC   D2B23350   4.779  17.334   3.401  0.1943 -0.1033 -0.0163
    1DIPC   D3B23351   4.424  17.395   3.552  0.0198 -0.2887 -0.1846
    1DIPC   C4B23352   4.124  17.367   3.237 -0.2482 -0.0020  0.0254
    1DIPC   NC323353  23.362   2.637   3.196 -0.0546  0.0280 -0.0401
    1DIPC   PO423354  23.420   3.148   3.162  0.1106 -0.4881 -0.2981
    1DIPC   GL123355  23.403   3.010   3.613 -0.1773  0.0214  0.0647
    1DIPC   GL223356  23.673   2.720   3.644  0.0561 -0.1087  0.0816
    1DIPC   C1A23357  23.330   3.093   4.066 -0.2475  0.1012  0.0184
    1DIPC   D2A23358  23.505   3.168   4.584 -0.1762 -0.2268 -0.0445
    1DIPC   D3A23359  23.429   3.001   4.969 -0.1047  0.1246 -0.1181
    1DIPC   C4A23360  23.450   3.313   5.339 -0.0995 -0.3099 -0.0392
    1DIPC   C1B23361  23.985   2.636   4.048  0.2842 -0.2177  0.3224
    1DIPC   D2B23362  24.290   2.842   4.303  0.4639 -0.4143 -0.0118
    1DIPC   D3B23363  24.410   2.361   4.339 -0.0630 -0.0180 -0.0477
    1DIPC   C4B23364  24.436   2.097   4.055  0.0899 -0.3100 -0.3543
    1DIPC   NC323365   6.585  17.527   2.479 -0.0143 -0.2168  0.2355
    1DIPC   PO423366   6.197  17.914   2.541  0.0881  0.2770 -0.0690
    1DIPC   GL123367   6.311  17.883   2.893 -0.1738  0.1716  0.0161
    1DIPC   GL223368   6.582  17.690   2.934  0.0020  0.0999 -0.0115
    1DIPC   C1A23369   6.229  17.483   3.185  0.1636  0.0724  0.1228
    1DIPC   D2A23370   6.310  17.006   3.214 -0.1406  0.0405  0.2268
    1DIPC   D3A23371   6.454  17.260   3.561  0.0829 -0.0630  0.0550
    1DIPC   C4A23372   6.515  17.321   4.040  0.5379  0.2756 -0.2442
    1DIPC   C1B23373   6.497  17.885   3.385  0.0963  0.0035 -0.1995
    1DIPC   D2B23374   6.236  18.094   3.734  0.0139  0.1847  0.1059
    1DIPC   D3B23375   5.835  18.198   3.634 -0.0153  0.1781 -0.3558
    1DIPC   C4B23376   5.528  18.504   3.793  0.1273 -0.3273 -0.1326
    1DIPC   NC323377   0.766  14.730   2.167 -0.1070 -0.1670 -0.2996
    1DIPC   PO423378   1.220  14.826   2.328  0.1131 -0.0274 -0.1415
    1DIPC   GL123379   1.449  14.706   2.706 -0.1994  0.1834 -0.0068
    1DIPC   GL223380   1.711  14.630   2.849  0.2985  0.1928  0.3361
    1DIPC   C1A23381   1.383  14.962   3.138 -0.2766 -0.1349 -0.3502
    1DIPC   D2A23382   1.133  15.139   3.188  0.1231 -0.1112  0.1146
    1DIPC   D3A23383   0.862  15.178   3.623  0.1972  0.0492 -0.1393
    1DIPC   C4A23384   1.066  15.373   4.031 -0.4088 -0.0536 -0.1492
    1DIPC   C1B23385   1.824  14.742   3.314  0.0481 -0.1658 -0.0712
    1DIPC   D2B23386   1.840  14.780   3.809 -0.2143 -0.1561  0.0866
    1DIPC   D3B23387   1.531  14.542   4.068 -0.2296 -0.0238  0.1898
    1DIPC   C4B23388   1.110  14.638   4.230  0.1836 -0.0076 -0.0055
    1DIPC   NC323389   4.604   3.619   3.533 -0.0839  0.1289 -0.1121
    1DIPC   PO423390   4.234   3.937   3.439 -0.3682  0.3561  0.1873
    1DIPC   GL123391   3.994   4.100   3.828  0.2101  0.1247 -0.1419
    1DIPC   GL223392   3.632   4.002   3.799  0.1602 -0.0872  0.1706
    1DIPC   C1A23393   4.132   4.046   4.287 -0.5653  0.1468  0.1366
    1DIPC   D2A23394   3.837   3.921   4.697  0.1585 -0.0987 -0.2593
    1DIPC   D3A23395   4.284   4.041   4.809  0.2524 -0.0986 -0.0309
    1DIPC   C4A23396   4.539   4.156   4.614 -0.0710 -0.1999  0.1448
    1DIPC   C1B23397   3.546   4.021   4.234  0.0031  0.1486  0.2064
    1DIPC   D2B23398   3.303   4.136   4.656 -0.2132  0.1395 -0.0860
    1DIPC   D3B23399   3.136   4.274   5.031 -0.1323  0.1850  0.2680
    1DIPC   C4B23400   2.872   4.528   5.081 -0.0145  0.4162 -0.0982
    1DIPC   NC323401  24.753  24.995   2.756 -0.2556 -0.0301 -0.1176
    1DIPC   PO423402  24.927  24.810   3.164 -0.1203  0.0381  0.0793
    1DIPC   GL123403  24.874  24.792   3.624 -0.0042 -0.2605  0.0983
    1DIPC   GL223404  24.712  24.993   3.813  0.1382  0.0037  0.0633
    1DIPC   C1A23405  25.236  24.761   3.926 -0.0568 -0.0713 -0.0977
    1DIPC   D2A23406  25.426  24.385   4.073  0.1958 -0.1888  0.1117
    1DIPC   D3A23407  25.647  24.053   3.936 -0.1334  0.1224 -0.0386
    1DIPC   C4A23408  25.587  24.011   3.495 -0.3726  0.0173  0.1019
    1DIPC   C1B23409  24.890  25.105   4.241 -0.1930  0.1202  0.0838
    1DIPC   D2B23410  24.887  25.264   4.729  0.3576 -0.0844 -0.1170
    1DIPC   D3B23411  24.644  25.491   4.470 -0.0510  0.0422 -0.2025
    1DIPC   C4B23412  24.556  25.477   4.022  0.0336 -0.2341 -0.0040
    1DIPC   NC323413   8.372  13.482   2.584 -0.0495  0.1481 -0.0181
    1DIPC   PO423414   7.988  13.683   2.628  0.1940 -0.0116 -0.0128
    1DIPC   GL123415   8.127  13.831   3.036  0.1988  0.0423  0.1986
    1DIPC   GL223416   8.460  13.741   3.073  0.1310 -0.2236  0.0507
    1DIPC   C1A23417   8.089  13.758   3.506  0.0126  0.1829  0.0100
    1DIPC   D2A23418   8.068  13.561   3.899  0.0168 -0.0430  0.0776
    1DIPC   D3A23419   7.879  13.600   4.341 -0.1426 -0.0004  0.2333
    1DIPC   C4A23420   7.526  13.336   4.496 -0.0631  0.1615 -0.1127
    1DIPC   C1B23421   8.537  13.975   3.490  0.2505 -0.3074  0.0158
    1DIPC   D2B23422   8.439  13.911   3.894 -0.1439  0.1486 -0.0219
    1DIPC   D3B23423   8.779  14.003   4.194  0.2469 -0.2161 -0.0463
    1DIPC   C4B23424   8.733  14.148   4.532  0.0214  0.2006 -0.0634
    1DIPC   NC323425  21.251   2.241   2.970 -0.1261 -0.2025  0.0312
    1DIPC   PO423426  21.245   1.835   2.910  0.1268 -0.1062 -0.1055
    1DIPC   GL123427  21.454   1.641   3.271 -0.2437  0.2895  0.1056
    1DIPC   GL223428  21.206   1.559   3.443 -0.0179 -0.2112  0.0971
    1DIPC   C1A23429  21.627   1.585   3.694  0.0094  0.2963  0.0526
    1DIPC   D2A23430  21.468   1.516   4.156 -0.4839  0.0232 -0.3203
    1DIPC   D3A23431  21.108   1.609   4.200 -0.3455 -0.2558 -0.2915
    1DIPC   C4A23432  20.976   1.742   4.523 -0.1485  0.2604 -0.0905
    1DIPC   C1B23433  20.950   1.182   3.682  0.0358  0.2730  0.1271
    1DIPC   D2B23434  20.670   1.268   3.954  0.2665 -0.0505 -0.0495
    1DIPC   D3B23435  20.653   1.506   4.271  0.0101  0.0149 -0.2025
    1DIPC   C4B23436  20.687   1.253   4.633 -0.0247  0.0725  0.0982
    1DIPC   NC323437   4.526  13.523   2.511  0.0733  0.3649  0.2652
    1DIPC   PO423438   4.807  13.429   2.844 -0.1908 -0.1104  0.0408
    1DIPC   GL123439   4.834  13.299   3.279 -0.1384  0.2445  0.1002
    1DIPC   GL223440   5.194  13.417   3.346  0.0307 -0.2404  0.1396
    1DIPC   C1A23441   4.716  13.330   3.656  0.1313  0.1380 -0.0008
    1DIPC   D2A23442   4.831  13.140   4.091  0.0467 -0.1250  0.1490
    1DIPC   D3A23443   4.575  12.990   4.404 -0.1552 -0.1105 -0.1887
    1DIPC   C4A23444   4.396  12.591   4.252  0.0973  0.0387 -0.0432
    1DIPC   C1B23445   5.169  13.544   3.817  0.1501 -0.0824  0.1647
    1DIPC   D2B23446   5.470  13.384   4.047 -0.0427  0.0125 -0.1726
    1DIPC   D3B23447   5.425  13.376   4.567 -0.5023 -0.0265  0.0393
    1DIPC   C4B23448   5.505  13.466   5.042 -0.1332  0.0112 -0.1461
    1DIPC   NC323449  27.272  26.308   2.970  0.2131  0.3292  0.0975
    1DIPC   PO423450  27.062  25.889   3.023 -0.3070  0.0526 -0.0322
    1DIPC   GL123451  27.231  26.057   3.439 -0.3089  0.0456  0.2160
    1DIPC   GL223452  27.537  26.233   3.348  0.2255  0.1512 -0.1116
    1DIPC   C1A23453  27.241  26.172   3.863  0.0198  0.0831 -0.0278
    1DIPC   D2A23454  27.529  26.236   4.261 -0.0311 -0.1734 -0.1073
    1DIPC   D3A23455  27.668  25.910   4.560 -0.1634 -0.4647 -0.3361
    1DIPC   C4A23456  27.639  25.558   4.402  0.0679  0.2986  0.1347
    1DIPC   C1B23457  27.558  26.599   3.565 -0.0890 -0.2092  0.4847
    1DIPC   D2B23458  27.752  26.614   3.911  0.0181 -0.0392  0.0354
    1DIPC   D3B23459  27.229  26.733   4.038  0.0299 -0.3721  0.3683
    1DIPC   C4B23460  27.090  26.630   4.428 -0.2938  0.1534 -0.3073
    1DIPC   NC323461   1.380  10.752   2.812 -0.0094 -0.0179  0.2751
    1DIPC   PO423462   1.714  10.835   3.112  0.1942  0.3178  0.0174
    1DIPC   GL123463   1.467  11.032   3.467  0.1360  0.2710  0.1664
    1DIPC   GL223464   1.720  11.045   3.698  0.1740  0.0892 -0.0815
    1DIPC   C1A23465   1.493  11.429   3.577 -0.0832  0.2102  0.2356
    1DIPC   D2A23466   1.252  11.611   3.884  0.3431  0.4692  0.0219
    1DIPC   D3A23467   1.214  11.509   4.300 -0.0932  0.1106 -0.2437
    1DIPC   C4A23468   0.793  11.374   4.285  0.0314  0.0574 -0.0276
    1DIPC   C1B23469   1.420  11.051   4.033  0.0571 -0.0153 -0.1067
    1DIPC   D2B23470   1.262  10.979   4.453 -0.3512  0.1420  0.1139
    1DIPC   D3B23471   1.123  10.515   4.407  0.4123 -0.0619  0.3423
    1DIPC   C4B23472   1.256  10.472   4.755 -0.0210 -0.1032 -0.3879
    1DIPC   NC323473  17.310  24.421   3.063 -0.3647  0.1187 -0.1002
    1DIPC   PO423474  17.745  24.664   3.219  0.3222 -0.0534 -0.0443
    1DIPC   GL123475  17.852  24.445   3.644  0.0849  0.3156  0.1254
    1DIPC   GL223476  17.954  24.774   3.804  0.1410  0.2038 -0.0408
    1DIPC   C1A23477  17.878  24.292   4.047  0.0444 -0.2727 -0.2628
    1DIPC   D2A23478  17.766  24.432   4.496  0.2405  0.0279 -0.0639
    1DIPC   D3A23479  17.949  24.693   4.724 -0.1086 -0.2110 -0.1606
    1DIPC   C4A23480  18.204  24.693   5.094 -0.0807  0.2090 -0.3424
    1DIPC   C1B23481  18.122  24.749   4.179 -0.1907  0.4568 -0.0622
    1DIPC   D2B23482  18.475  24.881   4.466  0.0816  0.0196  0.0283
    1DIPC   D3B23483  18.448  25.272   4.601 -0.1111 -0.0755 -0.1413
    1DIPC   C4B23484  18.250  25.237   4.949 -0.0833 -0.0375  0.0657
    1DIPC   NC323485  25.090  16.276   2.152  0.1908  0.2123  0.0272
    1DIPC   PO423486  24.988  16.018   2.634 -0.4125 -0.2088  0.0333
    1DIPC   GL123487  25.054  15.917   3.110  0.0267 -0.3057  0.0081
    1DIPC   GL223488  25.278  15.858   3.158  0.2071 -0.2403  0.3617
    1DIPC   C1A23489  24.968  16.255   3.309  0.1599 -0.1712  0.1253
    1DIPC   D2A23490  24.774  16.508   3.501  0.4269  0.0342 -0.0225
    1DIPC   D3A23491  25.214  16.690   3.581 -0.1305  0.2300 -0.0379
    1DIPC   C4A23492  25.375  17.065   3.539  0.1728  0.0957  0.2139
    1DIPC   C1B23493  25.362  16.114   3.545 -0.0104 -0.0364  0.1941
    1DIPC   D2B23494  25.423  16.162   3.937  0.2146 -0.0432  0.2755
    1DIPC   D3B23495  25.472  16.528   4.180  0.0344  0.5128  0.0449
    1DIPC   C4B23496  25.655  16.785   3.927 -0.0143  0.2178 -0.1357
    1DIPC   NC323497  17.150  27.542   3.517 -0.0366  0.2880  0.1861
    1DIPC   PO423498  17.544  27.726   3.453 -0.4036  0.2959  0.1419
    1DIPC   GL123499  17.510  28.022   3.822  0.2272  0.3295  0.1390
    1DIPC   GL223500  17.264  27.790   3.962 -0.2044 -0.3025 -0.0951
    1DIPC   C1A23501  17.693  28.031   4.223 -0.0048  0.4194 -0.0653
    1DIPC   D2A23502  17.576  27.830   4.636 -0.1240 -0.2621  0.1246
    1DIPC   D3A23503  17.110  27.738   4.997  0.1462 -0.0276  0.0814
    1DIPC   C4A23504  16.724  27.970   5.100 -0.0080 -0.0812  0.0638
    1DIPC   C1B23505  17.171  28.020   4.382  0.3429  0.1109 -0.2208
    1DIPC   D2B23506  17.000  28.191   4.751 -0.3545 -0.0472 -0.1156
    1DIPC   D3B23507  17.237  28.427   5.113  0.1623 -0.1676  0.2898
    1DIPC   C4B23508  17.105  28.838   5.319 -0.1751  0.0541 -0.0162
    1DIPC   NC323509   4.371   3.528   2.690  0.2181  0.2302  0.1650
    1DIPC   PO423510   4.221   3.470   3.190  0.0135 -0.0319 -0.0855
    1DIPC   GL123511   4.190   3.271   3.645  0.0961  0.1884 -0.2842
    1DIPC   GL223512   4.186   3.556   3.798  0.0221 -0.1695 -0.1552
    1DIPC   C1A23513   4.475   2.961   3.839  0.1040  0.1320 -0.2985
    1DIPC   D2A23514   4.753   3.065   4.192 -0.1108  0.2237 -0.1166
    1DIPC   D3A23515   4.786   3.254   4.603  0.3888 -0.0635 -0.2699
    1DIPC   C4A23516   4.656   3.142   5.004 -0.0540 -0.0536  0.4266
    1DIPC   C1B23517   3.949   3.611   4.146 -0.0355 -0.1521 -0.3131
    1DIPC   D2B23518   4.105   3.372   4.407 -0.3438 -0.2310  0.0025
    1DIPC   D3B23519   4.279   2.957   4.583  0.2933  0.1712  0.3590
    1DIPC   C4B23520   4.177   2.850   4.999 -0.2994  0.0468 -0.2716
    1DIPC   NC323521   3.146   4.777   3.288 -0.2782  0.0496  0.1240
    1DIPC   PO423522   3.009   5.146   3.497  0.0493 -0.1561 -0.1993
    1DIPC   GL123523   3.101   5.340   3.890  0.3343 -0.2416 -0.1587
    1DIPC   GL223524   3.243   5.064   4.006  0.1050 -0.0507 -0.0924
    1DIPC   C1A23525   3.319   5.620   4.174 -0.1277 -0.4530 -0.0231
    1DIPC   D2A23526   3.806   5.552   4.251  0.0201  0.1936  0.0202
    1DIPC   D3A23527   3.712   5.189   3.974  0.2297  0.1345  0.3241
    1DIPC   C4A23528   3.703   4.844   4.236 -0.0186  0.0548  0.0328
    1DIPC   C1B23529   3.248   5.105   4.476 -0.2374 -0.1904  0.1791
    1DIPC   D2B23530   3.618   5.435   4.702  0.0223  0.0887 -0.1347
    1DIPC   D3B23531   3.802   5.083   4.606  0.0985 -0.2234 -0.0700
    1DIPC   C4B23532   4.151   5.125   4.464 -0.1553 -0.1197 -0.0950
    1DIPC   NC323533   9.230  21.878   1.931  0.2579  0.0768 -0.1314
    1DIPC   PO423534   9.043  21.655   2.342  0.0649 -0.0714 -0.0908
    1DIPC   GL123535   8.716  21.875   2.613  0.3433  0.0472  0.2801
    1DIPC   GL223536   8.789  21.712   2.807  0.1812 -0.2018 -0.1931
    1DIPC   C1A23537   8.374  22.022   2.833  0.0989 -0.0537 -0.0409
    1DIPC   D2A23538   8.163  21.962   3.203 -0.1759  0.0686  0.1259
    1DIPC   D3A23539   8.049  22.357   3.393  0.1488 -0.3418 -0.2704
    1DIPC   C4A23540   8.436  22.431   3.596  0.3870  0.1259 -0.1176
    1DIPC   C1B23541   8.706  21.712   3.192  0.3903 -0.2518  0.1285
    1DIPC   D2B23542   8.628  21.905   3.526 -0.2758 -0.1807 -0.0784
    1DIPC   D3B23543   8.647  22.182   3.200 -0.0418  0.2198  0.0803
    1DIPC   C4B23544   8.449  22.563   3.076 -0.2778  0.1446 -0.2610
    1DIPC   NC323545   0.277  22.211   2.039  0.1746 -0.1402  0.0469
    1DIPC   PO423546   0.653  22.449   2.032  0.3947 -0.2986  0.1163
    1DIPC   GL123547   0.601  22.180   2.462  0.2059  0.0288  0.2571
    1DIPC   GL223548   0.892  22.228   2.685 -0.0322 -0.1299 -0.1057
    1DIPC   C1A23549   0.545  21.920   2.856 -0.0279 -0.1731  0.4848
    1DIPC   D2A23550   0.855  21.624   2.944  0.0447  0.1854  0.0520
    1DIPC   D3A23551   0.985  21.921   3.356  0.1561  0.0846  0.1290
    1DIPC   C4A23552   1.172  21.709   3.724  0.2854  0.2489 -0.0078
    1DIPC   C1B23553   0.942  22.467   3.012  0.0227 -0.1346 -0.0858
    1DIPC   D2B23554   1.233  22.734   3.249 -0.1339  0.2238  0.1585
    1DIPC   D3B23555   1.500  22.445   3.134  0.0533  0.1571 -0.1247
    1DIPC   C4B23556   1.540  21.996   3.329  0.1011  0.2028 -0.1691
    1DIPC   NC323557  24.648  27.583   2.799 -0.1616  0.4907  0.2825
    1DIPC   PO423558  24.352  27.488   3.146 -0.0440  0.0588 -0.0104
    1DIPC   GL123559  24.106  27.583   3.572 -0.0985 -0.0454 -0.1123
    1DIPC   GL223560  24.321  27.770   3.579  0.1065  0.0424  0.1090
    1DIPC   C1A23561  23.843  27.790   3.908 -0.2575 -0.0753  0.1315
    1DIPC   D2A23562  23.644  27.951   4.218  0.1248  0.0728 -0.1995
    1DIPC   D3A23563  23.216  27.997   4.474 -0.1522 -0.2589  0.0281
    1DIPC   C4A23564  23.018  27.592   4.719  0.1958 -0.0400 -0.0594
    1DIPC   C1B23565  24.279  27.502   4.016 -0.1377  0.0640 -0.0724
    1DIPC   D2B23566  24.596  27.328   4.359 -0.1102  0.0211 -0.1275
    1DIPC   D3B23567  24.222  27.277   4.542  0.0457 -0.2487 -0.0892
    1DIPC   C4B23568  23.943  27.159   4.339  0.0630  0.0574 -0.3877
    1DIPC   NC323569  28.402   7.962   2.687  0.0902 -0.1244 -0.3037
    1DIPC   PO423570  28.388   7.521   2.565  0.2202  0.0189 -0.1412
    1DIPC   GL123571  28.378   7.674   3.091  0.1569  0.0465  0.1097
    1DIPC   GL223572  28.664   7.925   3.119 -0.0265 -0.0728 -0.0010
    1DIPC   C1A23573  28.395   7.917   3.536 -0.1510 -0.1751  0.0442
    1DIPC   D2A23574  28.563   8.059   3.966 -0.0899 -0.1856 -0.2464
    1DIPC   D3A23575  28.456   8.242   4.391 -0.0857 -0.0867 -0.0274
    1DIPC   C4A23576  27.943   8.410   4.516  0.2291  0.0097  0.0662
    1DIPC   C1B23577  28.932   7.910   3.550  0.2293 -0.1935 -0.0152
    1DIPC   D2B23578  29.079   8.053   3.900  0.1920 -0.2792 -0.0960
    1DIPC   D3B23579  29.076   8.409   4.222  0.2647  0.1595  0.0692
    1DIPC   C4B23580  29.445   8.282   4.595  0.2289  0.1177  0.0869
    1DIPC   NC323581  15.654   8.499   2.700 -0.2010 -0.0028  0.1954
    1DIPC   PO423582  15.786   8.129   2.555 -0.0451 -0.0722  0.2783
    1DIPC   GL123583  15.953   8.130   2.999 -0.0094  0.0027  0.1071
    1DIPC   GL223584  16.177   8.330   2.958 -0.1508  0.1200  0.1288
    1DIPC   C1A23585  15.817   8.223   3.301 -0.0329  0.1050  0.2657
    1DIPC   D2A23586  15.674   8.356   3.731 -0.5421  0.0722  0.1020
    1DIPC   D3A23587  15.353   8.345   3.411 -0.0477 -0.0060 -0.1122
    1DIPC   C4A23588  15.152   7.965   3.392  0.1653 -0.0737 -0.0579
    1DIPC   C1B23589  16.269   8.541   3.362  0.1188  0.1861 -0.1773
    1DIPC   D2B23590  16.502   8.700   3.667  0.1968 -0.1599  0.1720
    1DIPC   D3B23591  16.591   8.631   4.069 -0.2666 -0.0733 -0.2312
    1DIPC   C4B23592  16.784   8.812   4.457  0.1070 -0.0712 -0.1775
    1DIPC   NC323593  17.599  22.264   2.869 -0.5356 -0.3895  0.0958
    1DIPC   PO423594  17.601  21.876   2.837  0.0392  0.0267 -0.3791
    1DIPC   GL123595  17.551  21.765   3.199  0.0462  0.1576  0.3398
    1DIPC   GL223596  17.301  21.637   3.192  0.1124  0.0841  0.0531
    1DIPC   C1A23597  17.504  21.989   3.558  0.3605 -0.0350  0.1615
    1DIPC   D2A23598  17.354  22.053   3.933 -0.0030  0.0770  0.2898
    1DIPC   D3A23599  17.434  22.424   4.079  0.0365 -0.3743 -0.0253
    1DIPC   C4A23600  17.245  22.708   4.476 -0.2679 -0.1209 -0.1843
    1DIPC   C1B23601  17.308  21.582   3.677  0.2974  0.2422 -0.0457
    1DIPC   D2B23602  17.163  21.520   4.101 -0.0784 -0.0914  0.3293
    1DIPC   D3B23603  17.430  21.748   4.391  0.0867  0.1663  0.0567
    1DIPC   C4B23604  17.382  21.888   4.823 -0.1983  0.1871 -0.1912
    1DIPC   NC323605  20.596  21.684   2.573  0.0792  0.0620 -0.1144
    1DIPC   PO423606  20.788  21.890   2.890 -0.0624 -0.1743 -0.2908
    1DIPC   GL123607  20.630  21.666   3.278 -0.2512  0.2013 -0.0231
    1DIPC   GL223608  20.650  21.346   3.402 -0.3168  0.0773  0.0981
    1DIPC   C1A23609  20.486  21.801   3.705 -0.1964 -0.3126 -0.1542
    1DIPC   D2A23610  20.369  21.900   4.116 -0.2237 -0.3056  0.0975
    1DIPC   D3A23611  20.816  21.880   4.220 -0.1847 -0.0362 -0.2189
    1DIPC   C4A23612  21.211  21.940   3.999  0.3277 -0.1058 -0.0136
    1DIPC   C1B23613  20.790  21.417   3.800 -0.2594 -0.1435 -0.1897
    1DIPC   D2B23614  20.660  21.308   4.183 -0.2390 -0.1146  0.0231
    1DIPC   D3B23615  20.418  21.468   4.496  0.1481 -0.0475 -0.0031
    1DIPC   C4B23616  20.462  21.689   4.961 -0.0890 -0.1472  0.0332
    1DIPC   NC323617  23.555  28.834   3.096  0.1902  0.1662 -0.0520
    1DIPC   PO423618  23.278  29.100   3.360  0.0015 -0.0039  0.3606
    1DIPC   GL123619  23.295  29.306   3.734 -0.2481 -0.2227 -0.0653
    1DIPC   GL223620  23.624  29.300   3.810 -0.2241  0.4184 -0.0361
    1DIPC   C1A23621  23.289  29.306   4.211  0.1621 -0.2255  0.1392
    1DIPC   D2A23622  23.269  29.363   4.642  0.1708 -0.3692 -0.0470
    1DIPC   D3A23623  22.912  29.138   4.766  0.0106  0.2726  0.0893
    1DIPC   C4A23624  22.929  28.866   5.085  0.2398  0.1445 -0.1389
    1DIPC   C1B23625  23.763  28.945   4.074 -0.1318 -0.1080 -0.2956
    1DIPC   D2B23626  24.012  28.828   4.488  0.0815 -0.1474  0.2566
    1DIPC   D3B23627  23.995  29.171   4.861 -0.2141 -0.0282 -0.1164
    1DIPC   C4B23628  23.683  29.459   4.862 -0.1015 -0.0112 -0.0530
    1DIPC   NC323629   2.614   5.610   3.014  0.0415  0.2409  0.1367
    1DIPC   PO423630   2.233   5.730   3.281  0.1896  0.1049 -0.1730
    1DIPC   GL123631   2.159   5.714   3.843 -0.1962 -0.4050 -0.2094
    1DIPC   GL223632   2.421   5.514   4.007  0.1407 -0.0456 -0.2142
    1DIPC   C1A23633   2.075   5.812   4.338  0.0175 -0.0404  0.0357
    1DIPC   D2A23634   1.770   5.676   4.665 -0.1118  0.2069 -0.2387
    1DIPC   D3A23635   1.395   5.602   4.354 -0.1170  0.1170  0.2111
    1DIPC   C4A23636   1.053   5.355   4.358 -0.1644  0.1177  0.1557
    1DIPC   C1B23637   2.623   5.580   4.342  0.0035  0.0878  0.0490
    1DIPC   D2B23638   2.647   5.548   4.772  0.0803  0.0107 -0.0468
    1DIPC   D3B23639   2.229   5.396   4.944  0.0466  0.0273  0.0113
    1DIPC   C4B23640   2.174   5.341   5.352  0.0459 -0.2362 -0.1748
    1DIPC   NC323641   1.344   0.474   2.628 -0.0343 -0.1347  0.1863
    1DIPC   PO423642   1.049   0.250   2.904  0.0617  0.1199 -0.1712
    1DIPC   GL123643   1.245   0.520   3.212 -0.0833 -0.0879  0.1784
    1DIPC   GL223644   1.131   0.841   3.197  0.0579  0.0471  0.0439
    1DIPC   C1A23645   1.273   0.494   3.684  0.2820  0.0112  0.0288
    1DIPC   D2A23646   1.297   0.443   4.127  0.2055 -0.1519  0.1760
    1DIPC   D3A23647   1.048   0.742   4.044  0.0777 -0.1906  0.2117
    1DIPC   C4A23648   0.656   0.820   4.007  0.0927 -0.0388  0.1575
    1DIPC   C1B23649   1.225   1.004   3.595 -0.1201 -0.0003  0.0847
    1DIPC   D2B23650   1.043   1.211   3.939 -0.1510  0.1755  0.3011
    1DIPC   D3B23651   1.081   1.131   4.373 -0.1233 -0.3775 -0.2828
    1DIPC   C4B23652   1.274   0.855   4.535 -0.0670 -0.0395 -0.0805
    1DIPC   NC323653  27.654  11.611   2.369 -0.2297  0.0996 -0.1662
    1DIPC   PO423654  27.683  11.938   2.681  0.0782  0.3548 -0.1834
    1DIPC   GL123655  27.394  11.709   2.973  0.1149 -0.0598 -0.2307
    1DIPC   GL223656  27.259  11.932   3.017  0.0133  0.1046 -0.1563
    1DIPC   C1A23657  27.750  11.456   3.167 -0.0696 -0.1568 -0.3218
    1DIPC   D2A23658  28.021  11.313   3.484 -0.1341  0.1422 -0.0710
    1DIPC   D3A23659  27.673  11.140   3.690 -0.1466  0.2555 -0.0806
    1DIPC   C4A23660  27.681  10.819   3.968  0.3699  0.3542  0.2387
    1DIPC   C1B23661  27.030  11.845   3.477 -0.4041 -0.1926 -0.0588
    1DIPC   D2B23662  27.031  11.609   3.851  0.2135  0.0702  0.1948
    1DIPC   D3B23663  27.438  11.561   3.904 -0.1400 -0.1067  0.0420
    1DIPC   C4B23664  27.780  11.704   3.719  0.1519  0.1604 -0.0195
    1DIPC   NC323665   5.468   5.424   3.132  0.1420  0.2159  0.0693
    1DIPC   PO423666   5.102   5.594   3.013  0.1040 -0.1382 -0.1276
    1DIPC   GL123667   5.039   5.747   3.471 -0.0505  0.1342  0.2098
    1DIPC   GL223668   5.039   5.572   3.719 -0.3242  0.3253 -0.0970
    1DIPC   C1A23669   5.251   6.015   3.810 -0.1469  0.0347 -0.0753
    1DIPC   D2A23670   5.310   6.311   4.106  0.0420 -0.0379 -0.2410
    1DIPC   D3A23671   5.013   6.123   4.412  0.1823  0.1413 -0.0672
    1DIPC   C4A23672   5.094   5.904   4.768 -0.0773 -0.0752  0.5611
    1DIPC   C1B23673   4.910   5.723   4.092 -0.3690 -0.1983  0.0780
    1DIPC   D2B23674   4.669   5.716   4.520 -0.0725  0.1163  0.5856
    1DIPC   D3B23675   4.478   6.118   4.348  0.0892 -0.1185  0.0034
    1DIPC   C4B23676   4.546   6.507   4.356  0.0341 -0.0229 -0.0746
    1DIPC   NC323677   0.755  12.379   2.421 -0.2042  0.1006 -0.1089
    1DIPC   PO423678   1.136  12.375   2.683  0.0806  0.0948 -0.1943
    1DIPC   GL123679   1.089  12.112   3.170 -0.1603  0.1726  0.1443
    1DIPC   GL223680   0.785  11.846   3.229  0.2546 -0.0087 -0.0258
    1DIPC   C1A23681   1.125  12.083   3.705 -0.2661  0.1571 -0.0266
    1DIPC   D2A23682   0.920  12.000   4.121 -0.2500 -0.1142 -0.3073
    1DIPC   D3A23683   0.618  11.790   4.105 -0.0530 -0.0428  0.0232
    1DIPC   C4A23684   0.461  11.579   3.800 -0.1573  0.1905  0.0496
    1DIPC   C1B23685   0.446  11.967   3.495  0.0775  0.0090  0.2171
    1DIPC   D2B23686   0.264  12.085   3.893  0.0415 -0.0896 -0.0625
    1DIPC   D3B23687   0.472  12.413   4.070  0.0571  0.0714 -0.0113
    1DIPC   C4B23688   0.537  12.789   3.917  0.1373 -0.0952  0.0908
    1DIPC   NC323689   1.593  24.642   1.809 -0.3196 -0.0695  0.2251
    1DIPC   PO423690   1.904  24.861   2.167 -0.1013  0.0148 -0.1083
    1DIPC   GL123691   1.662  25.077   2.589  0.2299  0.0389 -0.0810
    1DIPC   GL223692   1.564  25.413   2.630  0.0115 -0.1318  0.0359
    1DIPC   C1A23693   1.541  24.930   2.970 -0.3373  0.0177  0.0368
    1DIPC   D2A23694   1.451  24.482   3.075  0.0862 -0.1051 -0.1648
    1DIPC   D3A23695   1.793  24.146   3.004 -0.1852  0.0203 -0.0398
    1DIPC   C4A23696   1.795  23.717   3.285 -0.1319  0.0636  0.0854
    1DIPC   C1B23697   1.885  25.282   2.969 -0.0130 -0.1887 -0.1383
    1DIPC   D2B23698   1.976  25.187   3.264 -0.1355 -0.1239 -0.0015
    1DIPC   D3B23699   2.014  25.026   3.771 -0.3123 -0.2571  0.2010
    1DIPC   C4B23700   1.963  24.616   3.990 -0.3864 -0.2238  0.0266
    1DIPC   NC323701   1.878  23.257   2.128  0.0082  0.0341 -0.0378
    1DIPC   PO423702   1.889  23.163   2.605 -0.0961 -0.1086 -0.0469
    1DIPC   GL123703   1.858  23.201   3.098  0.1449 -0.0594 -0.2408
    1DIPC   GL223704   1.524  23.122   3.011 -0.1291 -0.1662  0.1253
    1DIPC   C1A23705   1.918  23.323   3.553 -0.1374  0.2061 -0.0369
    1DIPC   D2A23706   2.085  23.252   3.952  0.1795  0.1991  0.1362
    1DIPC   D3A23707   2.444  23.334   3.694 -0.1464  0.1115  0.1372
    1DIPC   C4A23708   2.333  23.380   3.202  0.0829 -0.1108  0.2274
    1DIPC   C1B23709   1.436  23.197   3.431  0.3323 -0.2868  0.0820
    1DIPC   D2B23710   1.470  23.107   3.858 -0.0319  0.0050 -0.0446
    1DIPC   D3B23711   1.241  23.404   3.998  0.0073 -0.0625  0.1298
    1DIPC   C4B23712   0.916  23.676   4.023  0.3457 -0.1672 -0.1949
    1DIPC   NC323713  26.038   9.257   2.489  0.2469  0.1505  0.1476
    1DIPC   PO423714  26.277   9.492   2.427  0.0884 -0.1543  0.1714
    1DIPC   GL123715  26.626   9.774   2.711 -0.1944 -0.1045 -0.2569
    1DIPC   GL223716  26.619   9.926   2.895  0.0467 -0.0338 -0.1014
    1DIPC   C1A23717  26.827   9.516   3.064  0.2035 -0.0319 -0.0088
    1DIPC   D2A23718  26.902   9.103   3.283 -0.0963 -0.0401 -0.1158
    1DIPC   D3A23719  27.060   9.124   3.714 -0.1831  0.0838  0.3174
    1DIPC   C4A23720  26.937   9.052   4.133  0.1462 -0.0517  0.1299
    1DIPC   C1B23721  26.449   9.831   3.256 -0.2438 -0.0572  0.0524
    1DIPC   D2B23722  26.415   9.774   3.696 -0.2731  0.0835 -0.3246
    1DIPC   D3B23723  26.733  10.119   3.771 -0.0667 -0.2930 -0.3264
    1DIPC   C4B23724  26.686  10.637   3.802  0.3770  0.0002  0.1701
    1DIPC   NC323725  26.334  29.702   3.484 -0.3404  0.0956  0.2401
    1DIPC   PO423726  26.022  29.492   3.408 -0.0196 -0.1738 -0.0009
    1DIPC   GL123727  26.040  29.586   3.859  0.3363 -0.0626 -0.1450
    1DIPC   GL223728  26.356  29.528   3.973 -0.1160  0.2127  0.4566
    1DIPC   C1A23729  26.066  29.772   4.268 -0.0278 -0.1419 -0.0706
    1DIPC   D2A23730  26.289  29.890   4.605 -0.2296 -0.0752  0.2354
    1DIPC   D3A23731  26.219  29.563   4.873  0.2141  0.2187  0.1299
    1DIPC   C4A23732  26.529  29.367   5.126  0.0837  0.3008  0.0446
    1DIPC   C1B23733  26.492  29.432   4.330 -0.1691  0.1009 -0.1738
    1DIPC   D2B23734  26.721  29.337   4.650 -0.0101  0.1240  0.0253
    1DIPC   D3B23735  27.001  29.054   4.919 -0.2627  0.0837 -0.2097
    1DIPC   C4B23736  26.756  28.955   5.260  0.1931 -0.3728 -0.3198
    1DIPC   NC323737  26.131  19.921   2.749 -0.1014 -0.0311  0.1076
    1DIPC   PO423738  26.273  20.269   3.062  0.1511  0.3596 -0.2205
    1DIPC   GL123739  26.388  20.440   3.368  0.2784  0.2372 -0.1493
    1DIPC   GL223740  26.275  20.353   3.710 -0.1223 -0.0231  0.0947
    1DIPC   C1A23741  26.786  20.475   3.551 -0.1587  0.2812  0.4174
    1DIPC   D2A23742  27.070  20.539   3.896  0.2824  0.3488  0.1027
    1DIPC   D3A23743  26.885  20.352   4.247  0.0176  0.1848  0.0094
    1DIPC   C4A23744  26.522  20.566   4.463  0.0314  0.1483  0.0612
    1DIPC   C1B23745  26.206  20.239   4.177  0.3870 -0.3072  0.1903
    1DIPC   D2B23746  26.382  20.116   4.519  0.1942  0.1962 -0.0202
    1DIPC   D3B23747  26.741  20.263   4.724  0.1897  0.0185  0.0123
    1DIPC   C4B23748  27.171  19.983   4.665  0.0324  0.0831  0.2863
    1DIPC   NC323749  26.580  11.506   2.508 -0.0405 -0.1529 -0.0219
    1DIPC   PO423750  26.844  11.505   2.839 -0.0233  0.0831  0.1352
    1DIPC   GL123751  26.563  11.766   3.035  0.2505 -0.0032 -0.0735
    1DIPC   GL223752  26.574  11.710   3.358 -0.1306 -0.0394  0.3103
    1DIPC   C1A23753  26.256  12.070   3.220 -0.0383 -0.2201  0.0938
    1DIPC   D2A23754  25.910  12.146   3.345 -0.0317  0.3771  0.1448
    1DIPC   D3A23755  25.901  12.536   3.258  0.0679 -0.2059  0.2139
    1DIPC   C4A23756  26.409  12.665   3.160  0.2538 -0.2567  0.1293
    1DIPC   C1B23757  26.546  11.765   3.845 -0.2874  0.0412  0.2278
    1DIPC   D2B23758  26.578  11.833   4.315 -0.0710  0.1910 -0.2811
    1DIPC   D3B23759  26.945  11.995   4.182  0.2178 -0.1770  0.2685
    1DIPC   C4B23760  27.193  12.311   4.123 -0.0781  0.2052 -0.0262
    1DIPC   NC323761  16.765   4.850   2.853 -0.0264 -0.1171 -0.1742
    1DIPC   PO423762  17.190   4.919   2.917  0.0431 -0.0696 -0.2078
    1DIPC   GL123763  17.294   5.351   3.147  0.0331 -0.0984 -0.0294
    1DIPC   GL223764  17.170   5.067   3.427 -0.0697  0.3844  0.0059
    1DIPC   C1A23765  17.358   5.541   3.581  0.2868 -0.2456 -0.1566
    1DIPC   D2A23766  17.372   5.520   4.028 -0.0354 -0.3225 -0.0675
    1DIPC   D3A23767  17.701   5.696   4.367  0.1536 -0.2411  0.2846
    1DIPC   C4A23768  17.706   5.340   4.641 -0.2204 -0.1657  0.0308
    1DIPC   C1B23769  17.482   4.721   3.525 -0.0699 -0.0033  0.1988
    1DIPC   D2B23770  17.472   4.287   3.512  0.2075 -0.0297 -0.2635
    1DIPC   D3B23771  17.723   4.540   3.896  0.2432 -0.0048 -0.0112
    1DIPC   C4B23772  17.353   4.799   4.069  0.2722  0.1011 -0.1909
    1DIPC   NC323773   4.093   6.428   2.928 -0.2404 -0.1686  0.2154
    1DIPC   PO423774   4.195   6.712   3.291  0.1240  0.0585  0.0166
    1DIPC   GL123775   4.089   6.939   3.546 -0.0863  0.0008 -0.0233
    1DIPC   GL223776   3.691   7.142   3.411 -0.1072 -0.0158 -0.0611
    1DIPC   C1A23777   3.947   7.160   3.952  0.0801  0.0867 -0.0325
    1DIPC   D2A23778   3.730   7.477   4.211  0.0739 -0.0609 -0.0280
    1DIPC   D3A23779   3.936   7.835   4.371  0.0206  0.0821 -0.3113
    1DIPC   C4A23780   4.169   7.919   4.669  0.0813 -0.0895  0.1888
    1DIPC   C1B23781   3.495   7.164   3.776 -0.1492  0.0629 -0.2454
    1DIPC   D2B23782   3.314   7.133   4.114  0.1500  0.0456  0.1485
    1DIPC   D3B23783   3.478   7.129   4.480  0.0284 -0.0332 -0.0374
    1DIPC   C4B23784   3.804   7.160   4.719  0.0136  0.0399 -0.1492
    1DIPC   NC323785  15.770   5.543   3.173  0.0115  0.2897 -0.0218
    1DIPC   PO423786  15.356   5.759   3.327  0.2240 -0.0794 -0.3598
    1DIPC   GL123787  15.554   5.871   3.588 -0.0325 -0.1517 -0.1917
    1DIPC   GL223788  15.843   5.822   3.567 -0.1662 -0.1786  0.1674
    1DIPC   C1A23789  15.709   6.251   3.904  0.0440  0.0739  0.1959
    1DIPC   D2A23790  15.818   6.254   4.244  0.0522  0.0650 -0.1668
    1DIPC   D3A23791  16.099   6.391   4.607 -0.2253  0.1763  0.2084
    1DIPC   C4A23792  16.357   6.449   4.890 -0.4878  0.1999 -0.0871
    1DIPC   C1B23793  15.854   5.821   3.990  0.2631  0.0297  0.4616
    1DIPC   D2B23794  16.028   5.489   4.219  0.0106 -0.0322 -0.1649
    1DIPC   D3B23795  15.926   5.422   4.655  0.0387  0.1334  0.3790
    1DIPC   C4B23796  16.127   5.025   4.762 -0.2015  0.1876  0.2409
    1DIPC   NC323797  15.707   2.008   2.998  0.5039 -0.0290  0.1187
    1DIPC   PO423798  16.062   2.205   3.204 -0.1626  0.1228 -0.1701
    1DIPC   GL123799  16.386   2.109   3.345 -0.1249 -0.1856  0.1257
    1DIPC   GL223800  16.224   2.175   3.731  0.0071  0.0303  0.0141
    1DIPC   C1A23801  16.753   2.258   3.615  0.2435 -0.3197  0.1432
    1DIPC   D2A23802  17.012   2.366   3.935 -0.0745 -0.0684 -0.4904
    1DIPC   D3A23803  17.379   2.283   4.157 -0.0385  0.0634  0.0419
    1DIPC   C4A23804  17.530   1.929   4.389 -0.1356 -0.3669 -0.0357
    1DIPC   C1B23805  16.150   1.983   4.047  0.0666 -0.1043  0.1501
    1DIPC   D2B23806  15.667   1.890   4.231 -0.0637 -0.0529 -0.1133
    1DIPC   D3B23807  15.357   1.957   4.610  0.2317  0.2266 -0.1712
    1DIPC   C4B23808  15.173   2.383   4.650 -0.0870 -0.0555 -0.0026
    1DIPC   NC323809  10.508   5.590   3.630  0.1502 -0.2622  0.1458
    1DIPC   PO423810  10.080   5.309   3.697  0.2435 -0.1565  0.0187
    1DIPC   GL123811  10.045   5.514   3.960  0.1499  0.2736  0.0293
    1DIPC   GL223812   9.780   5.467   4.094  0.0399  0.0839 -0.0998
    1DIPC   C1A23813  10.318   5.665   4.217 -0.1517  0.1041 -0.0973
    1DIPC   D2A23814  10.451   5.624   4.587 -0.3094  0.0951  0.0659
    1DIPC   D3A23815  10.596   5.461   4.945 -0.0405  0.0922  0.1959
    1DIPC   C4A23816  10.291   5.389   5.268  0.0148  0.0541  0.2345
    1DIPC   C1B23817  10.085   5.229   4.305  0.1663  0.5276  0.3078
    1DIPC   D2B23818  10.175   4.772   4.379 -0.0103  0.3909  0.1779
    1DIPC   D3B23819   9.861   5.015   4.706 -0.0764  0.1934 -0.2473
    1DIPC   C4B23820   9.340   5.106   4.841  0.1011 -0.2460 -0.0065
    1DIPC   NC323821  27.618  10.771   2.598  0.1456  0.2746 -0.0956
    1DIPC   PO423822  27.503  10.301   2.394 -0.1464 -0.0575  0.4084
    1DIPC   GL123823  27.427  10.067   2.767  0.3336 -0.0602  0.3229
    1DIPC   GL223824  27.073  10.080   2.882 -0.1029 -0.3802 -0.0742
    1DIPC   C1A23825  27.422  10.086   3.245  0.1416  0.0750  0.2477
    1DIPC   D2A23826  27.714  10.088   3.587  0.1186 -0.2190 -0.1652
    1DIPC   D3A23827  27.790   9.875   3.924 -0.0492 -0.1075  0.5558
    1DIPC   C4A23828  27.578   9.813   4.224 -0.0984 -0.1600  0.0731
    1DIPC   C1B23829  26.946   9.955   3.313  0.1114 -0.0296 -0.0164
    1DIPC   D2B23830  26.874   9.620   3.629 -0.1062 -0.2050 -0.3744
    1DIPC   D3B23831  26.669   9.454   4.074  0.1003  0.0587 -0.3469
    1DIPC   C4B23832  26.772   9.425   4.484  0.2683 -0.4431 -0.3696
    1DIPC   NC323833  17.862  21.663   2.423  0.1659  0.3901  0.1002
    1DIPC   PO423834  18.091  21.417   2.683  0.0877  0.4530 -0.1130
    1DIPC   GL123835  18.046  21.439   3.173  0.0335 -0.0433 -0.0535
    1DIPC   GL223836  18.102  21.795   3.128 -0.1779 -0.2528 -0.0574
    1DIPC   C1A23837  17.811  21.555   3.520 -0.0252 -0.1699  0.3071
    1DIPC   D2A23838  17.729  21.604   3.947  0.4069  0.3140  0.0967
    1DIPC   D3A23839  17.835  22.050   3.990  0.3201  0.1193 -0.0711
    1DIPC   C4A23840  18.121  22.247   4.076  0.0887 -0.1543  0.2224
    1DIPC   C1B23841  17.993  22.042   3.523  0.4106  0.2162 -0.1633
    1DIPC   D2B23842  17.742  22.467   3.575  0.1494 -0.0843 -0.0852
    1DIPC   D3B23843  18.105  22.513   3.627 -0.0584  0.0728  0.1305
    1DIPC   C4B23844  18.397  22.184   3.699  0.1573  0.1251 -0.2792
    1DIPC   NC323845   2.877  28.575   2.628  0.0692  0.0240 -0.0906
    1DIPC   PO423846   2.648  28.223   2.655  0.3316 -0.0369  0.1425
    1DIPC   GL123847   2.876  28.158   3.020 -0.1339 -0.2591  0.0647
    1DIPC   GL223848   2.968  28.415   3.203 -0.2295  0.1207  0.1065
    1DIPC   C1A23849   2.753  28.036   3.435  0.4078  0.1061  0.0953
    1DIPC   D2A23850   2.672  28.085   3.900 -0.3148 -0.1153  0.0129
    1DIPC   D3A23851   3.114  28.007   4.061  0.1761 -0.0457  0.3687
    1DIPC   C4A23852   3.048  27.938   4.449  0.0116 -0.1629  0.0191
    1DIPC   C1B23853   3.056  28.332   3.655 -0.0482  0.0806  0.1519
    1DIPC   D2B23854   2.851  28.521   4.025 -0.2075 -0.0864  0.2427
    1DIPC   D3B23855   2.711  28.311   4.446 -0.1237 -0.2656 -0.2496
    1DIPC   C4B23856   2.412  28.529   4.694  0.2361  0.0859  0.1500
    1DIPC   NC323857  27.531   1.007   2.437  0.1004  0.1049 -0.1438
    1DIPC   PO423858  27.914   1.117   2.764 -0.0152  0.2765 -0.0656
    1DIPC   GL123859  28.110   0.966   3.159  0.0237 -0.2149  0.3781
    1DIPC   GL223860  28.238   1.201   3.310  0.0637 -0.0109  0.0362
    1DIPC   C1A23861  28.471   0.725   3.453 -0.0598 -0.1839 -0.0772
    1DIPC   D2A23862  28.608   0.388   3.715 -0.0683  0.1006  0.3234
    1DIPC   D3A23863  28.332   0.688   3.956 -0.2499  0.3365 -0.0312
    1DIPC   C4A23864  28.205   0.960   4.316 -0.3603 -0.3064 -0.1478
    1DIPC   C1B23865  27.915   1.391   3.642 -0.1521 -0.2393 -0.1544
    1DIPC   D2B23866  27.888   1.473   4.074  0.1126  0.2774  0.1132
    1DIPC   D3B23867  28.286   1.378   4.112  0.3144 -0.2070 -0.1032
    1DIPC   C4B23868  28.434   1.171   3.729  0.2758  0.0790  0.3622
    1DIPC   NC323869   5.202  12.643   2.596 -0.1369  0.1677  0.3585
    1DIPC   PO423870   5.641  12.391   2.446  0.3023 -0.5349 -0.0043
    1DIPC   GL123871   5.605  12.456   2.902 -0.0763 -0.0824  0.4246
    1DIPC   GL223872   5.824  12.291   3.172  0.1368  0.4550  0.1358
    1DIPC   C1A23873   5.297  12.530   3.277 -0.0192  0.1641 -0.1363
    1DIPC   D2A23874   5.323  12.487   3.741  0.0658  0.0607 -0.0561
    1DIPC   D3A23875   5.332  12.383   4.107 -0.4645  0.0319  0.0489
    1DIPC   C4A23876   5.468  12.678   4.479  0.1177  0.1026  0.2153
    1DIPC   C1B23877   5.887  12.310   3.613  0.0784  0.0204  0.3972
    1DIPC   D2B23878   5.702  12.789   3.863 -0.1838 -0.0229  0.1136
    1DIPC   D3B23879   6.161  12.735   3.900 -0.0786 -0.1523 -0.0591
    1DIPC   C4B23880   6.415  13.057   4.222  0.2669  0.1723 -0.0086
    1DIPC   NC323881  26.166  21.223   3.137  0.4017 -0.2301  0.0679
    1DIPC   PO423882  26.625  21.197   2.993  0.1956  0.0292  0.2664
    1DIPC   GL123883  26.666  20.886   3.291  0.1233  0.0920 -0.0219
    1DIPC   GL223884  26.462  20.892   3.516 -0.0330 -0.1776  0.0965
    1DIPC   C1A23885  27.039  20.958   3.581  0.0253  0.2244 -0.1404
    1DIPC   D2A23886  27.489  20.790   3.530 -0.4237 -0.0744 -0.0811
    1DIPC   D3A23887  27.568  20.701   3.960 -0.0006 -0.0961  0.2820
    1DIPC   C4A23888  27.489  20.878   4.375 -0.1692  0.1130 -0.1616
    1DIPC   C1B23889  26.524  20.774   3.917 -0.0449  0.0046 -0.2106
    1DIPC   D2B23890  26.792  20.936   4.229  0.1321 -0.1545 -0.3752
    1DIPC   D3B23891  26.998  20.762   4.611 -0.2080  0.0093  0.1245
    1DIPC   C4B23892  27.256  20.469   4.578  0.2043  0.0990 -0.0370
    1DIPC   NC323893  17.131  28.018   3.544 -0.0610 -0.0431  0.2232
    1DIPC   PO423894  16.691  27.896   3.482  0.1216 -0.1528  0.1656
    1DIPC   GL123895  16.826  28.014   3.959  0.0889  0.2194 -0.0022
    1DIPC   GL223896  16.578  27.838   4.152 -0.0682  0.0294  0.0782
    1DIPC   C1A23897  16.739  28.297   4.359 -0.0553 -0.1069 -0.2794
    1DIPC   D2A23898  16.504  28.294   4.805  0.1296 -0.2341 -0.0460
    1DIPC   D3A23899  16.161  28.365   4.463 -0.1752  0.2452  0.0309
    1DIPC   C4A23900  16.265  28.315   4.062  0.0330 -0.1411  0.1711
    1DIPC   C1B23901  16.129  27.821   4.214  0.0817  0.0815  0.0707
    1DIPC   D2B23902  15.779  27.885   4.457 -0.2829  0.0512 -0.0580
    1DIPC   D3B23903  15.544  28.072   4.787 -0.1915 -0.0690  0.0306
    1DIPC   C4B23904  15.727  28.094   5.237 -0.0490 -0.2047  0.0305
    1DIPC   NC323905  18.969  23.942   2.946  0.1428 -0.2151 -0.0540
    1DIPC   PO423906  19.209  24.163   3.362 -0.0003 -0.0100  0.0503
    1DIPC   GL123907  19.392  24.089   3.752 -0.0302 -0.1866 -0.3125
    1DIPC   GL223908  19.435  23.762   3.895  0.0983 -0.3549 -0.0578
    1DIPC   C1A23909  19.424  24.249   4.197 -0.1440  0.2465  0.3362
    1DIPC   D2A23910  19.277  24.145   4.602 -0.2131  0.2145 -0.2621
    1DIPC   D3A23911  18.972  24.038   4.879  0.1282  0.1746  0.2455
    1DIPC   C4A23912  19.014  23.957   5.320  0.1570 -0.1818  0.0956
    1DIPC   C1B23913  19.330  23.760   4.294 -0.1156  0.0939  0.2970
    1DIPC   D2B23914  19.645  23.770   4.565 -0.0218  0.0563  0.0273
    1DIPC   D3B23915  19.630  24.001   4.957  0.2958  0.0949 -0.0688
    1DIPC   C4B23916  19.345  24.304   5.149 -0.1372 -0.4060 -0.1616
    1DIPC   NC323917  21.220   5.171   2.790 -0.0348 -0.3663 -0.1693
    1DIPC   PO423918  21.469   4.785   2.837 -0.1000  0.0840 -0.0276
    1DIPC   GL123919  21.440   5.034   3.197 -0.1796  0.1498 -0.4550
    1DIPC   GL223920  21.661   5.255   3.344 -0.0450 -0.3175  0.2696
    1DIPC   C1A23921  21.159   4.867   3.502 -0.0021 -0.1061  0.0078
    1DIPC   D2A23922  20.954   4.989   3.838  0.0769  0.1330 -0.0785
    1DIPC   D3A23923  20.691   5.388   3.993 -0.0645  0.2015 -0.0294
    1DIPC   C4A23924  20.489   5.396   4.391 -0.1957 -0.2476 -0.0121
    1DIPC   C1B23925  21.611   5.170   3.775  0.0461  0.2712 -0.1949
    1DIPC   D2B23926  21.420   4.805   3.968 -0.1567  0.0366  0.0901
    1DIPC   D3B23927  21.302   4.775   4.361  0.1034  0.1722 -0.1363
    1DIPC   C4B23928  21.646   4.717   4.553  0.1217 -0.1371 -0.0356
    1DIPC   NC323929  17.953  24.142   3.250  0.1606  0.0244  0.0069
    1DIPC   PO423930  18.233  23.858   3.281 -0.0287 -0.3779 -0.1258
    1DIPC   GL123931  18.053  23.810   3.725 -0.0667 -0.3251 -0.2084
    1DIPC   GL223932  17.813  23.911   3.704  0.1515 -0.1672 -0.0324
    1DIPC   C1A23933  18.011  23.857   4.202  0.1054  0.1943 -0.1047
    1DIPC   D2A23934  17.979  24.016   4.621  0.2856 -0.4080 -0.2027
    1DIPC   D3A23935  17.872  24.213   5.050  0.1959  0.2448  0.2327
    1DIPC   C4A23936  17.701  24.577   5.157 -0.1202  0.0466  0.2157
    1DIPC   C1B23937  17.408  23.781   3.812  0.0172  0.0471  0.1003
    1DIPC   D2B23938  17.188  23.570   4.099 -0.0312  0.0215  0.0109
    1DIPC   D3B23939  17.341  23.281   3.888 -0.1461  0.3265  0.1000
    1DIPC   C4B23940  17.307  22.874   4.011  0.3173  0.0994 -0.1870
    1DIPC   NC323941  16.465   8.152   1.751  0.1072 -0.2270 -0.1366
    1DIPC   PO423942  16.561   8.251   2.173  0.2915  0.0603  0.3000
    1DIPC   GL123943  16.676   8.281   2.610 -0.1023  0.0015 -0.0655
    1DIPC   GL223944  17.001   8.482   2.687  0.1027 -0.0067  0.2456
    1DIPC   C1A23945  16.624   8.289   3.086  0.0395  0.0084  0.1210
    1DIPC   D2A23946  16.704   8.253   3.448 -0.4086 -0.0009  0.2134
    1DIPC   D3A23947  16.838   8.287   3.848  0.0925 -0.1224  0.0981
    1DIPC   C4A23948  16.651   7.971   4.144  0.3265  0.1461  0.4383
    1DIPC   C1B23949  17.096   8.463   3.117  0.0960 -0.2452  0.1930
    1DIPC   D2B23950  17.157   8.571   3.549 -0.1074 -0.0372 -0.0177
    1DIPC   D3B23951  17.211   8.141   3.464 -0.2054 -0.1718  0.1788
    1DIPC   C4B23952  17.668   7.993   3.643 -0.0027  0.0852 -0.2040
    1DIPC   NC323953   0.188  15.978   2.088 -0.0288  0.2128 -0.2139
    1DIPC   PO423954   0.447  16.008   2.412  0.0427  0.0774  0.1322
    1DIPC   GL123955   0.496  15.802   2.763  0.3869 -0.0681 -0.0339
    1DIPC   GL223956   0.884  15.835   2.993 -0.3577 -0.0873  0.1147
    1DIPC   C1A23957   0.449  15.836   3.278 -0.4555  0.0839  0.1825
    1DIPC   D2A23958   0.691  15.679   3.685  0.1226 -0.0060  0.2431
    1DIPC   D3A23959   0.731  15.912   4.101  0.0612  0.1012  0.0660
    1DIPC   C4A23960   0.972  15.797   4.317 -0.0189 -0.1167 -0.5719
    1DIPC   C1B23961   0.739  15.438   3.190  0.1078  0.3012  0.1243
    1DIPC   D2B23962   0.448  15.124   3.131  0.1175  0.0639  0.0434
    1DIPC   D3B23963   0.423  14.856   3.550 -0.2915  0.3548 -0.0104
    1DIPC   C4B23964   0.219  14.559   3.567 -0.1509  0.1761 -0.0610
    1DIPC   NC323965   5.668  23.029   2.657 -0.2722 -0.2499 -0.1347
    1DIPC   PO423966   5.585  23.419   2.453 -0.2080 -0.0729  0.0344
    1DIPC   GL123967   5.556  23.419   2.961 -0.3663 -0.4205  0.0403
    1DIPC   GL223968   5.273  23.606   3.000 -0.0515 -0.1911  0.0888
    1DIPC   C1A23969   5.496  23.403   3.379  0.3070  0.2238  0.0735
    1DIPC   D2A23970   5.715  23.168   3.618 -0.0099  0.0473  0.0788
    1DIPC   D3A23971   5.261  22.988   3.652  0.1037  0.1068 -0.4116
    1DIPC   C4A23972   5.265  22.540   3.831 -0.3997  0.2670  0.3039
    1DIPC   C1B23973   5.404  23.884   3.319  0.0474 -0.0330  0.0598
    1DIPC   D2B23974   5.704  24.215   3.479 -0.2324  0.2139  0.3202
    1DIPC   D3B23975   5.535  24.106   3.937  0.1262  0.3537 -0.0291
    1DIPC   C4B23976   5.367  23.687   3.941  0.0193  0.1630  0.1978
    1DIPC   NC323977  14.751   3.813   3.301  0.2823  0.0008 -0.0165
    1DIPC   PO423978  14.365   3.752   3.376  0.2186  0.0089  0.2517
    1DIPC   GL123979  14.425   3.654   3.749  0.0180 -0.2662  0.5050
    1DIPC   GL223980  14.444   3.368   3.789  0.3089  0.0014  0.1304
    1DIPC   C1A23981  14.662   3.730   4.103 -0.0377  0.0088 -0.1760
    1DIPC   D2A23982  14.759   3.833   4.606  0.2595 -0.3852 -0.0018
    1DIPC   D3A23983  14.767   3.443   4.740  0.1796 -0.0099  0.0741
    1DIPC   C4A23984  14.336   3.375   4.589  0.3832 -0.0353 -0.0777
    1DIPC   C1B23985  14.557   3.211   4.136  0.3335  0.3069 -0.2574
    1DIPC   D2B23986  14.811   2.876   3.998  0.2066 -0.0178  0.1753
    1DIPC   D3B23987  15.280   2.800   4.200  0.2710  0.2972 -0.1604
    1DIPC   C4B23988  15.334   2.786   4.536  0.0321 -0.0406  0.2671
    1DIPC   NC323989  23.535   7.033   2.883 -0.0991 -0.2187 -0.2299
    1DIPC   PO423990  23.207   7.124   3.227  0.1094 -0.2201 -0.1513
    1DIPC   GL123991  23.283   7.132   3.642  0.1711 -0.4389  0.1215
    1DIPC   GL223992  23.504   7.366   3.744  0.2696  0.2481 -0.0724
    1DIPC   C1A23993  23.055   7.289   4.034 -0.0769  0.1571  0.0875
    1DIPC   D2A23994  22.916   7.533   4.306 -0.1077 -0.2008  0.0676
    1DIPC   D3A23995  23.173   7.434   4.654 -0.1132 -0.2155 -0.1460
    1DIPC   C4A23996  22.963   7.095   4.952  0.0902  0.0681 -0.1419
    1DIPC   C1B23997  23.883   7.231   3.997  0.2859 -0.1303 -0.3694
    1DIPC   D2B23998  24.090   7.407   4.292  0.1950  0.2600  0.0744
    1DIPC   D3B23999  23.756   7.394   4.632 -0.1595  0.2868  0.3012
    1DIPC   C4B24000  23.552   7.764   4.753  0.1836  0.1965  0.4923
    1DIPC   NC324001   3.518   1.341   2.574 -0.0523 -0.2308  0.1572
    1DIPC   PO424002   3.726   1.147   2.936 -0.2097 -0.0902 -0.0514
    1DIPC   GL124003   3.894   0.959   3.294 -0.2380  0.0012 -0.1172
    1DIPC   GL224004   3.860   0.569   3.428 -0.3099  0.0418  0.2046
    1DIPC   C1A24005   4.135   0.849   3.694  0.1098  0.1055  0.0044
    1DIPC   D2A24006   3.895   0.647   4.044 -0.1086  0.1289 -0.0833
    1DIPC   D3A24007   3.882   0.249   3.971 -0.1507  0.1800  0.4110
    1DIPC   C4A24008   3.825   0.084   4.433 -0.0837 -0.2160 -0.1565
    1DIPC   C1B24009   3.552   0.258   3.560 -0.1022 -0.1258 -0.1073
    1DIPC   D2B24010   3.425  -0.150   3.677  0.0153  0.3475  0.0714
    1DIPC   D3B24011   3.327   0.049   4.036  0.2225  0.1825  0.0029
    1DIPC   C4B24012   3.258  -0.017   4.515 -0.3033 -0.0073 -0.0942
    1DIPC   NC324013  15.037   0.280   3.112 -0.0577  0.2292  0.0808
    1DIPC   PO424014  15.265   0.499   3.485  0.1815  0.1361  0.3978
    1DIPC   GL124015  15.057   0.814   3.678  0.1134 -0.0409 -0.1932
    1DIPC   GL224016  14.737   0.793   3.796  0.3242  0.2157 -0.4547
    1DIPC   C1A24017  15.129   0.997   4.056 -0.2064  0.1617  0.0784
    1DIPC   D2A24018  15.177   1.028   4.504 -0.3400  0.0429 -0.0726
    1DIPC   D3A24019  15.575   1.040   4.616  0.1351 -0.3525  0.0145
    1DIPC   C4A24020  15.910   1.023   4.466  0.2007  0.1305  0.2697
    1DIPC   C1B24021  14.634   0.677   4.130  0.0678 -0.2090 -0.0144
    1DIPC   D2B24022  14.536   0.780   4.631 -0.2490 -0.3246  0.1737
    1DIPC   D3B24023  14.292   0.475   4.762  0.4001 -0.2501  0.0153
    1DIPC   C4B24024  14.278   0.148   4.666  0.1586  0.0743  0.1472
    1DIPC   NC324025  23.158   2.061   2.546 -0.1764 -0.0824 -0.1386
    1DIPC   PO424026  23.293   2.118   3.032  0.2300 -0.4160 -0.0261
    1DIPC   GL124027  23.351   2.137   3.534  0.2623 -0.1161  0.0881
    1DIPC   GL224028  23.207   2.386   3.724  0.1627  0.0450 -0.0631
    1DIPC   C1A24029  23.424   1.962   3.914 -0.1555 -0.0442 -0.0044
    1DIPC   D2A24030  23.121   1.846   4.218  0.0510  0.0190  0.3650
    1DIPC   D3A24031  23.417   1.620   4.447  0.1099  0.0127 -0.0692
    1DIPC   C4A24032  23.842   1.457   4.332  0.3134 -0.2683 -0.2554
    1DIPC   C1B24033  23.376   2.430   4.013  0.0759  0.2997 -0.2755
    1DIPC   D2B24034  23.612   2.668   4.389  0.2413 -0.1351 -0.1224
    1DIPC   D3B24035  23.921   2.458   4.487  0.1177  0.4051 -0.2133
    1DIPC   C4B24036  24.034   2.330   4.845 -0.2303 -0.0603  0.1802
    1DIPC   NC324037  26.535  13.384   2.259 -0.1615  0.0436 -0.0113
    1DIPC   PO424038  26.344  13.025   2.318 -0.0590 -0.0584 -0.0917
    1DIPC   GL124039  26.261  13.078   2.730 -0.6803  0.0191  0.2624
    1DIPC   GL224040  25.990  12.918   2.981 -0.0103  0.0435 -0.2030
    1DIPC   C1A24041  26.598  13.115   3.127  0.1458  0.3389  0.0238
    1DIPC   D2A24042  26.536  13.053   3.574 -0.4152  0.1329 -0.1898
    1DIPC   D3A24043  26.606  13.538   3.577 -0.0394  0.2173 -0.1339
    1DIPC   C4A24044  26.628  13.666   3.177 -0.0136  0.1092 -0.1820
    1DIPC   C1B24045  26.033  13.003   3.393 -0.1515  0.1500 -0.0970
    1DIPC   D2B24046  26.170  13.379   3.703 -0.1588  0.2098 -0.0028
    1DIPC   D3B24047  26.469  13.326   4.011 -0.1320  0.0747  0.0500
    1DIPC   C4B24048  26.815  13.657   4.067 -0.1431  0.1137 -0.0274
    1DIPC   NC324049  21.899  26.813   2.658 -0.1230 -0.0936 -0.0332
    1DIPC   PO424050  22.250  27.011   2.944 -0.0219 -0.0663  0.0113
    1DIPC   GL124051  22.277  27.038   3.369  0.1996 -0.1464 -0.0412
    1DIPC   GL224052  22.100  27.239   3.415  0.2279 -0.0292  0.3288
    1DIPC   C1A24053  22.510  26.782   3.640  0.1123 -0.1946  0.0075
    1DIPC   D2A24054  22.856  26.696   3.945  0.1925 -0.1074 -0.1240
    1DIPC   D3A24055  22.743  26.762   4.374  0.0550  0.1303  0.1387
    1DIPC   C4A24056  22.682  26.839   4.799 -0.3213 -0.2004  0.0691
    1DIPC   C1B24057  22.055  26.894   3.760 -0.1970 -0.1485 -0.1988
    1DIPC   D2B24058  21.816  26.949   4.130  0.2947  0.1607 -0.3975
    1DIPC   D3B24059  21.612  26.911   4.638 -0.4601 -0.1369 -0.0196
    1DIPC   C4B24060  21.560  26.448   4.905 -0.0880  0.1645 -0.1078
    1DIPC   NC324061  25.802   3.182   2.481  0.1824  0.1734  0.0573
    1DIPC   PO424062  26.034   3.159   2.849  0.0036  0.1709 -0.2742
    1DIPC   GL124063  25.861   3.214   3.332 -0.0468  0.1631  0.1505
    1DIPC   GL224064  25.536   2.995   3.382 -0.2598  0.0562  0.2221
    1DIPC   C1A24065  25.895   3.390   3.806 -0.0989 -0.0634 -0.0374
    1DIPC   D2A24066  26.326   3.493   4.046 -0.1244 -0.0139 -0.0720
    1DIPC   D3A24067  26.169   3.028   4.154 -0.3739 -0.4330  0.2562
    1DIPC   C4A24068  26.276   2.747   4.526 -0.1233 -0.0514  0.6856
    1DIPC   C1B24069  25.686   2.902   3.836  0.1171  0.2042  0.2105
    1DIPC   D2B24070  25.752   2.796   4.215  0.1097  0.0977 -0.2052
    1DIPC   D3B24071  25.828   2.570   4.493 -0.2060  0.2428 -0.1085
    1DIPC   C4B24072  25.597   2.133   4.503  0.0244 -0.2367 -0.2560
    1DIPC   NC324073  21.237   3.678   2.745 -0.0288  0.0605  0.1443
    1DIPC   PO424074  21.483   3.261   2.813  0.2014  0.0529  0.2816
    1DIPC   GL124075  21.414   3.388   3.195 -0.5256  0.0162  0.3621
    1DIPC   GL224076  21.200   3.589   3.242 -0.0098 -0.1581  0.0805
    1DIPC   C1A24077  21.608   3.348   3.550 -0.2356  0.1130 -0.0600
    1DIPC   D2A24078  21.539   3.272   3.974  0.1705 -0.4115 -0.2684
    1DIPC   D3A24079  21.861   2.986   4.116  0.4393 -0.2371  0.0104
    1DIPC   C4A24080  21.941   2.757   4.500  0.1054  0.1628 -0.1605
    1DIPC   C1B24081  21.155   3.476   3.746 -0.0955 -0.1630 -0.1290
    1DIPC   D2B24082  21.081   3.430   4.156 -0.2550  0.1068  0.2284
    1DIPC   D3B24083  21.269   3.661   4.343 -0.0740 -0.1317 -0.0043
    1DIPC   C4B24084  21.500   3.691   4.778  0.2206 -0.3864 -0.0315
    1DIPC   NC324085  24.825   2.680   3.026  0.0043  0.1604 -0.0180
    1DIPC   PO424086  24.572   2.894   3.327 -0.1450  0.1120 -0.1659
    1DIPC   GL124087  24.831   2.840   3.782  0.0156 -0.0316  0.1412
    1DIPC   GL224088  25.226   2.793   3.767 -0.1036 -0.3397 -0.1929
    1DIPC   C1A24089  24.759   2.856   4.117  0.0531  0.1538  0.0875
    1DIPC   D2A24090  24.752   2.781   4.519  0.1530  0.0593  0.4127
    1DIPC   D3A24091  24.722   3.184   4.526 -0.2714 -0.0955  0.2653
    1DIPC   C4A24092  24.751   3.628   4.748  0.2938  0.3157  0.1681
    1DIPC   C1B24093  25.224   2.771   4.196  0.0342 -0.1713  0.0363
    1DIPC   D2B24094  25.458   2.958   4.545  0.0042  0.0787 -0.1825
    1DIPC   D3B24095  25.774   3.111   4.784 -0.0390  0.1413 -0.0075
    1DIPC   C4B24096  25.945   2.943   5.243  0.0980 -0.0245 -0.1702
    1DIPC   NC324097  23.524   6.677   3.323 -0.3019 -0.0448  0.0354
    1DIPC   PO424098  23.915   6.712   3.613  0.1282  0.0215  0.1302
    1DIPC   GL124099  23.991   6.775   4.061 -0.0140  0.0128  0.0939
    1DIPC   GL224100  24.267   6.584   4.172 -0.3817  0.1014  0.1780
    1DIPC   C1A24101  23.875   6.937   4.458  0.0042 -0.2431  0.0529
    1DIPC   D2A24102  23.459   6.983   4.658 -0.3525 -0.0749  0.1306
    1DIPC   D3A24103  23.449   7.309   5.026  0.0352  0.0540 -0.1658
    1DIPC   C4A24104  23.847   7.495   5.135 -0.0148 -0.0650 -0.0469
    1DIPC   C1B24105  24.246   6.664   4.646  0.2043  0.0539  0.1616
    1DIPC   D2B24106  24.394   6.591   5.089  0.0078  0.1978 -0.0167
    1DIPC   D3B24107  24.788   6.727   4.845 -0.0728  0.0118 -0.0151
    1DIPC   C4B24108  25.256   6.466   4.754 -0.0837 -0.1663  0.1331
    1DIPC   NC324109  13.479  28.063   3.256  0.0298  0.0295 -0.0970
    1DIPC   PO424110  13.564  27.585   3.348 -0.0582  0.3638  0.0317
    1DIPC   GL124111  13.271  27.642   3.835 -0.3059  0.0307 -0.2132
    1DIPC   GL224112  13.128  27.857   3.743  0.0413 -0.1387 -0.2450
    1DIPC   C1A24113  13.063  27.363   4.200  0.0499  0.3594  0.0782
    1DIPC   D2A24114  12.702  27.327   4.543  0.0922  0.0308  0.0091
    1DIPC   D3A24115  12.872  27.275   4.998 -0.1090  0.1576 -0.3305
    1DIPC   C4A24116  12.602  27.384   5.355 -0.0799  0.1023 -0.1161
    1DIPC   C1B24117  13.155  28.036   4.147 -0.0029 -0.1752  0.1703
    1DIPC   D2B24118  13.106  27.783   4.465  0.1650 -0.1807  0.0601
    1DIPC   D3B24119  13.513  27.503   4.418  0.1181  0.2839 -0.3115
    1DIPC   C4B24120  13.269  27.236   4.731  0.2927  0.0882 -0.1429
    1DIPC   NC324121   4.646  20.950   1.617  0.1088  0.1070  0.0343
    1DIPC   PO424122   4.324  20.902   1.957  0.2286  0.0128  0.2275
    1DIPC   GL124123   4.396  20.885   2.398 -0.1065  0.3586 -0.1096
    1DIPC   GL224124   4.337  20.547   2.493  0.0545  0.2250  0.0233
    1DIPC   C1A24125   4.408  21.087   2.749  0.0493 -0.1813 -0.0263
    1DIPC   D2A24126   4.327  20.803   3.110  0.0382  0.1532 -0.1623
    1DIPC   D3A24127   3.874  20.796   2.991  0.0775  0.0425  0.0475
    1DIPC   C4A24128   3.667  21.187   3.011  0.1801  0.1571 -0.0175
    1DIPC   C1B24129   4.152  20.384   2.809  0.2252  0.3002  0.0573
    1DIPC   D2B24130   3.861  20.216   2.940 -0.1683  0.2817  0.1345
    1DIPC   D3B24131   4.048  20.420   3.309 -0.2046 -0.1179  0.0281
    1DIPC   C4B24132   3.903  20.341   3.719 -0.0639  0.3575 -0.1797
    1DIPC   NC324133  22.691   8.477   2.057 -0.2846 -0.2298  0.0186
    1DIPC   PO424134  22.440   8.573   2.403 -0.1936  0.4435 -0.0614
    1DIPC   GL124135  22.222   8.473   2.803  0.2708  0.1438 -0.0538
    1DIPC   GL224136  22.379   8.179   2.975 -0.0225  0.1260  0.0785
    1DIPC   C1A24137  21.936   8.375   3.136  0.1331 -0.2207  0.1778
    1DIPC   D2A24138  21.890   8.156   3.484 -0.0865  0.3349  0.2227
    1DIPC   D3A24139  21.756   8.218   3.949  0.0614  0.2751 -0.1284
    1DIPC   C4A24140  21.231   8.250   3.933 -0.0857  0.0053  0.1901
    1DIPC   C1B24141  22.344   8.330   3.358 -0.0642  0.2645 -0.1176
    1DIPC   D2B24142  22.274   8.153   3.780  0.0317  0.1901  0.0959
    1DIPC   D3B24143  21.977   7.761   3.891 -0.1235 -0.0187  0.0084
    1DIPC   C4B24144  22.118   7.526   4.361  0.0475  0.1272  0.4594
    1DIPC   NC324145  25.130  18.916   2.044 -0.0631 -0.0985  0.1242
    1DIPC   PO424146  25.129  19.025   2.473  0.0317  0.1539 -0.2593
    1DIPC   GL124147  25.194  18.846   2.799 -0.1561  0.0954  0.2138
    1DIPC   GL224148  25.183  19.129   2.952 -0.0080 -0.0368 -0.0405
    1DIPC   C1A24149  24.887  18.703   3.172 -0.0344 -0.1734  0.0061
    1DIPC   D2A24150  24.560  18.337   3.265 -0.0004  0.0173  0.1105
    1DIPC   D3A24151  24.769  18.470   3.600  0.0157  0.1573 -0.5114
    1DIPC   C4A24152  24.648  18.563   4.010  0.0161 -0.0771 -0.1351
    1DIPC   C1B24153  25.457  19.253   3.321  0.0544  0.0507 -0.1035
    1DIPC   D2B24154  25.683  18.847   3.511  0.2507  0.2384 -0.0695
    1DIPC   D3B24155  25.607  18.741   3.952 -0.0317  0.2252  0.1432
    1DIPC   C4B24156  25.643  18.392   4.079  0.2812 -0.2901  0.1584
    1DIPC   NC324157   2.211  29.158   2.837 -0.2087 -0.2770  0.0254
    1DIPC   PO424158   2.649  29.249   2.828 -0.0923  0.2189 -0.3165
    1DIPC   GL124159   2.357  29.245   3.305  0.2014 -0.2381  0.3397
    1DIPC   GL224160   2.215  28.993   3.340 -0.1431 -0.1174  0.1394
    1DIPC   C1A24161   2.141  29.510   3.587  0.1517 -0.0033  0.3105
    1DIPC   D2A24162   2.327  29.550   3.995 -0.4423  0.0101  0.0031
    1DIPC   D3A24163   2.694  29.429   3.751 -0.2293  0.0713  0.2358
    1DIPC   C4A24164   3.113  29.432   3.886 -0.0990  0.0300  0.0441
    1DIPC   C1B24165   2.318  29.068   3.794  0.3346 -0.3412  0.2326
    1DIPC   D2B24166   2.698  29.137   4.152 -0.1319 -0.3641  0.6036
    1DIPC   D3B24167   2.809  28.847   4.448 -0.0441  0.2332 -0.0890
    1DIPC   C4B24168   3.136  28.988   4.718  0.0266 -0.0491  0.1930
    1DIPC   NC324169   9.256   7.123   2.963  0.1059  0.1496  0.0379
    1DIPC   PO424170   9.525   7.362   3.325 -0.1780 -0.0460 -0.0483
    1DIPC   GL124171   9.297   7.465   3.682 -0.1398  0.0951 -0.3090
    1DIPC   GL224172   9.541   7.693   3.844 -0.2359 -0.2697  0.0242
    1DIPC   C1A24173   9.161   7.630   4.147 -0.2092 -0.2894 -0.1295
    1DIPC   D2A24174   8.968   7.637   4.563  0.0795  0.1055  0.4081
    1DIPC   D3A24175   8.594   7.721   4.701 -0.0545 -0.0511  0.1076
    1DIPC   C4A24176   8.296   7.864   4.396 -0.2531 -0.1561  0.0100
    1DIPC   C1B24177   9.634   7.800   4.372 -0.0397 -0.1594  0.4072
    1DIPC   D2B24178   9.466   7.738   4.747 -0.0235  0.0214 -0.0749
    1DIPC   D3B24179   9.757   7.523   4.945 -0.1025  0.0361 -0.0621
    1DIPC   C4B24180  10.130   7.734   5.051  0.2777  0.0171  0.4601
    1DIPC   NC324181  10.781  27.833   2.734 -0.0585 -0.1654 -0.0817
    1DIPC   PO424182  10.579  27.988   3.163  0.1403  0.1445 -0.1549
    1DIPC   GL124183  10.465  28.055   3.617 -0.0245 -0.0983 -0.1019
    1DIPC   GL224184  10.724  28.215   3.796  0.3589  0.1429 -0.0133
    1DIPC   C1A24185  10.353  27.762   3.918 -0.2794 -0.1343  0.1865
    1DIPC   D2A24186  10.275  27.350   3.971  0.2066  0.0232  0.0934
    1DIPC   D3A24187  10.094  27.333   4.314  0.0861 -0.1404  0.0862
    1DIPC   C4A24188   9.787  27.550   4.363 -0.0384  0.0801  0.0212
    1DIPC   C1B24189  10.774  28.359   4.122 -0.1380  0.1737 -0.0819
    1DIPC   D2B24190  10.753  28.423   4.517 -0.0608 -0.3320  0.1357
    1DIPC   D3B24191  10.300  28.542   4.562  0.0417 -0.1954 -0.2154
    1DIPC   C4B24192  10.150  28.765   4.943  0.1809  0.3872  0.1551
    1DIPC   NC324193  17.771   5.999   2.678 -0.4174 -0.0738  0.4662
    1DIPC   PO424194  18.051   5.954   3.067  0.1285 -0.1820 -0.1405
    1DIPC   GL124195  18.321   6.046   3.331 -0.2102 -0.0410  0.1120
    1DIPC   GL224196  18.228   6.329   3.435  0.0722  0.0863 -0.1302
    1DIPC   C1A24197  18.577   5.879   3.588  0.3717  0.0251  0.0802
    1DIPC   D2A24198  18.790   5.663   3.967 -0.2163  0.0609  0.1857
    1DIPC   D3A24199  18.384   5.597   3.936  0.0133 -0.1389  0.1361
    1DIPC   C4A24200  18.039   5.361   4.164 -0.1096  0.3518  0.1049
    1DIPC   C1B24201  18.141   6.018   3.786  0.1311 -0.3570  0.2069
    1DIPC   D2B24202  18.229   5.968   4.278 -0.1652  0.1451  0.0425
    1DIPC   D3B24203  18.596   6.067   4.083  0.1154 -0.1361  0.0601
    1DIPC   C4B24204  18.467   6.428   3.852 -0.0167 -0.3118 -0.1081
    1DIPC   NC324205   1.994   4.149   2.964  0.1827  0.3097  0.0469
    1DIPC   PO424206   1.892   4.268   3.434 -0.2032  0.0647 -0.0504
    1DIPC   GL124207   1.998   4.015   3.863 -0.0840 -0.1880 -0.0771
    1DIPC   GL224208   1.848   3.695   3.842 -0.3511  0.0051  0.0718
    1DIPC   C1A24209   2.120   3.804   4.272 -0.0032  0.0419 -0.1354
    1DIPC   D2A24210   1.983   3.550   4.652  0.3242 -0.1457  0.1274
    1DIPC   D3A24211   1.649   3.760   4.600  0.0662 -0.3110 -0.0257
    1DIPC   C4A24212   1.547   4.239   4.714 -0.1094 -0.0089  0.5246
    1DIPC   C1B24213   1.742   3.429   4.172  0.2207  0.1644  0.0405
    1DIPC   D2B24214   1.512   3.171   4.575 -0.2749  0.1396  0.2576
    1DIPC   D3B24215   1.370   3.418   4.871 -0.2092 -0.0188 -0.0728
    1DIPC   C4B24216   0.959   3.400   4.979  0.1114  0.1359 -0.1542
    1DIPC   NC324217  26.018   7.348   2.598  0.0100 -0.0872  0.0697
    1DIPC   PO424218  26.258   7.709   2.728 -0.0849  0.1386 -0.2693
    1DIPC   GL124219  26.280   7.857   3.133  0.1755 -0.4163 -0.2230
    1DIPC   GL224220  25.951   7.940   3.242  0.1845  0.1707 -0.1384
    1DIPC   C1A24221  26.577   7.732   3.589 -0.2387 -0.0986 -0.0892
    1DIPC   D2A24222  27.044   7.653   3.742  0.0145  0.0201  0.1671
    1DIPC   D3A24223  26.790   7.814   4.038  0.0634 -0.2012 -0.3262
    1DIPC   C4A24224  26.368   7.680   4.060  0.1984  0.0802 -0.0352
    1DIPC   C1B24225  25.903   8.092   3.687  0.0761  0.1460 -0.1797
    1DIPC   D2B24226  25.886   8.030   4.116  0.0185 -0.0628  0.3329
    1DIPC   D3B24227  26.272   8.068   4.483 -0.1886 -0.1884  0.2306
    1DIPC   C4B24228  26.074   7.967   4.782  0.3255  0.3900 -0.2441
    1DIPC   NC324229  17.971   0.786   2.727  0.1710 -0.0895  0.0434
    1DIPC   PO424230  18.228   0.521   3.073  0.1554  0.2626  0.1401
    1DIPC   GL124231  18.203   0.493   3.474 -0.1453  0.0093  0.1070
    1DIPC   GL224232  18.112   0.139   3.622 -0.2219  0.1759  0.0557
    1DIPC   C1A24233  18.502   0.696   3.824 -0.1195 -0.0879 -0.0527
    1DIPC   D2A24234  18.710   0.717   4.173  0.0664 -0.4094 -0.1283
    1DIPC   D3A24235  18.352   0.637   4.309 -0.2047  0.0749  0.2636
    1DIPC   C4A24236  17.939   0.526   4.022  0.0202 -0.0307 -0.0552
    1DIPC   C1B24237  18.332   0.125   3.950  0.1924 -0.0056 -0.2827
    1DIPC   D2B24238  18.721   0.224   4.245  0.1464 -0.0913  0.1294
    1DIPC   D3B24239  18.394   0.280   4.618 -0.0510  0.1952 -0.1495
    1DIPC   C4B24240  17.950   0.230   4.459  0.0868  0.2135  0.3852
    1DIPC   NC324241   1.494  23.819   2.434  0.0313  0.1144  0.1248
    1DIPC   PO424242   1.130  23.855   2.542  0.0440 -0.1981  0.2369
    1DIPC   GL124243   1.256  23.789   2.967 -0.2029  0.0058  0.1836
    1DIPC   GL224244   1.314  23.531   3.101 -0.3112  0.0240 -0.4292
    1DIPC   C1A24245   1.369  24.078   3.299  0.1117  0.0989 -0.2443
    1DIPC   D2A24246   1.136  24.056   3.743 -0.1240  0.2881  0.0827
    1DIPC   D3A24247   1.330  23.917   4.221 -0.1267 -0.0994  0.0063
    1DIPC   C4A24248   1.713  23.780   4.453 -0.0650  0.2223  0.2154
    1DIPC   C1B24249   0.935  23.206   3.216 -0.2609  0.1372 -0.1430
    1DIPC   D2B24250   0.748  22.913   3.453 -0.1848  0.0439  0.0750
    1DIPC   D3B24251   1.040  22.943   3.626  0.3745  0.0747  0.1776
    1DIPC   C4B24252   1.335  22.627   3.752  0.2831 -0.2043  0.1166
    1DIPC   NC324253  24.648  23.762   3.088 -0.2570 -0.0617 -0.0060
    1DIPC   PO424254  24.203  23.955   3.037  0.0356  0.0554  0.0160
    1DIPC   GL124255  24.026  24.259   3.373  0.1714  0.0793  0.2028
    1DIPC   GL224256  24.282  24.395   3.382 -0.1027 -0.0168  0.2878
    1DIPC   C1A24257  23.855  24.491   3.699  0.0932 -0.1255 -0.1116
    1DIPC   D2A24258  23.477  24.480   4.090  0.2825  0.3836  0.0449
    1DIPC   D3A24259  23.103  24.247   4.237  0.2416 -0.0593  0.0939
    1DIPC   C4A24260  23.085  23.838   4.518  0.0842  0.0948  0.2064
    1DIPC   C1B24261  24.260  24.307   3.918  0.2084  0.0678  0.1431
    1DIPC   D2B24262  24.237  24.336   4.416  0.1092 -0.0179 -0.0589
    1DIPC   D3B24263  24.213  24.655   4.735  0.1300 -0.0928 -0.2324
    1DIPC   C4B24264  24.416  24.472   5.131 -0.3764 -0.0900 -0.2887
    1DIPC   NC324265   8.615   2.389   2.910 -0.0272 -0.0816 -0.2894
    1DIPC   PO424266   8.674   2.287   3.402  0.2363  0.1401 -0.0469
    1DIPC   GL124267   8.718   2.230   3.905  0.2343 -0.1938  0.3315
    1DIPC   GL224268   8.724   1.968   4.047  0.1387 -0.1152 -0.2705
    1DIPC   C1A24269   8.519   2.459   4.296  0.2720 -0.2711 -0.2196
    1DIPC   D2A24270   8.374   2.227   4.609  0.1552  0.0891  0.0102
    1DIPC   D3A24271   8.641   2.369   4.938 -0.1180 -0.1485  0.1512
    1DIPC   C4A24272   8.824   2.818   5.028 -0.0429 -0.2957 -0.0290
    1DIPC   C1B24273   8.811   2.004   4.540 -0.3811  0.1455  0.4276
    1DIPC   D2B24274   8.758   1.869   4.940 -0.1073  0.2263 -0.0814
    1DIPC   D3B24275   8.906   1.711   5.305 -0.2389 -0.1726  0.1378
    1DIPC   C4B24276   9.358   1.859   5.380 -0.1390 -0.1529 -0.4646
    1DIPC   NC324277  24.107  25.313   3.181 -0.2884 -0.1548  0.1339
    1DIPC   PO424278  23.633  25.265   3.036 -0.1776 -0.2596 -0.2515
    1DIPC   GL124279  23.820  25.546   3.465 -0.0387  0.1533 -0.2404
    1DIPC   GL224280  23.949  25.787   3.693  0.0896 -0.0292 -0.2669
    1DIPC   C1A24281  23.794  25.316   3.860 -0.3062 -0.1010 -0.3106
    1DIPC   D2A24282  23.744  24.994   3.936  0.0512 -0.2537  0.0583
    1DIPC   D3A24283  23.967  24.703   4.139 -0.0200  0.3237  0.2457
    1DIPC   C4A24284  23.763  24.573   4.505 -0.0921 -0.3869  0.0869
    1DIPC   C1B24285  24.092  25.645   4.073 -0.0662 -0.2591 -0.2953
    1DIPC   D2B24286  24.178  25.710   4.419  0.0406  0.0409 -0.0983
    1DIPC   D3B24287  23.799  25.515   4.488  0.0390  0.0490  0.2708
    1DIPC   C4B24288  23.883  25.046   4.446 -0.0957 -0.0026  0.0550
    1DIPC   NC324289  14.431   7.104   3.205  0.1537 -0.0113 -0.0266
    1DIPC   PO424290  14.352   6.789   3.015 -0.0587  0.0001 -0.0560
    1DIPC   GL124291  14.340   6.688   3.502  0.3749 -0.1652 -0.2635
    1DIPC   GL224292  14.415   7.012   3.688 -0.1888  0.2698 -0.3902
    1DIPC   C1A24293  14.051   6.706   3.814  0.1009 -0.0016 -0.0408
    1DIPC   D2A24294  13.912   6.697   4.228 -0.0333 -0.1273 -0.0712
    1DIPC   D3A24295  13.819   6.533   4.628 -0.2618  0.2512 -0.0581
    1DIPC   C4A24296  14.119   6.220   4.792 -0.1219 -0.0397  0.0778
    1DIPC   C1B24297  14.667   6.685   3.897  0.2645  0.0343  0.1922
    1DIPC   D2B24298  14.690   6.493   4.261  0.1912 -0.0222  0.1141
    1DIPC   D3B24299  14.856   6.045   4.194  0.1008  0.1636  0.0281
    1DIPC   C4B24300  15.201   5.965   4.101  0.2483 -0.1340  0.3681
    1DIPC   NC324301  19.890  23.060   3.239  0.0038 -0.4623 -0.3355
    1DIPC   PO424302  19.699  23.467   3.289 -0.0968  0.0953 -0.2035
    1DIPC   GL124303  19.698  23.292   3.700  0.2338  0.3671  0.3926
    1DIPC   GL224304  19.403  23.235   3.717  0.0192 -0.2200  0.2925
    1DIPC   C1A24305  19.719  22.950   4.055  0.0354 -0.0658 -0.0793
    1DIPC   D2A24306  19.777  22.590   4.219  0.0838  0.0117 -0.4214
    1DIPC   D3A24307  19.348  22.289   4.286  0.1423 -0.1181  0.1565
    1DIPC   C4A24308  19.255  22.231   4.773  0.1074  0.1735  0.0582
    1DIPC   C1B24309  19.238  23.240   4.098  0.1312 -0.1256  0.0179
    1DIPC   D2B24310  19.051  23.229   4.425 -0.1451  0.3653  0.1369
    1DIPC   D3B24311  18.821  23.024   4.660  0.2604 -0.0405  0.1279
    1DIPC   C4B24312  18.473  23.118   4.896  0.0824  0.1350 -0.0491
    1DIPC   NC324313  25.340  22.545   2.894  0.1616 -0.3545  0.4543
    1DIPC   PO424314  25.104  22.610   3.251  0.3432  0.0916  0.1645
    1DIPC   GL124315  25.123  22.435   3.653 -0.1349 -0.3304 -0.0746
    1DIPC   GL224316  25.087  22.140   3.688  0.1491 -0.0752 -0.0286
    1DIPC   C1A24317  24.949  22.537   3.960 -0.2306 -0.0352 -0.1391
    1DIPC   D2A24318  24.809  22.418   4.379 -0.3780  0.0190  0.1010
    1DIPC   D3A24319  24.524  22.140   4.384  0.1251  0.0811  0.3790
    1DIPC   C4A24320  24.396  21.829   4.770 -0.2248  0.0100  0.1233
    1DIPC   C1B24321  25.043  22.060   4.106  0.0583 -0.2506  0.0365
    1DIPC   D2B24322  24.975  22.069   4.609 -0.0703  0.0755 -0.2616
    1DIPC   D3B24323  24.864  21.715   4.899 -0.1499 -0.0619  0.3072
    1DIPC   C4B24324  24.832  21.739   5.312  0.0431  0.1161 -0.0767
    1DIPC   NC324325  24.605  15.746   2.585  0.2235 -0.1128 -0.1693
    1DIPC   PO424326  24.792  15.606   2.842  0.0982  0.1953  0.0169
    1DIPC   GL124327  24.477  15.626   3.084 -0.0324 -0.1643  0.0284
    1DIPC   GL224328  24.462  15.265   3.027  0.0420 -0.3227  0.3095
    1DIPC   C1A24329  24.350  15.509   3.559  0.0648  0.3660  0.1917
    1DIPC   D2A24330  24.042  15.542   3.819  0.0478  0.1987 -0.1041
    1DIPC   D3A24331  23.796  15.509   3.521  0.0455 -0.1899 -0.1153
    1DIPC   C4A24332  23.997  15.489   3.118  0.2720 -0.0738  0.2649
    1DIPC   C1B24333  24.667  15.081   3.432  0.1105 -0.0656 -0.1045
    1DIPC   D2B24334  24.867  15.239   3.752  0.2747 -0.1866 -0.0004
    1DIPC   D3B24335  24.609  15.312   4.012  0.1195 -0.2248  0.0387
    1DIPC   C4B24336  24.426  15.697   4.250 -0.0328  0.1225 -0.0924
    1DIPC   NC324337  15.337   1.732   2.815  0.2040  0.1592 -0.4862
    1DIPC   PO424338  15.663   1.487   3.179  0.0940  0.0798  0.2292
    1DIPC   GL124339  15.575   1.538   3.683 -0.0617  0.0212  0.3246
    1DIPC   GL224340  15.323   1.323   3.801  0.3379 -0.3913  0.2093
    1DIPC   C1A24341  15.978   1.542   3.988 -0.0554  0.1669  0.0672
    1DIPC   D2A24342  16.133   1.657   4.420 -0.0822 -0.0897  0.3839
    1DIPC   D3A24343  16.360   1.424   4.648 -0.3601  0.1575 -0.1489
    1DIPC   C4A24344  16.754   1.570   4.547  0.1230 -0.0676 -0.1345
    1DIPC   C1B24345  15.476   1.343   4.222 -0.4387  0.3830  0.0371
    1DIPC   D2B24346  15.670   1.538   4.564  0.0401  0.1671 -0.1679
    1DIPC   D3B24347  15.786   1.929   4.839  0.0167  0.0334  0.0567
    1DIPC   C4B24348  15.776   1.785   5.193  0.0132  0.1283  0.2731
    1DIPC   NC324349  24.530  24.601   2.421 -0.0260 -0.2231 -0.0615
    1DIPC   PO424350  24.922  24.506   2.658  0.1482 -0.0890 -0.0253
    1DIPC   GL124351  25.067  24.364   2.996  0.1091  0.0174  0.1267
    1DIPC   GL224352  24.786  24.279   3.078  0.1379  0.2224  0.0752
    1DIPC   C1A24353  25.476  24.435   3.155  0.1764 -0.0748 -0.1269
    1DIPC   D2A24354  25.871  24.649   3.344 -0.1889  0.0691  0.2768
    1DIPC   D3A24355  25.667  24.589   3.675 -0.0835  0.0202 -0.0294
    1DIPC   C4A24356  25.223  24.375   3.572 -0.3393  0.2139  0.0029
    1DIPC   C1B24357  24.750  24.278   3.555  0.2182  0.2862 -0.1371
    1DIPC   D2B24358  24.773  24.355   3.877 -0.1767 -0.0148 -0.1722
    1DIPC   D3B24359  25.089  24.025   3.908 -0.0315  0.1610 -0.0389
    1DIPC   C4B24360  25.323  23.662   3.752 -0.1287 -0.0586  0.1796
    1DIPC   NC324361  15.534   3.767   3.126  0.2684 -0.0817  0.2051
    1DIPC   PO424362  15.108   3.941   3.009 -0.1381 -0.1226  0.1629
    1DIPC   GL124363  15.234   3.930   3.476 -0.2770  0.1542  0.0872
    1DIPC   GL224364  15.336   3.610   3.598 -0.0433 -0.2803 -0.0083
    1DIPC   C1A24365  15.115   4.046   3.962 -0.0063 -0.0281 -0.0079
    1DIPC   D2A24366  15.115   3.671   4.238 -0.0198 -0.0014 -0.0625
    1DIPC   D3A24367  15.296   4.117   4.388  0.2840  0.0539  0.2221
    1DIPC   C4A24368  15.212   4.458   4.360 -0.1891  0.0648  0.0388
    1DIPC   C1B24369  15.566   3.753   3.969 -0.2813 -0.2092 -0.1726
    1DIPC   D2B24370  15.718   3.837   4.325 -0.1819 -0.2431 -0.1536
    1DIPC   D3B24371  16.020   4.082   4.338  0.0441  0.1531 -0.1118
    1DIPC   C4B24372  16.402   3.948   4.575 -0.0256 -0.0204  0.1447
    1DIPC   NC324373   0.792  20.001   1.986 -0.1689 -0.2055  0.1441
    1DIPC   PO424374   0.772  19.812   2.329 -0.0879  0.1620  0.2455
    1DIPC   GL124375   0.587  19.714   2.694 -0.5337 -0.0210  0.0971
    1DIPC   GL224376   0.573  19.426   2.805 -0.0139  0.0179  0.1638
    1DIPC   C1A24377   0.598  19.721   3.211 -0.0086  0.0341  0.0665
    1DIPC   D2A24378   0.535  19.607   3.667  0.0377  0.1830  0.1450
    1DIPC   D3A24379   0.292  19.847   3.916  0.1390 -0.0702  0.0057
    1DIPC   C4A24380   0.131  19.666   4.350  0.0828 -0.0909 -0.5138
    1DIPC   C1B24381   0.380  19.227   3.180 -0.1871 -0.1862  0.0136
    1DIPC   D2B24382   0.715  19.128   3.548 -0.1879  0.0029  0.0959
    1DIPC   D3B24383   0.895  18.738   3.645 -0.2649 -0.1270 -0.1703
    1DIPC   C4B24384   0.759  18.381   3.910 -0.0114  0.0155 -0.0940
    1DIPC   NC324385   5.131   8.752   3.491 -0.0745  0.1660  0.1895
    1DIPC   PO424386   4.747   9.066   3.609 -0.1326  0.1703  0.0230
    1DIPC   GL124387   4.967   8.957   4.009  0.0167  0.1547  0.0428
    1DIPC   GL224388   4.842   9.256   4.128  0.0703  0.1425 -0.1107
    1DIPC   C1A24389   4.939   8.930   4.468 -0.0992 -0.0036 -0.4303
    1DIPC   D2A24390   4.651   9.215   4.613 -0.0992  0.2930 -0.0415
    1DIPC   D3A24391   4.471   9.147   5.039  0.3357  0.1246 -0.2432
    1DIPC   C4A24392   4.075   8.947   5.159 -0.1778 -0.0894  0.4030
    1DIPC   C1B24393   4.523   9.486   4.156  0.1946  0.1386  0.1127
    1DIPC   D2B24394   4.223   9.763   4.379 -0.0108  0.2128  0.0353
    1DIPC   D3B24395   4.558   9.970   4.583 -0.0814  0.2765  0.0636
    1DIPC   C4B24396   4.813  10.064   4.991  0.0641 -0.1862  0.0701
    1DIPC   NC324397  17.838  10.249   1.842  0.2818  0.0382  0.0103
    1DIPC   PO424398  17.841   9.925   2.206  0.0532  0.4843  0.1506
    1DIPC   GL124399  18.038   9.946   2.570 -0.0478  0.0844 -0.2243
    1DIPC   GL224400  18.190   9.516   2.549  0.1172  0.1649  0.2276
    1DIPC   C1A24401  17.983  10.190   2.982 -0.0725  0.0559  0.1086
    1DIPC   D2A24402  17.608  10.409   3.236 -0.0935 -0.0120  0.1284
    1DIPC   D3A24403  17.520  10.193   3.598  0.1102  0.2318 -0.2087
    1DIPC   C4A24404  17.404  10.357   3.992 -0.0626 -0.1464  0.4054
    1DIPC   C1B24405  18.090   9.609   2.963  0.2365  0.2140 -0.1895
    1DIPC   D2B24406  17.914   9.401   3.398 -0.3138  0.1535 -0.4177
    1DIPC   D3B24407  17.902   9.840   3.357 -0.1322  0.3712 -0.0626
    1DIPC   C4B24408  17.980  10.125   3.672 -0.4035  0.0465 -0.2672
    1DIPC   NC324409  16.067   8.789   1.991 -0.2157  0.2078 -0.5059
    1DIPC   PO424410  16.300   9.067   2.211 -0.1326  0.0302 -0.2911
    1DIPC   GL124411  16.400   9.305   2.571  0.0330 -0.0714 -0.2888
    1DIPC   GL224412  16.696   9.513   2.578 -0.0147 -0.0194 -0.0212
    1DIPC   C1A24413  16.551   9.309   3.014  0.0151  0.1474  0.1001
    1DIPC   D2A24414  17.029   9.393   3.015 -0.1458 -0.1395 -0.3399
    1DIPC   D3A24415  17.363   9.182   3.353  0.3069  0.0968 -0.4517
    1DIPC   C4A24416  17.540   8.865   3.354 -0.1790  0.1832 -0.1037
    1DIPC   C1B24417  16.919   8.996   2.684 -0.0665 -0.0324 -0.0968
    1DIPC   D2B24418  17.245   8.911   2.990  0.0171  0.4058  0.0107
    1DIPC   D3B24419  17.451   9.138   2.881 -0.0077 -0.2143  0.1183
    1DIPC   C4B24420  17.807   9.045   2.994  0.1870 -0.1357 -0.0348
    1DIPC   NC324421  29.302  19.130   2.295  0.1125  0.0187  0.2457
    1DIPC   PO424422  28.925  18.946   2.386  0.0478 -0.1445 -0.0903
    1DIPC   GL124423  29.028  18.810   2.797 -0.1295 -0.0820  0.0558
    1DIPC   GL224424  28.972  18.566   2.974  0.3724 -0.0487  0.0674
    1DIPC   C1A24425  29.305  18.903   3.114  0.5653 -0.0429 -0.0220
    1DIPC   D2A24426  29.433  19.103   3.528 -0.2089 -0.1571 -0.0809
    1DIPC   D3A24427  29.803  18.964   3.336  0.1089 -0.0439 -0.2994
    1DIPC   C4A24428  29.835  19.012   2.966  0.3793 -0.2020  0.2417
    1DIPC   C1B24429  29.053  18.482   3.479 -0.1129 -0.0786 -0.1913
    1DIPC   D2B24430  29.259  18.426   3.954  0.1111 -0.0242  0.1420
    1DIPC   D3B24431  29.155  18.451   4.364 -0.3100  0.0149  0.0363
    1DIPC   C4B24432  28.838  18.400   4.380  0.1551  0.0297 -0.1711
    1DIPC   NC324433  11.572   3.714   3.511 -0.0219 -0.0704 -0.0461
    1DIPC   PO424434  11.285   3.569   3.681 -0.1193  0.1115  0.4552
    1DIPC   GL124435  11.259   3.465   4.077  0.1050 -0.0846  0.2608
    1DIPC   GL224436  10.932   3.446   4.028 -0.3835 -0.1138  0.0445
    1DIPC   C1A24437  11.157   3.464   4.565  0.2237  0.4732 -0.0595
    1DIPC   D2A24438  11.156   3.608   4.990 -0.0751 -0.1857 -0.1794
    1DIPC   D3A24439  10.909   3.922   5.236  0.0124  0.0340 -0.2239
    1DIPC   C4A24440  10.702   4.361   5.145  0.0469 -0.0433  0.2375
    1DIPC   C1B24441  11.010   3.843   4.263  0.2734 -0.2601 -0.0479
    1DIPC   D2B24442  10.912   4.008   4.648 -0.1209  0.3018 -0.0170
    1DIPC   D3B24443  11.163   4.287   4.954  0.1216 -0.2118  0.1040
    1DIPC   C4B24444  11.350   4.262   5.366 -0.3317 -0.0988 -0.0066
    1DIPC   NC324445   4.760  20.403   2.229  0.2735 -0.1371 -0.1170
    1DIPC   PO424446   5.254  20.598   2.190  0.3180 -0.0700  0.1938
    1DIPC   GL124447   5.033  20.767   2.605 -0.2934  0.2094  0.0262
    1DIPC   GL224448   4.718  20.621   2.776 -0.1439 -0.2238 -0.0884
    1DIPC   C1A24449   4.867  21.007   3.025  0.1348  0.0358  0.0659
    1DIPC   D2A24450   5.049  21.246   3.411  0.2132  0.1417 -0.0560
    1DIPC   D3A24451   5.174  20.993   3.762 -0.0267 -0.0080  0.0155
    1DIPC   C4A24452   4.788  20.897   4.018  0.0262 -0.2279  0.2056
    1DIPC   C1B24453   4.590  20.374   3.094 -0.2315  0.0735  0.0106
    1DIPC   D2B24454   4.492  20.358   3.548 -0.2131 -0.2864  0.3055
    1DIPC   D3B24455   4.704  20.751   3.537 -0.2871 -0.2309  0.2879
    1DIPC   C4B24456   4.578  21.131   3.690  0.0064 -0.3204  0.3903
    1DIPC   NC324457   0.681  25.408   2.540 -0.1733  0.1351  0.0588
    1DIPC   PO424458   1.047  25.137   2.398 -0.1068  0.2490  0.0623
    1DIPC   GL124459   1.012  25.153   2.834  0.2242  0.0733  0.0301
    1DIPC   GL224460   1.050  24.730   2.893  0.2632  0.0967 -0.2587
    1DIPC   C1A24461   1.343  25.344   3.177  0.2054  0.0585 -0.2845
    1DIPC   D2A24462   1.498  25.524   3.621 -0.3805  0.2106 -0.1813
    1DIPC   D3A24463   1.941  25.742   3.544 -0.1937 -0.0378  0.0460
    1DIPC   C4A24464   2.168  25.935   3.855 -0.2631  0.0492  0.1625
    1DIPC   C1B24465   1.087  24.921   3.269 -0.1211  0.0133  0.0913
    1DIPC   D2B24466   1.178  25.147   3.585 -0.2045  0.0662  0.0425
    1DIPC   D3B24467   1.537  24.925   3.493 -0.4598 -0.1854 -0.0138
    1DIPC   C4B24468   1.586  24.405   3.540 -0.0861 -0.2467 -0.2655
    1DIPC   NC324469  27.010  19.760   3.265  0.2587  0.3980  0.0184
    1DIPC   PO424470  27.495  19.805   3.187  0.2475 -0.0570  0.3423
    1DIPC   GL124471  27.624  19.826   3.504 -0.0340 -0.2882  0.1945
    1DIPC   GL224472  27.962  20.008   3.471  0.0073  0.1868 -0.0717
    1DIPC   C1A24473  27.491  19.567   3.954 -0.0691 -0.1395 -0.3233
    1DIPC   D2A24474  27.337  19.574   4.386 -0.3753  0.0870 -0.0833
    1DIPC   D3A24475  26.915  19.393   4.170  0.1656 -0.0864  0.1825
    1DIPC   C4A24476  26.693  19.509   3.736  0.3311 -0.1372 -0.1766
    1DIPC   C1B24477  28.014  19.944   3.897 -0.2823  0.2768  0.3941
    1DIPC   D2B24478  28.289  19.905   4.293  0.1957 -0.2685  0.4242
    1DIPC   D3B24479  28.338  19.501   4.329 -0.3887  0.1413  0.1370
    1DIPC   C4B24480  28.554  19.171   3.979  0.0849 -0.0805 -0.1438
    1DIPC   NC324481  18.764   7.908   2.213  0.0371 -0.3266 -0.2315
    1DIPC   PO424482  18.585   7.571   2.132 -0.2193  0.0235 -0.0437
    1DIPC   GL124483  18.511   7.568   2.574 -0.0001 -0.1943  0.1955
    1DIPC   GL224484  18.581   7.833   2.699 -0.0914 -0.0264  0.1323
    1DIPC   C1A24485  18.636   7.420   2.902 -0.3937  0.2913 -0.3022
    1DIPC   D2A24486  18.662   7.183   3.256  0.0455  0.2939  0.0299
    1DIPC   D3A24487  18.940   7.532   3.383 -0.0856  0.0051 -0.1523
    1DIPC   C4A24488  18.931   7.748   3.756 -0.0444  0.1499  0.4493
    1DIPC   C1B24489  18.871   7.835   2.975  0.5033 -0.0372 -0.0699
    1DIPC   D2B24490  18.597   7.848   3.361  0.1201 -0.3545  0.0054
    1DIPC   D3B24491  18.949   8.139   3.409 -0.2898  0.1195  0.0145
    1DIPC   C4B24492  18.869   8.471   3.235  0.1534  0.1383 -0.0379
    1DIPC   NC324493  22.042   0.837   3.057 -0.0197  0.0175  0.1013
    1DIPC   PO424494  22.358   1.171   3.240  0.1451  0.0007  0.0242
    1DIPC   GL124495  22.255   1.040   3.546  0.4122  0.2650 -0.0713
    1DIPC   GL224496  22.413   1.056   3.870 -0.0866  0.0403  0.1314
    1DIPC   C1A24497  21.895   0.976   3.764  0.5028  0.0177 -0.1330
    1DIPC   D2A24498  21.604   0.998   4.131  0.1229 -0.3108  0.1011
    1DIPC   D3A24499  21.746   1.148   4.526  0.0143  0.1336 -0.1140
    1DIPC   C4A24500  21.869   1.122   4.973 -0.2518  0.0175 -0.1306
    1DIPC   C1B24501  22.200   0.766   4.054  0.0501 -0.1096  0.0068
    1DIPC   D2B24502  22.303   0.506   4.437  0.0008  0.1481  0.2714
    1DIPC   D3B24503  22.167   0.804   4.727 -0.0821  0.1612 -0.0369
    1DIPC   C4B24504  21.664   0.655   4.871  0.0447 -0.4452 -0.1100
    1DIPC   NC324505  27.401  14.375   1.988  0.1294  0.0799 -0.0880
    1DIPC   PO424506  27.083  14.606   2.254 -0.1510  0.1470  0.0751
    1DIPC   GL124507  27.233  14.541   2.636  0.2176  0.3606  0.2361
    1DIPC   GL224508  27.435  14.129   2.688 -0.0860 -0.0237  0.2048
    1DIPC   C1A24509  27.138  14.711   3.033 -0.2813  0.0519  0.3651
    1DIPC   D2A24510  27.107  14.521   3.413  0.1344  0.2503  0.2810
    1DIPC   D3A24511  27.271  14.260   3.641  0.2622  0.2009  0.1395
    1DIPC   C4A24512  26.959  14.095   3.898 -0.3592  0.1726  0.0873
    1DIPC   C1B24513  27.482  14.361   3.035 -0.0385 -0.2275 -0.1992
    1DIPC   D2B24514  27.632  14.623   3.248 -0.3396 -0.2710 -0.1026
    1DIPC   D3B24515  27.646  14.611   3.659  0.0464  0.2714 -0.1083
    1DIPC   C4B24516  27.940  14.312   3.911 -0.0265 -0.1415 -0.4726
    1DIPC   NC324517   3.359   3.401   3.222  0.2106  0.2262  0.2613
    1DIPC   PO424518   3.265   3.485   3.627 -0.3532  0.4432  0.0712
    1DIPC   GL124519   3.583   3.318   3.850 -0.1898 -0.0775 -0.0594
    1DIPC   GL224520   3.416   3.580   4.080  0.5062 -0.2803  0.1034
    1DIPC   C1A24521   3.775   2.979   4.011  0.0940 -0.0471  0.0490
    1DIPC   D2A24522   3.791   2.585   4.268 -0.0713 -0.3135 -0.0177
    1DIPC   D3A24523   3.849   2.695   4.713 -0.0041 -0.0073  0.2026
    1DIPC   C4A24524   3.693   3.124   4.679  0.2603 -0.1370  0.0160
    1DIPC   C1B24525   3.131   3.710   4.338  0.0821  0.0246 -0.0197
    1DIPC   D2B24526   2.788   3.475   4.535 -0.0310 -0.0226  0.1399
    1DIPC   D3B24527   2.882   3.892   4.911  0.2135 -0.1497 -0.0519
    1DIPC   C4B24528   2.609   3.866   5.375 -0.2623 -0.2310  0.0706
    1DIPC   NC324529  27.207  27.252   2.619  0.2224 -0.1274  0.1408
    1DIPC   PO424530  26.909  27.575   2.768  0.0091  0.2822 -0.2165
    1DIPC   GL124531  27.118  27.704   3.138 -0.0879  0.1181  0.1068
    1DIPC   GL224532  27.391  27.717   3.261 -0.0358  0.1056  0.0396
    1DIPC   C1A24533  26.971  27.572   3.482 -0.4120 -0.3488 -0.4620
    1DIPC   D2A24534  27.043  27.258   3.839 -0.0415  0.1918  0.4818
    1DIPC   D3A24535  26.931  27.756   3.957 -0.2289  0.0837  0.2130
    1DIPC   C4A24536  26.778  27.937   4.307  0.0379 -0.0561  0.0999
    1DIPC   C1B24537  27.331  27.919   3.674  0.3005  0.1307  0.2913
    1DIPC   D2B24538  27.382  27.673   4.004  0.4405 -0.0702 -0.1585
    1DIPC   D3B24539  27.308  27.814   4.351 -0.0601  0.2191  0.0224
    1DIPC   C4B24540  27.618  27.927   4.513 -0.3112 -0.1469 -0.2126
    1DIPC   NC324541  21.769   1.968   3.035 -0.0608 -0.0578  0.0741
    1DIPC   PO424542  21.722   2.395   3.055 -0.0649  0.0773 -0.2308
    1DIPC   GL124543  22.054   2.461   3.311 -0.1310  0.1881 -0.3645
    1DIPC   GL224544  22.171   2.193   3.321  0.1958  0.2853 -0.0920
    1DIPC   C1A24545  21.966   2.495   3.893  0.0571 -0.2601  0.1462
    1DIPC   D2A24546  22.141   2.359   4.321 -0.3005  0.1777  0.1436
    1DIPC   D3A24547  21.641   2.358   4.352 -0.0326 -0.0468 -0.0498
    1DIPC   C4A24548  21.443   2.615   4.214 -0.0467 -0.2770  0.0412
    1DIPC   C1B24549  22.184   2.075   3.907 -0.1054  0.0402 -0.0250
    1DIPC   D2B24550  21.868   1.938   4.112 -0.0383  0.2648 -0.0892
    1DIPC   D3B24551  22.228   1.844   4.393 -0.0550 -0.0326 -0.0489
    1DIPC   C4B24552  22.351   1.939   4.793  0.2353 -0.0410  0.1665
    1DIPC   NC324553  17.607   8.393   2.238 -0.1794 -0.1486  0.1508
    1DIPC   PO424554  18.091   8.422   2.211 -0.0189  0.2080  0.2558
    1DIPC   GL124555  18.264   8.702   2.592  0.1259 -0.2942 -0.0190
    1DIPC   GL224556  18.015   8.655   2.849 -0.2789 -0.2214  0.0425
    1DIPC   C1A24557  18.450   8.708   3.023  0.1637 -0.3144  0.0118
    1DIPC   D2A24558  18.533   8.781   3.433  0.2697  0.2929 -0.0253
    1DIPC   D3A24559  18.360   8.638   3.767 -0.1083 -0.1383  0.1086
    1DIPC   C4A24560  17.953   8.710   4.073 -0.0549  0.2408 -0.0057
    1DIPC   C1B24561  17.864   8.365   3.234 -0.1002 -0.1401  0.2869
    1DIPC   D2B24562  17.700   8.531   3.681  0.0676 -0.0761  0.2118
    1DIPC   D3B24563  18.011   8.804   3.434  0.2281  0.0306  0.0162
    1DIPC   C4B24564  18.211   9.104   3.740  0.0832 -0.0094 -0.3600
    1DIPC   NC324565  22.527  10.921   2.363 -0.2506  0.1743 -0.1534
    1DIPC   PO424566  22.057  10.905   2.411 -0.2946 -0.1152  0.2464
    1DIPC   GL124567  22.208  10.952   2.816 -0.1328  0.2551 -0.1246
    1DIPC   GL224568  22.073  10.859   3.107 -0.3264  0.0974 -0.0870
    1DIPC   C1A24569  22.297  11.317   3.061  0.1151  0.0098 -0.0057
    1DIPC   D2A24570  22.608  11.694   3.083  0.0535 -0.2844  0.2239
    1DIPC   D3A24571  22.680  11.513   3.403 -0.0617 -0.2891 -0.0393
    1DIPC   C4A24572  22.294  11.430   3.692  0.2151 -0.2857  0.1109
    1DIPC   C1B24573  22.020  10.847   3.574  0.1129  0.2785 -0.0087
    1DIPC   D2B24574  22.027  10.547   3.956  0.3401  0.0911 -0.1448
    1DIPC   D3B24575  22.169  10.652   4.357 -0.0805 -0.2123  0.2909
    1DIPC   C4B24576  22.133  11.025   4.577 -0.0351 -0.0492  0.0956
    1DIPC   NC324577  29.714   0.312   2.880  0.1257 -0.2629  0.0899
    1DIPC   PO424578  29.383   0.081   2.995  0.1284  0.0979  0.0375
    1DIPC   GL124579  29.423   0.058   3.475 -0.0206 -0.1224  0.1515
    1DIPC   GL224580  29.690  -0.034   3.551  0.2178  0.2454 -0.0529
    1DIPC   C1A24581  29.420  -0.362   3.626 -0.2353  0.2536 -0.2870
    1DIPC   D2A24582  29.176  -0.826   3.614  0.2098 -0.0410 -0.0060
    1DIPC   D3A24583  29.407  -1.036   3.848 -0.1459 -0.0127  0.0485
    1DIPC   C4A24584  29.406  -1.020   4.250 -0.6064 -0.4587 -0.3157
    1DIPC   C1B24585  29.587   0.008   3.944 -0.4166 -0.0698  0.1326
    1DIPC   D2B24586  29.510   0.087   4.368 -0.5880 -0.0441 -0.0074
    1DIPC   D3B24587  29.105  -0.124   4.308 -0.0914 -0.2819 -0.0272
    1DIPC   C4B24588  29.003  -0.688   4.368  0.1931 -0.0511  0.2714
    1DIPC   NC324589   2.440  18.530   2.157  0.2481  0.1599  0.1660
    1DIPC   PO424590   2.628  18.851   2.338  0.0425 -0.4930  0.0938
    1DIPC   GL124591   2.649  18.703   2.774 -0.0919  0.1454 -0.3976
    1DIPC   GL224592   2.345  18.838   2.911  0.0125  0.3033 -0.0394
    1DIPC   C1A24593   2.699  18.625   3.200 -0.1720 -0.3028 -0.2010
    1DIPC   D2A24594   2.681  18.896   3.576  0.0964  0.0197  0.0994
    1DIPC   D3A24595   2.678  18.717   3.935  0.0322 -0.0832  0.2135
    1DIPC   C4A24596   2.343  18.497   4.077 -0.0030 -0.3454 -0.0909
    1DIPC   C1B24597   2.318  19.002   3.251 -0.4686  0.0707 -0.2314
    1DIPC   D2B24598   2.220  18.826   3.651  0.2718  0.2718  0.0297
    1DIPC   D3B24599   1.859  18.845   4.026 -0.3351  0.1242 -0.0207
    1DIPC   C4B24600   2.007  18.702   4.382  0.2320 -0.1971  0.1267
    1DIPC   NC324601  23.769  20.901   2.703 -0.2478  0.1222  0.1404
    1DIPC   PO424602  23.761  20.498   2.561 -0.0504 -0.1163 -0.1349
    1DIPC   GL124603  23.931  20.464   2.935  0.3644  0.1351  0.0969
    1DIPC   GL224604  24.029  20.174   3.036 -0.0547  0.2359 -0.1132
    1DIPC   C1A24605  24.147  20.584   3.304  0.1488  0.1536 -0.4508
    1DIPC   D2A24606  24.600  20.550   3.526 -0.1422  0.0368  0.0284
    1DIPC   D3A24607  24.833  20.321   3.729 -0.1011 -0.3267  0.2804
    1DIPC   C4A24608  25.006  20.488   4.088 -0.2908 -0.0613 -0.2186
    1DIPC   C1B24609  24.303  20.113   3.365 -0.0126  0.0324  0.0407
    1DIPC   D2B24610  24.256  20.318   3.783  0.1217 -0.1840 -0.0588
    1DIPC   D3B24611  23.814  20.416   3.866 -0.0469  0.0472  0.1314
    1DIPC   C4B24612  23.630  20.027   3.954 -0.0263 -0.4140 -0.0326
    1DIPC   NC324613   1.864  27.000   2.556  0.1014 -0.0893  0.4110
    1DIPC   PO424614   1.547  26.830   2.567 -0.0540 -0.1207 -0.1788
    1DIPC   GL124615   1.420  26.775   3.044 -0.0541  0.1558  0.1635
    1DIPC   GL224616   1.124  26.676   3.032 -0.1005  0.0945 -0.0708
    1DIPC   C1A24617   1.503  26.969   3.546  0.1811  0.4742 -0.0341
    1DIPC   D2A24618   1.542  26.959   4.067  0.2391  0.1126  0.4588
    1DIPC   D3A24619   1.771  26.769   4.263 -0.0371  0.1123  0.0215
    1DIPC   C4A24620   2.008  26.427   4.078  0.1127  0.0765 -0.0300
    1DIPC   C1B24621   0.970  26.351   3.379 -0.0042 -0.4234  0.2586
    1DIPC   D2B24622   1.270  26.091   3.689  0.2344  0.0441  0.2041
    1DIPC   D3B24623   1.118  25.909   4.069  0.0178  0.2889 -0.1935
    1DIPC   C4B24624   1.300  25.470   4.098  0.0979 -0.5709 -0.1362
    1DIPC   NC324625   3.098   6.475   2.987  0.0521 -0.3220 -0.0347
    1DIPC   PO424626   2.851   6.847   3.061  0.0397  0.2041  0.1378
    1DIPC   GL124627   2.809   6.657   3.336  0.2967  0.3434  0.1088
    1DIPC   GL224628   2.555   6.558   3.577 -0.0160 -0.0203  0.0583
    1DIPC   C1A24629   2.952   6.817   3.778  0.0518 -0.1967  0.1790
    1DIPC   D2A24630   2.989   6.619   4.123 -0.2444  0.1034  0.0656
    1DIPC   D3A24631   3.037   6.856   4.525 -0.0487 -0.2121  0.1336
    1DIPC   C4A24632   3.016   7.326   4.482  0.1082  0.1222 -0.0037
    1DIPC   C1B24633   2.477   6.736   3.931 -0.0896 -0.1814  0.1939
    1DIPC   D2B24634   2.452   6.546   4.315  0.3151  0.0276 -0.1983
    1DIPC   D3B24635   2.805   6.435   4.654  0.3224 -0.0736 -0.1005
    1DIPC   C4B24636   2.685   6.131   4.989 -0.3421 -0.0057 -0.1127
    1DIPC   NC324637  11.490  22.733   2.048  0.3831  0.0072  0.2409
    1DIPC   PO424638  11.526  22.975   2.535  0.3541  0.2261  0.1035
    1DIPC   GL124639  11.542  22.948   2.973  0.1938  0.1348 -0.0688
    1DIPC   GL224640  11.311  23.192   2.992 -0.1328  0.3700 -0.1743
    1DIPC   C1A24641  11.682  23.115   3.352  0.2078  0.1968 -0.1541
    1DIPC   D2A24642  11.911  23.556   3.559  0.0323  0.0679 -0.2712
    1DIPC   D3A24643  11.872  23.415   4.002 -0.0878  0.1701 -0.0094
    1DIPC   C4A24644  12.183  23.261   4.129 -0.1056 -0.2388 -0.1800
    1DIPC   C1B24645  11.118  23.252   3.376  0.0453  0.2874  0.4004
    1DIPC   D2B24646  10.863  23.378   3.748  0.1240 -0.1393 -0.2382
    1DIPC   D3B24647  10.883  23.822   3.966 -0.2914  0.3056  0.0199
    1DIPC   C4B24648  10.596  24.043   4.226  0.2509 -0.1478 -0.2883
    1DIPC   NC324649  13.959  27.898   3.323 -0.0391 -0.1092 -0.0580
    1DIPC   PO424650  14.353  27.661   3.436 -0.1215 -0.0866 -0.4068
    1DIPC   GL124651  14.426  27.430   3.740 -0.0538  0.0005 -0.1683
    1DIPC   GL224652  14.157  27.289   3.952  0.1643 -0.0958 -0.0879
    1DIPC   C1A24653  14.674  27.281   4.147  0.1617  0.2773  0.2422
    1DIPC   D2A24654  15.128  27.293   4.377  0.1070  0.2245  0.0502
    1DIPC   D3A24655  15.280  27.695   4.556  0.2454 -0.0534 -0.1352
    1DIPC   C4A24656  15.263  28.061   4.345 -0.1709  0.0298  0.0267
    1DIPC   C1B24657  13.973  27.339   4.334  0.3161  0.1673 -0.0546
    1DIPC   D2B24658  14.099  27.194   4.666 -0.1269  0.4247  0.0830
    1DIPC   D3B24659  14.002  26.844   4.518  0.0264  0.1446  0.4143
    1DIPC   C4B24660  14.034  26.383   4.319  0.1075 -0.2531  0.2396
    1DIPC   NC324661  17.807  27.721   3.049 -0.1319 -0.1651 -0.2816
    1DIPC   PO424662  18.085  27.498   3.355 -0.3327 -0.0742  0.0874
    1DIPC   GL124663  17.943  27.204   3.633 -0.0288 -0.0032 -0.1211
    1DIPC   GL224664  17.728  27.288   3.712 -0.3983  0.1628  0.0338
    1DIPC   C1A24665  18.216  27.091   3.880  0.0498 -0.2781 -0.1347
    1DIPC   D2A24666  18.303  27.121   4.349 -0.1601  0.2231  0.1376
    1DIPC   D3A24667  18.087  26.896   4.741 -0.0540 -0.2345 -0.0313
    1DIPC   C4A24668  18.365  26.770   5.099 -0.2786  0.3507 -0.1935
    1DIPC   C1B24669  17.862  27.449   4.139 -0.1602  0.0114 -0.1451
    1DIPC   D2B24670  18.145  27.516   4.579  0.4510  0.0069 -0.0546
    1DIPC   D3B24671  17.734  27.243   4.560 -0.0829 -0.1195  0.1052
    1DIPC   C4B24672  17.395  27.345   4.853  0.1254  0.0938  0.2607
    1DIPC   NC324673  12.022  24.462   2.374  0.0482 -0.1835 -0.2587
    1DIPC   PO424674  12.427  24.385   2.463 -0.0884 -0.1207 -0.0327
    1DIPC   GL124675  12.121  24.124   2.725 -0.1832 -0.2071  0.1099
    1DIPC   GL224676  11.749  24.319   2.826 -0.1281  0.1565  0.3689
    1DIPC   C1A24677  11.827  23.788   2.574 -0.2687  0.0751  0.2309
    1DIPC   D2A24678  11.481  23.547   2.631 -0.2158  0.1744 -0.1154
    1DIPC   D3A24679  11.415  23.963   2.805  0.1382  0.3559 -0.2889
    1DIPC   C4A24680  11.391  24.154   3.209  0.1971 -0.0370 -0.0563
    1DIPC   C1B24681  11.828  24.036   3.130  0.1378 -0.0107 -0.0631
    1DIPC   D2B24682  11.712  24.010   3.535  0.0376  0.1948 -0.0496
    1DIPC   D3B24683  11.701  24.451   3.428 -0.0899 -0.0511  0.1443
    1DIPC   C4B24684  11.430  24.782   3.629  0.0551 -0.0993  0.0100
    1DIPC   NC324685   7.239  14.086   2.387 -0.1786 -0.1576 -0.0342
    1DIPC   PO424686   7.487  13.820   2.521 -0.0485 -0.1411 -0.1742
    1DIPC   GL124687   7.638  14.032   2.795  0.3452  0.2085 -0.2138
    1DIPC   GL224688   7.342  14.239   2.849  0.1888  0.0211  0.1601
    1DIPC   C1A24689   7.616  13.881   3.209  0.0467 -0.0873  0.2988
    1DIPC   D2A24690   7.412  13.596   3.517  0.0882 -0.0813  0.1617
    1DIPC   D3A24691   7.641  13.795   3.756  0.1341 -0.1571 -0.1007
    1DIPC   C4A24692   7.469  13.830   4.276 -0.0221 -0.2054  0.0514
    1DIPC   C1B24693   7.237  14.213   3.368  0.0691  0.0335 -0.0614
    1DIPC   D2B24694   7.444  14.326   3.823  0.2076  0.0933  0.4928
    1DIPC   D3B24695   6.967  14.401   3.905  0.0005  0.2109  0.2326
    1DIPC   C4B24696   6.650  14.026   3.978 -0.0927 -0.2060 -0.0714
    1DIPC   NC324697  14.333  29.560   3.428 -0.2898 -0.1507 -0.0585
    1DIPC   PO424698  14.393  29.128   3.355  0.2406 -0.1481 -0.0276
    1DIPC   GL124699  14.469  29.223   3.846 -0.0589 -0.0566 -0.1580
    1DIPC   GL224700  14.223  28.963   4.019  0.2512  0.1158  0.2069
    1DIPC   C1A24701  14.541  29.213   4.307 -0.0042  0.0250 -0.1772
    1DIPC   D2A24702  14.636  29.194   4.616  0.1861 -0.3755 -0.1412
    1DIPC   D3A24703  15.008  28.941   4.763  0.1712 -0.3051  0.1642
    1DIPC   C4A24704  15.380  29.028   4.516 -0.0427  0.0938  0.1687
    1DIPC   C1B24705  14.474  28.703   4.371 -0.0112  0.1467 -0.1511
    1DIPC   D2B24706  14.507  28.741   4.778 -0.0766  0.1256 -0.3413
    1DIPC   D3B24707  14.332  28.297   5.058 -0.1381  0.0460  0.2403
    1DIPC   C4B24708  13.936  28.081   4.966  0.0654  0.2385  0.3419
    1DIPC   NC324709   2.144  26.566   2.506 -0.0754  0.0942 -0.1719
    1DIPC   PO424710   2.521  26.442   2.301  0.3049 -0.1016 -0.0400
    1DIPC   GL124711   2.655  26.457   2.726  0.0422  0.0983 -0.0149
    1DIPC   GL224712   2.938  26.493   2.869  0.0873  0.1694  0.1913
    1DIPC   C1A24713   2.566  26.155   3.062  0.2448 -0.1119 -0.1868
    1DIPC   D2A24714   2.338  25.946   3.364 -0.3468  0.0523  0.0369
    1DIPC   D3A24715   2.212  25.696   3.036 -0.0513  0.0162  0.2048
    1DIPC   C4A24716   2.404  25.336   2.939  0.1147 -0.0226  0.3200
    1DIPC   C1B24717   3.049  26.263   3.188 -0.2375 -0.0034  0.4219
    1DIPC   D2B24718   3.214  26.172   3.504 -0.1305 -0.1354 -0.1580
    1DIPC   D3B24719   3.160  26.211   3.971  0.1343  0.3448  0.3885
    1DIPC   C4B24720   3.291  26.595   4.144  0.1078 -0.0754  0.1750
    1DIPC   NC324721   1.232  24.640   2.438 -0.0473 -0.0911  0.0182
    1DIPC   PO424722   0.879  24.410   2.540 -0.3057  0.1297 -0.0156
    1DIPC   GL124723   0.913  24.231   2.946 -0.4201  0.0226  0.0798
    1DIPC   GL224724   0.670  24.026   3.010  0.1714 -0.0436  0.0852
    1DIPC   C1A24725   0.952  24.448   3.375  0.0645 -0.1066 -0.2852
    1DIPC   D2A24726   1.119  24.627   3.724 -0.0277  0.2991  0.1180
    1DIPC   D3A24727   0.920  24.402   4.048  0.0434 -0.2512  0.1627
    1DIPC   C4A24728   0.480  24.548   3.969 -0.0988 -0.0467  0.3293
    1DIPC   C1B24729   0.890  23.880   3.352  0.0341 -0.1462 -0.0517
    1DIPC   D2B24730   0.998  23.537   3.586  0.0552 -0.1182  0.1421
    1DIPC   D3B24731   1.406  23.690   3.585  0.1592  0.2683 -0.0627
    1DIPC   C4B24732   1.658  23.958   3.755 -0.2221 -0.1771  0.1837
    1DIPC   NC324733  14.797  23.810   2.625  0.0284 -0.0084 -0.0867
    1DIPC   PO424734  14.322  23.581   2.538 -0.1808 -0.0592  0.1369
    1DIPC   GL124735  14.479  23.461   2.917  0.2117 -0.2628  0.1683
    1DIPC   GL224736  14.570  23.068   2.919  0.3305 -0.3590  0.2646
    1DIPC   C1A24737  14.478  23.289   3.390  0.0430  0.1298  0.2081
    1DIPC   D2A24738  14.120  22.915   3.505  0.2878 -0.0788 -0.0657
    1DIPC   D3A24739  14.297  23.245   3.908 -0.0783  0.0535  0.1289
    1DIPC   C4A24740  14.792  23.263   4.044 -0.0830 -0.1026  0.0368
    1DIPC   C1B24741  14.163  23.047   3.006 -0.2451 -0.2820 -0.0415
    1DIPC   D2B24742  13.808  23.091   3.123 -0.2022  0.1745 -0.2162
    1DIPC   D3B24743  13.709  23.385   3.371 -0.1928 -0.0868  0.1352
    1DIPC   C4B24744  13.607  23.802   3.198 -0.1221  0.3787 -0.0964
    1DIPC   NC324745  19.307  26.978   3.129  0.1154 -0.0549  0.0350
    1DIPC   PO424746  19.505  26.561   3.008  0.0513  0.1024 -0.0856
    1DIPC   GL124747  19.584  26.568   3.514  0.2021 -0.0259 -0.0118
    1DIPC   GL224748  19.994  26.502   3.496 -0.0365 -0.0771 -0.3269
    1DIPC   C1A24749  19.512  26.208   4.001  0.1046  0.2087 -0.1289
    1DIPC   D2A24750  19.157  26.252   4.359 -0.0600  0.0760  0.4639
    1DIPC   D3A24751  19.289  25.846   4.500 -0.0191 -0.3524  0.2792
    1DIPC   C4A24752  19.228  25.535   4.840  0.3340 -0.1817  0.1599
    1DIPC   C1B24753  19.940  26.303   3.827  0.2170 -0.3883  0.1563
    1DIPC   D2B24754  19.987  26.036   4.182 -0.2379 -0.5697 -0.1821
    1DIPC   D3B24755  20.294  26.070   4.548  0.0876 -0.0743  0.0088
    1DIPC   C4B24756  20.016  26.187   4.943  0.2299 -0.2131  0.0162
    1DIPC   NC324757  27.345  25.415   2.998 -0.3656 -0.0961 -0.0828
    1DIPC   PO424758  27.613  24.950   2.864  0.1748 -0.2455 -0.0045
    1DIPC   GL124759  27.681  25.082   3.352  0.0684  0.0555  0.0639
    1DIPC   GL224760  27.464  25.330   3.489  0.0648  0.2018  0.2635
    1DIPC   C1A24761  27.983  25.067   3.624 -0.0027 -0.0400  0.1304
    1DIPC   D2A24762  28.425  25.212   3.797  0.0274 -0.2745  0.0629
    1DIPC   D3A24763  28.652  25.217   4.198  0.1662 -0.0925  0.2161
    1DIPC   C4A24764  28.730  24.892   4.574 -0.0524 -0.3689  0.5249
    1DIPC   C1B24765  27.470  25.457   3.880 -0.1840 -0.0294  0.1780
    1DIPC   D2B24766  27.265  25.751   4.110 -0.1863 -0.0458  0.0176
    1DIPC   D3B24767  27.200  25.725   4.570 -0.3254 -0.2136  0.1588
    1DIPC   C4B24768  27.302  25.784   4.929 -0.2235 -0.0334 -0.0062
    1DIPC   NC324769   2.810  11.051   2.789  0.1598  0.0026  0.1835
    1DIPC   PO424770   2.408  10.974   3.048  0.0640 -0.1175 -0.0058
    1DIPC   GL124771   2.080  11.103   3.432  0.0014 -0.1012  0.2169
    1DIPC   GL224772   2.001  11.436   3.435  0.0380 -0.0028 -0.0421
    1DIPC   C1A24773   2.178  11.135   3.865  0.1146 -0.2137  0.2473
    1DIPC   D2A24774   2.357  10.899   4.163 -0.1051  0.1928  0.0116
    1DIPC   D3A24775   2.607  11.052   4.327 -0.2646 -0.3802 -0.1190
    1DIPC   C4A24776   2.522  11.451   4.122  0.0132  0.0666  0.0210
    1DIPC   C1B24777   2.170  11.601   3.832 -0.1406 -0.1275 -0.3681
    1DIPC   D2B24778   2.067  11.853   4.250 -0.4430 -0.2296 -0.4213
    1DIPC   D3B24779   2.361  11.765   4.551 -0.0942  0.0232  0.0950
    1DIPC   C4B24780   2.676  11.412   4.688  0.2469  0.0144 -0.0448
    1DIPC   NC324781  22.730   6.416   3.209  0.2490 -0.1135  0.2699
    1DIPC   PO424782  22.749   6.089   3.051  0.3797  0.1097  0.1452
    1DIPC   GL124783  22.501   5.999   3.486 -0.1960  0.0243 -0.2583
    1DIPC   GL224784  22.231   6.149   3.581 -0.2073  0.0069 -0.1011
    1DIPC   C1A24785  22.556   5.717   3.833 -0.0663 -0.0579 -0.2247
    1DIPC   D2A24786  22.317   5.564   4.163 -0.1524 -0.1256 -0.1935
    1DIPC   D3A24787  22.029   5.347   4.135  0.0404 -0.0202 -0.0643
    1DIPC   C4A24788  21.886   4.879   4.069 -0.1722  0.3230 -0.3684
    1DIPC   C1B24789  22.297   6.070   4.054 -0.3071  0.0682 -0.1406
    1DIPC   D2B24790  22.648   5.984   4.372  0.2563  0.1639  0.0562
    1DIPC   D3B24791  22.806   6.092   3.985 -0.5620  0.1389  0.0559
    1DIPC   C4B24792  22.996   6.456   3.921  0.2093 -0.1062 -0.2477
    1DIPC   NC324793   0.283  11.580   2.547  0.1629 -0.2719  0.2249
    1DIPC   PO424794   0.448  11.162   2.642 -0.1068 -0.0688 -0.0036
    1DIPC   GL124795   0.365  11.183   3.130 -0.1682  0.1423  0.0128
    1DIPC   GL224796   0.218  10.876   3.115  0.1049  0.1508 -0.0934
    1DIPC   C1A24797   0.097  11.276   3.474  0.2167  0.1581 -0.0727
    1DIPC   D2A24798  -0.339  11.359   3.538  0.1311  0.0380  0.1976
    1DIPC   D3A24799  -0.544  11.244   3.920 -0.1150  0.0229 -0.3454
    1DIPC   C4A24800  -0.359  11.378   4.244  0.4336 -0.0671 -0.2157
    1DIPC   C1B24801   0.203  10.411   3.180 -0.1578  0.1919 -0.0012
    1DIPC   D2B24802   0.359  10.204   3.430  0.1401  0.1034  0.0468
    1DIPC   D3B24803   0.157  10.084   3.874 -0.3945 -0.0024 -0.0973
    1DIPC   C4B24804   0.455   9.943   4.123  0.0188  0.0122  0.0514
    1DIPC   NC324805  26.814   6.040   3.124 -0.0177 -0.0752 -0.0196
    1DIPC   PO424806  26.748   5.648   3.227 -0.0828  0.3003  0.0709
    1DIPC   GL124807  26.879   5.719   3.612 -0.3020 -0.1594  0.0846
    1DIPC   GL224808  27.193   5.524   3.755  0.0841 -0.2898  0.1422
    1DIPC   C1A24809  26.695   5.869   3.912 -0.3913 -0.0533  0.1313
    1DIPC   D2A24810  26.874   6.155   4.226  0.0138  0.0988  0.3118
    1DIPC   D3A24811  27.071   5.721   4.344 -0.2355  0.3041  0.3756
    1DIPC   C4A24812  27.403   5.633   4.600 -0.2708 -0.2340  0.2105
    1DIPC   C1B24813  27.490   5.635   3.993 -0.0138  0.2007 -0.0572
    1DIPC   D2B24814  27.672   5.920   4.273  0.1619  0.1342 -0.0888
    1DIPC   D3B24815  27.374   6.214   4.269 -0.0349 -0.0459 -0.3383
    1DIPC   C4B24816  27.321   6.520   4.572 -0.0242 -0.2627  0.0468
    1DIPC   NC324817  15.032  25.286   2.382  0.0614  0.0428  0.3047
    1DIPC   PO424818  14.981  25.038   2.735  0.0099  0.0337 -0.2241
    1DIPC   GL124819  14.960  24.736   3.022 -0.1979 -0.1580  0.1388
    1DIPC   GL224820  14.671  24.644   2.938 -0.0917  0.2872  0.0254
    1DIPC   C1A24821  15.005  24.636   3.442 -0.2671  0.0307 -0.2042
    1DIPC   D2A24822  14.896  24.545   3.817  0.2534 -0.4592  0.1200
    1DIPC   D3A24823  15.240  24.509   4.014  0.0288  0.1873  0.0425
    1DIPC   C4A24824  15.387  24.119   4.001 -0.1320 -0.0365 -0.1962
    1DIPC   C1B24825  14.774  24.298   3.181 -0.0218  0.2065 -0.1572
    1DIPC   D2B24826  14.777  23.744   3.255  0.1130  0.0839 -0.0879
    1DIPC   D3B24827  15.266  23.790   3.206  0.1625 -0.1175  0.1476
    1DIPC   C4B24828  15.429  23.724   3.558 -0.1759 -0.0831 -0.0271
    1DIPC   NC324829   4.573  10.867   3.310 -0.2882  0.0295  0.0061
    1DIPC   PO424830   4.303  10.507   3.327 -0.2551 -0.3064 -0.0368
    1DIPC   GL124831   4.063  10.256   3.564 -0.1505 -0.1986  0.0270
    1DIPC   GL224832   3.762  10.461   3.495 -0.0061 -0.0497  0.0195
    1DIPC   C1A24833   4.046  10.259   4.008 -0.1236 -0.0805  0.2482
    1DIPC   D2A24834   4.027  10.237   4.499  0.0637  0.4029 -0.2599
    1DIPC   D3A24835   3.586  10.189   4.608 -0.1201  0.0814  0.1295
    1DIPC   C4A24836   3.610   9.910   4.976  0.0487  0.0297  0.2612
    1DIPC   C1B24837   3.663  10.521   3.862  0.1160 -0.0150 -0.3971
    1DIPC   D2B24838   3.662  10.566   4.264  0.1228 -0.0951  0.0963
    1DIPC   D3B24839   4.038  10.772   4.170  0.2469 -0.1968  0.2125
    1DIPC   C4B24840   4.188  11.048   4.429  0.4585 -0.0199  0.0957
    1DIPC   NC324841   0.851  17.462   2.485  0.0825  0.1052 -0.2016
    1DIPC   PO424842   1.213  17.252   2.622 -0.2861  0.0773 -0.0869
    1DIPC   GL124843   1.560  17.343   3.000  0.1820  0.0999  0.0079
    1DIPC   GL224844   1.391  17.383   3.208  0.1200  0.2452  0.0883
    1DIPC   C1A24845   1.964  17.599   3.037 -0.2948 -0.4935  0.2711
    1DIPC   D2A24846   2.095  17.851   2.777 -0.0342  0.2190  0.0551
    1DIPC   D3A24847   2.556  17.830   2.813  0.2459 -0.1683  0.0709
    1DIPC   C4A24848   2.819  18.249   2.695  0.1820 -0.0009  0.0028
    1DIPC   C1B24849   1.708  17.101   3.394  0.1716  0.1169  0.0642
    1DIPC   D2B24850   1.944  16.892   3.600 -0.1323 -0.2142  0.0278
    1DIPC   D3B24851   2.072  16.971   4.000 -0.2922 -0.5272 -0.2122
    1DIPC   C4B24852   1.819  17.174   4.319 -0.0157 -0.0552  0.1142
    1DIPC   NC324853   3.604  26.376   2.294 -0.1185  0.1962  0.0711
    1DIPC   PO424854   4.047  26.467   2.472  0.0307 -0.0447  0.3308
    1DIPC   GL124855   3.760  26.592   2.732 -0.3078  0.2482  0.0939
    1DIPC   GL224856   3.507  26.363   2.845  0.1544  0.2400  0.3287
    1DIPC   C1A24857   3.711  26.901   3.017 -0.0790 -0.3466  0.0025
    1DIPC   D2A24858   3.505  26.996   3.456 -0.1719  0.0481 -0.3081
    1DIPC   D3A24859   3.863  27.075   3.534 -0.1448  0.0278 -0.1978
    1DIPC   C4A24860   4.189  27.148   3.168 -0.1281  0.1620  0.0616
    1DIPC   C1B24861   3.618  26.133   3.118 -0.2600  0.2371 -0.1321
    1DIPC   D2B24862   3.729  26.005   3.619  0.1720  0.0584  0.2987
    1DIPC   D3B24863   3.467  25.755   3.820  0.0903 -0.3690 -0.1577
    1DIPC   C4B24864   3.257  25.432   3.969 -0.0545 -0.1991  0.1633
    1DIPC   NC324865   0.524   0.347   2.304  0.1944  0.1310 -0.1353
    1DIPC   PO424866   0.563   0.211   2.726 -0.1971  0.0823  0.1244
    1DIPC   GL124867   0.673   0.532   3.150 -0.2306 -0.0135  0.0051
    1DIPC   GL224868   0.573   0.422   3.355  0.2656  0.1151  0.2990
    1DIPC   C1A24869   0.707   0.932   3.434  0.2976  0.1365 -0.0489
    1DIPC   D2A24870   0.583   1.242   3.715 -0.1349  0.1423  0.0452
    1DIPC   D3A24871   0.186   1.248   3.623 -0.1505 -0.0749  0.0729
    1DIPC   C4A24872   0.164   0.791   3.658 -0.0761 -0.0903 -0.2963
    1DIPC   C1B24873   0.735   0.437   3.788  0.0062  0.3500  0.0458
    1DIPC   D2B24874   0.746   0.315   4.138  0.0074  0.1346 -0.0781
    1DIPC   D3B24875   1.019   0.325   4.480 -0.2934 -0.2333 -0.0295
    1DIPC   C4B24876   1.464   0.138   4.480  0.0795 -0.1094 -0.1234
    1DIPC   NC324877  15.330  28.037   2.669 -0.0759  0.1488 -0.0061
    1DIPC   PO424878  15.261  28.059   3.103  0.0880 -0.2422  0.1149
    1DIPC   GL124879  15.499  28.264   3.474 -0.2456 -0.0396  0.1519
    1DIPC   GL224880  15.240  28.285   3.746 -0.0686  0.4776  0.0113
    1DIPC   C1A24881  15.725  28.449   3.769 -0.1476  0.0398  0.0539
    1DIPC   D2A24882  15.948  28.690   3.987  0.2046 -0.2501 -0.1496
    1DIPC   D3A24883  15.920  29.113   3.859  0.1678  0.3111 -0.0609
    1DIPC   C4A24884  15.866  29.269   4.205  0.0964  0.1131 -0.2818
    1DIPC   C1B24885  15.557  27.991   3.901 -0.1881  0.0466 -0.2327
    1DIPC   D2B24886  15.593  27.468   4.218  0.1181  0.2028  0.1786
    1DIPC   D3B24887  15.229  27.611   4.014 -0.2307 -0.0159 -0.1261
    1DIPC   C4B24888  14.832  27.633   3.853 -0.1295  0.0106 -0.1266
    1DIPC   NC324889  12.223   4.576   2.762  0.0497  0.2383  0.2761
    1DIPC   PO424890  12.395   4.654   3.201  0.1038  0.1672  0.2406
    1DIPC   GL124891  12.547   4.644   3.637  0.1565 -0.0992 -0.0074
    1DIPC   GL224892  12.338   4.753   3.827  0.1350 -0.0314  0.2363
    1DIPC   C1A24893  12.689   4.710   4.155  0.1234  0.2045 -0.1814
    1DIPC   D2A24894  13.079   4.720   4.402 -0.3223  0.2543 -0.3788
    1DIPC   D3A24895  12.635   4.543   4.638 -0.0833 -0.0452  0.0408
    1DIPC   C4A24896  12.468   4.787   5.030  0.0163  0.1759 -0.3247
    1DIPC   C1B24897  12.219   4.468   4.158 -0.0566  0.3036 -0.1716
    1DIPC   D2B24898  11.798   4.475   4.240  0.3718  0.2087 -0.1180
    1DIPC   D3B24899  11.688   4.628   4.641 -0.0349 -0.2247 -0.2130
    1DIPC   C4B24900  12.034   4.908   4.885 -0.0939 -0.1756 -0.0542
    1DIPC   NC324901  28.235  17.453   2.277 -0.1172 -0.0455 -0.5804
    1DIPC   PO424902  28.471  17.781   2.548  0.0224 -0.0024  0.2061
    1DIPC   GL124903  28.543  17.726   2.950 -0.1454 -0.0405  0.1352
    1DIPC   GL224904  28.812  17.560   3.090 -0.0442  0.1286 -0.2217
    1DIPC   C1A24905  28.299  17.689   3.240  0.1165 -0.1633  0.1675
    1DIPC   D2A24906  27.873  17.699   3.225  0.3862  0.1297  0.1890
    1DIPC   D3A24907  27.927  18.013   3.532 -0.1304 -0.0744  0.0940
    1DIPC   C4A24908  28.364  18.104   3.544  0.0405 -0.0704  0.2781
    1DIPC   C1B24909  28.699  17.681   3.512 -0.1788 -0.1710 -0.1830
    1DIPC   D2B24910  28.430  17.626   3.808  0.2080 -0.1095 -0.2109
    1DIPC   D3B24911  28.383  17.400   4.239 -0.0010 -0.0034  0.0486
    1DIPC   C4B24912  28.255  17.242   4.630 -0.3313  0.1416 -0.0462
    1DIPC   NC324913   3.127  27.231   2.466 -0.3584  0.1252 -0.0580
    1DIPC   PO424914   2.766  27.326   2.549 -0.1883  0.2851  0.0903
    1DIPC   GL124915   2.784  27.086   2.812  0.0707  0.0571 -0.1604
    1DIPC   GL224916   2.680  27.216   3.055 -0.0928  0.0852  0.2690
    1DIPC   C1A24917   2.749  26.747   3.201  0.3648 -0.2811 -0.0434
    1DIPC   D2A24918   2.695  26.878   3.571 -0.1484 -0.3472 -0.1062
    1DIPC   D3A24919   2.473  27.194   3.828 -0.3252  0.0221  0.2333
    1DIPC   C4A24920   2.597  27.070   4.160  0.1267 -0.0912 -0.4204
    1DIPC   C1B24921   2.505  27.565   3.356  0.0793 -0.0841 -0.1302
    1DIPC   D2B24922   2.092  27.758   3.471 -0.3994 -0.2131 -0.1183
    1DIPC   D3B24923   2.338  27.749   3.903 -0.0384  0.2146 -0.1305
    1DIPC   C4B24924   2.254  27.988   4.285  0.0385 -0.0508 -0.1042
    1DIPC   NC324925  12.331  21.253   2.219 -0.0372  0.1501 -0.1754
    1DIPC   PO424926  11.855  21.521   2.174 -0.0832  0.0720  0.0263
    1DIPC   GL124927  11.699  21.908   2.410 -0.0837 -0.3079  0.0879
    1DIPC   GL224928  11.390  21.804   2.574  0.1746  0.1876  0.1353
    1DIPC   C1A24929  11.447  22.346   2.621  0.0925 -0.0262 -0.0554
    1DIPC   D2A24930  11.671  22.491   3.051  0.0015  0.0640  0.0577
    1DIPC   D3A24931  11.591  22.267   3.312  0.0753 -0.0917 -0.2062
    1DIPC   C4A24932  11.391  22.045   3.459  0.0987  0.3136 -0.2101
    1DIPC   C1B24933  11.670  21.922   2.880 -0.3542  0.4543  0.3057
    1DIPC   D2B24934  11.813  21.759   3.190  0.1404  0.1381  0.1605
    1DIPC   D3B24935  11.795  21.734   3.593  0.2810 -0.0605  0.0855
    1DIPC   C4B24936  11.405  21.911   3.933 -0.0946 -0.0039 -0.1361
    1DIPC   NC324937   1.134  18.710   3.021 -0.2833  0.2354 -0.1220
    1DIPC   PO424938   0.664  18.562   2.827 -0.0392  0.0823  0.0091
    1DIPC   GL124939   0.685  18.603   3.256  0.0634 -0.2454 -0.1294
    1DIPC   GL224940   0.384  18.733   3.225 -0.1023 -0.2740 -0.0848
    1DIPC   C1A24941   0.578  18.237   3.501  0.2809 -0.0838  0.2206
    1DIPC   D2A24942   0.275  17.957   3.544  0.0613  0.1437  0.1732
    1DIPC   D3A24943   0.098  17.809   3.941  0.2285 -0.0946 -0.1279
    1DIPC   C4A24944   0.393  17.332   4.042 -0.1134  0.0418  0.0403
    1DIPC   C1B24945   0.341  18.725   3.613 -0.2867 -0.2760  0.2145
    1DIPC   D2B24946   0.358  18.722   4.124  0.0732 -0.0324  0.1089
    1DIPC   D3B24947   0.660  19.049   4.079 -0.1194  0.0755  0.0479
    1DIPC   C4B24948   0.556  19.419   4.161 -0.3142  0.2285 -0.1194
    1DIPC   NC324949  12.639   5.133   3.302 -0.2079  0.1265  0.1799
    1DIPC   PO424950  12.277   5.384   3.423 -0.1839 -0.1511  0.0012
    1DIPC   GL124951  12.071   5.595   3.737  0.3446 -0.3172  0.1223
    1DIPC   GL224952  11.960   5.935   3.814  0.2246 -0.1941  0.0421
    1DIPC   C1A24953  12.297   5.615   4.171  0.0426  0.3893  0.0060
    1DIPC   D2A24954  12.193   5.713   4.632 -0.0182  0.1728 -0.0307
    1DIPC   D3A24955  12.380   5.347   4.897  0.0836 -0.0985  0.0491
    1DIPC   C4A24956  12.291   5.161   5.329 -0.1374  0.0815 -0.0294
    1DIPC   C1B24957  11.905   5.841   4.155  0.3011 -0.2741 -0.0130
    1DIPC   D2B24958  11.730   5.940   4.616  0.2858  0.4778  0.1699
    1DIPC   D3B24959  11.490   6.106   4.430 -0.0388  0.1496  0.1579
    1DIPC   C4B24960  11.499   6.258   3.969 -0.0673  0.0164  0.2088
    1DIPC   NC324961  15.067  22.830   2.321  0.0342 -0.1565 -0.0560
    1DIPC   PO424962  15.436  22.681   2.195 -0.1288  0.0062 -0.1075
    1DIPC   GL124963  15.333  22.742   2.723 -0.1146 -0.1317  0.1486
    1DIPC   GL224964  15.139  22.933   2.862 -0.3071 -0.1688  0.0119
    1DIPC   C1A24965  15.233  22.595   3.133 -0.1749  0.1544 -0.2327
    1DIPC   D2A24966  15.065  22.844   3.435 -0.1817 -0.1521  0.3328
    1DIPC   D3A24967  15.250  22.982   3.797  0.0952 -0.1578 -0.0149
    1DIPC   C4A24968  15.424  23.350   4.022 -0.3870 -0.0396  0.1633
    1DIPC   C1B24969  14.971  23.264   3.128  0.1595  0.2427 -0.1945
    1DIPC   D2B24970  14.984  23.365   3.541  0.2267  0.0851 -0.2778
    1DIPC   D3B24971  14.727  22.911   3.741 -0.0927  0.1266 -0.0355
    1DIPC   C4B24972  14.813  22.599   4.018  0.1214  0.2981 -0.1746
    1DIPC   NC324973   7.155  28.264   2.881  0.1331  0.0803  0.0547
    1DIPC   PO424974   7.270  27.941   3.154 -0.3893  0.2416  0.1243
    1DIPC   GL124975   6.935  28.083   3.437 -0.0214  0.0648 -0.1614
    1DIPC   GL224976   6.578  28.012   3.434  0.0323 -0.0233 -0.0502
    1DIPC   C1A24977   6.686  28.203   3.845 -0.2961 -0.1679  0.1142
    1DIPC   D2A24978   6.762  28.389   4.143  0.2250 -0.1169  0.2482
    1DIPC   D3A24979   6.505  28.404   4.500 -0.1367  0.1323 -0.0663
    1DIPC   C4A24980   6.183  28.711   4.694  0.2349 -0.1720 -0.1593
    1DIPC   C1B24981   6.800  27.724   3.803 -0.1449 -0.0325  0.1787
    1DIPC   D2B24982   6.762  27.500   4.184  0.1963  0.2782 -0.1992
    1DIPC   D3B24983   6.874  27.525   4.494  0.0262 -0.0978 -0.0040
    1DIPC   C4B24984   6.638  27.344   4.832  0.1184  0.0654  0.2271
    1DIPC   NC324985   5.734  29.815   3.236  0.1100 -0.2966  0.0189
    1DIPC   PO424986   5.835  29.376   3.147 -0.1670 -0.0314  0.1260
    1DIPC   GL124987   5.733  29.236   3.515  0.0362 -0.0640  0.6750
    1DIPC   GL224988   5.322  29.162   3.496 -0.3114 -0.0286 -0.1184
    1DIPC   C1A24989   5.759  29.116   3.949 -0.2852  0.1034 -0.0488
    1DIPC   D2A24990   5.861  28.997   4.396  0.0690  0.0921  0.2227
    1DIPC   D3A24991   5.707  28.567   4.501 -0.1167  0.1003 -0.1002
    1DIPC   C4A24992   5.400  28.380   4.508  0.2356 -0.0260  0.2496
    1DIPC   C1B24993   5.267  29.245   3.924 -0.2387 -0.2842 -0.0264
    1DIPC   D2B24994   5.026  29.178   4.285  0.3236  0.3129 -0.4831
    1DIPC   D3B24995   4.694  28.928   4.120  0.3501  0.1001 -0.0526
    1DIPC   C4B24996   4.371  28.661   4.198 -0.0006 -0.2505  0.1439
    1DIPC   NC324997  25.278  28.637   2.853  0.1392  0.0516  0.0252
    1DIPC   PO424998  25.425  28.667   3.111  0.2152 -0.1155  0.0366
    1DIPC   GL124999  25.515  28.917   3.475 -0.3102 -0.0027  0.0393
    1DIPC   GL225000  25.600  29.230   3.662  0.0309 -0.0370  0.1965
    1DIPC   C1A25001  25.891  28.661   3.711  0.4080  0.1021 -0.0625
    1DIPC   D2A25002  25.979  28.406   3.979  0.0599 -0.1656  0.1201
    1DIPC   D3A25003  25.882  28.742   4.278 -0.3779  0.0712 -0.0762
    1DIPC   C4A25004  25.730  28.578   4.714 -0.1241 -0.1811  0.2783
    1DIPC   C1B25005  25.542  28.975   3.991  0.0851 -0.0281  0.0384
    1DIPC   D2B25006  25.470  28.562   3.969  0.2409  0.3318  0.0638
    1DIPC   D3B25007  25.386  28.366   4.307  0.0826  0.0488  0.1181
    1DIPC   C4B25008  24.945  28.054   4.503 -0.0107  0.2626  0.0307
    1DIPC   NC325009  29.776   9.607   2.816  0.0258  0.0916  0.1387
    1DIPC   PO425010  30.012   9.344   2.940 -0.2895  0.5651  0.2251
    1DIPC   GL125011  29.888   9.137   3.342 -0.1796 -0.1677 -0.1654
    1DIPC   GL225012  30.147   9.090   3.513  0.2822 -0.2694  0.0981
    1DIPC   C1A25013  29.609   9.082   3.737 -0.1002  0.2101  0.2622
    1DIPC   D2A25014  29.666   9.157   4.181 -0.1412 -0.0580  0.1141
    1DIPC   D3A25015  29.413   9.481   3.940  0.1424 -0.1144  0.2207
    1DIPC   C4A25016  29.714   9.682   3.668  0.0086  0.0687  0.1612
    1DIPC   C1B25017  30.120   9.113   3.996  0.0803 -0.2273 -0.1230
    1DIPC   D2B25018  30.232   9.101   4.487 -0.0149  0.0079 -0.2891
    1DIPC   D3B25019  30.161   9.603   4.387 -0.3190  0.1345 -0.0243
    1DIPC   C4B25020  29.834   9.650   4.187  0.1189 -0.2964 -0.0367
    1DIPC   NC325021  23.245  18.233   2.457 -0.0741  0.2374  0.1493
    1DIPC   PO425022  23.235  18.279   2.795  0.0645 -0.0326 -0.1343
    1DIPC   GL125023  23.347  17.941   3.093  0.0996 -0.1635 -0.0122
    1DIPC   GL225024  23.145  17.758   3.288  0.0553 -0.1942  0.1798
    1DIPC   C1A25025  23.581  17.847   3.528  0.1173  0.3592 -0.1446
    1DIPC   D2A25026  23.982  17.642   3.466  0.2421  0.3588 -0.1905
    1DIPC   D3A25027  23.748  17.497   3.819 -0.0958  0.1684 -0.1416
    1DIPC   C4A25028  23.251  17.544   3.858  0.1233  0.0844 -0.1140
    1DIPC   C1B25029  23.091  17.437   3.147  0.1258 -0.0536 -0.0732
    1DIPC   D2B25030  22.906  17.163   2.754 -0.0856 -0.3486  0.0268
    1DIPC   D3B25031  23.012  16.798   3.017 -0.1996  0.2889 -0.1024
    1DIPC   C4B25032  23.202  16.703   3.352 -0.0701 -0.4218  0.0429
    1DIPC   NC325033  19.642  29.568   2.558 -0.0695  0.3608  0.0987
    1DIPC   PO425034  19.492  29.396   2.982 -0.0106  0.3258  0.2194
    1DIPC   GL125035  19.625  29.274   3.357 -0.1186 -0.1295 -0.0479
    1DIPC   GL225036  19.809  29.578   3.389 -0.0190  0.0697  0.1472
    1DIPC   C1A25037  19.885  29.272   3.779 -0.3402  0.1366 -0.1003
    1DIPC   D2A25038  19.993  29.551   4.072  0.2268 -0.0556  0.0278
    1DIPC   D3A25039  19.545  29.679   3.968  0.0231 -0.1332 -0.2635
    1DIPC   C4A25040  19.229  29.341   3.962 -0.0257 -0.0693 -0.5330
    1DIPC   C1B25041  19.348  29.761   3.548  0.1126  0.1989 -0.2311
    1DIPC   D2B25042  18.795  29.754   3.541  0.2886  0.2141 -0.2538
    1DIPC   D3B25043  18.752  30.191   3.740 -0.0001 -0.1274  0.0036
    1DIPC   C4B25044  19.038  30.589   3.777  0.0253  0.1250  0.4119
    1DIPC   NC325045   9.223  25.566   1.842  0.1271  0.1973  0.1159
    1DIPC   PO425046   9.117  25.355   2.183 -0.0869 -0.0834  0.0641
    1DIPC   GL125047   9.186  25.274   2.587  0.0076 -0.0684 -0.0731
    1DIPC   GL225048   8.840  25.285   2.751  0.0237 -0.4048  0.0313
    1DIPC   C1A25049   9.227  25.452   3.015  0.3278  0.0795 -0.1048
    1DIPC   D2A25050   9.172  25.500   3.470 -0.1499 -0.4063  0.0786
    1DIPC   D3A25051   9.583  25.390   3.446  0.1745 -0.0801  0.2559
    1DIPC   C4A25052   9.918  25.170   3.235 -0.1382 -0.2386  0.0800
    1DIPC   C1B25053   8.904  24.944   3.062 -0.0824  0.1362  0.2609
    1DIPC   D2B25054   8.994  24.592   3.396  0.0570  0.6764  0.1822
    1DIPC   D3B25055   8.768  24.826   3.677 -0.1580 -0.2668 -0.4017
    1DIPC   C4B25056   8.714  24.755   4.213 -0.0057  0.0204 -0.1918
    1DIPC   NC325057  24.204   2.507   3.213  0.0999 -0.0422 -0.2351
    1DIPC   PO425058  24.554   2.199   3.307  0.0876  0.1989 -0.0794
    1DIPC   GL125059  24.529   1.984   3.606  0.3416 -0.1828  0.1813
    1DIPC   GL225060  24.472   1.711   3.446 -0.1679  0.0324 -0.2766
    1DIPC   C1A25061  24.809   1.742   3.928  0.3303  0.3048  0.0579
    1DIPC   D2A25062  24.716   1.810   4.359  0.2621  0.1879  0.1629
    1DIPC   D3A25063  24.590   1.292   4.439 -0.0858 -0.4531  0.1288
    1DIPC   C4A25064  24.538   1.211   4.953  0.0612 -0.1626 -0.2776
    1DIPC   C1B25065  24.322   1.559   3.895 -0.3995 -0.0960  0.0683
    1DIPC   D2B25066  24.231   1.653   4.245 -0.3185  0.2901  0.2027
    1DIPC   D3B25067  24.287   1.590   4.697  0.1666  0.3784 -0.0035
    1DIPC   C4B25068  24.025   1.554   4.847  0.1675 -0.1587  0.2114
    1DIPC   NC325069  16.818  10.987   2.014  0.1388 -0.0894 -0.1306
    1DIPC   PO425070  16.561  10.841   2.386 -0.0301  0.3132  0.0397
    1DIPC   GL125071  16.693  11.033   2.777 -0.0257  0.1274 -0.0499
    1DIPC   GL225072  16.997  10.882   2.766 -0.2201 -0.0226  0.0060
    1DIPC   C1A25073  16.636  10.983   3.242 -0.0333 -0.1071 -0.1115
    1DIPC   D2A25074  16.723  10.945   3.618 -0.0140 -0.2461  0.0839
    1DIPC   D3A25075  17.026  10.774   3.886  0.1887 -0.0573  0.0088
    1DIPC   C4A25076  17.412  10.679   3.576 -0.1362  0.0733  0.3236
    1DIPC   C1B25077  17.171  10.652   3.101  0.3670  0.0113  0.1113
    1DIPC   D2B25078  17.062  10.389   3.489  0.0222  0.0579 -0.1518
    1DIPC   D3B25079  17.071  10.001   3.630  0.0516  0.0813  0.0461
    1DIPC   C4B25080  17.098   9.961   4.125 -0.1636 -0.1831 -0.0049
    1DIPC   NC325081   1.200  21.439   2.703 -0.1889 -0.1381 -0.1412
    1DIPC   PO425082   1.449  21.093   2.558  0.2854  0.1720 -0.0194
    1DIPC   GL125083   1.797  21.015   2.876  0.0168  0.0238  0.1662
    1DIPC   GL225084   2.008  20.774   2.754 -0.1247 -0.4624  0.0749
    1DIPC   C1A25085   1.961  20.841   3.313 -0.2705  0.0441 -0.0209
    1DIPC   D2A25086   2.151  20.538   3.471 -0.1869  0.2873  0.0828
    1DIPC   D3A25087   2.207  20.234   3.893  0.0950 -0.0196  0.0258
    1DIPC   C4A25088   2.295  20.342   4.266  0.4177  0.2353 -0.1937
    1DIPC   C1B25089   2.257  20.472   3.011 -0.3557  0.2273  0.0772
    1DIPC   D2B25090   2.244  20.100   3.067 -0.1199 -0.1245 -0.0528
    1DIPC   D3B25091   2.526  20.225   3.457 -0.0846  0.1887 -0.0665
    1DIPC   C4B25092   2.930  20.433   3.522 -0.3524  0.1384 -0.2699
    1DIPC   NC325093   9.585  29.468   2.708 -0.0876 -0.1188 -0.1785
    1DIPC   PO425094   9.579  29.338   3.175 -0.0097  0.1627 -0.1818
    1DIPC   GL125095   9.699  29.184   3.657 -0.0233 -0.4674 -0.3333
    1DIPC   GL225096   9.986  28.901   3.722 -0.3824  0.0061 -0.0283
    1DIPC   C1A25097   9.691  29.239   4.047  0.2724  0.0615 -0.3658
    1DIPC   D2A25098   9.777  29.484   4.387 -0.1844 -0.2635 -0.0870
    1DIPC   D3A25099   9.738  29.339   4.740  0.3667 -0.0322  0.2739
    1DIPC   C4A25100   9.944  29.205   5.018 -0.1321  0.1877  0.2176
    1DIPC   C1B25101  10.063  28.882   4.078  0.0786  0.3134 -0.0858
    1DIPC   D2B25102  10.032  28.943   4.455 -0.0714  0.0783 -0.1439
    1DIPC   D3B25103   9.605  28.855   4.372 -0.4014  0.2323  0.1783
    1DIPC   C4B25104   9.381  28.872   4.839 -0.1620 -0.1200 -0.0279
    1DIPC   NC325105  27.076  14.077   2.351  0.2892  0.0892  0.0758
    1DIPC   PO425106  26.809  14.259   2.671  0.1000 -0.1202 -0.1381
    1DIPC   GL125107  26.562  14.558   2.967 -0.0436  0.0874  0.1630
    1DIPC   GL225108  26.664  14.855   2.904 -0.2048 -0.1236 -0.0045
    1DIPC   C1A25109  26.344  14.769   3.271  0.0668  0.2168  0.2964
    1DIPC   D2A25110  26.274  15.070   3.526  0.0414  0.0002 -0.3512
    1DIPC   D3A25111  26.227  14.814   3.832 -0.3647 -0.0480  0.0832
    1DIPC   C4A25112  25.988  14.806   4.180  0.0298  0.1089 -0.2049
    1DIPC   C1B25113  26.812  14.945   3.350  0.4766  0.0581  0.0085
    1DIPC   D2B25114  26.749  14.766   3.802 -0.2894 -0.1356 -0.1721
    1DIPC   D3B25115  26.608  15.105   4.118 -0.1407  0.1674  0.0989
    1DIPC   C4B25116  26.596  14.767   4.390 -0.1733  0.1022  0.0430
    1DIPC   NC325117   1.663  28.019   2.370 -0.0682 -0.0475  0.0645
    1DIPC   PO425118   1.364  27.800   2.633 -0.0114 -0.3310  0.0249
    1DIPC   GL125119   1.401  27.588   2.990 -0.0595 -0.2029  0.1621
    1DIPC   GL225120   1.605  27.237   2.955 -0.0095 -0.3017 -0.0226
    1DIPC   C1A25121   1.572  27.598   3.411 -0.0004  0.2974  0.0836
    1DIPC   D2A25122   1.422  27.447   3.842  0.2713 -0.1276 -0.0370
    1DIPC   D3A25123   1.768  27.739   3.970  0.1292 -0.1879 -0.2503
    1DIPC   C4A25124   1.751  28.007   4.340 -0.1988  0.0278  0.0225
    1DIPC   C1B25125   1.208  27.243   3.248 -0.0340  0.0706 -0.0313
    1DIPC   D2B25126   0.926  27.053   3.449 -0.0245 -0.0412 -0.0181
    1DIPC   D3B25127   1.004  26.815   3.793  0.2555 -0.0365 -0.1425
    1DIPC   C4B25128   0.762  26.365   3.925  0.0703  0.0267  0.0726
    1DIPC   NC325129  17.929   4.083   2.182 -0.1242 -0.1221  0.2235
    1DIPC   PO425130  18.133   4.467   2.244  0.3147  0.2351 -0.0968
    1DIPC   GL125131  18.077   4.450   2.792 -0.0507  0.1524 -0.3064
    1DIPC   GL225132  18.285   4.146   2.999  0.1139 -0.0788 -0.0298
    1DIPC   C1A25133  17.895   4.301   3.290 -0.1050  0.1287  0.0414
    1DIPC   D2A25134  17.731   3.848   3.518  0.0978  0.0456 -0.0716
    1DIPC   D3A25135  17.989   3.988   3.851  0.1474  0.0837  0.0489
    1DIPC   C4A25136  18.357   3.904   4.022 -0.1407  0.1143  0.0121
    1DIPC   C1B25137  18.230   3.964   3.433  0.3203 -0.2417 -0.0275
    1DIPC   D2B25138  18.292   3.567   3.584  0.0056  0.2423  0.0305
    1DIPC   D3B25139  17.935   3.413   3.752 -0.1211 -0.1733  0.2369
    1DIPC   C4B25140  17.658   3.386   3.524  0.2917  0.2283  0.1604
    1DIPC   NC325141  29.385  21.474   2.353 -0.3444  0.1156  0.4241
    1DIPC   PO425142  29.075  21.624   2.544  0.0566  0.2747  0.2025
    1DIPC   GL125143  29.088  21.683   2.993  0.0633 -0.0876  0.3823
    1DIPC   GL225144  29.199  21.277   2.995  0.0956 -0.2788 -0.1908
    1DIPC   C1A25145  28.934  21.985   3.293  0.0442 -0.1080 -0.2366
    1DIPC   D2A25146  28.472  22.125   3.365  0.1141  0.1778 -0.0355
    1DIPC   D3A25147  28.421  22.174   3.834 -0.0028 -0.1364  0.0459
    1DIPC   C4A25148  28.120  21.914   3.809  0.1146  0.0656 -0.0711
    1DIPC   C1B25149  29.559  21.253   3.311 -0.1738 -0.2525  0.2065
    1DIPC   D2B25150  29.620  21.325   3.715  0.1741  0.0438  0.3349
    1DIPC   D3B25151  29.830  21.751   3.646  0.0002  0.2993  0.2547
    1DIPC   C4B25152  29.980  21.966   4.056  0.2850 -0.0724  0.0761
    1DIPC   NC325153  17.969  26.878   3.242 -0.1645  0.4291  0.0794
    1DIPC   PO425154  18.038  26.476   3.651  0.0213 -0.3171 -0.1774
    1DIPC   GL125155  17.866  26.339   4.032  0.0158 -0.0519  0.3018
    1DIPC   GL225156  17.523  26.338   3.909  0.0247 -0.0237 -0.1691
    1DIPC   C1A25157  17.861  26.359   4.447  0.0493  0.1907 -0.0567
    1DIPC   D2A25158  17.895  26.369   4.822  0.0768  0.0927 -0.0134
    1DIPC   D3A25159  17.508  26.364   4.783 -0.1735  0.4150 -0.1135
    1DIPC   C4A25160  17.417  26.134   4.364  0.1945 -0.1108 -0.3453
    1DIPC   C1B25161  17.455  26.631   4.216  0.2322  0.1272  0.0683
    1DIPC   D2B25162  17.389  26.870   4.670 -0.0105 -0.1537 -0.3631
    1DIPC   D3B25163  17.102  26.826   4.963 -0.0435  0.1656 -0.0633
    1DIPC   C4B25164  16.614  26.896   5.075  0.0511 -0.3977 -0.1341
    1DIPC   NC325165   2.995  29.551   2.702  0.1902 -0.2280 -0.1798
    1DIPC   PO425166   2.927  29.992   2.789 -0.4557  0.0356 -0.2013
    1DIPC   GL125167   2.848  29.962   3.156  0.0719 -0.0721 -0.1036
    1DIPC   GL225168   2.544  29.839   3.281 -0.2065 -0.0191 -0.1249
    1DIPC   C1A25169   2.888  29.921   3.712 -0.0183  0.1295  0.0498
    1DIPC   D2A25170   2.828  29.808   4.141  0.1151 -0.2851 -0.0878
    1DIPC   D3A25171   2.969  30.250   4.333  0.1859  0.1353  0.1383
    1DIPC   C4A25172   3.077  30.639   4.399 -0.0479  0.1383 -0.1696
    1DIPC   C1B25173   2.405  29.975   3.764  0.1959  0.0461  0.2141
    1DIPC   D2B25174   2.348  30.181   4.177  0.0245  0.0702  0.5645
    1DIPC   D3B25175   2.268  30.593   4.304 -0.3116 -0.1977  0.0377
    1DIPC   C4B25176   2.623  30.558   4.532 -0.1723  0.3666 -0.3026
    1DIPC   NC325177   4.183  15.152   2.387  0.0818  0.0164 -0.3017
    1DIPC   PO425178   4.532  14.830   2.405 -0.0597 -0.2897 -0.0212
    1DIPC   GL125179   4.535  14.902   2.842  0.1880 -0.1406  0.2666
    1DIPC   GL225180   4.804  15.118   3.131 -0.0039  0.2017  0.0190
    1DIPC   C1A25181   4.610  14.661   3.209 -0.0240  0.0327 -0.2939
    1DIPC   D2A25182   4.614  14.757   3.618  0.2174  0.3124  0.2125
    1DIPC   D3A25183   4.808  15.125   3.773  0.1028  0.2145 -0.0750
    1DIPC   C4A25184   4.637  15.361   4.137 -0.1194 -0.0338  0.1368
    1DIPC   C1B25185   4.986  15.353   3.342 -0.0107  0.2658  0.0563
    1DIPC   D2B25186   5.132  15.619   3.638 -0.2109 -0.1455 -0.0993
    1DIPC   D3B25187   5.228  15.381   4.028  0.2034 -0.0622 -0.2396
    1DIPC   C4B25188   5.639  15.316   4.247 -0.0889  0.2459 -0.2378
    1DIPC   NC325189  28.560  24.387   2.905 -0.0748  0.2078  0.0421
    1DIPC   PO425190  28.936  24.492   2.911  0.1135 -0.0476  0.1159
    1DIPC   GL125191  29.036  24.443   3.295  0.0335  0.2300  0.4241
    1DIPC   GL225192  28.765  24.672   3.364  0.0311  0.2108 -0.0248
    1DIPC   C1A25193  28.980  24.388   3.706  0.0061 -0.2790  0.0586
    1DIPC   D2A25194  29.047  24.292   4.220  0.1060 -0.1478  0.2444
    1DIPC   D3A25195  28.716  24.536   4.246 -0.0343 -0.0945  0.1782
    1DIPC   C4A25196  28.577  24.343   4.549  0.1362 -0.2001  0.2567
    1DIPC   C1B25197  28.859  24.861   3.724  0.0346  0.2449  0.0115
    1DIPC   D2B25198  29.139  24.776   4.069 -0.0142  0.1424  0.2528
    1DIPC   D3B25199  29.165  25.144   4.050  0.1551  0.1805 -0.0120
    1DIPC   C4B25200  29.098  25.303   4.463  0.1296  0.2592  0.0029
    1DIPC   NC325201   1.655   8.393   3.158  0.3721  0.1566 -0.2605
    1DIPC   PO425202   1.616   8.010   3.278 -0.1885  0.0838  0.0158
    1DIPC   GL125203   1.640   7.885   3.811  0.3440 -0.1959  0.0112
    1DIPC   GL225204   1.836   7.618   3.710  0.1877  0.2481  0.2694
    1DIPC   C1A25205   1.562   7.627   4.208  0.3085 -0.1588  0.1013
    1DIPC   D2A25206   1.938   7.342   4.349  0.1189  0.0053  0.1657
    1DIPC   D3A25207   1.505   7.357   4.652 -0.0104 -0.0297  0.2350
    1DIPC   C4A25208   1.147   7.539   4.954 -0.0626 -0.1171  0.0598
    1DIPC   C1B25209   1.629   7.205   3.953  0.2999  0.3239  0.0560
    1DIPC   D2B25210   1.473   7.012   4.250 -0.2657  0.3794 -0.2255
    1DIPC   D3B25211   1.206   7.210   4.208 -0.1328  0.0307  0.1373
    1DIPC   C4B25212   0.869   7.109   4.021 -0.0433 -0.0386  0.1276
    1DIPC   NC325213  15.858  23.891   2.544  0.1044 -0.0820 -0.3052
    1DIPC   PO425214  16.212  24.135   2.629 -0.1604 -0.0688  0.3648
    1DIPC   GL125215  16.060  24.021   2.977  0.0703 -0.0072 -0.1089
    1DIPC   GL225216  15.757  24.207   2.921 -0.2931  0.0222 -0.2516
    1DIPC   C1A25217  16.225  23.843   3.272 -0.0796  0.1901 -0.0074
    1DIPC   D2A25218  16.451  24.104   3.596  0.0158 -0.1020  0.3925
    1DIPC   D3A25219  16.139  24.363   3.485 -0.0595 -0.3434 -0.1406
    1DIPC   C4A25220  15.821  24.069   3.387  0.4215  0.1107 -0.0970
    1DIPC   C1B25221  15.782  23.663   3.137  0.1023  0.2946  0.1140
    1DIPC   D2B25222  16.025  23.362   3.291  0.0779  0.1667  0.2714
    1DIPC   D3B25223  15.754  23.250   3.670 -0.2475 -0.2017 -0.1527
    1DIPC   C4B25224  15.999  23.405   4.046  0.2244 -0.0279  0.0189
    1DIPC   NC325225  20.823  25.348   3.207  0.0481 -0.0233 -0.2409
    1DIPC   PO425226  20.668  25.810   3.191 -0.1336 -0.0199 -0.1584
    1DIPC   GL125227  20.902  25.873   3.479  0.0807  0.2936  0.1434
    1DIPC   GL225228  21.170  25.655   3.490  0.3151 -0.1957  0.0133
    1DIPC   C1A25229  20.888  26.068   3.920 -0.2631 -0.2539 -0.3080
    1DIPC   D2A25230  20.897  26.308   4.329  0.1246  0.1773  0.0896
    1DIPC   D3A25231  21.194  26.246   4.542 -0.0397  0.1435 -0.0126
    1DIPC   C4A25232  21.300  25.981   4.840 -0.5373  0.1815  0.0356
    1DIPC   C1B25233  21.253  25.752   3.860  0.0420 -0.0289  0.3193
    1DIPC   D2B25234  21.273  25.769   4.322  0.2410 -0.1094 -0.0853
    1DIPC   D3B25235  21.728  25.968   4.350 -0.0382  0.0465  0.1121
    1DIPC   C4B25236  21.817  26.434   4.437 -0.0843  0.1582  0.0876
    1DIPC   NC325237   2.791   1.905   2.910 -0.0917  0.0375  0.2663
    1DIPC   PO425238   3.149   2.078   3.066  0.0912  0.2432 -0.2034
    1DIPC   GL125239   3.057   1.977   3.441  0.0692 -0.0452  0.1232
    1DIPC   GL225240   3.302   1.815   3.527  0.1358 -0.0372 -0.0740
    1DIPC   C1A25241   2.787   1.935   3.806  0.0397 -0.0431 -0.1634
    1DIPC   D2A25242   2.439   2.000   3.915 -0.1905 -0.1102  0.2354
    1DIPC   D3A25243   2.389   2.378   4.207 -0.2562  0.2746 -0.1952
    1DIPC   C4A25244   2.024   2.557   4.147  0.0445  0.2999  0.3273
    1DIPC   C1B25245   3.500   1.669   3.889  0.1455 -0.1368  0.1446
    1DIPC   D2B25246   3.528   1.530   4.265 -0.1720  0.0126 -0.1925
    1DIPC   D3B25247   3.138   1.677   4.254 -0.2094  0.2409  0.0809
    1DIPC   C4B25248   2.923   1.317   4.506 -0.3855 -0.2799  0.2139
    1DIPC   NC325249   0.790  19.291   2.387  0.1024  0.1887  0.0236
    1DIPC   PO425250   0.937  19.073   2.734 -0.0813 -0.0385 -0.0743
    1DIPC   GL125251   1.051  19.200   3.160  0.0856 -0.3780 -0.0304
    1DIPC   GL225252   1.307  19.057   3.370 -0.1873  0.1723  0.1209
    1DIPC   C1A25253   1.133  19.599   3.350 -0.1383  0.0241  0.0028
    1DIPC   D2A25254   1.154  19.820   3.729 -0.2292  0.1326  0.0974
    1DIPC   D3A25255   0.806  19.946   3.880 -0.2011 -0.0897  0.1166
    1DIPC   C4A25256   0.810  20.015   4.279  0.1572 -0.0824  0.2206
    1DIPC   C1B25257   1.776  19.131   3.556 -0.2020 -0.2290 -0.0805
    1DIPC   D2B25258   2.275  19.326   3.638 -0.1578  0.1070 -0.1843
    1DIPC   D3B25259   2.228  19.573   4.024 -0.1795 -0.2875  0.2114
    1DIPC   C4B25260   2.551  19.909   4.011  0.0713 -0.0670  0.1913
    1DIPC   NC325261  15.530   2.344   3.349  0.1240  0.1098  0.2865
    1DIPC   PO425262  15.385   1.877   3.360  0.0509  0.1671  0.0251
    1DIPC   GL125263  15.482   2.116   3.793  0.2197 -0.2202  0.1197
    1DIPC   GL225264  15.768   2.336   3.805  0.4951  0.1530 -0.1240
    1DIPC   C1A25265  15.391   2.301   4.145  0.2462 -0.1153 -0.2763
    1DIPC   D2A25266  15.691   2.349   4.478 -0.3979 -0.3046  0.0928
    1DIPC   D3A25267  16.107   2.319   4.529  0.0365  0.1589  0.0065
    1DIPC   C4A25268  16.243   2.467   4.857 -0.0568 -0.2880 -0.1667
    1DIPC   C1B25269  16.014   2.566   4.136  0.0649  0.1755  0.2552
    1DIPC   D2B25270  16.441   2.319   4.204 -0.0781 -0.1395  0.0654
    1DIPC   D3B25271  16.444   1.984   4.652  0.0474  0.0685 -0.0421
    1DIPC   C4B25272  16.279   1.886   5.115 -0.1401 -0.0678  0.3965
    1DIPC   NC325273  29.184   3.381   2.587 -0.1542  0.2914 -0.0438
    1DIPC   PO425274  29.011   3.498   2.965 -0.0835  0.2083 -0.2556
    1DIPC   GL125275  29.256   3.581   3.416  0.2494  0.1635  0.0762
    1DIPC   GL225276  29.415   3.228   3.493  0.1118  0.1193  0.1592
    1DIPC   C1A25277  29.173   3.918   3.650  0.0101 -0.1205  0.1315
    1DIPC   D2A25278  28.752   4.013   3.825  0.2147 -0.0731  0.1811
    1DIPC   D3A25279  29.019   3.987   4.186  0.0802 -0.2771  0.2202
    1DIPC   C4A25280  29.225   4.134   4.610  0.1745 -0.1331 -0.2118
    1DIPC   C1B25281  29.515   3.207   3.915  0.0437  0.2279 -0.3112
    1DIPC   D2B25282  29.522   3.200   4.365 -0.1227  0.1094  0.0894
    1DIPC   D3B25283  29.265   3.164   4.730 -0.3128 -0.0180  0.0920
    1DIPC   C4B25284  29.127   3.563   4.903  0.2106  0.2595 -0.0862
    1DIPC   NC325285   6.382   4.126   3.495  0.1655 -0.0012 -0.0037
    1DIPC   PO425286   6.674   4.466   3.575  0.0692  0.0152 -0.0997
    1DIPC   GL125287   6.601   4.312   3.950  0.3426 -0.1327 -0.2270
    1DIPC   GL225288   6.625   3.959   3.937 -0.0316  0.1587 -0.2753
    1DIPC   C1A25289   6.822   4.292   4.328 -0.1503  0.3576  0.1113
    1DIPC   D2A25290   6.907   4.454   4.748 -0.0025 -0.1559  0.2035
    1DIPC   D3A25291   7.089   4.826   4.988  0.1039 -0.2200 -0.0016
    1DIPC   C4A25292   7.038   4.799   5.366 -0.0449  0.3309  0.0957
    1DIPC   C1B25293   6.565   3.738   4.348 -0.0934 -0.0538  0.0799
    1DIPC   D2B25294   6.509   3.651   4.776  0.0015  0.0610 -0.0501
    1DIPC   D3B25295   6.848   3.404   4.959  0.2298 -0.4085  0.0452
    1DIPC   C4B25296   6.880   3.120   5.306 -0.3906  0.0319 -0.1986
    1DIPC   NC325297  25.339   4.454   2.762  0.0150  0.1373  0.1538
    1DIPC   PO425298  25.465   4.772   3.140  0.2841 -0.0244 -0.2194
    1DIPC   GL125299  25.833   4.737   3.500 -0.0721 -0.2239  0.1284
    1DIPC   GL225300  26.169   4.528   3.451 -0.1184  0.2458  0.2608
    1DIPC   C1A25301  26.084   4.852   3.836  0.3869  0.1380 -0.0335
    1DIPC   D2A25302  26.066   5.132   4.117 -0.1835  0.0038 -0.0260
    1DIPC   D3A25303  25.786   5.430   4.059  0.1484 -0.3082 -0.0455
    1DIPC   C4A25304  25.482   5.556   3.805 -0.0889 -0.0691  0.0205
    1DIPC   C1B25305  25.765   4.446   3.865  0.1297 -0.0255 -0.0561
    1DIPC   D2B25306  25.635   4.668   4.158 -0.1862  0.2845 -0.3669
    1DIPC   D3B25307  25.964   4.432   4.288 -0.0590 -0.0066 -0.1249
    1DIPC   C4B25308  26.232   4.057   4.042 -0.1553 -0.5189 -0.0166
    1DIPC   NC325309  25.069   9.390   2.505  0.2554  0.0825  0.0632
    1DIPC   PO425310  24.751   9.715   2.833 -0.4001 -0.2219  0.2238
    1DIPC   GL125311  24.852   9.861   3.180  0.1535  0.0338  0.3680
    1DIPC   GL225312  24.495   9.824   3.333  0.1942  0.1552  0.2296
    1DIPC   C1A25313  24.818   9.678   3.640  0.1074 -0.3413 -0.0423
    1DIPC   D2A25314  24.986   9.497   4.018  0.1128 -0.0932 -0.3143
    1DIPC   D3A25315  25.101   9.388   4.407  0.0351 -0.2390  0.0503
    1DIPC   C4A25316  25.118   9.679   4.671  0.1629  0.0121 -0.4394
    1DIPC   C1B25317  24.561  10.070   3.764  0.0785  0.0639  0.2349
    1DIPC   D2B25318  24.408  10.407   3.886  0.3149 -0.0406 -0.0936
    1DIPC   D3B25319  24.619  10.579   4.232 -0.0442  0.2404  0.0222
    1DIPC   C4B25320  24.962  10.442   4.430  0.0726  0.1228  0.1986
    1DIPC   NC325321   3.679  23.250   1.857 -0.1762 -0.2369  0.0038
    1DIPC   PO425322   3.707  23.475   2.194 -0.1011 -0.2188  0.0799
    1DIPC   GL125323   3.800  23.410   2.581 -0.0628  0.1273  0.2690
    1DIPC   GL225324   3.696  23.704   2.746  0.1116 -0.2619  0.4237
    1DIPC   C1A25325   4.134  23.518   2.979 -0.0207 -0.1060 -0.0282
    1DIPC   D2A25326   4.527  23.516   3.313 -0.2457 -0.0941 -0.2291
    1DIPC   D3A25327   4.511  23.716   3.702 -0.0109  0.1352  0.0538
    1DIPC   C4A25328   4.804  23.773   4.073  0.1828  0.1544  0.0499
    1DIPC   C1B25329   3.630  24.105   2.928  0.1260 -0.5517 -0.2431
    1DIPC   D2B25330   3.661  24.579   3.028  0.1090  0.1721  0.3293
    1DIPC   D3B25331   3.821  24.670   3.358  0.0580 -0.2017 -0.1422
    1DIPC   C4B25332   4.300  24.731   3.445 -0.0758 -0.3025 -0.2045
    1DIPC   NC325333   0.711  26.958   2.661  0.1821  0.0043  0.1291
    1DIPC   PO425334   0.387  27.334   2.590 -0.0348 -0.1668 -0.3146
    1DIPC   GL125335   0.656  27.304   2.992 -0.0960 -0.0644 -0.1043
    1DIPC   GL225336   0.809  27.508   3.222 -0.3455 -0.0761  0.1314
    1DIPC   C1A25337   0.469  27.169   3.356 -0.2581  0.0571 -0.1165
    1DIPC   D2A25338   0.015  27.389   3.588  0.0323  0.0192  0.0621
    1DIPC   D3A25339   0.218  27.076   3.896  0.0914 -0.1915  0.1605
    1DIPC   C4A25340   0.628  27.050   4.023 -0.0179  0.1148 -0.1105
    1DIPC   C1B25341   0.920  27.647   3.583  0.1926 -0.1032 -0.1354
    1DIPC   D2B25342   0.929  27.497   4.074  0.3210  0.0805  0.1632
    1DIPC   D3B25343   1.203  27.210   4.328  0.0661 -0.1749  0.0935
    1DIPC   C4B25344   1.044  26.829   4.323  0.0389  0.2319  0.0722
    1DIPC   NC325345  21.987  25.905   2.736  0.1874 -0.1182  0.2665
    1DIPC   PO425346  22.128  26.337   2.485 -0.2801  0.1792  0.0738
    1DIPC   GL125347  22.222  26.315   2.980  0.0544  0.1956  0.0585
    1DIPC   GL225348  22.436  26.478   3.236 -0.1788 -0.2860  0.0148
    1DIPC   C1A25349  21.960  26.448   3.457 -0.1736  0.2249 -0.0870
    1DIPC   D2A25350  21.956  26.368   3.912  0.0213 -0.0021  0.1818
    1DIPC   D3A25351  22.306  26.573   4.039  0.0517 -0.0431 -0.1111
    1DIPC   C4A25352  22.382  26.474   4.520 -0.2358 -0.1375  0.1643
    1DIPC   C1B25353  22.466  26.229   3.624  0.1741 -0.1653 -0.0881
    1DIPC   D2B25354  22.341  26.000   4.126  0.0166 -0.1721  0.2858
    1DIPC   D3B25355  22.648  25.696   4.424 -0.0413 -0.0577 -0.2044
    1DIPC   C4B25356  22.504  25.289   4.598  0.0334 -0.2261  0.1871
    1DIPC   NC325357   0.812  27.950   3.068  0.0442  0.2113 -0.4815
    1DIPC   PO425358   0.413  27.814   2.973 -0.1990  0.0297  0.1634
    1DIPC   GL125359   0.375  27.705   3.384 -0.1085  0.0422 -0.0460
    1DIPC   GL225360   0.223  27.925   3.682  0.0084 -0.0058 -0.3723
    1DIPC   C1A25361   0.481  27.545   3.795 -0.0829  0.0078  0.0489
    1DIPC   D2A25362   0.455  27.456   4.248  0.0256  0.2519 -0.2544
    1DIPC   D3A25363   0.067  27.452   4.111  0.0352 -0.1445 -0.0994
    1DIPC   C4A25364  -0.229  27.194   4.089 -0.1026 -0.0938  0.0970
    1DIPC   C1B25365   0.372  28.006   4.026 -0.1280  0.1287 -0.1558
    1DIPC   D2B25366   0.521  28.090   4.484 -0.0263 -0.0709  0.1677
    1DIPC   D3B25367   0.079  28.217   4.656 -0.0750  0.3264 -0.2158
    1DIPC   C4B25368   0.095  28.389   5.012  0.1219 -0.0108  0.1587
    1DIPC   NC325369   4.749  28.996   2.899 -0.1210  0.2837  0.1619
    1DIPC   PO425370   4.283  29.033   2.959  0.0072  0.1203 -0.1939
    1DIPC   GL125371   4.142  29.125   3.346 -0.1997 -0.0096 -0.0956
    1DIPC   GL225372   4.319  28.959   3.522  0.4971  0.2685  0.1572
    1DIPC   C1A25373   3.823  29.053   3.580  0.4564  0.4956  0.0406
    1DIPC   D2A25374   3.559  29.154   4.015  0.0118 -0.2076 -0.0641
    1DIPC   D3A25375   3.233  28.975   4.247 -0.0314 -0.3324  0.3559
    1DIPC   C4A25376   3.257  28.433   4.351  0.0811 -0.1078 -0.3438
    1DIPC   C1B25377   4.216  29.111   3.966  0.0625 -0.1542  0.0361
    1DIPC   D2B25378   3.986  29.334   4.240 -0.0679 -0.0548 -0.1811
    1DIPC   D3B25379   3.979  29.601   3.860 -0.1604 -0.0059  0.2679
    1DIPC   C4B25380   3.945  29.870   3.533 -0.3502  0.0096 -0.1648
    1DIPC   NC325381  21.352  13.443   2.322 -0.3720  0.0181 -0.2397
    1DIPC   PO425382  21.433  13.887   2.236 -0.0344 -0.3545 -0.0585
    1DIPC   GL125383  21.492  14.016   2.585 -0.1326 -0.1874  0.1740
    1DIPC   GL225384  21.428  13.752   2.713 -0.0195  0.0356  0.0244
    1DIPC   C1A25385  21.721  14.412   2.780  0.0636  0.1036 -0.1847
    1DIPC   D2A25386  21.623  14.719   3.045  0.0674  0.1175  0.2671
    1DIPC   D3A25387  21.401  14.831   2.727 -0.1985 -0.1113 -0.1125
    1DIPC   C4A25388  21.273  15.270   2.680 -0.2907  0.1944 -0.0599
    1DIPC   C1B25389  21.174  13.617   3.055  0.2291  0.3210 -0.3953
    1DIPC   D2B25390  20.819  13.488   3.048  0.0212 -0.2147  0.1117
    1DIPC   D3B25391  20.760  13.855   2.838  0.3430 -0.2060 -0.1602
    1DIPC   C4B25392  20.370  14.061   3.021 -0.1808 -0.0168  0.0384
    1DIPC   NC325393  22.885  21.365   3.106  0.2449 -0.0693  0.0459
    1DIPC   PO425394  23.220  21.483   3.051 -0.0437  0.0273  0.2344
    1DIPC   GL125395  23.190  21.405   3.507 -0.1119  0.0661  0.1016
    1DIPC   GL225396  23.136  21.802   3.553 -0.1401  0.1479 -0.0083
    1DIPC   C1A25397  23.196  21.144   3.850  0.1098 -0.1059 -0.4052
    1DIPC   D2A25398  23.314  21.222   4.237 -0.0680  0.1636  0.4536
    1DIPC   D3A25399  23.402  21.150   4.669  0.0590 -0.2067  0.1678
    1DIPC   C4A25400  23.307  21.344   4.880 -0.3300  0.1287 -0.0254
    1DIPC   C1B25401  23.333  21.674   3.940 -0.0194 -0.1252 -0.0062
    1DIPC   D2B25402  23.291  21.660   4.418 -0.1775  0.3020  0.0095
    1DIPC   D3B25403  23.069  22.087   4.319 -0.0491 -0.0563  0.1656
    1DIPC   C4B25404  22.823  22.236   4.595 -0.0930 -0.0125  0.0835
    1DIPC   NC325405  19.315   2.711   2.959  0.0408  0.0554  0.2561
    1DIPC   PO425406  19.522   3.077   3.156 -0.2468 -0.2808  0.7772
    1DIPC   GL125407  19.384   2.961   3.555 -0.0413  0.1472  0.3744
    1DIPC   GL225408  19.621   2.972   3.777 -0.1037 -0.2414  0.0174
    1DIPC   C1A25409  19.150   3.244   3.858 -0.0679  0.3902 -0.0917
    1DIPC   D2A25410  19.033   3.537   4.161  0.1782  0.3147 -0.2053
    1DIPC   D3A25411  18.684   3.491   4.363 -0.3029  0.0343  0.0935
    1DIPC   C4A25412  18.484   3.680   4.628  0.1444  0.1886  0.1917
    1DIPC   C1B25413  19.505   2.996   4.218  0.1865 -0.2248 -0.0316
    1DIPC   D2B25414  19.423   2.739   4.676  0.0021 -0.2912  0.0018
    1DIPC   D3B25415  19.190   2.377   4.932  0.2096 -0.1427 -0.5536
    1DIPC   C4B25416  18.819   2.426   5.027  0.1845 -0.0326 -0.0875
    1DIPC   NC325417   7.293   3.709   3.358 -0.0782 -0.0177 -0.1214
    1DIPC   PO425418   7.243   3.283   3.623 -0.1770  0.3347  0.0021
    1DIPC   GL125419   7.368   3.108   4.002 -0.1758 -0.2578 -0.0105
    1DIPC   GL225420   7.491   2.819   4.014 -0.0677 -0.1592  0.2021
    1DIPC   C1A25421   7.293   2.989   4.462 -0.1603 -0.1515  0.3474
    1DIPC   D2A25422   6.976   2.911   4.751  0.1657 -0.0318  0.1741
    1DIPC   D3A25423   6.795   2.473   4.585  0.0233 -0.1914 -0.0979
    1DIPC   C4A25424   6.931   2.234   4.884 -0.1206  0.0585  0.1761
    1DIPC   C1B25425   7.373   2.503   4.345 -0.0414  0.2586 -0.2970
    1DIPC   D2B25426   7.279   2.508   4.727 -0.1677 -0.0884 -0.1860
    1DIPC   D3B25427   7.494   2.836   4.935 -0.0422  0.0513 -0.2028
    1DIPC   C4B25428   7.780   2.884   5.325  0.2875 -0.1159  0.1327
    1DIPC   NC325429  25.364  17.603   2.192 -0.1884 -0.0449  0.2173
    1DIPC   PO425430  25.839  17.801   2.161  0.1937 -0.2378 -0.0352
    1DIPC   GL125431  25.565  17.846   2.595  0.1217 -0.0357 -0.1613
    1DIPC   GL225432  25.707  17.902   2.919  0.2349  0.0939 -0.0520
    1DIPC   C1A25433  25.247  17.841   2.917 -0.1070  0.1622 -0.0150
    1DIPC   D2A25434  25.034  18.202   3.182  0.0715  0.1604 -0.0206
    1DIPC   D3A25435  25.051  18.047   3.633  0.1039 -0.0169  0.0027
    1DIPC   C4A25436  24.915  17.877   3.903 -0.1161  0.0549 -0.0828
    1DIPC   C1B25437  25.497  18.008   3.311  0.1264  0.2948  0.0310
    1DIPC   D2B25438  25.541  18.006   3.782  0.0222  0.4181  0.0000
    1DIPC   D3B25439  25.562  17.781   4.185  0.3927  0.2076  0.0833
    1DIPC   C4B25440  25.106  17.773   4.331 -0.1442 -0.1615  0.0881
    1DIPC   NC325441  29.483   7.041   3.049  0.1253  0.0651 -0.1780
    1DIPC   PO425442  29.493   6.643   2.999 -0.2016  0.0711 -0.5288
    1DIPC   GL125443  29.453   6.711   3.438 -0.0187  0.1138 -0.0358
    1DIPC   GL225444  29.743   6.877   3.476  0.1207 -0.2057 -0.3000
    1DIPC   C1A25445  29.239   6.706   3.733 -0.0240 -0.1311  0.0988
    1DIPC   D2A25446  29.146   6.986   4.057 -0.3193 -0.1085  0.0514
    1DIPC   D3A25447  28.845   7.166   4.038  0.0465 -0.1436  0.0023
    1DIPC   C4A25448  28.795   7.535   4.257  0.1518  0.0362  0.0198
    1DIPC   C1B25449  30.002   6.620   3.849  0.0657 -0.0660  0.0958
    1DIPC   D2B25450  30.065   6.444   4.178  0.1227 -0.0559 -0.0204
    1DIPC   D3B25451  30.460   6.159   4.221 -0.0446  0.0982 -0.0744
    1DIPC   C4B25452  30.561   5.768   4.535 -0.1657  0.0597 -0.0508
    1DIPC   NC325453  23.938  10.038   2.251  0.2277 -0.2648 -0.2849
    1DIPC   PO425454  23.516   9.920   2.463 -0.1052  0.1547 -0.3186
    1DIPC   GL125455  23.338  10.116   2.872  0.2144  0.0908 -0.0178
    1DIPC   GL225456  23.114  10.461   2.872  0.1045 -0.0778  0.0792
    1DIPC   C1A25457  23.196   9.997   3.336  0.1588 -0.1134  0.2326
    1DIPC   D2A25458  22.915  10.066   3.695  0.0139 -0.0085  0.2485
    1DIPC   D3A25459  22.927  10.355   4.014  0.0636  0.1508 -0.0846
    1DIPC   C4A25460  23.252  10.453   4.201 -0.0550 -0.0679  0.0287
    1DIPC   C1B25461  23.432  10.399   3.229 -0.2638 -0.0081  0.4381
    1DIPC   D2B25462  23.717  10.322   3.308  0.0062 -0.0061 -0.0347
    1DIPC   D3B25463  23.637  10.068   3.739 -0.1498  0.1038  0.5103
    1DIPC   C4B25464  23.766   9.704   4.071  0.0443 -0.2147  0.0807
    1DIPC   NC325465  14.938   1.734   3.601 -0.1058 -0.2967  0.2105
    1DIPC   PO425466  14.498   1.570   3.758  0.0210  0.0271  0.1587
    1DIPC   GL125467  14.703   1.762   4.062 -0.0917  0.1509 -0.3855
    1DIPC   GL225468  14.838   1.506   4.212 -0.3479  0.0935 -0.1311
    1DIPC   C1A25469  14.871   1.976   4.433 -0.1124 -0.0450 -0.1240
    1DIPC   D2A25470  14.911   2.050   4.924  0.1941 -0.0668  0.0914
    1DIPC   D3A25471  14.920   1.721   5.149  0.0884 -0.2107  0.1095
    1DIPC   C4A25472  14.603   1.365   5.220 -0.0180 -0.0571  0.2672
    1DIPC   C1B25473  15.123   1.492   4.637  0.2341 -0.3590  0.2528
    1DIPC   D2B25474  15.472   1.399   5.012 -0.1606 -0.0074 -0.1362
    1DIPC   D3B25475  15.605   0.960   5.177 -0.1470 -0.1951  0.2619
    1DIPC   C4B25476  15.848   0.663   5.016 -0.2351  0.1526  0.3023
    1DIPC   NC325477  12.082  22.202   1.457  0.1116 -0.0769 -0.0734
    1DIPC   PO425478  11.954  22.543   1.867  0.0195 -0.2499 -0.1998
    1DIPC   GL125479  11.935  22.408   2.269 -0.1354  0.0485  0.1535
    1DIPC   GL225480  11.939  22.730   2.430 -0.1478 -0.0115  0.0733
    1DIPC   C1A25481  11.993  22.332   2.748  0.2786  0.4748  0.2960
    1DIPC   D2A25482  12.176  22.262   3.147  0.0831 -0.0224 -0.0089
    1DIPC   D3A25483  12.233  21.905   3.516  0.0759  0.2343 -0.4681
    1DIPC   C4A25484  12.609  21.992   3.775  0.0443 -0.0346 -0.2802
    1DIPC   C1B25485  12.037  22.926   2.917  0.4987 -0.5277 -0.0871
    1DIPC   D2B25486  12.048  22.711   3.258  0.2435 -0.1629  0.1774
    1DIPC   D3B25487  11.747  22.660   3.597 -0.1610  0.0105 -0.2017
    1DIPC   C4B25488  11.620  22.886   3.872  0.0508  0.1847 -0.0491
    1DIPC   NC325489  24.693  20.274   2.539  0.0561 -0.0112  0.0132
    1DIPC   PO425490  24.574  19.920   2.572 -0.1508 -0.2510  0.0074
    1DIPC   GL125491  24.453  19.819   2.977 -0.0120 -0.0100 -0.0430
    1DIPC   GL225492  24.657  19.532   3.024 -0.0005 -0.1427  0.0077
    1DIPC   C1A25493  24.331  19.461   3.429  0.0002  0.0505  0.1413
    1DIPC   D2A25494  24.314  19.587   3.909  0.0776  0.2476  0.3109
    1DIPC   D3A25495  24.698  19.370   4.006 -0.2107 -0.0526  0.1537
    1DIPC   C4A25496  24.847  19.050   4.349  0.3593  0.2384 -0.0669
    1DIPC   C1B25497  24.880  19.287   3.388  0.3234 -0.0469 -0.3042
    1DIPC   D2B25498  25.093  18.961   3.571 -0.1419 -0.2195 -0.1241
    1DIPC   D3B25499  25.141  18.936   4.000 -0.1729 -0.1541 -0.1212
    1DIPC   C4B25500  25.452  19.112   4.353  0.2386  0.0941  0.0284
    1DIPC   NC325501   4.509  26.610   2.650  0.1920 -0.0536 -0.0816
    1DIPC   PO425502   4.927  26.789   2.780  0.4969  0.0983  0.0218
    1DIPC   GL125503   4.934  26.439   3.010 -0.2199 -0.1131  0.1140
    1DIPC   GL225504   4.604  26.244   3.000  0.2354  0.1180  0.1628
    1DIPC   C1A25505   5.034  26.507   3.482 -0.0893  0.1195 -0.0420
    1DIPC   D2A25506   5.228  26.300   3.874 -0.0358  0.1328 -0.0678
    1DIPC   D3A25507   5.062  26.041   4.121 -0.0546 -0.1589  0.0000
    1DIPC   C4A25508   4.656  26.047   4.188 -0.1759  0.1152 -0.3095
    1DIPC   C1B25509   4.550  26.420   3.433  0.1292  0.1022  0.0900
    1DIPC   D2B25510   4.424  26.723   3.714 -0.0194  0.1954  0.0361
    1DIPC   D3B25511   4.304  26.453   3.960 -0.0278  0.2318  0.1753
    1DIPC   C4B25512   4.161  26.427   4.377 -0.0315 -0.3531 -0.1785
    1DIPC   NC325513  15.979   9.437   2.429 -0.0978  0.2068  0.1033
    1DIPC   PO425514  15.733   9.375   2.684 -0.1711 -0.0165 -0.2392
    1DIPC   GL125515  15.915   9.369   3.000 -0.0007 -0.0757  0.1528
    1DIPC   GL225516  15.632   9.271   3.146  0.0309  0.0739  0.0362
    1DIPC   C1A25517  16.069   9.059   3.313  0.0292  0.0635 -0.1272
    1DIPC   D2A25518  15.960   8.842   3.652  0.1657 -0.1506  0.0529
    1DIPC   D3A25519  16.168   9.079   3.880  0.2018 -0.3463  0.1365
    1DIPC   C4A25520  16.123   9.474   3.851  0.1565 -0.0245  0.1416
    1DIPC   C1B25521  15.721   9.295   3.636 -0.1986 -0.0286  0.1138
    1DIPC   D2B25522  15.612   9.557   4.037  0.2566 -0.1131  0.0053
    1DIPC   D3B25523  15.284   9.318   4.117  0.2367  0.2246 -0.1350
    1DIPC   C4B25524  15.106   9.332   4.498  0.1884 -0.1166  0.2360
    1DIPC   NC325525   7.112  24.204   1.766 -0.0790  0.0589 -0.0279
    1DIPC   PO425526   7.337  24.325   2.204 -0.3175  0.1895  0.0583
    1DIPC   GL125527   7.090  24.325   2.564  0.0195  0.5652 -0.0897
    1DIPC   GL225528   6.964  23.996   2.731 -0.2064 -0.0459 -0.1629
    1DIPC   C1A25529   6.980  24.496   2.901 -0.1484 -0.0002 -0.0870
    1DIPC   D2A25530   6.873  24.845   3.159  0.1987  0.1076  0.0164
    1DIPC   D3A25531   6.532  24.717   3.588  0.0884  0.0237  0.2156
    1DIPC   C4A25532   6.607  24.749   3.940  0.0504 -0.2552 -0.2771
    1DIPC   C1B25533   7.197  24.088   3.133 -0.1896  0.1002 -0.0309
    1DIPC   D2B25534   7.386  24.019   3.544 -0.2636  0.1075  0.0331
    1DIPC   D3B25535   7.398  24.262   3.772 -0.2597  0.0654  0.2780
    1DIPC   C4B25536   7.794  24.359   3.996  0.1522  0.1996 -0.0974
    1DIPC   NC325537  10.761  28.412   3.341  0.3131 -0.2172  0.4218
    1DIPC   PO425538  11.189  28.600   3.168  0.3240  0.1121  0.1141
    1DIPC   GL125539  11.205  28.432   3.594 -0.2182 -0.0999  0.1392
    1DIPC   GL225540  11.580  28.168   3.725  0.1440 -0.0213 -0.0659
    1DIPC   C1A25541  11.274  28.363   4.054 -0.1401  0.0199 -0.0637
    1DIPC   D2A25542  11.119  28.085   4.416  0.2629  0.2378 -0.0574
    1DIPC   D3A25543  10.767  27.884   4.192 -0.0452 -0.0265  0.1030
    1DIPC   C4A25544  10.724  27.463   4.085  0.3249 -0.1160 -0.2193
    1DIPC   C1B25545  11.470  27.867   3.977  0.0534 -0.1230 -0.0374
    1DIPC   D2B25546  11.353  27.524   3.889 -0.1335 -0.4530 -0.1508
    1DIPC   D3B25547  11.241  27.574   4.364 -0.0803 -0.3248  0.2086
    1DIPC   C4B25548  11.398  27.627   4.705  0.1933 -0.3148  0.0487
    1DIPC   NC325549  27.344   2.230   3.186 -0.1970 -0.0979 -0.1603
    1DIPC   PO425550  27.137   2.606   3.175  0.0287 -0.3291 -0.0706
    1DIPC   GL125551  27.016   2.456   3.497  0.2464  0.1704 -0.0267
    1DIPC   GL225552  26.737   2.391   3.494  0.0911 -0.1154 -0.2430
    1DIPC   C1A25553  27.011   2.424   3.907 -0.1263 -0.0868 -0.0498
    1DIPC   D2A25554  27.206   2.320   4.281  0.2022 -0.0779  0.1771
    1DIPC   D3A25555  26.937   2.346   4.615 -0.1026 -0.0669 -0.3234
    1DIPC   C4A25556  26.667   1.966   4.718  0.0134 -0.2891  0.0837
    1DIPC   C1B25557  26.638   2.121   3.825  0.0416  0.0534  0.2798
    1DIPC   D2B25558  26.445   2.124   4.216  0.2531  0.2453 -0.0543
    1DIPC   D3B25559  26.138   1.901   3.916 -0.0764  0.0023  0.1058
    1DIPC   C4B25560  26.026   1.490   3.720  0.1804 -0.0820  0.0855
    1DIPC   NC325561   3.827  24.209   2.317  0.2931  0.0866  0.0374
    1DIPC   PO425562   3.553  24.541   2.337 -0.0068  0.3373  0.0918
    1DIPC   GL125563   3.343  24.492   2.700 -0.0034  0.0648  0.1102
    1DIPC   GL225564   3.108  24.726   2.692  0.3669 -0.0406  0.1931
    1DIPC   C1A25565   3.165  24.292   3.018 -0.0432  0.2376 -0.2459
    1DIPC   D2A25566   3.317  24.197   3.426 -0.1958  0.0398 -0.1905
    1DIPC   D3A25567   3.710  24.167   3.530 -0.2583 -0.2286 -0.1472
    1DIPC   C4A25568   3.970  24.498   3.785  0.1823 -0.3209  0.0833
    1DIPC   C1B25569   2.682  24.551   2.739  0.1692 -0.0913 -0.1861
    1DIPC   D2B25570   2.340  24.664   2.425  0.0489  0.1026  0.2067
    1DIPC   D3B25571   2.203  24.848   2.811 -0.2029 -0.2200  0.2036
    1DIPC   C4B25572   2.008  24.579   3.079 -0.1375  0.2556 -0.2027
    1DIPC   NC325573   6.675  29.310   3.229  0.1740  0.3804 -0.3158
    1DIPC   PO425574   6.923  29.579   3.435 -0.1263 -0.1619  0.1240
    1DIPC   GL125575   6.903  29.920   3.698  0.1112  0.1812 -0.1544
    1DIPC   GL225576   7.178  30.002   3.698  0.0682 -0.1876 -0.0555
    1DIPC   C1A25577   6.807  30.045   4.191  0.0907 -0.0667  0.0429
    1DIPC   D2A25578   6.792  29.921   4.628 -0.0597 -0.1893  0.3181
    1DIPC   D3A25579   6.439  29.652   4.733  0.1913  0.1165  0.1240
    1DIPC   C4A25580   6.027  29.537   4.581  0.0137  0.0020  0.1624
    1DIPC   C1B25581   7.378  30.096   4.068  0.4861  0.0559  0.0729
    1DIPC   D2B25582   7.199  30.299   4.415 -0.1164 -0.4226 -0.4836
    1DIPC   D3B25583   7.287  29.858   4.461  0.1392 -0.0370 -0.2581
    1DIPC   C4B25584   7.244  29.568   4.866 -0.0090 -0.0053 -0.0731
    1DIPC   NC325585  29.265   7.447   2.406 -0.0085  0.4578  0.0985
    1DIPC   PO425586  29.178   7.372   2.834 -0.4240 -0.0127 -0.1712
    1DIPC   GL125587  29.062   7.513   3.263 -0.1704  0.2689 -0.1380
    1DIPC   GL225588  29.136   7.294   3.430 -0.1023  0.1311 -0.2774
    1DIPC   C1A25589  28.637   7.392   3.453 -0.0586 -0.2170  0.0325
    1DIPC   D2A25590  28.444   7.528   3.840  0.1964 -0.1735  0.3532
    1DIPC   D3A25591  28.320   7.233   4.111  0.1914 -0.0114 -0.5643
    1DIPC   C4A25592  28.050   7.291   4.459 -0.1770 -0.1672 -0.1035
    1DIPC   C1B25593  29.294   7.496   3.834  0.0052  0.1288  0.2175
    1DIPC   D2B25594  29.552   7.391   4.298 -0.3204 -0.0922 -0.2955
    1DIPC   D3B25595  29.128   7.252   4.486  0.3419  0.0963  0.3867
    1DIPC   C4B25596  28.955   7.526   4.825 -0.3050  0.1866 -0.2168
    1DIPC   NC325597  28.686  18.176   2.791 -0.0313  0.2216  0.2957
    1DIPC   PO425598  28.473  18.558   2.939 -0.1886  0.0369  0.0938
    1DIPC   GL125599  28.561  18.565   3.297  0.2112 -0.2498  0.0950
    1DIPC   GL225600  28.739  18.909   3.438 -0.1662 -0.1416  0.2001
    1DIPC   C1A25601  28.514  18.587   3.717 -0.2105 -0.0624  0.0772
    1DIPC   D2A25602  28.574  18.712   4.101 -0.3183 -0.1052 -0.1221
    1DIPC   D3A25603  28.931  18.885   4.301 -0.2020  0.1831 -0.0887
    1DIPC   C4A25604  28.737  19.060   4.674 -0.1423  0.1289 -0.0576
    1DIPC   C1B25605  28.973  18.865   3.812  0.2272 -0.0424  0.0309
    1DIPC   D2B25606  29.363  19.018   4.091 -0.3137  0.4479  0.0209
    1DIPC   D3B25607  29.670  18.803   4.384  0.4213  0.4896  0.0236
    1DIPC   C4B25608  29.805  18.408   4.432 -0.0219 -0.2076  0.3930
    1DIPC   NC325609  26.754   4.626   2.859  0.0214 -0.1653 -0.3631
    1DIPC   PO425610  26.671   4.735   3.314  0.1909  0.0195  0.1332
    1DIPC   GL125611  26.630   4.738   3.789 -0.5207 -0.0294 -0.0131
    1DIPC   GL225612  26.560   5.071   3.878  0.0659  0.0170  0.0740
    1DIPC   C1A25613  26.445   4.545   4.124 -0.0801  0.3373  0.0759
    1DIPC   D2A25614  26.508   4.430   4.574  0.2812  0.0219 -0.1733
    1DIPC   D3A25615  26.193   4.729   4.658 -0.0054  0.1527 -0.1979
    1DIPC   C4A25616  25.743   4.869   4.556 -0.1410 -0.0722  0.0201
    1DIPC   C1B25617  26.612   5.403   4.181  0.4042 -0.0131  0.0847
    1DIPC   D2B25618  26.521   5.793   4.454  0.2313 -0.2642  0.0017
    1DIPC   D3B25619  26.467   6.051   4.813 -0.0280 -0.2188  0.0426
    1DIPC   C4B25620  26.139   5.949   5.128  0.0079 -0.2115  0.2571
    1DIPC   NC325621  26.050  25.661   3.212 -0.1333  0.2344 -0.1394
    1DIPC   PO425622  25.739  25.958   3.422 -0.2401  0.0416  0.2929
    1DIPC   GL125623  25.909  25.638   3.703  0.0748  0.0883  0.0686
    1DIPC   GL225624  25.655  25.677   3.873  0.1757  0.2629  0.1226
    1DIPC   C1A25625  26.196  25.518   3.969 -0.0970  0.1239 -0.0623
    1DIPC   D2A25626  26.459  25.239   4.094  0.2561 -0.2306  0.0482
    1DIPC   D3A25627  26.339  25.067   4.457 -0.0223  0.3409 -0.3880
    1DIPC   C4A25628  25.865  25.124   4.541 -0.2127 -0.0819 -0.3067
    1DIPC   C1B25629  25.696  25.622   4.331 -0.3234  0.0241  0.0553
    1DIPC   D2B25630  25.459  25.376   4.618  0.0113 -0.2167 -0.0172
    1DIPC   D3B25631  25.377  24.927   4.461  0.0293  0.1309  0.1880
    1DIPC   C4B25632  25.627  24.711   4.388 -0.0741 -0.1233 -0.2102
    1DIPC   NC325633  11.734   6.405   3.225  0.2071  0.0325  0.2925
    1DIPC   PO425634  12.248   6.215   3.278  0.1948  0.1080  0.6524
    1DIPC   GL125635  12.433   6.023   3.690  0.0833  0.1152  0.1397
    1DIPC   GL225636  12.609   5.650   3.722  0.2625 -0.1535  0.2846
    1DIPC   C1A25637  12.663   6.000   4.218  0.1351  0.0020  0.0669
    1DIPC   D2A25638  12.624   6.165   4.568  0.0197 -0.2337  0.0731
    1DIPC   D3A25639  12.564   6.578   4.415  0.0799 -0.1356  0.2562
    1DIPC   C4A25640  12.364   6.794   4.689  0.1715 -0.0113 -0.0269
    1DIPC   C1B25641  13.021   5.801   3.903  0.0434 -0.3494 -0.2960
    1DIPC   D2B25642  13.339   5.991   4.008  0.4502 -0.1920  0.1591
    1DIPC   D3B25643  13.233   5.894   4.375  0.2859  0.0329  0.2800
    1DIPC   C4B25644  13.501   5.663   4.593  0.1278  0.1644 -0.3573
    1DIPC   NC325645  15.876   6.270   2.593 -0.1982 -0.1314 -0.1281
    1DIPC   PO425646  16.052   5.923   2.740 -0.0144  0.0409 -0.0274
    1DIPC   GL125647  16.146   5.955   3.198  0.0017 -0.0880 -0.2201
    1DIPC   GL225648  16.387   6.128   3.272  0.0815 -0.0466 -0.0115
    1DIPC   C1A25649  16.283   5.587   3.524 -0.3591  0.0505 -0.0223
    1DIPC   D2A25650  16.400   5.467   3.922 -0.1101  0.2711 -0.0383
    1DIPC   D3A25651  16.572   5.774   3.861  0.2706  0.1601  0.0710
    1DIPC   C4A25652  16.311   6.054   3.883  0.0200  0.0141  0.0843
    1DIPC   C1B25653  16.735   6.231   3.562  0.2012  0.2028 -0.2937
    1DIPC   D2B25654  16.855   6.467   3.804 -0.0924 -0.2865 -0.0844
    1DIPC   D3B25655  16.710   6.231   4.166 -0.0659 -0.1510  0.0898
    1DIPC   C4B25656  16.894   5.791   4.317 -0.1411 -0.2499  0.0278
    1DIPC   NC325657   3.383   6.999   2.955  0.0455  0.0858 -0.0858
    1DIPC   PO425658   3.498   6.678   3.186 -0.1714 -0.0173 -0.2356
    1DIPC   GL125659   3.541   6.614   3.563 -0.2505 -0.1522 -0.2306
    1DIPC   GL225660   3.244   6.400   3.675  0.0180 -0.1328 -0.1489
    1DIPC   C1A25661   3.818   6.603   3.848  0.0140 -0.1588  0.0368
    1DIPC   D2A25662   3.515   6.630   4.170 -0.0147  0.0158 -0.1885
    1DIPC   D3A25663   3.764   6.567   4.649 -0.4065 -0.0384  0.2118
    1DIPC   C4A25664   3.636   6.362   5.001  0.0144 -0.1885 -0.0114
    1DIPC   C1B25665   2.910   6.199   3.773  0.0189 -0.0895  0.1210
    1DIPC   D2B25666   2.848   5.880   4.043  0.0131 -0.0925 -0.1289
    1DIPC   D3B25667   3.001   6.141   4.272  0.0045  0.1413 -0.3051
    1DIPC   C4B25668   3.016   5.900   4.673 -0.1120 -0.1136  0.1862
    1DIPC   NC325669  26.946  12.202   1.965  0.0204 -0.1365 -0.3233
    1DIPC   PO425670  26.710  11.895   2.267 -0.2445  0.0859  0.1919
    1DIPC   GL125671  26.853  12.004   2.682 -0.2257 -0.2060  0.0931
    1DIPC   GL225672  26.955  12.240   2.666  0.0584  0.0870  0.0784
    1DIPC   C1A25673  26.939  12.271   3.133  0.4988 -0.0740 -0.5499
    1DIPC   D2A25674  26.639  12.225   3.553 -0.3148 -0.2261 -0.3317
    1DIPC   D3A25675  26.351  12.510   3.614 -0.0840 -0.1603 -0.2283
    1DIPC   C4A25676  25.938  12.533   3.770  0.0705 -0.2527 -0.1483
    1DIPC   C1B25677  26.513  12.341   2.863 -0.0861 -0.2407  0.1798
    1DIPC   D2B25678  26.077  12.371   2.770  0.3412  0.1486 -0.0420
    1DIPC   D3B25679  25.903  11.965   2.867 -0.3913 -0.5014 -0.0582
    1DIPC   C4B25680  25.970  11.549   2.855 -0.2627  0.1577  0.1499
    1DIPC   NC325681   3.367  15.389   2.386  0.0908 -0.2921 -0.0064
    1DIPC   PO425682   3.709  15.041   2.327  0.1080  0.0340 -0.1360
    1DIPC   GL125683   3.693  15.199   2.746 -0.1918  0.0304  0.1643
    1DIPC   GL225684   3.683  15.444   2.831  0.1500  0.0638 -0.1050
    1DIPC   C1A25685   3.510  15.124   3.138 -0.0294  0.1455  0.3832
    1DIPC   D2A25686   3.409  15.333   3.434  0.2205 -0.0264  0.1267
    1DIPC   D3A25687   3.545  15.072   3.717  0.0686  0.2447  0.2100
    1DIPC   C4A25688   3.532  14.932   4.148  0.0678 -0.1048  0.0522
    1DIPC   C1B25689   3.800  15.524   3.200 -0.3370  0.1652  0.0692
    1DIPC   D2B25690   3.494  15.907   3.313  0.0671 -0.1108 -0.1600
    1DIPC   D3B25691   3.474  15.786   3.722  0.1103  0.2404 -0.2333
    1DIPC   C4B25692   3.240  16.212   3.953 -0.0039  0.1050  0.0195
    1DIPC   NC325693  23.483   1.207   2.799 -0.0317 -0.0252  0.0184
    1DIPC   PO425694  23.490   1.375   3.227 -0.0613 -0.1181  0.0209
    1DIPC   GL125695  23.600   1.110   3.553  0.1134 -0.0566 -0.2579
    1DIPC   GL225696  23.249   1.041   3.535 -0.0035 -0.0949  0.3855
    1DIPC   C1A25697  23.953   1.186   3.815  0.3480  0.0052 -0.0266
    1DIPC   D2A25698  24.274   1.021   4.035  0.3261 -0.0422 -0.2523
    1DIPC   D3A25699  24.581   0.762   4.235 -0.0744 -0.1683 -0.2673
    1DIPC   C4A25700  24.675   0.776   4.687 -0.1638 -0.1973  0.2237
    1DIPC   C1B25701  22.930   1.220   3.899  0.3621  0.0142  0.0816
    1DIPC   D2B25702  23.024   1.307   4.366  0.0473  0.2584 -0.0606
    1DIPC   D3B25703  22.602   1.180   4.752 -0.2656  0.1910 -0.0789
    1DIPC   C4B25704  22.281   1.466   4.798 -0.0643  0.1563  0.1624
    1DIPC   NC325705   9.410   3.366   3.609  0.0147 -0.1312  0.1836
    1DIPC   PO425706   9.614   3.822   3.655 -0.1930  0.1543 -0.0013
    1DIPC   GL125707   9.555   3.610   4.096 -0.0699  0.2970 -0.3775
    1DIPC   GL225708   9.505   3.310   4.216 -0.4101 -0.1454 -0.2533
    1DIPC   C1A25709   9.629   3.695   4.489  0.1516  0.0491 -0.5587
    1DIPC   D2A25710   9.531   3.879   4.891  0.2426 -0.0702  0.0551
    1DIPC   D3A25711   9.411   4.216   4.734 -0.1325  0.0987 -0.0407
    1DIPC   C4A25712   9.027   4.368   4.914  0.0251 -0.0771 -0.0651
    1DIPC   C1B25713   9.259   2.976   4.288 -0.1278  0.0355 -0.2056
    1DIPC   D2B25714   8.905   2.647   4.581 -0.0264 -0.0272  0.1280
    1DIPC   D3B25715   8.425   2.769   4.719 -0.1252  0.1419  0.4568
    1DIPC   C4B25716   8.312   2.792   5.183 -0.0926 -0.0210 -0.3222
    1DIPC   NC325717  10.024   4.075   3.694  0.1203  0.2289 -0.2235
    1DIPC   PO425718   9.710   4.350   3.717 -0.0233 -0.1665  0.1220
    1DIPC   GL125719   9.655   4.442   4.161 -0.3961 -0.0654  0.1444
    1DIPC   GL225720   9.699   4.078   4.194  0.0200 -0.0042  0.5486
    1DIPC   C1A25721   9.773   4.537   4.644  0.0931 -0.1306  0.3358
    1DIPC   D2A25722   9.494   4.668   5.036 -0.3742  0.3466  0.0324
    1DIPC   D3A25723   9.881   4.773   5.144 -0.1129 -0.4753 -0.0190
    1DIPC   C4A25724   9.841   5.204   5.189  0.1638  0.0385 -0.1723
    1DIPC   C1B25725   9.922   4.035   4.590  0.1925  0.2986 -0.1130
    1DIPC   D2B25726   9.885   4.161   4.918 -0.1041 -0.0489 -0.5019
    1DIPC   D3B25727  10.231   4.377   5.036  0.1396  0.1570  0.1280
    1DIPC   C4B25728  10.247   4.527   5.511 -0.1944  0.0838  0.1146
    1DIPC   NC325729  28.074  25.856   2.734  0.1849 -0.0384 -0.5315
    1DIPC   PO425730  27.640  25.803   3.081 -0.0637  0.0481  0.0553
    1DIPC   GL125731  27.695  25.785   3.508 -0.2456 -0.0902 -0.1284
    1DIPC   GL225732  27.696  26.013   3.803  0.2673  0.1302  0.2362
    1DIPC   C1A25733  27.942  25.487   3.845  0.0473 -0.1942  0.2458
    1DIPC   D2A25734  28.147  25.340   4.245 -0.2308 -0.2318 -0.1088
    1DIPC   D3A25735  28.370  25.304   4.616  0.2672  0.2492 -0.2242
    1DIPC   C4A25736  28.677  25.670   4.643  0.1489  0.1563 -0.2064
    1DIPC   C1B25737  27.916  25.871   4.168 -0.1896  0.4266 -0.2063
    1DIPC   D2B25738  28.134  25.749   4.596 -0.0436 -0.1630  0.0081
    1DIPC   D3B25739  28.283  26.069   4.783 -0.0137 -0.0700  0.0655
    1DIPC   C4B25740  28.723  26.233   4.887  0.0215 -0.3164 -0.2436
    1DIPC   NC325741  28.009  19.671   3.110  0.0026  0.2198 -0.2012
    1DIPC   PO425742  27.691  19.318   3.129 -0.1584  0.2905  0.1482
    1DIPC   GL125743  27.871  19.382   3.535  0.2540  0.0014 -0.3402
    1DIPC   GL225744  27.834  19.010   3.502  0.3109  0.0751  0.2636
    1DIPC   C1A25745  27.999  19.392   3.928 -0.2239 -0.4223 -0.1086
    1DIPC   D2A25746  27.843  19.596   4.361 -0.0414 -0.1382  0.4071
    1DIPC   D3A25747  27.981  19.936   4.718  0.0597 -0.0663 -0.2377
    1DIPC   C4A25748  27.792  20.034   5.170  0.4067  0.0786  0.1480
    1DIPC   C1B25749  28.250  19.072   3.581  0.1179 -0.2543  0.1853
    1DIPC   D2B25750  28.459  19.446   3.506  0.1305 -0.2665 -0.2047
    1DIPC   D3B25751  28.485  19.720   3.795 -0.0768  0.1021 -0.0646
    1DIPC   C4B25752  28.742  19.834   4.172  0.2123 -0.1847 -0.2096
    1DIPC   NC325753  17.023   4.061   2.002  0.2281 -0.4204  0.0527
    1DIPC   PO425754  17.343   4.076   2.382 -0.1295 -0.0582 -0.2367
    1DIPC   GL125755  17.387   3.983   2.882 -0.0288  0.0376  0.0519
    1DIPC   GL225756  17.160   4.112   3.111  0.0841  0.2046  0.0762
    1DIPC   C1A25757  17.653   3.666   3.082 -0.2319 -0.1584 -0.0034
    1DIPC   D2A25758  18.045   3.524   3.153  0.0843  0.3680  0.2307
    1DIPC   D3A25759  17.760   3.193   3.024 -0.1125  0.1425 -0.0471
    1DIPC   C4A25760  17.559   2.896   3.338 -0.2735  0.1141  0.1881
    1DIPC   C1B25761  17.236   3.764   3.407  0.1487  0.1405 -0.3135
    1DIPC   D2B25762  17.292   3.285   3.200 -0.3260 -0.1667 -0.1002
    1DIPC   D3B25763  17.184   3.159   3.590 -0.0105 -0.1865  0.0121
    1DIPC   C4B25764  17.248   3.352   4.029  0.1723  0.2522 -0.2956
    1DIPC   NC325765   6.924  10.633   2.800  0.1596  0.2384 -0.0058
    1DIPC   PO425766   6.979  10.203   3.076 -0.1825  0.0391  0.0745
    1DIPC   GL125767   6.914  10.252   3.541  0.0460 -0.1186 -0.3244
    1DIPC   GL225768   7.059  10.465   3.691 -0.0761 -0.1916 -0.2052
    1DIPC   C1A25769   7.144   9.997   3.826 -0.0605  0.0894  0.1275
    1DIPC   D2A25770   7.309   9.756   4.153 -0.1943 -0.0787  0.1569
    1DIPC   D3A25771   7.276   9.795   4.661  0.1316  0.1520 -0.0211
    1DIPC   C4A25772   7.482   9.517   4.903  0.1459 -0.1593 -0.1069
    1DIPC   C1B25773   7.193  10.503   4.106  0.3662 -0.1589 -0.2028
    1DIPC   D2B25774   7.507  10.631   4.500  0.2159 -0.1189 -0.2988
    1DIPC   D3B25775   7.320  10.995   4.325  0.0006 -0.1894 -0.1593
    1DIPC   C4B25776   7.202  11.370   3.963 -0.1651  0.0424  0.0549
    1DIPC   NC325777  19.706  23.918   3.420  0.3275 -0.1801  0.2986
    1DIPC   PO425778  19.814  24.247   3.358 -0.1203 -0.1046 -0.0708
    1DIPC   GL125779  20.064  24.593   3.642 -0.1082  0.0131 -0.1396
    1DIPC   GL225780  19.808  24.571   3.782 -0.1493 -0.3701  0.2053
    1DIPC   C1A25781  20.211  24.774   4.099 -0.1531 -0.0896  0.3509
    1DIPC   D2A25782  20.095  24.625   4.520  0.2054  0.0365  0.1001
    1DIPC   D3A25783  20.480  24.590   4.680 -0.0049  0.3355  0.1985
    1DIPC   C4A25784  20.554  24.198   4.959 -0.2683  0.0321 -0.0649
    1DIPC   C1B25785  19.710  24.653   4.204 -0.0797  0.1518  0.0866
    1DIPC   D2B25786  19.606  24.812   4.671  0.0984  0.2953 -0.0980
    1DIPC   D3B25787  19.823  24.506   4.903 -0.0733  0.3589 -0.3091
    1DIPC   C4B25788  20.177  24.521   5.057  0.1313 -0.0103 -0.1412
    1DIPC   NC325789   7.406  16.673   1.862 -0.0554  0.0298 -0.2746
    1DIPC   PO425790   7.097  16.759   2.155  0.0278 -0.1792 -0.0710
    1DIPC   GL125791   7.243  16.762   2.605  0.1525  0.1673 -0.1951
    1DIPC   GL225792   7.269  16.439   2.738  0.0067  0.1052 -0.1136
    1DIPC   C1A25793   7.242  16.983   2.974  0.0333 -0.1297 -0.1922
    1DIPC   D2A25794   7.540  17.109   3.259  0.0303 -0.0349 -0.0032
    1DIPC   D3A25795   7.454  17.108   3.685 -0.0200  0.1290 -0.1549
    1DIPC   C4A25796   7.626  16.813   3.921 -0.4072 -0.2146  0.1065
    1DIPC   C1B25797   7.017  16.542   3.030  0.1168  0.0361 -0.3557
    1DIPC   D2B25798   6.936  16.376   3.328 -0.5101 -0.1047  0.1737
    1DIPC   D3B25799   7.439  16.490   3.405 -0.4083 -0.0341  0.1779
    1DIPC   C4B25800   7.520  16.343   3.909 -0.2238 -0.2414 -0.3386
    1DIPC   NC325801   7.718   0.526   2.806 -0.2296  0.3827 -0.0911
    1DIPC   PO425802   7.741   0.115   3.026 -0.2430 -0.2501 -0.1663
    1DIPC   GL125803   7.592   0.276   3.464 -0.3061  0.1291 -0.3981
    1DIPC   GL225804   7.729   0.012   3.652  0.0945  0.0367 -0.0346
    1DIPC   C1A25805   7.328   0.587   3.579  0.1200 -0.0798  0.4740
    1DIPC   D2A25806   7.149   0.688   3.851 -0.2424  0.2336  0.0264
    1DIPC   D3A25807   6.811   0.477   3.808 -0.0929  0.1678 -0.2116
    1DIPC   C4A25808   6.417   0.459   4.069  0.0323 -0.1020 -0.1294
    1DIPC   C1B25809   7.811  -0.326   4.036  0.2705 -0.0915 -0.1210
    1DIPC   D2B25810   7.756  -0.744   4.043 -0.0567  0.0359 -0.0917
    1DIPC   D3B25811   7.552  -0.543   4.446  0.2086  0.2736  0.1464
    1DIPC   C4B25812   7.707  -0.221   4.613  0.0437  0.2561 -0.1368
    1DIPC   NC325813   7.283  26.149   2.368  0.1912 -0.0996 -0.0687
    1DIPC   PO425814   7.546  25.739   2.302 -0.2403 -0.1067  0.1612
    1DIPC   GL125815   7.622  25.757   2.673 -0.2584  0.5769  0.2401
    1DIPC   GL225816   7.403  25.861   2.876 -0.0829  0.0272 -0.1293
    1DIPC   C1A25817   7.738  25.573   3.100 -0.2678 -0.1754  0.0360
    1DIPC   D2A25818   7.967  25.245   3.175  0.1595  0.1007  0.4479
    1DIPC   D3A25819   7.759  25.248   3.557  0.0641 -0.5003 -0.1329
    1DIPC   C4A25820   7.385  25.145   3.790  0.2632 -0.0192  0.0123
    1DIPC   C1B25821   7.257  25.569   3.213  0.3392  0.4712  0.1918
    1DIPC   D2B25822   7.202  25.576   3.644 -0.2487 -0.1490  0.1528
    1DIPC   D3B25823   7.012  25.856   3.783  0.1959  0.1167  0.1187
    1DIPC   C4B25824   6.644  25.727   3.925 -0.0802 -0.2188 -0.1060
    1DIPC   NC325825   0.623  23.967   2.538  0.0160  0.2144 -0.1884
    1DIPC   PO425826   0.167  23.965   2.658 -0.1408  0.0394  0.0518
    1DIPC   GL125827   0.132  24.113   3.100  0.0514  0.1430  0.2090
    1DIPC   GL225828  -0.024  24.454   3.224 -0.3130  0.3126 -0.1075
    1DIPC   C1A25829  -0.116  23.996   3.467 -0.2539 -0.1761 -0.1301
    1DIPC   D2A25830  -0.142  23.706   3.775  0.0712  0.0638 -0.0409
    1DIPC   D3A25831  -0.313  23.906   4.061 -0.1427  0.0419  0.0105
    1DIPC   C4A25832  -0.698  23.865   4.062  0.0103 -0.2332  0.1041
    1DIPC   C1B25833   0.088  24.743   3.477  0.0421  0.2643 -0.0616
    1DIPC   D2B25834   0.197  25.092   3.820  0.2228  0.2230  0.4040
    1DIPC   D3B25835   0.080  24.856   4.153 -0.0529 -0.0354  0.0348
    1DIPC   C4B25836   0.213  24.596   4.458 -0.0359  0.0554  0.0292
    1DIPC   NC325837  26.292  10.391   2.212 -0.0104  0.0759 -0.1226
    1DIPC   PO425838  26.119  10.646   2.392  0.0315 -0.1242 -0.0996
    1DIPC   GL125839  26.041  10.544   2.788 -0.2317  0.0352 -0.0240
    1DIPC   GL225840  26.166  10.270   2.965 -0.0447 -0.0024 -0.1034
    1DIPC   C1A25841  25.782  10.588   3.139  0.1620 -0.0991  0.2066
    1DIPC   D2A25842  25.601  10.600   3.370 -0.0187  0.1986 -0.1062
    1DIPC   D3A25843  25.521  10.175   3.557  0.3428  0.1473  0.1016
    1DIPC   C4A25844  25.300  10.021   3.799 -0.3026 -0.0443  0.2000
    1DIPC   C1B25845  26.009  10.234   3.419 -0.0194 -0.3778  0.3774
    1DIPC   D2B25846  25.800  10.425   3.848 -0.1882 -0.3000  0.0881
    1DIPC   D3B25847  26.273  10.318   3.835 -0.3353 -0.0278  0.0123
    1DIPC   C4B25848  26.383  10.003   4.183  0.0194  0.0580 -0.2304
    1DIPC   NC325849  29.324   8.529   2.285  0.1322  0.3813  0.1560
    1DIPC   PO425850  29.394   8.091   2.539 -0.1775  0.1359  0.0496
    1DIPC   GL125851  29.411   8.165   2.948 -0.2216  0.1000 -0.0132
    1DIPC   GL225852  29.223   7.982   3.144  0.1096  0.2798 -0.1275
    1DIPC   C1A25853  29.679   7.946   3.406  0.4086 -0.0143  0.0455
    1DIPC   D2A25854  29.604   7.831   3.825  0.2612 -0.1052  0.1490
    1DIPC   D3A25855  29.582   8.239   4.113  0.2253  0.4760 -0.1717
    1DIPC   C4A25856  29.834   8.683   4.183 -0.2816 -0.2506 -0.0823
    1DIPC   C1B25857  29.270   8.320   3.449  0.3061  0.0674  0.0637
    1DIPC   D2B25858  29.468   8.564   3.727 -0.0920  0.0027  0.1779
    1DIPC   D3B25859  29.287   8.855   4.093  0.0114  0.2260 -0.1338
    1DIPC   C4B25860  29.289   9.148   4.468  0.3043 -0.0009  0.1540
    1DIPC   NC325861  28.499   3.591   2.707  0.6090 -0.0383  0.1625
    1DIPC   PO425862  28.532   3.196   2.974 -0.0341 -0.2176 -0.0064
    1DIPC   GL125863  28.427   2.902   3.403 -0.2673 -0.3679 -0.2810
    1DIPC   GL225864  28.201   2.697   3.602  0.3006  0.0403 -0.1901
    1DIPC   C1A25865  28.664   2.685   3.737 -0.2450 -0.0015  0.1760
    1DIPC   D2A25866  28.625   2.387   4.000  0.1253  0.0989  0.0956
    1DIPC   D3A25867  28.956   2.579   4.205  0.0764 -0.2720  0.1074
    1DIPC   C4A25868  28.764   2.619   4.620  0.2611  0.1647 -0.2133
    1DIPC   C1B25869  28.003   2.710   4.016  0.1262  0.0017  0.2268
    1DIPC   D2B25870  28.008   3.035   4.341  0.3134  0.0650  0.0696
    1DIPC   D3B25871  27.988   2.840   4.658  0.0361  0.0945 -0.0105
    1DIPC   C4B25872  28.258   2.481   4.831  0.1321  0.2388 -0.1316
    1DIPC   NC325873  29.730  28.999   3.198 -0.0585  0.1152 -0.1188
    1DIPC   PO425874  30.092  29.216   3.019  0.0123  0.0701  0.2706
    1DIPC   GL125875  30.407  29.123   3.354 -0.0583 -0.1471 -0.2260
    1DIPC   GL225876  30.519  28.860   3.450 -0.1473  0.1740 -0.0562
    1DIPC   C1A25877  30.362  29.304   3.840  0.0142 -0.0468 -0.0471
    1DIPC   D2A25878  30.309  29.320   4.287 -0.0271 -0.0533 -0.0984
    1DIPC   D3A25879  30.572  29.201   4.644 -0.1835 -0.3712  0.0590
    1DIPC   C4A25880  30.734  28.862   4.995 -0.1442  0.1483  0.0982
    1DIPC   C1B25881  30.640  28.777   3.827 -0.1172 -0.1264 -0.2332
    1DIPC   D2B25882  30.776  29.085   4.146  0.3249  0.0567  0.2174
    1DIPC   D3B25883  30.792  28.711   4.336  0.1548 -0.1383 -0.0573
    1DIPC   C4B25884  30.470  28.422   4.153  0.0025  0.3021 -0.0685
    1DIPC   NC325885   8.347   7.538   3.664 -0.1733 -0.0431  0.1429
    1DIPC   PO425886   8.673   7.800   3.447  0.0337  0.0214 -0.1412
    1DIPC   GL125887   8.739   7.811   3.882 -0.1623  0.2123 -0.0517
    1DIPC   GL225888   8.598   7.525   4.140  0.0802 -0.2110  0.0736
    1DIPC   C1A25889   8.820   8.038   4.274 -0.0988 -0.1032  0.0373
    1DIPC   D2A25890   8.897   8.163   4.670  0.4482  0.0985  0.0039
    1DIPC   D3A25891   8.760   8.518   4.922  0.1492  0.1545  0.0592
    1DIPC   C4A25892   8.366   8.541   5.117 -0.1201  0.0562 -0.0366
    1DIPC   C1B25893   8.673   7.148   4.219 -0.0350 -0.1841 -0.0876
    1DIPC   D2B25894   8.957   7.124   4.512  0.0177  0.3595  0.3301
    1DIPC   D3B25895   8.718   7.300   4.854  0.0899 -0.0238  0.1706
    1DIPC   C4B25896   8.895   7.293   5.323  0.0457  0.1724 -0.1258
    1DIPC   NC325897  23.605   8.209   2.731 -0.1450 -0.1801 -0.0178
    1DIPC   PO425898  23.383   8.033   3.158 -0.0130  0.0855  0.0728
    1DIPC   GL125899  23.178   8.068   3.600 -0.1825  0.1806  0.1058
    1DIPC   GL225900  23.109   7.838   3.877 -0.0959 -0.1914  0.0188
    1DIPC   C1A25901  23.208   8.411   3.930 -0.0531  0.2878  0.2697
    1DIPC   D2A25902  23.312   8.852   4.134 -0.0569 -0.0073 -0.3839
    1DIPC   D3A25903  23.329   8.863   4.547 -0.0814  0.1486 -0.0076
    1DIPC   C4A25904  23.291   8.393   4.806 -0.1602  0.2380  0.0991
    1DIPC   C1B25905  22.727   8.140   3.941  0.1775 -0.2517 -0.0186
    1DIPC   D2B25906  22.485   8.472   4.209  0.0982  0.2165 -0.3713
    1DIPC   D3B25907  22.108   8.463   4.144 -0.0083  0.2663 -0.1217
    1DIPC   C4B25908  21.817   8.615   4.471 -0.2160 -0.0616 -0.0653
    1DIPC   NC325909   7.607   9.662   3.189  0.3604 -0.0995  0.1582
    1DIPC   PO425910   7.917  10.042   3.366 -0.0683 -0.2338  0.1911
    1DIPC   GL125911   7.740   9.756   3.703 -0.0602 -0.0966  0.0036
    1DIPC   GL225912   7.814   9.470   3.578  0.3058 -0.0980  0.3078
    1DIPC   C1A25913   7.813   9.687   4.123  0.2396 -0.0224 -0.1486
    1DIPC   D2A25914   7.749   9.297   4.377  0.2382  0.0331 -0.1290
    1DIPC   D3A25915   7.911   9.598   4.609 -0.0540 -0.0984  0.1581
    1DIPC   C4A25916   7.955   9.321   4.957  0.0511 -0.2474 -0.0448
    1DIPC   C1B25917   7.907   9.155   3.934  0.1699  0.0352  0.2429
    1DIPC   D2B25918   8.284   8.998   3.992 -0.0122  0.2194 -0.2837
    1DIPC   D3B25919   8.056   8.841   4.303 -0.0746  0.1632  0.0108
    1DIPC   C4B25920   8.282   8.946   4.715  0.2020 -0.1343  0.0004
    1DIPC   NC325921   3.994  10.011   3.153 -0.0672  0.1235  0.1755
    1DIPC   PO425922   3.651  10.012   3.071  0.1881  0.2905 -0.0323
    1DIPC   GL125923   3.331  10.117   3.540 -0.1285 -0.0957  0.2430
    1DIPC   GL225924   3.181  10.499   3.519 -0.1294  0.0344  0.2713
    1DIPC   C1A25925   3.179  10.211   3.912  0.2766  0.1782  0.2293
    1DIPC   D2A25926   3.099  10.366   4.359  0.0927  0.1343 -0.0323
    1DIPC   D3A25927   3.370  10.603   4.766 -0.0036  0.2237  0.0602
    1DIPC   C4A25928   3.774  10.731   4.744  0.3283  0.0607 -0.1070
    1DIPC   C1B25929   2.957  10.925   3.597  0.0236 -0.0140 -0.2559
    1DIPC   D2B25930   2.882  11.159   3.942  0.0354 -0.0367  0.3773
    1DIPC   D3B25931   3.104  11.377   4.327  0.0831  0.1617  0.2069
    1DIPC   C4B25932   3.427  11.595   4.421  0.2892  0.1451 -0.0010
    1DIPC   NC325933  29.910  13.185   2.132  0.0387  0.0639 -0.0256
    1DIPC   PO425934  29.774  13.580   2.157 -0.1352 -0.3080 -0.3629
    1DIPC   GL125935  29.811  13.591   2.583 -0.0203  0.2745 -0.0282
    1DIPC   GL225936  30.008  13.647   2.794  0.1149  0.3359 -0.1048
    1DIPC   C1A25937  29.353  13.720   2.699  0.0252 -0.0743  0.0902
    1DIPC   D2A25938  29.093  13.738   2.975 -0.1402 -0.1499 -0.0119
    1DIPC   D3A25939  29.627  13.701   3.136 -0.2117 -0.2120  0.0649
    1DIPC   C4A25940  29.735  13.662   3.550  0.1068  0.2243 -0.0159
    1DIPC   C1B25941  30.113  13.520   3.193  0.2242  0.0709  0.1234
    1DIPC   D2B25942  30.237  13.174   3.544 -0.0842  0.1945  0.0819
    1DIPC   D3B25943  30.653  13.257   3.553  0.2325  0.1086  0.2010
    1DIPC   C4B25944  30.775  13.354   4.026  0.1718  0.3016 -0.0093
    1DIPC   NC325945   5.097  27.308   2.618  0.0051 -0.2228 -0.2225
    1DIPC   PO425946   5.186  27.679   2.931 -0.1354 -0.2191 -0.0504
    1DIPC   GL125947   5.291  27.604   3.318 -0.0924  0.4243 -0.0736
    1DIPC   GL225948   5.401  27.919   3.497  0.1645  0.0267 -0.0827
    1DIPC   C1A25949   5.184  27.337   3.652  0.0167  0.1865  0.0426
    1DIPC   D2A25950   5.024  27.234   4.056 -0.0257 -0.0569  0.1821
    1DIPC   D3A25951   4.822  26.963   3.745  0.1336 -0.0730 -0.6582
    1DIPC   C4A25952   4.598  27.247   3.494  0.2019  0.0011  0.0537
    1DIPC   C1B25953   5.128  27.807   3.776  0.0419 -0.3696 -0.1113
    1DIPC   D2B25954   4.732  27.562   3.801  0.1190 -0.1847 -0.0680
    1DIPC   D3B25955   4.771  27.790   3.434  0.0061  0.0670 -0.0961
    1DIPC   C4B25956   4.426  27.687   3.167  0.0078  0.1117 -0.1037
    1DIPC   NC325957  28.740   2.620   2.153  0.0349  0.0957 -0.0140
    1DIPC   PO425958  28.876   2.506   2.597  0.0428  0.0526 -0.1352
    1DIPC   GL125959  28.702   2.332   2.977 -0.2428 -0.1192 -0.0961
    1DIPC   GL225960  28.761   2.544   3.171 -0.1502  0.2674  0.3119
    1DIPC   C1A25961  28.920   1.961   3.239 -0.3042 -0.1062 -0.2275
    1DIPC   D2A25962  28.907   1.972   3.643  0.1043 -0.1126  0.2667
    1DIPC   D3A25963  28.810   1.941   4.063 -0.0275  0.0553 -0.0859
    1DIPC   C4A25964  28.467   1.828   4.239  0.0043 -0.0956 -0.0768
    1DIPC   C1B25965  28.589   2.247   3.487  0.1787 -0.0898  0.0459
    1DIPC   D2B25966  28.163   2.171   3.737 -0.1143  0.0301  0.1950
    1DIPC   D3B25967  28.453   1.764   3.738  0.1256 -0.0342  0.1188
    1DIPC   C4B25968  28.801   1.525   3.850  0.1975 -0.0124 -0.0773
    1DIPC   NC325969  12.343  29.613   2.817 -0.0635  0.0677 -0.0821
    1DIPC   PO425970  12.186  29.534   3.224 -0.1503  0.0005  0.4428
    1DIPC   GL125971  12.037  29.295   3.561 -0.0690  0.3304  0.0849
    1DIPC   GL225972  11.839  29.103   3.650  0.1629 -0.1889  0.0977
    1DIPC   C1A25973  11.943  29.452   3.960  0.0326 -0.0446 -0.0007
    1DIPC   D2A25974  11.868  29.847   4.277 -0.0238 -0.2274  0.3382
    1DIPC   D3A25975  11.516  29.687   4.215  0.1554 -0.1050 -0.0371
    1DIPC   C4A25976  11.255  29.901   4.670  0.0571 -0.3169  0.0716
    1DIPC   C1B25977  11.980  28.929   4.062 -0.0387 -0.1793 -0.2936
    1DIPC   D2B25978  12.069  28.848   4.455 -0.1553  0.2205 -0.2950
    1DIPC   D3B25979  12.100  29.010   4.906 -0.3780  0.3382 -0.0946
    1DIPC   C4B25980  12.055  28.709   5.251  0.0122 -0.5986 -0.0610
    1DIPC   NC325981   2.467  12.181   2.674  0.1142  0.1543  0.1425
    1DIPC   PO425982   2.663  12.524   2.751 -0.2011  0.3659  0.1351
    1DIPC   GL125983   2.618  12.823   3.101  0.2349 -0.1956 -0.0176
    1DIPC   GL225984   2.774  12.750   3.421 -0.1759  0.2928  0.1603
    1DIPC   C1A25985   2.281  13.141   3.233  0.1999  0.3065  0.1026
    1DIPC   D2A25986   1.994  13.119   3.562  0.0319  0.2550 -0.4499
    1DIPC   D3A25987   1.712  12.863   3.724  0.0867  0.0218  0.2662
    1DIPC   C4A25988   1.610  12.411   3.825  0.2316  0.1152 -0.1345
    1DIPC   C1B25989   2.922  12.691   3.881  0.2645  0.0685  0.0922
    1DIPC   D2B25990   2.795  12.361   4.041  0.0544 -0.1544  0.1283
    1DIPC   D3B25991   2.896  12.310   4.429 -0.2687  0.2440 -0.2722
    1DIPC   C4B25992   2.698  12.046   4.782 -0.1275 -0.0532 -0.2247
    1DIPC   NC325993  21.826  19.732   2.697  0.0265 -0.1103  0.0663
    1DIPC   PO425994  22.228  19.857   2.831  0.2961 -0.0372  0.2413
    1DIPC   GL125995  22.127  20.047   3.260 -0.3200 -0.1678  0.0732
    1DIPC   GL225996  21.951  20.284   3.405  0.1797  0.0240  0.0023
    1DIPC   C1A25997  21.986  19.846   3.617 -0.0855 -0.0825 -0.0673
    1DIPC   D2A25998  21.991  19.636   3.904 -0.0361 -0.0477  0.1388
    1DIPC   D3A25999  21.856  19.925   4.328 -0.1069 -0.0194  0.2866
    1DIPC   C4A26000  21.923  19.858   4.783  0.2327 -0.1599  0.1174
    1DIPC   C1B26001  21.959  20.628   3.734  0.0517  0.1482 -0.1205
    1DIPC   D2B26002  22.021  20.584   4.174  0.2989  0.2329  0.2683
    1DIPC   D3B26003  22.276  20.828   4.457 -0.0853 -0.1593  0.1381
    1DIPC   C4B26004  22.336  21.199   4.701 -0.0744 -0.1572 -0.1594
    1DIPC   NC326005   5.182  10.764   3.160 -0.3319  0.0393  0.0422
    1DIPC   PO426006   5.587  10.971   3.329  0.1581 -0.0123 -0.2496
    1DIPC   GL126007   5.326  10.992   3.675 -0.1962 -0.2217  0.1183
    1DIPC   GL226008   5.023  11.040   3.624  0.1761  0.0478 -0.0749
    1DIPC   C1A26009   5.333  11.069   4.138 -0.1670  0.1288  0.0639
    1DIPC   D2A26010   5.509  11.347   4.618  0.1845 -0.2294 -0.1885
    1DIPC   D3A26011   5.302  11.356   5.028  0.0899  0.1771 -0.3343
    1DIPC   C4A26012   4.950  11.050   5.095  0.0756 -0.0103  0.0452
    1DIPC   C1B26013   4.871  11.271   3.893  0.0113 -0.3910 -0.0321
    1DIPC   D2B26014   4.515  11.543   4.120  0.1403  0.1503  0.3059
    1DIPC   D3B26015   4.811  11.735   3.942  0.0549 -0.1121  0.1209
    1DIPC   C4B26016   5.055  11.985   4.228 -0.1013 -0.0826 -0.2271
    1DIPC   NC326017   3.892  20.178   1.856  0.0183  0.3290  0.0129
    1DIPC   PO426018   3.765  19.803   2.088 -0.1116  0.1287  0.1892
    1DIPC   GL126019   3.843  19.644   2.562 -0.2378 -0.0567  0.1324
    1DIPC   GL226020   3.955  19.338   2.638 -0.4393 -0.3457 -0.3093
    1DIPC   C1A26021   4.135  19.832   2.812  0.0388  0.0474  0.2389
    1DIPC   D2A26022   4.206  19.943   3.272 -0.1738 -0.0889  0.4189
    1DIPC   D3A26023   4.742  20.006   3.382  0.2734  0.0810  0.1019
    1DIPC   C4A26024   5.163  20.054   3.535 -0.0635 -0.3988 -0.0099
    1DIPC   C1B26025   3.956  19.393   3.068  0.1701  0.1522 -0.1362
    1DIPC   D2B26026   3.926  19.415   3.511  0.2890  0.1802  0.3923
    1DIPC   D3B26027   3.848  18.984   3.515  0.1157  0.1696 -0.2214
    1DIPC   C4B26028   3.571  18.675   3.354  0.2080 -0.1721 -0.1272
    1DIPC   NC326029   5.891  16.775   2.562  0.1159 -0.1848 -0.1135
    1DIPC   PO426030   5.573  17.056   2.487  0.2579 -0.1362 -0.1340
    1DIPC   GL126031   5.602  17.248   2.876  0.3197  0.1196  0.1189
    1DIPC   GL226032   5.866  17.129   2.945 -0.1345 -0.1973 -0.2912
    1DIPC   C1A26033   5.460  17.538   3.141  0.2515  0.2788 -0.0390
    1DIPC   D2A26034   5.195  17.772   3.368 -0.2683 -0.1478 -0.0658
    1DIPC   D3A26035   4.785  17.802   3.328 -0.1017  0.3285  0.1115
    1DIPC   C4A26036   4.637  18.250   3.169  0.1613  0.1736 -0.0217
    1DIPC   C1B26037   5.819  17.163   3.392 -0.0523  0.3145  0.1411
    1DIPC   D2B26038   5.899  17.131   3.816  0.1857 -0.1530  0.0522
    1DIPC   D3B26039   5.575  17.215   4.009 -0.0320  0.3677 -0.1410
    1DIPC   C4B26040   5.590  16.828   4.146  0.1596 -0.1697 -0.2634
    1DIPC   NC326041  10.882   7.887   2.776  0.0765  0.1320 -0.1421
    1DIPC   PO426042  10.770   7.534   3.136 -0.1674  0.0150  0.3094
    1DIPC   GL126043  10.895   7.418   3.653 -0.0236 -0.0777  0.3726
    1DIPC   GL226044  10.896   7.148   3.682 -0.1371 -0.0328  0.1195
    1DIPC   C1A26045  10.757   7.589   4.126 -0.0114 -0.1271  0.2493
    1DIPC   D2A26046  10.839   7.516   4.493 -0.0613  0.1406  0.1146
    1DIPC   D3A26047  11.262   7.527   4.673 -0.0002  0.1981 -0.2148
    1DIPC   C4A26048  11.594   7.204   4.655  0.1364 -0.1450  0.0456
    1DIPC   C1B26049  10.703   7.119   4.073  0.0229  0.2056  0.0478
    1DIPC   D2B26050  10.545   7.099   4.466  0.1052 -0.2251  0.4540
    1DIPC   D3B26051  10.462   7.443   4.848 -0.0609  0.1129 -0.2107
    1DIPC   C4B26052  10.897   7.635   4.994 -0.4115  0.0022 -0.0559
    1DIPC   NC326053  12.666  28.743   3.180  0.0122  0.0474  0.2154
    1DIPC   PO426054  12.200  28.696   3.226 -0.3072  0.1272 -0.2318
    1DIPC   GL126055  12.267  28.737   3.653 -0.1045 -0.2514  0.1058
    1DIPC   GL226056  12.629  28.599   3.697 -0.0301 -0.0480  0.0363
    1DIPC   C1A26057  12.412  28.638   4.125 -0.0737 -0.1609 -0.0848
    1DIPC   D2A26058  12.669  28.285   4.254  0.3776 -0.1723  0.2381
    1DIPC   D3A26059  12.618  27.928   4.478 -0.2281  0.0301 -0.0445
    1DIPC   C4A26060  12.565  27.834   4.957  0.0615 -0.0900  0.1018
    1DIPC   C1B26061  12.758  28.958   3.975  0.0003 -0.2442  0.0845
    1DIPC   D2B26062  12.611  29.036   4.362 -0.2376 -0.1852 -0.1293
    1DIPC   D3B26063  12.617  29.072   4.888  0.0005  0.1043  0.1408
    1DIPC   C4B26064  12.510  28.864   5.180  0.0937 -0.1318  0.1881
    1DIPC   NC326065  29.615  12.838   1.708  0.3652 -0.0958  0.2982
    1DIPC   PO426066  29.624  12.745   2.140 -0.0257  0.1885  0.0828
    1DIPC   GL126067  29.732  12.649   2.573  0.0777  0.1651 -0.0402
    1DIPC   GL226068  29.751  12.321   2.765 -0.1876  0.0418 -0.0175
    1DIPC   C1A26069  30.093  12.666   2.825 -0.0599 -0.1850 -0.1527
    1DIPC   D2A26070  30.239  12.864   3.183  0.1591  0.2059  0.0753
    1DIPC   D3A26071  30.283  12.526   3.544  0.3667  0.0773 -0.2015
    1DIPC   C4A26072  30.643  12.384   3.671 -0.0475  0.0337  0.0292
    1DIPC   C1B26073  29.790  12.315   3.238 -0.1051  0.2240  0.2466
    1DIPC   D2B26074  29.858  12.300   3.602  0.5035 -0.1392  0.0521
    1DIPC   D3B26075  29.947  12.621   4.017 -0.1118 -0.1991 -0.4645
    1DIPC   C4B26076  30.022  13.031   3.997 -0.2509  0.0100  0.0863
    1DIPC   NC326077  21.792   6.508   2.987  0.1393 -0.0615  0.1697
    1DIPC   PO426078  21.530   6.699   3.312 -0.0787  0.0817  0.2894
    1DIPC   GL126079  21.535   6.895   3.694  0.2191 -0.0210  0.1094
    1DIPC   GL226080  21.777   7.085   3.639  0.2264 -0.1112 -0.0267
    1DIPC   C1A26081  21.452   6.861   4.115 -0.2472 -0.2730 -0.3023
    1DIPC   D2A26082  21.221   6.811   4.609 -0.1659  0.0411  0.0395
    1DIPC   D3A26083  21.623   6.878   4.633  0.0926 -0.1201  0.0557
    1DIPC   C4A26084  21.840   7.179   4.797  0.2222 -0.3717  0.2166
    1DIPC   C1B26085  21.901   7.017   4.060  0.1191 -0.1219  0.0773
    1DIPC   D2B26086  22.091   6.950   4.455  0.0319 -0.0120 -0.0472
    1DIPC   D3B26087  22.439   7.186   4.223  0.1320  0.1398  0.1118
    1DIPC   C4B26088  22.196   7.338   3.784  0.2685 -0.0646  0.0469
    1DIPC   NC326089   5.385   2.808   3.579 -0.2986 -0.0638  0.3496
    1DIPC   PO426090   5.446   2.398   3.761 -0.0970  0.0481 -0.2862
    1DIPC   GL126091   5.094   2.246   3.944  0.3127 -0.0320  0.3103
    1DIPC   GL226092   5.068   2.485   4.133 -0.3348  0.0673 -0.2044
    1DIPC   C1A26093   4.883   2.079   4.229 -0.2238 -0.1055 -0.1539
    1DIPC   D2A26094   4.638   2.133   4.586  0.0563 -0.0668  0.3409
    1DIPC   D3A26095   4.585   2.563   4.843  0.1655 -0.0018  0.1570
    1DIPC   C4A26096   4.665   2.689   5.248 -0.1575 -0.3968 -0.1966
    1DIPC   C1B26097   5.315   2.854   4.219 -0.1484  0.0698 -0.2512
    1DIPC   D2B26098   5.368   3.133   4.565  0.2692  0.1547 -0.1236
    1DIPC   D3B26099   5.075   2.833   4.776 -0.4013  0.1364  0.1072
    1DIPC   C4B26100   5.071   2.433   4.647  0.0876 -0.1865 -0.1922
    1DIPC   NC326101  25.657  23.258   2.941  0.0602  0.1362 -0.1042
    1DIPC   PO426102  25.629  22.867   3.126 -0.0752  0.2374 -0.2000
    1DIPC   GL126103  25.456  22.869   3.455 -0.0311 -0.2040 -0.1524
    1DIPC   GL226104  25.044  22.910   3.648 -0.1612  0.1583 -0.3172
    1DIPC   C1A26105  25.463  22.689   3.952 -0.1368 -0.1799  0.0237
    1DIPC   D2A26106  25.248  22.643   4.369  0.1629 -0.0184 -0.1305
    1DIPC   D3A26107  25.696  22.645   4.348  0.1418  0.1361 -0.0413
    1DIPC   C4A26108  25.962  22.695   4.011  0.4014  0.0188 -0.3995
    1DIPC   C1B26109  25.053  23.126   4.044 -0.0025 -0.1989 -0.2244
    1DIPC   D2B26110  25.477  23.144   4.288  0.3412  0.1323  0.0706
    1DIPC   D3B26111  25.320  23.043   4.752  0.6165  0.1781 -0.0713
    1DIPC   C4B26112  25.305  23.325   5.112 -0.0027 -0.0891 -0.1116
    1DIPC   NC326113  26.506  25.205   2.737 -0.0745  0.0909  0.3299
    1DIPC   PO426114  26.718  24.873   2.971 -0.0233 -0.0123  0.0836
    1DIPC   GL126115  26.639  24.750   3.422 -0.1925 -0.1812  0.2037
    1DIPC   GL226116  26.390  24.448   3.456  0.3463  0.0596  0.2009
    1DIPC   C1A26117  27.010  24.628   3.660  0.1879  0.2295 -0.1816
    1DIPC   D2A26118  27.448  24.902   3.780 -0.0595 -0.0209 -0.1545
    1DIPC   D3A26119  27.222  24.743   4.103  0.4110  0.1288 -0.1164
    1DIPC   C4A26120  27.331  24.830   4.539  0.0923 -0.0632  0.0911
    1DIPC   C1B26121  26.444  24.304   3.916  0.1618  0.3206  0.0884
    1DIPC   D2B26122  26.561  24.197   4.307 -0.2154 -0.1517  0.5020
    1DIPC   D3B26123  26.231  24.077   4.588 -0.2116  0.3535  0.0345
    1DIPC   C4B26124  26.349  24.170   5.008 -0.2002  0.3795  0.0903
    1DIPC   NC326125   0.504   9.430   3.246 -0.0643 -0.0405  0.0250
    1DIPC   PO426126   0.971   9.380   3.259  0.1970 -0.2437  0.0003
    1DIPC   GL126127   0.896   9.664   3.724  0.0036  0.1805  0.2885
    1DIPC   GL226128   1.000   9.748   3.990 -0.0846  0.2602  0.1220
    1DIPC   C1A26129   0.656   9.399   4.014 -0.0208  0.4763  0.0237
    1DIPC   D2A26130   0.723   9.396   4.443 -0.2697  0.1324 -0.0693
    1DIPC   D3A26131   1.176   9.539   4.439  0.1230  0.0953  0.1329
    1DIPC   C4A26132   1.439   9.575   4.839  0.0956 -0.1440  0.1519
    1DIPC   C1B26133   0.822   9.940   4.410  0.3652  0.0504  0.1530
    1DIPC   D2B26134   0.932  10.132   4.790 -0.0836  0.1669  0.0116
    1DIPC   D3B26135   0.606  10.401   4.635 -0.2739  0.0720 -0.1255
    1DIPC   C4B26136   0.634  10.402   4.290  0.0502  0.0289  0.0922
    1DIPC   NC326137  28.133  27.603   2.613  0.1283  0.4963 -0.0276
    1DIPC   PO426138  28.016  27.152   2.523  0.0712 -0.0200  0.0393
    1DIPC   GL126139  28.013  27.173   2.982 -0.1506  0.1329  0.2294
    1DIPC   GL226140  27.644  27.228   3.079  0.2121  0.1691  0.1139
    1DIPC   C1A26141  27.993  27.086   3.438  0.2440 -0.1172 -0.1411
    1DIPC   D2A26142  28.078  27.164   3.913  0.2512  0.1315  0.0550
    1DIPC   D3A26143  28.522  27.252   4.184  0.1832 -0.2448 -0.1414
    1DIPC   C4A26144  28.325  27.634   4.492  0.2001 -0.3524  0.2611
    1DIPC   C1B26145  27.437  27.085   3.497  0.0444  0.1455 -0.0109
    1DIPC   D2B26146  27.544  27.102   3.961  0.1640 -0.0714  0.0402
    1DIPC   D3B26147  27.293  27.297   4.304  0.1403  0.0696  0.2093
    1DIPC   C4B26148  26.860  27.156   4.275 -0.0593 -0.2762 -0.1914
    1DIPC   NC326149  18.392  26.087   3.255 -0.0841 -0.1496  0.0819
    1DIPC   PO426150  18.823  26.102   3.329 -0.0269 -0.2917 -0.0339
    1DIPC   GL126151  18.615  25.825   3.818 -0.1671 -0.0837  0.1525
    1DIPC   GL226152  18.508  25.541   3.971 -0.0425 -0.4631 -0.1002
    1DIPC   C1A26153  18.868  25.793   4.145  0.0448 -0.0378 -0.0034
    1DIPC   D2A26154  18.809  25.642   4.630  0.1952 -0.1727 -0.3157
    1DIPC   D3A26155  19.091  25.353   4.326  0.0533 -0.1736  0.1498
    1DIPC   C4A26156  19.436  25.105   4.229 -0.2703 -0.2802  0.1703
    1DIPC   C1B26157  18.332  25.638   4.290 -0.0294 -0.2367  0.4218
    1DIPC   D2B26158  18.037  25.614   4.483  0.0736 -0.0555 -0.1109
    1DIPC   D3B26159  18.153  26.010   4.653 -0.2436 -0.1737 -0.1096
    1DIPC   C4B26160  18.365  25.737   4.859  0.1085 -0.2124  0.1329
    1DIPC   NC326161   0.300   2.739   3.121 -0.0760 -0.0485  0.2845
    1DIPC   PO426162   0.406   2.387   2.871 -0.0485 -0.0761 -0.1921
    1DIPC   GL126163   0.540   2.441   3.396 -0.0477  0.4006 -0.0401
    1DIPC   GL226164   0.260   2.580   3.559 -0.0288  0.1020 -0.1331
    1DIPC   C1A26165   0.539   2.174   3.756 -0.0655 -0.0811 -0.0346
    1DIPC   D2A26166   0.364   2.145   4.152 -0.2779 -0.0847  0.2332
    1DIPC   D3A26167   0.496   2.635   3.988  0.2528  0.3422 -0.3048
    1DIPC   C4A26168   0.856   2.706   3.693 -0.1376  0.0862  0.0937
    1DIPC   C1B26169   0.009   2.534   3.967  0.2506  0.4755 -0.2350
    1DIPC   D2B26170  -0.123   2.416   4.410 -0.2369  0.1324  0.0413
    1DIPC   D3B26171   0.072   2.061   4.596  0.1063  0.0820  0.0865
    1DIPC   C4B26172   0.485   1.979   4.638 -0.0746 -0.0170 -0.0522
    1DIPC   NC326173  21.470  21.220   3.370  0.2964  0.1586 -0.0162
    1DIPC   PO426174  21.174  21.465   3.315  0.1424 -0.4808 -0.1168
    1DIPC   GL126175  21.288  21.481   3.753 -0.0872 -0.0682 -0.1628
    1DIPC   GL226176  21.475  21.277   3.883 -0.0686 -0.0514 -0.3569
    1DIPC   C1A26177  21.344  21.522   4.275 -0.0778  0.0320 -0.1937
    1DIPC   D2A26178  21.589  21.305   4.602 -0.3637  0.1510  0.0931
    1DIPC   D3A26179  21.753  20.978   4.403 -0.0334 -0.0029  0.0212
    1DIPC   C4A26180  21.862  21.025   3.928 -0.0021 -0.2234 -0.1221
    1DIPC   C1B26181  21.157  21.068   4.051 -0.2069 -0.1973  0.3208
    1DIPC   D2B26182  21.091  21.105   4.548 -0.0715  0.2167 -0.0352
    1DIPC   D3B26183  20.913  21.505   4.613 -0.0223  0.0412  0.0625
    1DIPC   C4B26184  20.977  21.773   4.983  0.2631 -0.3466 -0.0495
    1DIPC   NC326185  21.357  23.233   3.073  0.1961  0.2382  0.0949
    1DIPC   PO426186  21.787  23.279   3.162  0.1426 -0.0694 -0.0359
    1DIPC   GL126187  21.658  23.616   3.529 -0.2295  0.0962 -0.1240
    1DIPC   GL226188  21.478  23.884   3.439 -0.0327 -0.2829  0.2283
    1DIPC   C1A26189  21.566  23.571   4.003 -0.3126  0.1690 -0.2195
    1DIPC   D2A26190  21.618  23.344   4.388 -0.1014  0.3333  0.1001
    1DIPC   D3A26191  21.988  23.565   4.573 -0.2064  0.1549  0.0796
    1DIPC   C4A26192  22.175  23.888   4.229  0.0346  0.2971 -0.1989
    1DIPC   C1B26193  21.637  24.078   3.833 -0.2049 -0.1497  0.1044
    1DIPC   D2B26194  21.482  24.012   4.324  0.4063 -0.0830 -0.1641
    1DIPC   D3B26195  21.090  24.295   4.412 -0.2031 -0.0714  0.2476
    1DIPC   C4B26196  20.908  24.450   4.811 -0.1271  0.3037 -0.2933
    1DIPC   NC326197  18.246  29.044   3.291 -0.0682  0.2502 -0.1330
    1DIPC   PO426198  17.911  28.698   3.446  0.5761 -0.3503  0.3307
    1DIPC   GL126199  18.290  28.709   3.777  0.3455  0.0586 -0.2769
    1DIPC   GL226200  18.162  28.972   4.000 -0.3872  0.0476 -0.0837
    1DIPC   C1A26201  18.511  28.632   4.150  0.0945 -0.0755  0.1343
    1DIPC   D2A26202  18.544  28.374   4.425 -0.1740 -0.2911  0.0648
    1DIPC   D3A26203  18.273  28.393   4.799  0.0115  0.4704  0.0239
    1DIPC   C4A26204  18.384  28.449   5.164 -0.0645 -0.2168  0.1892
    1DIPC   C1B26205  18.025  29.319   4.345  0.1038 -0.2380  0.1544
    1DIPC   D2B26206  18.079  29.532   4.768  0.1251  0.0608 -0.1220
    1DIPC   D3B26207  18.086  29.260   5.072 -0.0040 -0.2404 -0.1643
    1DIPC   C4B26208  18.341  29.218   5.470  0.1490 -0.0492  0.0964
    1DIPC   NC326209   2.239  17.637   2.195  0.1567 -0.0883 -0.2085
    1DIPC   PO426210   2.648  17.643   2.353 -0.3755 -0.1518 -0.0891
    1DIPC   GL126211   2.818  17.401   2.789 -0.2681  0.0625 -0.1652
    1DIPC   GL226212   2.715  17.518   3.140 -0.5450 -0.2895  0.1694
    1DIPC   C1A26213   3.165  17.344   3.146 -0.1518  0.0475 -0.0406
    1DIPC   D2A26214   3.620  17.371   3.211 -0.1032  0.2817 -0.3145
    1DIPC   D3A26215   3.871  17.213   2.784  0.0831 -0.3165  0.3945
    1DIPC   C4A26216   4.079  16.918   2.593 -0.0710  0.1328 -0.0756
    1DIPC   C1B26217   2.993  17.767   3.541 -0.0449 -0.0297  0.0823
    1DIPC   D2B26218   3.026  17.763   3.898  0.2338  0.1580 -0.0782
    1DIPC   D3B26219   2.581  17.594   3.932  0.0799  0.0447  0.2093
    1DIPC   C4B26220   2.428  17.729   4.292 -0.1550 -0.1188  0.1147
    1DIPC   NC326221  12.479  25.741   2.646 -0.0573  0.1528 -0.1632
    1DIPC   PO426222  12.620  25.986   3.011 -0.0800 -0.2632  0.1895
    1DIPC   GL126223  12.623  25.690   3.244  0.2879  0.1024  0.0558
    1DIPC   GL226224  12.305  25.606   3.179 -0.0216 -0.0268  0.0863
    1DIPC   C1A26225  12.685  25.542   3.690 -0.0999 -0.1002  0.0485
    1DIPC   D2A26226  12.766  25.514   4.088  0.1532  0.1196  0.1943
    1DIPC   D3A26227  12.773  25.873   4.400 -0.1915  0.2266 -0.0559
    1DIPC   C4A26228  12.404  26.050   4.640 -0.0030 -0.1736 -0.2269
    1DIPC   C1B26229  12.277  25.310   3.489 -0.0444  0.2267  0.0171
    1DIPC   D2B26230  12.137  24.876   3.837  0.0296  0.0422  0.2039
    1DIPC   D3B26231  11.836  24.453   3.901  0.0448 -0.0589 -0.1825
    1DIPC   C4B26232  11.763  24.266   4.398  0.1349  0.0934  0.1845
    1DIPC   NC326233  11.344   5.078   3.458  0.3110  0.1412  0.0188
    1DIPC   PO426234  11.534   4.593   3.528 -0.0135 -0.0355 -0.2704
    1DIPC   GL126235  11.523   4.174   3.759  0.0753 -0.2217 -0.0832
    1DIPC   GL226236  11.707   4.164   3.785  0.0189 -0.3066  0.0498
    1DIPC   C1A26237  11.469   4.058   4.190 -0.2620 -0.2528 -0.3032
    1DIPC   D2A26238  11.472   3.974   4.633 -0.1928  0.0027 -0.0151
    1DIPC   D3A26239  11.705   4.175   4.990  0.1688 -0.0883 -0.0113
    1DIPC   C4A26240  12.086   3.904   5.210  0.2486 -0.0330 -0.0668
    1DIPC   C1B26241  12.142   4.098   3.782 -0.0885 -0.1077  0.0323
    1DIPC   D2B26242  12.552   4.217   3.927 -0.1014 -0.2816  0.0424
    1DIPC   D3B26243  12.506   4.116   4.420 -0.5757 -0.2028  0.0145
    1DIPC   C4B26244  12.319   3.724   4.613  0.1340  0.0120  0.0574
    1DIPC   NC326245   7.482   7.288   3.347 -0.0457 -0.1701 -0.2612
    1DIPC   PO426246   7.922   7.199   3.500  0.1365  0.1269 -0.0978
    1DIPC   GL126247   7.642   7.298   3.811  0.2198  0.1011 -0.2715
    1DIPC   GL226248   7.455   7.565   4.003 -0.2177  0.0429  0.0401
    1DIPC   C1A26249   7.639   7.179   4.271  0.2348  0.0783 -0.2239
    1DIPC   D2A26250   7.734   7.081   4.661 -0.1945 -0.1633  0.2055
    1DIPC   D3A26251   7.511   6.955   4.854  0.0355  0.2358  0.1497
    1DIPC   C4A26252   7.529   6.962   5.220 -0.0990 -0.0934 -0.1180
    1DIPC   C1B26253   7.378   7.755   4.381  0.1676 -0.0866 -0.2458
    1DIPC   D2B26254   6.994   7.889   4.578 -0.0143  0.2293 -0.3592
    1DIPC   D3B26255   7.101   7.801   4.965 -0.2241 -0.0805 -0.0030
    1DIPC   C4B26256   7.376   7.538   5.292  0.0956 -0.2554 -0.1395
    1DIPC   NC326257   5.951   6.695   3.322  0.0452  0.1331 -0.0927
    1DIPC   PO426258   6.272   6.783   3.504 -0.0973 -0.0781  0.2701
    1DIPC   GL126259   5.987   6.822   3.792  0.2569 -0.2294 -0.0180
    1DIPC   GL226260   5.950   6.607   4.121  0.1309  0.1286 -0.1709
    1DIPC   C1A26261   5.772   7.112   4.130  0.0135 -0.2033  0.3317
    1DIPC   D2A26262   5.760   7.078   4.555  0.2298 -0.5291  0.1049
    1DIPC   D3A26263   5.396   6.814   4.758 -0.1819  0.0379  0.0862
    1DIPC   C4A26264   5.220   7.047   5.069  0.1839  0.2457  0.0376
    1DIPC   C1B26265   6.033   6.662   4.514  0.0028  0.2343 -0.1383
    1DIPC   D2B26266   5.851   6.583   4.856  0.0038 -0.0757  0.0077
    1DIPC   D3B26267   5.736   6.266   4.489 -0.2899 -0.0445  0.2267
    1DIPC   C4B26268   5.576   5.870   4.650 -0.1503 -0.0536 -0.1378
    1DIPC   NC326269  17.005  22.876   2.473 -0.1845 -0.1439  0.0383
    1DIPC   PO426270  17.237  23.018   2.839  0.0906  0.1220  0.0840
    1DIPC   GL126271  17.082  22.845   3.233  0.2064  0.2795  0.0260
    1DIPC   GL226272  16.827  23.035   3.181  0.0398  0.0358 -0.2591
    1DIPC   C1A26273  16.958  22.969   3.684 -0.2816  0.4053 -0.1936
    1DIPC   D2A26274  16.652  23.125   3.974 -0.2533  0.1710 -0.2549
    1DIPC   D3A26275  16.381  22.999   3.830 -0.1636  0.1665 -0.1836
    1DIPC   C4A26276  16.124  22.920   4.009  0.1514 -0.0619 -0.2319
    1DIPC   C1B26277  16.541  23.099   3.416 -0.0066  0.0219 -0.0424
    1DIPC   D2B26278  16.316  23.430   3.718 -0.1954  0.0297  0.0833
    1DIPC   D3B26279  16.212  23.775   3.821  0.0048  0.1770  0.0761
    1DIPC   C4B26280  15.788  23.944   3.828 -0.1670 -0.0446  0.2956
    1DIPC   NC326281  13.178  24.208   2.534 -0.0774 -0.0008 -0.3170
    1DIPC   PO426282  13.060  24.460   2.286  0.0883  0.1250 -0.1244
    1DIPC   GL126283  12.883  24.509   2.682 -0.0001 -0.1731 -0.0443
    1DIPC   GL226284  12.975  24.692   2.918  0.3422 -0.1061 -0.2425
    1DIPC   C1A26285  12.633  24.289   3.062  0.0235  0.2535 -0.0290
    1DIPC   D2A26286  12.303  23.895   3.171 -0.1514  0.0897 -0.0193
    1DIPC   D3A26287  12.655  24.012   3.504 -0.0415  0.1497 -0.0748
    1DIPC   C4A26288  12.790  24.511   3.468 -0.0386  0.2184 -0.4251
    1DIPC   C1B26289  13.235  24.674   3.284  0.3364  0.1685  0.0460
    1DIPC   D2B26290  13.551  24.816   3.684  0.1529 -0.0776 -0.0671
    1DIPC   D3B26291  13.807  24.529   3.837 -0.1820 -0.3023 -0.2844
    1DIPC   C4B26292  13.767  24.206   4.126  0.0388 -0.0141  0.2064
    1DIPC   NC326293  26.164  28.325   2.884 -0.0404 -0.0747 -0.2458
    1DIPC   PO426294  26.630  28.515   3.044  0.0080  0.0028 -0.3633
    1DIPC   GL126295  26.366  28.437   3.406  0.5558  0.2774  0.2105
    1DIPC   GL226296  26.406  28.662   3.686  0.1465 -0.1918 -0.0045
    1DIPC   C1A26297  25.956  28.134   3.589  0.1868  0.1923  0.0171
    1DIPC   D2A26298  25.621  28.034   3.960 -0.0565  0.0724 -0.0568
    1DIPC   D3A26299  25.455  27.905   4.354  0.0209 -0.2825  0.3141
    1DIPC   C4A26300  25.687  27.801   4.736 -0.3743  0.1895  0.1065
    1DIPC   C1B26301  26.585  28.391   4.027  0.2049 -0.1364 -0.2085
    1DIPC   D2B26302  26.724  28.428   4.468 -0.1584  0.1581  0.0228
    1DIPC   D3B26303  26.984  28.848   4.505 -0.0714 -0.1329 -0.0686
    1DIPC   C4B26304  26.993  29.179   4.279 -0.1373 -0.2932  0.0531
    1DIPC   NC326305  24.011  19.714   2.763  0.2377  0.0203  0.1386
    1DIPC   PO426306  23.644  19.601   2.869 -0.3118  0.1259 -0.0908
    1DIPC   GL126307  23.859  19.740   3.222  0.2986 -0.0002  0.1970
    1DIPC   GL226308  23.665  19.492   3.393  0.0528  0.0918  0.0849
    1DIPC   C1A26309  23.995  19.890   3.711  0.1520 -0.1297 -0.1210
    1DIPC   D2A26310  24.087  20.076   4.142 -0.0135  0.2390  0.1401
    1DIPC   D3A26311  24.390  19.793   4.330 -0.1051 -0.0248  0.0644
    1DIPC   C4A26312  24.651  19.549   4.453  0.2105  0.2000  0.0327
    1DIPC   C1B26313  23.695  19.532   3.780 -0.0635  0.0814  0.0022
    1DIPC   D2B26314  23.889  19.664   4.213 -0.0816  0.1096  0.3455
    1DIPC   D3B26315  23.696  19.947   4.459 -0.1329 -0.5343 -0.2314
    1DIPC   C4B26316  23.300  19.904   4.605 -0.0465 -0.2473  0.1096
    1DIPC   NC326317   8.458  23.708   2.322 -0.0626  0.1423 -0.3755
    1DIPC   PO426318   8.619  23.313   2.573  0.1791 -0.1367 -0.1738
    1DIPC   GL126319   8.995  23.345   2.911 -0.0167 -0.1276 -0.0711
    1DIPC   GL226320   9.239  23.411   2.716 -0.1539  0.0858 -0.0133
    1DIPC   C1A26321   8.952  23.187   3.283 -0.2627  0.0421 -0.6192
    1DIPC   D2A26322   9.117  23.210   3.724 -0.0541 -0.1191  0.3125
    1DIPC   D3A26323   9.592  23.083   3.732 -0.0656 -0.0071 -0.2097
    1DIPC   C4A26324   9.908  23.316   3.501  0.1378 -0.1398 -0.0541
    1DIPC   C1B26325   9.446  23.359   3.217  0.0179 -0.1216  0.0488
    1DIPC   D2B26326   9.622  23.732   3.458  0.3725  0.0067  0.1158
    1DIPC   D3B26327   9.726  23.570   3.954  0.1454 -0.1508 -0.1181
    1DIPC   C4B26328  10.024  23.312   3.977 -0.0383 -0.1052 -0.0368
    1DIPC   NC326329  21.072  29.545   2.476 -0.2358 -0.0052  0.0554
    1DIPC   PO426330  21.283  29.269   2.783 -0.3344 -0.0894  0.1428
    1DIPC   GL126331  21.230  29.316   3.195  0.1990  0.1205 -0.0727
    1DIPC   GL226332  20.894  29.277   3.397 -0.2206  0.0025  0.0571
    1DIPC   C1A26333  21.411  29.358   3.618 -0.0114  0.0022 -0.0795
    1DIPC   D2A26334  21.314  29.276   4.004  0.1018 -0.0297  0.1787
    1DIPC   D3A26335  21.290  29.239   4.495  0.0363 -0.3384  0.1034
    1DIPC   C4A26336  21.350  29.645   4.682  0.1655  0.4434 -0.0711
    1DIPC   C1B26337  20.817  29.103   3.790 -0.2793 -0.1396 -0.3121
    1DIPC   D2B26338  20.896  29.019   4.245  0.1319 -0.0652 -0.1984
    1DIPC   D3B26339  20.802  29.329   4.477 -0.3972 -0.3271 -0.0974
    1DIPC   C4B26340  20.642  29.274   4.869  0.2767 -0.0694 -0.1277
    1DIPC   NC326341  17.161   6.629   2.636  0.1192  0.0063  0.0535
    1DIPC   PO426342  17.530   6.666   2.656 -0.0783 -0.3491 -0.0632
    1DIPC   GL126343  17.516   6.823   3.002  0.1730  0.4197 -0.0984
    1DIPC   GL226344  17.730   7.042   2.960  0.1217  0.2198  0.1458
    1DIPC   C1A26345  17.555   7.138   3.396  0.0618 -0.2138 -0.1006
    1DIPC   D2A26346  17.613   7.128   3.817 -0.0179 -0.2316  0.0191
    1DIPC   D3A26347  17.295   7.153   4.180 -0.0271  0.0507 -0.1943
    1DIPC   C4A26348  17.361   7.484   4.551  0.5038  0.1026 -0.0706
    1DIPC   C1B26349  17.742   7.474   3.096  0.0715  0.2183  0.0478
    1DIPC   D2B26350  17.555   7.849   3.127 -0.0812 -0.1581 -0.0697
    1DIPC   D3B26351  17.516   8.148   2.784  0.1324 -0.0001 -0.2859
    1DIPC   C4B26352  17.503   8.564   2.837  0.1171 -0.0916  0.1284
    1DIPC   NC326353   1.469  15.221   2.291  0.0278  0.0284  0.0293
    1DIPC   PO426354   1.650  15.578   2.441 -0.0977  0.1769  0.0312
    1DIPC   GL126355   1.746  15.388   2.790 -0.0160  0.1817 -0.1513
    1DIPC   GL226356   1.647  15.466   3.093 -0.1825 -0.1738  0.2862
    1DIPC   C1A26357   2.034  15.023   2.918 -0.2262  0.0165  0.0526
    1DIPC   D2A26358   2.167  14.513   3.009  0.1124 -0.0457 -0.0269
    1DIPC   D3A26359   1.781  14.216   3.061 -0.0911  0.4209  0.0101
    1DIPC   C4A26360   1.399  14.312   3.081  0.2147  0.1834  0.2515
    1DIPC   C1B26361   1.551  15.300   3.524 -0.1049  0.1364 -0.1437
    1DIPC   D2B26362   1.561  15.118   3.991  0.0210  0.0340 -0.2160
    1DIPC   D3B26363   1.615  15.485   3.970  0.2999  0.2044  0.3124
    1DIPC   C4B26364   1.959  15.690   4.111 -0.2176 -0.2404  0.2319
    1DIPC   NC326365  26.749   7.077   2.892 -0.2371  0.0130 -0.2388
    1DIPC   PO426366  26.713   7.434   2.839  0.2473 -0.1420 -0.2560
    1DIPC   GL126367  26.938   7.481   3.231  0.0627  0.1198  0.0436
    1DIPC   GL226368  27.094   7.225   3.365  0.0649 -0.0652 -0.1973
    1DIPC   C1A26369  27.348   7.706   3.344 -0.0242  0.0272 -0.1085
    1DIPC   D2A26370  27.446   8.077   3.533  0.1267  0.0391  0.0054
    1DIPC   D3A26371  27.746   7.949   3.649  0.1160 -0.0564  0.1799
    1DIPC   C4A26372  27.998   8.058   3.962  0.2016  0.1539  0.0235
    1DIPC   C1B26373  26.750   7.071   3.548 -0.0186 -0.0243 -0.4872
    1DIPC   D2B26374  26.400   6.872   3.432 -0.2974 -0.2612  0.1468
    1DIPC   D3B26375  26.082   6.985   3.767 -0.0261 -0.1560 -0.0592
    1DIPC   C4B26376  26.021   6.637   4.090  0.3376  0.0046 -0.0082
    1DIPC   NC326377  16.585  28.382   3.554  0.0399  0.0685 -0.0423
    1DIPC   PO426378  17.039  28.524   3.482 -0.0531 -0.1144 -0.2836
    1DIPC   GL126379  16.995  28.465   3.896  0.3668  0.1269 -0.3662
    1DIPC   GL226380  17.368  28.439   4.072 -0.0298  0.0197 -0.0823
    1DIPC   C1A26381  16.678  28.720   4.135  0.0530  0.0720 -0.0109
    1DIPC   D2A26382  16.554  28.786   4.571 -0.2482 -0.0638  0.0201
    1DIPC   D3A26383  16.605  29.086   4.771  0.1044  0.0367  0.0665
    1DIPC   C4A26384  17.113  29.158   4.768  0.1307 -0.1423 -0.1503
    1DIPC   C1B26385  17.756  28.527   4.352 -0.1315 -0.3080  0.1596
    1DIPC   D2B26386  18.140  28.806   4.489 -0.1473 -0.2434 -0.2973
    1DIPC   D3B26387  17.914  28.741   4.871  0.2464 -0.2081  0.0538
    1DIPC   C4B26388  17.843  28.440   5.195 -0.4554 -0.0118  0.2934
    1DIPC   NC326389   5.718   1.505   3.518 -0.0311 -0.0646 -0.0380
    1DIPC   PO426390   6.001   1.207   3.696  0.0295  0.6603  0.2298
    1DIPC   GL126391   5.734   1.157   3.934 -0.3014 -0.1836 -0.0600
    1DIPC   GL226392   5.666   1.497   4.096  0.5152  0.1494  0.2481
    1DIPC   C1A26393   5.765   1.097   4.364 -0.0806  0.0819 -0.0861
    1DIPC   D2A26394   5.799   0.999   4.736  0.1427 -0.3565  0.1615
    1DIPC   D3A26395   6.026   0.674   4.902  0.0936 -0.0303  0.0976
    1DIPC   C4A26396   6.370   0.600   5.042  0.0685 -0.0270  0.0144
    1DIPC   C1B26397   5.556   1.586   4.506 -0.0932  0.4136 -0.0155
    1DIPC   D2B26398   5.440   1.475   4.947  0.2433 -0.2833  0.1403
    1DIPC   D3B26399   5.820   1.259   5.156  0.1429  0.0369  0.0149
    1DIPC   C4B26400   5.974   1.279   5.578 -0.0456  0.1292 -0.1218
    1DIPC   NC326401  29.871  19.275   1.929 -0.2405  0.1155  0.0823
    1DIPC   PO426402  29.790  19.640   2.245 -0.3250  0.0156 -0.0034
    1DIPC   GL126403  29.786  19.769   2.644  0.1604 -0.2386 -0.1530
    1DIPC   GL226404  29.858  20.034   2.705  0.0862  0.2355 -0.3106
    1DIPC   C1A26405  30.020  19.646   2.989  0.0990 -0.1369 -0.0160
    1DIPC   D2A26406  30.120  19.929   3.417  0.0982 -0.1315 -0.1899
    1DIPC   D3A26407  30.454  20.240   3.496 -0.0229 -0.0200 -0.4551
    1DIPC   C4A26408  30.450  20.356   3.898  0.1986  0.1427  0.0458
    1DIPC   C1B26409  30.218  20.093   2.967 -0.0609  0.0622 -0.3708
    1DIPC   D2B26410  30.665  20.216   2.960  0.0616 -0.2042 -0.2226
    1DIPC   D3B26411  31.002  19.927   2.912  0.1131 -0.0763 -0.2289
    1DIPC   C4B26412  31.210  20.288   2.931  0.0112 -0.1900  0.0632
    1DIPC   NC326413   7.021  29.027   3.086  0.0412  0.0073 -0.3080
    1DIPC   PO426414   7.384  29.236   3.265  0.1146 -0.2370  0.1814
    1DIPC   GL126415   7.514  29.026   3.645  0.0351  0.1934 -0.0248
    1DIPC   GL226416   7.688  28.762   3.659 -0.0837  0.0075 -0.0944
    1DIPC   C1A26417   7.315  28.943   4.048  0.3343  0.0111 -0.0226
    1DIPC   D2A26418   7.438  28.842   4.429 -0.0504  0.2503  0.1199
    1DIPC   D3A26419   7.148  29.050   4.655  0.1526 -0.1006  0.2707
    1DIPC   C4A26420   7.005  29.119   5.033 -0.2068 -0.1365  0.1024
    1DIPC   C1B26421   7.693  28.453   4.125  0.2434 -0.0336  0.0762
    1DIPC   D2B26422   7.658  28.450   4.583 -0.1661  0.1274 -0.1179
    1DIPC   D3B26423   7.245  28.383   4.395 -0.5202 -0.0028  0.0494
    1DIPC   C4B26424   6.971  28.165   4.629 -0.4677 -0.2638  0.2471
    1DIPC   NC326425  19.317   6.152   2.895  0.0473 -0.1173 -0.0611
    1DIPC   PO426426  18.935   6.350   2.907 -0.0354  0.2210  0.0917
    1DIPC   GL126427  18.780   6.369   3.247  0.0305 -0.2655  0.2315
    1DIPC   GL226428  18.653   6.703   3.326 -0.1186  0.0928  0.1534
    1DIPC   C1A26429  18.868   6.207   3.657  0.2028 -0.0624 -0.1607
    1DIPC   D2A26430  19.083   6.080   4.008  0.1531  0.0181  0.0476
    1DIPC   D3A26431  18.950   6.247   4.371  0.0766 -0.0743 -0.1197
    1DIPC   C4A26432  19.175   6.396   4.671 -0.0174 -0.0286 -0.0071
    1DIPC   C1B26433  18.431   6.939   3.701  0.0946  0.1104 -0.0148
    1DIPC   D2B26434  18.114   6.911   4.085  0.0769 -0.0484  0.1134
    1DIPC   D3B26435  18.104   7.369   4.047  0.1141  0.0409 -0.0612
    1DIPC   C4B26436  17.889   7.516   4.437  0.0336 -0.3021 -0.0575
    1DIPC   NC326437   4.675  12.830   2.105  0.2603  0.0438 -0.0929
    1DIPC   PO426438   4.721  12.712   2.630  0.0320 -0.0093  0.0824
    1DIPC   GL126439   4.804  12.443   3.005  0.0096 -0.2726  0.3075
    1DIPC   GL226440   4.515  12.275   2.876 -0.0925  0.1217 -0.2933
    1DIPC   C1A26441   4.844  12.392   3.423 -0.1914 -0.0087  0.0073
    1DIPC   D2A26442   4.974  12.182   3.767  0.1658  0.0674 -0.3448
    1DIPC   D3A26443   4.831  12.575   3.990 -0.1382  0.0831 -0.1267
    1DIPC   C4A26444   4.980  12.651   4.427  0.0989 -0.0904 -0.2934
    1DIPC   C1B26445   4.369  12.279   3.285  0.0423  0.1156  0.1574
    1DIPC   D2B26446   4.034  12.124   3.590 -0.0417 -0.0811 -0.0390
    1DIPC   D3B26447   4.142  12.522   3.646  0.2746 -0.0176 -0.2397
    1DIPC   C4B26448   4.437  12.818   3.787  0.0438 -0.0451 -0.0368
    1DIPC   NC326449  23.348  16.387   2.087  0.0792 -0.3121  0.1245
    1DIPC   PO426450  23.376  16.451   2.584 -0.2626 -0.0147 -0.0750
    1DIPC   GL126451  23.518  16.555   2.911  0.0263 -0.0198  0.0544
    1DIPC   GL226452  23.643  16.855   3.185 -0.2707 -0.1100  0.0147
    1DIPC   C1A26453  23.571  16.350   3.275 -0.0369  0.0678  0.1066
    1DIPC   D2A26454  23.785  16.430   3.497 -0.0225 -0.0820 -0.1762
    1DIPC   D3A26455  23.856  16.130   3.787  0.1224 -0.2350 -0.0388
    1DIPC   C4A26456  23.653  15.877   4.007 -0.2606  0.2272 -0.0628
    1DIPC   C1B26457  24.055  16.804   3.280  0.0904 -0.2793  0.0717
    1DIPC   D2B26458  24.282  16.446   3.403 -0.0248  0.1071 -0.2053
    1DIPC   D3B26459  24.117  16.344   3.096 -0.1090  0.0493 -0.0570
    1DIPC   C4B26460  24.180  16.627   2.799  0.1700 -0.4017  0.1135
    1DIPC   NC326461  14.516  25.927   2.689 -0.2520 -0.0312 -0.1361
    1DIPC   PO426462  14.794  25.837   3.127 -0.4501 -0.0947 -0.2169
    1DIPC   GL126463  14.735  25.746   3.511  0.0359  0.2390  0.1464
    1DIPC   GL226464  14.630  26.056   3.797  0.2698 -0.1183 -0.1351
    1DIPC   C1A26465  14.681  25.600   3.970 -0.2441  0.1034 -0.0809
    1DIPC   D2A26466  14.618  25.272   4.347 -0.0136 -0.0946  0.0453
    1DIPC   D3A26467  14.289  25.313   4.205  0.0227 -0.0919 -0.0376
    1DIPC   C4A26468  13.892  25.408   4.472  0.0113 -0.3484  0.2942
    1DIPC   C1B26469  14.243  26.246   3.888 -0.1549 -0.0490 -0.1157
    1DIPC   D2B26470  13.823  26.176   3.862 -0.0014 -0.2847 -0.0580
    1DIPC   D3B26471  13.741  25.785   4.181  0.4669  0.0166  0.1864
    1DIPC   C4B26472  13.445  25.492   4.278  0.0452  0.1649  0.2817
    1DIPC   NC326473   8.037   5.721   3.410  0.0161  0.2889  0.0616
    1DIPC   PO426474   7.720   5.469   3.348  0.0264  0.0240  0.2621
    1DIPC   GL126475   7.751   5.393   3.740 -0.3571  0.0780 -0.4122
    1DIPC   GL226476   7.595   5.066   3.991 -0.0477 -0.2409 -0.0646
    1DIPC   C1A26477   8.078   5.224   4.050 -0.0734  0.0378 -0.0222
    1DIPC   D2A26478   8.203   5.060   4.432 -0.1466 -0.1915  0.0061
    1DIPC   D3A26479   8.542   5.269   4.504  0.0310 -0.0189 -0.1901
    1DIPC   C4A26480   8.938   5.305   4.263 -0.1100  0.1530 -0.1955
    1DIPC   C1B26481   7.640   5.099   4.445 -0.0212 -0.0557  0.1618
    1DIPC   D2B26482   7.805   5.191   4.776 -0.3871  0.1091  0.3629
    1DIPC   D3B26483   8.087   4.839   4.862  0.2174 -0.1640 -0.2190
    1DIPC   C4B26484   7.990   4.418   5.248  0.0217 -0.1449  0.1254
    1DIPC   NC326485  22.378  28.891   2.650  0.1741  0.0730 -0.1449
    1DIPC   PO426486  22.340  28.456   2.895 -0.2582  0.2610 -0.0354
    1DIPC   GL126487  22.445  28.380   3.340  0.0764  0.2215  0.0892
    1DIPC   GL226488  22.774  28.358   3.411  0.1077  0.0582  0.3023
    1DIPC   C1A26489  22.396  28.299   3.836 -0.0621  0.2383  0.0494
    1DIPC   D2A26490  22.193  28.050   4.267 -0.0263 -0.3021 -0.0257
    1DIPC   D3A26491  22.310  28.232   4.712 -0.0903  0.0574  0.0385
    1DIPC   C4A26492  22.234  28.174   5.184 -0.0941 -0.0995 -0.0238
    1DIPC   C1B26493  23.163  28.531   3.693 -0.0403  0.1853 -0.0780
    1DIPC   D2B26494  23.253  28.824   4.080  0.2133  0.1637  0.0087
    1DIPC   D3B26495  23.187  28.420   4.196 -0.0114  0.0244 -0.1906
    1DIPC   C4B26496  23.175  28.106   3.971  0.2345  0.0646  0.0159
    1DIPC   NC326497  17.401   2.166   2.684  0.2550 -0.2953 -0.0677
    1DIPC   PO426498  17.588   2.052   3.123  0.0659  0.0661 -0.0185
    1DIPC   GL126499  17.631   2.171   3.591  0.1607  0.1170  0.2783
    1DIPC   GL226500  17.667   1.932   3.907  0.2150 -0.1588 -0.4009
    1DIPC   C1A26501  17.425   2.577   3.690  0.0256  0.1970  0.3759
    1DIPC   D2A26502  17.440   2.886   3.957 -0.0257 -0.0239 -0.1818
    1DIPC   D3A26503  17.434   2.697   4.466  0.4427 -0.1771 -0.0406
    1DIPC   C4A26504  17.211   2.831   4.714  0.0209  0.0321 -0.3120
    1DIPC   C1B26505  17.991   2.139   4.229 -0.1017 -0.0611 -0.1149
    1DIPC   D2B26506  17.748   2.324   4.585 -0.1483  0.0236 -0.0541
    1DIPC   D3B26507  18.000   2.559   4.545 -0.0242  0.0600 -0.1631
    1DIPC   C4B26508  18.326   2.520   4.198  0.5238 -0.1734  0.3727
    1DIPC   NC326509   3.536   5.677   2.883 -0.2921 -0.3324  0.1072
    1DIPC   PO426510   3.805   6.010   2.807  0.5021  0.2875  0.1392
    1DIPC   GL126511   3.823   5.974   3.240  0.1942 -0.4016 -0.0195
    1DIPC   GL226512   3.884   6.247   3.301  0.1662  0.0045 -0.1258
    1DIPC   C1A26513   3.605   6.072   3.657 -0.0820 -0.1512  0.1245
    1DIPC   D2A26514   3.511   6.094   4.002 -0.0263  0.0721 -0.0569
    1DIPC   D3A26515   3.517   6.085   4.453  0.0766 -0.0238  0.0507
    1DIPC   C4A26516   3.291   6.423   4.624 -0.2511  0.1192 -0.0183
    1DIPC   C1B26517   4.115   6.143   3.668 -0.2057 -0.3603 -0.0157
    1DIPC   D2B26518   4.303   6.349   3.928 -0.0674 -0.0759 -0.1816
    1DIPC   D3B26519   4.291   6.817   4.012  0.2408  0.0533 -0.1742
    1DIPC   C4B26520   4.015   6.854   4.320 -0.1803  0.2167 -0.0147
    1DIPC   NC326521   7.532   5.046   3.438  0.0311  0.0204 -0.1365
    1DIPC   PO426522   7.071   5.151   3.366 -0.0041 -0.0425  0.0228
    1DIPC   GL126523   7.084   5.152   3.851  0.1557  0.3085  0.0754
    1DIPC   GL226524   6.893   4.867   3.866 -0.0452 -0.0883  0.2391
    1DIPC   C1A26525   7.164   5.139   4.303 -0.0586 -0.0411 -0.2725
    1DIPC   D2A26526   7.355   5.404   4.753  0.0786  0.2663  0.0587
    1DIPC   D3A26527   7.581   5.608   5.076  0.1563  0.0052  0.1050
    1DIPC   C4A26528   7.451   5.733   5.451  0.3713 -0.0606 -0.1132
    1DIPC   C1B26529   6.846   4.789   4.277  0.0884  0.3054  0.0058
    1DIPC   D2B26530   6.623   5.013   4.633  0.1254 -0.0566 -0.0240
    1DIPC   D3B26531   6.574   4.840   5.005 -0.0781  0.1984 -0.0813
    1DIPC   C4B26532   6.442   5.190   5.381 -0.1306  0.1133 -0.0845
    1DIPC   NC326533  16.926   4.003   2.685 -0.4066  0.1382 -0.1310
    1DIPC   PO426534  16.686   4.376   2.793  0.2232  0.1358  0.4392
    1DIPC   GL126535  16.745   4.419   3.215 -0.0696  0.0710 -0.2799
    1DIPC   GL226536  17.049   4.600   3.244  0.0023  0.0056  0.2278
    1DIPC   C1A26537  16.987   4.144   3.570  0.1538 -0.1757 -0.1242
    1DIPC   D2A26538  17.077   3.843   3.882 -0.1267  0.1248  0.3063
    1DIPC   D3A26539  17.455   3.795   3.943  0.1524  0.4121  0.0095
    1DIPC   C4A26540  17.804   3.681   4.225 -0.0545  0.1064  0.0834
    1DIPC   C1B26541  16.931   4.657   3.660  0.2363 -0.0471 -0.2378
    1DIPC   D2B26542  16.988   4.387   4.028 -0.1536 -0.2320  0.1184
    1DIPC   D3B26543  17.361   4.247   4.121  0.0914  0.2095 -0.1147
    1DIPC   C4B26544  17.483   4.015   4.506  0.1311  0.0065 -0.1400
    1DIPC   NC326545  20.033  24.694   3.121  0.1844 -0.2371 -0.0117
    1DIPC   PO426546  19.677  24.955   3.311 -0.0104  0.5195 -0.0111
    1DIPC   GL126547  19.966  25.225   3.656 -0.0541  0.2023  0.1019
    1DIPC   GL226548  19.862  25.061   3.878  0.2949 -0.1677  0.0328
    1DIPC   C1A26549  20.180  25.445   4.055 -0.0918  0.1038  0.1921
    1DIPC   D2A26550  20.100  25.616   4.378 -0.0164 -0.1149  0.0580
    1DIPC   D3A26551  20.561  25.785   4.269  0.1693 -0.1519  0.1507
    1DIPC   C4A26552  20.775  25.885   4.602  0.0677 -0.5110 -0.0403
    1DIPC   C1B26553  19.898  25.131   4.370 -0.0275 -0.1137  0.1731
    1DIPC   D2B26554  20.051  25.240   4.764  0.1714 -0.1818 -0.1098
    1DIPC   D3B26555  19.640  25.181   4.988 -0.4154  0.0865  0.1377
    1DIPC   C4B26556  19.504  24.795   5.279 -0.2511 -0.0323 -0.1331
    1DIPC   NC326557   0.730   1.888   2.619  0.0056  0.1502 -0.1980
    1DIPC   PO426558   0.785   1.526   2.816  0.1055 -0.0858 -0.1889
    1DIPC   GL126559   1.155   1.734   2.963  0.1357  0.2697  0.2161
    1DIPC   GL226560   1.071   1.442   3.250  0.0317 -0.2865  0.1010
    1DIPC   C1A26561   1.134   1.905   3.349 -0.1766 -0.3539 -0.0550
    1DIPC   D2A26562   1.044   2.276   3.623  0.1553 -0.5392 -0.2330
    1DIPC   D3A26563   0.934   2.029   4.018 -0.0494  0.3092 -0.1708
    1DIPC   C4A26564   0.751   1.728   3.972 -0.2821  0.3260  0.0866
    1DIPC   C1B26565   1.197   1.668   3.740 -0.1962  0.0782  0.0888
    1DIPC   D2B26566   1.449   1.487   4.229  0.3991  0.3249 -0.0487
    1DIPC   D3B26567   1.150   1.712   4.343 -0.2697 -0.1923 -0.2069
    1DIPC   C4B26568   0.843   1.524   4.579 -0.1086 -0.1689 -0.0676
    1DIPC   NC326569  22.919  10.030   2.498 -0.1020  0.0075 -0.2789
    1DIPC   PO426570  22.534  10.263   2.507 -0.0920 -0.3086  0.1309
    1DIPC   GL126571  22.540  10.548   2.877 -0.3437 -0.1055  0.0105
    1DIPC   GL226572  22.728  10.806   2.856  0.0811  0.2777 -0.4354
    1DIPC   C1A26573  22.799  10.507   3.252 -0.2136 -0.0233 -0.2307
    1DIPC   D2A26574  22.992  10.548   3.583  0.1616 -0.3624  0.0146
    1DIPC   D3A26575  22.588  10.686   3.938  0.1481  0.3438 -0.0837
    1DIPC   C4A26576  22.326  10.979   3.992  0.0543  0.2861  0.2521
    1DIPC   C1B26577  22.998  10.978   3.184  0.1796  0.2588  0.0405
    1DIPC   D2B26578  23.362  11.023   3.177  0.5132 -0.1850 -0.1362
    1DIPC   D3B26579  23.575  10.787   3.469  0.0285 -0.1839  0.0981
    1DIPC   C4B26580  23.473  10.478   3.760  0.2476 -0.0189  0.0275
    1DIPC   NC326581   2.689   1.109   3.041 -0.0043  0.0519  0.1717
    1DIPC   PO426582   2.458   1.521   3.007  0.2174 -0.1829 -0.0702
    1DIPC   GL126583   2.441   1.452   3.462 -0.0959  0.0789 -0.1060
    1DIPC   GL226584   2.703   1.394   3.726 -0.1041 -0.1601  0.1953
    1DIPC   C1A26585   2.226   1.562   3.832 -0.2322  0.0361 -0.4570
    1DIPC   D2A26586   2.042   1.497   4.241 -0.0099 -0.0351 -0.0463
    1DIPC   D3A26587   2.074   1.979   4.258  0.3552 -0.1222  0.1379
    1DIPC   C4A26588   1.897   2.291   4.503  0.1304 -0.3622  0.1638
    1DIPC   C1B26589   2.622   1.498   4.138 -0.1407  0.0860  0.0297
    1DIPC   D2B26590   2.601   1.824   4.412 -0.0966 -0.0901 -0.0297
    1DIPC   D3B26591   2.412   1.615   4.808  0.0134 -0.0291 -0.0272
    1DIPC   C4B26592   2.068   1.350   4.811 -0.2095  0.1635 -0.3587
    1DIPC   NC326593  24.916  11.907   2.187 -0.1556  0.2146 -0.0991
    1DIPC   PO426594  24.690  11.673   2.460  0.0501  0.0576 -0.1567
    1DIPC   GL126595  24.689  11.577   2.862 -0.0184  0.1809 -0.1530
    1DIPC   GL226596  24.760  11.257   2.970 -0.2021 -0.4609 -0.2341
    1DIPC   C1A26597  24.416  11.440   3.276  0.2304 -0.1406  0.2245
    1DIPC   D2A26598  24.333  11.071   3.412 -0.2888 -0.0879 -0.2460
    1DIPC   D3A26599  24.473  11.356   3.772  0.1893 -0.0711  0.1062
    1DIPC   C4A26600  24.877  11.580   3.667 -0.2909 -0.3738  0.0192
    1DIPC   C1B26601  24.812  11.096   3.332 -0.1486  0.0740 -0.2932
    1DIPC   D2B26602  24.690  10.702   3.562  0.3634  0.2730  0.0372
    1DIPC   D3B26603  24.749  10.933   3.923 -0.1616 -0.0502 -0.0546
    1DIPC   C4B26604  25.058  10.878   4.197 -0.1651 -0.2115 -0.0285
    1DIPC   NC326605   5.699  28.887   3.182 -0.1135  0.3899 -0.0237
    1DIPC   PO426606   5.387  28.648   3.253  0.1978  0.1891  0.1429
    1DIPC   GL126607   5.424  28.686   3.684  0.2045  0.2401 -0.0361
    1DIPC   GL226608   5.092  28.760   3.828 -0.0456 -0.1632 -0.2076
    1DIPC   C1A26609   5.782  28.608   3.945  0.0938 -0.1741 -0.1029
    1DIPC   D2A26610   6.244  28.464   3.917  0.0612 -0.1069  0.0257
    1DIPC   D3A26611   6.100  28.251   4.250  0.0368 -0.1466 -0.1055
    1DIPC   C4A26612   6.090  28.227   4.640 -0.1495 -0.0866 -0.0653
    1DIPC   C1B26613   5.399  28.853   4.199 -0.2190 -0.0233  0.0520
    1DIPC   D2B26614   5.414  28.987   4.652 -0.1278  0.2066  0.3765
    1DIPC   D3B26615   5.053  28.654   4.756  0.0742 -0.0864  0.1325
    1DIPC   C4B26616   4.926  28.580   4.333  0.0829 -0.0931 -0.0191
    1DIPC   NC326617   2.252  10.517   2.778  0.2144 -0.1537  0.2073
    1DIPC   PO426618   2.631  10.383   2.985 -0.2310 -0.2345  0.0429
    1DIPC   GL126619   2.583  10.514   3.391  0.0304 -0.3005  0.2775
    1DIPC   GL226620   2.496  10.765   3.683 -0.0102  0.0348  0.1589
    1DIPC   C1A26621   2.748  10.349   3.646 -0.0512  0.0264  0.1057
    1DIPC   D2A26622   2.671  10.104   4.003  0.3172  0.1932 -0.4339
    1DIPC   D3A26623   2.624  10.211   4.438 -0.3143  0.0817  0.0755
    1DIPC   C4A26624   2.943  10.087   4.732  0.0330  0.0579  0.0857
    1DIPC   C1B26625   2.784  10.650   4.074 -0.1830  0.0311  0.1433
    1DIPC   D2B26626   3.097  10.852   4.346  0.1720  0.0864 -0.7492
    1DIPC   D3B26627   2.884  10.670   4.705  0.2482  0.2690  0.1315
    1DIPC   C4B26628   2.963  10.575   5.153 -0.3023 -0.1618  0.2313
    1DIPC   NC326629  28.389  13.078   1.713 -0.0567 -0.1758 -0.2065
    1DIPC   PO426630  28.318  13.214   2.162  0.1158 -0.0426 -0.3596
    1DIPC   GL126631  28.264  13.070   2.661 -0.0324 -0.1144  0.2763
    1DIPC   GL226632  28.222  12.763   2.800  0.2328 -0.1790 -0.1163
    1DIPC   C1A26633  28.404  13.193   3.069  0.5196  0.0391  0.4647
    1DIPC   D2A26634  28.801  13.381   3.093  0.1662 -0.3073 -0.0087
    1DIPC   D3A26635  28.704  13.484   3.511  0.3002 -0.0965 -0.0406
    1DIPC   C4A26636  28.826  13.154   3.938  0.1259 -0.0476 -0.0448
    1DIPC   C1B26637  28.639  12.757   3.020  0.0451 -0.1476 -0.1656
    1DIPC   D2B26638  28.721  12.948   3.379 -0.1371 -0.4565 -0.1215
    1DIPC   D3B26639  28.377  13.148   3.606  0.0065  0.1732 -0.3211
    1DIPC   C4B26640  28.327  13.135   4.115 -0.1249 -0.0757  0.1916
    1DIPC   NC326641  19.789   5.922   2.686 -0.1180 -0.0132 -0.2601
    1DIPC   PO426642  19.371   5.659   2.810  0.0775  0.1705 -0.1432
    1DIPC   GL126643  19.522   5.751   3.221  0.0018 -0.1835 -0.0568
    1DIPC   GL226644  19.699   5.964   3.242  0.0056 -0.1554 -0.4630
    1DIPC   C1A26645  19.662   5.518   3.590 -0.2012  0.1433 -0.2416
    1DIPC   D2A26646  19.604   5.308   3.972 -0.0230 -0.0529  0.0195
    1DIPC   D3A26647  19.689   5.443   4.445  0.0017 -0.1440  0.0315
    1DIPC   C4A26648  20.079   5.388   4.683 -0.0939 -0.2557 -0.1780
    1DIPC   C1B26649  19.367   5.864   3.630 -0.2059  0.0974  0.2219
    1DIPC   D2B26650  19.329   5.662   4.198  0.0741 -0.2094  0.0948
    1DIPC   D3B26651  19.537   6.040   4.439 -0.2144 -0.2651 -0.0305
    1DIPC   C4B26652  19.901   5.871   4.718  0.2633 -0.0483 -0.0386
    1DIPC   NC326653   0.919  17.119   2.171  0.1329 -0.1696 -0.1963
    1DIPC   PO426654   0.539  17.040   2.447  0.0735  0.0366  0.1137
    1DIPC   GL126655   0.364  17.142   2.782 -0.1885  0.0865  0.0702
    1DIPC   GL226656   0.701  17.251   2.928 -0.1225 -0.2395 -0.0135
    1DIPC   C1A26657   0.231  17.270   3.264 -0.3827  0.0428  0.1117
    1DIPC   D2A26658   0.184  17.422   3.589 -0.0582  0.2157  0.1132
    1DIPC   D3A26659  -0.215  17.631   3.591  0.0677 -0.0607  0.0250
    1DIPC   C4A26660  -0.235  18.032   3.584  0.0151 -0.2478 -0.3374
    1DIPC   C1B26661   0.737  17.344   3.335  0.1168  0.1391  0.0900
    1DIPC   D2B26662   0.648  17.519   3.693 -0.1023 -0.2822 -0.1005
    1DIPC   D3B26663   0.939  17.520   4.115  0.1043  0.1666  0.1195
    1DIPC   C4B26664   0.748  17.201   4.412  0.1716 -0.1179  0.0736
    1DIPC   NC326665  20.010  25.206   2.973  0.3282 -0.2606  0.0393
    1DIPC   PO426666  20.312  25.091   3.243 -0.0247  0.0046  0.2864
    1DIPC   GL126667  20.474  25.026   3.612  0.1036 -0.0566 -0.2489
    1DIPC   GL226668  20.852  25.000   3.664  0.1407  0.1119 -0.2433
    1DIPC   C1A26669  20.582  25.092   4.056  0.1132 -0.1416  0.2234
    1DIPC   D2A26670  20.364  25.080   4.406  0.0495 -0.0397  0.0647
    1DIPC   D3A26671  20.481  25.433   4.662  0.1551  0.1051  0.3118
    1DIPC   C4A26672  20.283  25.693   4.914  0.2803  0.1140  0.2807
    1DIPC   C1B26673  21.125  24.635   3.874 -0.3577 -0.0525  0.2663
    1DIPC   D2B26674  21.463  24.487   4.143  0.0682 -0.1812  0.4181
    1DIPC   D3B26675  21.607  24.599   4.457 -0.0186 -0.1732 -0.2263
    1DIPC   C4B26676  21.836  24.238   4.613 -0.0165 -0.0283  0.0908
    1DIPC   NC326677   8.665  22.717   2.384  0.1886 -0.1446 -0.0232
    1DIPC   PO426678   9.087  22.556   2.471 -0.2007  0.2207  0.1446
    1DIPC   GL126679   9.099  22.683   2.951  0.3798 -0.0409 -0.1219
    1DIPC   GL226680   9.399  22.951   2.947 -0.2993  0.3571  0.2058
    1DIPC   C1A26681   8.895  22.690   3.300  0.2381  0.1350  0.1518
    1DIPC   D2A26682   8.945  22.343   3.627  0.2816  0.2053 -0.2559
    1DIPC   D3A26683   8.677  22.093   4.061  0.1242 -0.1164  0.0144
    1DIPC   C4A26684   8.352  22.108   4.316  0.1463  0.1283 -0.1169
    1DIPC   C1B26685   9.435  22.868   3.316  0.0837  0.2128  0.1868
    1DIPC   D2B26686   9.216  22.739   3.683 -0.0302 -0.1927 -0.3550
    1DIPC   D3B26687   9.521  22.626   3.929  0.0776  0.0858  0.1065
    1DIPC   C4B26688   9.923  22.774   3.930  0.1504  0.0489  0.1831
    1DIPC   NC326689   5.031   1.628   2.942 -0.0272 -0.0967 -0.1328
    1DIPC   PO426690   5.226   1.645   3.397 -0.1120 -0.1070 -0.2141
    1DIPC   GL126691   5.103   1.769   3.815  0.1737  0.2030  0.0822
    1DIPC   GL226692   4.806   1.622   4.031 -0.1131 -0.3099 -0.1553
    1DIPC   C1A26693   5.337   1.855   4.154  0.0996  0.0129  0.2453
    1DIPC   D2A26694   5.460   2.083   4.479 -0.1184  0.4377 -0.1629
    1DIPC   D3A26695   5.129   1.917   4.761 -0.0216 -0.0478 -0.0749
    1DIPC   C4A26696   4.849   2.182   5.083 -0.1440  0.1205 -0.0250
    1DIPC   C1B26697   4.681   1.313   4.255 -0.2459  0.0193  0.0127
    1DIPC   D2B26698   4.813   0.864   4.379 -0.2237 -0.3033 -0.0333
    1DIPC   D3B26699   5.304   0.968   4.151  0.0651  0.3720  0.1376
    1DIPC   C4B26700   5.199   1.381   4.081 -0.3706 -0.5071 -0.0197
    1DIPC   NC326701   4.183   4.669   3.135 -0.1488 -0.1756 -0.2517
    1DIPC   PO426702   3.600   4.684   3.125  0.0578  0.3940 -0.0043
    1DIPC   GL126703   3.842   4.685   3.533  0.1548  0.1313  0.1379
    1DIPC   GL226704   4.100   4.975   3.516  0.0322  0.1971 -0.2053
    1DIPC   C1A26705   4.132   4.697   3.906  0.1693  0.2439  0.3175
    1DIPC   D2A26706   4.502   4.415   4.045  0.0393  0.2142  0.1350
    1DIPC   D3A26707   4.593   3.970   4.008  0.1662  0.0443  0.0393
    1DIPC   C4A26708   4.631   3.683   4.351 -0.0060 -0.0671 -0.1371
    1DIPC   C1B26709   4.154   5.420   3.493 -0.0780  0.3045 -0.0953
    1DIPC   D2B26710   3.948   5.670   3.748  0.2215 -0.2216  0.0345
    1DIPC   D3B26711   3.522   5.559   3.551  0.0802 -0.0059  0.1694
    1DIPC   C4B26712   3.173   5.825   3.683 -0.1554  0.1871  0.0855
    1DIPC   NC326713  26.224  17.545   2.331  0.0208 -0.0501  0.0451
    1DIPC   PO426714  26.645  17.520   2.481  0.2418 -0.0701 -0.2861
    1DIPC   GL126715  26.512  17.408   2.995 -0.2380 -0.0823  0.1371
    1DIPC   GL226716  26.679  17.282   3.227 -0.2226  0.0340 -0.1558
    1DIPC   C1A26717  26.138  17.400   3.254 -0.0077  0.1635  0.0565
    1DIPC   D2A26718  25.999  17.151   3.629  0.3687  0.2855  0.0217
    1DIPC   D3A26719  25.673  17.324   3.952 -0.1003  0.1440 -0.1077
    1DIPC   C4A26720  25.298  17.537   3.794 -0.0420  0.0002  0.1545
    1DIPC   C1B26721  26.526  17.171   3.580  0.0489 -0.2443 -0.3481
    1DIPC   D2B26722  26.531  17.091   3.967  0.2683  0.0810 -0.1609
    1DIPC   D3B26723  26.539  17.438   4.308  0.2430 -0.3778  0.1158
    1DIPC   C4B26724  26.548  17.278   4.697  0.0662  0.3088 -0.1008
    1DIPC   NC326725  19.376   0.815   2.738 -0.5668  0.1187  0.0453
    1DIPC   PO426726  19.133   0.855   3.188  0.0303  0.0342  0.0984
    1DIPC   GL126727  18.812   1.042   3.548 -0.0975  0.1510 -0.0473
    1DIPC   GL226728  18.922   1.320   3.613  0.0670  0.0574  0.0768
    1DIPC   C1A26729  18.507   1.258   3.955 -0.0711 -0.2098  0.1357
    1DIPC   D2A26730  18.125   1.093   4.228 -0.0220  0.2000 -0.1300
    1DIPC   D3A26731  17.937   0.740   4.517 -0.1825  0.0925  0.0273
    1DIPC   C4A26732  18.235   0.661   4.889 -0.1468  0.1767  0.1093
    1DIPC   C1B26733  18.976   1.146   4.092  0.1097 -0.0676 -0.2212
    1DIPC   D2B26734  18.686   1.231   4.480  0.1489 -0.2041 -0.4720
    1DIPC   D3B26735  18.991   1.521   4.849  0.0852  0.0104  0.1555
    1DIPC   C4B26736  19.555   1.472   4.797 -0.1249 -0.0783  0.1384
    1DIPC   NC326737   0.827  20.961   1.913  0.3079 -0.0789  0.0785
    1DIPC   PO426738   0.499  20.783   2.232  0.2654  0.1405  0.0916
    1DIPC   GL126739   0.453  21.019   2.646 -0.0264  0.0670  0.1716
    1DIPC   GL226740   0.688  21.314   2.607 -0.1194  0.3416 -0.1156
    1DIPC   C1A26741   0.746  20.976   3.000  0.5990 -0.3056  0.0689
    1DIPC   D2A26742   0.880  20.611   3.276  0.1733 -0.0409  0.1232
    1DIPC   D3A26743   1.193  20.776   3.001  0.0243  0.0055  0.1693
    1DIPC   C4A26744   1.478  20.977   3.335 -0.2596 -0.2458  0.0713
    1DIPC   C1B26745   0.294  21.483   2.877  0.3733  0.0512  0.2685
    1DIPC   D2B26746   0.087  21.544   3.207  0.1515  0.0147  0.0889
    1DIPC   D3B26747   0.407  21.824   3.322 -0.1653 -0.3309 -0.1875
    1DIPC   C4B26748   0.665  21.646   3.697 -0.1896 -0.0141  0.0923
    1DIPC   NC326749  24.306   9.509   2.998  0.3734  0.0690  0.0104
    1DIPC   PO426750  24.082   9.187   2.987 -0.0030 -0.0749  0.0416
    1DIPC   GL126751  24.127   9.272   3.383  0.0955 -0.2225 -0.2677
    1DIPC   GL226752  23.877   9.468   3.495 -0.1443 -0.0628 -0.0156
    1DIPC   C1A26753  24.136   9.220   3.846 -0.0512 -0.0897 -0.0332
    1DIPC   D2A26754  24.189   9.126   4.262  0.0528 -0.0547 -0.0925
    1DIPC   D3A26755  24.638   9.171   4.371  0.1467 -0.1326 -0.0471
    1DIPC   C4A26756  24.849   8.956   4.688 -0.0789  0.1349  0.1159
    1DIPC   C1B26757  24.216   9.688   3.692 -0.0416  0.3577 -0.0139
    1DIPC   D2B26758  24.309   9.580   4.141  0.3111  0.1856  0.0679
    1DIPC   D3B26759  24.186   9.888   4.438 -0.0849  0.1012 -0.0291
    1DIPC   C4B26760  24.407  10.213   4.462 -0.1994 -0.0454  0.1878
    1DIPC   NC326761  11.209  26.491   2.307  0.2098  0.1828  0.0365
    1DIPC   PO426762  11.027  26.535   2.789  0.0955  0.2404  0.1336
    1DIPC   GL126763  10.845  26.571   3.158  0.0230  0.1334 -0.0973
    1DIPC   GL226764  11.018  26.362   3.425 -0.1045  0.1623  0.1644
    1DIPC   C1A26765  10.541  26.449   3.419  0.3438  0.0745  0.1153
    1DIPC   D2A26766  10.394  26.360   3.773  0.0926 -0.1844 -0.1733
    1DIPC   D3A26767  10.757  26.033   3.758 -0.0992  0.0635 -0.1833
    1DIPC   C4A26768  10.977  26.070   4.113 -0.1802  0.0202  0.3943
    1DIPC   C1B26769  10.907  26.526   3.863  0.2588  0.2084 -0.1374
    1DIPC   D2B26770  10.901  26.632   4.265  0.0455 -0.2658  0.0119
    1DIPC   D3B26771  10.521  26.408   4.388  0.2329  0.1668  0.0016
    1DIPC   C4B26772  10.434  25.976   4.323  0.1507  0.0876 -0.0769
    1DIPC   NC326773  19.517   3.437   2.816 -0.1190 -0.3167  0.1522
    1DIPC   PO426774  19.887   3.658   2.689  0.0252 -0.1142 -0.0741
    1DIPC   GL126775  19.846   3.660   3.114  0.0146 -0.0398 -0.1735
    1DIPC   GL226776  19.941   3.351   3.279 -0.0972  0.0934 -0.1212
    1DIPC   C1A26777  19.793   3.874   3.376  0.1205  0.1455 -0.1856
    1DIPC   D2A26778  19.576   3.902   3.709  0.1185  0.0059 -0.2693
    1DIPC   D3A26779  19.950   3.853   3.920 -0.1807  0.2871  0.4134
    1DIPC   C4A26780  20.209   3.713   3.595 -0.3564 -0.0287  0.2413
    1DIPC   C1B26781  19.778   3.453   3.671  0.3299 -0.0077  0.1532
    1DIPC   D2B26782  19.595   3.466   4.018  0.1521 -0.1830 -0.0030
    1DIPC   D3B26783  19.759   3.473   4.460 -0.2879  0.2090 -0.1150
    1DIPC   C4B26784  19.662   3.173   4.724  0.0753 -0.0403 -0.2320
    1DIPC   NC326785  23.631   4.407   3.363  0.0249 -0.1238 -0.4261
    1DIPC   PO426786  23.787   4.007   3.564  0.1266 -0.1731  0.3646
    1DIPC   GL126787  23.887   3.962   3.920 -0.2055  0.1806  0.1821
    1DIPC   GL226788  24.304   3.902   4.007  0.4532  0.3545  0.1345
    1DIPC   C1A26789  23.918   4.024   4.332 -0.2487  0.0718  0.0716
    1DIPC   D2A26790  23.669   4.176   4.634  0.0556  0.2528  0.1898
    1DIPC   D3A26791  23.544   4.290   4.779  0.2759  0.0610 -0.3167
    1DIPC   C4A26792  23.674   4.688   4.859 -0.3753 -0.1325  0.0456
    1DIPC   C1B26793  24.450   3.857   4.409  0.0588 -0.0124  0.1400
    1DIPC   D2B26794  24.205   3.771   4.759  0.1045 -0.1856  0.0046
    1DIPC   D3B26795  23.860   3.592   4.672  0.1332  0.2693  0.0516
    1DIPC   C4B26796  23.668   3.556   4.281  0.0924  0.2469  0.0957
    1DIPC   NC326797  22.133  20.847   2.951 -0.1546  0.2831  0.4193
    1DIPC   PO426798  22.417  21.090   3.194 -0.0093 -0.0188  0.2024
    1DIPC   GL126799  22.400  21.095   3.569  0.1030 -0.1571  0.1971
    1DIPC   GL226800  22.320  20.880   3.957 -0.0877 -0.2354  0.3170
    1DIPC   C1A26801  22.375  21.333   3.939 -0.2141 -0.0059  0.1119
    1DIPC   D2A26802  22.359  21.447   4.291  0.0096 -0.0851 -0.0791
    1DIPC   D3A26803  22.796  21.429   4.565  0.1110 -0.0030  0.0206
    1DIPC   C4A26804  22.978  21.812   4.878  0.1454  0.2699 -0.1737
    1DIPC   C1B26805  22.756  21.023   4.187 -0.2252 -0.1137  0.1022
    1DIPC   D2B26806  22.935  20.898   4.579 -0.1404  0.2146  0.1089
    1DIPC   D3B26807  23.098  20.540   4.560 -0.1243  0.0865  0.2359
    1DIPC   C4B26808  23.415  20.530   4.835 -0.1083  0.1135 -0.2318
    1DIPC   NC326809   6.301  11.358   3.031  0.0822 -0.0900  0.1700
    1DIPC   PO426810   6.542  10.908   2.936  0.1599  0.0529 -0.2196
    1DIPC   GL126811   6.625  11.028   3.328 -0.0452 -0.0199 -0.0321
    1DIPC   GL226812   6.752  10.830   3.501 -0.0843 -0.1243 -0.0373
    1DIPC   C1A26813   6.908  11.354   3.535 -0.2309 -0.1223  0.1185
    1DIPC   D2A26814   7.147  11.799   3.668 -0.1926  0.1921 -0.2282
    1DIPC   D3A26815   6.969  12.174   3.670 -0.2047  0.0598 -0.1490
    1DIPC   C4A26816   7.248  12.490   3.878  0.0256  0.1867 -0.3633
    1DIPC   C1B26817   6.402  11.100   3.851 -0.1068 -0.1216  0.2500
    1DIPC   D2B26818   6.002  11.330   4.067 -0.1336  0.2588  0.0532
    1DIPC   D3B26819   5.723  11.342   3.857  0.3710  0.2790 -0.1846
    1DIPC   C4B26820   5.426  11.544   3.569  0.0619 -0.0800  0.0510
    1DIPC   NC326821   6.164  18.917   2.049  0.1823  0.1231 -0.2322
    1DIPC   PO426822   6.047  18.533   2.206 -0.2241 -0.0320  0.3312
    1DIPC   GL126823   5.916  18.767   2.598 -0.0301  0.1832  0.0893
    1DIPC   GL226824   5.651  18.789   2.810  0.0596 -0.0722  0.1331
    1DIPC   C1A26825   6.161  18.630   3.004  0.1201  0.2117  0.1214
    1DIPC   D2A26826   6.518  18.778   3.176  0.1513 -0.0328 -0.2652
    1DIPC   D3A26827   6.507  18.927   3.567 -0.1582  0.0036  0.1628
    1DIPC   C4A26828   6.552  18.666   3.861  0.2121  0.0987 -0.1457
    1DIPC   C1B26829   5.501  19.203   3.052 -0.1962 -0.0683 -0.0314
    1DIPC   D2B26830   5.363  19.138   3.457 -0.3207 -0.0160  0.2993
    1DIPC   D3B26831   5.558  19.378   3.817 -0.0909 -0.0126 -0.0414
    1DIPC   C4B26832   5.192  19.585   3.964  0.0001 -0.1502  0.1958
    1DIPC   NC326833  13.132   2.528   3.738  0.3414  0.3322 -0.3896
    1DIPC   PO426834  13.426   2.112   3.771  0.0024 -0.0454  0.1232
    1DIPC   GL126835  13.693   2.180   4.057 -0.0476 -0.0350 -0.2162
    1DIPC   GL226836  13.398   2.420   4.220  0.3999 -0.1254 -0.2459
    1DIPC   C1A26837  13.936   2.272   4.315 -0.0821  0.2880  0.0825
    1DIPC   D2A26838  14.123   2.349   4.674  0.0249  0.2033 -0.0200
    1DIPC   D3A26839  14.421   2.608   5.025  0.1232  0.4634  0.1296
    1DIPC   C4A26840  14.163   2.810   5.423 -0.0281  0.0460  0.2107
    1DIPC   C1B26841  13.527   2.390   4.599 -0.1291  0.1229  0.2957
    1DIPC   D2B26842  13.716   2.210   4.995 -0.2010  0.0091 -0.2031
    1DIPC   D3B26843  14.012   2.349   5.202 -0.2388  0.0407  0.0063
    1DIPC   C4B26844  13.700   2.637   5.565 -0.0660 -0.1584  0.0199
    1DIPC   NC326845   4.253  11.280   2.783  0.0153  0.0008  0.5135
    1DIPC   PO426846   4.370  11.363   3.144 -0.2906 -0.1006  0.0194
    1DIPC   GL126847   4.169  11.839   3.206 -0.0003 -0.5832  0.0191
    1DIPC   GL226848   3.752  11.867   3.214 -0.0348 -0.1581  0.2972
    1DIPC   C1A26849   4.465  11.906   3.618 -0.0438 -0.0269 -0.0261
    1DIPC   D2A26850   4.454  12.229   3.852 -0.1318  0.2881  0.0439
    1DIPC   D3A26851   4.604  12.123   4.217  0.0003 -0.0710  0.0761
    1DIPC   C4A26852   4.190  12.083   4.552 -0.4626  0.0749  0.1269
    1DIPC   C1B26853   3.580  11.933   3.595  0.3945 -0.0944  0.3163
    1DIPC   D2B26854   3.397  11.608   3.945 -0.1522  0.2003  0.0639
    1DIPC   D3B26855   3.746  11.857   4.159 -0.0648  0.1044 -0.0528
    1DIPC   C4B26856   4.163  11.913   4.114  0.2098 -0.0229  0.2203
    1DIPC   NC326857  19.399   8.554   1.921  0.0719 -0.1560  0.0627
    1DIPC   PO426858  18.947   8.369   2.001 -0.0404 -0.2243 -0.2323
    1DIPC   GL126859  19.017   8.337   2.423  0.3789  0.2114  0.3312
    1DIPC   GL226860  19.302   8.516   2.422  0.1096  0.1690  0.1498
    1DIPC   C1A26861  18.844   8.302   2.792 -0.0009 -0.3173 -0.2109
    1DIPC   D2A26862  18.443   8.206   2.980 -0.0212 -0.1384 -0.6214
    1DIPC   D3A26863  18.311   8.291   3.405  0.2111  0.0228 -0.3317
    1DIPC   C4A26864  18.551   8.131   3.837 -0.2582  0.3051  0.2074
    1DIPC   C1B26865  19.167   8.754   2.838 -0.1506 -0.0221 -0.0363
    1DIPC   D2B26866  19.385   8.617   3.207  0.0958  0.2639  0.0212
    1DIPC   D3B26867  19.256   8.226   3.033  0.1242 -0.0669 -0.0074
    1DIPC   C4B26868  19.466   8.161   2.703 -0.0616 -0.1913 -0.1975
    1DIPC   NC326869   2.729   2.321   3.103 -0.0046  0.0389  0.1008
    1DIPC   PO426870   2.333   2.479   2.975 -0.1563 -0.1655 -0.0215
    1DIPC   GL126871   2.318   2.736   3.265 -0.0536  0.1659  0.2618
    1DIPC   GL226872   2.608   2.769   3.417 -0.1411  0.2314  0.2064
    1DIPC   C1A26873   2.220   3.048   3.491 -0.0528  0.1484  0.1842
    1DIPC   D2A26874   2.182   3.177   3.978 -0.1568 -0.3723 -0.0252
    1DIPC   D3A26875   2.241   3.289   4.346  0.0544 -0.1970  0.1304
    1DIPC   C4A26876   2.333   3.218   4.799  0.0587 -0.2017 -0.2288
    1DIPC   C1B26877   2.378   2.757   3.864 -0.3138 -0.2631 -0.3063
    1DIPC   D2B26878   2.498   2.849   4.283 -0.2343  0.1318  0.2772
    1DIPC   D3B26879   2.376   2.668   4.639 -0.0982 -0.0379  0.1966
    1DIPC   C4B26880   2.648   2.293   4.604 -0.0451 -0.0108 -0.2201
    1DIPC   NC326881  26.751  18.448   2.825 -0.1239 -0.1547 -0.3412
    1DIPC   PO426882  26.619  18.009   2.689  0.2356 -0.1207 -0.4527
    1DIPC   GL126883  26.260  18.030   2.998  0.0414 -0.1683  0.1637
    1DIPC   GL226884  26.410  18.255   3.185  0.1121 -0.1666 -0.1010
    1DIPC   C1A26885  25.975  17.892   3.318 -0.2948  0.3950  0.0905
    1DIPC   D2A26886  25.735  17.598   3.591 -0.2429 -0.3070  0.0776
    1DIPC   D3A26887  25.470  17.532   3.269  0.1523  0.2798 -0.0295
    1DIPC   C4A26888  25.120  17.580   3.311 -0.0797  0.1265 -0.0343
    1DIPC   C1B26889  26.346  18.269   3.567  0.0038 -0.0718 -0.0994
    1DIPC   D2B26890  26.102  18.118   3.834  0.2051  0.0628  0.0377
    1DIPC   D3B26891  25.831  18.291   3.539 -0.1291 -0.3620  0.0811
    1DIPC   C4B26892  25.850  18.373   3.116 -0.1060  0.1179  0.2944
    1DIPC   NC326893  16.273  25.802   3.444  0.0266 -0.1488 -0.0677
    1DIPC   PO426894  16.337  25.355   3.278 -0.2485 -0.1068  0.1794
    1DIPC   GL126895  15.986  25.370   3.590 -0.3908 -0.0225 -0.2122
    1DIPC   GL226896  15.615  25.314   3.753 -0.2723  0.0283 -0.3338
    1DIPC   C1A26897  15.982  25.363   4.084 -0.2731  0.1202  0.0480
    1DIPC   D2A26898  16.059  24.988   4.427  0.4233  0.1031 -0.1595
    1DIPC   D3A26899  16.039  24.757   4.110 -0.2065 -0.1270  0.3736
    1DIPC   C4A26900  16.204  24.940   3.834  0.1699 -0.0145  0.0717
    1DIPC   C1B26901  15.738  24.862   3.635  0.0713  0.1822  0.2070
    1DIPC   D2B26902  15.695  24.496   3.894 -0.0956 -0.0661  0.1860
    1DIPC   D3B26903  15.708  24.357   4.346 -0.3169  0.1578  0.0512
    1DIPC   C4B26904  16.158  24.422   4.482  0.1181 -0.0529  0.3104
    1DIPC   NC326905  12.305   0.358   3.443  0.0058  0.1252  0.2002
    1DIPC   PO426906  12.438   0.796   3.401 -0.2884 -0.0360 -0.0508
    1DIPC   GL126907  12.409   0.689   3.823 -0.2394 -0.0254  0.0147
    1DIPC   GL226908  12.122   0.873   4.043 -0.0214 -0.0074 -0.0367
    1DIPC   C1A26909  12.454   0.465   4.122  0.0031 -0.1317  0.0095
    1DIPC   D2A26910  12.130   0.399   4.380  0.2596 -0.1821 -0.1958
    1DIPC   D3A26911  12.338   0.735   4.675  0.1018 -0.0811  0.0531
    1DIPC   C4A26912  12.412   0.994   4.461  0.3412 -0.1191  0.0171
    1DIPC   C1B26913  11.937   0.893   4.386 -0.2339  0.0727  0.2041
    1DIPC   D2B26914  11.788   0.961   4.813  0.0372 -0.2272 -0.0512
    1DIPC   D3B26915  11.868   0.540   4.920 -0.1145  0.0948 -0.0490
    1DIPC   C4B26916  12.114   0.417   5.188 -0.0408 -0.1064  0.0952
    1DIPC   NC326917   6.398   9.026   3.164 -0.1416 -0.0193 -0.0295
    1DIPC   PO426918   6.382   9.451   3.328  0.1920 -0.3393 -0.1246
    1DIPC   GL126919   6.216   9.427   3.766 -0.3041  0.1402  0.0170
    1DIPC   GL226920   5.864   9.400   3.738  0.3939 -0.1782  0.0383
    1DIPC   C1A26921   6.185   9.442   4.229 -0.2547 -0.1574  0.0164
    1DIPC   D2A26922   6.018   9.653   4.575 -0.0148  0.0932  0.4055
    1DIPC   D3A26923   5.923   9.245   4.722 -0.0962  0.1408 -0.0580
    1DIPC   C4A26924   6.244   8.918   4.717  0.0699 -0.1764 -0.0483
    1DIPC   C1B26925   5.839   9.732   3.925 -0.2326 -0.2377  0.0559
    1DIPC   D2B26926   5.703   9.812   4.282  0.1665 -0.2673  0.0526
    1DIPC   D3B26927   5.942  10.157   4.597  0.2901  0.0619 -0.2609
    1DIPC   C4B26928   5.698  10.364   4.851  0.0352 -0.1773  0.0072
    1DIPC   NC326929  25.280   6.824   3.087  0.1207  0.2084 -0.0457
    1DIPC   PO426930  25.593   6.585   3.089 -0.0663  0.0159  0.1626
    1DIPC   GL126931  25.597   6.290   3.342 -0.0694  0.1467  0.3301
    1DIPC   GL226932  25.969   6.125   3.284 -0.0605 -0.2578 -0.0306
    1DIPC   C1A26933  25.457   6.055   3.696  0.1134 -0.1174  0.0746
    1DIPC   D2A26934  25.052   5.990   3.811 -0.0378 -0.1018  0.2750
    1DIPC   D3A26935  25.278   5.810   4.164  0.0585  0.0879  0.0228
    1DIPC   C4A26936  25.521   5.847   4.539  0.1067 -0.2541  0.1189
    1DIPC   C1B26937  25.979   6.222   3.702 -0.3227  0.1087 -0.1227
    1DIPC   D2B26938  26.372   6.270   4.051 -0.2086 -0.1846 -0.2367
    1DIPC   D3B26939  26.225   6.204   4.394 -0.0445 -0.2904 -0.2957
    1DIPC   C4B26940  25.992   5.878   4.638 -0.0560  0.2081  0.0428
    1DIPC   NC326941  22.792   0.308   3.232 -0.1790 -0.1314  0.0339
    1DIPC   PO426942  22.369   0.427   3.008  0.1088 -0.2906  0.1841
    1DIPC   GL126943  22.388   0.517   3.497  0.0910 -0.1006 -0.0673
    1DIPC   GL226944  22.474   0.140   3.671  0.1890 -0.0530  0.1376
    1DIPC   C1A26945  22.677   0.639   3.887 -0.0983  0.0166  0.2027
    1DIPC   D2A26946  23.127   0.830   4.060 -0.2537  0.2706 -0.0885
    1DIPC   D3A26947  23.062   0.833   4.551  0.0562 -0.2145 -0.0523
    1DIPC   C4A26948  22.791   0.682   4.755  0.1544  0.1658 -0.3287
    1DIPC   C1B26949  22.381   0.215   3.980 -0.3388 -0.0483 -0.1357
    1DIPC   D2B26950  22.057  -0.038   4.054 -0.1763  0.1843  0.2099
    1DIPC   D3B26951  22.092  -0.012   4.493 -0.0871 -0.0919 -0.3393
    1DIPC   C4B26952  22.039   0.349   4.809  0.2156 -0.1865  0.0642
    1DIPC   NC326953   0.474   7.224   2.902  0.0128 -0.1494  0.1656
    1DIPC   PO426954   0.048   7.302   3.073  0.1271 -0.1915  0.0137
    1DIPC   GL126955   0.186   7.238   3.480 -0.3240 -0.1597 -0.0105
    1DIPC   GL226956   0.454   6.985   3.385  0.1829  0.1719  0.0320
    1DIPC   C1A26957   0.310   7.265   3.915  0.1438 -0.0148 -0.2589
    1DIPC   D2A26958   0.188   6.981   4.170 -0.1023 -0.1450  0.0616
    1DIPC   D3A26959  -0.300   6.782   4.085 -0.0674 -0.0448 -0.0691
    1DIPC   C4A26960  -0.419   6.449   4.294  0.0576  0.1760 -0.0191
    1DIPC   C1B26961   0.579   6.748   3.723 -0.0767 -0.0111 -0.3023
    1DIPC   D2B26962   0.583   6.673   4.145 -0.1476  0.1463  0.4472
    1DIPC   D3B26963   0.408   6.665   4.577 -0.1475 -0.3923  0.0512
    1DIPC   C4B26964  -0.064   6.780   4.558  0.0128 -0.1813 -0.2681
    1DIPC   NC326965  23.293  16.995   2.592  0.1748 -0.4409 -0.0224
    1DIPC   PO426966  23.565  17.412   2.690  0.0084 -0.1361 -0.2793
    1DIPC   GL126967  23.664  17.472   3.150 -0.1196 -0.1146  0.0878
    1DIPC   GL226968  23.899  17.254   3.147 -0.1327  0.3495  0.1211
    1DIPC   C1A26969  23.493  17.182   3.501  0.2185 -0.1340  0.2261
    1DIPC   D2A26970  23.555  16.835   3.762 -0.0636  0.1506 -0.1644
    1DIPC   D3A26971  23.800  17.021   4.166 -0.0980 -0.2503  0.4303
    1DIPC   C4A26972  24.159  17.161   4.463 -0.3259 -0.0342 -0.1920
    1DIPC   C1B26973  24.002  17.124   3.609  0.1586 -0.2334  0.2320
    1DIPC   D2B26974  24.119  16.778   3.831  0.2008  0.1641 -0.1120
    1DIPC   D3B26975  23.955  16.539   4.183 -0.1954  0.1437 -0.0567
    1DIPC   C4B26976  24.123  16.136   4.167 -0.3843  0.1692  0.1238
    1DIPC   NC326977   8.255   0.910   3.528 -0.0317  0.0209  0.0254
    1DIPC   PO426978   8.729   0.906   3.476 -0.0008 -0.2529 -0.4779
    1DIPC   GL126979   8.938   0.885   3.834  0.0488  0.1734 -0.0959
    1DIPC   GL226980   8.836   0.596   4.031  0.0281  0.5440 -0.0992
    1DIPC   C1A26981   9.001   0.992   4.284 -0.2743  0.0334 -0.0774
    1DIPC   D2A26982   8.884   1.123   4.716  0.0895  0.1458  0.1136
    1DIPC   D3A26983   8.452   1.055   4.564  0.0843 -0.0685 -0.5345
    1DIPC   C4A26984   8.165   1.202   4.944  0.2607 -0.0795 -0.0503
    1DIPC   C1B26985   8.643   0.588   4.490 -0.0200 -0.2200  0.0516
    1DIPC   D2B26986   8.639   0.440   4.912 -0.1231 -0.0296  0.1319
    1DIPC   D3B26987   8.474   0.813   5.017  0.1500  0.2494 -0.0423
    1DIPC   C4B26988   8.073   0.720   5.179 -0.0465  0.1843  0.0678
    1DIPC   NC326989   8.853  19.503   2.206  0.2695  0.0668 -0.1711
    1DIPC   PO426990   8.996  19.064   2.183 -0.0615  0.0120 -0.0063
    1DIPC   GL126991   8.699  19.070   2.621  0.0055  0.0003  0.0229
    1DIPC   GL226992   8.328  19.071   2.601 -0.0338 -0.0022 -0.1195
    1DIPC   C1A26993   8.526  18.962   3.029  0.1700 -0.0231  0.2124
    1DIPC   D2A26994   8.493  19.071   3.379  0.2689 -0.0744 -0.2506
    1DIPC   D3A26995   8.433  18.879   3.786 -0.1735 -0.1842  0.0208
    1DIPC   C4A26996   8.794  19.036   4.006 -0.0118  0.1683  0.3234
    1DIPC   C1B26997   8.034  19.018   3.037 -0.4576 -0.1807 -0.0475
    1DIPC   D2B26998   8.144  18.763   3.211  0.0190 -0.1563 -0.1864
    1DIPC   D3B26999   7.949  18.501   3.532 -0.0550 -0.2268 -0.1560
    1DIPC   C4B27000   8.123  18.525   3.960  0.0269  0.4710 -0.1260
    1DIPC   NC327001   2.812   3.794   3.496  0.1881 -0.1040  0.0784
    1DIPC   PO427002   2.908   4.253   3.476  0.1658 -0.0143 -0.1993
    1DIPC   GL127003   2.576   4.322   3.774  0.0368 -0.1992  0.3406
    1DIPC   GL227004   2.316   4.496   3.690 -0.2018  0.2086 -0.0079
    1DIPC   C1A27005   2.551   4.644   4.107 -0.2154 -0.0822 -0.3284
    1DIPC   D2A27006   2.384   4.787   4.491 -0.1707  0.1072 -0.0899
    1DIPC   D3A27007   2.014   4.553   4.756 -0.0294 -0.0928  0.1953
    1DIPC   C4A27008   2.024   4.092   4.743 -0.1063  0.1535 -0.0752
    1DIPC   C1B27009   2.021   4.630   4.004  0.3583 -0.1521  0.5048
    1DIPC   D2B27010   1.762   4.744   4.254 -0.0873 -0.3363  0.2635
    1DIPC   D3B27011   1.572   5.137   4.296  0.1395 -0.3597 -0.2055
    1DIPC   C4B27012   1.804   5.465   4.074  0.2004 -0.0111  0.1224
    1DIPC   NC327013  26.290   8.524   2.024 -0.2452  0.3496 -0.1508
    1DIPC   PO427014  26.184   8.728   2.464 -0.2816  0.2073  0.1477
    1DIPC   GL127015  26.007   8.822   2.845 -0.0320  0.1444 -0.2590
    1DIPC   GL227016  26.017   9.184   2.974 -0.4217 -0.0525  0.0563
    1DIPC   C1A27017  25.994   8.824   3.327 -0.1488 -0.1097  0.0756
    1DIPC   D2A27018  26.009   8.721   3.671 -0.2609 -0.4286 -0.3334
    1DIPC   D3A27019  25.677   8.537   3.984 -0.5337  0.2651 -0.1329
    1DIPC   C4A27020  25.585   8.749   4.250 -0.0611 -0.1539  0.3264
    1DIPC   C1B27021  26.362   9.214   3.336  0.2725 -0.0079  0.1650
    1DIPC   D2B27022  26.539   9.172   3.664  0.0546 -0.2736 -0.2341
    1DIPC   D3B27023  26.414   8.933   4.055 -0.1380 -0.0211  0.2215
    1DIPC   C4B27024  26.246   9.149   4.362  0.1548  0.0015 -0.1430
    1DIPC   NC327025  27.829  24.532   2.647 -0.0804  0.2996  0.3278
    1DIPC   PO427026  28.239  24.623   2.685 -0.3364 -0.1479 -0.0331
    1DIPC   GL127027  28.277  24.732   3.194  0.0407  0.3059 -0.1893
    1DIPC   GL227028  28.398  25.036   3.285  0.0423 -0.0683 -0.0120
    1DIPC   C1A27029  28.388  24.683   3.659 -0.0254  0.0162 -0.0318
    1DIPC   D2A27030  28.219  24.519   4.108 -0.0405 -0.2380  0.1421
    1DIPC   D3A27031  27.811  24.720   4.202  0.0363 -0.0779 -0.0107
    1DIPC   C4A27032  27.722  25.119   4.167  0.2129  0.1082  0.2584
    1DIPC   C1B27033  28.656  25.406   3.341 -0.1961  0.1592  0.2057
    1DIPC   D2B27034  28.707  25.801   3.563  0.0702 -0.1200  0.0101
    1DIPC   D3B27035  28.948  26.143   3.596 -0.0133  0.4410  0.0168
    1DIPC   C4B27036  29.282  26.040   3.843 -0.0457 -0.1514  0.2594
    1DIPC   NC327037   0.275  23.621   2.273  0.1108  0.0327  0.0135
    1DIPC   PO427038   0.360  23.454   2.746  0.0181  0.2491 -0.0454
    1DIPC   GL127039   0.402  23.605   3.127  0.0090 -0.3619  0.0247
    1DIPC   GL227040   0.457  23.352   3.340 -0.1597 -0.0780  0.0253
    1DIPC   C1A27041   0.394  23.813   3.441 -0.0861 -0.1157  0.0080
    1DIPC   D2A27042   0.462  23.628   3.798  0.1537 -0.0852  0.1859
    1DIPC   D3A27043   0.228  23.627   4.171  0.0583 -0.1708 -0.0094
    1DIPC   C4A27044   0.323  23.917   4.430  0.0069  0.0494  0.2144
    1DIPC   C1B27045   0.255  23.024   3.633 -0.1357  0.0222  0.0877
    1DIPC   D2B27046   0.255  23.042   4.036 -0.0535 -0.3435 -0.0070
    1DIPC   D3B27047   0.631  23.248   4.045  0.0401  0.1815  0.0666
    1DIPC   C4B27048   0.861  23.352   4.401 -0.0678 -0.0275  0.1722
    1DIPC   NC327049   3.785  17.803   1.983 -0.0280  0.2224 -0.0713
    1DIPC   PO427050   3.554  17.638   2.393  0.3092  0.4976 -0.0456
    1DIPC   GL127051   3.411  17.565   2.772 -0.0758  0.1115 -0.1516
    1DIPC   GL227052   3.443  17.793   3.137  0.0590  0.0815 -0.0587
    1DIPC   C1A27053   3.035  17.807   2.912 -0.2597 -0.1595  0.1061
    1DIPC   D2A27054   2.873  18.120   3.206 -0.1311  0.0830  0.0937
    1DIPC   D3A27055   3.113  18.364   3.088  0.0621 -0.3587 -0.1975
    1DIPC   C4A27056   3.100  18.791   2.905 -0.0168 -0.0714 -0.1563
    1DIPC   C1B27057   3.399  18.092   3.469  0.2396  0.0065 -0.2033
    1DIPC   D2B27058   3.533  18.030   3.951 -0.0849  0.2851 -0.1096
    1DIPC   D3B27059   3.652  17.616   4.065 -0.1202 -0.3923  0.0391
    1DIPC   C4B27060   4.004  17.540   4.219  0.0268  0.0208  0.1949
    1DIPC   NC327061   0.857   6.195   3.205  0.3845 -0.0621  0.1979
    1DIPC   PO427062   0.521   6.530   2.971 -0.0614 -0.1468 -0.1260
    1DIPC   GL127063   0.286   6.426   3.364  0.0653  0.3289 -0.0355
    1DIPC   GL227064   0.012   6.399   3.356 -0.1035  0.1782  0.2015
    1DIPC   C1A27065   0.260   6.146   3.778 -0.0276 -0.1403 -0.0061
    1DIPC   D2A27066   0.284   5.764   4.037 -0.0579  0.0383  0.1613
    1DIPC   D3A27067   0.564   5.393   3.932 -0.0829  0.1509 -0.1075
    1DIPC   C4A27068   0.972   5.427   3.647  0.4001  0.1371  0.0086
    1DIPC   C1B27069   0.042   5.949   3.400  0.0824  0.1512 -0.1474
    1DIPC   D2B27070   0.419   5.659   3.516 -0.4467 -0.0931  0.0892
    1DIPC   D3B27071   0.762   5.868   3.700  0.0914 -0.0349 -0.2876
    1DIPC   C4B27072   0.914   5.738   4.099 -0.1492 -0.2215  0.1008
    1DIPC   NC327073   3.267  14.381   2.665 -0.3442  0.1241 -0.1259
    1DIPC   PO427074   2.943  14.235   2.479  0.2631 -0.0647 -0.0332
    1DIPC   GL127075   2.896  14.197   2.950  0.1700  0.0690 -0.1352
    1DIPC   GL227076   3.076  14.271   3.202  0.0493  0.0393 -0.2319
    1DIPC   C1A27077   2.569  14.333   3.290  0.0227 -0.0256  0.0278
    1DIPC   D2A27078   2.153  14.337   3.517 -0.3417  0.0493 -0.1314
    1DIPC   D3A27079   2.541  14.559   3.735 -0.0842 -0.1878  0.0428
    1DIPC   C4A27080   2.576  15.010   3.754  0.2689  0.2040 -0.1114
    1DIPC   C1B27081   3.094  14.176   3.657 -0.0195 -0.4935 -0.1264
    1DIPC   D2B27082   3.184  14.034   4.051 -0.1160 -0.1496 -0.2998
    1DIPC   D3B27083   3.213  13.559   4.237  0.1786  0.0910  0.0857
    1DIPC   C4B27084   2.920  13.393   4.600 -0.0958 -0.1239 -0.0756
    1DIPC   NC327085  29.298  25.960   2.308  0.0446 -0.1291 -0.0280
    1DIPC   PO427086  29.017  25.832   2.694 -0.0654  0.0057  0.0036
    1DIPC   GL127087  29.482  25.800   2.739 -0.2387 -0.1254  0.2148
    1DIPC   GL227088  29.784  26.109   2.778  0.0691 -0.2322 -0.1171
    1DIPC   C1A27089  29.688  25.691   3.142 -0.2261 -0.0443  0.2217
    1DIPC   D2A27090  29.705  25.741   3.622  0.0345 -0.0913 -0.1323
    1DIPC   D3A27091  29.717  25.864   4.046  0.0162  0.0125 -0.0388
    1DIPC   C4A27092  29.346  25.689   4.233  0.0766  0.0861  0.0697
    1DIPC   C1B27093  29.627  26.202   3.246  0.0132  0.1918  0.0187
    1DIPC   D2B27094  29.690  26.244   3.681 -0.1188 -0.1481  0.0593
    1DIPC   D3B27095  30.066  26.052   3.723 -0.0597 -0.1559  0.0208
    1DIPC   C4B27096  30.268  25.636   3.761  0.0443  0.0995  0.1344
    1DIPC   NC327097   8.630  29.702   3.689 -0.0383  0.2295  0.3116
    1DIPC   PO427098   8.557  30.139   3.631 -0.0742 -0.2851  0.1875
    1DIPC   GL127099   8.484  30.108   4.023 -0.0585  0.2830 -0.2823
    1DIPC   GL227100   8.715  29.946   4.287 -0.0074 -0.2431 -0.3722
    1DIPC   C1A27101   8.203  29.775   4.347  0.2409  0.0935 -0.0271
    1DIPC   D2A27102   8.114  29.400   4.480  0.3041 -0.0570 -0.3395
    1DIPC   D3A27103   8.196  29.362   4.889 -0.0389  0.1369  0.1866
    1DIPC   C4A27104   7.835  29.421   5.047 -0.0371  0.2566  0.0617
    1DIPC   C1B27105   8.538  29.951   4.668 -0.2026  0.0144 -0.1067
    1DIPC   D2B27106   8.633  29.894   5.085  0.2603  0.0251  0.0702
    1DIPC   D3B27107   9.097  30.110   4.956  0.0074  0.2847  0.0704
    1DIPC   C4B27108   9.221  29.955   4.485 -0.1238  0.1776 -0.1444
    1DIPC   NC327109  20.456  20.511   2.865 -0.1427  0.0842 -0.1951
    1DIPC   PO427110  20.615  20.976   3.050 -0.0850  0.2328  0.2670
    1DIPC   GL127111  20.563  20.657   3.462  0.1558 -0.1749  0.1373
    1DIPC   GL227112  20.202  20.534   3.355 -0.2242  0.0196 -0.0879
    1DIPC   C1A27113  20.292  20.504   3.891 -0.1814 -0.1867  0.0472
    1DIPC   D2A27114  20.246  20.467   4.311 -0.3375  0.2778  0.1276
    1DIPC   D3A27115  19.808  20.605   4.511  0.1232  0.0386  0.2926
    1DIPC   C4A27116  19.791  20.587   4.948  0.0124  0.1923 -0.1873
    1DIPC   C1B27117  20.191  20.952   3.603 -0.2943 -0.2419 -0.0463
    1DIPC   D2B27118  20.105  21.434   3.493 -0.0678 -0.0494 -0.2802
    1DIPC   D3B27119  20.257  21.357   3.872  0.3437 -0.3806  0.0372
    1DIPC   C4B27120  20.438  20.933   4.084 -0.1647 -0.0134  0.1122
    1DIPC   NC327121   6.442  20.073   2.136 -0.1150  0.1091  0.0420
    1DIPC   PO427122   6.482  19.667   2.219 -0.0288  0.0608  0.0574
    1DIPC   GL127123   6.401  19.785   2.598 -0.1214  0.2959 -0.0049
    1DIPC   GL227124   6.150  19.785   2.759  0.1413  0.1314  0.1601
    1DIPC   C1A27125   6.446  20.149   2.852  0.1599 -0.0912  0.1093
    1DIPC   D2A27126   6.534  20.536   2.835 -0.3407 -0.3920  0.0811
    1DIPC   D3A27127   6.847  20.727   3.225 -0.1939  0.0167  0.1761
    1DIPC   C4A27128   6.626  20.688   3.635  0.0056 -0.3929 -0.1279
    1DIPC   C1B27129   6.263  19.832   3.162 -0.1182  0.0937 -0.2318
    1DIPC   D2B27130   6.370  19.837   3.590  0.2000  0.0610  0.3610
    1DIPC   D3B27131   6.049  19.908   3.998  0.2506  0.1376  0.0275
    1DIPC   C4B27132   5.727  19.680   4.213  0.2212 -0.2397  0.0416
    1DIPC   NC327133   5.124  15.627   2.032  0.0097  0.0659 -0.1910
    1DIPC   PO427134   5.106  15.582   2.478 -0.0758 -0.1817 -0.1418
    1DIPC   GL127135   5.233  15.445   2.822 -0.0191 -0.1965 -0.2447
    1DIPC   GL227136   5.340  15.182   2.965 -0.2363 -0.2789 -0.2007
    1DIPC   C1A27137   5.416  15.590   3.226  0.0655  0.4581  0.2454
    1DIPC   D2A27138   5.750  15.594   3.550  0.2184  0.2351 -0.3082
    1DIPC   D3A27139   5.556  15.770   3.984 -0.4432  0.2198  0.1050
    1DIPC   C4A27140   5.787  16.052   4.269  0.0335 -0.4511  0.1998
    1DIPC   C1B27141   5.565  14.936   3.239 -0.0552  0.2265 -0.0567
    1DIPC   D2B27142   5.915  14.697   3.145  0.0776  0.2874  0.0115
    1DIPC   D3B27143   5.981  14.587   3.490  0.0401 -0.1981  0.1177
    1DIPC   C4B27144   5.645  14.634   3.734 -0.1703 -0.0906  0.1667
    1DIPC   NC327145   1.021   7.530   2.430 -0.0126  0.1305 -0.0238
    1DIPC   PO427146   0.881   7.544   2.902 -0.3763  0.4728 -0.0107
    1DIPC   GL127147   0.644   7.672   3.284 -0.0244  0.2449 -0.2304
    1DIPC   GL227148   0.676   7.556   3.653 -0.1799 -0.0812 -0.1131
    1DIPC   C1A27149   0.205   7.746   3.556  0.0699  0.2000 -0.1821
    1DIPC   D2A27150   0.138   7.722   4.100  0.0204  0.0195  0.2602
    1DIPC   D3A27151  -0.110   7.852   4.414  0.1515 -0.0535  0.0984
    1DIPC   C4A27152  -0.573   7.851   4.311 -0.4308 -0.0349 -0.1565
    1DIPC   C1B27153   0.677   7.543   4.137 -0.2200 -0.0483  0.3528
    1DIPC   D2B27154   0.495   7.632   4.447  0.3301  0.2230 -0.0698
    1DIPC   D3B27155   0.270   7.780   4.874 -0.0035  0.0829  0.1864
    1DIPC   C4B27156   0.056   8.173   4.900 -0.0517 -0.1389 -0.0561
    1DIPC   NC327157   6.430  24.287   2.482 -0.1082 -0.0122 -0.0157
    1DIPC   PO427158   6.527  23.874   2.473  0.0229 -0.3071  0.0735
    1DIPC   GL127159   6.542  23.734   2.966  0.3593  0.2597 -0.5140
    1DIPC   GL227160   6.934  23.684   3.086 -0.4207  0.2147  0.2047
    1DIPC   C1A27161   6.220  23.787   3.302  0.2354 -0.3283 -0.3514
    1DIPC   D2A27162   5.931  23.800   3.273  0.1207  0.0266  0.2252
    1DIPC   D3A27163   5.789  23.728   3.659  0.0193 -0.1654 -0.0439
    1DIPC   C4A27164   5.932  23.788   4.085 -0.0715  0.2550 -0.0796
    1DIPC   C1B27165   6.979  23.645   3.479 -0.1824 -0.1363 -0.2072
    1DIPC   D2B27166   7.090  23.316   3.789 -0.0551  0.0504  0.0789
    1DIPC   D3B27167   7.172  23.738   3.900 -0.3708  0.1736  0.1293
    1DIPC   C4B27168   7.460  23.934   4.130 -0.2187 -0.0551  0.0063
    1DIPC   NC327169   8.836   5.961   3.366 -0.2423  0.1969 -0.0236
    1DIPC   PO427170   8.520   5.764   3.466 -0.4105  0.3783 -0.0018
    1DIPC   GL127171   8.679   5.501   3.801  0.0455 -0.1511  0.2391
    1DIPC   GL227172   8.969   5.394   3.744  0.2695 -0.1936 -0.2242
    1DIPC   C1A27173   8.515   5.634   4.163  0.1503 -0.1193 -0.1250
    1DIPC   D2A27174   8.579   6.051   4.353 -0.0606 -0.1134 -0.0150
    1DIPC   D3A27175   8.365   6.220   4.689 -0.1186 -0.0378 -0.1528
    1DIPC   C4A27176   7.969   6.123   4.716  0.0377  0.1781  0.1240
    1DIPC   C1B27177   8.988   4.989   3.833  0.2431 -0.1444  0.0951
    1DIPC   D2B27178   9.301   4.684   3.988 -0.2203  0.3110  0.0001
    1DIPC   D3B27179   9.013   4.509   4.216 -0.1764 -0.2944  0.0808
    1DIPC   C4B27180   9.171   4.755   4.507 -0.3687  0.0859  0.2596
    1DIPC   NC327181  13.241   5.883   2.858 -0.3254 -0.1754 -0.0870
    1DIPC   PO427182  12.936   5.662   3.020  0.3402  0.0303 -0.0911
    1DIPC   GL127183  12.939   5.925   3.444  0.0445 -0.1754  0.2459
    1DIPC   GL227184  13.240   5.915   3.435  0.2064  0.0267  0.0841
    1DIPC   C1A27185  13.185   6.347   3.660  0.1103  0.2565 -0.0780
    1DIPC   D2A27186  13.460   6.577   4.002  0.3116  0.2956 -0.1174
    1DIPC   D3A27187  13.708   6.316   3.997  0.2499  0.3400 -0.0529
    1DIPC   C4A27188  13.663   6.026   3.610 -0.0216  0.0970 -0.1324
    1DIPC   C1B27189  13.433   5.614   3.708 -0.1524 -0.5232 -0.1349
    1DIPC   D2B27190  13.312   5.449   4.082  0.0005 -0.1996  0.3432
    1DIPC   D3B27191  13.752   5.752   4.122 -0.1766 -0.4086 -0.0627
    1DIPC   C4B27192  13.783   6.054   4.405 -0.1420  0.2011 -0.3563
    1DIPC   NC327193   3.972  12.839   3.020 -0.4014 -0.1834  0.0070
    1DIPC   PO427194   4.259  13.188   2.777 -0.0861 -0.0642 -0.0750
    1DIPC   GL127195   4.356  13.181   3.138 -0.0607 -0.2288 -0.0785
    1DIPC   GL227196   4.560  12.861   3.228  0.1667  0.0352  0.0966
    1DIPC   C1A27197   4.311  13.185   3.508 -0.1679 -0.1655 -0.1468
    1DIPC   D2A27198   4.295  13.258   4.007 -0.0966  0.1194  0.3677
    1DIPC   D3A27199   4.094  13.178   4.391  0.0830 -0.0386 -0.4506
    1DIPC   C4A27200   4.144  12.842   4.575  0.2651 -0.0144  0.1817
    1DIPC   C1B27201   4.948  12.904   3.551 -0.0239  0.2071 -0.1648
    1DIPC   D2B27202   5.251  13.070   3.750 -0.0228  0.1151 -0.2459
    1DIPC   D3B27203   5.291  12.913   4.100 -0.0376  0.0709 -0.1312
    1DIPC   C4B27204   5.696  13.044   4.313  0.3381  0.1845  0.1352
    1DIPC   NC327205   3.870  22.501   2.510  0.0332 -0.2643 -0.2579
    1DIPC   PO427206   4.215  22.827   2.692  0.0796  0.1278 -0.0795
    1DIPC   GL127207   4.204  23.062   3.081 -0.2703  0.0474 -0.0443
    1DIPC   GL227208   4.426  22.874   3.189 -0.0812 -0.1353 -0.0233
    1DIPC   C1A27209   4.118  23.243   3.486  0.0171  0.3101  0.1210
    1DIPC   D2A27210   4.027  23.418   3.894  0.2062 -0.0186  0.0652
    1DIPC   D3A27211   3.749  23.174   4.197  0.1267 -0.0723  0.0736
    1DIPC   C4A27212   3.685  22.763   4.043  0.2061  0.0006 -0.0090
    1DIPC   C1B27213   4.631  22.736   3.519 -0.0489 -0.3921 -0.0493
    1DIPC   D2B27214   4.739  22.520   3.815 -0.1525 -0.0741 -0.0472
    1DIPC   D3B27215   4.776  22.189   3.564  0.0011  0.1279 -0.0105
    1DIPC   C4B27216   4.762  21.717   3.689  0.2633 -0.2248  0.1540
    1DIPC   NC327217  12.555   1.856   3.374 -0.0301 -0.0871  0.0495
    1DIPC   PO427218  12.628   2.380   3.534  0.1737 -0.0340  0.1400
    1DIPC   GL127219  12.735   2.453   3.976  0.1844 -0.1211  0.1459
    1DIPC   GL227220  12.444   2.314   4.246  0.0619  0.4008  0.1109
    1DIPC   C1A27221  12.830   2.525   4.444 -0.4537 -0.2324 -0.0520
    1DIPC   D2A27222  12.744   2.739   4.897  0.0082  0.0402 -0.0409
    1DIPC   D3A27223  13.058   2.519   5.104 -0.0374  0.0468  0.4612
    1DIPC   C4A27224  13.108   2.831   5.527 -0.0455 -0.0410 -0.1223
    1DIPC   C1B27225  12.797   2.070   4.316  0.0033  0.0789  0.0586
    1DIPC   D2B27226  13.055   2.082   4.668  0.0501 -0.0327  0.0748
    1DIPC   D3B27227  13.272   1.875   4.388 -0.0906  0.0580  0.1326
    1DIPC   C4B27228  13.754   1.886   4.601 -0.1178  0.3761  0.0548
    1DIPC   NC327229   2.245  19.972   2.626  0.2131  0.3423 -0.0687
    1DIPC   PO427230   2.521  19.774   2.286 -0.1229 -0.0148 -0.2681
    1DIPC   GL127231   2.454  19.510   2.696 -0.1248 -0.4235 -0.0920
    1DIPC   GL227232   2.666  19.238   2.733 -0.0465 -0.1101  0.1806
    1DIPC   C1A27233   2.561  19.489   3.180 -0.0867 -0.0846  0.2899
    1DIPC   D2A27234   2.831  19.486   3.568  0.1855 -0.1489  0.2667
    1DIPC   D3A27235   2.798  19.226   3.900 -0.0306  0.1733 -0.1489
    1DIPC   C4A27236   2.375  19.055   4.115  0.1638  0.2207  0.1193
    1DIPC   C1B27237   2.824  19.112   3.177 -0.2847 -0.1323 -0.1673
    1DIPC   D2B27238   3.098  19.036   3.493 -0.0274 -0.1245  0.5728
    1DIPC   D3B27239   3.099  18.618   3.580  0.1724  0.1333 -0.1103
    1DIPC   C4B27240   3.101  18.325   4.014 -0.1220  0.0787 -0.0239
    1DIPC   NC327241  18.172  23.381   3.253  0.3266  0.2113  0.0797
    1DIPC   PO427242  17.769  23.585   3.223  0.1599 -0.0171 -0.0128
    1DIPC   GL127243  17.756  23.410   3.540  0.2118  0.2408 -0.1160
    1DIPC   GL227244  18.004  23.245   3.737 -0.0400 -0.2318 -0.0705
    1DIPC   C1A27245  17.705  23.515   4.080 -0.2289 -0.0150 -0.2172
    1DIPC   D2A27246  17.687  23.536   4.480 -0.0559  0.0945 -0.2886
    1DIPC   D3A27247  17.436  23.225   4.454 -0.2601 -0.1540  0.1409
    1DIPC   C4A27248  17.017  23.174   4.365 -0.0236 -0.2464 -0.0459
    1DIPC   C1B27249  18.172  23.343   4.055  0.1446  0.0694  0.0933
    1DIPC   D2B27250  18.483  23.724   4.102  0.0999  0.4024 -0.0735
    1DIPC   D3B27251  18.421  23.803   4.552 -0.1229  0.3020 -0.0607
    1DIPC   C4B27252  18.669  23.605   4.879  0.4168 -0.2111 -0.0245
    1DIPC   NC327253  28.046  14.558   2.286  0.1020 -0.2501  0.3486
    1DIPC   PO427254  28.008  15.042   2.303  0.2232 -0.1194  0.0063
    1DIPC   GL127255  28.015  15.007   2.717  0.0847  0.4085 -0.1786
    1DIPC   GL227256  27.780  14.843   2.859 -0.2997  0.2732 -0.0767
    1DIPC   C1A27257  28.123  15.269   3.047 -0.0218 -0.0588 -0.0335
    1DIPC   D2A27258  27.849  15.497   3.260 -0.5870  0.0621 -0.0343
    1DIPC   D3A27259  27.548  15.238   3.017  0.1955  0.0848  0.0859
    1DIPC   C4A27260  27.095  15.243   3.053 -0.0279  0.0214  0.0185
    1DIPC   C1B27261  28.087  14.709   3.141 -0.2088 -0.4161  0.1703
    1DIPC   D2B27262  28.019  14.896   3.451  0.0261 -0.2225 -0.1282
    1DIPC   D3B27263  28.386  15.219   3.495  0.1525 -0.2709  0.4121
    1DIPC   C4B27264  28.576  15.370   3.852 -0.0347  0.4058 -0.0107
    1DIPC   NC327265  24.935   0.699   2.970 -0.3470  0.2968 -0.2591
    1DIPC   PO427266  25.247   0.457   3.208 -0.1161 -0.1873 -0.0175
    1DIPC   GL127267  25.333   0.362   3.652 -0.0061 -0.1884  0.1232
    1DIPC   GL227268  25.591   0.461   3.852 -0.0633  0.3443  0.2602
    1DIPC   C1A27269  25.292  -0.085   3.829  0.2614 -0.0784 -0.0448
    1DIPC   D2A27270  25.620  -0.247   4.143  0.3136  0.0220  0.2505
    1DIPC   D3A27271  25.366  -0.009   4.449 -0.1003  0.0649  0.2289
    1DIPC   C4A27272  25.431   0.232   4.808  0.1761  0.0172 -0.1465
    1DIPC   C1B27273  25.252   0.336   4.150  0.0428 -0.0335 -0.2409
    1DIPC   D2B27274  25.248   0.661   4.593 -0.0065 -0.0730 -0.2241
    1DIPC   D3B27275  24.916   0.463   4.987  0.0803  0.0250 -0.0502
    1DIPC   C4B27276  24.925   0.524   5.490 -0.2036 -0.1583  0.0551
    1DIPC   NC327277  25.937  22.561   2.759 -0.3322 -0.0957 -0.2111
    1DIPC   PO427278  26.078  23.021   2.741 -0.0773 -0.2137 -0.0798
    1DIPC   GL127279  26.088  23.270   3.108 -0.0861  0.1886  0.2581
    1DIPC   GL227280  25.915  23.176   3.387  0.1457  0.1278  0.0062
    1DIPC   C1A27281  26.345  23.466   3.421  0.1185  0.0368  0.0775
    1DIPC   D2A27282  26.575  23.747   3.760  0.0704 -0.0030  0.1104
    1DIPC   D3A27283  26.958  23.780   3.986  0.2623  0.0593 -0.1983
    1DIPC   C4A27284  27.048  23.922   4.405 -0.0479  0.1685 -0.3150
    1DIPC   C1B27285  26.077  22.962   3.637  0.3184  0.0482 -0.1416
    1DIPC   D2B27286  26.538  22.954   3.620 -0.0761 -0.0679  0.2598
    1DIPC   D3B27287  26.865  23.344   3.666 -0.1967  0.3433 -0.0440
    1DIPC   C4B27288  27.013  23.684   3.400  0.1054 -0.1688  0.0326
    1DIPC   NC327289  13.638  23.376   2.263 -0.0310  0.0429  0.3041
    1DIPC   PO427290  13.986  23.512   2.217 -0.0181  0.1988  0.3058
    1DIPC   GL127291  13.875  23.445   2.727  0.2526  0.0852  0.1290
    1DIPC   GL227292  13.990  23.684   2.935 -0.0698 -0.1361  0.0303
    1DIPC   C1A27293  13.428  23.350   2.905  0.0793 -0.0537 -0.0489
    1DIPC   D2A27294  13.324  23.098   3.215 -0.0061 -0.0955 -0.2036
    1DIPC   D3A27295  13.194  23.454   3.365 -0.0295  0.0961  0.0391
    1DIPC   C4A27296  13.371  23.460   3.741 -0.2101 -0.1473 -0.2181
    1DIPC   C1B27297  14.245  23.747   3.332 -0.2902 -0.1668  0.0129
    1DIPC   D2B27298  14.532  23.720   3.758  0.1346 -0.1100 -0.0969
    1DIPC   D3B27299  14.289  23.668   4.140 -0.2236 -0.0168 -0.0465
    1DIPC   C4B27300  14.382  23.937   4.532  0.0015  0.1378 -0.2948
    1DIPC   NC327301   2.153  28.260   2.700 -0.0299 -0.1328 -0.1609
    1DIPC   PO427302   1.718  28.364   2.814  0.2127  0.2886 -0.0127
    1DIPC   GL127303   1.784  27.975   3.021 -0.4353 -0.0916  0.1927
    1DIPC   GL227304   1.895  27.690   2.882 -0.2022 -0.0744 -0.3655
    1DIPC   C1A27305   1.801  28.157   3.418  0.0599  0.4536 -0.1775
    1DIPC   D2A27306   1.502  28.434   3.428 -0.2110 -0.1349 -0.1104
    1DIPC   D3A27307   1.313  28.059   3.541  0.3465 -0.0794 -0.1053
    1DIPC   C4A27308   1.317  27.919   3.924  0.0170  0.0339  0.0807
    1DIPC   C1B27309   1.991  27.375   3.152 -0.2787 -0.1869 -0.1259
    1DIPC   D2B27310   2.211  27.139   3.374 -0.2633  0.1013  0.0281
    1DIPC   D3B27311   2.060  27.332   3.688 -0.1066  0.1666  0.1588
    1DIPC   C4B27312   1.907  27.243   4.140 -0.2767 -0.0866  0.0776
    1DIPC   NC327313   2.514  15.000   2.402 -0.3653 -0.4414 -0.0918
    1DIPC   PO427314   2.529  15.476   2.411 -0.3628 -0.0291  0.1446
    1DIPC   GL127315   2.352  15.402   2.698 -0.0467  0.0081  0.0645
    1DIPC   GL227316   2.545  15.160   2.937  0.3976  0.0558  0.0539
    1DIPC   C1A27317   2.129  15.711   2.976  0.2844 -0.1877 -0.0039
    1DIPC   D2A27318   1.888  15.935   3.337  0.0076 -0.0539 -0.0999
    1DIPC   D3A27319   1.995  15.533   3.563  0.1401  0.2877  0.0527
    1DIPC   C4A27320   2.150  15.108   3.412  0.3625 -0.1076  0.1814
    1DIPC   C1B27321   2.571  14.883   3.230 -0.2071  0.0080  0.0250
    1DIPC   D2B27322   2.925  14.692   3.484  0.0408 -0.1658 -0.3713
    1DIPC   D3B27323   3.149  14.765   3.853  0.3888 -0.0410  0.1331
    1DIPC   C4B27324   2.952  14.995   4.175 -0.1118  0.0218 -0.2467
    1DIPC   NC327325  20.338  23.298   2.939  0.1882  0.4159 -0.0339
    1DIPC   PO427326  20.465  23.064   3.224 -0.2526  0.1824 -0.0811
    1DIPC   GL127327  20.362  22.853   3.549  0.0254 -0.1390  0.1226
    1DIPC   GL227328  20.130  23.003   3.713 -0.1466  0.1805  0.1400
    1DIPC   C1A27329  20.560  22.718   3.937  0.0849  0.0398  0.2788
    1DIPC   D2A27330  20.608  22.824   4.426  0.0876  0.0696 -0.1527
    1DIPC   D3A27331  20.623  23.281   4.406  0.0372  0.0794  0.1269
    1DIPC   C4A27332  20.604  23.584   4.784 -0.1528 -0.0930 -0.0827
    1DIPC   C1B27333  20.192  22.947   4.161  0.1527 -0.2542  0.0412
    1DIPC   D2B27334  20.137  23.207   4.480 -0.1589  0.1263  0.1188
    1DIPC   D3B27335  20.286  22.862   4.788  0.1536  0.0152  0.1554
    1DIPC   C4B27336  20.436  23.011   5.151 -0.0023  0.1536  0.0858
    1DIPC   NC327337  24.998   0.772   3.497  0.2007 -0.1077 -0.2674
    1DIPC   PO427338  24.612   0.739   3.719  0.4192  0.1446 -0.0024
    1DIPC   GL127339  24.180   0.580   3.894  0.0610 -0.0102 -0.1596
    1DIPC   GL227340  24.129   0.271   3.929 -0.0192 -0.0995  0.0172
    1DIPC   C1A27341  23.994   0.620   4.294 -0.0604 -0.2027 -0.0577
    1DIPC   D2A27342  23.867   0.523   4.732 -0.2197 -0.1923  0.1526
    1DIPC   D3A27343  24.070   0.147   4.934 -0.2877  0.0948 -0.0276
    1DIPC   C4A27344  23.967  -0.053   5.180  0.0727 -0.2041 -0.1906
    1DIPC   C1B27345  23.737   0.180   4.236 -0.0435 -0.0650 -0.0058
    1DIPC   D2B27346  23.328   0.390   4.135 -0.0802 -0.3130  0.1441
    1DIPC   D3B27347  23.510   0.608   4.384 -0.1968 -0.0175  0.3750
    1DIPC   C4B27348  23.396   0.548   4.841  0.1945 -0.0883  0.2080
    1DIPC   NC327349  22.668  26.231   2.389  0.0917  0.0271 -0.1077
    1DIPC   PO427350  22.495  25.951   2.773  0.1204 -0.0321 -0.0345
    1DIPC   GL127351  22.463  25.931   3.233 -0.0788 -0.0041  0.1577
    1DIPC   GL227352  22.692  25.818   3.433 -0.1644 -0.0842  0.0595
    1DIPC   C1A27353  22.245  25.753   3.572 -0.0492 -0.1241 -0.0499
    1DIPC   D2A27354  21.898  25.819   3.832 -0.0072  0.1010  0.0793
    1DIPC   D3A27355  21.656  25.707   3.525 -0.1411  0.0615  0.0500
    1DIPC   C4A27356  21.554  25.371   3.514  0.3952  0.0861 -0.1846
    1DIPC   C1B27357  22.770  25.950   3.844 -0.1343 -0.1107  0.0399
    1DIPC   D2B27358  23.024  25.919   4.201 -0.0733 -0.2515 -0.2552
    1DIPC   D3B27359  22.782  26.205   4.326  0.2074 -0.0325 -0.0776
    1DIPC   C4B27360  22.976  26.451   4.758  0.0291  0.3565 -0.0304
    1DIPC   NC327361  19.542   5.403   2.406  0.2265  0.0574  0.2041
    1DIPC   PO427362  19.827   4.995   2.582 -0.0048  0.2308 -0.1620
    1DIPC   GL127363  19.838   4.853   2.974  0.0646  0.0672  0.0075
    1DIPC   GL227364  20.015   5.053   3.212 -0.1948  0.0885 -0.1944
    1DIPC   C1A27365  19.935   4.539   3.338  0.2364  0.4361  0.3637
    1DIPC   D2A27366  20.176   4.362   3.660  0.1617 -0.3041 -0.0460
    1DIPC   D3A27367  20.056   4.718   3.885 -0.0699  0.2899 -0.0577
    1DIPC   C4A27368  20.520   4.899   4.230 -0.1584  0.0142  0.0681
    1DIPC   C1B27369  19.620   4.963   3.491  0.0077  0.1062 -0.0415
    1DIPC   D2B27370  19.235   4.975   3.628  0.2048 -0.2083  0.1200
    1DIPC   D3B27371  18.853   4.868   3.306 -0.2830 -0.0728  0.0394
    1DIPC   C4B27372  18.539   4.609   3.444 -0.2567 -0.6524  0.0148
    1DIPC   NC327373   9.750   5.848   3.701  0.1981  0.2808  0.3627
    1DIPC   PO427374   9.431   5.637   3.708 -0.2327 -0.0141  0.2422
    1DIPC   GL127375   9.045   5.879   3.803  0.0445  0.0864 -0.0266
    1DIPC   GL227376   8.961   5.815   4.164  0.1590 -0.0579 -0.0838
    1DIPC   C1A27377   8.960   6.313   4.049  0.1191 -0.2487 -0.0819
    1DIPC   D2A27378   9.114   6.706   4.245  0.2326 -0.2554  0.3410
    1DIPC   D3A27379   9.095   6.588   4.647  0.0152  0.1906 -0.0295
    1DIPC   C4A27380   8.783   6.310   4.919 -0.1845 -0.2572  0.2795
    1DIPC   C1B27381   8.818   5.713   4.572 -0.2964 -0.1945  0.0597
    1DIPC   D2B27382   8.842   5.820   4.966 -0.1278  0.0966  0.2690
    1DIPC   D3B27383   9.280   5.801   4.968 -0.1615  0.0538  0.1089
    1DIPC   C4B27384   9.411   5.464   5.241 -0.3172 -0.3974 -0.1541
    1DIPC   NC327385   9.936   1.036   3.189  0.3067  0.2057 -0.3475
    1DIPC   PO427386   9.623   0.896   3.062 -0.2904 -0.0254 -0.3897
    1DIPC   GL127387   9.704   0.763   3.548  0.1142 -0.2832  0.1015
    1DIPC   GL227388   9.957   0.676   3.526 -0.3241  0.0068 -0.1134
    1DIPC   C1A27389   9.493   0.792   3.912  0.3981  0.1104 -0.1903
    1DIPC   D2A27390   9.493   1.218   4.255  0.0603 -0.0659  0.2509
    1DIPC   D3A27391   9.785   1.221   4.516  0.0780 -0.0158  0.0853
    1DIPC   C4A27392  10.102   0.870   4.599  0.0430 -0.0357 -0.0234
    1DIPC   C1B27393  10.267   0.625   3.855  0.0875  0.1396 -0.1903
    1DIPC   D2B27394  10.465   0.825   4.175  0.0865 -0.2311 -0.2305
    1DIPC   D3B27395  10.599   0.384   4.219  0.2310  0.0860  0.1392
    1DIPC   C4B27396  10.894   0.274   4.324 -0.0846 -0.0904 -0.1405
    1DIPC   NC327397  23.976   8.778   3.366  0.0997  0.3882  0.1676
    1DIPC   PO427398  23.560   8.584   3.132  0.1361 -0.2978 -0.0775
    1DIPC   GL127399  23.329   8.635   3.505 -0.3079 -0.0705 -0.0719
    1DIPC   GL227400  23.565   8.671   3.751 -0.0218  0.0668  0.1380
    1DIPC   C1A27401  23.123   9.031   3.641  0.0267  0.2645 -0.3040
    1DIPC   D2A27402  22.971   9.335   3.977  0.1647  0.1544  0.2417
    1DIPC   D3A27403  22.964   9.277   4.355  0.3073 -0.1369 -0.0130
    1DIPC   C4A27404  22.597   9.201   4.572 -0.1035  0.1571 -0.0773
    1DIPC   C1B27405  23.789   8.795   4.063 -0.1154  0.0250  0.2888
    1DIPC   D2B27406  23.850   8.899   4.528 -0.0153 -0.1265 -0.0933
    1DIPC   D3B27407  23.743   8.665   4.814 -0.0735  0.0421 -0.1810
    1DIPC   C4B27408  23.952   8.362   5.033 -0.2339  0.1400 -0.2835
    1DIPC   NC327409   9.808   2.172   3.304  0.3152 -0.0413 -0.0888
    1DIPC   PO427410  10.277   2.002   3.142  0.0818  0.1385  0.1090
    1DIPC   GL127411  10.261   2.038   3.565 -0.1086  0.1263  0.1227
    1DIPC   GL227412  10.124   2.223   3.781 -0.0604  0.2179 -0.3913
    1DIPC   C1A27413  10.220   1.671   3.819  0.1453  0.0158  0.1667
    1DIPC   D2A27414   9.827   1.565   4.165 -0.2867 -0.1206  0.2729
    1DIPC   D3A27415  10.137   1.713   4.441  0.1133 -0.1448  0.0208
    1DIPC   C4A27416  10.544   1.738   4.547  0.2100  0.2619  0.2599
    1DIPC   C1B27417   9.921   2.089   4.230 -0.3639 -0.4833  0.3745
    1DIPC   D2B27418   9.711   2.283   4.529 -0.0370  0.0185 -0.1942
    1DIPC   D3B27419   9.418   2.582   4.678 -0.3166 -0.2304  0.1693
    1DIPC   C4B27420   9.272   2.610   5.037 -0.0157 -0.0806  0.0628
    1DIPC   NC327421   7.619   1.892   3.233  0.4635 -0.0564  0.2139
    1DIPC   PO427422   8.056   1.849   3.434 -0.1450 -0.2461  0.0996
    1DIPC   GL127423   7.990   1.717   3.803  0.1625  0.3062  0.1480
    1DIPC   GL227424   8.265   1.659   4.022 -0.0535  0.1132 -0.0009
    1DIPC   C1A27425   7.680   1.577   4.128 -0.0856 -0.1304 -0.0413
    1DIPC   D2A27426   7.434   1.766   4.447 -0.0697  0.1148 -0.1347
    1DIPC   D3A27427   7.104   1.580   4.534 -0.1241  0.1403  0.4908
    1DIPC   C4A27428   7.082   1.251   4.889 -0.2919 -0.1852  0.0730
    1DIPC   C1B27429   8.359   1.772   4.385 -0.0207 -0.2435  0.1813
    1DIPC   D2B27430   8.517   1.578   4.609 -0.3385  0.1437  0.1342
    1DIPC   D3B27431   8.277   1.725   4.920  0.0185  0.0646 -0.2225
    1DIPC   C4B27432   8.370   1.820   5.267  0.2586  0.0125  0.0961
    1DIPC   NC327433  28.905   9.422   2.632 -0.2077 -0.0713 -0.2862
    1DIPC   PO427434  29.299   9.699   2.775 -0.0026 -0.1089 -0.0468
    1DIPC   GL127435  29.263   9.806   3.259 -0.1533 -0.1723  0.0475
    1DIPC   GL227436  29.172  10.067   3.242 -0.0316  0.0551  0.0197
    1DIPC   C1A27437  29.237   9.903   3.720  0.0938  0.1612 -0.0400
    1DIPC   D2A27438  29.086   9.936   4.144  0.2117  0.1037  0.2773
    1DIPC   D3A27439  28.796  10.071   4.353 -0.0127 -0.1929 -0.0870
    1DIPC   C4A27440  28.752  10.436   4.451  0.0599  0.1803  0.2079
    1DIPC   C1B27441  29.203  10.444   3.571  0.4151  0.1600  0.1236
    1DIPC   D2B27442  29.001  10.430   3.975  0.4429  0.0225  0.2330
    1DIPC   D3B27443  29.027  10.820   4.234 -0.0536  0.0174 -0.3069
    1DIPC   C4B27444  29.076  11.193   4.308  0.0515  0.3424  0.4556
    1DIPC   NC327445  21.622   9.594   2.698  0.2326 -0.1110 -0.1772
    1DIPC   PO427446  21.228   9.451   2.402  0.0716  0.0514 -0.3017
    1DIPC   GL127447  21.100   9.411   2.832  0.1040 -0.3360  0.1862
    1DIPC   GL227448  21.083   9.688   2.902 -0.1705 -0.1455  0.2210
    1DIPC   C1A27449  20.996   9.027   3.139 -0.0286  0.0218  0.1682
    1DIPC   D2A27450  21.177   8.632   3.032  0.5468 -0.0933 -0.1123
    1DIPC   D3A27451  21.168   8.878   3.559  0.1855  0.4543 -0.1967
    1DIPC   C4A27452  20.959   8.669   3.856 -0.2780 -0.0988 -0.3133
    1DIPC   C1B27453  20.657   9.818   3.049  0.0146 -0.0509  0.0479
    1DIPC   D2B27454  20.240   9.658   3.141  0.0911 -0.0662  0.1609
    1DIPC   D3B27455  20.485   9.804   3.562 -0.1534 -0.1401  0.2296
    1DIPC   C4B27456  20.848   9.497   3.657 -0.2182  0.1890  0.0975
    1DIPC   NC327457  20.303  29.446   3.157 -0.1227  0.1612 -0.1296
    1DIPC   PO427458  20.488  29.008   3.204 -0.4169  0.0668  0.2549
    1DIPC   GL127459  20.479  28.785   3.485  0.0716  0.0161  0.0210
    1DIPC   GL227460  20.774  28.574   3.537  0.1353  0.0880 -0.0862
    1DIPC   C1A27461  20.147  28.802   3.749 -0.0444  0.2131 -0.1981
    1DIPC   D2A27462  19.790  28.911   4.061 -0.3598  0.1140 -0.1308
    1DIPC   D3A27463  19.713  28.910   4.500 -0.1055  0.2465 -0.3396
    1DIPC   C4A27464  20.033  28.851   4.766  0.1575 -0.0806  0.2242
    1DIPC   C1B27465  20.627  28.633   3.992 -0.1318 -0.0150  0.1710
    1DIPC   D2B27466  20.424  29.034   4.052  0.1522 -0.5779 -0.2305
    1DIPC   D3B27467  20.196  29.054   4.337  0.0230  0.1072 -0.3197
    1DIPC   C4B27468  20.196  29.351   4.513  0.1146 -0.0500 -0.0534
    1DIPC   NC327469   2.904  20.219   2.054 -0.2514 -0.0533 -0.3831
    1DIPC   PO427470   2.848  20.677   2.235  0.0381  0.0591 -0.1176
    1DIPC   GL127471   2.676  20.613   2.731 -0.0940  0.2054 -0.1357
    1DIPC   GL227472   2.790  20.306   2.974 -0.1336 -0.1004 -0.3585
    1DIPC   C1A27473   2.682  20.736   3.229  0.1601  0.3441 -0.2466
    1DIPC   D2A27474   2.656  20.878   3.493  0.0117  0.3425  0.1300
    1DIPC   D3A27475   2.523  20.606   3.848 -0.3957 -0.0780 -0.0300
    1DIPC   C4A27476   2.936  20.400   4.006  0.2261 -0.2300 -0.2164
    1DIPC   C1B27477   3.191  20.445   3.010 -0.0666 -0.2581 -0.2730
    1DIPC   D2B27478   3.493  20.295   3.267 -0.0484 -0.1747  0.0111
    1DIPC   D3B27479   3.372  20.250   3.700 -0.1664 -0.2172  0.1169
    1DIPC   C4B27480   3.568  19.993   3.943  0.1875  0.0418 -0.3302
    1DIPC   NC327481   1.363   6.827   3.093 -0.2319  0.1989 -0.1334
    1DIPC   PO427482   1.298   6.430   3.360  0.0022  0.1113  0.3382
    1DIPC   GL127483   1.438   6.426   3.769  0.0103  0.0524  0.1644
    1DIPC   GL227484   1.335   6.186   3.897 -0.0479  0.2149 -0.0487
    1DIPC   C1A27485   1.527   6.536   4.189 -0.1863 -0.2991  0.0730
    1DIPC   D2A27486   1.449   6.510   4.560 -0.0247 -0.2099 -0.1632
    1DIPC   D3A27487   1.171   6.736   4.812  0.0314  0.1570 -0.0112
    1DIPC   C4A27488   1.089   7.103   4.739 -0.1334 -0.1903  0.0048
    1DIPC   C1B27489   1.505   5.787   3.823 -0.0323 -0.2219  0.3957
    1DIPC   D2B27490   1.398   5.267   3.786  0.0856  0.0406  0.0126
    1DIPC   D3B27491   1.105   5.026   3.993  0.0482 -0.0953 -0.2084
    1DIPC   C4B27492   1.158   4.810   4.364  0.0250 -0.2013 -0.0436
    1DIPC   NC327493  17.317   9.342   2.347  0.1253 -0.1363 -0.3650
    1DIPC   PO427494  17.132   9.663   2.486 -0.0011 -0.0749 -0.0708
    1DIPC   GL127495  17.347   9.786   2.857  0.1746  0.0781  0.3000
    1DIPC   GL227496  17.527  10.025   2.913 -0.2371 -0.0747  0.0856
    1DIPC   C1A27497  17.430   9.664   3.266  0.0265 -0.0099 -0.0886
    1DIPC   D2A27498  17.506   9.656   3.671 -0.0177  0.1054  0.0036
    1DIPC   D3A27499  17.979   9.618   3.836  0.1387 -0.0749 -0.1481
    1DIPC   C4A27500  18.356   9.697   3.518 -0.1005  0.2203  0.3637
    1DIPC   C1B27501  17.110  10.068   3.146 -0.0096  0.0939 -0.2656
    1DIPC   D2B27502  16.738   9.770   3.326 -0.3649  0.0221  0.2869
    1DIPC   D3B27503  16.970   9.473   3.534  0.1405 -0.0530  0.0246
    1DIPC   C4B27504  17.114   9.479   3.958 -0.1603 -0.3059  0.0432
    1DIPC   NC327505  26.186  26.530   2.962 -0.0466  0.0188 -0.2808
    1DIPC   PO427506  26.216  26.147   3.147 -0.0362  0.0899 -0.1574
    1DIPC   GL127507  26.225  26.017   3.578  0.2371 -0.1302  0.0624
    1DIPC   GL227508  26.425  25.695   3.546 -0.0092  0.1926 -0.0431
    1DIPC   C1A27509  26.180  26.001   3.995 -0.0728 -0.3623 -0.0267
    1DIPC   D2A27510  25.980  26.036   4.326 -0.0202 -0.0930  0.0953
    1DIPC   D3A27511  26.235  26.030   4.794 -0.0111 -0.0630  0.1477
    1DIPC   C4A27512  26.276  26.239   5.114 -0.2040  0.0810 -0.0744
    1DIPC   C1B27513  26.645  25.243   3.597  0.0256  0.1271 -0.4184
    1DIPC   D2B27514  26.990  25.120   3.783  0.2271  0.0279 -0.0333
    1DIPC   D3B27515  26.990  25.249   4.076 -0.0112 -0.2168 -0.3905
    1DIPC   C4B27516  27.263  25.273   4.282 -0.1774  0.0278 -0.0793
    1DIPC   NC327517  11.637   8.152   2.790 -0.1591 -0.0137 -0.0356
    1DIPC   PO427518  12.077   8.284   2.881  0.3367  0.2953 -0.0786
    1DIPC   GL127519  11.904   8.098   3.252 -0.0630  0.0070  0.1039
    1DIPC   GL227520  11.932   8.403   3.457  0.1347 -0.0339  0.0220
    1DIPC   C1A27521  11.785   7.922   3.585 -0.0990 -0.2656 -0.0084
    1DIPC   D2A27522  11.368   7.680   3.635  0.1719  0.1309 -0.0124
    1DIPC   D3A27523  11.273   7.828   4.064 -0.2904  0.2643 -0.0403
    1DIPC   C4A27524  11.255   7.992   4.481 -0.0403 -0.0530  0.0471
    1DIPC   C1B27525  12.203   8.642   3.732  0.0251  0.0830 -0.2047
    1DIPC   D2B27526  12.413   8.597   4.090  0.2201 -0.0426  0.1363
    1DIPC   D3B27527  12.211   8.876   4.386  0.1897  0.0656 -0.1430
    1DIPC   C4B27528  12.060   9.003   4.892 -0.0261 -0.0171  0.0345
    1DIPC   NC327529  26.713   7.951   2.754 -0.0065 -0.3524 -0.1839
    1DIPC   PO427530  26.771   8.355   2.975  0.1897  0.2773 -0.1738
    1DIPC   GL127531  26.652   8.179   3.420  0.0419 -0.0799 -0.1196
    1DIPC   GL227532  26.911   8.095   3.660 -0.0511 -0.1030 -0.0878
    1DIPC   C1A27533  26.393   8.136   3.802  0.0636  0.1818  0.0481
    1DIPC   D2A27534  26.170   8.440   4.103 -0.2525  0.2335 -0.2802
    1DIPC   D3A27535  26.310   8.677   4.449  0.2048  0.1388 -0.0275
    1DIPC   C4A27536  26.700   8.841   4.558 -0.2837  0.1456  0.0811
    1DIPC   C1B27537  27.206   8.187   4.042 -0.0125 -0.0864  0.1359
    1DIPC   D2B27538  27.052   8.525   4.430  0.1215 -0.0199  0.0581
    1DIPC   D3B27539  27.476   8.578   4.415  0.1982 -0.2502  0.1186
    1DIPC   C4B27540  27.572   8.580   4.807 -0.0249  0.1724 -0.0441
    1DIPC   NC327541  22.679   3.538   3.319 -0.0252 -0.1024 -0.0469
    1DIPC   PO427542  22.921   3.899   3.316 -0.1174 -0.0216  0.1985
    1DIPC   GL127543  22.761   3.797   3.723 -0.1011 -0.0953  0.3516
    1DIPC   GL227544  22.506   3.529   3.775 -0.0304 -0.1164 -0.1654
    1DIPC   C1A27545  22.493   3.892   4.136  0.1609  0.1936 -0.0458
    1DIPC   D2A27546  22.200   3.824   4.489 -0.1184  0.0605  0.1264
    1DIPC   D3A27547  22.137   4.209   4.359 -0.1437  0.1898  0.0578
    1DIPC   C4A27548  22.367   4.600   4.472  0.0139 -0.1456 -0.3062
    1DIPC   C1B27549  22.753   3.344   4.058  0.2854 -0.2071  0.0534
    1DIPC   D2B27550  22.954   3.199   4.375 -0.0933  0.4764 -0.0266
    1DIPC   D3B27551  22.683   3.231   4.736 -0.3166 -0.0264 -0.0105
    1DIPC   C4B27552  22.240   3.122   4.797  0.0738  0.1085  0.0373
    1DIPC   NC327553  29.643   2.299   2.952 -0.0668 -0.1599  0.1830
    1DIPC   PO427554  29.732   2.701   3.143 -0.1845  0.2028  0.1482
    1DIPC   GL127555  29.467   2.346   3.376 -0.0328  0.1488 -0.0773
    1DIPC   GL227556  29.578   2.534   3.621 -0.0641 -0.2852  0.0876
    1DIPC   C1A27557  29.379   2.001   3.552 -0.0439  0.2515  0.0718
    1DIPC   D2A27558  29.307   1.711   3.931  0.1386  0.0722 -0.0015
    1DIPC   D3A27559  29.407   1.402   4.224  0.0760 -0.3783  0.1148
    1DIPC   C4A27560  29.501   1.252   4.632  0.0902  0.0820 -0.3689
    1DIPC   C1B27561  29.494   2.702   4.091  0.2084 -0.2154  0.1565
    1DIPC   D2B27562  29.270   2.639   4.577 -0.2654 -0.3001  0.2095
    1DIPC   D3B27563  29.645   2.907   4.782  0.1639  0.0187 -0.0606
    1DIPC   C4B27564  30.038   2.890   4.815  0.4999 -0.0766  0.2604
    1DIPC   NC327565  14.238  28.645   3.597  0.3848  0.2328 -0.0590
    1DIPC   PO427566  13.853  28.371   3.419  0.4367  0.3640 -0.1605
    1DIPC   GL127567  13.918  28.400   3.973 -0.2175 -0.4524  0.1372
    1DIPC   GL227568  14.255  28.343   4.033 -0.0674 -0.1892 -0.1075
    1DIPC   C1A27569  13.986  28.674   4.310  0.3137  0.2147  0.4937
    1DIPC   D2A27570  14.022  28.551   4.757  0.0332  0.1607 -0.0909
    1DIPC   D3A27571  13.751  28.951   4.884 -0.0763 -0.2522  0.0419
    1DIPC   C4A27572  13.406  29.052   5.127  0.0802  0.4550  0.1828
    1DIPC   C1B27573  14.353  27.873   3.991 -0.4258 -0.0048  0.2264
    1DIPC   D2B27574  14.352  27.667   4.288 -0.0823 -0.0445  0.0245
    1DIPC   D3B27575  14.160  27.751   4.616 -0.0381  0.0951  0.4106
    1DIPC   C4B27576  13.792  27.567   4.805 -0.0621 -0.0753 -0.0569
    1DIPC   NC327577  22.437  28.053   2.702 -0.0939 -0.0358  0.1260
    1DIPC   PO427578  22.626  27.954   3.096  0.4080  0.1578 -0.0923
    1DIPC   GL127579  22.531  27.909   3.469  0.3199  0.3850 -0.0732
    1DIPC   GL227580  22.805  27.947   3.668  0.1226  0.3317  0.2001
    1DIPC   C1A27581  22.294  27.731   3.762  0.2495 -0.0658 -0.2989
    1DIPC   D2A27582  21.872  27.619   3.980 -0.0399  0.1551 -0.0535
    1DIPC   D3A27583  22.095  27.519   4.332 -0.1673 -0.0193 -0.3707
    1DIPC   C4A27584  22.041  27.793   4.652 -0.2663 -0.0946 -0.0025
    1DIPC   C1B27585  22.670  27.771   4.108 -0.0876  0.3552 -0.2833
    1DIPC   D2B27586  22.662  27.842   4.531  0.1248  0.2261 -0.0618
    1DIPC   D3B27587  22.691  27.922   4.928 -0.1067 -0.0869  0.3151
    1DIPC   C4B27588  22.285  27.691   5.054  0.2190 -0.2891 -0.0196
    1DIPC   NC327589  23.988  27.859   3.128 -0.3999 -0.0055  0.0240
    1DIPC   PO427590  23.649  28.268   3.107 -0.0564 -0.1087  0.1369
    1DIPC   GL127591  23.747  28.103   3.485 -0.1200  0.0198 -0.5251
    1DIPC   GL227592  23.530  28.107   3.628 -0.1342 -0.0611 -0.1627
    1DIPC   C1A27593  24.134  28.232   3.837 -0.1123  0.1089  0.1104
    1DIPC   D2A27594  24.095  28.357   4.282  0.0524  0.0629 -0.2719
    1DIPC   D3A27595  24.223  28.298   4.690  0.0757  0.0349 -0.2028
    1DIPC   C4A27596  24.582  28.319   4.890 -0.0552  0.0711  0.0113
    1DIPC   C1B27597  23.631  28.383   4.016 -0.2728  0.3090  0.0172
    1DIPC   D2B27598  23.598  28.421   4.460 -0.1669 -0.1676  0.0112
    1DIPC   D3B27599  23.601  28.978   4.667  0.1559  0.1669  0.0472
    1DIPC   C4B27600  23.787  29.256   4.455  0.2110  0.1552 -0.0448
    1DIPC   NC327601  22.437   9.142   2.463  0.0278 -0.1234  0.0548
    1DIPC   PO427602  22.710   9.169   2.883  0.0072  0.1581 -0.0466
    1DIPC   GL127603  22.495   9.200   3.246 -0.0553  0.0902  0.0776
    1DIPC   GL227604  22.258   9.403   3.302  0.1324  0.0755 -0.1108
    1DIPC   C1A27605  22.667   8.960   3.553  0.2594  0.0885 -0.1737
    1DIPC   D2A27606  22.808   8.858   3.966 -0.1480 -0.1583  0.2703
    1DIPC   D3A27607  22.815   8.792   4.373  0.0550 -0.2267 -0.0511
    1DIPC   C4A27608  22.988   8.431   4.406  0.2540 -0.2351  0.0997
    1DIPC   C1B27609  22.280   9.195   3.715 -0.0731  0.0344  0.0323
    1DIPC   D2B27610  22.469   9.412   4.054  0.2236 -0.2541  0.2509
    1DIPC   D3B27611  22.231   9.811   3.769  0.1541  0.0062 -0.0496
    1DIPC   C4B27612  22.378  10.238   3.844  0.0964 -0.2011 -0.1543
    1DIPC   NC327613  27.710  21.808   2.870  0.2035 -0.2162 -0.0231
    1DIPC   PO427614  27.871  21.427   2.989 -0.0920 -0.2371  0.1325
    1DIPC   GL127615  27.980  21.209   3.354 -0.1882 -0.0154  0.0733
    1DIPC   GL227616  28.287  21.232   3.259 -0.0647  0.3299  0.3033
    1DIPC   C1A27617  27.854  21.068   3.840 -0.1184 -0.2967 -0.2690
    1DIPC   D2A27618  28.041  20.928   4.200 -0.3010 -0.1264  0.0454
    1DIPC   D3A27619  27.887  21.259   4.545 -0.1925  0.0461  0.2145
    1DIPC   C4A27620  27.643  21.253   4.813 -0.3745 -0.0901 -0.2754
    1DIPC   C1B27621  28.298  21.321   3.704 -0.1245 -0.6523  0.0680
    1DIPC   D2B27622  28.423  21.232   4.121 -0.0118 -0.1467  0.1474
    1DIPC   D3B27623  28.395  21.123   4.508  0.0332 -0.2137 -0.3672
    1DIPC   C4B27624  28.586  20.699   4.630 -0.2508  0.1500  0.0032
    1DIPC   NC327625  29.748  12.249   2.263 -0.3607  0.0726 -0.0761
    1DIPC   PO427626  29.736  11.866   2.577 -0.3167 -0.1713  0.0433
    1DIPC   GL127627  30.004  11.897   2.985  0.0271  0.2625  0.0412
    1DIPC   GL227628  30.204  11.661   3.122  0.2365 -0.1166 -0.3321
    1DIPC   C1A27629  30.286  12.263   3.123  0.0118  0.1251  0.1207
    1DIPC   D2A27630  30.704  12.519   3.080  0.1508 -0.0126  0.0613
    1DIPC   D3A27631  30.884  12.802   3.475  0.3532 -0.0605 -0.0297
    1DIPC   C4A27632  31.080  12.581   3.840  0.1124 -0.0525 -0.1014
    1DIPC   C1B27633  29.876  11.803   3.437 -0.2500 -0.1569 -0.2990
    1DIPC   D2B27634  29.745  11.786   3.871 -0.0504 -0.1238  0.0310
    1DIPC   D3B27635  30.003  11.530   4.091 -0.0916 -0.0674  0.4593
    1DIPC   C4B27636  29.874  11.135   3.939  0.1759 -0.1935  0.1354
    1DIPC   NC327637  13.517   1.567   3.960 -0.0906  0.1336  0.0455
    1DIPC   PO427638  14.002   1.412   4.080 -0.3138 -0.3217 -0.0529
    1DIPC   GL127639  13.958   1.400   4.466 -0.1812 -0.0421 -0.1018
    1DIPC   GL227640  13.592   1.425   4.460 -0.0964  0.2085  0.0266
    1DIPC   C1A27641  13.797   1.494   4.934  0.0730 -0.0867  0.0967
    1DIPC   D2A27642  13.735   1.816   5.334  0.2292 -0.3727 -0.0445
    1DIPC   D3A27643  14.166   1.836   5.141 -0.0469  0.0459  0.1186
    1DIPC   C4A27644  14.391   2.070   4.975  0.0200 -0.4302 -0.3269
    1DIPC   C1B27645  13.289   1.588   4.825  0.1514  0.0812 -0.0884
    1DIPC   D2B27646  12.961   1.660   5.180  0.3679  0.1204 -0.2499
    1DIPC   D3B27647  13.162   1.437   5.555 -0.1929 -0.1119 -0.1005
    1DIPC   C4B27648  13.105   1.124   5.820 -0.1772 -0.1991 -0.0942
    1DIPC   NC327649  19.419   3.833   2.502  0.0731  0.0572 -0.0166
    1DIPC   PO427650  19.234   4.088   2.637  0.3051 -0.1780 -0.2937
    1DIPC   GL127651  19.389   4.005   3.046 -0.0133  0.1055 -0.0027
    1DIPC   GL227652  19.617   4.221   3.052 -0.0427  0.0109 -0.1444
    1DIPC   C1A27653  19.141   3.869   3.396 -0.2963 -0.0082  0.1509
    1DIPC   D2A27654  18.773   3.717   3.701 -0.0539  0.1113 -0.0042
    1DIPC   D3A27655  18.691   3.739   3.268 -0.0053  0.2073  0.0108
    1DIPC   C4A27656  18.470   3.327   3.191 -0.1449 -0.0109  0.0347
    1DIPC   C1B27657  19.519   4.312   3.419 -0.0709 -0.1247 -0.1574
    1DIPC   D2B27658  19.568   4.355   3.848 -0.0592  0.0232 -0.0669
    1DIPC   D3B27659  19.562   4.775   3.932  0.0708  0.1546 -0.0600
    1DIPC   C4B27660  19.468   4.932   4.267  0.4321  0.0101  0.0691
    1DIPC   NC327661  18.548  28.630   2.671  0.1867  0.2731  0.0665
    1DIPC   PO427662  18.707  28.881   3.099 -0.0462  0.0866  0.2419
    1DIPC   GL127663  18.682  28.884   3.493 -0.1904  0.1381  0.0733
    1DIPC   GL227664  19.025  28.849   3.616  0.3749  0.0280  0.1187
    1DIPC   C1A27665  18.717  29.104   3.863 -0.3731 -0.0357 -0.1084
    1DIPC   D2A27666  18.603  29.103   4.289 -0.1581  0.2103 -0.2577
    1DIPC   D3A27667  18.424  29.106   4.732  0.2461  0.1871 -0.0511
    1DIPC   C4A27668  18.635  29.013   5.044 -0.1813  0.2424  0.2183
    1DIPC   C1B27669  19.025  28.839   4.122  0.1434 -0.1202 -0.0523
    1DIPC   D2B27670  19.231  29.103   4.382  0.1547  0.2039  0.2647
    1DIPC   D3B27671  19.669  29.358   4.418  0.1813  0.3678 -0.0231
    1DIPC   C4B27672  19.697  29.827   4.465 -0.0621 -0.1155 -0.1759
    1DIPC   NC327673   2.315   8.506   2.656 -0.2050  0.1080 -0.0277
    1DIPC   PO427674   2.692   8.561   2.910 -0.0389 -0.0614 -0.1122
    1DIPC   GL127675   2.832   8.390   3.309 -0.3811 -0.3957  0.1315
    1DIPC   GL227676   2.513   8.418   3.513 -0.0299 -0.1035 -0.1453
    1DIPC   C1A27677   2.858   8.010   3.606  0.0114 -0.1360 -0.1809
    1DIPC   D2A27678   2.837   7.741   4.023  0.0847 -0.2360  0.2250
    1DIPC   D3A27679   2.806   7.761   4.558 -0.0237  0.0546  0.2129
    1DIPC   C4A27680   2.469   7.964   4.673  0.0779 -0.0397 -0.4610
    1DIPC   C1B27681   2.632   8.337   3.917 -0.0041  0.0977 -0.2192
    1DIPC   D2B27682   2.753   8.140   4.259  0.0686 -0.0765  0.2129
    1DIPC   D3B27683   2.969   8.258   4.671  0.0841  0.0506  0.0363
    1DIPC   C4B27684   2.763   8.171   5.018  0.1474 -0.0018 -0.1546
    1DIPC   NC327685   1.801  29.535   2.230 -0.2344 -0.0808 -0.1281
    1DIPC   PO427686   1.783  29.269   2.646 -0.0703  0.0370  0.1629
    1DIPC   GL127687   1.860  29.303   3.127 -0.0520  0.1562 -0.2288
    1DIPC   GL227688   2.031  29.641   3.111 -0.0816 -0.0810 -0.0869
    1DIPC   C1A27689   1.846  29.131   3.614 -0.1426 -0.0335  0.1522
    1DIPC   D2A27690   1.952  28.645   3.696 -0.2106  0.2641 -0.0120
    1DIPC   D3A27691   1.942  28.763   4.088  0.0738  0.1713 -0.0528
    1DIPC   C4A27692   2.012  28.440   4.414 -0.0084 -0.1504  0.3772
    1DIPC   C1B27693   1.659  29.819   3.343  0.3003  0.0672 -0.0492
    1DIPC   D2B27694   1.681  30.101   3.647 -0.0293  0.1554 -0.1826
    1DIPC   D3B27695   1.406  29.917   3.787 -0.1006 -0.0833 -0.0596
    1DIPC   C4B27696   1.026  29.979   3.596  0.0556  0.2404 -0.0458
    1DIPC   NC327697  29.315  16.167   2.725  0.1504  0.1653 -0.2468
    1DIPC   PO427698  29.323  15.690   2.617 -0.2394 -0.0310 -0.0219
    1DIPC   GL127699  29.017  15.763   2.965  0.4685  0.2081 -0.0826
    1DIPC   GL227700  28.754  16.088   2.911 -0.2412  0.0567  0.0495
    1DIPC   C1A27701  28.966  15.536   3.369  0.1982 -0.0455  0.1241
    1DIPC   D2A27702  29.140  15.514   3.724 -0.2351 -0.0033 -0.1120
    1DIPC   D3A27703  29.057  15.920   3.651  0.1906 -0.2754  0.0059
    1DIPC   C4A27704  28.720  16.255   3.813  0.1483 -0.3188 -0.1675
    1DIPC   C1B27705  28.670  16.004   3.367 -0.1577 -0.0483 -0.0349
    1DIPC   D2B27706  28.375  15.807   3.738 -0.0403 -0.0206 -0.2945
    1DIPC   D3B27707  28.077  15.509   3.697  0.0001 -0.1166 -0.0457
    1DIPC   C4B27708  28.080  15.211   3.936 -0.2292  0.2348 -0.4583
    1DIPC   NC327709   2.500   9.606   2.606  0.2620  0.1655  0.1327
    1DIPC   PO427710   2.875   9.344   2.752  0.1134  0.1924 -0.1349
    1DIPC   GL127711   2.862   9.461   3.203 -0.0524  0.0155 -0.0909
    1DIPC   GL227712   3.082   9.646   3.359  0.0246  0.0615  0.1955
    1DIPC   C1A27713   2.736   9.291   3.667  0.0255 -0.0990  0.1712
    1DIPC   D2A27714   2.671   9.183   4.065 -0.1194 -0.0340 -0.0417
    1DIPC   D3A27715   2.498   8.773   4.181 -0.0217 -0.0574 -0.0540
    1DIPC   C4A27716   2.443   8.461   4.433 -0.1008 -0.2239  0.0540
    1DIPC   C1B27717   3.105   9.722   3.833  0.2210  0.1503 -0.0444
    1DIPC   D2B27718   3.373   9.487   4.104  0.1518 -0.0375 -0.0056
    1DIPC   D3B27719   3.077   9.353   4.402 -0.0480 -0.1125 -0.1242
    1DIPC   C4B27720   3.247   9.584   4.825  0.1090  0.0325 -0.1353
    1DIPC   NC327721   1.780  13.501   1.583  0.1328  0.0737 -0.1139
    1DIPC   PO427722   1.599  13.354   2.058 -0.0799 -0.0212 -0.0521
    1DIPC   GL127723   1.463  13.172   2.459 -0.0077 -0.1003 -0.1514
    1DIPC   GL227724   1.494  13.362   2.736  0.0589  0.1062  0.3035
    1DIPC   C1A27725   1.810  13.065   2.848  0.0376 -0.1257 -0.1912
    1DIPC   D2A27726   1.789  12.811   3.163 -0.0103 -0.0822 -0.0576
    1DIPC   D3A27727   1.387  12.525   3.360  0.0586  0.2490  0.0494
    1DIPC   C4A27728   1.502  12.092   3.349 -0.0886  0.2303  0.0485
    1DIPC   C1B27729   1.499  13.624   2.970  0.2396  0.1712  0.0138
    1DIPC   D2B27730   1.562  13.845   3.405  0.0606 -0.0787  0.2193
    1DIPC   D3B27731   1.688  14.258   3.587  0.1715 -0.3405  0.1859
    1DIPC   C4B27732   1.382  14.655   3.584 -0.0794 -0.0838  0.1059
    1DIPC   NC327733  12.102  23.005   2.070  0.2468  0.1326 -0.2286
    1DIPC   PO427734  12.251  23.471   2.145  0.2023 -0.0706  0.1915
    1DIPC   GL127735  12.124  23.302   2.576  0.0374  0.1844  0.0955
    1DIPC   GL227736  12.356  23.302   2.840  0.1713 -0.0283 -0.2324
    1DIPC   C1A27737  11.829  23.443   2.967 -0.0416 -0.2805  0.4045
    1DIPC   D2A27738  11.480  23.649   3.208  0.3310  0.1112 -0.5702
    1DIPC   D3A27739  11.121  23.615   2.959 -0.1297  0.1505  0.0651
    1DIPC   C4A27740  10.666  23.547   2.979  0.1361  0.3030 -0.1274
    1DIPC   C1B27741  12.232  23.318   3.253 -0.1912  0.1649  0.1332
    1DIPC   D2B27742  12.126  23.108   3.659 -0.0783 -0.1357 -0.1455
    1DIPC   D3B27743  12.502  22.845   3.827 -0.0025  0.0971  0.0440
    1DIPC   C4B27744  12.814  22.869   4.141 -0.0350  0.1548  0.1097
    1DIPC   NC327745  29.008   5.670   3.082  0.0125  0.3658  0.5939
    1DIPC   PO427746  28.682   5.476   3.268  0.0269  0.2202 -0.1382
    1DIPC   GL127747  28.697   5.730   3.610 -0.3656 -0.1328 -0.0398
    1DIPC   GL227748  29.058   5.921   3.583 -0.0016 -0.0488  0.1208
    1DIPC   C1A27749  28.722   5.785   4.085  0.3323  0.1758 -0.3369
    1DIPC   D2A27750  28.935   5.521   4.367 -0.1475  0.0418  0.0556
    1DIPC   D3A27751  29.237   5.643   4.468 -0.2233  0.1039  0.0608
    1DIPC   C4A27752  29.574   5.409   4.510 -0.1721 -0.1293 -0.0513
    1DIPC   C1B27753  29.076   6.293   3.955 -0.0968  0.0778 -0.1124
    1DIPC   D2B27754  28.930   6.442   4.333  0.0484  0.0958  0.0020
    1DIPC   D3B27755  28.999   6.046   4.526 -0.0653  0.0718  0.1776
    1DIPC   C4B27756  28.857   6.056   4.918 -0.1611  0.0168 -0.1362
    1DIPC   NC327757  14.799  28.069   3.348 -0.0662  0.1088 -0.1591
    1DIPC   PO427758  14.727  28.414   3.585 -0.0265  0.4075  0.2337
    1DIPC   GL127759  14.729  28.158   3.956  0.0275  0.0180  0.0055
    1DIPC   GL227760  14.952  28.370   4.153  0.2922  0.3210  0.2205
    1DIPC   C1A27761  14.829  27.864   4.306 -0.0209  0.0870  0.3827
    1DIPC   D2A27762  14.722  27.500   4.607 -0.1024 -0.0132 -0.1353
    1DIPC   D3A27763  14.383  27.465   4.957 -0.0961 -0.1524  0.0109
    1DIPC   C4A27764  14.264  27.820   5.264 -0.3494  0.0320 -0.3536
    1DIPC   C1B27765  14.780  28.306   4.520 -0.0847  0.2055 -0.0207
    1DIPC   D2B27766  14.971  28.037   4.710  0.1674 -0.2708 -0.1058
    1DIPC   D3B27767  14.586  27.929   4.752  0.1076 -0.1611 -0.2781
    1DIPC   C4B27768  14.270  28.207   4.527  0.1986 -0.3878 -0.1562
    1DIPC   NC327769  12.635  28.130   3.722 -0.1455  0.0742  0.3923
    1DIPC   PO427770  12.993  28.290   3.525  0.1577  0.0498 -0.0538
    1DIPC   GL127771  13.125  28.570   3.945  0.0665  0.4448 -0.1433
    1DIPC   GL227772  13.475  28.488   4.128 -0.0695  0.4078 -0.2175
    1DIPC   C1A27773  13.011  28.632   4.320 -0.0980  0.0532  0.2585
    1DIPC   D2A27774  12.664  28.606   4.652 -0.0648  0.1013  0.0485
    1DIPC   D3A27775  12.454  28.358   4.917  0.1241  0.1579 -0.2160
    1DIPC   C4A27776  12.589  28.366   5.298 -0.1888  0.1781  0.1584
    1DIPC   C1B27777  13.548  28.743   4.456  0.0467 -0.3631  0.0323
    1DIPC   D2B27778  13.126  28.914   4.721 -0.2062 -0.1384 -0.0218
    1DIPC   D3B27779  13.039  28.676   5.180  0.2208 -0.2481 -0.0873
    1DIPC   C4B27780  12.955  28.976   5.500 -0.0354 -0.2165 -0.0580
    1DIPC   NC327781  26.591   3.074   2.748  0.0404  0.0440 -0.1012
    1DIPC   PO427782  26.966   3.052   3.042 -0.2102 -0.0507  0.2253
    1DIPC   GL127783  26.796   2.971   3.411 -0.2650 -0.1874  0.1543
    1DIPC   GL227784  27.141   2.999   3.528  0.1926  0.0853  0.0023
    1DIPC   C1A27785  26.723   2.824   3.765  0.2319 -0.2147 -0.4226
    1DIPC   D2A27786  26.643   2.638   4.217  0.0709  0.2608  0.1085
    1DIPC   D3A27787  27.026   2.803   4.379  0.1925  0.0350 -0.0132
    1DIPC   C4A27788  27.039   3.235   4.596 -0.0349  0.6718 -0.0044
    1DIPC   C1B27789  27.116   3.074   3.930 -0.0529 -0.1725  0.2322
    1DIPC   D2B27790  26.851   3.361   4.128  0.2561 -0.0482 -0.1480
    1DIPC   D3B27791  26.599   3.080   4.397 -0.0284 -0.0342  0.1175
    1DIPC   C4B27792  26.356   3.230   4.703 -0.0285 -0.0574 -0.3504
    1DIPC   NC327793  25.831  16.685   2.455  0.0511  0.0020 -0.0410
    1DIPC   PO427794  26.240  16.568   2.524 -0.1187  0.2099  0.1265
    1DIPC   GL127795  26.406  16.672   2.886  0.1479  0.0735 -0.2002
    1DIPC   GL227796  26.742  16.854   2.984 -0.0867 -0.1875 -0.0905
    1DIPC   C1A27797  26.218  16.748   3.275  0.0564 -0.2126  0.0424
    1DIPC   D2A27798  26.205  16.684   3.723 -0.1790  0.2655  0.2770
    1DIPC   D3A27799  26.429  16.590   4.158  0.3004 -0.0180  0.2818
    1DIPC   C4A27800  26.533  16.809   4.463 -0.1100  0.1231 -0.3983
    1DIPC   C1B27801  26.946  16.539   3.165  0.0806 -0.0571  0.0449
    1DIPC   D2B27802  26.992  16.209   3.437  0.1563 -0.0610  0.2794
    1DIPC   D3B27803  26.900  16.265   3.814 -0.0314 -0.1870 -0.0698
    1DIPC   C4B27804  26.529  16.034   4.012 -0.0619  0.1928 -0.2856
    1DIPC   NC327805  10.923   7.025   3.151 -0.1131 -0.1247  0.1262
    1DIPC   PO427806  10.835   6.719   3.454  0.0027 -0.2361  0.2681
    1DIPC   GL127807  10.885   6.633   3.810 -0.0868  0.0194  0.2119
    1DIPC   GL227808  11.138   6.639   3.847 -0.0355 -0.0877 -0.0994
    1DIPC   C1A27809  10.742   6.651   4.282  0.0264 -0.2811  0.2484
    1DIPC   D2A27810  10.479   6.535   4.526  0.0946 -0.1938  0.3222
    1DIPC   D3A27811  10.361   6.302   4.891 -0.2440 -0.1626 -0.0938
    1DIPC   C4A27812  10.216   5.846   4.936  0.0236 -0.1979 -0.2138
    1DIPC   C1B27813  11.190   6.553   4.284 -0.1297  0.1168  0.1481
    1DIPC   D2B27814  11.070   6.581   4.691 -0.0175  0.1983  0.1394
    1DIPC   D3B27815  10.792   6.553   5.032 -0.0603 -0.2115  0.0425
    1DIPC   C4B27816  10.318   6.780   5.120  0.1411  0.0502 -0.1061
    1DIPC   NC327817  26.541  22.038   2.645  0.1025 -0.2096 -0.3174
    1DIPC   PO427818  26.454  21.649   2.955  0.2911 -0.2127  0.3697
    1DIPC   GL127819  26.598  21.657   3.268 -0.2225  0.2419 -0.0201
    1DIPC   GL227820  26.431  21.511   3.512  0.1016  0.2968  0.0033
    1DIPC   C1A27821  27.006  21.670   3.622  0.0324  0.4124  0.2011
    1DIPC   D2A27822  27.182  21.815   4.029 -0.0858  0.1443  0.0774
    1DIPC   D3A27823  27.590  21.799   3.930 -0.1150 -0.1223  0.1332
    1DIPC   C4A27824  27.649  22.000   3.573 -0.1207 -0.2037  0.0988
    1DIPC   C1B27825  26.670  21.278   3.678  0.1398 -0.0344 -0.0067
    1DIPC   D2B27826  26.934  21.322   4.010  0.0705 -0.1633 -0.1252
    1DIPC   D3B27827  26.902  21.668   4.366  0.4951  0.2576 -0.1894
    1DIPC   C4B27828  27.145  21.702   4.746  0.0452 -0.5111  0.2622
    1DIPC   NC327829  26.946   0.189   2.683  0.1587 -0.2951  0.3918
    1DIPC   PO427830  27.333   0.285   2.878  0.1411  0.1512 -0.0033
    1DIPC   GL127831  27.496   0.350   3.259 -0.1702 -0.1126  0.1755
    1DIPC   GL227832  27.338   0.582   3.468  0.0031 -0.1431  0.1976
    1DIPC   C1A27833  27.745   0.061   3.477  0.3991  0.0685 -0.1739
    1DIPC   D2A27834  27.731  -0.367   3.680 -0.0943 -0.1227 -0.3326
    1DIPC   D3A27835  27.818  -0.122   4.047  0.2388 -0.0194 -0.0856
    1DIPC   C4A27836  28.117  -0.214   4.353 -0.1795 -0.0304 -0.0352
    1DIPC   C1B27837  27.480   0.360   3.750 -0.1586  0.0823  0.0429
    1DIPC   D2B27838  27.368  -0.061   3.771 -0.4188  0.1532 -0.0038
    1DIPC   D3B27839  27.040   0.244   3.909  0.2062 -0.1210  0.0843
    1DIPC   C4B27840  26.935   0.731   3.694 -0.1121 -0.2793  0.1561
    1DIPC   NC327841  20.567   2.940   2.703  0.1970 -0.2136  0.0928
    1DIPC   PO427842  20.783   3.374   2.532  0.1801  0.4128  0.3886
    1DIPC   GL127843  20.744   3.651   2.835 -0.2999  0.1627 -0.2271
    1DIPC   GL227844  20.864   3.977   2.978 -0.3066 -0.1319 -0.0210
    1DIPC   C1A27845  20.641   3.667   3.300  0.0133 -0.1880 -0.4137
    1DIPC   D2A27846  20.678   3.563   3.670 -0.0437  0.2892  0.0375
    1DIPC   D3A27847  20.729   3.209   3.943 -0.0282  0.1299  0.0832
    1DIPC   C4A27848  20.479   2.978   4.181 -0.0573 -0.0530 -0.0565
    1DIPC   C1B27849  21.002   3.993   3.491 -0.1639 -0.1084 -0.3295
    1DIPC   D2B27850  20.990   3.881   3.926  0.0902 -0.2520 -0.2683
    1DIPC   D3B27851  21.442   3.912   3.946  0.0197 -0.3372 -0.0881
    1DIPC   C4B27852  21.715   4.375   4.047 -0.2058 -0.3043 -0.1165
    1DIPC   NC327853  25.798  26.712   2.631  0.0654 -0.1794  0.1264
    1DIPC   PO427854  25.640  26.478   2.990  0.1105 -0.0147  0.1812
    1DIPC   GL127855  25.770  26.474   3.391  0.2966  0.4043 -0.1687
    1DIPC   GL227856  25.473  26.546   3.611 -0.3049 -0.0618  0.2450
    1DIPC   C1A27857  26.036  26.525   3.690 -0.1872  0.0212  0.1434
    1DIPC   D2A27858  26.311  26.505   4.010  0.1560  0.1054  0.1802
    1DIPC   D3A27859  26.570  26.738   3.840 -0.3194  0.0167  0.0739
    1DIPC   C4A27860  26.618  27.104   3.659  0.2005  0.5162  0.1655
    1DIPC   C1B27861  25.189  26.679   3.915  0.0977  0.0302  0.1870
    1DIPC   D2B27862  25.192  26.593   4.410  0.1096  0.1329  0.1984
    1DIPC   D3B27863  24.856  26.868   4.359  0.2929 -0.0813  0.1971
    1DIPC   C4B27864  24.491  26.985   4.080  0.1418 -0.3316 -0.0736
    1DIPC   NC327865   7.298   8.657   3.332 -0.0935  0.1430 -0.2383
    1DIPC   PO427866   7.224   8.473   3.801  0.0857  0.1579 -0.2664
    1DIPC   GL127867   7.172   8.460   4.230 -0.0793  0.0996  0.0621
    1DIPC   GL227868   7.214   8.228   4.340  0.0162  0.0717  0.0916
    1DIPC   C1A27869   7.002   8.771   4.493  0.1617  0.1086 -0.2833
    1DIPC   D2A27870   7.178   9.122   4.787  0.0788 -0.3095  0.0105
    1DIPC   D3A27871   7.129   9.346   4.487 -0.0839  0.0900 -0.1981
    1DIPC   C4A27872   6.950   9.269   4.139  0.0882  0.2197 -0.0695
    1DIPC   C1B27873   7.073   8.379   4.752 -0.0233  0.0265 -0.2107
    1DIPC   D2B27874   6.758   8.135   5.013  0.3165 -0.0186  0.0969
    1DIPC   D3B27875   6.396   8.269   4.903  0.3842 -0.2213 -0.1827
    1DIPC   C4B27876   6.305   8.579   5.155  0.1052  0.0796  0.0780
    1DIPC   NC327877  22.305  22.369   3.656 -0.1014 -0.0523  0.1511
    1DIPC   PO427878  22.648  22.586   3.570  0.0852 -0.1400 -0.1285
    1DIPC   GL127879  22.571  22.728   4.065  0.2260  0.1256 -0.1851
    1DIPC   GL227880  22.227  22.845   4.068  0.2333  0.2719  0.2090
    1DIPC   C1A27881  22.464  22.566   4.432  0.3913 -0.0438 -0.0159
    1DIPC   D2A27882  22.209  22.384   4.738  0.0766  0.0921 -0.1407
    1DIPC   D3A27883  22.493  22.065   4.941 -0.0261 -0.1250  0.0755
    1DIPC   C4A27884  22.443  21.634   4.840  0.1876  0.4142 -0.1146
    1DIPC   C1B27885  22.047  23.032   4.405 -0.0999  0.0603 -0.1499
    1DIPC   D2B27886  22.134  22.846   4.858  0.0913  0.0961  0.0098
    1DIPC   D3B27887  21.955  23.033   5.114  0.2037 -0.1158  0.1084
    1DIPC   C4B27888  22.087  23.414   5.048  0.0847  0.1441  0.1431
    1DIPC   NC327889   0.244   9.015   2.536  0.1518 -0.0074 -0.2024
    1DIPC   PO427890   0.022   8.842   2.913  0.1010 -0.0516 -0.1733
    1DIPC   GL127891   0.383   8.661   3.169  0.0811  0.1928  0.0027
    1DIPC   GL227892   0.753   8.766   3.247  0.0282 -0.1997  0.2105
    1DIPC   C1A27893   0.290   8.538   3.609 -0.0511  0.0625 -0.0317
    1DIPC   D2A27894   0.066   8.207   3.800 -0.0258  0.2433 -0.1622
    1DIPC   D3A27895   0.381   8.443   4.100  0.1213 -0.1698  0.0203
    1DIPC   C4A27896   0.229   8.641   4.589 -0.0236  0.2474  0.3733
    1DIPC   C1B27897   0.819   8.628   3.694  0.3941 -0.0002 -0.0480
    1DIPC   D2B27898   0.735   8.833   4.037  0.2537 -0.0885 -0.0911
    1DIPC   D3B27899   0.744   8.590   4.431 -0.0235 -0.0738 -0.1449
    1DIPC   C4B27900   1.010   8.801   4.738 -0.1603  0.0300  0.2101
    1DIPC   NC327901   8.909  27.525   2.558 -0.0119  0.0151  0.3443
    1DIPC   PO427902   9.326  27.814   2.644 -0.0668 -0.0825 -0.1221
    1DIPC   GL127903   9.165  27.541   3.034 -0.1166  0.0994  0.1373
    1DIPC   GL227904   9.328  27.467   3.355  0.2112 -0.0717  0.2594
    1DIPC   C1A27905   9.051  27.142   3.016  0.1710 -0.0518 -0.0405
    1DIPC   D2A27906   8.774  26.795   3.120  0.2030  0.1304 -0.3969
    1DIPC   D3A27907   9.012  26.507   3.445  0.0407  0.0741 -0.1300
    1DIPC   C4A27908   8.908  26.355   3.884 -0.0198  0.1141 -0.0139
    1DIPC   C1B27909   9.317  27.595   3.815 -0.0072 -0.3277 -0.1705
    1DIPC   D2B27910   9.308  27.600   4.225 -0.0729  0.1123 -0.1425
    1DIPC   D3B27911   9.538  27.233   4.099 -0.4737 -0.1052 -0.0143
    1DIPC   C4B27912   9.812  27.362   3.883  0.1096  0.1467  0.1273
    1DIPC   NC327913  16.785  26.749   3.479  0.0757  0.1892 -0.2252
    1DIPC   PO427914  17.111  27.054   3.595 -0.1451  0.0220 -0.1980
    1DIPC   GL127915  17.378  27.090   4.069  0.0572  0.0612 -0.0179
    1DIPC   GL227916  17.377  27.341   4.186  0.1656  0.1348 -0.1849
    1DIPC   C1A27917  17.855  26.946   4.182 -0.1231 -0.1800  0.1190
    1DIPC   D2A27918  18.218  26.679   4.112 -0.1184 -0.3041 -0.3871
    1DIPC   D3A27919  18.355  26.564   4.509  0.1635 -0.3674 -0.0480
    1DIPC   C4A27920  18.764  26.658   4.670 -0.3961 -0.2004 -0.1783
    1DIPC   C1B27921  17.035  27.519   4.386  0.2172 -0.0223 -0.1362
    1DIPC   D2B27922  16.720  27.735   4.611  0.1836  0.2195 -0.4062
    1DIPC   D3B27923  16.347  27.863   4.641 -0.0653 -0.2365  0.1203
    1DIPC   C4B27924  16.056  28.017   4.873  0.0260 -0.0795 -0.0143
    1DIPC   NC327925   5.696  10.641   2.991  0.1101  0.0109  0.1712
    1DIPC   PO427926   6.018  11.005   3.049 -0.0428 -0.0955 -0.0368
    1DIPC   GL127927   6.171  10.843   3.464  0.3375 -0.1206  0.0905
    1DIPC   GL227928   5.865  10.846   3.697  0.1089 -0.1280  0.1787
    1DIPC   C1A27929   6.317  10.585   3.763  0.6269 -0.1791 -0.0481
    1DIPC   D2A27930   6.625  10.237   3.991  0.0292  0.1962 -0.0763
    1DIPC   D3A27931   6.953  10.056   4.322 -0.0925 -0.1250  0.0198
    1DIPC   C4A27932   7.088  10.252   4.646  0.0271 -0.2236  0.1365
    1DIPC   C1B27933   5.981  10.805   4.038  0.2714  0.0613  0.1875
    1DIPC   D2B27934   6.209  10.478   4.267  0.0084 -0.2427  0.0819
    1DIPC   D3B27935   6.673  10.655   4.303  0.1065 -0.0533  0.1413
    1DIPC   C4B27936   7.040  10.746   4.650  0.1875 -0.0967 -0.1454
    1DIPC   NC327937  29.011  23.044   2.566  0.2307  0.2846 -0.1092
    1DIPC   PO427938  29.575  23.076   2.534  0.1488 -0.2184  0.0036
    1DIPC   GL127939  29.477  23.046   2.971 -0.0505 -0.1238  0.2639
    1DIPC   GL227940  29.694  22.953   3.251  0.0344 -0.0624 -0.1292
    1DIPC   C1A27941  29.240  23.092   3.370 -0.0152 -0.0145  0.0817
    1DIPC   D2A27942  29.074  23.006   3.788 -0.1564 -0.0462 -0.2373
    1DIPC   D3A27943  28.997  23.365   4.201  0.2340 -0.0956  0.1766
    1DIPC   C4A27944  29.329  23.510   4.387 -0.0588  0.1251  0.3130
    1DIPC   C1B27945  29.625  23.039   3.657  0.1020  0.2201 -0.1151
    1DIPC   D2B27946  29.513  22.837   4.002  0.0734 -0.0423 -0.2068
    1DIPC   D3B27947  29.158  22.897   4.268  0.3055  0.1873 -0.2768
    1DIPC   C4B27948  28.959  22.547   4.520 -0.0087  0.1319  0.1029
    1DIPC   NC327949  15.436  25.920   3.503  0.0426 -0.0399  0.0574
    1DIPC   PO427950  15.456  25.528   3.336 -0.0175  0.2061 -0.0191
    1DIPC   GL127951  15.159  25.438   3.605  0.4015  0.0558 -0.0094
    1DIPC   GL227952  14.875  25.245   3.602  0.0557  0.2465 -0.0885
    1DIPC   C1A27953  15.068  25.351   4.084 -0.1532  0.2010  0.2195
    1DIPC   D2A27954  15.010  24.891   4.226 -0.2829  0.2071  0.0456
    1DIPC   D3A27955  14.898  24.851   4.626  0.1594  0.0403  0.1502
    1DIPC   C4A27956  14.897  25.240   4.815 -0.0685  0.1893 -0.0151
    1DIPC   C1B27957  14.689  24.994   3.814  0.0215 -0.0310 -0.0840
    1DIPC   D2B27958  14.525  24.739   4.127  0.2128  0.1019 -0.2012
    1DIPC   D3B27959  14.216  24.981   3.790  0.2194  0.0530 -0.1881
    1DIPC   C4B27960  14.381  25.330   3.628  0.4413 -0.1885 -0.2210
    1DIPC   NC327961  14.141   3.211   3.339 -0.1255  0.0508  0.1943
    1DIPC   PO427962  13.717   3.131   3.457  0.1745  0.2683  0.0224
    1DIPC   GL127963  13.813   3.230   3.906  0.1547 -0.2624  0.2205
    1DIPC   GL227964  13.857   2.969   4.171  0.0375  0.0287 -0.0164
    1DIPC   C1A27965  14.108   3.445   4.196  0.0464 -0.2375 -0.1766
    1DIPC   D2A27966  14.260   3.853   4.332  0.4981  0.0638 -0.1088
    1DIPC   D3A27967  13.916   3.864   4.533 -0.1331  0.1544  0.1738
    1DIPC   C4A27968  13.777   3.425   4.635 -0.1040 -0.0072  0.0167
    1DIPC   C1B27969  13.929   2.809   4.573 -0.1510  0.1573 -0.0325
    1DIPC   D2B27970  13.927   2.736   4.945 -0.2332 -0.0505  0.0183
    1DIPC   D3B27971  13.504   2.733   5.147  0.1413  0.2224 -0.1628
    1DIPC   C4B27972  13.201   2.836   4.766  0.0527 -0.4654  0.2172
    1DIPC   NC327973   7.758   3.219   3.621 -0.3108  0.1216 -0.1892
    1DIPC   PO427974   7.870   3.624   3.597  0.2723 -0.0986 -0.0578
    1DIPC   GL127975   7.596   3.676   3.838  0.0001 -0.3025 -0.1930
    1DIPC   GL227976   7.681   3.904   4.023 -0.0116  0.0484 -0.0603
    1DIPC   C1A27977   7.550   3.497   4.276 -0.0040  0.1815  0.0588
    1DIPC   D2A27978   7.637   3.331   4.692 -0.3179  0.1861  0.0100
    1DIPC   D3A27979   7.322   3.307   5.052 -0.3043 -0.1236 -0.0528
    1DIPC   C4A27980   7.251   3.338   5.514  0.0871 -0.5312  0.0406
    1DIPC   C1B27981   7.942   3.779   4.361 -0.0559 -0.0294 -0.1079
    1DIPC   D2B27982   8.192   3.641   4.800  0.1177  0.4390  0.0514
    1DIPC   D3B27983   8.544   3.637   4.526 -0.0410  0.0272  0.0544
    1DIPC   C4B27984   8.476   3.637   4.173  0.0077 -0.1682 -0.1557
    1DIPC   NC327985   4.893  15.989   2.714 -0.1219  0.1755  0.1659
    1DIPC   PO427986   4.483  16.197   2.490  0.2436 -0.2324 -0.0694
    1DIPC   GL127987   4.439  16.352   2.826 -0.0270 -0.0775  0.0257
    1DIPC   GL227988   4.076  16.415   2.888  0.2033  0.0819  0.3548
    1DIPC   C1A27989   4.588  16.340   3.266  0.2208  0.1558  0.0678
    1DIPC   D2A27990   4.761  15.915   3.283  0.0833  0.0618 -0.0579
    1DIPC   D3A27991   4.587  15.652   3.689 -0.4111  0.0132 -0.0832
    1DIPC   C4A27992   4.275  15.744   3.999 -0.3011  0.0423 -0.0477
    1DIPC   C1B27993   4.088  16.370   3.212 -0.1700 -0.2099 -0.0020
    1DIPC   D2B27994   4.071  16.630   3.550 -0.0314 -0.0455 -0.1488
    1DIPC   D3B27995   3.687  16.756   3.839 -0.0186  0.3287 -0.1905
    1DIPC   C4B27996   3.569  16.528   4.204  0.0687 -0.1926  0.0148
    1DIPC   NC327997   7.714  10.436   3.098  0.1623  0.1167  0.0133
    1DIPC   PO427998   7.620  10.905   3.058 -0.1107 -0.4801  0.2926
    1DIPC   GL127999   7.357  11.157   3.431 -0.0699  0.1782  0.3359
    1DIPC   GL228000   7.634  11.396   3.384  0.0763  0.4932  0.3172
    1DIPC   C1A28001   7.302  10.896   3.778 -0.1208  0.3024 -0.3656
    1DIPC   D2A28002   6.884  10.984   3.934 -0.1382  0.2262  0.0551
    1DIPC   D3A28003   6.770  11.186   4.285 -0.3610 -0.0603  0.0451
    1DIPC   C4A28004   7.044  11.501   4.451 -0.1437  0.1028 -0.1036
    1DIPC   C1B28005   7.623  11.647   3.750  0.0826 -0.0047 -0.0193
    1DIPC   D2B28006   7.531  11.674   4.244 -0.1192  0.3229 -0.2156
    1DIPC   D3B28007   7.166  12.027   4.171 -0.1172  0.0378 -0.1389
    1DIPC   C4B28008   7.105  11.997   4.538 -0.2423  0.1165 -0.1989
    1DIPC   NC328009   1.178  28.547   2.885  0.1152 -0.4137  0.2379
    1DIPC   PO428010   0.843  28.448   3.084 -0.3782 -0.0019 -0.1481
    1DIPC   GL128011   0.823  28.348   3.552 -0.1266 -0.0295  0.3600
    1DIPC   GL228012   0.682  28.117   3.580 -0.0900 -0.0595 -0.0292
    1DIPC   C1A28013   1.061  28.438   3.901  0.2148  0.0968  0.1492
    1DIPC   D2A28014   1.009  28.208   4.250  0.3675  0.1359 -0.0478
    1DIPC   D3A28015   0.934  27.845   4.434 -0.0261 -0.0688  0.1354
    1DIPC   C4A28016   1.092  27.560   4.610 -0.0629  0.2945 -0.1359
    1DIPC   C1B28017   0.362  28.415   3.658  0.1806 -0.1688 -0.2613
    1DIPC   D2B28018   0.112  28.827   3.650 -0.1747 -0.4203 -0.0722
    1DIPC   D3B28019   0.254  28.897   3.966 -0.0035  0.2311 -0.1001
    1DIPC   C4B28020  -0.061  29.116   4.134  0.1323 -0.3430 -0.2175
    1DIPC   NC328021   2.317  23.359   2.535  0.1722 -0.2354 -0.2867
    1DIPC   PO428022   2.014  23.694   2.352 -0.1369  0.2497  0.0721
    1DIPC   GL128023   2.287  23.789   2.765 -0.2251 -0.0696  0.0314
    1DIPC   GL228024   2.599  23.704   2.782 -0.1860 -0.0786  0.1317
    1DIPC   C1A28025   2.261  23.909   3.176  0.1215  0.1793 -0.2546
    1DIPC   D2A28026   2.049  24.193   3.429 -0.0296  0.0742  0.0918
    1DIPC   D3A28027   2.265  24.300   3.816  0.0298  0.2004  0.2097
    1DIPC   C4A28028   2.368  24.667   3.690  0.2181 -0.1828  0.4476
    1DIPC   C1B28029   2.745  23.688   3.186  0.0248  0.2062 -0.2677
    1DIPC   D2B28030   3.099  23.452   3.422 -0.0320  0.1275  0.0023
    1DIPC   D3B28031   3.119  23.289   3.813  0.2256 -0.1766 -0.0883
    1DIPC   C4B28032   2.763  23.062   3.970  0.1281 -0.1157 -0.0499
    1DIPC   NC328033   3.213  18.575   2.087 -0.0100  0.0036  0.0712
    1DIPC   PO428034   3.566  18.773   2.311 -0.0130  0.0985  0.3092
    1DIPC   GL128035   3.573  19.039   2.669  0.2540  0.5006 -0.1732
    1DIPC   GL228036   3.608  18.817   2.840  0.0894  0.0757  0.2119
    1DIPC   C1A28037   3.457  19.391   2.774 -0.1999  0.3226  0.3582
    1DIPC   D2A28038   3.053  19.505   2.736 -0.1680  0.0879  0.1509
    1DIPC   D3A28039   3.151  19.465   3.159 -0.1159 -0.0955 -0.0007
    1DIPC   C4A28040   3.506  19.197   3.255 -0.1173 -0.1737  0.1166
    1DIPC   C1B28041   3.953  18.932   3.016 -0.1668  0.1368 -0.1810
    1DIPC   D2B28042   4.273  19.074   3.287  0.0782 -0.1995 -0.3967
    1DIPC   D3B28043   4.347  18.929   3.685 -0.0092  0.0181 -0.4753
    1DIPC   C4B28044   4.016  18.738   3.913 -0.0735 -0.0474 -0.1148
    1DIPC   NC328045   8.347   6.655   3.081  0.1689  0.0512  0.1280
    1DIPC   PO428046   8.507   6.485   3.512  0.0727  0.1972 -0.1641
    1DIPC   GL128047   8.082   6.203   3.646 -0.1726 -0.1346  0.1439
    1DIPC   GL228048   8.110   5.897   3.885  0.3742 -0.1135 -0.2744
    1DIPC   C1A28049   7.708   6.361   3.764  0.0501  0.2508 -0.2436
    1DIPC   D2A28050   7.436   6.407   4.035 -0.0982 -0.0197 -0.0014
    1DIPC   D3A28051   7.621   6.118   4.268 -0.1511  0.0122 -0.0891
    1DIPC   C4A28052   7.467   5.859   4.643  0.0077  0.1996  0.0325
    1DIPC   C1B28053   8.135   6.244   4.230  0.0161 -0.2173 -0.1735
    1DIPC   D2B28054   8.473   6.576   4.310  0.2084 -0.1148 -0.0453
    1DIPC   D3B28055   8.630   6.753   4.632  0.0277  0.2290 -0.0150
    1DIPC   C4B28056   8.536   6.833   4.977 -0.1237 -0.2201 -0.2154
    1DIPC   NC328057   2.171  20.038   2.138  0.2929  0.1017 -0.1181
    1DIPC   PO428058   1.915  20.329   2.409  0.0985  0.0507 -0.1948
    1DIPC   GL128059   1.826  20.247   2.758  0.0706  0.1183  0.1921
    1DIPC   GL228060   1.785  19.914   2.894  0.3401  0.1094 -0.3572
    1DIPC   C1A28061   1.757  20.427   3.099  0.2192 -0.0480 -0.0361
    1DIPC   D2A28062   1.496  20.486   3.506 -0.1021 -0.0437 -0.1661
    1DIPC   D3A28063   1.412  20.800   3.800 -0.0004  0.0670  0.2896
    1DIPC   C4A28064   1.591  21.019   4.111  0.0836  0.2398 -0.2240
    1DIPC   C1B28065   1.462  19.976   3.236  0.0629 -0.4054 -0.3444
    1DIPC   D2B28066   1.099  20.181   3.407 -0.1584  0.0662  0.0501
    1DIPC   D3B28067   1.016  20.388   3.693  0.2968 -0.1581  0.0441
    1DIPC   C4B28068   1.193  20.296   4.036 -0.2981  0.0223 -0.1619
    1DIPC   NC328069  18.033   1.846   3.369  0.2004 -0.2236  0.0734
    1DIPC   PO428070  18.370   2.070   3.384  0.0794  0.3016 -0.1013
    1DIPC   GL128071  18.578   2.160   3.731  0.1507  0.0188 -0.2705
    1DIPC   GL228072  18.401   1.982   3.925  0.2821 -0.0422  0.1279
    1DIPC   C1A28073  18.939   2.447   3.937  0.2632 -0.0164  0.3343
    1DIPC   D2A28074  19.226   2.607   4.201  0.2632 -0.1237  0.2251
    1DIPC   D3A28075  18.908   2.487   4.533  0.1402  0.2122 -0.0787
    1DIPC   C4A28076  18.940   2.870   4.829  0.2288 -0.2469  0.0072
    1DIPC   C1B28077  18.579   2.085   4.227 -0.2067  0.0872  0.1047
    1DIPC   D2B28078  18.539   2.129   4.589  0.2858  0.2686  0.0266
    1DIPC   D3B28079  18.457   2.595   4.724  0.1207 -0.0621  0.0081
    1DIPC   C4B28080  18.466   3.050   4.501  0.0926  0.0966  0.0849
    1DIPC   NC328081  25.398  14.859   2.264 -0.1666  0.0759  0.2767
    1DIPC   PO428082  25.250  15.199   2.403  0.1542  0.2287  0.0730
    1DIPC   GL128083  25.092  14.908   2.697 -0.0247  0.0134  0.0396
    1DIPC   GL228084  24.979  15.152   2.866  0.0285 -0.2107  0.2383
    1DIPC   C1A28085  25.302  14.564   2.929 -0.2879  0.2418  0.4235
    1DIPC   D2A28086  25.263  14.480   3.307  0.1356 -0.0034 -0.0002
    1DIPC   D3A28087  25.211  14.281   3.761 -0.2224  0.0704 -0.2054
    1DIPC   C4A28088  24.932  14.352   4.012  0.2212  0.1213  0.0417
    1DIPC   C1B28089  25.007  14.888   3.188  0.3318 -0.0380 -0.1186
    1DIPC   D2B28090  25.308  14.859   3.618  0.0340 -0.3276 -0.0460
    1DIPC   D3B28091  25.121  14.811   3.987  0.0209  0.0653  0.0737
    1DIPC   C4B28092  25.333  14.519   4.281  0.0171  0.0298 -0.1458
    1DIPC   NC328093   6.045  10.294   3.221  0.3209 -0.0305 -0.1590
    1DIPC   PO428094   5.683  10.146   2.971  0.0877  0.2199 -0.0385
    1DIPC   GL128095   5.444  10.006   3.364 -0.1455 -0.0801  0.0476
    1DIPC   GL228096   5.385   9.722   3.394  0.2930 -0.3489 -0.0982
    1DIPC   C1A28097   5.400  10.092   3.747 -0.0783 -0.0805 -0.3723
    1DIPC   D2A28098   5.342  10.190   4.201  0.1087 -0.0013  0.1788
    1DIPC   D3A28099   5.390  10.084   4.589  0.2061 -0.0082  0.0881
    1DIPC   C4A28100   5.219  10.403   4.948  0.0907  0.2562 -0.0464
    1DIPC   C1B28101   5.337   9.628   3.879 -0.1082 -0.0636  0.1201
    1DIPC   D2B28102   5.082   9.802   4.265  0.0631  0.0518  0.2939
    1DIPC   D3B28103   4.986   9.640   4.694 -0.1662 -0.3169  0.0833
    1DIPC   C4B28104   5.140   9.292   4.889 -0.0099  0.1310  0.0113
    1DIPC   NC328105  21.621  27.771   2.647 -0.2913 -0.0389  0.1150
    1DIPC   PO428106  21.608  27.925   3.032 -0.1430  0.0537  0.1321
    1DIPC   GL128107  21.546  28.130   3.413  0.1701  0.1330 -0.2620
    1DIPC   GL228108  21.734  28.219   3.677  0.2562 -0.1326 -0.3277
    1DIPC   C1A28109  21.216  28.321   3.641 -0.2913 -0.3104 -0.1857
    1DIPC   D2A28110  20.994  28.301   3.945  0.0516 -0.3011  0.1052
    1DIPC   D3A28111  20.928  28.560   4.365 -0.2196  0.0192  0.2931
    1DIPC   C4A28112  20.822  28.406   4.715 -0.2134 -0.1268  0.0477
    1DIPC   C1B28113  21.694  28.086   4.073 -0.1429  0.2407  0.2303
    1DIPC   D2B28114  21.612  28.002   4.493 -0.1782  0.2566 -0.0395
    1DIPC   D3B28115  21.324  28.360   4.665 -0.1334  0.2743 -0.1871
    1DIPC   C4B28116  21.310  28.224   4.995  0.2715  0.3263 -0.1997
    1DIPC   NC328117   2.781  23.020   2.034  0.0435  0.2316 -0.1448
    1DIPC   PO428118   2.818  23.108   2.434  0.1345  0.1918  0.2650
    1DIPC   GL128119   2.816  23.193   2.823  0.2232  0.0967 -0.2394
    1DIPC   GL228120   2.990  23.344   2.869 -0.0711  0.1367 -0.2206
    1DIPC   C1A28121   2.781  23.021   3.204 -0.2983  0.0633 -0.0864
    1DIPC   D2A28122   2.909  22.791   3.542  0.2249  0.3331 -0.1410
    1DIPC   D3A28123   2.665  22.370   3.577 -0.1834 -0.0552  0.1206
    1DIPC   C4A28124   2.972  22.077   3.618 -0.1756 -0.2344  0.1178
    1DIPC   C1B28125   3.444  23.335   2.925 -0.2279 -0.3713  0.0742
    1DIPC   D2B28126   3.734  23.172   3.151  0.4024 -0.2924 -0.0238
    1DIPC   D3B28127   3.601  23.241   3.628 -0.0608 -0.0846  0.1466
    1DIPC   C4B28128   3.340  22.866   3.702  0.2814 -0.3165  0.1501
    1DIPC   NC328129  10.223   2.906   3.848 -0.1787  0.3428  0.3291
    1DIPC   PO428130  10.655   2.868   3.608 -0.2719  0.2122 -0.3666
    1DIPC   GL128131  10.881   2.911   3.972 -0.3220  0.3533  0.0528
    1DIPC   GL228132  10.662   3.000   4.118 -0.0635  0.1064  0.1351
    1DIPC   C1A28133  11.153   2.933   4.142  0.0589  0.1634 -0.0134
    1DIPC   D2A28134  11.528   2.981   4.511 -0.2629 -0.1727 -0.0683
    1DIPC   D3A28135  11.091   2.890   4.675 -0.0947 -0.0686  0.2615
    1DIPC   C4A28136  11.001   3.157   4.905  0.1619 -0.1696  0.0825
    1DIPC   C1B28137  10.827   2.556   4.357 -0.1040 -0.1437 -0.2809
    1DIPC   D2B28138  10.728   2.179   4.294 -0.1140 -0.2032 -0.5299
    1DIPC   D3B28139  10.980   1.789   4.192 -0.2531  0.0010  0.1797
    1DIPC   C4B28140  11.288   1.632   4.583  0.1861  0.5015  0.1338
    1DIPC   NC328141   9.854   2.787   3.164  0.1815 -0.1011  0.0598
    1DIPC   PO428142   9.843   2.649   3.689 -0.0411 -0.1516  0.3157
    1DIPC   GL128143   9.896   2.598   4.058  0.0877 -0.0944  0.1592
    1DIPC   GL228144   9.784   2.855   4.318 -0.1492  0.1034 -0.0501
    1DIPC   C1A28145  10.342   2.457   4.300 -0.1147  0.1158  0.1945
    1DIPC   D2A28146  10.296   2.222   4.585 -0.1126 -0.0056  0.1315
    1DIPC   D3A28147  10.589   2.135   4.865  0.3581 -0.0971 -0.2672
    1DIPC   C4A28148  10.555   2.351   5.204  0.1473 -0.5224 -0.0719
    1DIPC   C1B28149   9.789   3.137   4.637  0.1047  0.1080  0.0883
    1DIPC   D2B28150   9.735   3.430   4.914 -0.0506  0.0307  0.2010
    1DIPC   D3B28151   9.366   3.425   5.159  0.0058  0.3342  0.3200
    1DIPC   C4B28152   8.993   3.318   5.244 -0.1590 -0.1057  0.0945
    1DIPC   NC328153   5.576  20.196   2.153  0.1144  0.1729  0.2813
    1DIPC   PO428154   5.448  19.827   2.297  0.0200 -0.0051  0.1399
    1DIPC   GL128155   5.694  19.986   2.670 -0.1515 -0.0108 -0.0565
    1DIPC   GL228156   5.457  19.971   2.931 -0.1233  0.1059  0.0436
    1DIPC   C1A28157   5.959  20.269   2.956 -0.0630 -0.0107 -0.1708
    1DIPC   D2A28158   5.977  20.696   3.035 -0.0396 -0.0051 -0.0089
    1DIPC   D3A28159   6.128  20.892   2.703 -0.1069  0.2947  0.1773
    1DIPC   C4A28160   6.540  21.004   2.819 -0.3875  0.0781  0.0370
    1DIPC   C1B28161   5.241  19.701   3.164 -0.2937  0.1439  0.1600
    1DIPC   D2B28162   4.952  19.569   3.540  0.1322  0.1414 -0.0336
    1DIPC   D3B28163   4.865  19.152   3.461  0.2321 -0.3344  0.0753
    1DIPC   C4B28164   4.942  19.058   3.735 -0.0102  0.0450  0.2656
    1DIPC   NC328165   6.689   5.963   3.308 -0.2280 -0.1267  0.3071
    1DIPC   PO428166   6.660   6.181   3.721 -0.1745  0.0779  0.3376
    1DIPC   GL128167   6.487   6.175   4.006 -0.4384 -0.2619 -0.0131
    1DIPC   GL228168   6.568   5.865   4.222 -0.1268 -0.2192  0.0226
    1DIPC   C1A28169   6.228   6.120   4.453  0.0790 -0.1449  0.0608
    1DIPC   D2A28170   6.043   6.081   4.798  0.2270 -0.2631  0.1588
    1DIPC   D3A28171   6.279   6.130   5.168 -0.3078 -0.1645  0.0186
    1DIPC   C4A28172   6.602   5.828   5.195  0.0492  0.4855  0.1708
    1DIPC   C1B28173   6.441   5.678   4.671  0.1921 -0.1193 -0.0303
    1DIPC   D2B28174   6.522   5.398   4.944  0.0466 -0.0307 -0.0349
    1DIPC   D3B28175   6.873   5.282   4.997  0.2914 -0.1194  0.3839
    1DIPC   C4B28176   6.919   5.364   5.385 -0.3041 -0.2962  0.1845
    1DIPC   NC328177  16.855  29.284   3.004 -0.2261  0.3286  0.1546
    1DIPC   PO428178  17.232  29.408   3.349  0.2811 -0.1609 -0.0126
    1DIPC   GL128179  17.307  29.338   3.849 -0.0013 -0.0435  0.2305
    1DIPC   GL228180  17.667  29.276   4.012  0.0477  0.0262 -0.1436
    1DIPC   C1A28181  17.244  28.904   4.026 -0.1166 -0.1326 -0.2041
    1DIPC   D2A28182  17.031  28.690   4.449 -0.2313 -0.1069  0.2448
    1DIPC   D3A28183  17.402  28.683   4.710 -0.1577 -0.1356  0.1865
    1DIPC   C4A28184  17.582  28.280   4.772 -0.2719 -0.0451 -0.0854
    1DIPC   C1B28185  17.480  29.185   4.382  0.0700  0.0060  0.1833
    1DIPC   D2B28186  17.642  29.177   4.917 -0.1439  0.0784  0.1677
    1DIPC   D3B28187  17.646  28.950   5.293  0.0770  0.0639 -0.1381
    1DIPC   C4B28188  17.467  28.770   5.620  0.1735 -0.0644  0.3256
    1DIPC   NC328189  10.433  22.095   2.695 -0.1837  0.1838 -0.3285
    1DIPC   PO428190  10.087  21.828   2.847  0.1630  0.0829  0.0079
    1DIPC   GL128191  10.174  21.522   3.134 -0.0053  0.1688 -0.0028
    1DIPC   GL228192  10.173  21.310   3.000  0.0679  0.0283  0.1708
    1DIPC   C1A28193  10.137  21.439   3.544  0.2416  0.1452 -0.0328
    1DIPC   D2A28194  10.135  21.421   3.941  0.1290 -0.0647  0.0061
    1DIPC   D3A28195   9.713  21.335   4.107  0.0063 -0.1071  0.0235
    1DIPC   C4A28196   9.636  20.812   4.183 -0.1458  0.1766  0.1675
    1DIPC   C1B28197  10.432  21.124   3.361  0.0407  0.1653 -0.0670
    1DIPC   D2B28198  10.370  20.991   3.850 -0.1221  0.1200  0.1551
    1DIPC   D3B28199  10.185  20.652   3.893  0.0129 -0.2117  0.4295
    1DIPC   C4B28200  10.046  20.494   4.313 -0.1235  0.1454 -0.3717
    1DIPC   NC328201   9.372  16.151   2.068 -0.1343 -0.0244 -0.0934
    1DIPC   PO428202   9.373  16.603   2.214 -0.0018  0.0561  0.1099
    1DIPC   GL128203   9.468  16.301   2.511  0.2290  0.2315  0.0725
    1DIPC   GL228204   9.189  16.395   2.646 -0.4703 -0.0685  0.1372
    1DIPC   C1A28205   9.630  16.255   2.931  0.1105  0.3041  0.1748
    1DIPC   D2A28206   9.534  16.283   3.319  0.0111 -0.3946 -0.2775
    1DIPC   D3A28207   9.101  16.300   3.583 -0.2134 -0.1539  0.1092
    1DIPC   C4A28208   9.013  16.295   4.018  0.3225  0.0068 -0.1901
    1DIPC   C1B28209   9.081  16.285   3.067 -0.0746  0.0176  0.0708
    1DIPC   D2B28210   9.155  15.914   3.275 -0.0820 -0.0486 -0.0374
    1DIPC   D3B28211   8.907  15.707   3.437 -0.3076 -0.2717  0.1987
    1DIPC   C4B28212   8.695  15.662   3.789 -0.0551 -0.0750  0.0328
    1DIPC   NC328213  27.098   3.948   3.503 -0.1585 -0.1702 -0.0302
    1DIPC   PO428214  27.506   3.910   3.560  0.0684 -0.0628  0.0664
    1DIPC   GL128215  27.645   3.764   3.933 -0.2462 -0.1090  0.1176
    1DIPC   GL228216  27.930   3.659   3.995 -0.1615 -0.0129  0.0490
    1DIPC   C1A28217  27.733   3.944   4.383 -0.1579  0.0896 -0.1110
    1DIPC   D2A28218  27.287   3.947   4.739 -0.0810 -0.1525  0.0603
    1DIPC   D3A28219  27.020   3.647   4.804  0.2190 -0.1816 -0.0203
    1DIPC   C4A28220  26.757   3.677   5.094  0.0316 -0.2679 -0.1275
    1DIPC   C1B28221  27.977   3.499   4.520 -0.0366  0.2499 -0.1693
    1DIPC   D2B28222  28.351   3.569   4.814 -0.0236 -0.0913 -0.0083
    1DIPC   D3B28223  28.723   3.873   4.659  0.4393  0.0970 -0.0252
    1DIPC   C4B28224  28.599   4.211   4.354  0.4367 -0.1127 -0.2228
    1DIPC   NC328225  21.629  25.092   2.720 -0.1657 -0.1938 -0.0390
    1DIPC   PO428226  21.884  25.421   2.904  0.0578 -0.1298  0.2199
    1DIPC   GL128227  22.029  25.212   3.408  0.1103  0.2504 -0.0417
    1DIPC   GL228228  22.305  24.961   3.281  0.2853 -0.0515  0.2334
    1DIPC   C1A28229  21.961  25.276   3.740 -0.2174  0.5511 -0.0651
    1DIPC   D2A28230  21.753  25.384   4.112  0.2084 -0.1205  0.0740
    1DIPC   D3A28231  22.149  25.574   4.277  0.1311  0.0669  0.2438
    1DIPC   C4A28232  22.447  25.551   4.027  0.0405  0.0596  0.2666
    1DIPC   C1B28233  22.409  24.714   3.660 -0.0955 -0.0809  0.2057
    1DIPC   D2B28234  22.084  24.467   3.889 -0.0960 -0.0852  0.0069
    1DIPC   D3B28235  22.404  24.496   4.196 -0.1071 -0.4255 -0.4291
    1DIPC   C4B28236  22.307  24.783   4.532 -0.1142 -0.2942 -0.0283
    1DIPC   NC328237   2.314  13.771   2.309  0.1423  0.1069  0.3767
    1DIPC   PO428238   1.951  14.001   2.481  0.1875 -0.0317 -0.1824
    1DIPC   GL128239   2.015  13.731   2.902  0.1085 -0.3307 -0.0313
    1DIPC   GL228240   2.320  13.758   3.196  0.1390  0.3098 -0.0092
    1DIPC   C1A28241   1.944  13.506   3.313 -0.3325 -0.2092  0.1578
    1DIPC   D2A28242   2.021  13.831   3.646 -0.0623  0.2747  0.2595
    1DIPC   D3A28243   1.794  13.423   3.847  0.3462 -0.1224  0.0041
    1DIPC   C4A28244   1.883  13.105   4.185  0.0927 -0.2594  0.0791
    1DIPC   C1B28245   2.750  13.807   3.205  0.0933 -0.0833  0.0616
    1DIPC   D2B28246   3.188  13.819   3.318 -0.2120  0.1714 -0.1244
    1DIPC   D3B28247   2.979  13.633   3.777 -0.3610 -0.0808 -0.0962
    1DIPC   C4B28248   2.795  13.354   4.058 -0.2579  0.0523  0.1250
    1DIPC   NC328249   1.789   0.861   2.510  0.0649 -0.3517 -0.1401
    1DIPC   PO428250   1.887   0.408   2.576  0.0494 -0.2324 -0.0472
    1DIPC   GL128251   2.080   0.383   2.950 -0.0706  0.0350 -0.2881
    1DIPC   GL228252   1.949   0.680   3.112  0.2835 -0.1431 -0.3156
    1DIPC   C1A28253   2.104   0.277   3.429 -0.0662  0.0041  0.1644
    1DIPC   D2A28254   2.042   0.469   3.808 -0.1321  0.0849  0.1306
    1DIPC   D3A28255   1.784   0.445   4.241 -0.0284 -0.2959  0.0136
    1DIPC   C4A28256   2.049   0.408   4.652 -0.0887 -0.0499 -0.0243
    1DIPC   C1B28257   1.685   0.848   3.372  0.0728  0.1122 -0.1787
    1DIPC   D2B28258   1.642   0.808   3.821  0.0573 -0.0893 -0.1050
    1DIPC   D3B28259   1.527   0.968   4.139 -0.0178  0.2659 -0.0937
    1DIPC   C4B28260   1.816   1.040   4.581  0.0679  0.1305 -0.0261
    1DIPC   NC328261  25.922  13.402   2.329  0.0647  0.1551  0.1813
    1DIPC   PO428262  25.546  13.609   2.479  0.3829  0.1857 -0.1552
    1DIPC   GL128263  25.552  13.219   2.694 -0.2809 -0.0199 -0.0566
    1DIPC   GL228264  25.756  13.335   3.016  0.0877 -0.2626  0.2055
    1DIPC   C1A28265  25.542  12.705   2.894  0.2912 -0.3329  0.2227
    1DIPC   D2A28266  25.486  12.222   3.050 -0.0205 -0.3408  0.3805
    1DIPC   D3A28267  25.477  12.429   3.579  0.1562  0.1341  0.2675
    1DIPC   C4A28268  25.164  12.352   3.951 -0.0262 -0.1189 -0.1563
    1DIPC   C1B28269  25.560  13.459   3.453  0.1891  0.0058  0.0911
    1DIPC   D2B28270  25.326  13.656   3.895 -0.1738  0.0310  0.0536
    1DIPC   D3B28271  25.486  13.345   4.099  0.1101  0.0440 -0.0589
    1DIPC   C4B28272  25.737  13.099   3.829  0.1343  0.2686  0.0860
    1DIPC   NC328273  22.570   3.333   2.766 -0.1319 -0.1748  0.1820
    1DIPC   PO428274  22.266   3.485   3.030 -0.0634 -0.1567 -0.0139
    1DIPC   GL128275  22.080   3.722   3.397 -0.0855 -0.4109  0.1383
    1DIPC   GL228276  21.714   3.781   3.316  0.0835 -0.2525 -0.0431
    1DIPC   C1A28277  21.973   3.531   3.831 -0.2710  0.1215 -0.4006
    1DIPC   D2A28278  22.141   3.383   4.209  0.2000 -0.3591 -0.3156
    1DIPC   D3A28279  21.743   3.343   4.534 -0.2679  0.1276 -0.2292
    1DIPC   C4A28280  21.649   2.933   4.801  0.3653 -0.0468 -0.1178
    1DIPC   C1B28281  21.822   4.214   3.521 -0.1200  0.1499  0.0827
    1DIPC   D2B28282  21.682   4.567   3.547  0.2211  0.0783 -0.2527
    1DIPC   D3B28283  21.887   4.856   3.406 -0.0798 -0.2107  0.0148
    1DIPC   C4B28284  22.120   5.033   3.681 -0.1089 -0.0332  0.1676
    1DIPC   NC328285  22.439  16.467   2.145  0.4962  0.1202 -0.1180
    1DIPC   PO428286  22.848  16.263   1.988  0.0429  0.0021  0.0640
    1DIPC   GL128287  22.914  16.170   2.488  0.2494 -0.1786  0.2001
    1DIPC   GL228288  22.757  16.326   2.736  0.0651 -0.0957  0.3247
    1DIPC   C1A28289  22.956  15.841   2.701 -0.2713 -0.1118  0.1572
    1DIPC   D2A28290  23.263  15.569   2.732 -0.1174 -0.0152  0.1417
    1DIPC   D3A28291  23.263  15.172   2.711 -0.0741 -0.0219  0.0346
    1DIPC   C4A28292  23.176  14.956   3.049  0.0070 -0.0738  0.2821
    1DIPC   C1B28293  22.808  16.226   3.080  0.0108  0.0771 -0.0480
    1DIPC   D2B28294  23.035  16.248   3.438 -0.1604  0.2749 -0.0688
    1DIPC   D3B28295  23.120  15.847   3.865  0.1764 -0.0937 -0.0964
    1DIPC   C4B28296  23.259  15.388   3.728  0.1597  0.2039 -0.1405
    1DIPC   NC328297  28.138  16.546   2.646 -0.0167 -0.1015  0.3561
    1DIPC   PO428298  28.093  16.996   2.568 -0.1893 -0.1255  0.0191
    1DIPC   GL128299  28.315  16.976   2.950 -0.0639  0.0094  0.0250
    1DIPC   GL228300  28.608  16.760   2.856 -0.2736 -0.0956 -0.1397
    1DIPC   C1A28301  28.507  17.165   3.198 -0.0253 -0.0460 -0.3897
    1DIPC   D2A28302  28.729  17.166   3.568 -0.2307 -0.1160 -0.1936
    1DIPC   D3A28303  28.816  17.347   4.017  0.3550 -0.0122  0.1957
    1DIPC   C4A28304  28.824  17.134   4.286  0.3091  0.2549  0.2191
    1DIPC   C1B28305  28.587  16.587   3.250  0.2172  0.1621  0.0627
    1DIPC   D2B28306  28.303  16.257   3.489 -0.0594 -0.0398  0.0562
    1DIPC   D3B28307  28.287  16.512   3.835  0.2929  0.2624  0.1095
    1DIPC   C4B28308  28.739  16.706   4.031  0.0224  0.0012 -0.1763
    1DIPC   NC328309  20.003   8.865   2.424  0.1313  0.2140 -0.0200
    1DIPC   PO428310  19.605   8.978   2.138 -0.1839 -0.0185 -0.2259
    1DIPC   GL128311  19.521   8.998   2.610 -0.0644  0.2145 -0.2972
    1DIPC   GL228312  19.656   8.656   2.788  0.1301 -0.1089  0.2948
    1DIPC   C1A28313  19.517   9.089   3.024 -0.0902 -0.1795 -0.2264
    1DIPC   D2A28314  19.506   9.019   3.480 -0.1435 -0.0646  0.1596
    1DIPC   D3A28315  19.658   9.381   3.815  0.2693  0.0209 -0.1399
    1DIPC   C4A28316  19.380   9.603   4.011 -0.2578 -0.0709 -0.0801
    1DIPC   C1B28317  19.842   8.774   3.211 -0.1305  0.1425 -0.0034
    1DIPC   D2B28318  20.235   8.978   3.349 -0.3527 -0.0472  0.1918
    1DIPC   D3B28319  20.171   8.523   3.527  0.2333 -0.1951  0.0839
    1DIPC   C4B28320  19.774   8.560   3.644  0.0514 -0.0977  0.2192
    1DIPC   NC328321   9.986  28.224   3.237  0.4550  0.1058 -0.5032
    1DIPC   PO428322  10.163  28.459   3.504  0.2169  0.0558 -0.0634
    1DIPC   GL128323  10.285  28.421   3.984 -0.0715  0.0330 -0.2723
    1DIPC   GL228324  10.325  28.156   4.222 -0.1801 -0.1449 -0.1330
    1DIPC   C1A28325   9.909  28.438   4.236 -0.0657 -0.2150 -0.0559
    1DIPC   D2A28326   9.775  28.519   4.704  0.0845  0.0945 -0.0415
    1DIPC   D3A28327  10.005  28.248   4.935 -0.2382  0.2569  0.1108
    1DIPC   C4A28328  10.418  28.343   5.017  0.2959  0.1368  0.1066
    1DIPC   C1B28329  10.450  27.976   4.570 -0.0088  0.1228 -0.3785
    1DIPC   D2B28330  10.857  27.717   4.680 -0.0533  0.0776  0.1640
    1DIPC   D3B28331  10.763  27.847   5.136 -0.2080 -0.0263 -0.2145
    1DIPC   C4B28332  11.180  27.639   5.216 -0.0554  0.1239  0.2190
    1DIPC   NC328333  18.978  21.047   2.344 -0.0598  0.6866  0.1522
    1DIPC   PO428334  19.193  20.527   2.421 -0.3549 -0.2162 -0.2690
    1DIPC   GL128335  19.145  20.550   2.851  0.0634  0.2681  0.1040
    1DIPC   GL228336  19.196  20.308   3.104 -0.3547  0.2363  0.3070
    1DIPC   C1A28337  19.100  20.762   3.237  0.1776  0.1614 -0.1909
    1DIPC   D2A28338  18.951  20.770   3.634 -0.0066 -0.0014 -0.0335
    1DIPC   D3A28339  19.023  20.997   3.945 -0.0277 -0.2236 -0.3754
    1DIPC   C4A28340  19.381  20.836   4.219 -0.2672  0.0379  0.1365
    1DIPC   C1B28341  19.196  20.325   3.548  0.0604 -0.1009  0.0917
    1DIPC   D2B28342  19.267  20.447   3.948 -0.1273 -0.1153  0.0720
    1DIPC   D3B28343  19.743  20.386   3.966 -0.0769  0.0625  0.2716
    1DIPC   C4B28344  19.810  20.492   3.607 -0.2117 -0.2500  0.3017
    1DIPC   NC328345  28.152   8.899   2.617  0.5937  0.0455  0.2343
    1DIPC   PO428346  28.539   8.485   2.620 -0.2005  0.0075  0.1615
    1DIPC   GL128347  28.357   8.369   3.085 -0.1966  0.1231  0.1932
    1DIPC   GL228348  28.296   8.705   3.190 -0.2862  0.2033  0.0617
    1DIPC   C1A28349  28.551   8.404   3.476 -0.0067  0.0271  0.0096
    1DIPC   D2A28350  28.881   8.539   3.720  0.2717  0.0113 -0.2091
    1DIPC   D3A28351  28.606   8.636   4.141  0.0499 -0.0665 -0.2530
    1DIPC   C4A28352  28.813   8.958   4.254  0.2107 -0.1471 -0.0911
    1DIPC   C1B28353  28.588   8.953   3.370 -0.1344 -0.1228  0.1162
    1DIPC   D2B28354  28.865   9.059   3.787 -0.2186 -0.0610 -0.1146
    1DIPC   D3B28355  29.198   8.998   3.552 -0.2359  0.1783 -0.3585
    1DIPC   C4B28356  29.402   9.283   3.356 -0.2762  0.1282 -0.0937
    1DIPC   NC328357  23.505  27.443   2.751 -0.2245  0.0100 -0.1820
    1DIPC   PO428358  23.493  27.715   3.106  0.0713  0.1004 -0.0884
    1DIPC   GL128359  23.356  27.601   3.485 -0.1926  0.0494 -0.1463
    1DIPC   GL228360  22.993  27.507   3.475 -0.2391 -0.1013 -0.1320
    1DIPC   C1A28361  23.183  27.638   3.884  0.1847  0.0390  0.4104
    1DIPC   D2A28362  23.289  27.520   4.244  0.2272 -0.0392 -0.2614
    1DIPC   D3A28363  23.627  27.539   4.521  0.0566 -0.1616  0.3675
    1DIPC   C4A28364  23.484  27.311   4.827 -0.2492 -0.0823 -0.1510
    1DIPC   C1B28365  22.723  27.392   3.711 -0.1879 -0.0937  0.2510
    1DIPC   D2B28366  22.443  27.207   3.873 -0.1947 -0.1865 -0.1159
    1DIPC   D3B28367  22.254  27.094   4.245 -0.0583  0.3720 -0.4279
    1DIPC   C4B28368  22.185  26.913   4.687  0.1315 -0.2035 -0.1321
    1DIPC   NC328369  25.572  27.691   2.974  0.3743  0.1957  0.1526
    1DIPC   PO428370  25.379  27.857   3.438  0.3228 -0.2550 -0.0907
    1DIPC   GL128371  25.736  27.644   3.611 -0.1793 -0.1856  0.0138
    1DIPC   GL228372  25.853  27.344   3.557  0.2871  0.0225 -0.2177
    1DIPC   C1A28373  26.070  27.687   3.839 -0.1898  0.2152 -0.0287
    1DIPC   D2A28374  26.289  27.755   4.130 -0.0711 -0.2308  0.3026
    1DIPC   D3A28375  25.983  28.039   4.316  0.1804 -0.0146  0.0494
    1DIPC   C4A28376  26.256  28.448   4.511  0.1503  0.0758  0.0386
    1DIPC   C1B28377  26.046  27.102   3.809 -0.2581  0.3127  0.0072
    1DIPC   D2B28378  26.259  26.953   4.257 -0.1396 -0.2836 -0.0775
    1DIPC   D3B28379  26.605  26.689   4.356  0.1412 -0.4861  0.0150
    1DIPC   C4B28380  26.516  26.301   4.404  0.2673 -0.2373  0.0165
    1DIPC   NC328381  16.319  21.919   2.226 -0.2952 -0.0123  0.1330
    1DIPC   PO428382  15.927  22.040   2.155  0.0598  0.1359 -0.2553
    1DIPC   GL128383  15.782  21.806   2.461 -0.0370 -0.0015  0.0860
    1DIPC   GL228384  16.017  21.579   2.524 -0.2073  0.0171 -0.0582
    1DIPC   C1A28385  15.844  21.980   2.907  0.4393 -0.0315  0.0442
    1DIPC   D2A28386  15.815  21.884   3.349 -0.0752  0.0554 -0.1504
    1DIPC   D3A28387  15.404  21.891   3.149  0.0472 -0.2369 -0.0388
    1DIPC   C4A28388  15.335  22.227   2.844 -0.1053 -0.1701 -0.0141
    1DIPC   C1B28389  16.217  21.691   3.001  0.0108  0.0081  0.2624
    1DIPC   D2B28390  16.154  21.434   3.395  0.0110  0.1085 -0.0475
    1DIPC   D3B28391  16.103  21.648   3.698 -0.0385  0.0814 -0.1159
    1DIPC   C4B28392  15.996  21.527   4.082 -0.1437 -0.2204  0.0086
    1DIPC   NC328393  21.681  14.460   1.565 -0.2120  0.0212  0.1030
    1DIPC   PO428394  21.587  14.787   1.854 -0.1150  0.0374  0.1298
    1DIPC   GL128395  21.782  14.827   2.262 -0.1873  0.1074  0.0751
    1DIPC   GL228396  21.966  14.537   2.321  0.3411 -0.1089 -0.1756
    1DIPC   C1A28397  21.951  14.860   2.690  0.1594 -0.3731  0.1974
    1DIPC   D2A28398  22.209  14.660   3.085 -0.2144  0.0701  0.0801
    1DIPC   D3A28399  21.967  14.933   3.326  0.1948  0.1718  0.1214
    1DIPC   C4A28400  21.975  14.925   3.796 -0.4117  0.5584 -0.0237
    1DIPC   C1B28401  22.262  14.412   2.554 -0.2341 -0.2910 -0.3592
    1DIPC   D2B28402  22.609  14.505   2.830  0.0629  0.0285  0.0620
    1DIPC   D3B28403  22.817  14.412   3.196 -0.2097  0.0407  0.3011
    1DIPC   C4B28404  23.304  14.572   3.399  0.2585 -0.0087 -0.2549
    1DIPC   NC328405  27.479  12.365   2.709 -0.0486 -0.2272 -0.2682
    1DIPC   PO428406  27.851  12.342   3.021  0.1608  0.2086 -0.0482
    1DIPC   GL128407  27.569  12.520   3.202  0.2594  0.5483  0.1762
    1DIPC   GL228408  27.464  12.728   3.098  0.2258  0.2311 -0.2134
    1DIPC   C1A28409  27.345  12.398   3.518  0.1550 -0.1055 -0.0493
    1DIPC   D2A28410  27.493  12.126   3.775 -0.1142 -0.1182  0.3533
    1DIPC   D3A28411  27.639  12.072   3.398 -0.1687  0.0795 -0.1320
    1DIPC   C4A28412  28.083  11.862   3.323 -0.1677  0.2249  0.1502
    1DIPC   C1B28413  27.266  12.999   3.324 -0.0250  0.0263  0.0882
    1DIPC   D2B28414  26.989  13.337   3.345  0.1074  0.1602  0.0811
    1DIPC   D3B28415  27.188  13.738   3.617 -0.2221  0.0536  0.0224
    1DIPC   C4B28416  27.622  13.889   3.695 -0.0210 -0.1632 -0.3393
    1DIPC   NC328417   6.183   2.250   3.243  0.0416 -0.0483  0.0005
    1DIPC   PO428418   6.071   1.832   3.506 -0.2798 -0.3779 -0.3288
    1DIPC   GL128419   6.139   1.667   3.947  0.1759 -0.0682 -0.0442
    1DIPC   GL228420   6.153   1.415   4.135 -0.2344  0.3678  0.3820
    1DIPC   C1A28421   5.967   1.858   4.312  0.0619  0.1251 -0.0921
    1DIPC   D2A28422   5.958   1.885   4.814  0.2158  0.0506  0.1155
    1DIPC   D3A28423   5.647   2.104   4.980  0.0635 -0.2081  0.0009
    1DIPC   C4A28424   5.628   2.247   5.460 -0.2690 -0.1020  0.0810
    1DIPC   C1B28425   6.058   1.473   4.629 -0.1907 -0.0322  0.2717
    1DIPC   D2B28426   6.251   1.443   5.025 -0.0391  0.0804 -0.3570
    1DIPC   D3B28427   6.374   1.677   5.352 -0.3686 -0.2968  0.4695
    1DIPC   C4B28428   6.066   2.049   5.320 -0.0869 -0.3647 -0.0459
    1DIPC   NC328429  16.908  10.117   1.827 -0.1202  0.0837 -0.0716
    1DIPC   PO428430  16.827  10.461   2.125  0.1436  0.0763 -0.1819
    1DIPC   GL128431  16.780  10.437   2.601 -0.2189  0.0570  0.1978
    1DIPC   GL228432  17.038  10.419   2.657 -0.3418 -0.0216  0.1254
    1DIPC   C1A28433  16.624  10.499   3.050 -0.0704 -0.0168  0.0458
    1DIPC   D2A28434  16.562  10.391   3.509  0.0766  0.1175  0.1444
    1DIPC   D3A28435  16.691  10.272   3.935  0.3229  0.0678 -0.3011
    1DIPC   C4A28436  16.441  10.146   4.242  0.1154 -0.0549 -0.0260
    1DIPC   C1B28437  17.507  10.471   2.740 -0.1730  0.1025 -0.2333
    1DIPC   D2B28438  17.716  10.756   2.881 -0.1163  0.0055  0.0030
    1DIPC   D3B28439  17.588  11.056   3.240 -0.0798 -0.0233 -0.1609
    1DIPC   C4B28440  17.535  11.562   3.353  0.0828 -0.1559 -0.0725
    1DIPC   NC328441  14.585   2.587   3.616  0.1332 -0.0895 -0.0617
    1DIPC   PO428442  14.915   2.929   3.501 -0.0993 -0.0211  0.1163
    1DIPC   GL128443  15.234   3.065   3.655 -0.0618  0.0875 -0.2826
    1DIPC   GL228444  15.113   3.262   3.992  0.0045 -0.0500 -0.0368
    1DIPC   C1A28445  15.651   2.853   3.908 -0.0062 -0.2422  0.1350
    1DIPC   D2A28446  15.991   3.031   4.217 -0.1186 -0.0673 -0.1346
    1DIPC   D3A28447  15.888   2.778   4.572  0.0170 -0.0709 -0.1781
    1DIPC   C4A28448  15.877   2.972   5.005  0.2157 -0.0755 -0.0231
    1DIPC   C1B28449  15.007   3.153   4.424 -0.2288  0.0616  0.2220
    1DIPC   D2B28450  14.918   2.916   4.758  0.2369 -0.1401 -0.0198
    1DIPC   D3B28451  15.305   3.076   4.916  0.3030  0.0845 -0.3086
    1DIPC   C4B28452  15.622   3.156   4.601 -0.1942  0.0897 -0.0665
    1DIPC   NC328453   4.955   2.866   3.018 -0.2621  0.1648 -0.2478
    1DIPC   PO428454   4.833   2.516   3.378  0.1218  0.1825  0.4943
    1DIPC   GL128455   4.666   2.336   3.723  0.0752  0.3457 -0.1658
    1DIPC   GL228456   4.633   2.017   3.785 -0.1787 -0.0901 -0.0401
    1DIPC   C1A28457   4.577   2.458   4.180 -0.3024 -0.0218  0.0518
    1DIPC   D2A28458   4.243   2.447   4.489 -0.1285  0.0125  0.1748
    1DIPC   D3A28459   4.070   2.127   4.475 -0.3124  0.1009 -0.1507
    1DIPC   C4A28460   4.019   1.927   4.849 -0.1383  0.0719  0.4397
    1DIPC   C1B28461   4.392   1.981   4.128  0.3373 -0.0086 -0.0328
    1DIPC   D2B28462   4.479   1.664   4.637  0.2142 -0.2401 -0.2386
    1DIPC   D3B28463   4.851   1.540   4.646 -0.1948  0.2318 -0.2365
    1DIPC   C4B28464   4.762   1.072   4.814 -0.2929 -0.1904 -0.0320
    1DIPC   NC328465   4.011  28.575   2.912  0.1409 -0.2627  0.1867
    1DIPC   PO428466   3.755  28.135   2.849  0.0850  0.0111 -0.2410
    1DIPC   GL128467   3.901  27.775   3.125  0.1368 -0.0308 -0.0252
    1DIPC   GL228468   3.758  27.441   2.997 -0.2194  0.1110  0.3142
    1DIPC   C1A28469   4.004  27.558   3.441 -0.3086  0.3803  0.2061
    1DIPC   D2A28470   4.153  27.418   3.839 -0.1113 -0.0115  0.1113
    1DIPC   D3A28471   4.166  27.209   4.163 -0.0330 -0.0554 -0.2111
    1DIPC   C4A28472   4.047  26.836   4.152 -0.0368  0.1466 -0.0290
    1DIPC   C1B28473   3.506  27.500   3.394  0.1109 -0.2657 -0.1003
    1DIPC   D2B28474   3.361  27.767   3.739 -0.0442  0.3057 -0.0911
    1DIPC   D3B28475   3.464  27.595   4.236 -0.1863 -0.3387  0.0982
    1DIPC   C4B28476   3.663  27.216   4.326  0.2698 -0.0971  0.3625
    1DIPC   NC328477   2.913  24.011   2.022 -0.2393 -0.0042  0.1311
    1DIPC   PO428478   2.556  24.284   2.088  0.2311 -0.2434 -0.3167
    1DIPC   GL128479   2.698  24.114   2.532 -0.3410  0.0324  0.2081
    1DIPC   GL228480   2.946  24.142   2.512 -0.0047  0.2725 -0.3083
    1DIPC   C1A28481   2.711  24.133   2.979  0.1034 -0.3087 -0.7134
    1DIPC   D2A28482   2.714  24.168   3.444  0.1877  0.1950  0.1112
    1DIPC   D3A28483   3.043  23.865   3.728 -0.1609 -0.0262  0.2698
    1DIPC   C4A28484   2.777  23.600   4.026  0.0550  0.0400 -0.1082
    1DIPC   C1B28485   3.214  23.912   2.704  0.0357  0.1650 -0.1112
    1DIPC   D2B28486   3.245  23.791   3.098  0.2102 -0.0578 -0.3460
    1DIPC   D3B28487   3.591  23.704   3.304 -0.1168  0.1777  0.2092
    1DIPC   C4B28488   3.535  23.728   3.759 -0.3267  0.0070  0.0622
    1DIPC   NC328489   6.096  20.735   1.585 -0.0777  0.2887 -0.1293
    1DIPC   PO428490   5.924  20.458   1.886  0.0944 -0.1761  0.1939
    1DIPC   GL128491   5.762  20.619   2.423  0.1127 -0.3030  0.0242
    1DIPC   GL228492   5.577  20.442   2.571  0.1233  0.1224 -0.1742
    1DIPC   C1A28493   5.646  20.978   2.769  0.1258  0.1100  0.0548
    1DIPC   D2A28494   5.493  21.014   3.179  0.0226  0.1363 -0.2729
    1DIPC   D3A28495   5.730  20.817   3.447 -0.0354  0.1394 -0.1599
    1DIPC   C4A28496   6.005  20.891   3.679  0.0525  0.0204  0.1213
    1DIPC   C1B28497   5.519  20.558   2.952 -0.4817 -0.1283  0.1732
    1DIPC   D2B28498   5.555  20.304   3.321 -0.1172  0.1617 -0.1303
    1DIPC   D3B28499   5.978  20.259   3.438  0.0566 -0.2635 -0.0777
    1DIPC   C4B28500   6.365  20.468   3.292  0.0897 -0.1717  0.1249
    1DIPC   NC328501   2.060   3.282   2.624  0.1374 -0.2897 -0.0872
    1DIPC   PO428502   1.991   3.454   3.072 -0.0594  0.0693 -0.1444
    1DIPC   GL128503   1.719   3.241   3.294 -0.0916  0.2422  0.0283
    1DIPC   GL228504   1.723   2.964   3.337  0.2894  0.0416 -0.0997
    1DIPC   C1A28505   1.728   3.120   3.770  0.1211  0.1294  0.1583
    1DIPC   D2A28506   1.731   2.960   4.064 -0.1512  0.0311 -0.1404
    1DIPC   D3A28507   1.955   2.953   4.406  0.2471  0.3165  0.0228
    1DIPC   C4A28508   1.764   2.756   4.754  0.0592 -0.0427  0.2472
    1DIPC   C1B28509   1.924   2.598   3.570  0.1078 -0.0141  0.2240
    1DIPC   D2B28510   2.379   2.347   3.559  0.0179 -0.1320 -0.2905
    1DIPC   D3B28511   2.016   2.100   3.693 -0.1948  0.2779 -0.0443
    1DIPC   C4B28512   1.579   2.182   3.567 -0.2011 -0.1119 -0.0953
    1DIPC   NC328513   2.758  13.070   2.683 -0.0969  0.1997 -0.1370
    1DIPC   PO428514   3.089  13.336   2.722  0.0902  0.1641 -0.3394
    1DIPC   GL128515   3.252  13.233   3.067 -0.1556  0.3753 -0.1320
    1DIPC   GL228516   3.556  13.097   3.021 -0.2598  0.0494 -0.2843
    1DIPC   C1A28517   2.969  13.208   3.451  0.2074  0.0821 -0.2424
    1DIPC   D2A28518   2.538  13.399   3.570  0.0500 -0.1362 -0.1442
    1DIPC   D3A28519   2.530  13.921   3.647  0.3856  0.2106  0.3980
    1DIPC   C4A28520   2.688  13.957   4.001 -0.1888 -0.0430  0.2304
    1DIPC   C1B28521   3.530  13.415   3.456 -0.2330  0.1770 -0.1315
    1DIPC   D2B28522   3.490  13.781   3.737  0.2502  0.0649  0.0699
    1DIPC   D3B28523   3.734  13.956   4.096 -0.0160 -0.1095  0.1346
    1DIPC   C4B28524   3.781  13.670   4.407  0.0926 -0.4004  0.1899
    1DIPC   NC328525  26.386  16.188   2.781 -0.1210 -0.4238 -0.4741
    1DIPC   PO428526  26.269  15.749   2.806  0.0005  0.1519  0.2245
    1DIPC   GL128527  26.190  15.862   3.199 -0.2138  0.0934  0.2561
    1DIPC   GL228528  26.157  16.179   3.260  0.1059 -0.0418  0.2387
    1DIPC   C1A28529  26.257  15.536   3.602 -0.1532 -0.0351 -0.2404
    1DIPC   D2A28530  26.123  15.270   3.969 -0.2026 -0.1555  0.4080
    1DIPC   D3A28531  25.900  15.649   3.929  0.0550  0.0105  0.3910
    1DIPC   C4A28532  25.756  15.836   3.504  0.0208  0.1628 -0.0176
    1DIPC   C1B28533  26.527  16.376   3.473 -0.1041 -0.0636  0.2263
    1DIPC   D2B28534  26.659  16.707   3.677  0.0364 -0.1451 -0.0387
    1DIPC   D3B28535  26.910  16.693   4.071 -0.1230  0.1538  0.1873
    1DIPC   C4B28536  26.846  16.375   4.350 -0.0734  0.1113 -0.0125
    1DIPC   NC328537  24.682  22.242   3.207  0.0694 -0.1336 -0.0196
    1DIPC   PO428538  24.751  21.804   3.020  0.2251  0.1182 -0.1283
    1DIPC   GL128539  24.411  21.562   3.345  0.3063  0.1071  0.2490
    1DIPC   GL228540  24.098  21.541   3.346 -0.1013 -0.1245  0.1166
    1DIPC   C1A28541  24.373  21.356   3.760  0.1488  0.0024  0.0415
    1DIPC   D2A28542  24.199  21.344   4.226  0.3903 -0.1524 -0.0929
    1DIPC   D3A28543  23.829  21.122   4.403  0.1594 -0.0101  0.1936
    1DIPC   C4A28544  23.898  20.897   4.795 -0.0075 -0.2048 -0.0975
    1DIPC   C1B28545  24.153  21.083   3.432 -0.2528  0.1335  0.0172
    1DIPC   D2B28546  24.179  20.828   3.820  0.0314 -0.2556 -0.0033
    1DIPC   D3B28547  24.069  20.714   4.245 -0.0661  0.0762  0.0940
    1DIPC   C4B28548  24.347  20.876   4.560 -0.0342  0.0154  0.2533
    1DIPC   NC328549  25.513  20.761   3.087 -0.0159 -0.0382 -0.2859
    1DIPC   PO428550  25.941  20.809   3.271 -0.0238 -0.2316  0.1998
    1DIPC   GL128551  25.885  20.713   3.643  0.1098 -0.0501 -0.2954
    1DIPC   GL228552  25.595  20.865   3.723 -0.1302  0.3257  0.0005
    1DIPC   C1A28553  26.044  20.715   3.956  0.0086  0.1147 -0.0007
    1DIPC   D2A28554  26.111  20.896   4.305  0.0199 -0.0450  0.0696
    1DIPC   D3A28555  25.856  21.161   4.374 -0.0405  0.0551 -0.1257
    1DIPC   C4A28556  25.826  21.447   4.678  0.0475 -0.1814 -0.1539
    1DIPC   C1B28557  25.562  21.259   3.963 -0.1718  0.3631  0.2378
    1DIPC   D2B28558  25.699  21.601   4.146 -0.2221 -0.1009  0.1747
    1DIPC   D3B28559  25.901  21.865   4.447 -0.3506  0.2484 -0.1457
    1DIPC   C4B28560  25.896  22.189   4.683  0.1708 -0.1460  0.0685
    1DIPC   NC328561  21.232  29.777   3.104 -0.3272 -0.0263 -0.1996
    1DIPC   PO428562  20.858  30.097   3.089 -0.0513  0.0464  0.1793
    1DIPC   GL128563  20.816  30.077   3.559  0.1757 -0.1787  0.0110
    1DIPC   GL228564  20.548  30.189   3.520 -0.0363 -0.3279  0.0378
    1DIPC   C1A28565  20.989  30.122   3.990  0.0448  0.2055 -0.0284
    1DIPC   D2A28566  21.269  30.263   4.256 -0.4492  0.1597 -0.0626
    1DIPC   D3A28567  21.315  30.539   4.494  0.0216 -0.1497  0.3556
    1DIPC   C4A28568  21.029  31.035   4.290 -0.2082  0.1256 -0.0110
    1DIPC   C1B28569  20.219  30.338   3.798  0.0389  0.2444  0.0230
    1DIPC   D2B28570  20.005  30.495   4.012 -0.0338  0.1831  0.1284
    1DIPC   D3B28571  20.001  30.033   4.170 -0.0983 -0.0013  0.1530
    1DIPC   C4B28572  20.181  29.847   4.488  0.2128 -0.0507 -0.1453
    1DIPC   NC328573  24.181  13.611   2.446 -0.0608  0.0119  0.0804
    1DIPC   PO428574  24.207  14.101   2.426  0.1024 -0.1011  0.1995
    1DIPC   GL128575  24.230  13.940   2.983  0.2439 -0.1126  0.0313
    1DIPC   GL228576  24.044  14.176   3.198  0.2426  0.3133  0.1216
    1DIPC   C1A28577  24.049  13.665   3.314 -0.1515  0.0864 -0.0772
    1DIPC   D2A28578  23.786  13.508   3.580 -0.0599 -0.0217  0.0620
    1DIPC   D3A28579  23.762  13.827   3.935 -0.0402  0.4863 -0.0940
    1DIPC   C4A28580  24.213  14.041   4.139  0.1288  0.0045  0.1389
    1DIPC   C1B28581  24.206  14.028   3.587 -0.0708  0.2105 -0.2870
    1DIPC   D2B28582  24.568  14.099   3.801  0.0657  0.2558  0.2044
    1DIPC   D3B28583  24.709  13.903   4.112  0.1279  0.2091 -0.0333
    1DIPC   C4B28584  24.509  13.650   4.508 -0.0659 -0.1474 -0.0906
    1DIPC   NC328585   7.676  29.476   2.917  0.1221  0.0668  0.0928
    1DIPC   PO428586   7.813  29.523   3.370 -0.3012  0.0612  0.1121
    1DIPC   GL128587   7.999  29.288   3.699  0.1194 -0.1872  0.2340
    1DIPC   GL228588   8.306  29.154   3.640 -0.1218  0.0959 -0.1561
    1DIPC   C1A28589   8.387  29.328   4.086  0.3343 -0.1410 -0.2459
    1DIPC   D2A28590   8.409  28.994   4.431 -0.0873 -0.3791  0.2127
    1DIPC   D3A28591   8.880  28.839   4.479  0.0993 -0.2144  0.2370
    1DIPC   C4A28592   8.870  28.625   4.834 -0.1538 -0.3902 -0.1159
    1DIPC   C1B28593   8.189  28.907   4.003  0.1726 -0.0516 -0.0343
    1DIPC   D2B28594   7.963  28.834   4.306 -0.2039  0.2160  0.4471
    1DIPC   D3B28595   8.216  28.568   4.577 -0.2061  0.0338 -0.1258
    1DIPC   C4B28596   8.527  28.359   4.497  0.0943 -0.1027 -0.1120
    1DIPC   NC328597  18.606  25.050   3.262 -0.2425  0.1601  0.1896
    1DIPC   PO428598  18.837  24.774   3.537 -0.0466 -0.1672  0.0275
    1DIPC   GL128599  18.904  24.375   3.768  0.2993 -0.0218 -0.1363
    1DIPC   GL228600  19.055  24.599   4.024  0.1784  0.0375  0.0247
    1DIPC   C1A28601  18.889  24.149   4.127  0.1542  0.1940  0.3000
    1DIPC   D2A28602  18.888  23.745   4.470 -0.0215  0.0200 -0.2263
    1DIPC   D3A28603  19.227  23.574   4.768 -0.1931  0.2231  0.2412
    1DIPC   C4A28604  19.283  23.148   4.926  0.1633  0.2572 -0.0641
    1DIPC   C1B28605  19.228  24.632   4.442  0.1388  0.1355 -0.2162
    1DIPC   D2B28606  19.152  24.660   4.813 -0.1513 -0.0435  0.1858
    1DIPC   D3B28607  19.001  25.143   4.759  0.0709  0.0502 -0.1264
    1DIPC   C4B28608  18.684  25.407   5.029  0.2450 -0.1264  0.1685
    1DIPC   NC328609  20.988   2.497   2.429  0.0545 -0.0313 -0.0951
    1DIPC   PO428610  20.621   2.454   2.668  0.2047 -0.3260  0.0568
    1DIPC   GL128611  20.700   2.404   3.123  0.5615  0.0543 -0.2680
    1DIPC   GL228612  20.905   2.091   3.289  0.0375  0.2505  0.3917
    1DIPC   C1A28613  20.908   2.581   3.425 -0.1364 -0.2576  0.1197
    1DIPC   D2A28614  21.038   3.018   3.550  0.0138  0.0124 -0.0886
    1DIPC   D3A28615  21.157   2.926   3.994  0.1073  0.0938 -0.0243
    1DIPC   C4A28616  20.939   2.869   4.306  0.2057  0.1979  0.1395
    1DIPC   C1B28617  21.187   2.062   3.668 -0.0325  0.2254 -0.0266
    1DIPC   D2B28618  21.341   2.042   4.083  0.2080  0.4058 -0.0508
    1DIPC   D3B28619  21.113   2.251   4.411  0.2631 -0.3765 -0.0293
    1DIPC   C4B28620  21.255   2.620   4.702  0.0974  0.1254  0.2826
    1DIPC   NC328621  13.868   4.855   2.975  0.1329  0.0483 -0.0329
    1DIPC   PO428622  14.122   4.784   3.247 -0.0883 -0.2018  0.1451
    1DIPC   GL128623  13.950   4.836   3.648 -0.1512 -0.3567 -0.1932
    1DIPC   GL228624  14.283   5.093   3.609  0.1517 -0.0480 -0.1670
    1DIPC   C1A28625  13.841   5.178   3.918 -0.1195 -0.0547 -0.1178
    1DIPC   D2A28626  13.762   5.327   4.356 -0.2616 -0.1090  0.1570
    1DIPC   D3A28627  13.918   5.159   4.746 -0.1295  0.0417  0.4096
    1DIPC   C4A28628  13.949   4.781   4.917  0.2586  0.1900  0.0362
    1DIPC   C1B28629  14.369   5.260   4.032 -0.0132  0.3612  0.0968
    1DIPC   D2B28630  14.533   5.221   4.499  0.0364 -0.1075  0.0518
    1DIPC   D3B28631  14.633   5.619   4.736  0.0752 -0.2915  0.1437
    1DIPC   C4B28632  14.605   6.079   4.607  0.0446  0.1600 -0.2177
    1DIPC   NC328633  21.254   4.294   2.788 -0.0133 -0.0790 -0.3139
    1DIPC   PO428634  21.549   4.024   2.929  0.3600 -0.0486  0.1970
    1DIPC   GL128635  21.328   4.267   3.268 -0.1337  0.0386  0.0402
    1DIPC   GL228636  21.011   4.424   3.243  0.1270 -0.1014 -0.4568
    1DIPC   C1A28637  21.242   4.357   3.780 -0.0666  0.2121 -0.2458
    1DIPC   D2A28638  21.015   4.525   4.053 -0.1894 -0.4066 -0.3334
    1DIPC   D3A28639  21.243   4.266   4.294  0.1152  0.0750  0.1456
    1DIPC   C4A28640  21.055   3.987   4.643 -0.2908  0.1422 -0.0992
    1DIPC   C1B28641  20.802   4.558   3.610 -0.2883 -0.2023  0.1727
    1DIPC   D2B28642  20.559   4.576   3.862  0.1019  0.0802  0.1053
    1DIPC   D3B28643  20.469   4.406   4.164 -0.2094  0.1939 -0.3366
    1DIPC   C4B28644  20.753   4.586   4.492 -0.2229  0.2315 -0.0721
    1DIPC   NC328645  18.704  25.120   4.103 -0.0192 -0.0033  0.0778
    1DIPC   PO428646  18.392  25.189   3.709  0.0492  0.1781 -0.2915
    1DIPC   GL128647  17.996  25.350   3.955  0.1185 -0.2573 -0.0377
    1DIPC   GL228648  18.129  25.208   4.217  0.2068 -0.0418 -0.1036
    1DIPC   C1A28649  17.663  25.066   4.157  0.1895  0.5063  0.3343
    1DIPC   D2A28650  17.534  24.705   4.124  0.0351  0.2254  0.6117
    1DIPC   D3A28651  17.342  24.851   4.522 -0.1686  0.2446 -0.1791
    1DIPC   C4A28652  16.966  24.797   4.662 -0.0271 -0.3702 -0.3125
    1DIPC   C1B28653  17.933  25.157   4.552  0.2072  0.1232 -0.2492
    1DIPC   D2B28654  17.630  25.061   4.919 -0.2664  0.0253 -0.2694
    1DIPC   D3B28655  17.864  25.493   4.994 -0.0031  0.0526 -0.1359
    1DIPC   C4B28656  18.168  25.565   5.424 -0.1122  0.0762  0.2463
    1DIPC   NC328657  18.437   1.438   2.687 -0.0361  0.2260 -0.0272
    1DIPC   PO428658  17.992   1.278   2.804 -0.0020 -0.3281 -0.0983
    1DIPC   GL128659  18.184   1.053   3.063  0.0133  0.3738 -0.3140
    1DIPC   GL228660  17.973   0.906   3.276 -0.1670  0.2655 -0.4616
    1DIPC   C1A28661  18.358   1.112   3.439 -0.0771 -0.0340 -0.1785
    1DIPC   D2A28662  18.128   1.026   3.777  0.1771 -0.1778  0.1345
    1DIPC   D3A28663  18.071   1.519   3.815 -0.2939  0.0717  0.0395
    1DIPC   C4A28664  18.283   1.636   4.229 -0.2261  0.0354  0.0118
    1DIPC   C1B28665  17.732   0.687   3.577  0.0863  0.2061  0.1053
    1DIPC   D2B28666  17.562   0.243   3.685 -0.1599 -0.0249 -0.1381
    1DIPC   D3B28667  17.843   0.027   4.010 -0.1166 -0.3644 -0.1659
    1DIPC   C4B28668  17.658  -0.184   4.393 -0.1075 -0.1418 -0.3395
    1DIPC   NC328669  19.731  27.464   2.719 -0.0329 -0.1078  0.2261
    1DIPC   PO428670  19.656  27.374   3.175  0.0013  0.3112 -0.1401
    1DIPC   GL128671  19.436  27.257   3.619 -0.2053  0.2204  0.0813
    1DIPC   GL228672  19.669  27.544   3.682  0.0829 -0.0465  0.0956
    1DIPC   C1A28673  19.383  27.145   3.992  0.4594  0.0103  0.2238
    1DIPC   D2A28674  19.578  27.417   4.348  0.2224 -0.0165  0.0156
    1DIPC   D3A28675  19.892  27.466   4.701 -0.2622 -0.3743 -0.0766
    1DIPC   C4A28676  20.228  27.711   4.767 -0.0139 -0.0494 -0.1737
    1DIPC   C1B28677  19.810  27.371   3.912 -0.0731  0.1268 -0.0424
    1DIPC   D2B28678  20.129  27.166   4.268 -0.1214 -0.2120  0.0648
    1DIPC   D3B28679  20.399  27.257   4.550  0.2565 -0.0867  0.2196
    1DIPC   C4B28680  20.803  26.957   4.731  0.4987  0.0812  0.1397
    1DIPC   NC328681   9.160  22.122   2.614 -0.3810 -0.1539  0.1109
    1DIPC   PO428682   9.517  21.798   2.396  0.0676 -0.2002 -0.0890
    1DIPC   GL128683   9.358  21.538   2.692 -0.2907 -0.1466 -0.1181
    1DIPC   GL228684   9.162  21.199   2.648  0.0471 -0.1550 -0.0900
    1DIPC   C1A28685   9.475  21.694   3.093 -0.3110  0.0322 -0.1208
    1DIPC   D2A28686   9.810  21.923   3.408  0.3314  0.0785 -0.1965
    1DIPC   D3A28687   9.457  22.178   3.626  0.1405 -0.0257 -0.0571
    1DIPC   C4A28688   9.148  22.061   3.944 -0.0382  0.0671 -0.1306
    1DIPC   C1B28689   9.050  21.388   3.079  0.3382  0.3910  0.1564
    1DIPC   D2B28690   9.072  21.619   3.535 -0.0936 -0.1352  0.0636
    1DIPC   D3B28691   9.380  21.632   3.837 -0.0223  0.1420 -0.3572
    1DIPC   C4B28692   9.425  21.665   4.284  0.2130  0.1360 -0.1496
    1DIPC   NC328693   0.097  24.932   2.472 -0.3434  0.0578 -0.0291
    1DIPC   PO428694  -0.273  25.134   2.610 -0.0757 -0.1417  0.0197
    1DIPC   GL128695  -0.242  24.891   3.002 -0.3994  0.0177  0.1366
    1DIPC   GL228696  -0.484  24.546   2.942  0.0699 -0.0183 -0.1769
    1DIPC   C1A28697  -0.064  25.178   3.352  0.1054 -0.0116 -0.2247
    1DIPC   D2A28698   0.265  25.403   3.333  0.0487 -0.4737 -0.1695
    1DIPC   D3A28699   0.598  25.210   3.573 -0.1069 -0.1192 -0.1519
    1DIPC   C4A28700   0.606  24.854   3.655 -0.0740  0.2311 -0.0398
    1DIPC   C1B28701  -0.507  24.151   3.212  0.1368 -0.3538  0.2956
    1DIPC   D2B28702  -0.631  23.963   3.540  0.3692  0.0593  0.0006
    1DIPC   D3B28703  -0.439  23.570   3.343  0.0510  0.3706  0.2605
    1DIPC   C4B28704  -0.004  23.426   3.433 -0.2582  0.0444  0.2692
    1DIPC   NC328705  24.052   3.183   2.806  0.1628  0.0689 -0.5140
    1DIPC   PO428706  24.139   3.534   2.995 -0.1102 -0.2165  0.1795
    1DIPC   GL128707  24.342   3.371   3.471  0.0123  0.0530 -0.0584
    1DIPC   GL228708  24.105   3.500   3.806 -0.0580 -0.0977  0.0082
    1DIPC   C1A28709  24.584   3.325   3.832  0.0622 -0.1703  0.1855
    1DIPC   D2A28710  24.681   3.509   4.095  0.2615  0.0301 -0.1116
    1DIPC   D3A28711  24.949   3.800   4.182  0.1434 -0.0510  0.3350
    1DIPC   C4A28712  25.298   3.672   4.236  0.1622 -0.2470  0.1265
    1DIPC   C1B28713  24.193   3.497   4.227  0.0856  0.2300  0.0150
    1DIPC   D2B28714  24.286   3.349   4.629  0.2834  0.1286 -0.3293
    1DIPC   D3B28715  23.982   3.139   4.527  0.3260  0.0105 -0.1444
    1DIPC   C4B28716  23.931   2.873   4.842  0.0923 -0.0903  0.0453
    1DIPC   NC328717   9.880  19.324   2.066 -0.1502 -0.2104  0.2181
    1DIPC   PO428718   9.456  19.316   1.942 -0.1389 -0.1501 -0.2473
    1DIPC   GL128719   9.293  19.454   2.382  0.0812 -0.0843  0.0694
    1DIPC   GL228720   9.255  19.770   2.381 -0.0281  0.0590  0.0778
    1DIPC   C1A28721   9.371  19.526   2.778 -0.1039  0.1929  0.3651
    1DIPC   D2A28722   9.491  19.676   3.228  0.2737  0.2023 -0.0501
    1DIPC   D3A28723   9.839  19.580   3.391  0.0481 -0.2151 -0.1437
    1DIPC   C4A28724   9.968  19.271   3.583  0.3114  0.0750 -0.3498
    1DIPC   C1B28725   9.420  19.999   2.687  0.0500  0.1680  0.0803
    1DIPC   D2B28726   9.452  20.271   3.055 -0.0680 -0.0350 -0.2295
    1DIPC   D3B28727   9.764  20.466   3.324 -0.3154 -0.2584  0.1101
    1DIPC   C4B28728   9.679  20.562   3.731 -0.1004 -0.4526 -0.1533
    1DIPC   NC328729  24.850   6.066   3.334  0.1421 -0.0840  0.0310
    1DIPC   PO428730  24.422   6.289   3.404  0.1929  0.2794 -0.0246
    1DIPC   GL128731  24.555   6.219   3.903  0.5091 -0.0353  0.0668
    1DIPC   GL228732  24.794   6.189   4.205  0.0097 -0.0060 -0.1977
    1DIPC   C1A28733  24.326   5.968   4.171 -0.0066  0.0382  0.2045
    1DIPC   D2A28734  24.251   5.624   4.466 -0.0450 -0.1536  0.0100
    1DIPC   D3A28735  23.969   5.632   4.775  0.0721  0.2541  0.3816
    1DIPC   C4A28736  23.569   5.389   4.599  0.3135  0.4296  0.2367
    1DIPC   C1B28737  24.523   6.225   4.506 -0.1741 -0.1772  0.2162
    1DIPC   D2B28738  24.363   6.079   4.892 -0.2199 -0.0540 -0.1922
    1DIPC   D3B28739  24.571   5.756   4.819  0.1783  0.1727  0.3026
    1DIPC   C4B28740  24.445   5.368   4.833 -0.1572  0.0322  0.1910
    1DIPC   NC328741  21.237   7.286   2.058  0.0908 -0.1412 -0.1547
    1DIPC   PO428742  21.457   7.510   2.438 -0.0735  0.0597  0.4079
    1DIPC   GL128743  21.386   7.593   2.855 -0.1873 -0.1211 -0.3041
    1DIPC   GL228744  21.207   7.345   2.863 -0.3051 -0.0554 -0.0725
    1DIPC   C1A28745  21.224   7.649   3.277 -0.0334  0.1468  0.2335
    1DIPC   D2A28746  21.175   7.456   3.660  0.0194  0.1206  0.0988
    1DIPC   D3A28747  21.568   7.370   3.939  0.1695  0.0107  0.1638
    1DIPC   C4A28748  21.367   7.325   4.339  0.3103  0.0463  0.2170
    1DIPC   C1B28749  20.872   7.287   3.226 -0.1032  0.1847 -0.0653
    1DIPC   D2B28750  20.730   7.637   3.397  0.0694  0.1419  0.1708
    1DIPC   D3B28751  20.846   7.779   3.795  0.3486 -0.0208 -0.0760
    1DIPC   C4B28752  20.922   7.453   4.152  0.0193  0.1289 -0.0225
    1DIPC   NC328753  24.293  11.386   2.277 -0.2838  0.1226  0.2057
    1DIPC   PO428754  24.136  11.413   2.658 -0.1458  0.0863  0.2417
    1DIPC   GL128755  24.005  11.440   3.034 -0.0788  0.2452 -0.0403
    1DIPC   GL228756  23.938  11.683   3.156 -0.3944  0.2536 -0.0273
    1DIPC   C1A28757  23.866  11.182   3.334  0.3730 -0.0511 -0.0651
    1DIPC   D2A28758  23.982  11.148   3.853 -0.1523 -0.0207 -0.1736
    1DIPC   D3A28759  24.264  10.892   4.086 -0.2409  0.1641  0.1616
    1DIPC   C4A28760  24.054  10.520   4.291 -0.0481  0.1796  0.2973
    1DIPC   C1B28761  24.112  11.649   3.657  0.0795 -0.1063 -0.3993
    1DIPC   D2B28762  24.122  11.508   4.170  0.0451  0.1923  0.2285
    1DIPC   D3B28763  23.921  11.643   4.512 -0.0441 -0.0990 -0.2463
    1DIPC   C4B28764  23.602  11.831   4.430 -0.0453  0.0397 -0.3829
    1DIPC   NC328765  24.832  26.836   2.402 -0.1072 -0.4239 -0.0039
    1DIPC   PO428766  24.582  27.035   2.838 -0.2778  0.1540  0.0963
    1DIPC   GL128767  24.340  26.969   3.180  0.2821  0.0264  0.1559
    1DIPC   GL228768  24.372  27.047   3.509 -0.0005 -0.2074  0.2600
    1DIPC   C1A28769  24.221  26.578   3.433  0.5776  0.4431 -0.1364
    1DIPC   D2A28770  23.992  26.538   3.784  0.2098 -0.1753 -0.1826
    1DIPC   D3A28771  24.002  27.040   3.842  0.2308  0.3132 -0.0989
    1DIPC   C4A28772  23.628  27.277   3.846  0.1571 -0.4138  0.0507
    1DIPC   C1B28773  24.664  27.356   3.775 -0.1522 -0.2510 -0.2555
    1DIPC   D2B28774  24.718  27.795   3.974  0.1200  0.2399  0.0003
    1DIPC   D3B28775  24.305  27.919   4.246 -0.1947 -0.0850 -0.1006
    1DIPC   C4B28776  24.096  27.796   4.450  0.0778  0.0143 -0.4077
    1DIPC   NC328777   6.371  28.438   3.301  0.1243 -0.1252  0.0646
    1DIPC   PO428778   6.535  28.839   3.006  0.1541  0.2495 -0.0830
    1DIPC   GL128779   6.178  29.033   3.348  0.2764  0.1333  0.1593
    1DIPC   GL228780   6.080  28.794   3.564 -0.2533 -0.1770 -0.0275
    1DIPC   C1A28781   6.218  29.306   3.703 -0.2826  0.1379  0.1323
    1DIPC   D2A28782   6.608  29.501   3.770  0.0982  0.2575  0.0001
    1DIPC   D3A28783   6.417  29.807   3.870 -0.1668  0.0005  0.2013
    1DIPC   C4A28784   6.344  29.893   4.315 -0.1176  0.0979  0.1383
    1DIPC   C1B28785   6.507  28.913   3.761  0.0773  0.1586  0.4514
    1DIPC   D2B28786   6.731  29.059   3.998  0.4534 -0.0146  0.1931
    1DIPC   D3B28787   6.891  28.829   4.286 -0.0573 -0.0836  0.0371
    1DIPC   C4B28788   6.746  28.725   4.748 -0.4254  0.0231  0.1824
    1DIPC   NC328789  14.475  26.203   3.250  0.0570  0.2684 -0.2437
    1DIPC   PO428790  14.218  26.203   2.946 -0.1673  0.0729  0.3823
    1DIPC   GL128791  14.048  25.961   3.275 -0.2865  0.1200  0.1290
    1DIPC   GL228792  13.738  25.829   3.229 -0.1984 -0.2926  0.4778
    1DIPC   C1A28793  14.103  25.821   3.615  0.1338 -0.2306 -0.1597
    1DIPC   D2A28794  14.202  25.759   3.973 -0.0642  0.0883  0.1930
    1DIPC   D3A28795  14.418  25.982   4.248  0.0032 -0.3687 -0.3235
    1DIPC   C4A28796  14.265  26.048   4.662 -0.1492  0.0508  0.0526
    1DIPC   C1B28797  13.619  25.695   3.603  0.2496  0.1192 -0.1660
    1DIPC   D2B28798  13.242  25.401   3.777 -0.1981  0.1094  0.0300
    1DIPC   D3B28799  13.267  25.841   3.997  0.0172 -0.0525  0.1642
    1DIPC   C4B28800  13.369  26.248   3.607 -0.0508 -0.1297 -0.1313
    1DIPC   NC328801  12.864   1.139   3.413 -0.3146 -0.0323  0.1019
    1DIPC   PO428802  13.109   1.290   3.757  0.0828  0.0521  0.0129
    1DIPC   GL128803  13.177   0.821   3.686 -0.1903  0.0748 -0.0666
    1DIPC   GL228804  13.297   0.618   3.848  0.1919  0.0917  0.2576
    1DIPC   C1A28805  12.831   0.462   3.873 -0.0865 -0.1422 -0.2754
    1DIPC   D2A28806  12.883   0.106   3.858 -0.0271  0.2405 -0.0606
    1DIPC   D3A28807  12.880   0.045   4.267 -0.0688 -0.3432 -0.3113
    1DIPC   C4A28808  13.184  -0.245   4.370 -0.0846 -0.1794 -0.1653
    1DIPC   C1B28809  13.544   0.619   4.238  0.2066  0.2205 -0.1814
    1DIPC   D2B28810  13.799   0.413   4.524  0.1946  0.3241 -0.0581
    1DIPC   D3B28811  13.446   0.159   4.461  0.3971 -0.1597 -0.3633
    1DIPC   C4B28812  13.350   0.071   3.912  0.1079 -0.1867 -0.0136
    1DIPC   NC328813  25.060  11.310   2.542 -0.3123 -0.4574 -0.3675
    1DIPC   PO428814  25.318  11.570   2.456 -0.2380  0.3364  0.1533
    1DIPC   GL128815  25.460  11.654   2.836  0.3815  0.3446 -0.3443
    1DIPC   GL228816  25.196  11.489   2.983 -0.1657  0.1317  0.0159
    1DIPC   C1A28817  25.612  11.698   3.293  0.0263 -0.1319  0.4000
    1DIPC   D2A28818  26.052  11.627   3.394  0.2844 -0.3851 -0.0917
    1DIPC   D3A28819  26.144  12.010   3.735  0.2493  0.2048 -0.2128
    1DIPC   C4A28820  25.682  12.067   3.872 -0.0835  0.3628  0.1422
    1DIPC   C1B28821  25.040  11.742   3.238 -0.1114  0.1587  0.0003
    1DIPC   D2B28822  25.139  12.084   3.464 -0.0293  0.0089 -0.0587
    1DIPC   D3B28823  25.319  11.772   3.670  0.0079 -0.3131  0.0700
    1DIPC   C4B28824  25.290  11.355   3.485  0.6063 -0.1744 -0.3243
    1DIPC   NC328825   4.689  16.621   2.476 -0.1682  0.0501  0.0945
    1DIPC   PO428826   5.131  16.392   2.546 -0.1409  0.1982 -0.1155
    1DIPC   GL128827   5.038  16.466   2.941 -0.0713  0.1273  0.2970
    1DIPC   GL228828   5.153  16.189   3.121  0.0825 -0.2073  0.0648
    1DIPC   C1A28829   4.830  16.785   3.194 -0.5350 -0.1472 -0.2233
    1DIPC   D2A28830   4.534  16.895   3.529  0.2710  0.1772 -0.1107
    1DIPC   D3A28831   4.790  17.137   3.832 -0.0700 -0.2153  0.0231
    1DIPC   C4A28832   5.111  16.883   3.993 -0.0048  0.2198 -0.0320
    1DIPC   C1B28833   5.199  16.512   3.502  0.1058  0.1714  0.0443
    1DIPC   D2B28834   5.481  16.472   3.816  0.2756 -0.1294 -0.1374
    1DIPC   D3B28835   5.808  16.278   3.757  0.0620  0.2076 -0.1739
    1DIPC   C4B28836   6.182  16.390   3.945 -0.1504  0.1030 -0.1853
    1DIPC   NC328837  19.271   9.525   2.242  0.4089 -0.0091 -0.0843
    1DIPC   PO428838  19.044   9.910   2.310  0.5615  0.1150 -0.2130
    1DIPC   GL128839  18.951   9.792   2.750 -0.2255  0.1098 -0.0197
    1DIPC   GL228840  18.667   9.602   2.850 -0.0215  0.0723 -0.1071
    1DIPC   C1A28841  19.226   9.891   3.001 -0.0834 -0.0215 -0.2886
    1DIPC   D2A28842  19.500   9.773   3.436  0.2895 -0.0296 -0.0547
    1DIPC   D3A28843  19.943   9.851   3.461 -0.2471  0.0577 -0.1360
    1DIPC   C4A28844  20.170  10.235   3.551 -0.1218  0.1379  0.0081
    1DIPC   C1B28845  18.798   9.780   3.215 -0.1719  0.1293 -0.0241
    1DIPC   D2B28846  19.015   9.856   3.600  0.0520 -0.0359 -0.0408
    1DIPC   D3B28847  18.688   9.757   3.836 -0.1908 -0.0055 -0.2705
    1DIPC   C4B28848  18.464   9.390   4.037  0.2340 -0.1437  0.2291
    1DIPC   NC328849  24.679  28.839   2.869 -0.0171  0.0818  0.0568
    1DIPC   PO428850  24.512  28.416   2.931  0.4047  0.0276 -0.0865
    1DIPC   GL128851  24.638  28.392   3.366  0.2036 -0.5245  0.2783
    1DIPC   GL228852  24.505  28.422   3.605  0.3139  0.1815 -0.0156
    1DIPC   C1A28853  24.953  28.304   3.650  0.1863  0.3080 -0.1777
    1DIPC   D2A28854  25.088  28.077   3.956 -0.0386 -0.0022  0.1107
    1DIPC   D3A28855  25.207  27.648   3.842 -0.3743 -0.0620 -0.1780
    1DIPC   C4A28856  25.558  27.463   4.038 -0.1388 -0.5185  0.0330
    1DIPC   C1B28857  24.553  28.335   4.101  0.1746 -0.2898  0.1501
    1DIPC   D2B28858  24.460  28.680   4.439 -0.1983 -0.0572  0.0149
    1DIPC   D3B28859  24.320  28.793   4.948  0.0982 -0.1211  0.0110
    1DIPC   C4B28860  24.419  29.061   5.301  0.2865  0.0434  0.0568
    1DIPC   NC328861  24.169   0.063   3.075  0.2619  0.4124 -0.3331
    1DIPC   PO428862  23.788   0.149   3.280 -0.2497 -0.0042 -0.0298
    1DIPC   GL128863  23.569   0.180   3.752 -0.3149 -0.0507  0.2679
    1DIPC   GL228864  23.736  -0.045   3.767 -0.0575 -0.1680  0.1789
    1DIPC   C1A28865  23.349  -0.108   4.070 -0.0454 -0.1803 -0.0286
    1DIPC   D2A28866  22.998  -0.212   4.468 -0.0290  0.2177  0.1210
    1DIPC   D3A28867  22.604   0.083   4.438 -0.0220  0.1941  0.2051
    1DIPC   C4A28868  22.566   0.266   4.848  0.0301 -0.0864  0.0981
    1DIPC   C1B28869  23.903  -0.312   4.090  0.1952 -0.2833  0.1198
    1DIPC   D2B28870  24.310  -0.189   4.132  0.1821  0.0573 -0.0233
    1DIPC   D3B28871  24.181   0.043   4.433  0.7771 -0.1500 -0.0360
    1DIPC   C4B28872  24.305   0.325   4.554 -0.0625  0.0829 -0.3629
    1DIPC   NC328873   7.532  27.667   2.829  0.2525  0.4382 -0.1859
    1DIPC   PO428874   7.965  27.535   2.814 -0.4163 -0.3424 -0.0148
    1DIPC   GL128875   8.048  27.104   3.040  0.0484  0.2146  0.1385
    1DIPC   GL228876   7.805  27.314   3.245 -0.0956 -0.0752 -0.0115
    1DIPC   C1A28877   8.403  27.006   3.395 -0.0082 -0.1250 -0.1000
    1DIPC   D2A28878   8.610  26.775   3.688  0.1098 -0.1939  0.0552
    1DIPC   D3A28879   8.419  27.168   3.908 -0.0033  0.0609  0.1701
    1DIPC   C4A28880   8.057  27.166   4.188  0.0504 -0.0590  0.2971
    1DIPC   C1B28881   7.619  27.500   3.609 -0.2024 -0.3443 -0.0180
    1DIPC   D2B28882   7.752  27.485   3.953  0.1013  0.1012 -0.0008
    1DIPC   D3B28883   7.328  27.550   4.214  0.0153  0.2540 -0.1161
    1DIPC   C4B28884   7.006  27.938   4.195  0.1425 -0.3653  0.1039
    1DIPC   NC328885   5.389  18.550   1.811 -0.0372 -0.0370  0.1103
    1DIPC   PO428886   5.064  18.490   2.116  0.2141 -0.2189 -0.1323
    1DIPC   GL128887   5.137  18.690   2.468  0.0684 -0.0693 -0.0657
    1DIPC   GL228888   5.285  18.986   2.617 -0.3294  0.0283 -0.2167
    1DIPC   C1A28889   5.361  18.367   2.752  0.3118 -0.2069  0.1787
    1DIPC   D2A28890   5.683  18.294   3.145 -0.0557  0.0254 -0.0245
    1DIPC   D3A28891   6.143  18.178   3.227 -0.0675  0.1829  0.1124
    1DIPC   C4A28892   6.225  18.523   3.492 -0.1250 -0.0974 -0.0795
    1DIPC   C1B28893   5.126  18.840   3.035  0.0388 -0.0031 -0.1417
    1DIPC   D2B28894   4.785  18.665   3.328 -0.3427  0.0083 -0.1253
    1DIPC   D3B28895   5.120  18.656   3.537 -0.1024  0.1522 -0.1697
    1DIPC   C4B28896   5.495  18.687   3.303  0.0876 -0.0279  0.0122
    1DIPC   NC328897   0.000  20.882   2.401 -0.0907 -0.4295 -0.0157
    1DIPC   PO428898  -0.311  20.613   2.373  0.0045 -0.2228 -0.0715
    1DIPC   GL128899  -0.239  20.582   2.757  0.2071  0.0964 -0.0425
    1DIPC   GL228900  -0.526  20.732   2.856 -0.1179  0.0001 -0.3820
    1DIPC   C1A28901  -0.032  20.435   3.032  0.0540 -0.1283  0.1081
    1DIPC   D2A28902   0.044  20.438   3.519  0.0228 -0.0298 -0.0606
    1DIPC   D3A28903  -0.396  20.438   3.703  0.0159 -0.2325  0.3859
    1DIPC   C4A28904  -0.593  20.443   4.110  0.1652 -0.0418 -0.1317
    1DIPC   C1B28905  -0.498  20.364   3.174 -0.2367  0.1513 -0.3951
    1DIPC   D2B28906  -0.200  19.960   3.189  0.0694  0.1021 -0.0510
    1DIPC   D3B28907  -0.189  19.961   3.704  0.0692 -0.2577  0.0832
    1DIPC   C4B28908  -0.174  19.995   4.176  0.2893 -0.1531  0.1757
    1DIPC   NC328909   2.709  11.855   2.969 -0.1100  0.0986 -0.2006
    1DIPC   PO428910   2.664  11.504   2.774 -0.1972 -0.1627 -0.0713
    1DIPC   GL128911   2.526  11.474   3.279  0.2801 -0.0977 -0.0148
    1DIPC   GL228912   2.633  11.230   3.490 -0.3698  0.2623 -0.0154
    1DIPC   C1A28913   2.582  11.670   3.603  0.0950  0.0131  0.1287
    1DIPC   D2A28914   2.787  12.054   3.629  0.4175  0.1670  0.0457
    1DIPC   D3A28915   2.914  11.765   3.976 -0.0976 -0.0826  0.1096
    1DIPC   C4A28916   2.934  11.806   4.457  0.1373 -0.1881  0.0811
    1DIPC   C1B28917   3.033  11.458   3.595  0.2029 -0.0044 -0.0167
    1DIPC   D2B28918   3.447  11.471   3.430  0.0334  0.3180 -0.0416
    1DIPC   D3B28919   3.617  11.177   3.719  0.1027 -0.0374 -0.2449
    1DIPC   C4B28920   3.943  10.988   3.696 -0.6561 -0.1042  0.1869
    1DIPC   NC328921   4.525   9.436   3.332  0.0294  0.0056  0.1383
    1DIPC   PO428922   4.257   9.151   3.226  0.0199 -0.0131 -0.3153
    1DIPC   GL128923   3.956   9.136   3.579  0.0064 -0.0844  0.3649
    1DIPC   GL228924   4.229   9.267   3.735 -0.0226 -0.3560 -0.0323
    1DIPC   C1A28925   3.693   9.103   3.895  0.2169 -0.0106 -0.1685
    1DIPC   D2A28926   3.561   9.066   4.300  0.2303 -0.1776 -0.0149
    1DIPC   D3A28927   3.872   8.887   4.395  0.1873  0.2203 -0.1330
    1DIPC   C4A28928   3.886   8.793   4.771  0.1771  0.0606  0.0678
    1DIPC   C1B28929   3.958   9.455   4.072  0.3128 -0.0051  0.2484
    1DIPC   D2B28930   3.751   9.657   4.416  0.4169 -0.3111 -0.3125
    1DIPC   D3B28931   3.687   9.386   4.721 -0.0748  0.3372  0.0992
    1DIPC   C4B28932   3.360   9.044   4.723 -0.1370 -0.0621  0.0785
    1DIPC   NC328933   1.682  18.682   2.500 -0.1815  0.0804  0.0253
    1DIPC   PO428934   1.973  18.467   2.154 -0.2490  0.1969 -0.2060
    1DIPC   GL128935   2.123  18.439   2.697 -0.0221  0.1298 -0.1952
    1DIPC   GL228936   1.829  18.264   2.707 -0.2916 -0.2277  0.2274
    1DIPC   C1A28937   2.355  18.221   3.062 -0.2705  0.3864  0.0547
    1DIPC   D2A28938   2.491  17.854   3.407 -0.1767  0.0348 -0.3590
    1DIPC   D3A28939   2.167  17.863   3.764  0.0576  0.1109 -0.0864
    1DIPC   C4A28940   2.082  17.495   4.029  0.0484 -0.2948 -0.0240
    1DIPC   C1B28941   1.834  18.248   3.150  0.1378  0.0535  0.0490
    1DIPC   D2B28942   2.153  18.343   3.527  0.0786 -0.0145  0.0489
    1DIPC   D3B28943   2.673  18.271   3.611 -0.2112 -0.0481 -0.1219
    1DIPC   C4B28944   2.689  18.102   3.965  0.2069  0.0663 -0.1031
    1DIPC   NC328945  24.357  10.514   2.851  0.0725  0.0613  0.1922
    1DIPC   PO428946  24.749  10.690   2.789  0.1990  0.2844  0.0650
    1DIPC   GL128947  24.962  10.624   3.136 -0.1213 -0.3012  0.1302
    1DIPC   GL228948  25.146  10.353   3.062  0.0337  0.0884 -0.0676
    1DIPC   C1A28949  25.203  10.845   3.465  0.2355  0.1538 -0.2071
    1DIPC   D2A28950  25.333  10.587   3.922 -0.0952 -0.2034 -0.3601
    1DIPC   D3A28951  25.569  10.928   3.981 -0.1903  0.4423 -0.3715
    1DIPC   C4A28952  25.592  11.242   4.325  0.3138  0.0823  0.2613
    1DIPC   C1B28953  25.056  10.217   3.440 -0.0612 -0.4518  0.2831
    1DIPC   D2B28954  24.912  10.381   3.870  0.0500 -0.2470 -0.1328
    1DIPC   D3B28955  24.937  10.031   4.114  0.2377 -0.1950 -0.1269
    1DIPC   C4B28956  24.697   9.865   4.254  0.0329  0.1221  0.3445
    1DIPC   NC328957  21.920   7.571   2.584 -0.1323  0.1620 -0.2303
    1DIPC   PO428958  22.096   7.264   2.732 -0.2561 -0.3270  0.0191
    1DIPC   GL128959  21.846   7.539   3.128  0.1860  0.2355  0.1529
    1DIPC   GL228960  21.865   7.897   2.980 -0.0284 -0.0272 -0.0054
    1DIPC   C1A28961  21.694   7.606   3.414 -0.4306  0.0101 -0.0358
    1DIPC   D2A28962  21.497   7.881   3.626  0.0625 -0.3406  0.0616
    1DIPC   D3A28963  21.388   7.832   4.101 -0.0634 -0.1801  0.1100
    1DIPC   C4A28964  21.719   7.776   4.380 -0.0150 -0.0137 -0.2333
    1DIPC   C1B28965  21.475   8.094   3.165  0.2868 -0.0486 -0.0357
    1DIPC   D2B28966  21.443   8.391   3.494  0.1241 -0.1014 -0.0228
    1DIPC   D3B28967  21.014   8.119   3.487 -0.1710 -0.0209  0.1773
    1DIPC   C4B28968  20.860   8.135   3.173 -0.0950 -0.0170  0.0183
    1DIPC   NC328969  12.661   4.243   3.316 -0.1441  0.2288  0.1967
    1DIPC   PO428970  13.062   3.948   3.434  0.0365 -0.3631  0.1303
    1DIPC   GL128971  12.956   3.950   3.851  0.1534 -0.3032  0.1033
    1DIPC   GL228972  13.016   3.603   3.869 -0.1202 -0.1195  0.4813
    1DIPC   C1A28973  12.982   4.168   4.207 -0.1365 -0.0028  0.2025
    1DIPC   D2A28974  13.078   4.287   4.627 -0.2111  0.0153  0.2952
    1DIPC   D3A28975  13.038   4.242   5.063 -0.2200 -0.0102  0.3344
    1DIPC   C4A28976  13.355   4.218   5.327 -0.2786  0.3803  0.2018
    1DIPC   C1B28977  13.196   3.330   4.101  0.0704  0.1760  0.2160
    1DIPC   D2B28978  13.341   3.252   4.512 -0.0319  0.2901  0.2282
    1DIPC   D3B28979  13.248   3.683   4.652  0.0740 -0.3414  0.1271
    1DIPC   C4B28980  13.509   4.016   4.798 -0.2064  0.0856 -0.0989
    1DIPC   NC328981   8.603  12.443   2.675 -0.1806  0.0683  0.0093
    1DIPC   PO428982   8.285  12.161   2.829 -0.2020 -0.0451 -0.0212
    1DIPC   GL128983   8.305  12.344   3.195 -0.1501 -0.0486 -0.0120
    1DIPC   GL228984   8.313  12.738   3.216  0.1014  0.1923 -0.2473
    1DIPC   C1A28985   8.417  12.287   3.548 -0.1867 -0.1276  0.1052
    1DIPC   D2A28986   8.613  11.819   3.662 -0.1658 -0.0059 -0.0666
    1DIPC   D3A28987   8.421  11.899   4.024  0.3280 -0.1904 -0.1363
    1DIPC   C4A28988   8.618  11.960   4.318 -0.0894 -0.0987 -0.0639
    1DIPC   C1B28989   7.961  12.801   3.420 -0.0812  0.1550  0.2179
    1DIPC   D2B28990   7.775  12.672   3.807 -0.2880  0.0822  0.0482
    1DIPC   D3B28991   7.623  13.015   4.084  0.2180 -0.1119 -0.4325
    1DIPC   C4B28992   7.498  13.378   3.973  0.2097 -0.0392  0.1174
    1DIPC   NC328993  23.626  25.822   3.151  0.1253 -0.2196 -0.2732
    1DIPC   PO428994  23.359  26.213   3.063  0.1484 -0.1318  0.1120
    1DIPC   GL128995  23.159  26.041   3.354  0.0326 -0.0452  0.0031
    1DIPC   GL228996  22.892  26.373   3.488  0.0298  0.2195 -0.0824
    1DIPC   C1A28997  23.221  25.806   3.707 -0.2482  0.2324  0.3468
    1DIPC   D2A28998  23.489  25.762   3.954  0.2352 -0.2747 -0.0959
    1DIPC   D3A28999  23.430  25.359   4.141 -0.1181 -0.2792 -0.0140
    1DIPC   C4A29000  23.423  25.282   4.593 -0.1493 -0.2781 -0.2057
    1DIPC   C1B29001  23.229  26.385   3.769 -0.0489 -0.0306 -0.2048
    1DIPC   D2B29002  23.601  26.273   3.897  0.0341  0.1153  0.3063
    1DIPC   D3B29003  23.658  26.534   4.225  0.3115  0.1342 -0.1487
    1DIPC   C4B29004  23.220  26.537   4.284 -0.2054 -0.1864  0.2308
    1DIPC   NC329005   4.740   5.801   2.755  0.1214 -0.0982  0.3614
    1DIPC   PO429006   4.835   6.017   3.066 -0.0507 -0.0809  0.0723
    1DIPC   GL129007   4.880   6.228   3.403 -0.0413  0.2148  0.3674
    1DIPC   GL229008   4.579   6.348   3.504 -0.0269  0.0825  0.1915
    1DIPC   C1A29009   5.106   6.522   3.591 -0.2573  0.1565 -0.1778
    1DIPC   D2A29010   5.214   6.902   3.573 -0.2274  0.0457  0.2185
    1DIPC   D3A29011   5.130   6.875   3.994  0.1695 -0.0699 -0.1332
    1DIPC   C4A29012   5.466   6.767   4.224 -0.0039  0.2183  0.1382
    1DIPC   C1B29013   4.606   5.957   3.742  0.1628  0.0268  0.1452
    1DIPC   D2B29014   4.545   5.524   3.735  0.0332  0.0539 -0.3005
    1DIPC   D3B29015   4.297   5.736   4.101  0.2134  0.2654  0.1289
    1DIPC   C4B29016   4.010   6.043   4.195  0.0918 -0.0133 -0.0638
    1DIPC   NC329017  26.247  24.861   3.155  0.0496  0.0460  0.0752
    1DIPC   PO429018  26.027  25.202   2.950 -0.3001 -0.0262  0.1355
    1DIPC   GL129019  25.943  25.232   3.350  0.0916  0.5593  0.1970
    1DIPC   GL229020  26.195  25.126   3.593  0.0316 -0.0024 -0.1696
    1DIPC   C1A29021  25.630  25.149   3.541 -0.1807  0.1851 -0.1220
    1DIPC   D2A29022  25.589  25.185   4.069  0.1223 -0.2279  0.0490
    1DIPC   D3A29023  25.972  24.961   4.122 -0.1111  0.0652  0.1351
    1DIPC   C4A29024  25.950  24.450   4.048 -0.0180  0.1445  0.3170
    1DIPC   C1B29025  26.380  24.791   3.855 -0.0434  0.1939 -0.0816
    1DIPC   D2B29026  26.695  24.796   4.078 -0.0088 -0.4927  0.3366
    1DIPC   D3B29027  26.863  24.947   4.450 -0.0957 -0.2011 -0.0855
    1DIPC   C4B29028  26.833  25.359   4.557  0.1559  0.2148  0.0132
    1DIPC   NC329029   6.519   4.929   3.485 -0.1514  0.0170 -0.3535
    1DIPC   PO429030   6.231   4.646   3.483 -0.0386  0.3623  0.0759
    1DIPC   GL129031   6.053   4.434   3.757 -0.1986 -0.0832  0.0521
    1DIPC   GL229032   6.129   4.117   3.927 -0.1810  0.0196 -0.0099
    1DIPC   C1A29033   5.789   4.480   4.130 -0.0618 -0.3435 -0.2674
    1DIPC   D2A29034   5.803   4.681   4.545 -0.1537  0.0514  0.2192
    1DIPC   D3A29035   6.081   4.984   4.660 -0.0874 -0.2685 -0.2893
    1DIPC   C4A29036   6.184   5.296   4.446 -0.1492 -0.3420 -0.2163
    1DIPC   C1B29037   6.038   3.898   4.395  0.3271 -0.3128 -0.0733
    1DIPC   D2B29038   6.081   3.420   4.621  0.2997  0.1915 -0.0348
    1DIPC   D3B29039   6.066   3.758   4.904  0.0173  0.2756 -0.0686
    1DIPC   C4B29040   6.324   3.581   5.303  0.0317 -0.2817  0.3160
    1DIPC   NC329041  23.273  23.662   2.875 -0.0263  0.0416 -0.1603
    1DIPC   PO429042  23.495  23.340   3.069 -0.0507  0.0248 -0.0178
    1DIPC   GL129043  23.522  23.296   3.472  0.2397 -0.1720  0.4403
    1DIPC   GL229044  23.766  23.460   3.577  0.2086  0.1834 -0.3351
    1DIPC   C1A29045  23.548  23.009   3.762  0.1766 -0.0147 -0.1327
    1DIPC   D2A29046  23.641  22.640   3.975  0.1546  0.0730  0.0679
    1DIPC   D3A29047  23.487  22.272   3.959 -0.2567  0.0923 -0.2285
    1DIPC   C4A29048  23.786  21.957   3.876 -0.0651 -0.1011  0.1377
    1DIPC   C1B29049  23.469  23.541   3.891  0.2214  0.1008 -0.1682
    1DIPC   D2B29050  23.119  23.384   4.183  0.1169 -0.1245 -0.1670
    1DIPC   D3B29051  23.103  23.216   4.509 -0.4034 -0.0866  0.2367
    1DIPC   C4B29052  22.626  23.010   4.541 -0.0996  0.0226 -0.1095
    1DIPC   NC329053  27.425   3.079   3.077  0.1902 -0.3416 -0.2621
    1DIPC   PO429054  27.658   2.656   3.093  0.0315  0.2056 -0.0738
    1DIPC   GL129055  27.661   2.649   3.561 -0.1949  0.2195 -0.0967
    1DIPC   GL229056  27.750   2.918   3.542 -0.0481  0.0022 -0.0049
    1DIPC   C1A29057  27.472   2.693   3.977 -0.1171  0.1202  0.0027
    1DIPC   D2A29058  27.483   2.875   4.356 -0.0753  0.2556  0.0527
    1DIPC   D3A29059  27.408   2.601   4.684 -0.3210 -0.1999 -0.0092
    1DIPC   C4A29060  27.109   2.762   4.887  0.0330 -0.1550  0.4034
    1DIPC   C1B29061  28.085   3.152   3.705  0.1167 -0.0369  0.1230
    1DIPC   D2B29062  28.565   3.100   3.938 -0.0129  0.0655 -0.0036
    1DIPC   D3B29063  28.429   2.781   4.279 -0.1523  0.1542  0.1885
    1DIPC   C4B29064  28.334   2.337   4.373  0.0472 -0.1009  0.3367
    1DIPC   NC329065  14.954   5.411   3.225 -0.0520 -0.0707  0.1288
    1DIPC   PO429066  14.927   5.011   3.033  0.2503 -0.0445 -0.1626
    1DIPC   GL129067  14.776   4.991   3.464  0.1046  0.1016  0.2312
    1DIPC   GL229068  14.640   4.694   3.623 -0.2478  0.2209 -0.1114
    1DIPC   C1A29069  14.812   5.143   3.911  0.0427  0.0769 -0.0200
    1DIPC   D2A29070  14.838   5.518   4.179  0.1365 -0.2340 -0.2346
    1DIPC   D3A29071  15.096   5.571   4.536 -0.1233 -0.1471  0.0033
    1DIPC   C4A29072  15.222   5.428   4.852 -0.0670  0.0500 -0.1376
    1DIPC   C1B29073  14.378   4.722   3.981  0.1815 -0.1197 -0.0617
    1DIPC   D2B29074  14.260   4.792   4.481  0.2280 -0.1974  0.1616
    1DIPC   D3B29075  14.484   4.759   4.887 -0.0493  0.0510 -0.3056
    1DIPC   C4B29076  14.288   4.489   5.130 -0.1153  0.0625  0.1968
    1DIPC   NC329077   8.605   8.356   3.421  0.2822  0.1565 -0.0463
    1DIPC   PO429078   8.231   7.999   3.544  0.0522 -0.4692 -0.0175
    1DIPC   GL129079   8.053   7.919   3.921 -0.2926 -0.1066 -0.0380
    1DIPC   GL229080   7.960   7.660   4.012  0.1503  0.1237 -0.0408
    1DIPC   C1A29081   7.822   8.062   4.335 -0.1150  0.0303  0.2665
    1DIPC   D2A29082   7.506   8.136   4.760  0.0706 -0.2253  0.0968
    1DIPC   D3A29083   7.551   8.563   4.620  0.1598  0.2537  0.1662
    1DIPC   C4A29084   7.675   8.935   4.704 -0.2219  0.2831 -0.0950
    1DIPC   C1B29085   7.811   7.613   4.436 -0.2468  0.3293  0.3303
    1DIPC   D2B29086   7.971   7.946   4.782  0.0408  0.0770  0.3242
    1DIPC   D3B29087   8.225   7.994   5.102 -0.0841  0.0019  0.0702
    1DIPC   C4B29088   8.579   7.996   5.140  0.1140 -0.0894  0.0784
    1DIPC   NC329089   7.946  24.317   2.261  0.0187 -0.2122  0.1683
    1DIPC   PO429090   8.050  24.598   2.005 -0.3918  0.0420  0.4175
    1DIPC   GL129091   8.149  24.872   2.394 -0.1041  0.2570  0.0366
    1DIPC   GL229092   8.158  24.544   2.718 -0.1781 -0.2697 -0.1097
    1DIPC   C1A29093   7.839  24.934   2.718  0.1282  0.1252  0.0203
    1DIPC   D2A29094   7.519  25.228   2.851 -0.0358  0.1684  0.3818
    1DIPC   D3A29095   7.459  25.065   3.256 -0.1682  0.3094 -0.3559
    1DIPC   C4A29096   7.067  25.183   3.410 -0.1584 -0.1144  0.5027
    1DIPC   C1B29097   8.223  24.211   2.950  0.1098  0.1120 -0.0687
    1DIPC   D2B29098   8.261  23.952   3.313  0.2154 -0.0718  0.0660
    1DIPC   D3B29099   8.191  23.538   3.338 -0.1259  0.0646 -0.2479
    1DIPC   C4B29100   7.898  23.294   3.271 -0.0582 -0.0279  0.0993
    1DIPC   NC329101  24.218  29.816   3.608 -0.1339 -0.1860  0.0025
    1DIPC   PO429102  24.601  29.847   3.403 -0.2202 -0.0580 -0.0037
    1DIPC   GL129103  24.780  29.863   3.744 -0.1867  0.0795 -0.1240
    1DIPC   GL229104  24.794  30.134   3.800 -0.5549 -0.2076  0.3046
    1DIPC   C1A29105  24.920  29.693   4.136  0.1704  0.1340  0.2501
    1DIPC   D2A29106  24.797  29.572   4.567  0.0638  0.3333  0.1125
    1DIPC   D3A29107  24.657  29.330   4.901 -0.0919  0.0371  0.3042
    1DIPC   C4A29108  24.911  29.284   5.362 -0.2170  0.0034  0.0789
    1DIPC   C1B29109  24.634  30.145   4.167  0.0896  0.2220  0.2989
    1DIPC   D2B29110  24.830  30.289   4.491  0.2630  0.1265 -0.1801
    1DIPC   D3B29111  24.668  29.977   4.876 -0.3500  0.0224  0.0959
    1DIPC   C4B29112  24.495  30.168   5.331 -0.1901  0.2499  0.0265
    1DIPC   NC329113   8.357  28.744   2.711 -0.2251 -0.4113  0.1213
    1DIPC   PO429114   8.070  28.475   2.964  0.1188 -0.2673  0.0985
    1DIPC   GL129115   7.987  28.411   3.384 -0.4513  0.0252 -0.3352
    1DIPC   GL229116   8.259  28.567   3.565  0.0346  0.3621  0.2746
    1DIPC   C1A29117   7.818  28.038   3.755  0.0268 -0.0691 -0.0502
    1DIPC   D2A29118   7.549  27.993   4.099 -0.3163  0.1761 -0.0651
    1DIPC   D3A29119   7.262  27.809   3.752 -0.2274  0.1152  0.1623
    1DIPC   C4A29120   7.183  27.434   3.759  0.2765 -0.1699 -0.0134
    1DIPC   C1B29121   8.213  28.386   4.057 -0.3812 -0.0860  0.3665
    1DIPC   D2B29122   8.059  28.061   4.271  0.2759 -0.2846  0.0482
    1DIPC   D3B29123   7.793  27.956   4.665  0.0424 -0.1409  0.1304
    1DIPC   C4B29124   7.353  27.846   4.590 -0.2691 -0.2439 -0.0152
    1DIPC   NC329125   1.211  26.438   2.447 -0.0775 -0.3099  0.1717
    1DIPC   PO429126   0.842  26.445   2.585  0.2714  0.0640 -0.0080
    1DIPC   GL129127   0.999  26.156   2.853  0.5809  0.1952 -0.0911
    1DIPC   GL229128   1.333  26.240   3.002 -0.5302  0.0531 -0.0877
    1DIPC   C1A29129   0.784  25.970   3.181  0.1607  0.0209 -0.2236
    1DIPC   D2A29130   0.690  25.964   3.564 -0.4987 -0.2758 -0.2578
    1DIPC   D3A29131   0.949  25.700   3.614  0.1374 -0.0943  0.0454
    1DIPC   C4A29132   0.757  25.447   3.945  0.0598  0.1324  0.1680
    1DIPC   C1B29133   1.463  26.470   3.417  0.1581 -0.4557 -0.0757
    1DIPC   D2B29134   1.483  26.492   3.934 -0.0704  0.0852  0.1333
    1DIPC   D3B29135   1.256  26.368   4.252  0.0655  0.0788 -0.2880
    1DIPC   C4B29136   1.540  26.068   4.472 -0.0053 -0.2870  0.6305
    1DIPC   NC329137  28.372   5.099   3.121  0.1957  0.1411 -0.1176
    1DIPC   PO429138  28.389   4.884   3.510 -0.2528 -0.1960  0.0308
    1DIPC   GL129139  28.444   4.498   3.775 -0.2097 -0.3661  0.0384
    1DIPC   GL229140  28.676   4.488   3.933 -0.0541 -0.0032  0.1693
    1DIPC   C1A29141  28.315   4.684   4.277  0.1125 -0.0318  0.2247
    1DIPC   D2A29142  28.427   4.542   4.694 -0.0473  0.0829  0.1042
    1DIPC   D3A29143  28.777   4.357   4.800  0.1298  0.3656  0.0784
    1DIPC   C4A29144  28.831   4.135   5.170 -0.0421  0.2260 -0.2142
    1DIPC   C1B29145  28.923   4.555   4.359 -0.1087 -0.1466  0.1613
    1DIPC   D2B29146  28.933   4.849   4.721  0.0135  0.1609 -0.1052
    1DIPC   D3B29147  28.678   5.056   4.334 -0.3744  0.0109  0.0023
    1DIPC   C4B29148  28.448   5.442   4.298 -0.1036 -0.1184 -0.2981
    1DIPC   NC329149  29.452  14.732   2.353  0.1916 -0.0812 -0.0506
    1DIPC   PO429150  29.131  14.760   2.736 -0.0279  0.3442  0.1078
    1DIPC   GL129151  29.206  14.671   3.122  0.2468  0.0978 -0.3814
    1DIPC   GL229152  29.559  14.629   3.277 -0.1727  0.0569  0.1139
    1DIPC   C1A29153  29.033  14.415   3.415 -0.1643 -0.3326  0.0271
    1DIPC   D2A29154  28.768  14.044   3.408 -0.0346  0.3842 -0.0308
    1DIPC   D3A29155  28.817  14.128   3.824 -0.0038  0.0422 -0.3297
    1DIPC   C4A29156  28.448  14.132   4.010  0.0923 -0.2811 -0.5371
    1DIPC   C1B29157  29.549  14.671   3.673  0.0918 -0.2060 -0.0304
    1DIPC   D2B29158  29.761  14.393   3.988 -0.2297 -0.2255  0.1075
    1DIPC   D3B29159  30.019  14.694   4.167 -0.0951  0.1471  0.4537
    1DIPC   C4B29160  30.344  14.571   4.417 -0.1010  0.0073 -0.0809
    1DIPC   NC329161  10.023  21.873   2.347  0.0426  0.3530  0.0150
    1DIPC   PO429162  10.358  21.550   2.534 -0.1317 -0.1364 -0.2007
    1DIPC   GL129163  10.623  21.638   2.913  0.1852 -0.2549  0.0012
    1DIPC   GL229164  10.953  21.646   2.897 -0.0411  0.0162  0.3555
    1DIPC   C1A29165  10.598  21.579   3.374  0.1781  0.1167 -0.3184
    1DIPC   D2A29166  10.597  21.419   3.750  0.2960 -0.2600  0.1711
    1DIPC   D3A29167  10.807  21.726   3.854  0.2033  0.1328  0.2103
    1DIPC   C4A29168  10.884  21.997   3.485  0.0059  0.1748 -0.1286
    1DIPC   C1B29169  11.177  21.976   2.951  0.2357  0.1017  0.1304
    1DIPC   D2B29170  11.040  22.350   3.158  0.2750  0.1684  0.0240
    1DIPC   D3B29171  10.847  22.462   3.595  0.2535  0.1448 -0.1522
    1DIPC   C4B29172  10.853  22.223   3.949 -0.0685  0.2280 -0.1613
    1DIPC   NC329173  14.872   8.747   2.714  0.1520 -0.4771 -0.0874
    1DIPC   PO429174  15.195   8.556   2.949 -0.0666  0.1177  0.2585
    1DIPC   GL129175  14.905   8.777   3.219 -0.3402 -0.0377  0.1006
    1DIPC   GL229176  15.299   8.949   3.292  0.1840 -0.3999 -0.3226
    1DIPC   C1A29177  14.923   8.824   3.676 -0.0430  0.1786 -0.0744
    1DIPC   D2A29178  14.964   8.940   4.090 -0.2303 -0.0368 -0.0964
    1DIPC   D3A29179  15.097   8.782   4.434  0.0493 -0.2958  0.0642
    1DIPC   C4A29180  15.034   8.963   4.802  0.4693  0.2036  0.3085
    1DIPC   C1B29181  15.448   8.901   3.657 -0.1589  0.0376 -0.1025
    1DIPC   D2B29182  15.489   8.879   4.037 -0.1558  0.0837  0.1281
    1DIPC   D3B29183  15.807   9.185   4.198  0.0413 -0.0970  0.1270
    1DIPC   C4B29184  15.724   9.393   4.562  0.0779  0.1187  0.0542
    1CHOL   ROH29185  16.766  18.593   6.093  0.1140 -0.3999 -0.0051
    1CHOL    R129186  16.819  18.703   5.837  0.1887 -0.3402  0.0339
    1CHOL    R229187  16.978  18.576   5.650  0.0525 -0.4147 -0.0422
    1CHOL    R329188  16.759  18.607   5.492  0.0577 -0.1440  0.0021
    1CHOL    R429189  16.986  18.624   5.308  0.0377 -0.2605 -0.0201
    1CHOL    R529190  16.826  18.769   5.329  0.1738 -0.1295  0.0697
    1CHOL    C129191  16.786  18.682   4.960  0.0339  0.0833  0.0342
    1CHOL    C229192  16.970  18.825   4.771 -0.3443  0.0872  0.1197
    1CHOL   ROH29193  17.743   8.310   5.996  0.1116  0.1388 -0.0046
    1CHOL    R129194  17.862   8.283   5.741  0.1128 -0.1323  0.0200
    1CHOL    R229195  17.789   8.083   5.564 -0.1151 -0.1405  0.0994
    1CHOL    R329196  17.749   8.292   5.395  0.1588 -0.1604  0.0085
    1CHOL    R429197  17.685   8.054   5.236 -0.2063 -0.1187  0.1279
    1CHOL    R529198  17.825   8.212   5.182  0.0051 -0.3527  0.0354
    1CHOL    C129199  17.586   8.233   4.886 -0.0023 -0.1248  0.0591
    1CHOL    C229200  17.463   7.949   4.606 -0.2224  0.0996 -0.1448
    1CHOL   ROH29201  12.693  17.502   6.118 -0.1851  0.1724 -0.0446
    1CHOL    R129202  12.753  17.542   5.844 -0.1083  0.1159 -0.0375
    1CHOL    R229203  12.856  17.342   5.684  0.0575  0.1134  0.0590
    1CHOL    R329204  12.643  17.403   5.527  0.0762 -0.0479 -0.0291
    1CHOL    R429205  12.868  17.382   5.340  0.1688  0.1950  0.0721
    1CHOL    R529206  12.731  17.550   5.360  0.0119  0.0627  0.0419
    1CHOL    C129207  12.674  17.462   4.994  0.2511  0.0911 -0.0029
    1CHOL    C229208  12.969  17.387   4.724  0.1542 -0.0615 -0.2202
    1CHOL   ROH29209  12.296  25.959   3.525  0.2925  0.1102 -0.0053
    1CHOL    R129210  12.211  25.886   3.785  0.1519  0.0467 -0.0679
    1CHOL    R229211  12.208  25.624   3.874  0.1433  0.0260 -0.1192
    1CHOL    R329212  12.358  25.725   4.076  0.0112  0.0160 -0.0145
    1CHOL    R429213  12.281  25.457   4.167 -0.1546  0.0736 -0.0133
    1CHOL    R529214  12.252  25.644   4.275 -0.1776  0.1032 -0.0819
    1CHOL    C129215  12.466  25.454   4.528 -0.4520  0.0919  0.1465
    1CHOL    C229216  12.655  25.136   4.511  0.2079 -0.1735 -0.1807
    1CHOL   ROH29217  19.630  10.017   5.934  0.2777 -0.0544 -0.0328
    1CHOL    R129218  19.548   9.997   5.664  0.0959 -0.0612  0.0214
    1CHOL    R229219  19.597  10.195   5.478  0.1329 -0.1443 -0.0588
    1CHOL    R329220  19.710   9.991   5.338 -0.1062 -0.2661 -0.0784
    1CHOL    R429221  19.590  10.164   5.134  0.3647  0.0724 -0.0863
    1CHOL    R529222  19.556   9.950   5.159 -0.0355  0.1088 -0.2349
    1CHOL    C129223  19.691   9.954   4.802  0.2753  0.0841 -0.1207
    1CHOL    C229224  19.643   9.724   4.522 -0.1155 -0.2514 -0.0359
    1CHOL   ROH29225  17.403  10.149   5.983  0.1942  0.1209 -0.0772
    1CHOL    R129226  17.288  10.025   5.756  0.2174 -0.0504  0.0013
    1CHOL    R229227  17.028  10.071   5.676  0.1858 -0.1902 -0.0043
    1CHOL    R329228  17.145  10.133   5.439  0.1478 -0.2770 -0.0442
    1CHOL    R429229  16.896   9.996   5.366  0.1052 -0.2223  0.0388
    1CHOL    R529230  17.097   9.945   5.298  0.0700 -0.2894  0.0071
    1CHOL    C129231  16.929  10.011   4.962  0.0223 -0.3225  0.0263
    1CHOL    C229232  16.751  10.207   4.682  0.0849 -0.1402  0.0317
    1CHOL   ROH29233  29.519  17.089   3.255  0.1227 -0.1162 -0.1265
    1CHOL    R129234  29.537  16.976   3.514 -0.1906  0.0936 -0.0086
    1CHOL    R229235  29.775  16.961   3.654 -0.2094 -0.4537 -0.0213
    1CHOL    R329236  29.632  17.090   3.847  0.1678  0.1730 -0.1331
    1CHOL    R429237  29.804  16.904   3.994 -0.2798 -0.1280  0.0437
    1CHOL    R529238  29.588  16.922   4.011 -0.2487  0.4727  0.0850
    1CHOL    C129239  29.688  16.992   4.372  0.0333  0.6497 -0.0235
    1CHOL    C229240  29.625  16.554   4.478  0.0926  0.3919  0.0124
    1CHOL   ROH29241  13.889  15.408   6.380 -0.0106  0.1466 -0.1935
    1CHOL    R129242  13.796  15.271   6.151 -0.1071  0.1493 -0.1571
    1CHOL    R229243  13.567  15.345   6.015 -0.0904  0.2352 -0.1401
    1CHOL    R329244  13.734  15.353   5.801 -0.1144  0.1170 -0.1633
    1CHOL    R429245  13.495  15.217   5.702 -0.1088  0.0242 -0.0509
    1CHOL    R529246  13.699  15.144   5.690 -0.1019  0.0407 -0.0250
    1CHOL    C129247  13.610  15.150   5.320 -0.1419 -0.2095 -0.0207
    1CHOL    C229248  13.491  15.296   4.900  0.3607 -0.1186  0.0979
    1CHOL   ROH29249  14.481  11.392   6.357  0.2893 -0.0382  0.0592
    1CHOL    R129250  14.623  11.460   6.122  0.1835 -0.0245 -0.0016
    1CHOL    R229251  14.653  11.285   5.910  0.0677 -0.0030 -0.0353
    1CHOL    R329252  14.549  11.491   5.767  0.0177  0.0216  0.0362
    1CHOL    R429253  14.673  11.317   5.567  0.2573  0.2299 -0.0053
    1CHOL    R529254  14.709  11.530   5.594  0.1006  0.2399  0.1564
    1CHOL    C129255  14.587  11.529   5.232  0.3207  0.3887  0.0792
    1CHOL    C229256  14.591  11.652   4.943  0.1465  0.1181 -0.1638
    1CHOL   ROH29257  21.027  18.354   3.060 -0.1857 -0.1584  0.0595
    1CHOL    R129258  20.930  18.415   3.319 -0.1989 -0.1414  0.0515
    1CHOL    R229259  20.860  18.221   3.502 -0.1549 -0.1323  0.0850
    1CHOL    R329260  21.033  18.355   3.662 -0.1817 -0.0675  0.0582
    1CHOL    R429261  20.876  18.188   3.846  0.0177 -0.2398  0.0667
    1CHOL    R529262  20.906  18.404   3.860 -0.1288 -0.2266  0.1296
    1CHOL    C129263  21.049  18.295   4.196  0.0931 -0.2415  0.0310
    1CHOL    C229264  20.908  18.138   4.482 -0.2542  0.1169  0.3840
    1CHOL   ROH29265   6.580  11.820   3.583  0.0146  0.0770 -0.0045
    1CHOL    R129266   6.589  11.663   3.819  0.3247  0.1149  0.0115
    1CHOL    R229267   6.703  11.755   4.053  0.0548  0.4127  0.0312
    1CHOL    R329268   6.461  11.689   4.159  0.1700 -0.1533 -0.0227
    1CHOL    R429269   6.612  11.804   4.383 -0.1767  0.3332 -0.0186
    1CHOL    R529270   6.512  11.610   4.379  0.3054  0.0663  0.0298
    1CHOL    C129271   6.332  11.772   4.674 -0.2034 -0.2446 -0.0982
    1CHOL    C229272   6.077  11.947   4.829  0.1914 -0.1153  0.0091
    1CHOL   ROH29273  18.450  11.091   2.641  0.0024 -0.0251 -0.0593
    1CHOL    R129274  18.593  11.138   2.880 -0.0119 -0.0828 -0.0394
    1CHOL    R229275  18.572  11.374   3.023  0.0644 -0.0752 -0.0436
    1CHOL    R329276  18.511  11.207   3.228 -0.0312 -0.0486 -0.0501
    1CHOL    R429277  18.532  11.472   3.352  0.2762 -0.0803 -0.0145
    1CHOL    R529278  18.637  11.291   3.413  0.1206 -0.1992 -0.0797
    1CHOL    C129279  18.450  11.372   3.736  0.3098 -0.0585 -0.0035
    1CHOL    C229280  18.114  11.345   3.910  0.0985 -0.0209  0.2192
    1CHOL   ROH29281  12.156  19.697   3.274 -0.2516 -0.1454 -0.0448
    1CHOL    R129282  12.296  19.593   3.497 -0.1003 -0.0962 -0.1148
    1CHOL    R229283  12.319  19.732   3.735  0.0075 -0.0685 -0.1353
    1CHOL    R329284  12.216  19.503   3.840  0.1126 -0.0819 -0.0621
    1CHOL    R429285  12.304  19.659   4.073 -0.1729  0.1236 -0.1003
    1CHOL    R529286  12.359  19.453   4.026  0.0179  0.1405  0.0684
    1CHOL    C129287  12.198  19.402   4.368 -0.1793  0.2227 -0.0113
    1CHOL    C229288  12.042  19.424   4.669 -0.1518  0.1434 -0.3884
    1CHOL   ROH29289  13.055   4.896   4.876  0.1945  0.0211 -0.0171
    1CHOL    R129290  13.078   4.739   5.111  0.0812  0.2298  0.1362
    1CHOL    R229291  12.980   4.822   5.356 -0.3374  0.3070 -0.0519
    1CHOL    R329292  12.850   4.583   5.348 -0.0438  0.1414 -0.0380
    1CHOL    R429293  12.873   4.646   5.634 -0.3470  0.3222 -0.0451
    1CHOL    R529294  12.937   4.462   5.536 -0.0423  0.3429  0.0972
    1CHOL    C129295  12.689   4.319   5.788 -0.0769  0.1755 -0.0281
    1CHOL    C229296  12.573   4.264   6.168  0.1279  0.0896  0.0354
    1CHOL   ROH29297  27.943  23.924   3.349 -0.1087 -0.0898  0.1108
    1CHOL    R129298  27.896  23.923   3.628 -0.1334  0.0198  0.1072
    1CHOL    R229299  28.097  23.883   3.813 -0.1874 -0.1401  0.1295
    1CHOL    R329300  28.004  24.117   3.915  0.0371 -0.0229  0.0737
    1CHOL    R429301  28.103  23.969   4.148  0.0682  0.0134  0.0886
    1CHOL    R529302  27.905  24.056   4.124  0.1124  0.1438  0.1628
    1CHOL    C129303  28.020  24.238   4.439  0.4279  0.2125  0.0125
    1CHOL    C229304  28.136  24.269   4.831 -0.4917  0.1328 -0.2335
    1CHOL   ROH29305  12.546  21.601   5.831  0.1014  0.0301 -0.0347
    1CHOL    R129306  12.726  21.645   5.617  0.1341  0.1810  0.0233
    1CHOL    R229307  12.702  21.515   5.374  0.3568  0.1139  0.0390
    1CHOL    R329308  12.704  21.768   5.275  0.1293  0.1012 -0.0063
    1CHOL    R429309  12.717  21.596   5.038  0.2526  0.0654  0.0216
    1CHOL    R529310  12.854  21.758   5.088  0.1217  0.1947 -0.0206
    1CHOL    C129311  12.727  21.880   4.750 -0.0215  0.0254 -0.0312
    1CHOL    C229312  12.612  21.559   4.512  0.1418  0.0513 -0.1407
    1CHOL   ROH29313  29.747  13.231   5.542 -0.1592 -0.1401 -0.0263
    1CHOL    R129314  29.644  13.163   5.287 -0.1005 -0.0663 -0.0699
    1CHOL    R229315  29.597  13.352   5.090 -0.0446 -0.0117 -0.0281
    1CHOL    R329316  29.756  13.188   4.942 -0.0170  0.0228 -0.0377
    1CHOL    R429317  29.662  13.391   4.753 -0.0868  0.0006 -0.0352
    1CHOL    R529318  29.647  13.176   4.730 -0.0364 -0.0072 -0.0286
    1CHOL    C129319  29.849  13.261   4.418 -0.0855  0.0400 -0.0483
    1CHOL    C229320  29.624  13.395   4.175  0.0879 -0.0003  0.1056
    1CHOL   ROH29321  22.412   9.723   4.387 -0.0675  0.0414  0.1454
    1CHOL    R129322  22.175   9.605   4.487 -0.0578 -0.0978  0.0077
    1CHOL    R229323  22.084   9.359   4.401  0.2327 -0.2356  0.0812
    1CHOL    R329324  22.087   9.301   4.667  0.0456 -0.0593  0.1247
    1CHOL    R429325  21.876   9.130   4.556  0.1618 -0.1723  0.0812
    1CHOL    R529326  21.857   9.269   4.724  0.0095 -0.0651 -0.0242
    1CHOL    C129327  21.758   8.943   4.896 -0.0551  0.0302  0.1220
    1CHOL    C229328  21.441   8.983   5.035 -0.2264 -0.1114 -0.0830
    1CHOL   ROH29329  19.427  10.866   2.576 -0.0822  0.0639 -0.0057
    1CHOL    R129330  19.631  10.971   2.742  0.0582 -0.1031 -0.0687
    1CHOL    R229331  19.581  11.164   2.933  0.3020  0.0458 -0.1538
    1CHOL    R329332  19.700  10.985   3.099  0.0991 -0.0228 -0.0788
    1CHOL    R429333  19.572  11.179   3.278  0.1597  0.0970 -0.1585
    1CHOL    R529334  19.781  11.117   3.281  0.1172 -0.0570 -0.0597
    1CHOL    C129335  19.679  11.018   3.635 -0.1132  0.0624 -0.0908
    1CHOL    C229336  19.551  10.897   3.977  0.1359 -0.0741  0.1048
    1CHOL   ROH29337  11.407  13.671   2.938 -0.1767  0.2152 -0.0259
    1CHOL    R129338  11.345  13.742   3.205 -0.0614  0.1005  0.0323
    1CHOL    R229339  11.256  13.559   3.391  0.0648  0.0114  0.0053
    1CHOL    R329340  11.465  13.653   3.537  0.1174 -0.0044 -0.0589
    1CHOL    R429341  11.290  13.524   3.733  0.1717  0.0066 -0.0051
    1CHOL    R529342  11.366  13.728   3.742  0.1880  0.0008 -0.0268
    1CHOL    C129343  11.507  13.592   4.069  0.2832 -0.0108 -0.0715
    1CHOL    C229344  11.527  13.763   4.308 -0.0396  0.2274 -0.0253
    1CHOL   ROH29345  18.192  19.030   6.326  0.1442 -0.0013  0.0497
    1CHOL    R129346  18.331  19.027   6.080  0.0637 -0.0321  0.0058
    1CHOL    R229347  18.202  19.012   5.836 -0.0258  0.1708  0.0471
    1CHOL    R329348  18.346  19.236   5.782  0.1557  0.0647  0.0748
    1CHOL    R429349  18.281  19.125   5.519  0.0938  0.1130  0.0545
    1CHOL    R529350  18.479  19.177   5.592  0.1346 -0.0411  0.0838
    1CHOL    C129351  18.462  19.402   5.284  0.3338 -0.0203  0.0847
    1CHOL    C229352  18.379  19.541   4.831  0.0998 -0.3450 -0.0877
    1CHOL   ROH29353   9.471  12.769   3.046  0.2558  0.0047 -0.0463
    1CHOL    R129354   9.377  12.723   3.309  0.1298  0.0297 -0.0861
    1CHOL    R229355   9.399  12.477   3.434 -0.1261 -0.0174 -0.1308
    1CHOL    R329356   9.522  12.622   3.628 -0.0603 -0.1670 -0.0591
    1CHOL    R429357   9.306  12.480   3.767 -0.2419 -0.0012 -0.1627
    1CHOL    R529358   9.344  12.695   3.770 -0.0468 -0.0329 -0.1081
    1CHOL    C129359   9.368  12.618   4.143 -0.2477 -0.1322 -0.1141
    1CHOL    C229360   9.227  12.870   4.431  0.1638 -0.1065  0.0559
    1CHOL   ROH29361  11.603  13.336   3.173  0.1880 -0.2504 -0.0359
    1CHOL    R129362  11.636  13.219   3.428  0.2975 -0.2799 -0.0630
    1CHOL    R229363  11.867  13.248   3.577  0.1871  0.1065  0.0466
    1CHOL    R329364  11.695  13.336   3.768 -0.0706 -0.2791  0.0056
    1CHOL    R429365  11.909  13.201   3.916  0.4002  0.4827  0.0775
    1CHOL    R529366  11.695  13.162   3.932  0.5025 -0.1770  0.1364
    1CHOL    C129367  11.772  13.257   4.294  0.2826  0.3400  0.0569
    1CHOL    C229368  11.775  13.411   4.620 -0.1378  0.0766 -0.1663
    1CHOL   ROH29369  12.546  22.134   5.617  0.1705  0.1607 -0.0358
    1CHOL    R129370  12.393  22.160   5.380  0.1616  0.1007 -0.0358
    1CHOL    R229371  12.433  22.364   5.198  0.1766  0.0351 -0.1036
    1CHOL    R329372  12.459  22.159   5.022  0.1418 -0.0253 -0.0402
    1CHOL    R429373  12.437  22.399   4.855  0.2203 -0.0688 -0.1147
    1CHOL    R529374  12.315  22.219   4.840  0.1747 -0.0425 -0.0730
    1CHOL    C129375  12.464  22.227   4.488  0.2131 -0.1859 -0.0616
    1CHOL    C229376  12.622  21.993   4.265  0.0403 -0.1614 -0.2502
    1CHOL   ROH29377  17.133  19.655   3.320  0.1280  0.1738 -0.1530
    1CHOL    R129378  17.187  19.646   3.597  0.0215 -0.0837 -0.1383
    1CHOL    R229379  17.166  19.868   3.760  0.2393 -0.1673  0.0038
    1CHOL    R329380  17.002  19.706   3.905 -0.0122 -0.0672 -0.1608
    1CHOL    R429381  17.091  19.912   4.095  0.2653 -0.3520  0.0357
    1CHOL    R529382  17.105  19.696   4.121 -0.0463 -0.4050 -0.1530
    1CHOL    C129383  16.893  19.786   4.425  0.0444 -0.3655 -0.1003
    1CHOL    C229384  16.766  20.135   4.698  0.0138  0.1723  0.2962
    1CHOL   ROH29385   4.753  10.318   6.177  0.0255 -0.0653  0.1114
    1CHOL    R129386   4.693  10.068   6.059  0.0244 -0.0130  0.0005
    1CHOL    R229387   4.648  10.038   5.789  0.0812  0.0977 -0.0207
    1CHOL    R329388   4.844   9.851   5.808  0.0560  0.0676 -0.0510
    1CHOL    R429389   4.808   9.891   5.520  0.0758  0.1366 -0.0456
    1CHOL    R529390   4.801   9.701   5.626  0.0452  0.1131 -0.0871
    1CHOL    C129391   5.085   9.630   5.382  0.0489  0.1310 -0.0884
    1CHOL    C229392   5.248   9.817   5.051  0.1767  0.1706  0.1765
    1CHOL   ROH29393  17.575  19.844   6.471  0.3060 -0.2238 -0.0417
    1CHOL    R129394  17.485  19.874   6.204  0.2766 -0.0537 -0.0133
    1CHOL    R229395  17.621  20.025   6.017  0.4427 -0.2165 -0.0191
    1CHOL    R329396  17.612  19.795   5.872  0.0789 -0.1825 -0.0625
    1CHOL    R429397  17.542  20.005   5.681  0.3006 -0.0314  0.0014
    1CHOL    R529398  17.427  19.825   5.723  0.0612  0.1086  0.0043
    1CHOL    C129399  17.488  19.778   5.350 -0.1238  0.1084 -0.0274
    1CHOL    C229400  17.585  19.449   5.153  0.1912  0.0051 -0.0883
    1CHOL   ROH29401  14.335  13.748   6.376 -0.0943  0.2341 -0.1616
    1CHOL    R129402  14.228  13.823   6.125 -0.1271  0.1043 -0.1866
    1CHOL    R229403  14.384  13.929   5.923 -0.1604  0.0289 -0.2492
    1CHOL    R329404  14.277  13.726   5.777 -0.1494 -0.0507 -0.1480
    1CHOL    R429405  14.380  13.914   5.578 -0.0406 -0.2020 -0.2428
    1CHOL    R529406  14.177  13.834   5.588 -0.0627 -0.1559 -0.2578
    1CHOL    C129407  14.277  13.715   5.240  0.0394 -0.4112 -0.1440
    1CHOL    C229408  14.396  13.521   4.952  0.0402 -0.0195 -0.3546
    1CHOL   ROH29409  16.019  19.807   2.808  0.0312  0.0656  0.1131
    1CHOL    R129410  15.878  19.913   3.029  0.0854  0.0583  0.1519
    1CHOL    R229411  15.702  19.762   3.180 -0.0120  0.0998  0.0840
    1CHOL    R329412  15.858  19.845   3.386  0.0324 -0.0788  0.1229
    1CHOL    R429413  15.608  19.759   3.512 -0.0926  0.1953  0.0619
    1CHOL    R529414  15.706  19.952   3.537  0.1161  0.0864  0.0896
    1CHOL    C129415  15.700  19.836   3.900 -0.0979  0.0834  0.0854
    1CHOL    C229416  15.580  19.885   4.227  0.4205 -0.2059  0.1477
    1CHOL   ROH29417  14.903  21.741   5.841  0.1017 -0.0613  0.0209
    1CHOL    R129418  14.976  21.555   5.640  0.0798 -0.1092  0.0555
    1CHOL    R229419  14.826  21.517   5.411 -0.0671 -0.3200  0.1757
    1CHOL    R329420  15.063  21.568   5.287 -0.1887 -0.2133 -0.0150
    1CHOL    R429421  14.934  21.363   5.121 -0.0585 -0.5460  0.2980
    1CHOL    R529422  15.134  21.354   5.206 -0.0031 -0.2302  0.1989
    1CHOL    C129423  15.219  21.320   4.836 -0.1676 -0.5772  0.1901
    1CHOL    C229424  15.170  21.120   4.456  0.2131 -0.0455  0.2301
    1CHOL   ROH29425  18.493  26.311   6.358  0.0714  0.0315  0.0735
    1CHOL    R129426  18.413  26.150   6.140  0.0749 -0.0092  0.1023
    1CHOL    R229427  18.377  26.251   5.885 -0.0179 -0.0383  0.1049
    1CHOL    R329428  18.552  26.055   5.817  0.0314  0.0155  0.0756
    1CHOL    R429429  18.438  26.145   5.562 -0.2462 -0.2008  0.1132
    1CHOL    R529430  18.445  25.940   5.636 -0.0692 -0.1555  0.2378
    1CHOL    C129431  18.638  25.899   5.309 -0.3332 -0.2453  0.0905
    1CHOL    C229432  18.953  25.928   5.173  0.0505  0.2808  0.1428
    1CHOL   ROH29433  17.703   9.094   3.730 -0.0111 -0.2123 -0.3089
    1CHOL    R129434  17.535   9.008   3.941 -0.0482 -0.0360 -0.2650
    1CHOL    R229435  17.277   8.917   3.898 -0.0167 -0.1395 -0.2425
    1CHOL    R329436  17.365   8.700   4.036 -0.0027  0.0195  0.0042
    1CHOL    R429437  17.074   8.697   4.068 -0.0166 -0.0461 -0.1206
    1CHOL    R529438  17.222   8.690   4.228 -0.0834  0.1554 -0.0477
    1CHOL    C129439  17.037   8.364   4.297 -0.0034  0.1576  0.1818
    1CHOL    C229440  17.024   8.145   4.478  0.1610 -0.0796 -0.0159
    1CHOL   ROH29441  18.158  13.616   5.900  0.1859  0.0328  0.0058
    1CHOL    R129442  18.192  13.531   5.632 -0.1094 -0.0106 -0.0221
    1CHOL    R229443  17.990  13.548   5.444 -0.2003  0.3354  0.0942
    1CHOL    R329444  18.177  13.685   5.303 -0.0485  0.0387 -0.0013
    1CHOL    R429445  17.967  13.624   5.108 -0.3242  0.5015  0.1393
    1CHOL    R529446  18.179  13.579   5.088 -0.4169  0.1086 -0.0446
    1CHOL    C129447  18.130  13.797   4.779 -0.2537  0.3199  0.0760
    1CHOL    C229448  18.128  13.940   4.522 -0.3635 -0.3376  0.0296
    1CHOL   ROH29449  22.554  18.686   3.415  0.1688  0.0874  0.0353
    1CHOL    R129450  22.428  18.652   3.666  0.1616 -0.0588  0.0148
    1CHOL    R229451  22.524  18.481   3.860  0.2035 -0.1175 -0.0455
    1CHOL    R329452  22.516  18.704   4.015  0.1285 -0.1804  0.0387
    1CHOL    R429453  22.512  18.480   4.205  0.1868 -0.2337 -0.0470
    1CHOL    R529454  22.369  18.644   4.195  0.1443 -0.2807  0.0092
    1CHOL    C129455  22.496  18.688   4.552  0.1068 -0.3607  0.0310
    1CHOL    C229456  22.241  18.534   4.849  0.0477  0.1954  0.2179
    1CHOL   ROH29457  12.879   9.273   3.228  0.2353  0.0752 -0.0409
    1CHOL    R129458  12.928   9.262   3.507  0.1855  0.0795 -0.0318
    1CHOL    R229459  13.104   9.432   3.634  0.1541  0.0897 -0.0005
    1CHOL    R329460  12.888   9.486   3.791  0.1226  0.0796 -0.0404
    1CHOL    R429461  13.116   9.474   3.977  0.0268 -0.3248  0.0591
    1CHOL    R529462  12.929   9.361   3.991 -0.0743 -0.1929 -0.1642
    1CHOL    C129463  12.921   9.548   4.324 -0.0771 -0.5756  0.0563
    1CHOL    C229464  12.959   9.794   4.688  0.1456 -0.0061  0.4248
    1CHOL   ROH29465  12.012   0.368   3.903  0.2584  0.1251 -0.2061
    1CHOL    R129466  11.798   0.495   4.038  0.1071 -0.0354 -0.2890
    1CHOL    R229467  11.602   0.353   4.173  0.3076 -0.1792 -0.1405
    1CHOL    R329468  11.676   0.512   4.381  0.1294  0.0998 -0.2867
    1CHOL    R429469  11.411   0.411   4.455  0.2248 -0.1207 -0.2101
    1CHOL    R529470  11.473   0.620   4.448  0.0038 -0.0536 -0.4046
    1CHOL    C129471  11.369   0.595   4.814  0.0094  0.1753 -0.3879
    1CHOL    C229472  11.394   0.273   5.080 -0.0458 -0.0800  0.1246
    1CHOL   ROH29473  27.422  22.472   3.394 -0.0292 -0.0900 -0.0276
    1CHOL    R129474  27.496  22.476   3.667  0.0221 -0.0397 -0.0425
    1CHOL    R229475  27.314  22.522   3.870  0.0730  0.0692 -0.0214
    1CHOL    R329476  27.412  22.288   3.967  0.0203  0.0648  0.0233
    1CHOL    R429477  27.237  22.389   4.180 -0.0352  0.0932 -0.0371
    1CHOL    R529478  27.446  22.330   4.201 -0.0477  0.0744  0.0314
    1CHOL    C129479  27.284  22.091   4.451 -0.1477  0.1032 -0.0043
    1CHOL    C229480  27.199  22.260   4.774  0.1455  0.2846 -0.1412
    1CHOL   ROH29481  11.021   5.063   5.057 -0.0716 -0.2562 -0.0544
    1CHOL    R129482  11.191   4.895   5.209  0.0461 -0.0638  0.0322
    1CHOL    R229483  11.377   4.727   5.093  0.0183 -0.1517  0.1051
    1CHOL    R329484  11.549   4.856   5.258  0.0812  0.0632 -0.1243
    1CHOL    R429485  11.661   4.587   5.231  0.0229  0.0018  0.2528
    1CHOL    R529486  11.616   4.690   5.417  0.0865  0.2882  0.1107
    1CHOL    C129487  11.989   4.628   5.466  0.0849  0.2930  0.1235
    1CHOL    C229488  12.350   4.608   5.529  0.1691 -0.1005  0.0379
    1CHOL   ROH29489  15.732  13.946   2.821  0.1079  0.0789 -0.0642
    1CHOL    R129490  15.661  13.987   3.092 -0.1097 -0.0381 -0.1045
    1CHOL    R229491  15.555  13.786   3.250  0.1465 -0.2149 -0.1688
    1CHOL    R329492  15.760  13.852   3.415 -0.0553  0.1370 -0.0446
    1CHOL    R429493  15.561  13.726   3.590  0.1211 -0.4080 -0.1993
    1CHOL    R529494  15.653  13.922   3.618 -0.3069 -0.2087 -0.0433
    1CHOL    C129495  15.757  13.753   3.944 -0.0833 -0.1901 -0.1004
    1CHOL    C229496  15.495  13.487   4.090  0.0093  0.1489  0.0509
    1CHOL   ROH29497  17.244  13.664   2.527 -0.0006  0.0036 -0.1302
    1CHOL    R129498  17.159  13.609   2.791 -0.0993  0.0606 -0.1514
    1CHOL    R229499  17.275  13.727   3.012 -0.1199  0.0313 -0.1358
    1CHOL    R329500  17.019  13.798   3.069 -0.1086  0.1369 -0.2044
    1CHOL    R429501  17.166  13.843   3.319 -0.1549  0.0024 -0.1356
    1CHOL    R529502  16.985  13.724   3.294 -0.2108  0.0875 -0.2283
    1CHOL    C129503  16.861  13.978   3.550 -0.1646  0.0845 -0.1999
    1CHOL    C229504  16.584  13.868   3.796 -0.1727 -0.0118 -0.1091
    1CHOL   ROH29505  13.556  11.690   6.644  0.0506 -0.1487  0.1215
    1CHOL    R129506  13.626  11.679   6.370 -0.0021  0.1081  0.0959
    1CHOL    R229507  13.557  11.467   6.207  0.2836  0.0852  0.0029
    1CHOL    R329508  13.449  11.663   6.052 -0.0626  0.0059  0.1333
    1CHOL    R429509  13.443  11.423   5.884  0.3422  0.0873 -0.0184
    1CHOL    R529510  13.530  11.616   5.832  0.0132  0.2794  0.0967
    1CHOL    C129511  13.276  11.582   5.550  0.0513  0.0139  0.0916
    1CHOL    C229512  13.198  11.716   5.251 -0.0630  0.0530  0.2536
    1CHOL   ROH29513  22.738  14.391   4.021 -0.1096 -0.0306 -0.1556
    1CHOL    R129514  22.456  14.411   4.032 -0.1090 -0.1363  0.1867
    1CHOL    R229515  22.318  14.435   4.270  0.1910  0.1074  0.3479
    1CHOL    R329516  22.213  14.655   4.150 -0.0505 -0.0845  0.1962
    1CHOL    R429517  22.003  14.564   4.333  0.1771  0.0039  0.4946
    1CHOL    R529518  21.982  14.602   4.120 -0.0498 -0.2477  0.4724
    1CHOL    C129519  21.722  14.845   4.258 -0.0577 -0.2366  0.4375
    1CHOL    C229520  21.492  14.947   4.559 -0.0870  0.0054 -0.2704
    1CHOL   ROH29521   6.561   3.258   6.533 -0.1557 -0.1717 -0.0328
    1CHOL    R129522   6.510   3.366   6.277  0.0390 -0.0073 -0.0053
    1CHOL    R229523   6.640   3.278   6.050  0.0539 -0.0153  0.0047
    1CHOL    R329524   6.386   3.243   5.958  0.0572  0.2457 -0.1120
    1CHOL    R429525   6.559   3.184   5.727  0.1196 -0.2101  0.0440
    1CHOL    R529526   6.393   3.326   5.733  0.3078  0.0262 -0.1894
    1CHOL    C129527   6.275   3.096   5.453  0.1611 -0.0785 -0.0426
    1CHOL    C229528   6.450   3.148   5.089  0.0703  0.1351  0.1316
    1CHOL   ROH29529  29.811  19.646   5.913 -0.0023 -0.0108  0.0198
    1CHOL    R129530  29.695  19.477   5.717  0.0049  0.0045  0.0028
    1CHOL    R229531  29.441  19.517   5.618 -0.0322 -0.0511  0.0775
    1CHOL    R329532  29.568  19.513   5.378 -0.0909  0.0551  0.0432
    1CHOL    R429533  29.299  19.410   5.321 -0.0308 -0.1472  0.1106
    1CHOL    R529534  29.488  19.313   5.272  0.0315 -0.0031  0.0571
    1CHOL    C129535  29.337  19.344   4.923 -0.0851 -0.1032  0.0974
    1CHOL    C229536  29.267  19.229   4.491  0.3214 -0.2121 -0.2575
    1CHOL   ROH29537   4.093  25.580   5.602  0.0800  0.0152  0.0161
    1CHOL    R129538   4.180  25.558   5.334 -0.1577 -0.2310 -0.0466
    1CHOL    R229539   4.006  25.565   5.119 -0.2996  0.2705  0.0712
    1CHOL    R329540   4.170  25.765   5.035  0.2267 -0.1774 -0.0281
    1CHOL    R429541   4.061  25.648   4.788 -0.5735  0.3391  0.0404
    1CHOL    R529542   4.272  25.678   4.836 -0.3692 -0.3770 -0.2708
    1CHOL    C129543   4.247  25.884   4.516 -0.2389 -0.0415 -0.0706
    1CHOL    C229544   4.093  25.938   4.202  0.0088  0.1465  0.1120
    1CHOL   ROH29545  26.045   9.763   5.315 -0.0815 -0.1237 -0.1354
    1CHOL    R129546  25.967   9.818   5.048 -0.0175 -0.1383 -0.1570
    1CHOL    R229547  25.830  10.048   4.978 -0.1038 -0.1990 -0.1824
    1CHOL    R329548  26.035  10.077   4.801 -0.0580 -0.0839 -0.1125
    1CHOL    R429549  25.798  10.169   4.655 -0.0842 -0.3165 -0.2290
    1CHOL    R529550  25.940  10.017   4.590  0.0668 -0.2234 -0.1329
    1CHOL    C129551  25.971  10.265   4.302 -0.0296 -0.2767 -0.1904
    1CHOL    C229552  26.097  10.653   4.158  0.1816  0.1992 -0.0262
    1CHOL   ROH29553  27.248  17.911   3.337 -0.0977  0.1117 -0.0006
    1CHOL    R129554  27.074  17.771   3.511 -0.0069  0.1557  0.1309
    1CHOL    R229555  27.059  17.495   3.516 -0.0768  0.1516  0.1271
    1CHOL    R329556  27.108  17.530   3.781  0.1443  0.1384  0.0987
    1CHOL    R429557  27.001  17.258   3.761  0.1571  0.1308  0.1640
    1CHOL    R529558  26.927  17.417   3.890  0.2460  0.1138  0.2435
    1CHOL    C129559  27.012  17.153   4.152  0.5008  0.1064  0.1587
    1CHOL    C229560  26.956  17.065   4.504 -0.4977 -0.1998  0.2081
    1CHOL   ROH29561  28.930  19.352   3.070 -0.0988 -0.0362 -0.0716
    1CHOL    R129562  29.052  19.370   3.325 -0.0835 -0.0029 -0.0828
    1CHOL    R229563  28.964  19.546   3.519 -0.0949 -0.0091 -0.0919
    1CHOL    R329564  28.949  19.321   3.671 -0.0465  0.0012 -0.0694
    1CHOL    R429565  28.950  19.543   3.864 -0.2234  0.0376 -0.0950
    1CHOL    R529566  29.085  19.371   3.862 -0.1374  0.0957 -0.0229
    1CHOL    C129567  28.928  19.330   4.208 -0.2529  0.0744 -0.0757
    1CHOL    C229568  28.883  19.555   4.560 -0.0989  0.2278 -0.0210
    1CHOL   ROH29569   4.268   7.615   6.148 -0.3280 -0.0799 -0.0212
    1CHOL    R129570   4.301   7.469   5.908 -0.1490  0.0352 -0.0679
    1CHOL    R229571   4.108   7.462   5.710 -0.0637  0.0073 -0.1461
    1CHOL    R329572   4.313   7.544   5.552 -0.0455  0.1841 -0.0349
    1CHOL    R429573   4.113   7.440   5.365  0.1720 -0.0699 -0.1408
    1CHOL    R529574   4.322   7.381   5.377  0.2320  0.1475  0.0051
    1CHOL    C129575   4.308   7.504   5.016  0.3264  0.0510 -0.0334
    1CHOL    C229576   4.237   7.464   4.739  0.1302  0.0794 -0.2152
    1CHOL   ROH29577   5.196  10.525   3.581  0.0593 -0.0687  0.0986
    1CHOL    R129578   4.989  10.571   3.770  0.0424  0.0632  0.0492
    1CHOL    R229579   5.038  10.598   4.041 -0.0073  0.0115  0.0638
    1CHOL    R329580   4.903  10.832   4.008  0.1634  0.1091  0.0439
    1CHOL    R429581   4.944  10.811   4.296 -0.1743 -0.0867  0.0856
    1CHOL    R529582   4.754  10.842   4.195 -0.0452  0.0813 -0.1151
    1CHOL    C129583   4.763  11.154   4.415 -0.1113 -0.0523  0.0796
    1CHOL    C229584   4.505  11.318   4.712  0.3048 -0.0407  0.2527
    1CHOL   ROH29585  19.350   6.482   3.236  0.1192  0.0035 -0.1062
    1CHOL    R129586  19.331   6.439   3.516  0.1075  0.0392 -0.1016
    1CHOL    R229587  19.530   6.312   3.660  0.0996  0.0553 -0.0780
    1CHOL    R329588  19.519   6.538   3.811  0.0968  0.0741 -0.1062
    1CHOL    R429589  19.577   6.324   4.003  0.0454  0.0893 -0.0715
    1CHOL    R529590  19.415   6.468   4.015  0.0565  0.1070 -0.1147
    1CHOL    C129591  19.594   6.543   4.343  0.0112  0.1268 -0.0942
    1CHOL    C229592  19.501   6.765   4.720  0.0983  0.1099  0.2645
    1CHOL   ROH29593  28.937  27.856   5.203 -0.0372  0.0607  0.0095
    1CHOL    R129594  29.080  28.087   5.122  0.0322 -0.0419 -0.1736
    1CHOL    R229595  29.074  28.183   4.863 -0.2736 -0.0066 -0.1634
    1CHOL    R329596  28.998  28.414   4.985  0.0833  0.0373 -0.0147
    1CHOL    R429597  29.061  28.492   4.710 -0.3686  0.0048 -0.1298
    1CHOL    R529598  29.142  28.581   4.892  0.0155 -0.0473 -0.2713
    1CHOL    C129599  28.982  28.889   4.735 -0.0888  0.0525  0.0292
    1CHOL    C229600  28.671  29.055   4.699  0.2359 -0.0001 -0.3945
    1CHOL   ROH29601  12.197   6.501   3.647 -0.1216 -0.2341 -0.0534
    1CHOL    R129602  12.076   6.400   3.882 -0.0093 -0.3492 -0.0437
    1CHOL    R229603  12.210   6.238   4.061  0.1834 -0.1603 -0.0123
    1CHOL    R329604  12.131   6.426   4.241 -0.0555 -0.2270 -0.0452
    1CHOL    R429605  12.181   6.185   4.401  0.4691 -0.0822  0.0275
    1CHOL    R529606  11.998   6.304   4.398  0.2475 -0.4088  0.0786
    1CHOL    C129607  12.089   6.330   4.768  0.4111 -0.0993  0.0198
    1CHOL    C229608  12.213   5.973   5.048  0.0035 -0.0377 -0.0011
    1CHOL   ROH29609  22.084  13.193   2.953  0.0105 -0.0539 -0.1320
    1CHOL    R129610  22.053  13.265   3.225  0.0569  0.2547 -0.2055
    1CHOL    R229611  22.123  13.097   3.433 -0.3662  0.2856 -0.0318
    1CHOL    R329612  22.270  13.311   3.513  0.0520  0.0613 -0.1685
    1CHOL    R429613  22.189  13.177   3.762 -0.3850  0.4658 -0.0705
    1CHOL    R529614  22.159  13.388   3.712  0.0914  0.4967 -0.3003
    1CHOL    C129615  22.366  13.425   4.030 -0.0032  0.3604 -0.2213
    1CHOL    C229616  22.587  13.369   4.272  0.2655 -0.0735  0.0546
    1CHOL   ROH29617  21.646  11.006   2.664 -0.2780  0.0830 -0.0009
    1CHOL    R129618  21.517  10.893   2.889 -0.1713  0.0239  0.0314
    1CHOL    R229619  21.624  10.682   3.032 -0.0048  0.1196  0.0498
    1CHOL    R329620  21.590  10.850   3.243 -0.0980  0.1271  0.0292
    1CHOL    R429621  21.587  10.581   3.360  0.2158  0.1438  0.0835
    1CHOL    R529622  21.435  10.735   3.385  0.0675 -0.0034  0.1078
    1CHOL    C129623  21.534  10.680   3.749  0.2570  0.1648  0.0838
    1CHOL    C229624  21.340  10.821   3.996  0.0883  0.0326 -0.3867
    1CHOL   ROH29625  14.553  17.009   6.029  0.2384  0.1315  0.0461
    1CHOL    R129626  14.577  17.080   5.756  0.1454 -0.0155 -0.0024
    1CHOL    R229627  14.817  17.163   5.644  0.0717  0.0932 -0.0871
    1CHOL    R329628  14.766  16.963   5.467  0.1900 -0.0548  0.0432
    1CHOL    R429629  14.928  17.155   5.317 -0.0432  0.0085 -0.1248
    1CHOL    R529630  14.734  17.075   5.258  0.0093 -0.2034 -0.0097
    1CHOL    C129631  14.944  16.963   4.961  0.0009 -0.1799 -0.0243
    1CHOL    C229632  15.239  17.133   4.690 -0.1331 -0.0667 -0.3848
    1CHOL   ROH29633  14.387  22.766   5.528 -0.2213 -0.2010 -0.1016
    1CHOL    R129634  14.388  22.832   5.253 -0.0822 -0.3036 -0.1268
    1CHOL    R229635  14.557  23.021   5.146 -0.2229 -0.1402 -0.0590
    1CHOL    R329636  14.626  22.819   4.978  0.1553 -0.1225  0.0648
    1CHOL    R429637  14.696  23.064   4.833 -0.4585 -0.0527 -0.1546
    1CHOL    R529638  14.570  22.901   4.760 -0.1367 -0.4017  0.0237
    1CHOL    C129639  14.843  22.899   4.492 -0.2406  0.0150 -0.0941
    1CHOL    C229640  15.211  22.973   4.350  0.3412  0.1979  0.1942
    1CHOL   ROH29641  17.737  18.968   2.837  0.0938 -0.0089  0.1338
    1CHOL    R129642  17.782  19.044   3.106  0.1660 -0.0418  0.1324
    1CHOL    R229643  17.601  19.197   3.250  0.2802  0.0877  0.1495
    1CHOL    R329644  17.617  18.991   3.426  0.1473  0.0704  0.1403
    1CHOL    R429645  17.593  19.230   3.593  0.2132  0.0624  0.1494
    1CHOL    R529646  17.747  19.077   3.607  0.1397 -0.0035  0.1769
    1CHOL    C129647  17.602  19.056   3.959  0.0496  0.0315  0.1407
    1CHOL    C229648  17.722  19.118   4.222 -0.0116  0.0658  0.0274
    1CHOL   ROH29649  15.397  12.169   6.256 -0.2555  0.3540 -0.0190
    1CHOL    R129650  15.336  12.236   5.987 -0.0645  0.1933 -0.1053
    1CHOL    R229651  15.530  12.314   5.806  0.0778  0.0073 -0.0404
    1CHOL    R329652  15.426  12.111   5.657  0.1054 -0.0611  0.0340
    1CHOL    R429653  15.484  12.324   5.463  0.0618 -0.1220 -0.0420
    1CHOL    R529654  15.293  12.221   5.491  0.0813 -0.1431  0.0006
    1CHOL    C129655  15.360  12.139   5.125  0.0783 -0.2616  0.0269
    1CHOL    C229656  15.122  12.197   4.868 -0.3155 -0.1223  0.2277
    1CHOL   ROH29657  20.120  12.337   2.477  0.2708  0.2615  0.0551
    1CHOL    R129658  20.120  12.185   2.716  0.1235  0.1427 -0.0182
    1CHOL    R229659  20.319  12.206   2.906  0.1547 -0.1533 -0.0096
    1CHOL    R329660  20.110  12.253   3.073  0.2050 -0.0197  0.0156
    1CHOL    R429661  20.342  12.224   3.251  0.2153 -0.1100 -0.0163
    1CHOL    R529662  20.154  12.114   3.264  0.1623 -0.0106  0.0303
    1CHOL    C129663  20.158  12.278   3.608  0.2979  0.0407  0.0036
    1CHOL    C229664  20.013  12.313   4.010  0.0967  0.3727 -0.0882
    1CHOL   ROH29665  15.368  25.608   6.289 -0.0843 -0.0033 -0.0609
    1CHOL    R129666  15.293  25.630   6.017  0.1107 -0.1071 -0.1260
    1CHOL    R229667  15.109  25.817   5.929 -0.0823 -0.3599 -0.2749
    1CHOL    R329668  15.310  25.885   5.758 -0.0291 -0.0760 -0.1053
    1CHOL    R429669  15.068  26.002   5.639 -0.0834 -0.3434 -0.2642
    1CHOL    R529670  15.211  25.869   5.541  0.1572 -0.1493 -0.1865
    1CHOL    C129671  15.233  26.173   5.311 -0.0341 -0.0673 -0.0988
    1CHOL    C229672  15.164  26.194   5.027  0.0365 -0.1696 -0.2757
    1CHOL   ROH29673  16.100  14.759   6.008 -0.0020 -0.1414 -0.0119
    1CHOL    R129674  16.086  14.853   5.741 -0.0481 -0.0803  0.0114
    1CHOL    R229675  16.291  14.819   5.560 -0.0735 -0.0304 -0.0313
    1CHOL    R329676  16.095  14.707   5.408 -0.0943 -0.0046 -0.0224
    1CHOL    R429677  16.283  14.823   5.214 -0.1165  0.0090 -0.0294
    1CHOL    R529678  16.068  14.859   5.225 -0.1111  0.0151 -0.0008
    1CHOL    C129679  16.093  14.720   4.871 -0.1612  0.0562 -0.0200
    1CHOL    C229680  16.124  14.816   4.484  0.1895 -0.0914  0.2702
    1CHOL   ROH29681  10.434  23.535   4.201 -0.1593 -0.0513 -0.1357
    1CHOL    R129682  10.661  23.430   4.334 -0.1895  0.0030 -0.0422
    1CHOL    R229683  10.808  23.219   4.235 -0.1234  0.0149  0.0395
    1CHOL    R329684  11.016  23.392   4.262 -0.1561  0.0472  0.0897
    1CHOL    R429685  11.141  23.127   4.232 -0.1062  0.0773 -0.0604
    1CHOL    R529686  11.176  23.270   4.394 -0.1105  0.0104  0.0076
    1CHOL    C129687  11.530  23.235   4.257 -0.1268  0.1441 -0.0715
    1CHOL    C229688  11.808  22.975   4.359  0.2936  0.1495  0.1121
    1CHOL   ROH29689   5.297  21.811   2.661  0.2543  0.1464 -0.3322
    1CHOL    R129690   5.545  21.674   2.668  0.1728  0.0018 -0.1889
    1CHOL    R229691   5.735  21.718   2.864  0.1609  0.0234 -0.1791
    1CHOL    R329692   5.716  21.449   2.897 -0.0086  0.0552  0.0013
    1CHOL    R429693   5.976  21.519   3.011  0.1029 -0.0518 -0.1862
    1CHOL    R529694   5.938  21.368   2.859 -0.0847 -0.1237 -0.0701
    1CHOL    C129695   6.099  21.151   3.127 -0.0901 -0.0657 -0.0209
    1CHOL    C229696   6.399  21.030   3.291 -0.0788 -0.2512 -0.1670
    1CHOL   ROH29697  20.750   9.275   5.781 -0.1741  0.2472 -0.0976
    1CHOL    R129698  20.794   9.304   5.503  0.0531  0.0364 -0.0859
    1CHOL    R229699  20.972   9.144   5.363 -0.0787 -0.2982  0.1166
    1CHOL    R329700  20.755   9.097   5.206 -0.0493 -0.0686  0.0010
    1CHOL    R429701  20.983   9.062   5.027 -0.0113 -0.0695  0.0603
    1CHOL    R529702  20.812   9.191   4.994  0.0752  0.0476  0.0875
    1CHOL    C129703  20.787   8.969   4.685  0.0557  0.2792 -0.0810
    1CHOL    C229704  20.793   8.637   4.365 -0.1994 -0.0089  0.0337
    1CHOL   ROH29705  23.836  12.249   2.818  0.0180 -0.0931  0.1432
    1CHOL    R129706  23.981  12.198   3.056 -0.0240  0.1287  0.2180
    1CHOL    R229707  23.964  12.362   3.278 -0.3556  0.1313  0.1939
    1CHOL    R329708  23.900  12.130   3.405 -0.0985  0.0536  0.1871
    1CHOL    R429709  23.952  12.321   3.621 -0.6070  0.2017  0.1960
    1CHOL    R529710  24.045  12.125   3.596 -0.2610  0.3378  0.3258
    1CHOL    C129711  23.886  12.079   3.940 -0.5120  0.1697  0.1908
    1CHOL    C229712  23.960  12.167   4.277 -0.1040 -0.1853 -0.0457
    1CHOL   ROH29713  12.818  10.564   6.647  0.1539 -0.2496 -0.1792
    1CHOL    R129714  12.858  10.751   6.438  0.0582 -0.1570 -0.1146
    1CHOL    R229715  13.006  10.693   6.212  0.0813 -0.0047 -0.1349
    1CHOL    R329716  12.780  10.772   6.084  0.0426 -0.0683 -0.1077
    1CHOL    R429717  12.975  10.728   5.870  0.0638  0.0583 -0.1274
    1CHOL    R529718  12.858  10.908   5.903 -0.0129  0.0073 -0.0804
    1CHOL    C129719  12.745  10.822   5.550  0.0172  0.0352 -0.0976
    1CHOL    C229720  12.919  10.641   5.267  0.1538  0.2455 -0.1827
    1CHOL   ROH29721   7.394  29.511   3.731 -0.0011 -0.1937 -0.2000
    1CHOL    R129722   7.305  29.556   3.996  0.1019 -0.1396 -0.1742
    1CHOL    R229723   7.040  29.599   4.059  0.1362 -0.0487 -0.0893
    1CHOL    R329724   7.080  29.392   4.231  0.1279 -0.0452 -0.0827
    1CHOL    R429725   6.809  29.487   4.290  0.1767  0.0462 -0.0016
    1CHOL    R529726   6.971  29.462   4.433  0.2164  0.0086 -0.0528
    1CHOL    C129727   6.712  29.228   4.586  0.1925  0.1048  0.0557
    1CHOL    C229728   6.398  29.152   4.667 -0.0012 -0.0841  0.2296
    1CHOL   ROH29729  16.583  23.442   6.175 -0.0578 -0.3610  0.1624
    1CHOL    R129730  16.523  23.371   5.908 -0.0451 -0.1473  0.1023
    1CHOL    R229731  16.639  23.497   5.691  0.1003 -0.0968  0.2143
    1CHOL    R329732  16.706  23.243   5.620 -0.0714 -0.1032  0.0636
    1CHOL    R429733  16.825  23.414   5.412  0.0789 -0.0440  0.1833
    1CHOL    R529734  16.692  23.243   5.381 -0.0428  0.0648  0.0566
    1CHOL    C129735  16.996  23.127   5.183 -0.0946 -0.0190  0.0239
    1CHOL    C229736  17.129  23.165   4.895 -0.0887 -0.0465  0.0423
    1CHOL   ROH29737  14.513  16.032   6.071  0.1011 -0.1283 -0.0649
    1CHOL    R129738  14.504  15.933   5.806 -0.0154 -0.0030 -0.1080
    1CHOL    R229739  14.308  16.007   5.626 -0.0358  0.1601 -0.0165
    1CHOL    R329740  14.520  16.074   5.470 -0.0538  0.1437 -0.0496
    1CHOL    R429741  14.312  15.990   5.281 -0.0727  0.1033 -0.0150
    1CHOL    R529742  14.516  15.914   5.292 -0.0667  0.1126 -0.0235
    1CHOL    C129743  14.513  16.044   4.934 -0.1112  0.0551 -0.0453
    1CHOL    C229744  14.539  16.088   4.517  0.0374  0.0540 -0.0653
    1CHOL   ROH29745  14.237  17.177   2.725 -0.3716 -0.2232  0.0810
    1CHOL    R129746  14.196  17.101   2.994 -0.2202 -0.0028  0.1696
    1CHOL    R229747  14.381  17.152   3.193 -0.0896  0.1292  0.0198
    1CHOL    R329748  14.168  17.270   3.316  0.0017  0.2598  0.0541
    1CHOL    R429749  14.354  17.205   3.534 -0.0769 -0.0026  0.0417
    1CHOL    R529750  14.144  17.148   3.521 -0.1248  0.1878 -0.0043
    1CHOL    C129751  14.139  17.346   3.847  0.0162  0.0432  0.0867
    1CHOL    C229752  14.066  17.527   4.219  0.0366  0.1134  0.0424
    1CHOL   ROH29753  12.151  17.200   6.272 -0.2344  0.0661  0.0663
    1CHOL    R129754  12.110  17.335   6.026 -0.2243 -0.0093  0.0226
    1CHOL    R229755  12.284  17.310   5.811 -0.0909  0.1033  0.1134
    1CHOL    R329756  12.058  17.239   5.679  0.0349 -0.1144  0.0104
    1CHOL    R429757  12.255  17.285   5.468  0.0779  0.1075  0.0987
    1CHOL    R529758  12.058  17.376   5.482 -0.0216 -0.0943  0.0255
    1CHOL    C129759  12.026  17.204   5.143  0.2943 -0.0945 -0.0065
    1CHOL    C229760  11.935  17.377   4.782  0.0358 -0.0738 -0.3810
    1CHOL   ROH29761   8.810  10.269   3.902 -0.0615  0.1301 -0.0325
    1CHOL    R129762   8.714  10.462   4.087 -0.0258  0.1447 -0.0292
    1CHOL    R229763   8.512  10.407   4.268 -0.0411  0.1811 -0.0346
    1CHOL    R329764   8.696  10.494   4.449 -0.0263  0.1382 -0.0289
    1CHOL    R429765   8.442  10.608   4.540 -0.0357  0.0247  0.0843
    1CHOL    R529766   8.627  10.717   4.501 -0.0738  0.0933  0.1001
    1CHOL    C129767   8.573  10.807   4.868 -0.0187 -0.1066  0.1587
    1CHOL    C229768   8.640  11.094   5.047  0.1206 -0.2407 -0.2518
    1CHOL   ROH29769  29.907  14.158   5.650  0.1109  0.1554  0.1266
    1CHOL    R129770  29.835  14.360   5.465 -0.0080  0.1565  0.1731
    1CHOL    R229771  29.879  14.335   5.193  0.0453  0.2611  0.1695
    1CHOL    R329772  29.613  14.389   5.178  0.0074  0.0762  0.1542
    1CHOL    R429773  29.713  14.434   4.906 -0.0124  0.1712  0.1710
    1CHOL    R529774  29.598  14.574   5.028 -0.1176  0.0775  0.1724
    1CHOL    C129775  29.366  14.543   4.726 -0.0814 -0.0547  0.1575
    1CHOL    C229776  29.503  14.609   4.367 -0.3329  0.2050  0.2612
    1CHOL   ROH29777  18.091  17.247   6.279  0.2020  0.0215 -0.0039
    1CHOL    R129778  18.006  17.309   6.017  0.1747 -0.0082 -0.0013
    1CHOL    R229779  17.992  17.568   5.921  0.0998 -0.0164 -0.0055
    1CHOL    R329780  18.149  17.468   5.722  0.1178  0.0241 -0.0125
    1CHOL    R429781  18.023  17.706   5.606  0.2461  0.1429  0.0767
    1CHOL    R529782  18.021  17.505   5.523  0.1872  0.1839 -0.0317
    1CHOL    C129783  18.187  17.694   5.236  0.3482  0.2737  0.1179
    1CHOL    C229784  17.929  17.728   4.814  0.0060 -0.0044  0.2395
    1CHOL   ROH29785  10.358  22.011   3.192 -0.4326  0.0947 -0.0144
    1CHOL    R129786  10.303  22.099   3.455 -0.1379  0.2187  0.0098
    1CHOL    R229787  10.223  21.927   3.657 -0.2032  0.3548  0.1015
    1CHOL    R329788  10.434  22.036   3.788  0.0275  0.1296 -0.0713
    1CHOL    R429789  10.328  21.835   3.973 -0.1767  0.3909  0.1034
    1CHOL    R529790  10.364  22.045   4.017  0.1535  0.3705 -0.0387
    1CHOL    C129791  10.587  21.884   4.281  0.0554  0.2006 -0.0578
    1CHOL    C229792  10.819  21.644   4.558 -0.0624  0.3151  0.1306
    1CHOL   ROH29793  13.562   9.011   3.458 -0.2450  0.2195 -0.1547
    1CHOL    R129794  13.550   9.059   3.737 -0.1220  0.1738 -0.1405
    1CHOL    R229795  13.313   9.105   3.870 -0.0779  0.0309 -0.0061
    1CHOL    R329796  13.397   8.899   4.026  0.1139  0.0519 -0.0799
    1CHOL    R429797  13.265   9.085   4.212 -0.0144 -0.1093 -0.0056
    1CHOL    R529798  13.467   9.005   4.230  0.0560  0.0503 -0.0588
    1CHOL    C129799  13.316   8.880   4.557  0.2028 -0.1712 -0.0745
    1CHOL    C229800  13.098   8.833   4.866  0.2046 -0.4435  0.0258
    1CHOL   ROH29801  20.058  17.731   6.048  0.0447  0.1656  0.0141
    1CHOL    R129802  20.202  17.891   5.866 -0.0995  0.3687  0.0740
    1CHOL    R229803  20.294  17.796   5.623  0.3240  0.4241  0.1986
    1CHOL    R329804  20.157  18.009   5.524 -0.0212  0.1105 -0.0257
    1CHOL    R429805  20.289  17.890   5.291  0.4042  0.2466  0.1464
    1CHOL    R529806  20.301  18.098   5.354 -0.0587  0.3080  0.0496
    1CHOL    C129807  20.158  18.145   5.004  0.1268 -0.1515 -0.0946
    1CHOL    C229808  20.404  18.221   4.653  0.0390  0.1774 -0.0212
    1CHOL   ROH29809   2.509   3.846   3.941  0.0073  0.0742 -0.0579
    1CHOL    R129810   2.575   3.600   4.064  0.0286  0.1367  0.0573
    1CHOL    R229811   2.614   3.368   3.920 -0.1940  0.0168  0.1831
    1CHOL    R329812   2.852   3.364   4.053 -0.0694  0.0251 -0.0351
    1CHOL    R429813   2.808   3.086   3.971 -0.3004 -0.0385  0.2877
    1CHOL    R529814   2.850   3.157   4.173 -0.0719  0.1470  0.1797
    1CHOL    C129815   3.144   2.918   4.124 -0.2453 -0.0629  0.1438
    1CHOL    C229816   3.421   2.598   3.980 -0.0043  0.0476 -0.0901
    1CHOL   ROH29817   8.192   7.180   3.976  0.1900 -0.3093 -0.1225
    1CHOL    R129818   8.112   7.259   4.236  0.1215  0.0370 -0.2436
    1CHOL    R229819   8.177   7.114   4.462 -0.4697 -0.0210 -0.0932
    1CHOL    R329820   8.276   7.353   4.547  0.0582 -0.2145 -0.1316
    1CHOL    R429821   8.202   7.212   4.793 -0.6890  0.1472 -0.1237
    1CHOL    R529822   8.138   7.412   4.733 -0.0688  0.2937 -0.3685
    1CHOL    C129823   8.310   7.492   5.065 -0.3209  0.0636 -0.1776
    1CHOL    C229824   8.188   7.477   5.443  0.1312 -0.2397  0.1724
    1CHOL   ROH29825  14.164  18.345   2.645  0.3208 -0.2186 -0.0405
    1CHOL    R129826  14.096  18.323   2.919  0.1009 -0.0894 -0.0819
    1CHOL    R229827  14.249  18.180   3.099 -0.0629 -0.0362  0.1020
    1CHOL    R329828  14.247  18.414   3.238 -0.1360  0.0236  0.0011
    1CHOL    R429829  14.317  18.210   3.437 -0.1908  0.1070  0.1157
    1CHOL    R529830  14.155  18.355   3.451 -0.2119  0.1018 -0.0072
    1CHOL    C129831  14.355  18.447   3.763 -0.3338  0.2464  0.0290
    1CHOL    C229832  14.236  18.405   4.141  0.3610  0.1284 -0.1420
    1CHOL   ROH29833  18.090  10.726   5.986 -0.2685  0.0175 -0.1397
    1CHOL    R129834  18.128  10.799   5.715 -0.3277  0.0907 -0.1278
    1CHOL    R229835  18.168  10.613   5.515 -0.2058  0.1547 -0.1591
    1CHOL    R329836  17.957  10.739   5.399 -0.2965  0.0293 -0.1344
    1CHOL    R429837  18.028  10.525   5.212 -0.2385  0.0127 -0.1037
    1CHOL    R529838  18.008  10.737   5.165 -0.3510 -0.0029 -0.1490
    1CHOL    C129839  17.748  10.592   4.927 -0.3427 -0.1877 -0.0483
    1CHOL    C229840  17.828  10.264   4.786 -0.4150 -0.0071 -0.0851
    1CHOL   ROH29841  18.591  19.199   3.182 -0.2038  0.2626  0.0207
    1CHOL    R129842  18.669  19.324   3.423  0.0102  0.1666  0.0038
    1CHOL    R229843  18.506  19.331   3.647  0.0506  0.4046  0.0278
    1CHOL    R329844  18.723  19.222   3.769 -0.0790  0.1035 -0.0003
    1CHOL    R429845  18.541  19.292   3.988  0.0587  0.3968  0.0263
    1CHOL    R529846  18.750  19.352   3.969  0.1468  0.0935 -0.0214
    1CHOL    C129847  18.766  19.166   4.302 -0.0584  0.1097 -0.0010
    1CHOL    C229848  18.655  19.183   4.581 -0.0127 -0.0850  0.0858
    1CHOL   ROH29849   8.911  19.541   2.729 -0.1193 -0.0126 -0.0005
    1CHOL    R129850   8.850  19.412   2.974  0.0187 -0.1146 -0.0186
    1CHOL    R229851   9.045  19.336   3.155  0.1045  0.0480 -0.0405
    1CHOL    R329852   8.896  19.483   3.328 -0.0347 -0.1270 -0.0092
    1CHOL    R429853   9.098  19.352   3.496  0.1998  0.1616 -0.0602
    1CHOL    R529854   8.882  19.347   3.525  0.2137 -0.1231  0.0138
    1CHOL    C129855   8.989  19.500   3.857  0.1246  0.0635 -0.0422
    1CHOL    C229856   8.910  19.604   4.217 -0.0589 -0.0751 -0.2331
    1CHOL   ROH29857  23.172   3.576   4.096 -0.0434 -0.2580  0.0358
    1CHOL    R129858  23.139   3.687   4.355 -0.0717 -0.0820 -0.0416
    1CHOL    R229859  23.216   3.554   4.584 -0.2402  0.0061  0.0687
    1CHOL    R329860  23.356   3.782   4.631 -0.1146 -0.0526 -0.0178
    1CHOL    R429861  23.415   3.610   4.861 -0.1661 -0.0189  0.0206
    1CHOL    R529862  23.340   3.815   4.867 -0.0597  0.0223 -0.0241
    1CHOL    C129863  23.662   3.858   5.066 -0.0050 -0.0885 -0.0885
    1CHOL    C229864  23.966   3.827   5.240 -0.0252 -0.0227 -0.1425
    1CHOL   ROH29865  12.524  16.276   6.389  0.0811 -0.1067 -0.1184
    1CHOL    R129866  12.565  16.264   6.109  0.0257 -0.0451 -0.1298
    1CHOL    R229867  12.388  16.374   5.927  0.0402  0.0845 -0.0681
    1CHOL    R329868  12.611  16.502   5.838  0.0809  0.0134 -0.0690
    1CHOL    R429869  12.482  16.399   5.596 -0.0310  0.1802 -0.0813
    1CHOL    R529870  12.689  16.367   5.657 -0.0314  0.0523 -0.1468
    1CHOL    C129871  12.746  16.533   5.318 -0.0342  0.1691 -0.0899
    1CHOL    C229872  12.752  16.575   4.952  0.0075 -0.2392 -0.2153
    1CHOL   ROH29873   8.031  14.440   2.981  0.1670  0.2551  0.0149
    1CHOL    R129874   7.981  14.300   3.222  0.0939  0.1486 -0.0607
    1CHOL    R229875   8.160  14.300   3.434  0.0287  0.0596 -0.0045
    1CHOL    R329876   7.943  14.386   3.574 -0.0168 -0.0049 -0.0344
    1CHOL    R429877   8.107  14.243   3.770 -0.1140 -0.1482 -0.0598
    1CHOL    R529878   7.897  14.208   3.727 -0.1000 -0.0961 -0.1658
    1CHOL    C129879   7.874  14.291   4.098 -0.2399 -0.3298 -0.1201
    1CHOL    C229880   7.999  14.083   4.388  0.1530 -0.5039 -0.0738
    1CHOL   ROH29881  15.646  16.010   6.331 -0.1214  0.2483  0.0776
    1CHOL    R129882  15.550  16.139   6.098  0.0871  0.2381 -0.0166
    1CHOL    R229883  15.717  16.241   5.904  0.2581 -0.1662 -0.0901
    1CHOL    R329884  15.568  16.085   5.739  0.0102 -0.0519  0.0203
    1CHOL    R429885  15.678  16.294   5.565  0.1891 -0.2352 -0.0934
    1CHOL    R529886  15.468  16.240   5.586  0.1297  0.0151  0.0077
    1CHOL    C129887  15.516  16.179   5.212 -0.0839 -0.1684  0.0082
    1CHOL    C229888  15.566  16.117   4.844 -0.2452 -0.5212 -0.0539
    1CHOL   ROH29889   3.711  26.831   5.859  0.0339 -0.0424  0.0444
    1CHOL    R129890   3.890  26.975   5.694 -0.0825  0.2242  0.1437
    1CHOL    R229891   4.111  27.108   5.793  0.1283 -0.1416  0.1858
    1CHOL    R329892   4.244  26.958   5.610 -0.1910  0.1796 -0.3328
    1CHOL    R429893   4.413  27.194   5.650  0.0840 -0.0813  0.1287
    1CHOL    R529894   4.339  27.119   5.460 -0.1721  0.4784 -0.0133
    1CHOL    C129895   4.715  27.104   5.395 -0.2415  0.2554 -0.3914
    1CHOL    C229896   4.898  27.473   5.231 -0.1563  0.0792 -0.0874
    1CHOL   ROH29897  16.416  23.861   4.602  0.2760 -0.0045 -0.2889
    1CHOL    R129898  16.156  23.942   4.526  0.1816  0.0183  0.0427
    1CHOL    R229899  16.014  23.816   4.325  0.1406  0.3708 -0.1578
    1CHOL    R329900  15.824  23.793   4.519  0.2641 -0.1647 -0.0832
    1CHOL    R429901  15.686  23.720   4.271  0.1365  0.4061 -0.1970
    1CHOL    R529902  15.623  23.871   4.415  0.1759  0.0418  0.2264
    1CHOL    C129903  15.317  23.643   4.422  0.2502 -0.0763 -0.1498
    1CHOL    C229904  14.975  23.740   4.389  0.0824 -0.1877 -0.1431
    1CHOL   ROH29905  16.372  11.402   3.018  0.0972  0.1332 -0.0430
    1CHOL    R129906  16.191  11.372   3.233 -0.0163  0.1426 -0.1362
    1CHOL    R229907  16.253  11.227   3.460 -0.1656  0.0846 -0.1319
    1CHOL    R329908  16.184  11.458   3.587 -0.1655  0.0802 -0.1233
    1CHOL    R429909  16.124  11.246   3.780 -0.4076  0.0533 -0.2251
    1CHOL    R529910  15.987  11.401   3.711 -0.2880  0.1306 -0.2909
    1CHOL    C129911  15.984  11.473   4.086 -0.5483  0.0308 -0.2714
    1CHOL    C229912  15.832  11.427   4.418 -0.0330  0.0102  0.0095
    1CHOL   ROH29913  14.879  12.010   2.939  0.1082 -0.2066  0.0012
    1CHOL    R129914  14.979  12.036   3.202  0.0565  0.0458 -0.0037
    1CHOL    R229915  14.935  12.261   3.357 -0.3728 -0.0000 -0.0641
    1CHOL    R329916  14.839  12.080   3.535 -0.0330 -0.1405 -0.0127
    1CHOL    R429917  14.939  12.300   3.700 -0.5388  0.1732 -0.0785
    1CHOL    R529918  14.992  12.090   3.719 -0.0843  0.2767  0.0261
    1CHOL    C129919  14.851  12.153   4.067 -0.3165  0.1423 -0.0386
    1CHOL    C229920  14.760  12.331   4.377  0.0651  0.1132 -0.1787
    1CHOL   ROH29921   6.947   9.617   6.140  0.0077  0.1306 -0.2042
    1CHOL    R129922   6.804   9.445   5.967 -0.0232  0.1572 -0.2059
    1CHOL    R229923   6.729   9.519   5.712  0.1163  0.1220 -0.2610
    1CHOL    R329924   6.860   9.291   5.642  0.0181  0.0264 -0.1373
    1CHOL    R429925   6.718   9.373   5.399  0.0736 -0.0359 -0.1866
    1CHOL    R529926   6.708   9.178   5.496 -0.0207  0.0189 -0.0887
    1CHOL    C129927   6.834   9.075   5.151 -0.0434 -0.2175 -0.0271
    1CHOL    C229928   6.688   8.825   4.908 -0.2042 -0.0713 -0.0505
    1CHOL   ROH29929  13.707  20.383   6.238 -0.0212  0.2139  0.0406
    1CHOL    R129930  13.799  20.490   5.993  0.0906 -0.0401 -0.0320
    1CHOL    R229931  13.887  20.332   5.784 -0.3149 -0.2859 -0.0275
    1CHOL    R329932  13.702  20.471   5.642 -0.1052  0.0472  0.0163
    1CHOL    R429933  13.901  20.389   5.444 -0.2344 -0.2011 -0.0104
    1CHOL    R529934  13.830  20.592   5.480  0.0792 -0.0985  0.0517
    1CHOL    C129935  13.735  20.553   5.112  0.0093  0.1607  0.0407
    1CHOL    C229936  13.646  20.607   4.750  0.3649 -0.1678 -0.1691
    1CHOL   ROH29937  10.055   7.197   3.872  0.1036  0.0255 -0.1539
    1CHOL    R129938  10.056   7.429   4.035 -0.1214 -0.1460  0.1022
    1CHOL    R229939  10.053   7.417   4.311  0.2562 -0.4651  0.1053
    1CHOL    R329940  10.274   7.573   4.288 -0.0550 -0.0268 -0.0234
    1CHOL    R429941  10.151   7.656   4.540  0.0511 -0.4359  0.1631
    1CHOL    R529942  10.206   7.786   4.374 -0.3659 -0.2103  0.1934
    1CHOL    C129943  10.415   7.942   4.652 -0.3606 -0.0075  0.0760
    1CHOL    C229944  10.564   8.030   5.007 -0.1088 -0.2340 -0.3562
    1CHOL   ROH29945  15.747  21.240   2.795 -0.1302  0.0640  0.0233
    1CHOL    R129946  15.692  21.392   3.027  0.0850  0.0406  0.0891
    1CHOL    R229947  15.463  21.358   3.177 -0.0099  0.3656  0.0095
    1CHOL    R329948  15.640  21.325   3.381 -0.1160 -0.0510  0.0460
    1CHOL    R429949  15.385  21.381   3.513 -0.0388  0.5806 -0.0091
    1CHOL    R529950  15.573  21.485   3.545  0.2278  0.1393  0.0192
    1CHOL    C129951  15.506  21.363   3.900 -0.1553  0.3147  0.0143
    1CHOL    C229952  15.567  21.484   4.335 -0.0981  0.2240 -0.1637
    1CHOL   ROH29953  11.117  10.370   3.417 -0.3099 -0.2468  0.0574
    1CHOL    R129954  11.233  10.514   3.631 -0.1282 -0.1828 -0.0808
    1CHOL    R229955  11.083  10.613   3.842  0.0250  0.0245 -0.0668
    1CHOL    R329956  11.261  10.473   3.992  0.0187  0.0142 -0.0685
    1CHOL    R429957  11.138  10.663   4.179 -0.0526 -0.0591 -0.0413
    1CHOL    R529958  11.352  10.636   4.143 -0.0404 -0.0116 -0.0049
    1CHOL    C129959  11.338  10.560   4.517 -0.1037 -0.1175 -0.0279
    1CHOL    C229960  11.504  10.743   4.864  0.1907 -0.1620  0.0046
    1CHOL   ROH29961   3.439   4.522   4.005 -0.1369  0.0753  0.1552
    1CHOL    R129962   3.291   4.481   4.243 -0.1917 -0.0103  0.1073
    1CHOL    R229963   3.088   4.650   4.323 -0.2834 -0.1012  0.0661
    1CHOL    R329964   2.944   4.420   4.332 -0.1947 -0.1603 -0.0015
    1CHOL    R429965   2.833   4.586   4.547 -0.3566 -0.2044 -0.0457
    1CHOL    R529966   2.908   4.382   4.566 -0.2814 -0.1765 -0.0161
    1CHOL    C129967   2.549   4.332   4.686 -0.3159 -0.3199 -0.1743
    1CHOL    C229968   2.484   4.182   4.979  0.0730  0.1727 -0.3848
    1CHOL   ROH29969  13.366  14.278   6.451 -0.0734  0.0063 -0.0432
    1CHOL    R129970  13.275  14.256   6.184 -0.0170  0.1157 -0.0721
    1CHOL    R229971  13.400  14.384   5.974  0.1311  0.0650 -0.0173
    1CHOL    R329972  13.409  14.133   5.869 -0.0165  0.0753 -0.0560
    1CHOL    R429973  13.375  14.310   5.637  0.1856  0.1394 -0.0377
    1CHOL    R529974  13.251  14.139   5.689  0.0444  0.2199 -0.1063
    1CHOL    C129975  13.369  14.032   5.342  0.0786  0.1923 -0.0859
    1CHOL    C229976  13.320  13.993   4.968  0.2167  0.0353 -0.1980
    1CHOL   ROH29977  16.700  12.606   5.952 -0.2127 -0.3818  0.1811
    1CHOL    R129978  16.516  12.581   5.737 -0.1001 -0.2877  0.0729
    1CHOL    R229979  16.565  12.687   5.486  0.0804 -0.2710  0.1157
    1CHOL    R329980  16.516  12.432   5.406  0.0345 -0.2424  0.0512
    1CHOL    R429981  16.466  12.595   5.168  0.0142 -0.1651  0.1051
    1CHOL    R529982  16.329  12.451   5.257  0.0102 -0.1745  0.0880
    1CHOL    C129983  16.361  12.303   4.907 -0.0673 -0.0767  0.0385
    1CHOL    C229984  16.146  12.357   4.661 -0.1359  0.2800 -0.0399
    1CHOL   ROH29985  12.090  13.898   6.351  0.1228  0.1360  0.0962
    1CHOL    R129986  12.211  13.894   6.095  0.0312  0.2116  0.0515
    1CHOL    R229987  12.239  13.663   5.946  0.1331  0.2269  0.0496
    1CHOL    R329988  12.111  13.809   5.756 -0.0356  0.1346  0.0899
    1CHOL    R429989  12.331  13.679   5.614 -0.1735  0.0423 -0.0493
    1CHOL    R529990  12.286  13.892   5.617 -0.1559  0.0491 -0.1199
    1CHOL    C129991  12.265  13.825   5.242 -0.5105 -0.1519 -0.0692
    1CHOL    C229992  12.332  13.986   4.851 -0.1475  0.0036 -0.1042
    1CHOL   ROH29993  22.799  29.620   4.897 -0.0529  0.0873  0.1351
    1CHOL    R129994  23.014  29.710   5.057 -0.1301  0.0766  0.2455
    1CHOL    R229995  23.250  29.805   4.950  0.0173 -0.1444  0.3668
    1CHOL    R329996  23.196  30.022   5.105  0.0170  0.0043  0.1625
    1CHOL    R429997  23.487  30.024   5.074  0.0560 -0.2434  0.4687
    1CHOL    R529998  23.376  30.030   5.262 -0.1413 -0.0310  0.3503
    1CHOL    C129999  23.574  30.355   5.292  0.0785 -0.1616  0.3362
    1CHOL    C230000  23.769  30.591   5.166  0.2155 -0.1555  0.0686
    1CHOL   ROH30001  21.144  14.202   5.960 -0.0786  0.2016  0.1895
    1CHOL    R130002  21.128  14.409   5.767 -0.1086 -0.0241 -0.0551
    1CHOL    R230003  21.281  14.638   5.782 -0.4170  0.1877 -0.1060
    1CHOL    R330004  21.354  14.567   5.529 -0.0149  0.0053  0.0508
    1CHOL    R430005  21.395  14.858   5.540 -0.5832  0.1194 -0.2491
    1CHOL    R530006  21.277  14.749   5.392 -0.2285 -0.2969 -0.2526
    1CHOL    C130007  21.529  14.919   5.162 -0.3024 -0.0916 -0.1853
    1CHOL    C230008  21.541  15.261   5.039  0.0096  0.0158 -0.0987
    1CHOL   ROH30009  24.129   0.933   4.654  0.2901 -0.1286  0.3410
    1CHOL    R130010  23.882   1.072   4.649  0.3601 -0.0066  0.1714
    1CHOL    R230011  23.645   0.957   4.734  0.1966  0.0197 -0.2300
    1CHOL    R330012  23.633   1.177   4.893  0.1098 -0.1285 -0.0273
    1CHOL    R430013  23.359   1.141   4.795  0.1748 -0.0019 -0.2670
    1CHOL    R530014  23.479   1.322   4.781  0.2110 -0.0019 -0.0056
    1CHOL    C130015  23.181   1.454   4.980  0.0808 -0.1535 -0.0981
    1CHOL    C230016  22.894   1.517   4.942 -0.1064  0.1153 -0.1292
    1CHOL   ROH30017  16.218  15.230   6.065  0.0295  0.2550  0.0629
    1CHOL    R130018  16.199  15.344   5.806  0.2850  0.1333 -0.0139
    1CHOL    R230019  16.391  15.304   5.611  0.2193 -0.4086  0.0113
    1CHOL    R330020  16.178  15.221   5.464  0.0372 -0.0529  0.0666
    1CHOL    R430021  16.387  15.277   5.267  0.0722 -0.3982  0.0122
    1CHOL    R530022  16.185  15.358   5.268  0.2059 -0.0616  0.0696
    1CHOL    C130023  16.184  15.184   4.928 -0.1843 -0.0582  0.0646
    1CHOL    C230024  16.144  15.283   4.591 -0.2480  0.2545 -0.0400
    1CHOL   ROH30025  21.075  17.599   6.451 -0.0681 -0.1137 -0.1309
    1CHOL    R130026  20.997  17.539   6.185 -0.1638  0.0527 -0.1419
    1CHOL    R230027  20.857  17.718   6.027 -0.0131  0.2449 -0.0623
    1CHOL    R330028  21.062  17.673   5.853 -0.0778  0.1046 -0.1044
    1CHOL    R430029  20.846  17.779   5.687 -0.1234  0.0154 -0.1019
    1CHOL    R530030  20.955  17.594   5.654 -0.1556 -0.0194 -0.0148
    1CHOL    C130031  21.031  17.773   5.326 -0.2483 -0.2498 -0.1646
    1CHOL    C230032  21.221  18.021   5.098  0.0529  0.1295 -0.4590
    1CHOL   ROH30033  16.623  22.810   5.889  0.1968  0.0787  0.1897
    1CHOL    R130034  16.774  22.756   5.656  0.1332  0.1421  0.1337
    1CHOL    R230035  16.693  22.574   5.465  0.1532  0.0851  0.1805
    1CHOL    R330036  16.726  22.785   5.296 -0.0251  0.0906  0.1500
    1CHOL    R430037  16.744  22.549   5.124 -0.0590  0.0900  0.1466
    1CHOL    R530038  16.890  22.710   5.139 -0.1016  0.1390  0.0460
    1CHOL    C130039  16.805  22.732   4.767 -0.3498  0.0981  0.0983
    1CHOL    C230040  16.645  22.785   4.382 -0.3738 -0.0878  0.0696
    1CHOL   ROH30041   5.471  16.676   2.877 -0.2837  0.1727 -0.1863
    1CHOL    R130042   5.339  16.760   3.112 -0.1146 -0.0407 -0.0098
    1CHOL    R230043   5.474  16.852   3.335  0.0378  0.0670 -0.1415
    1CHOL    R330044   5.311  17.068   3.305 -0.2560 -0.1165  0.0910
    1CHOL    R430045   5.397  17.078   3.585  0.0083 -0.1049  0.0058
    1CHOL    R530046   5.192  17.081   3.512 -0.0692 -0.3272  0.2133
    1CHOL    C130047   5.199  17.411   3.703 -0.2847 -0.3771  0.3098
    1CHOL    C230048   4.906  17.604   3.794 -0.0575  0.1965 -0.1522
    1CHOL   ROH30049   2.230  14.725   4.142  0.0352  0.3637 -0.1164
    1CHOL    R130050   1.988  14.673   4.280 -0.0701  0.2337 -0.3449
    1CHOL    R230051   1.949  14.744   4.543 -0.0868 -0.4362 -0.1459
    1CHOL    R330052   1.729  14.869   4.443  0.0770  0.0726  0.0954
    1CHOL    R430053   1.646  14.770   4.707 -0.1503 -0.6584 -0.2244
    1CHOL    R530054   1.545  14.733   4.517 -0.0876  0.0012 -0.4099
    1CHOL    C130055   1.263  14.903   4.709 -0.0336 -0.3103 -0.0436
    1CHOL    C230056   0.926  14.904   4.608 -0.3876 -0.0931  0.2905
    1CHOL   ROH30057  13.628  19.496   6.245  0.0205 -0.3048  0.0322
    1CHOL    R130058  13.408  19.472   6.069 -0.0094 -0.1236  0.0407
    1CHOL    R230059  13.379  19.630   5.844  0.0470 -0.0148  0.1012
    1CHOL    R330060  13.358  19.391   5.718 -0.0782  0.0435  0.0124
    1CHOL    R430061  13.326  19.589   5.505  0.0137  0.1286  0.0895
    1CHOL    R530062  13.190  19.425   5.551 -0.0629  0.1839  0.0318
    1CHOL    C130063  13.275  19.340   5.190 -0.1233  0.2668 -0.0007
    1CHOL    C230064  13.376  19.187   4.944 -0.0259 -0.0048  0.0377
    1CHOL   ROH30065  20.067   5.577   3.305  0.1314 -0.1706 -0.2038
    1CHOL    R130066  20.182   5.443   3.527  0.0863 -0.1793 -0.1873
    1CHOL    R230067  20.123   5.511   3.788  0.1930 -0.0532 -0.2019
    1CHOL    R330068  20.061   5.247   3.808  0.0136 -0.0058 -0.0935
    1CHOL    R430069  20.093   5.338   4.085  0.4144  0.0239 -0.1320
    1CHOL    R530070  20.194   5.169   3.991  0.1796 -0.0741 -0.2336
    1CHOL    C130071  20.017   4.989   4.278  0.3749  0.1132  0.0105
    1CHOL    C230072  19.878   4.941   4.630  0.0047 -0.0885 -0.0411
    1CHOL   ROH30073  17.375  17.615   2.817  0.1993  0.2525 -0.2012
    1CHOL    R130074  17.430  17.528   3.081  0.0032  0.1592 -0.1880
    1CHOL    R230075  17.678  17.557   3.198 -0.0092 -0.1099 -0.0784
    1CHOL    R330076  17.537  17.683   3.393  0.0341  0.0111 -0.1260
    1CHOL    R430077  17.732  17.517   3.537 -0.2069 -0.2097 -0.0582
    1CHOL    R530078  17.515  17.519   3.566 -0.2173  0.0122 -0.1565
    1CHOL    C130079  17.630  17.613   3.917 -0.2819 -0.1542 -0.0910
    1CHOL    C230080  17.864  17.588   4.176 -0.2326 -0.2352 -0.1186
    1CHOL   ROH30081  20.934  12.533   2.534 -0.1170  0.0492  0.1010
    1CHOL    R130082  20.869  12.655   2.781 -0.2295 -0.0073  0.0997
    1CHOL    R230083  20.696  12.540   2.963 -0.0851 -0.1902  0.1218
    1CHOL    R330084  20.905  12.573   3.134 -0.1042  0.0528  0.1019
    1CHOL    R430085  20.671  12.656   3.288 -0.2071 -0.3142  0.1581
    1CHOL    R530086  20.852  12.772   3.255 -0.3672 -0.0499  0.1645
    1CHOL    C130087  20.852  12.755   3.636 -0.2963 -0.1585  0.1605
    1CHOL    C230088  20.687  12.935   3.945 -0.0818  0.1151  0.1815
    1CHOL   ROH30089  19.503  21.840   4.572  0.0234  0.1799 -0.0313
    1CHOL    R130090  19.619  21.583   4.602  0.0937  0.2280  0.1115
    1CHOL    R230091  19.556  21.415   4.812 -0.0639  0.2230  0.0576
    1CHOL    R330092  19.500  21.239   4.613  0.2180  0.1806  0.0114
    1CHOL    R430093  19.473  21.083   4.861 -0.0777  0.2188  0.0101
    1CHOL    R530094  19.597  21.033   4.688  0.1556  0.2069  0.1734
    1CHOL    C130095  19.373  20.724   4.702  0.1788  0.1763 -0.0609
    1CHOL    C230096  19.229  20.576   4.992 -0.1882 -0.3361 -0.1541
    1CHOL   ROH30097  16.217  14.969   2.637  0.2772 -0.1487 -0.0419
    1CHOL    R130098  16.224  14.785   2.852  0.2454 -0.1027 -0.0008
    1CHOL    R230099  16.389  14.819   3.071  0.1674 -0.0229  0.0474
    1CHOL    R330100  16.157  14.793   3.210  0.1269 -0.0417 -0.0243
    1CHOL    R430101  16.364  14.799   3.416  0.0604 -0.0081  0.0406
    1CHOL    R530102  16.211  14.647   3.391  0.0854 -0.0258  0.0002
    1CHOL    C130103  16.132  14.764   3.746 -0.0399 -0.0170 -0.0306
    1CHOL    C230104  16.279  14.568   4.073  0.3502  0.0140 -0.0942
    1CHOL   ROH30105   7.442   5.684   4.118  0.0352 -0.0749 -0.1793
    1CHOL    R130106   7.669   5.564   4.237 -0.0055 -0.0068 -0.0312
    1CHOL    R230107   7.913   5.691   4.252 -0.0281  0.0270  0.0377
    1CHOL    R330108   7.889   5.635   4.517 -0.1436  0.1173  0.0473
    1CHOL    R430109   8.155   5.756   4.491 -0.0316 -0.1157  0.0816
    1CHOL    R530110   8.108   5.564   4.583 -0.2190 -0.0530  0.1216
    1CHOL    C130111   8.274   5.742   4.878 -0.1419 -0.1141  0.1162
    1CHOL    C230112   8.457   5.788   5.302 -0.0786  0.0019 -0.0706
    1CHOL   ROH30113  11.594  15.567   2.800 -0.2049  0.0583 -0.0500
    1CHOL    R130114  11.409  15.646   2.999 -0.0276  0.1480  0.0821
    1CHOL    R230115  11.339  15.481   3.210 -0.0868  0.1135  0.0372
    1CHOL    R330116  11.414  15.695   3.360  0.2054 -0.0329  0.1055
    1CHOL    R430117  11.356  15.485   3.555 -0.0432 -0.0275  0.0370
    1CHOL    R530118  11.273  15.686   3.552  0.2141  0.0825  0.1167
    1CHOL    C130119  11.437  15.687   3.896  0.2564 -0.2470  0.1008
    1CHOL    C230120  11.470  15.788   4.241  0.2168  0.1996 -0.2374
    1CHOL   ROH30121  15.749  18.942   6.564 -0.1730 -0.0342 -0.0866
    1CHOL    R130122  15.885  18.954   6.316 -0.0721 -0.0978 -0.0353
    1CHOL    R230123  15.945  18.728   6.169 -0.1562 -0.1252 -0.0308
    1CHOL    R330124  15.814  18.861   5.971 -0.0020 -0.0267 -0.0687
    1CHOL    R430125  16.020  18.706   5.832  0.0145 -0.0618  0.0021
    1CHOL    R530126  15.986  18.920   5.816  0.1013 -0.0468  0.0384
    1CHOL    C130127  15.941  18.818   5.451  0.2586  0.0678 -0.0142
    1CHOL    C230128  15.978  18.831   5.034  0.0910  0.2995 -0.3796
    1CHOL   ROH30129   4.626  28.608   3.661  0.1656  0.1757 -0.0140
    1CHOL    R130130   4.726  28.457   3.878 -0.0162  0.0621 -0.0087
    1CHOL    R230131   4.584  28.251   3.995 -0.1226  0.0209 -0.2221
    1CHOL    R330132   4.809  28.108   3.942 -0.0934  0.0226 -0.1093
    1CHOL    R430133   4.713  28.005   4.200 -0.0107  0.2992  0.0503
    1CHOL    R530134   4.913  28.081   4.156 -0.0357  0.3103 -0.0905
    1CHOL    C130135   4.999  27.727   4.270  0.0821  0.4628  0.3147
    1CHOL    C230136   4.852  27.552   4.695  0.1859 -0.1077  0.0566
    1CHOL   ROH30137  14.585  12.786   6.122  0.3448 -0.0668 -0.0630
    1CHOL    R130138  14.681  12.820   5.858  0.2417  0.1413 -0.0748
    1CHOL    R230139  14.602  12.658   5.648  0.4180  0.0907 -0.0989
    1CHOL    R330140  14.538  12.895   5.532  0.0664  0.0390 -0.0239
    1CHOL    R430141  14.588  12.715   5.307  0.3489  0.1752 -0.0830
    1CHOL    R530142  14.681  12.909   5.341  0.0614  0.3110 -0.0162
    1CHOL    C130143  14.520  12.970   5.000 -0.0214  0.1759 -0.0034
    1CHOL    C230144  14.431  12.862   4.686 -0.0152 -0.1272 -0.3327
    1CHOL   ROH30145  11.976  19.450   6.336 -0.1834 -0.0751  0.0120
    1CHOL    R130146  12.055  19.487   6.067 -0.3827  0.1095 -0.0238
    1CHOL    R230147  12.268  19.352   5.955 -0.1092  0.5968 -0.1150
    1CHOL    R330148  12.083  19.279   5.769 -0.0326  0.1651 -0.0333
    1CHOL    R430149  12.336  19.289   5.622 -0.0851  0.6014 -0.1112
    1CHOL    R530150  12.152  19.392   5.569 -0.3092  0.2279 -0.0972
    1CHOL    C130151  12.202  19.184   5.254  0.0008  0.1991 -0.0322
    1CHOL    C230152  12.121  19.076   4.975 -0.3475 -0.0590  0.2223
    1CHOL   ROH30153  14.815   9.962   6.382  0.0582 -0.3879 -0.0379
    1CHOL    R130154  14.832   9.924   6.102 -0.0926 -0.3199 -0.0579
    1CHOL    R230155  14.617   9.838   5.950 -0.2137 -0.1578  0.0142
    1CHOL    R330156  14.671  10.062   5.806 -0.1536 -0.1460  0.0556
    1CHOL    R430157  14.527   9.888   5.620 -0.1155 -0.1076 -0.0051
    1CHOL    R530158  14.721   9.982   5.587 -0.0996 -0.1216  0.0605
    1CHOL    C130159  14.526  10.127   5.293 -0.0018 -0.0673  0.0226
    1CHOL    C230160  14.398   9.818   5.151 -0.0021  0.2586 -0.3338
    1CHOL   ROH30161  21.818  11.366   2.915  0.2316 -0.0934 -0.0104
    1CHOL    R130162  21.786  11.222   3.157  0.2466 -0.0313  0.0303
    1CHOL    R230163  21.869  11.321   3.401  0.2389  0.0447  0.0080
    1CHOL    R330164  21.611  11.270   3.472  0.2434  0.0407  0.0163
    1CHOL    R430165  21.747  11.334   3.725  0.2192  0.1550 -0.0048
    1CHOL    R530166  21.629  11.156   3.682  0.2451  0.1266  0.0604
    1CHOL    C130167  21.434  11.294   3.979  0.2120  0.2156 -0.0044
    1CHOL    C230168  21.259  11.367   4.317 -0.0851  0.2948  0.0523
    1CHOL   ROH30169  11.924   8.982   3.432  0.2341  0.0777  0.1026
    1CHOL    R130170  11.985   9.142   3.658  0.2873  0.0254  0.1263
    1CHOL    R230171  11.793   9.222   3.839  0.2356  0.4001 -0.0801
    1CHOL    R330172  11.962   9.108   4.020 -0.1338  0.1401  0.1143
    1CHOL    R430173  11.888   9.366   4.139  0.3158  0.3715 -0.0923
    1CHOL    R530174  12.090   9.292   4.104  0.1935 -0.0781  0.1021
    1CHOL    C130175  12.102   9.343   4.482  0.0156  0.1106  0.0831
    1CHOL    C230176  12.322   9.428   4.872 -0.0524 -0.2174  0.0781
    1CHOL   ROH30177  24.942  15.468   3.339  0.4008 -0.0835  0.0691
    1CHOL    R130178  24.814  15.679   3.477  0.2043 -0.1124 -0.0635
    1CHOL    R230179  24.819  15.701   3.753  0.0249 -0.0360 -0.0636
    1CHOL    R330180  24.916  15.949   3.699 -0.0712  0.0001 -0.0711
    1CHOL    R430181  24.830  15.962   3.979  0.2200 -0.1182  0.0238
    1CHOL    R530182  24.771  16.097   3.818  0.0305 -0.0668  0.1371
    1CHOL    C130183  24.928  16.347   4.059  0.2438 -0.1322  0.0678
    1CHOL    C230184  24.953  16.573   4.374  0.0608 -0.0868 -0.0400
    1CHOL   ROH30185  13.944   9.821   3.069  0.1617  0.2908 -0.0119
    1CHOL    R130186  13.964   9.796   3.350 -0.0265  0.1113 -0.0111
    1CHOL    R230187  14.095   9.982   3.507  0.1003 -0.1187  0.1709
    1CHOL    R330188  13.858   9.989   3.641  0.0253  0.0746  0.0306
    1CHOL    R430189  14.058  10.071   3.839 -0.0066 -0.2512  0.1946
    1CHOL    R530190  13.912   9.911   3.861 -0.1981 -0.0992  0.0234
    1CHOL    C130191  13.814  10.130   4.157 -0.1393 -0.1468  0.0768
    1CHOL    C230192  13.846   9.923   4.443  0.1270 -0.1791 -0.3570
    1CHOL   ROH30193  15.199  15.542   2.622 -0.1416 -0.3221 -0.0208
    1CHOL    R130194  15.115  15.458   2.879 -0.1569 -0.1649  0.0288
    1CHOL    R230195  15.255  15.273   3.029 -0.2093 -0.1461  0.1193
    1CHOL    R330196  15.248  15.468   3.218 -0.1284 -0.0403  0.0117
    1CHOL    R430197  15.312  15.223   3.366  0.0197  0.0761  0.1142
    1CHOL    R530198  15.150  15.362   3.409  0.0238  0.0586  0.1382
    1CHOL    C130199  15.339  15.378   3.740  0.2290  0.3047  0.0102
    1CHOL    C230200  15.398  15.433   4.090  0.0067  0.1359  0.0746
    1CHOL   ROH30201  11.077  20.945   2.922  0.2485  0.1609  0.0918
    1CHOL    R130202  11.138  20.974   3.197  0.2765 -0.1035  0.1157
    1CHOL    R230203  10.959  21.084   3.378  0.4030 -0.0148  0.1808
    1CHOL    R330204  11.003  20.851   3.512  0.1195 -0.1630  0.0286
    1CHOL    R430205  10.866  21.025   3.705  0.5828  0.0061  0.2373
    1CHOL    R530206  11.056  20.921   3.735  0.4422 -0.3471  0.0215
    1CHOL    C130207  10.853  20.772   4.022  0.4214 -0.1208  0.1273
    1CHOL    C230208  10.651  20.821   4.236  0.0539  0.4288 -0.1860
    1CHOL   ROH30209  17.396  15.772   6.174 -0.1395 -0.1730  0.1239
    1CHOL    R130210  17.258  15.789   5.927 -0.1097 -0.0644  0.1145
    1CHOL    R230211  17.347  15.944   5.717 -0.0336 -0.0467  0.1616
    1CHOL    R330212  17.328  15.711   5.579 -0.1049 -0.0065  0.1019
    1CHOL    R430213  17.406  15.910   5.378  0.2773 -0.0347  0.2109
    1CHOL    R530214  17.235  15.774   5.367  0.1622  0.1175  0.0164
    1CHOL    C130215  17.422  15.670   5.051  0.3914  0.0101  0.1835
    1CHOL    C230216  17.553  15.843   4.858 -0.0517  0.0442 -0.1061
    1CHOL   ROH30217  20.248  16.961   2.801 -0.0392 -0.1312  0.0661
    1CHOL    R130218  20.426  16.984   3.020  0.0046 -0.4736  0.0726
    1CHOL    R230219  20.407  17.186   3.207  0.5815 -0.2289 -0.1072
    1CHOL    R330220  20.400  16.980   3.383 -0.0806 -0.0743  0.0746
    1CHOL    R430221  20.499  17.208   3.539  0.7643 -0.2504 -0.1560
    1CHOL    R530222  20.594  17.013   3.520  0.0945 -0.6177 -0.0205
    1CHOL    C130223  20.546  17.027   3.898  0.2492 -0.1177 -0.0138
    1CHOL    C230224  20.418  17.112   4.236 -0.2091 -0.1350 -0.2802
    1CHOL   ROH30225   3.202   6.571   6.201 -0.0317  0.1217 -0.1474
    1CHOL    R130226   3.066   6.513   5.960 -0.0193  0.3602 -0.2142
    1CHOL    R230227   3.150   6.609   5.715  0.3339  0.1358 -0.1896
    1CHOL    R330228   3.144   6.347   5.646 -0.1847  0.1231 -0.1321
    1CHOL    R430229   3.195   6.489   5.394  0.5015 -0.0376 -0.1032
    1CHOL    R530230   3.036   6.345   5.432  0.0997  0.3348 -0.2841
    1CHOL    C130231   3.215   6.173   5.142  0.1122 -0.1505  0.0010
    1CHOL    C230232   3.427   5.944   5.024  0.1131  0.1814  0.0409
    1CHOL   ROH30233   1.077  28.852   3.298 -0.1329 -0.4138  0.0082
    1CHOL    R130234   1.171  28.765   3.551  0.0567 -0.1473  0.0342
    1CHOL    R230235   1.402  28.865   3.666  0.0201  0.1498 -0.1314
    1CHOL    R330236   1.236  28.916   3.875  0.0584  0.1491 -0.1020
    1CHOL    R430237   1.507  28.931   3.988  0.0644 -0.0989 -0.0937
    1CHOL    R530238   1.342  28.808   4.062 -0.0169 -0.0239 -0.1610
    1CHOL    C130239   1.412  29.017   4.373  0.1260 -0.2447 -0.0440
    1CHOL    C230240   1.176  28.931   4.659 -0.2093 -0.4911  0.1433
    1CHOL   ROH30241  11.677  14.195   2.981 -0.1789  0.0261 -0.1163
    1CHOL    R130242  11.596  14.261   3.245 -0.0295  0.0792 -0.0834
    1CHOL    R230243  11.577  14.073   3.446 -0.1776  0.0710 -0.1054
    1CHOL    R330244  11.742  14.244   3.578  0.0513 -0.1268 -0.1276
    1CHOL    R430245  11.596  14.105   3.790 -0.1502  0.1044 -0.1097
    1CHOL    R530246  11.613  14.320   3.764  0.1431  0.0814 -0.1460
    1CHOL    C130247  11.762  14.284   4.113  0.0806 -0.0620 -0.1331
    1CHOL    C230248  11.453  14.239   4.280 -0.0706  0.2898 -0.1170
    1CHOL   ROH30249  19.165  15.416   5.967 -0.1461  0.0255  0.1290
    1CHOL    R130250  19.090  15.352   5.701 -0.1327  0.1054  0.1062
    1CHOL    R230251  19.095  15.538   5.496  0.0466  0.1236  0.1261
    1CHOL    R330252  19.251  15.351   5.374 -0.0591  0.0232  0.1419
    1CHOL    R430253  19.156  15.523   5.157  0.1413  0.1358  0.1419
    1CHOL    R530254  19.139  15.306   5.168 -0.0307  0.1460  0.0985
    1CHOL    C130255  19.338  15.339   4.844  0.0973  0.0488  0.1659
    1CHOL    C230256  19.179  15.407   4.477  0.0915  0.0241  0.0243
    1CHOL   ROH30257  20.436   3.897   5.896  0.1311 -0.2009 -0.0357
    1CHOL    R130258  20.480   3.896   5.617  0.1088 -0.1129 -0.0395
    1CHOL    R230259  20.274   3.873   5.434  0.0966 -0.0674 -0.0288
    1CHOL    R330260  20.381   4.101   5.333  0.0763 -0.0311  0.0300
    1CHOL    R430261  20.210   3.998   5.118  0.2119 -0.0817 -0.0584
    1CHOL    R530262  20.421   4.051   5.102  0.2058 -0.0155  0.0470
    1CHOL    C130263  20.274   4.285   4.839  0.2599 -0.0560 -0.0204
    1CHOL    C230264  20.233   4.570   4.553 -0.1107  0.1656  0.0396
    1CHOL   ROH30265  14.963  18.514   6.152 -0.1681  0.0567 -0.0261
    1CHOL    R130266  14.855  18.589   5.901 -0.2081 -0.1025 -0.0568
    1CHOL    R230267  15.004  18.715   5.706 -0.3129  0.0327 -0.0475
    1CHOL    R330268  14.917  18.509   5.552 -0.0586 -0.0892 -0.0343
    1CHOL    R430269  15.022  18.705   5.361 -0.2876  0.0281 -0.0467
    1CHOL    R530270  14.824  18.615   5.358 -0.1822 -0.2146 -0.0468
    1CHOL    C130271  14.951  18.506   5.015 -0.0343 -0.0888 -0.0338
    1CHOL    C230272  14.895  18.408   4.636  0.1339  0.0704  0.2918
    1CHOL   ROH30273  26.069  18.833   5.911  0.2904 -0.1228 -0.1108
    1CHOL    R130274  26.036  18.820   5.630  0.0202 -0.1257 -0.0815
    1CHOL    R230275  25.941  18.595   5.501 -0.1118 -0.1229  0.0135
    1CHOL    R330276  25.761  18.771   5.398 -0.2064 -0.1187  0.1806
    1CHOL    R430277  25.824  18.591   5.176 -0.2437  0.0176  0.0571
    1CHOL    R530278  25.836  18.809   5.174 -0.3081  0.0235  0.1685
    1CHOL    C130279  25.588  18.754   4.890 -0.4091  0.1034  0.2393
    1CHOL    C230280  25.514  18.651   4.541  0.0095 -0.0365 -0.5601
    1CHOL   ROH30281  10.743  19.372   6.195  0.2518  0.1358  0.0299
    1CHOL    R130282  10.636  19.287   5.947  0.1680  0.2314  0.0315
    1CHOL    R230283  10.733  19.376   5.704  0.3252  0.0581  0.0213
    1CHOL    R330284  10.758  19.111   5.652 -0.0238  0.0090  0.0840
    1CHOL    R430285  10.782  19.240   5.390  0.3772 -0.0734  0.0865
    1CHOL    R530286  10.644  19.080   5.444  0.0991  0.1390  0.0020
    1CHOL    C130287  10.835  18.912   5.159  0.0799 -0.1962  0.1832
    1CHOL    C230288  10.821  19.022   4.832  0.0908  0.2618  0.0390
    1CHOL   ROH30289  20.708  14.079   5.927 -0.0647  0.2914  0.0465
    1CHOL    R130290  20.686  14.174   5.661 -0.1371  0.1558  0.0041
    1CHOL    R230291  20.862  14.101   5.461 -0.0290  0.2697  0.0629
    1CHOL    R330292  20.634  14.029   5.332  0.0684 -0.0395  0.0539
    1CHOL    R430293  20.849  13.978   5.138  0.1522  0.3561  0.0208
    1CHOL    R530294  20.670  14.098   5.105 -0.0440  0.0980  0.0722
    1CHOL    C130295  20.627  13.839   4.829  0.3491  0.1159 -0.0122
    1CHOL    C230296  20.493  13.665   4.584 -0.0407 -0.0858  0.1535
    1CHOL   ROH30297   9.909   9.923   3.322 -0.0180  0.0016 -0.1127
    1CHOL    R130298   9.843   9.938   3.597 -0.1441 -0.0822 -0.1378
    1CHOL    R230299   9.927   9.750   3.781 -0.2601 -0.1577 -0.1626
    1CHOL    R330300  10.024   9.968   3.911 -0.2863 -0.2179 -0.0407
    1CHOL    R430301  10.039   9.751   4.108 -0.1637 -0.3539 -0.1931
    1CHOL    R530302   9.942   9.944   4.135 -0.2144 -0.3985 -0.0304
    1CHOL    C130303  10.194   9.956   4.421 -0.1322 -0.5246 -0.0965
    1CHOL    C230304   9.989  10.098   4.658 -0.5597 -0.0153 -0.1033
    1CHOL   ROH30305  10.904   7.681   6.592 -0.1621 -0.0868 -0.0661
    1CHOL    R130306  10.940   7.647   6.314  0.0229 -0.0123 -0.0527
    1CHOL    R230307  10.729   7.651   6.135  0.1206 -0.1392 -0.1718
    1CHOL    R330308  10.878   7.843   6.013  0.0482 -0.0057 -0.0537
    1CHOL    R430309  10.674   7.769   5.815  0.2372 -0.1537 -0.1978
    1CHOL    R530310  10.890   7.772   5.784  0.2582  0.0244 -0.0540
    1CHOL    C130311  10.782   8.018   5.514  0.2370 -0.0369 -0.1020
    1CHOL    C230312  10.389   8.073   5.428 -0.2436  0.1043  0.1349
    1CHOL   ROH30313  20.303   1.677   6.084  0.0931  0.1958  0.0749
    1CHOL    R130314  20.374   1.684   5.810  0.1645  0.2313  0.0941
    1CHOL    R230315  20.186   1.672   5.608  0.2361 -0.0486  0.0411
    1CHOL    R330316  20.306   1.901   5.525 -0.0306  0.0926  0.0329
    1CHOL    R430317  20.204   1.778   5.279  0.1214 -0.0396  0.0367
    1CHOL    R530318  20.409   1.842   5.317  0.0461  0.2045  0.0391
    1CHOL    C130319  20.328   2.055   5.011 -0.1956  0.0983  0.0265
    1CHOL    C230320  20.074   2.265   4.725  0.1025 -0.2976  0.0495
    1CHOL   ROH30321  28.703  14.594   3.099 -0.1261  0.0166  0.0449
    1CHOL    R130322  28.521  14.575   3.315 -0.0548 -0.0370  0.1012
    1CHOL    R230323  28.600  14.510   3.571  0.0679  0.1498  0.1135
    1CHOL    R330324  28.471  14.740   3.635 -0.1111  0.0730  0.0360
    1CHOL    R430325  28.515  14.605   3.892 -0.0653  0.1618  0.0750
    1CHOL    R530326  28.324  14.678   3.814 -0.1028  0.0081  0.0199
    1CHOL    C130327  28.344  14.876   4.140 -0.3109  0.0965 -0.0202
    1CHOL    C230328  28.498  15.192   4.326  0.2258 -0.1472  0.1676
    1CHOL   ROH30329  11.370   7.169   3.483  0.1088  0.2605  0.0319
    1CHOL    R130330  11.423   7.102   3.753  0.1309  0.3910  0.0608
    1CHOL    R230331  11.373   7.275   3.963 -0.3219  0.3135  0.0257
    1CHOL    R330332  11.230   7.065   4.059  0.0619  0.0179 -0.0216
    1CHOL    R430333  11.235   7.258   4.279 -0.2289 -0.0472  0.0523
    1CHOL    R530334  11.295   7.049   4.289  0.1427  0.0440 -0.0405
    1CHOL    C130335  11.020   7.052   4.554  0.1855 -0.5350  0.0233
    1CHOL    C230336  10.847   7.066   4.907 -0.2043 -0.0501 -0.1247
    1CHOL   ROH30337   7.120  17.614   2.802 -0.1786  0.2094  0.2171
    1CHOL    R130338   7.252  17.523   3.035 -0.0446  0.1476  0.1185
    1CHOL    R230339   7.514  17.589   3.093 -0.1079  0.3907  0.1399
    1CHOL    R330340   7.407  17.674   3.328 -0.1752  0.0623  0.2328
    1CHOL    R430341   7.680  17.591   3.397 -0.0466  0.3647  0.1063
    1CHOL    R530342   7.496  17.523   3.492  0.0584  0.0440  0.0936
    1CHOL    C130343   7.676  17.672   3.794 -0.0740  0.0412  0.1740
    1CHOL    C230344   7.991  17.776   4.002 -0.2013 -0.1522 -0.2052
    1CHOL   ROH30345  19.242  14.899   2.645 -0.3636 -0.0892 -0.0273
    1CHOL    R130346  19.352  14.992   2.888 -0.1003 -0.2018 -0.0998
    1CHOL    R230347  19.209  15.148   3.066  0.2229  0.0681 -0.0663
    1CHOL    R330348  19.281  14.954   3.243  0.0037 -0.0066 -0.0565
    1CHOL    R430349  19.241  15.194   3.408  0.3047  0.0579 -0.0725
    1CHOL    R530350  19.419  15.067   3.403  0.1544 -0.1585 -0.0764
    1CHOL    C130351  19.327  15.039   3.772  0.1465 -0.0180 -0.0668
    1CHOL    C230352  19.433  14.990   4.199  0.1748  0.1027 -0.0154
    1CHOL   ROH30353  14.635  20.637   2.770  0.0159 -0.0540 -0.0447
    1CHOL    R130354  14.709  20.613   3.042 -0.0077 -0.0825 -0.0410
    1CHOL    R230355  14.701  20.826   3.218 -0.0079 -0.0965 -0.0234
    1CHOL    R330356  14.547  20.658   3.365 -0.0314 -0.0996 -0.0510
    1CHOL    R430357  14.614  20.875   3.549 -0.0126 -0.1388 -0.0179
    1CHOL    R530358  14.644  20.662   3.583 -0.0386 -0.1451 -0.0483
    1CHOL    C130359  14.418  20.745   3.879 -0.0373 -0.1664 -0.0406
    1CHOL    C230360  14.557  20.901   4.115 -0.0004 -0.1875  0.1690
    1CHOL   ROH30361   0.968  13.705   2.812 -0.3349  0.1853 -0.1861
    1CHOL    R130362   1.080  13.887   2.997 -0.3627  0.2676 -0.2493
    1CHOL    R230363   0.929  14.075   3.131 -0.4574  0.0415 -0.0291
    1CHOL    R330364   1.043  13.962   3.351 -0.0821  0.1071 -0.1834
    1CHOL    R430365   0.913  14.206   3.451 -0.5276 -0.2265  0.0796
    1CHOL    R530366   1.122  14.149   3.479 -0.3843  0.1801 -0.0984
    1CHOL    C130367   1.011  14.176   3.843 -0.2161 -0.3209 -0.0019
    1CHOL    C230368   0.752  14.080   4.178 -0.1944 -0.0562 -0.1599
    1CHOL   ROH30369  19.040  24.705   5.262 -0.0366 -0.0598  0.0403
    1CHOL    R130370  18.917  24.452   5.283  0.0051 -0.0849 -0.0140
    1CHOL    R230371  18.656  24.420   5.367  0.0358 -0.1516  0.0592
    1CHOL    R330372  18.631  24.283   5.133 -0.0204 -0.0674  0.0156
    1CHOL    R430373  18.415  24.180   5.302 -0.0127 -0.0896  0.0085
    1CHOL    R530374  18.567  24.062   5.200 -0.0478 -0.0794 -0.0529
    1CHOL    C130375  18.252  23.913   5.045 -0.0935  0.0254 -0.0619
    1CHOL    C230376  17.894  23.671   4.981 -0.1078 -0.0395  0.0697
    1CHOL   ROH30377  19.826  28.149   3.610  0.2576 -0.0464  0.0657
    1CHOL    R130378  19.937  28.333   3.794  0.2066  0.0079  0.0426
    1CHOL    R230379  19.837  28.365   4.050  0.1338  0.0854  0.0057
    1CHOL    R330380  20.095  28.316   4.122  0.1133  0.1037  0.0928
    1CHOL    R430381  20.003  28.520   4.311  0.0394  0.0973  0.0592
    1CHOL    R530382  20.181  28.530   4.185  0.0795  0.1081  0.1198
    1CHOL    C130383  20.341  28.564   4.530 -0.0349  0.1213  0.1722
    1CHOL    C230384  20.533  28.802   4.540 -0.1692  0.1126  0.0639
    1CHOL   ROH30385   8.248   9.724   3.641  0.0723 -0.0852 -0.0291
    1CHOL    R130386   8.240   9.535   3.852  0.0576 -0.1096 -0.0514
    1CHOL    R230387   8.465   9.468   4.000  0.0195 -0.0283  0.0428
    1CHOL    R330388   8.306   9.537   4.210 -0.1044 -0.1176 -0.0205
    1CHOL    R430389   8.516   9.371   4.328 -0.0459  0.0114  0.0650
    1CHOL    R530390   8.301   9.342   4.348 -0.0385 -0.1184 -0.0174
    1CHOL    C130391   8.397   9.379   4.715 -0.2003 -0.0493  0.0185
    1CHOL    C230392   8.620   9.314   5.047 -0.1434  0.2306  0.1820
    1CHOL   ROH30393  18.976  22.938   6.417 -0.1643  0.1676 -0.1226
    1CHOL    R130394  18.952  22.844   6.152  0.2079 -0.2493 -0.0191
    1CHOL    R230395  18.930  23.014   5.935 -0.2832 -0.5707 -0.2306
    1CHOL    R330396  19.143  22.872   5.843  0.2193 -0.0180  0.0044
    1CHOL    R430397  19.048  23.021   5.610 -0.2430 -0.5925 -0.2180
    1CHOL    R530398  19.080  22.806   5.621  0.4560 -0.5092  0.0616
    1CHOL    C130399  19.316  22.892   5.335  0.2522 -0.0866  0.0101
    1CHOL    C230400  19.360  22.599   5.012 -0.0933 -0.0219 -0.0350
    1CHOL   ROH30401  10.281   2.894   4.479  0.3630  0.0197  0.1425
    1CHOL    R130402  10.184   2.837   4.739  0.2706  0.1431  0.1373
    1CHOL    R230403   9.992   2.644   4.787  0.1236  0.2804  0.1441
    1CHOL    R330404  10.178   2.549   4.961  0.0295  0.1936  0.1962
    1CHOL    R430405   9.920   2.488   5.087 -0.0244  0.3701  0.1552
    1CHOL    R530406  10.086   2.596   5.177  0.0200  0.2799  0.1692
    1CHOL    C130407  10.053   2.308   5.425 -0.1989  0.3408  0.2106
    1CHOL    C230408   9.728   2.166   5.490 -0.3010 -0.3414 -0.2440
    1CHOL   ROH30409  17.118  21.188   3.030 -0.1276  0.0862  0.0757
    1CHOL    R130410  16.999  21.163   3.286 -0.0665 -0.0402  0.0918
    1CHOL    R230411  17.022  20.934   3.439  0.1208 -0.0470  0.0469
    1CHOL    R330412  17.114  21.109   3.627  0.0282 -0.0164  0.0657
    1CHOL    R430413  16.951  20.917   3.777  0.0306 -0.0636  0.0277
    1CHOL    R530414  16.931  21.134   3.779 -0.0260 -0.0620  0.0160
    1CHOL    C130415  16.995  21.071   4.150 -0.1086 -0.0445  0.0343
    1CHOL    C230416  17.009  21.214   4.520 -0.0809  0.0532 -0.1364
    1CHOL   ROH30417  10.985   9.490   6.553  0.0516 -0.1375  0.0591
    1CHOL    R130418  10.915   9.377   6.303  0.0176 -0.1109  0.0568
    1CHOL    R230419  10.698   9.465   6.155  0.1402  0.0678 -0.0170
    1CHOL    R330420  10.885   9.493   5.960  0.2226 -0.1342  0.0297
    1CHOL    R430421  10.645   9.401   5.820  0.1315  0.1934 -0.0405
    1CHOL    R530422  10.843   9.311   5.810  0.0233 -0.0581 -0.0109
    1CHOL    C130423  10.789   9.390   5.441  0.2038  0.0768 -0.0104
    1CHOL    C230424  10.791   9.586   5.219  0.1070  0.0134 -0.1550
    1CHOL   ROH30425  14.793  14.895   6.394 -0.0106 -0.2402  0.0517
    1CHOL    R130426  14.677  14.853   6.139 -0.0148 -0.1183  0.0325
    1CHOL    R230427  14.579  15.060   5.984  0.0832 -0.0297  0.0836
    1CHOL    R330428  14.747  14.957   5.797  0.0509 -0.0510  0.0667
    1CHOL    R430429  14.540  15.093   5.642 -0.0113 -0.1364  0.0837
    1CHOL    R530430  14.603  14.886   5.620  0.0197 -0.1283  0.1252
    1CHOL    C130431  14.675  15.015   5.268 -0.0966 -0.2185  0.0679
    1CHOL    C230432  14.607  15.087   4.834 -0.2889  0.0480  0.0224
    1CHOL   ROH30433  19.175  19.594   6.356  0.0054  0.1410  0.1254
    1CHOL    R130434  19.224  19.610   6.078 -0.0567  0.0398  0.1078
    1CHOL    R230435  19.212  19.848   5.939 -0.0164  0.0022  0.0364
    1CHOL    R330436  19.463  19.778   5.861 -0.0567 -0.1010 -0.0011
    1CHOL    R430437  19.370  19.966   5.655  0.0081 -0.0369  0.0340
    1CHOL    R530438  19.449  19.765   5.622 -0.0868 -0.0662  0.0006
    1CHOL    C130439  19.697  19.968   5.416 -0.0153 -0.1563 -0.0027
    1CHOL    C230440  19.662  20.125   5.114  0.5038 -0.0170 -0.1312
    1CHOL   ROH30441  27.818  24.741   6.107  0.1587  0.1994  0.0070
    1CHOL    R130442  27.967  24.702   5.870  0.0822  0.1167 -0.0273
    1CHOL    R230443  27.897  24.515   5.679 -0.0345  0.1214  0.0167
    1CHOL    R330444  27.907  24.730   5.512  0.0014  0.0945 -0.0171
    1CHOL    R430445  27.901  24.497   5.334  0.1151  0.0508  0.0212
    1CHOL    R530446  28.048  24.658   5.332  0.0933  0.0784  0.0553
    1CHOL    C130447  27.914  24.688   4.976  0.2358 -0.0157 -0.0079
    1CHOL    C230448  27.649  24.464   4.738 -0.0822  0.0471  0.0172
    1CHOL   ROH30449  21.911   6.604   3.612 -0.0211 -0.2451 -0.1714
    1CHOL    R130450  21.947   6.464   3.855  0.0093 -0.2678 -0.1867
    1CHOL    R230451  22.130   6.543   4.046  0.1114 -0.3411 -0.2385
    1CHOL    R330452  21.913   6.537   4.210  0.1577 -0.2592 -0.1769
    1CHOL    R430453  22.141   6.465   4.383  0.2333  0.1796 -0.1156
    1CHOL    R530454  21.956   6.352   4.357  0.3226  0.0009  0.1008
    1CHOL    C130455  21.945   6.415   4.733  0.3476  0.5597  0.0138
    1CHOL    C230456  22.127   6.279   5.028  0.1550 -0.3119 -0.3542
    1CHOL   ROH30457  16.292  22.258   6.404 -0.2043  0.0452 -0.0754
    1CHOL    R130458  16.227  22.215   6.132 -0.1203 -0.0031 -0.0878
    1CHOL    R230459  16.216  22.420   5.947 -0.0826 -0.0341 -0.1221
    1CHOL    R330460  16.390  22.263   5.810 -0.0299 -0.0410 -0.0485
    1CHOL    R430461  16.207  22.365   5.606  0.2501  0.2279 -0.1780
    1CHOL    R530462  16.256  22.156   5.643  0.0796  0.1657 -0.2764
    1CHOL    C130463  16.366  22.186   5.279  0.4935  0.3741 -0.1414
    1CHOL    C230464  16.315  22.047   4.929 -0.0251 -0.0517 -0.0115
    1CHOL   ROH30465  10.844  10.049   3.171  0.1376  0.0526 -0.2158
    1CHOL    R130466  10.824  10.032   3.453  0.0886 -0.2635 -0.2335
    1CHOL    R230467  10.996   9.878   3.605  0.3556 -0.0875 -0.3359
    1CHOL    R330468  11.036  10.111   3.738 -0.1390 -0.1258 -0.1031
    1CHOL    R430469  11.073   9.903   3.941  0.3092 -0.2484 -0.3137
    1CHOL    R530470  10.938  10.074   3.954 -0.0565 -0.5435 -0.1356
    1CHOL    C130471  11.154  10.137   4.262 -0.1819 -0.3781 -0.0822
    1CHOL    C230472  11.129   9.982   4.531  0.3353  0.5924  0.0646
    1CHOL   ROH30473  26.779  17.937   3.225  0.0106  0.0776 -0.2210
    1CHOL    R130474  26.597  17.762   3.353  0.0558  0.1458 -0.0631
    1CHOL    R230475  26.624  17.686   3.618  0.1021  0.3542 -0.0104
    1CHOL    R330476  26.370  17.779   3.637  0.0877  0.3241 -0.0454
    1CHOL    R430477  26.401  17.601   3.867  0.0718  0.2934 -0.0574
    1CHOL    R530478  26.244  17.592   3.717  0.0967  0.2943 -0.0904
    1CHOL    C130479  26.032  17.639   4.031  0.0406  0.2298 -0.1177
    1CHOL    C230480  26.091  17.598   4.408  0.1471  0.1119 -0.0315
    1CHOL   ROH30481  22.928  12.578   2.882  0.1009  0.0687  0.1279
    1CHOL    R130482  22.793  12.494   3.115 -0.1112  0.2284  0.0667
    1CHOL    R230483  22.913  12.335   3.307 -0.4461 -0.0839  0.0298
    1CHOL    R330484  22.834  12.534   3.475 -0.1008  0.0051  0.0921
    1CHOL    R430485  22.954  12.332   3.650 -0.3014 -0.1855  0.0121
    1CHOL    R530486  22.756  12.420   3.670 -0.1750  0.0866  0.1099
    1CHOL    C130487  22.905  12.517   4.007  0.1067 -0.1610  0.0603
    1CHOL    C230488  23.048  12.502   4.233 -0.1913 -0.3805 -0.0019
    1CHOL   ROH30489  12.785  20.439   5.954  0.0956  0.1478 -0.0150
    1CHOL    R130490  12.669  20.333   5.719  0.0442 -0.0408  0.0936
    1CHOL    R230491  12.674  20.466   5.477 -0.2431 -0.1105  0.0450
    1CHOL    R330492  12.785  20.234   5.388 -0.0738 -0.0332  0.0495
    1CHOL    R430493  12.680  20.364   5.147 -0.2910 -0.1758  0.0641
    1CHOL    R530494  12.637  20.161   5.214 -0.0834 -0.2011  0.1263
    1CHOL    C130495  12.788  20.087   4.872 -0.1600 -0.1408  0.0793
    1CHOL    C230496  12.744  20.257   4.597 -0.1234  0.1373 -0.1471
    1CHOL   ROH30497  16.338   6.675   3.219 -0.0984 -0.1905  0.2959
    1CHOL    R130498  16.468   6.652   3.469  0.2782  0.0335  0.1307
    1CHOL    R230499  16.675   6.819   3.546 -0.0571  0.5627 -0.0559
    1CHOL    R330500  16.516   6.864   3.762  0.0712  0.0388  0.1624
    1CHOL    R430501  16.773   6.983   3.833 -0.1377  0.6904 -0.1007
    1CHOL    R530502  16.661   6.837   3.950  0.3806  0.3277 -0.0250
    1CHOL    C130503  16.681   7.121   4.204 -0.0639  0.2730  0.0781
    1CHOL    C230504  16.842   7.438   4.279  0.0719 -0.0192 -0.0455
    1CHOL   ROH30505  14.957  16.548   2.673  0.0763  0.2282  0.0865
    1CHOL    R130506  15.059  16.419   2.903 -0.0577  0.0078  0.0265
    1CHOL    R230507  15.257  16.530   3.061  0.1589 -0.3308  0.0111
    1CHOL    R330508  15.076  16.489   3.260  0.1395 -0.1103  0.0402
    1CHOL    R430509  15.338  16.451   3.387  0.1116 -0.2977  0.0300
    1CHOL    R530510  15.170  16.311   3.390 -0.0084 -0.1497  0.0896
    1CHOL    C130511  15.215  16.366   3.764  0.0657 -0.0717  0.0685
    1CHOL    C230512  15.082  16.292   4.059 -0.0316  0.2437 -0.0119
    1CHOL   ROH30513  26.938  25.588   3.436 -0.1029  0.1449  0.0146
    1CHOL    R130514  26.956  25.630   3.715 -0.0549 -0.2968  0.0833
    1CHOL    R230515  26.820  25.834   3.844  0.3825 -0.1715  0.3408
    1CHOL    R330516  26.726  25.630   3.997 -0.1100 -0.1862  0.0442
    1CHOL    R430517  26.607  25.870   4.114  0.7004  0.0283  0.5743
    1CHOL    R530518  26.722  25.719   4.219  0.3538 -0.5383  0.2226
    1CHOL    C130519  26.394  25.700   4.414  0.4233  0.1310  0.4316
    1CHOL    C230520  26.354  25.576   4.676 -0.3409  0.1137  0.2673
    1CHOL   ROH30521  16.720  14.082   5.959 -0.4613 -0.0267  0.0248
    1CHOL    R130522  16.799  13.972   5.710 -0.2523 -0.0759  0.1112
    1CHOL    R230523  16.655  13.773   5.583 -0.1551 -0.0861  0.0226
    1CHOL    R330524  16.658  13.949   5.375  0.0368 -0.1255 -0.0107
    1CHOL    R430525  16.619  13.687   5.250  0.0058 -0.1393  0.0174
    1CHOL    R530526  16.773  13.833   5.200  0.0959 -0.2083  0.0787
    1CHOL    C130527  16.600  13.802   4.861  0.2798 -0.2074 -0.0169
    1CHOL    C230528  16.511  13.522   4.548 -0.1523 -0.0160  0.1301
    1CHOL   ROH30529  26.129  29.089   3.673  0.0349  0.1129  0.1299
    1CHOL    R130530  26.016  29.049   3.929 -0.3148  0.0637 -0.0268
    1CHOL    R230531  26.128  29.153   4.159 -0.2726 -0.4861  0.2174
    1CHOL    R330532  25.880  29.259   4.194 -0.0651  0.0777  0.0922
    1CHOL    R430533  26.018  29.310   4.447 -0.1345 -0.4161  0.2333
    1CHOL    R530534  25.826  29.211   4.422 -0.3577  0.0472  0.0181
    1CHOL    C130535  25.722  29.501   4.647  0.1406  0.1538  0.1250
    1CHOL    C230536  25.843  29.905   4.820  0.3658  0.3739 -0.2643
    1CHOL   ROH30537  12.692  13.454   2.818  0.3085 -0.2193 -0.1493
    1CHOL    R130538  12.842  13.463   3.058  0.1689 -0.0121 -0.0665
    1CHOL    R230539  12.832  13.677   3.232 -0.0997  0.0454 -0.1483
    1CHOL    R330540  12.769  13.485   3.414 -0.0483  0.0616 -0.1135
    1CHOL    R430541  12.834  13.721   3.575  0.2205  0.0140 -0.1436
    1CHOL    R530542  12.921  13.522   3.595  0.1310 -0.0373 -0.2394
    1CHOL    C130543  12.777  13.566   3.945  0.4552  0.0107 -0.1081
    1CHOL    C230544  12.861  13.477   4.285 -0.2308  0.0506  0.0808
    1CHOL   ROH30545  12.687   1.118   3.956  0.3211  0.1021 -0.0976
    1CHOL    R130546  12.738   0.887   4.111  0.1028  0.0138 -0.1545
    1CHOL    R230547  12.991   0.818   4.196  0.0061 -0.1224  0.0226
    1CHOL    R330548  12.873   0.814   4.441 -0.1938 -0.1855 -0.0720
    1CHOL    R430549  13.065   0.593   4.448  0.1597  0.1114  0.1917
    1CHOL    R530550  12.852   0.581   4.494  0.1307 -0.2008  0.0194
    1CHOL    C130551  12.998   0.458   4.824  0.0614  0.1883  0.2014
    1CHOL    C230552  12.591   0.243   4.845 -0.0499 -0.2454  0.0710
    1CHOL   ROH30553  23.682   5.292   6.302 -0.2459  0.0047 -0.0633
    1CHOL    R130554  23.568   5.115   6.114  0.0446 -0.1624 -0.0895
    1CHOL    R230555  23.392   5.199   5.918 -0.1470 -0.4291 -0.0441
    1CHOL    R330556  23.569   5.076   5.752  0.0608 -0.0661 -0.0982
    1CHOL    R430557  23.329   5.114   5.589  0.0502 -0.2879 -0.1190
    1CHOL    R530558  23.435   4.927   5.621  0.3025 -0.1619 -0.2338
    1CHOL    C130559  23.459   4.951   5.241  0.3600  0.1351 -0.2134
    1CHOL    C230560  23.297   5.018   4.946 -0.1464 -0.1329  0.2680
    1CHOL   ROH30561   2.088   9.826   3.749  0.0255  0.1223 -0.0831
    1CHOL    R130562   2.060   9.934   4.009  0.1693  0.0107 -0.0191
    1CHOL    R230563   2.040   9.776   4.236  0.1251 -0.0919 -0.0935
    1CHOL    R330564   2.249   9.928   4.320  0.2515 -0.2742 -0.0717
    1CHOL    R430565   2.122   9.833   4.566 -0.0936  0.1393 -0.0754
    1CHOL    R530566   2.166  10.040   4.515  0.2199  0.0360 -0.2549
    1CHOL    C130567   2.366  10.008   4.839 -0.1023  0.1028 -0.0444
    1CHOL    C230568   2.618  10.105   5.073 -0.1144 -0.1851 -0.3388
    1CHOL   ROH30569  26.034  27.275   5.990  0.2910  0.1673  0.2023
    1CHOL    R130570  26.115  27.463   5.794  0.2448 -0.0616 -0.0417
    1CHOL    R230571  26.053  27.434   5.527 -0.2695 -0.1164  0.0738
    1CHOL    R330572  25.951  27.685   5.557  0.1672  0.0637  0.1270
    1CHOL    R430573  25.969  27.647   5.267 -0.3658 -0.1156  0.1055
    1CHOL    R530574  26.053  27.812   5.382  0.0854 -0.1811 -0.1060
    1CHOL    C130575  25.825  28.006   5.145 -0.0120  0.0540  0.1738
    1CHOL    C230576  26.090  28.230   4.923 -0.1253 -0.0149  0.1343
    1CHOL   ROH30577  18.851  14.139   6.005 -0.1836  0.0972  0.0126
    1CHOL    R130578  18.762  14.256   5.763 -0.1668 -0.0736 -0.0787
    1CHOL    R230579  18.933  14.386   5.589 -0.1955  0.0397 -0.0279
    1CHOL    R330580  18.829  14.212   5.408  0.0787 -0.1319 -0.0267
    1CHOL    R430581  18.924  14.438   5.247 -0.4107  0.0922 -0.0150
    1CHOL    R530582  18.724  14.353   5.244 -0.2509 -0.2988  0.0355
    1CHOL    C130583  18.821  14.306   4.878 -0.2786 -0.0382 -0.0063
    1CHOL    C230584  18.873  14.434   4.533  0.0103 -0.4275 -0.1718
    1CHOL   ROH30585   5.589  15.472   5.383 -0.1148 -0.1087  0.0004
    1CHOL    R130586   5.683  15.452   5.117 -0.1110  0.0021 -0.0078
    1CHOL    R230587   5.641  15.651   4.929 -0.0126  0.1329  0.1003
    1CHOL    R330588   5.911  15.637   4.903 -0.0173  0.0247  0.1127
    1CHOL    R430589   5.812  15.684   4.631  0.0365  0.3124  0.1478
    1CHOL    R530590   5.945  15.524   4.695 -0.0502  0.1934  0.0174
    1CHOL    C130591   6.166  15.690   4.432  0.0606  0.3152  0.1870
    1CHOL    C230592   6.056  15.767   3.996  0.0512  0.1135  0.2035
    1CHOL   ROH30593  27.945   0.513   3.262 -0.1488  0.0579 -0.1763
    1CHOL    R130594  27.975   0.586   3.534  0.0121  0.0263 -0.1797
    1CHOL    R230595  27.992   0.849   3.616  0.0368  0.0385 -0.1448
    1CHOL    R330596  27.786   0.777   3.778  0.1362 -0.0231 -0.0537
    1CHOL    R430597  27.883   1.030   3.890 -0.0825  0.1055 -0.2407
    1CHOL    R530598  27.857   0.843   3.997  0.1013  0.1751 -0.1188
    1CHOL    C130599  27.626   1.068   4.201 -0.0589  0.0866 -0.2111
    1CHOL    C230600  27.754   1.124   4.529 -0.3546  0.2398  0.1917
    1CHOL   ROH30601  20.600  15.417   6.029 -0.0857 -0.0697  0.0069
    1CHOL    R130602  20.547  15.521   5.772 -0.1521 -0.0771  0.0181
    1CHOL    R230603  20.747  15.569   5.586 -0.1728  0.1536  0.0574
    1CHOL    R330604  20.592  15.412   5.428  0.0066  0.0280  0.0035
    1CHOL    R430605  20.769  15.553   5.242 -0.1006  0.2456  0.0569
    1CHOL    R530606  20.552  15.545   5.233 -0.0958  0.0300  0.0230
    1CHOL    C130607  20.637  15.396   4.892  0.1100  0.1812  0.0061
    1CHOL    C230608  20.807  15.607   4.635  0.1870  0.0677 -0.2035
    1CHOL   ROH30609  10.547  11.379   3.533  0.2819 -0.1903 -0.0277
    1CHOL    R130610  10.441  11.350   3.794  0.2742 -0.2219 -0.0346
    1CHOL    R230611  10.591  11.395   4.022  0.2018 -0.0189 -0.0282
    1CHOL    R330612  10.388  11.565   4.083  0.0308 -0.1944 -0.0965
    1CHOL    R430613  10.488  11.472   4.343  0.1456  0.0176 -0.0549
    1CHOL    R530614  10.281  11.465   4.273  0.1433 -0.2229 -0.0440
    1CHOL    C130615  10.237  11.677   4.587 -0.0476 -0.1259 -0.1344
    1CHOL    C230616   9.887  11.932   4.736  0.2693 -0.0853  0.0931
    1CHOL   ROH30617  19.391   8.372   5.984  0.0184 -0.0807  0.0717
    1CHOL    R130618  19.249   8.430   5.746 -0.0128 -0.1063  0.0837
    1CHOL    R230619  19.348   8.600   5.552 -0.0716 -0.0683  0.0862
    1CHOL    R330620  19.304   8.387   5.389 -0.0235 -0.0718  0.0779
    1CHOL    R430621  19.347   8.612   5.206 -0.1302 -0.0426  0.0873
    1CHOL    R530622  19.177   8.477   5.207 -0.0833 -0.1020  0.1046
    1CHOL    C130623  19.305   8.419   4.852 -0.1191 -0.0309  0.0803
    1CHOL    C230624  19.099   8.352   4.479 -0.0357  0.0036  0.2272
    1CHOL   ROH30625  13.064  15.978   2.905  0.0901 -0.0441  0.0146
    1CHOL    R130626  12.939  15.861   3.131  0.0328  0.0024  0.0103
    1CHOL    R230627  13.063  15.670   3.287 -0.0729 -0.1116 -0.0207
    1CHOL    R330628  13.004  15.843   3.488  0.0616 -0.0890 -0.0033
    1CHOL    R430629  12.996  15.578   3.613 -0.3123 -0.0860 -0.0633
    1CHOL    R530630  12.839  15.729   3.618 -0.1217  0.0966 -0.0882
    1CHOL    C130631  12.901  15.687   3.992 -0.3254 -0.0500 -0.0719
    1CHOL    C230632  12.991  15.805   4.441 -0.0459  0.0372 -0.0389
    1CHOL   ROH30633   6.574  26.019   5.343  0.2030  0.1194 -0.0320
    1CHOL    R130634   6.764  26.174   5.201  0.1386  0.2214 -0.0061
    1CHOL    R230635   6.844  26.112   4.944  0.2449  0.2344  0.0272
    1CHOL    R330636   6.769  26.368   4.893  0.0934  0.1795 -0.0349
    1CHOL    R430637   6.850  26.262   4.632  0.0493  0.1223 -0.0329
    1CHOL    R530638   6.923  26.444   4.727 -0.0053  0.1973 -0.1240
    1CHOL    C130639   6.783  26.589   4.403 -0.2069  0.0050 -0.1259
    1CHOL    C230640   7.111  26.571   4.253  0.0254 -0.2619  0.2236
    1CHOL   ROH30641  11.182  13.421   6.405 -0.1159  0.0031 -0.0559
    1CHOL    R130642  11.273  13.414   6.137  0.1383 -0.1173  0.0291
    1CHOL    R230643  11.403  13.196   6.029 -0.1203 -0.3340  0.1332
    1CHOL    R330644  11.208  13.213   5.841  0.0821  0.0226 -0.0528
    1CHOL    R430645  11.412  13.039   5.721 -0.0428 -0.1946  0.0642
    1CHOL    R530646  11.327  13.220   5.633  0.2890 -0.0370  0.0650
    1CHOL    C130647  11.234  12.965   5.365  0.1925  0.2214 -0.1507
    1CHOL    C230648  11.258  12.776   5.035  0.1878  0.0250  0.0436
    1CHOL   ROH30649  16.738  22.693   2.867 -0.0767  0.0257  0.0016
    1CHOL    R130650  16.624  22.564   3.092 -0.0116  0.0858  0.0690
    1CHOL    R230651  16.776  22.477   3.306  0.0369  0.2355  0.0927
    1CHOL    R330652  16.601  22.627   3.449 -0.0040  0.2357  0.0446
    1CHOL    R430653  16.675  22.409   3.629 -0.0533  0.2282  0.0641
    1CHOL    R530654  16.473  22.468   3.574 -0.0402  0.2310  0.0061
    1CHOL    C130655  16.453  22.511   3.952 -0.1438  0.2241  0.0023
    1CHOL    C230656  16.248  22.502   4.259 -0.1974  0.0599  0.1589
    1CHOL   ROH30657  15.299  14.102   2.819  0.2348  0.2203  0.0262
    1CHOL    R130658  15.257  14.223   3.071  0.0842 -0.0091  0.1145
    1CHOL    R230659  15.118  14.098   3.275  0.1593 -0.2908 -0.0029
    1CHOL    R330660  15.344  14.150   3.417  0.0908 -0.1978  0.0742
    1CHOL    R430661  15.147  14.072   3.618 -0.0601  0.1060  0.0522
    1CHOL    R530662  15.267  14.254   3.618  0.0000  0.0687 -0.0925
    1CHOL    C130663  15.376  14.105   3.951 -0.2522  0.4242  0.1566
    1CHOL    C230664  15.155  13.974   4.224 -0.0042  0.0574  0.1424
    1CHOL   ROH30665  15.267  14.249   6.173 -0.0998  0.0330 -0.0755
    1CHOL    R130666  15.342  14.224   5.901 -0.0180  0.0883 -0.0590
    1CHOL    R230667  15.206  14.060   5.724  0.1183  0.0178 -0.1013
    1CHOL    R330668  15.188  14.289   5.578  0.0232  0.0153 -0.0933
    1CHOL    R430669  15.153  14.073   5.383  0.1606  0.0062 -0.1081
    1CHOL    R530670  15.297  14.236   5.371  0.0794  0.0800 -0.0800
    1CHOL    C130671  15.105  14.295   5.047  0.0959 -0.0027 -0.1044
    1CHOL    C230672  14.983  14.099   4.715 -0.3146  0.0604 -0.2526
    1CHOL   ROH30673  13.099  21.469   2.911 -0.1607  0.0325  0.0095
    1CHOL    R130674  13.224  21.633   3.105 -0.0956  0.0882 -0.0791
    1CHOL    R230675  13.104  21.859   3.208 -0.1375  0.0160  0.0280
    1CHOL    R330676  13.155  21.738   3.446  0.1168  0.0303 -0.0157
    1CHOL    R430677  13.064  22.008   3.517 -0.3633 -0.1417  0.0774
    1CHOL    R530678  13.248  21.912   3.582 -0.1725  0.1668  0.0202
    1CHOL    C130679  13.088  21.982   3.921 -0.2563 -0.2203  0.0651
    1CHOL    C230680  12.975  22.212   4.112  0.0143  0.1870  0.0501
    1CHOL   ROH30681  14.812  10.841   2.945  0.1058  0.0389  0.0904
    1CHOL    R130682  14.671  10.966   3.157  0.0706  0.0979  0.0349
    1CHOL    R230683  14.536  10.822   3.350 -0.0647  0.1497 -0.0075
    1CHOL    R330684  14.689  10.970   3.520 -0.0649  0.0923  0.0396
    1CHOL    R430685  14.447  10.907   3.674 -0.0634  0.0775  0.0103
    1CHOL    R530686  14.531  11.105   3.640 -0.0500  0.0720  0.0691
    1CHOL    C130687  14.538  11.094   4.021 -0.0628 -0.0185  0.0648
    1CHOL    C230688  14.387  10.982   4.252 -0.4252  0.0870  0.0786
    1CHOL   ROH30689  20.626  10.575   5.406 -0.0500  0.4276 -0.0711
    1CHOL    R130690  20.653  10.660   5.137  0.2736  0.1612 -0.1296
    1CHOL    R230691  20.810  10.525   4.953 -0.0642 -0.4523  0.0008
    1CHOL    R330692  20.581  10.522   4.808 -0.0572  0.1252 -0.0454
    1CHOL    R430693  20.794  10.522   4.608 -0.0101 -0.3335 -0.0032
    1CHOL    R530694  20.627  10.661   4.619  0.3089  0.0661 -0.0047
    1CHOL    C130695  20.569  10.517   4.271  0.0282  0.2779 -0.0490
    1CHOL    C230696  20.912  10.448   4.079  0.2710 -0.2581 -0.1733
    1CHOL   ROH30697   2.303   1.769   6.042 -0.0540 -0.0877  0.0727
    1CHOL    R130698   2.567   1.771   5.942 -0.0746 -0.1305  0.0148
    1CHOL    R230699   2.647   1.614   5.730 -0.1334 -0.1791  0.0239
    1CHOL    R330700   2.731   1.851   5.627 -0.1377 -0.2044 -0.0360
    1CHOL    R430701   2.868   1.647   5.466 -0.1618 -0.2371 -0.0066
    1CHOL    R530702   2.961   1.814   5.572 -0.1469 -0.2194 -0.0540
    1CHOL    C130703   3.075   1.889   5.215 -0.1825 -0.2946 -0.0806
    1CHOL    C230704   3.438   1.886   5.016 -0.2399  0.3036  0.1991
    1CHOL   ROH30705  17.241  11.844   3.008 -0.0292  0.1121  0.0562
    1CHOL    R130706  17.216  11.912   3.282 -0.3771  0.0580  0.0447
    1CHOL    R230707  16.979  11.883   3.421 -0.4475 -0.4211 -0.1310
    1CHOL    R330708  17.135  11.738   3.591 -0.2734 -0.1262 -0.0343
    1CHOL    R430709  16.889  11.790   3.742 -0.4090 -0.5211 -0.1500
    1CHOL    R530710  17.093  11.834   3.806 -0.5174 -0.1655 -0.0733
    1CHOL    C130711  16.983  11.601   4.088 -0.2230 -0.3025 -0.0704
    1CHOL    C230712  16.958  11.789   4.522  0.3239  0.0563  0.0069
    1CHOL   ROH30713  15.252   6.404   3.815 -0.1984  0.1375 -0.0597
    1CHOL    R130714  15.126   6.502   4.050 -0.0135  0.0596  0.0744
    1CHOL    R230715  15.214   6.437   4.303  0.3009  0.1205 -0.0148
    1CHOL    R330716  15.221   6.707   4.335  0.1589  0.1264 -0.0295
    1CHOL    R430717  15.139   6.604   4.597  0.2388  0.0937 -0.0156
    1CHOL    R530718  15.036   6.755   4.479  0.1458  0.0329 -0.0140
    1CHOL    C130719  15.102   6.954   4.797  0.0693  0.0837 -0.0299
    1CHOL    C230720  14.914   7.258   4.813  0.1200 -0.1983  0.0788
    1CHOL   ROH30721  12.633  12.899   6.523 -0.0566  0.2923 -0.0080
    1CHOL    R130722  12.711  12.797   6.271  0.0650  0.1225  0.0952
    1CHOL    R230723  12.530  12.695   6.089  0.1672 -0.1545  0.1364
    1CHOL    R330724  12.645  12.876   5.921  0.0878 -0.2195  0.0116
    1CHOL    R430725  12.486  12.703   5.746 -0.0979 -0.1975  0.1681
    1CHOL    R530726  12.697  12.750   5.725 -0.1046 -0.2643 -0.0086
    1CHOL    C130727  12.568  12.877   5.389 -0.3267 -0.2837  0.0695
    1CHOL    C230728  12.470  12.933   4.983 -0.0382 -0.1194  0.1346
    1CHOL   ROH30729  18.765  18.187   3.137  0.1040 -0.0440  0.0893
    1CHOL    R130730  18.652  18.262   3.385  0.1905  0.0373  0.1037
    1CHOL    R230731  18.534  18.080   3.556  0.0522  0.1285  0.1005
    1CHOL    R330732  18.710  18.183   3.736  0.1554 -0.0314  0.0955
    1CHOL    R430733  18.527  18.019   3.896 -0.2308  0.4199  0.1516
    1CHOL    R530734  18.576  18.229   3.930  0.1305  0.3717 -0.0037
    1CHOL    C130735  18.687  18.081   4.263 -0.2987  0.4395  0.1767
    1CHOL    C230736  18.777  18.119   4.453  0.0870 -0.1391 -0.0398
    1CHOL   ROH30737   8.636  18.551   2.720  0.0476 -0.1952 -0.1022
    1CHOL    R130738   8.509  18.495   2.967 -0.0102 -0.2972 -0.1541
    1CHOL    R230739   8.591  18.292   3.134  0.1717 -0.1491 -0.0590
    1CHOL    R330740   8.604  18.491   3.318 -0.1847 -0.0804 -0.1022
    1CHOL    R430741   8.577  18.247   3.477  0.1176 -0.0842 -0.0526
    1CHOL    R530742   8.452  18.424   3.490 -0.1492 -0.2610 -0.1400
    1CHOL    C130743   8.581  18.408   3.848 -0.2486  0.0181 -0.0894
    1CHOL    C230744   8.526  18.466   4.254 -0.1546  0.1168  0.0997
    1CHOL   ROH30745  21.746  16.667   2.975 -0.0406 -0.0806  0.0256
    1CHOL    R130746  21.854  16.698   3.235 -0.0252 -0.0569  0.0163
    1CHOL    R230747  21.721  16.613   3.463  0.0111 -0.0827  0.0276
    1CHOL    R330748  21.952  16.477   3.507  0.0428 -0.0353  0.0098
    1CHOL    R430749  21.812  16.470   3.763  0.0175 -0.1517 -0.0071
    1CHOL    R530750  22.015  16.538   3.729  0.0032 -0.0872  0.0354
    1CHOL    C130751  22.082  16.258   3.980  0.0509 -0.1476 -0.0438
    1CHOL    C230752  22.467  16.438   4.074 -0.1959  0.0503  0.3271
    1CHOL   ROH30753   8.621  16.116   5.846  0.0775  0.2065  0.1667
    1CHOL    R130754   8.640  15.997   5.591 -0.0644  0.1958  0.1620
    1CHOL    R230755   8.687  16.142   5.361  0.1235  0.1486  0.1767
    1CHOL    R330756   8.892  15.967   5.330 -0.0915 -0.1087  0.1643
    1CHOL    R430757   8.801  16.026   5.057  0.2275  0.3531  0.1348
    1CHOL    R530758   8.823  15.828   5.147 -0.1343  0.2016 -0.0698
    1CHOL    C130759   9.061  15.793   4.850  0.0861  0.2304  0.0988
    1CHOL    C230760   9.146  15.935   4.461  0.0747  0.0806 -0.2272
    1CHOL   ROH30761  29.853  16.313   5.619  0.2793 -0.0565  0.1563
    1CHOL    R130762  29.834  16.293   5.337 -0.0218 -0.0210  0.1711
    1CHOL    R230763  30.046  16.216   5.179 -0.1150  0.2392 -0.0873
    1CHOL    R330764  29.869  16.031   5.087 -0.0231  0.0643  0.0800
    1CHOL    R430765  30.077  16.042   4.882 -0.2555  0.3285 -0.1551
    1CHOL    R530766  29.863  16.067   4.851 -0.3237  0.1057  0.0884
    1CHOL    C130767  29.928  15.768   4.623 -0.2512  0.2164 -0.0376
    1CHOL    C230768  29.771  15.941   4.251  0.1840 -0.0562  0.0394
    1CHOL   ROH30769   2.774   2.874   6.071 -0.1494 -0.1698 -0.0475
    1CHOL    R130770   2.843   2.973   5.814 -0.3286 -0.1107 -0.0736
    1CHOL    R230771   3.095   2.943   5.707 -0.2524  0.3694 -0.0391
    1CHOL    R330772   2.959   2.832   5.499 -0.0115  0.0174 -0.0186
    1CHOL    R430773   3.224   2.893   5.390 -0.0132  0.2291  0.0765
    1CHOL    R530774   3.032   2.955   5.307 -0.0473 -0.0679 -0.0906
    1CHOL    C130775   3.171   2.760   5.011  0.3523 -0.1831  0.1632
    1CHOL    C230776   3.356   2.677   4.639  0.0137  0.2254  0.2769
    1CHOL   ROH30777   4.186  26.598   3.014  0.0493 -0.1639  0.0438
    1CHOL    R130778   4.084  26.661   3.270  0.1717 -0.0858  0.0742
    1CHOL    R230779   3.831  26.589   3.351  0.1193  0.1520  0.1302
    1CHOL    R330780   3.964  26.476   3.560  0.0626  0.0057  0.0884
    1CHOL    R430781   3.693  26.523   3.662  0.1197  0.2376  0.1481
    1CHOL    R530782   3.880  26.590   3.753  0.2013  0.0601  0.1195
    1CHOL    C130783   3.739  26.380   4.038  0.0667  0.1498  0.1193
    1CHOL    C230784   3.665  26.554   4.432 -0.1868  0.0543  0.2792
    1CHOL   ROH30785  24.120  14.797   5.568 -0.2579  0.0921  0.0978
    1CHOL    R130786  24.007  14.595   5.404 -0.0419 -0.0323  0.0978
    1CHOL    R230787  23.830  14.651   5.199 -0.2609 -0.2350  0.2229
    1CHOL    R330788  24.009  14.510   5.051 -0.1207  0.0968  0.0663
    1CHOL    R430789  23.795  14.577   4.863 -0.3689 -0.2227  0.2317
    1CHOL    R530790  23.874  14.379   4.903 -0.0031 -0.1014  0.1341
    1CHOL    C130791  23.941  14.402   4.529 -0.3003  0.0959  0.0898
    1CHOL    C230792  23.768  14.297   4.173  0.0985 -0.0217 -0.1816
    1CHOL   ROH30793   6.768   6.925   4.254 -0.1945  0.0908  0.0450
    1CHOL    R130794   6.894   6.934   4.508 -0.2175  0.0523  0.0584
    1CHOL    R230795   6.767   6.857   4.741 -0.1964 -0.1080  0.0199
    1CHOL    R330796   6.984   6.696   4.768 -0.1159 -0.0093 -0.0328
    1CHOL    R430797   6.886   6.734   5.041 -0.1066 -0.1117 -0.0173
    1CHOL    R530798   7.088   6.769   4.970 -0.1313 -0.0005 -0.0293
    1CHOL    C130799   7.159   6.510   5.240  0.0213 -0.0213 -0.0883
    1CHOL    C230800   7.107   6.173   5.455 -0.3725 -0.3012  0.3814
    1CHOL   ROH30801  17.960  20.711   3.337 -0.3725  0.0652  0.0680
    1CHOL    R130802  18.020  20.686   3.612 -0.2105  0.2043  0.0494
    1CHOL    R230803  17.880  20.820   3.808 -0.2855  0.0882  0.0878
    1CHOL    R330804  17.847  20.571   3.912  0.0621  0.0684  0.1560
    1CHOL    R430805  17.830  20.752   4.143 -0.2904  0.1134  0.0904
    1CHOL    R530806  17.963  20.579   4.122 -0.0199  0.3093  0.1897
    1CHOL    C130807  17.771  20.478   4.435  0.0331  0.1095  0.1559
    1CHOL    C230808  17.688  20.462   4.787 -0.1379 -0.1419 -0.0782
    1CHOL   ROH30809  19.491   6.327   5.636 -0.0395 -0.0024  0.0595
    1CHOL    R130810  19.311   6.502   5.507  0.0156  0.0171  0.0083
    1CHOL    R230811  19.256   6.487   5.237  0.0132 -0.0425  0.0118
    1CHOL    R330812  18.998   6.472   5.323  0.0077  0.0611  0.0145
    1CHOL    R430813  18.982   6.607   5.063  0.0576  0.0500  0.0053
    1CHOL    R530814  18.900   6.679   5.251  0.0857  0.0942  0.0011
    1CHOL    C130815  18.581   6.662   5.042  0.0782  0.2012  0.0039
    1CHOL    C230816  18.264   6.926   5.159  0.1572 -0.0861 -0.2935
    1CHOL   ROH30817  13.490   7.171   3.489  0.1970 -0.2530  0.0523
    1CHOL    R130818  13.478   7.040   3.739  0.1853 -0.1111  0.1276
    1CHOL    R230819  13.653   7.096   3.945  0.0688  0.1296  0.1672
    1CHOL    R330820  13.424   7.136   4.086 -0.0157  0.0646  0.0491
    1CHOL    R430821  13.637   7.139   4.288 -0.1329  0.0339  0.1707
    1CHOL    R530822  13.457   7.016   4.290 -0.1195  0.0136  0.0349
    1CHOL    C130823  13.412   7.203   4.619 -0.3296 -0.0830  0.0619
    1CHOL    C230824  13.638   7.202   4.866 -0.0190  0.1144  0.0582
    1CHOL   ROH30825  21.123  16.232   2.898  0.0975 -0.1317 -0.2426
    1CHOL    R130826  21.088  16.040   3.103  0.1394 -0.0785 -0.1846
    1CHOL    R230827  21.203  16.066   3.353  0.0344  0.0817 -0.1520
    1CHOL    R330828  20.947  16.032   3.438  0.0231 -0.0403 -0.2319
    1CHOL    R430829  21.110  15.900   3.642  0.0263  0.0328 -0.1828
    1CHOL    R530830  20.943  15.813   3.532  0.0998 -0.0449 -0.2367
    1CHOL    C130831  20.816  15.772   3.889  0.0111 -0.1099 -0.2757
    1CHOL    C230832  20.597  15.877   4.061  0.1922 -0.3381  0.3745
    1CHOL   ROH30833  12.133  10.770   3.229 -0.1879  0.1126 -0.0820
    1CHOL    R130834  12.229  10.673   3.476 -0.2681  0.0406 -0.0781
    1CHOL    R230835  12.383  10.826   3.647 -0.0619 -0.1076 -0.1241
    1CHOL    R330836  12.191  10.760   3.828 -0.1201  0.1485 -0.0883
    1CHOL    R430837  12.410  10.872   3.988  0.0851 -0.1900 -0.1239
    1CHOL    R530838  12.314  10.678   4.017 -0.1933 -0.0566 -0.1279
    1CHOL    C130839  12.245  10.837   4.357  0.1161  0.0023 -0.0901
    1CHOL    C230840  12.404  11.026   4.682 -0.1633 -0.0105 -0.1620
    1CHOL   ROH30841   9.838  13.553   6.393 -0.0695 -0.3527 -0.0882
    1CHOL    R130842   9.917  13.606   6.127 -0.0728 -0.1978 -0.0597
    1CHOL    R230843  10.175  13.564   6.037 -0.0383 -0.0156 -0.0536
    1CHOL    R330844  10.051  13.414   5.848  0.0630 -0.0089 -0.1258
    1CHOL    R430845  10.303  13.495   5.723  0.1112  0.0257 -0.0020
    1CHOL    R530846  10.104  13.522   5.641  0.1477  0.0147 -0.0909
    1CHOL    C130847  10.261  13.313   5.363  0.2935  0.0562 -0.0398
    1CHOL    C230848  10.476  13.155   5.022 -0.0067  0.0575 -0.4890
    1CHOL   ROH30849   9.897  17.335   3.018 -0.1041 -0.1484 -0.0537
    1CHOL    R130850   9.921  17.306   3.299 -0.0356 -0.1718 -0.0616
    1CHOL    R230851   9.706  17.249   3.462 -0.0361  0.0251  0.0110
    1CHOL    R330852   9.864  17.043   3.544 -0.1950 -0.1218 -0.0447
    1CHOL    R430853   9.683  17.093   3.769 -0.2003 -0.0877 -0.0572
    1CHOL    R530854   9.900  17.086   3.777 -0.2054 -0.2445 -0.0202
    1CHOL    C130855   9.818  16.809   4.025 -0.4450 -0.2914 -0.1493
    1CHOL    C230856   9.964  16.584   4.272  0.0202 -0.1050  0.2940
    1CHOL   ROH30857   2.442  19.757   5.666 -0.0506  0.0482 -0.0413
    1CHOL    R130858   2.613  19.622   5.486 -0.1149 -0.0104 -0.0585
    1CHOL    R230859   2.522  19.507   5.252 -0.1435  0.2198 -0.1615
    1CHOL    R330860   2.715  19.662   5.139  0.0516  0.1018  0.0012
    1CHOL    R430861   2.638  19.473   4.928  0.0098  0.2381 -0.1100
    1CHOL    R530862   2.840  19.510   5.001  0.0032  0.0444  0.0184
    1CHOL    C130863   2.886  19.598   4.633  0.2823  0.1380  0.0728
    1CHOL    C230864   2.669  19.459   4.292  0.2959 -0.0748 -0.3690
    1CHOL   ROH30865  16.482   9.217   6.006  0.0137 -0.0347 -0.0518
    1CHOL    R130866  16.546   9.075   5.769  0.0880  0.0464 -0.0820
    1CHOL    R230867  16.355   9.007   5.581  0.0856 -0.1883 -0.0025
    1CHOL    R330868  16.524   9.136   5.411 -0.1447  0.0291 -0.0717
    1CHOL    R430869  16.374   8.949   5.241  0.1444 -0.2914  0.0190
    1CHOL    R530870  16.591   8.966   5.256  0.1212  0.0771 -0.0114
    1CHOL    C130871  16.544   9.035   4.883 -0.0378 -0.1475 -0.0336
    1CHOL    C230872  16.624   9.289   4.551 -0.0025 -0.0915  0.2053
    1CHOL   ROH30873  22.690  21.326   6.515 -0.2130  0.2403  0.0491
    1CHOL    R130874  22.669  21.354   6.234 -0.0643  0.2377  0.0370
    1CHOL    R230875  22.884  21.423   6.075  0.1108 -0.1223  0.1062
    1CHOL    R330876  22.816  21.197   5.941 -0.2003 -0.0384  0.1133
    1CHOL    R430877  22.892  21.387   5.732  0.0003 -0.1269  0.1038
    1CHOL    R530878  22.705  21.275   5.744 -0.1410  0.1056  0.1360
    1CHOL    C130879  22.833  21.153   5.406 -0.3560 -0.0508  0.1091
    1CHOL    C230880  22.823  21.324   5.066  0.2244 -0.2053 -0.1235
    1CHOL   ROH30881  13.278  12.483   3.001  0.0087 -0.0175  0.0775
    1CHOL    R130882  13.299  12.460   3.282  0.0363 -0.0710  0.0695
    1CHOL    R230883  13.415  12.241   3.405  0.2293  0.0033  0.0055
    1CHOL    R330884  13.568  12.431   3.525  0.0683  0.1036  0.0604
    1CHOL    R430885  13.514  12.236   3.737  0.0171  0.1098  0.0736
    1CHOL    R530886  13.478  12.450   3.746 -0.0902  0.1057  0.0043
    1CHOL    C130887  13.715  12.412   4.042 -0.2578  0.2660  0.1647
    1CHOL    C230888  13.658  12.455   4.436 -0.0043  0.1333  0.2391
    1CHOL   ROH30889  13.646   9.514   6.567  0.0720 -0.0137 -0.0227
    1CHOL    R130890  13.730   9.518   6.297  0.0591 -0.0612 -0.0301
    1CHOL    R230891  13.615   9.358   6.103  0.0230 -0.0770 -0.0127
    1CHOL    R330892  13.579   9.595   5.975  0.0468 -0.0841 -0.0259
    1CHOL    R430893  13.485   9.394   5.785 -0.2035 -0.0486  0.0838
    1CHOL    R530894  13.633   9.549   5.746 -0.1599 -0.1400 -0.0558
    1CHOL    C130895  13.375   9.637   5.480 -0.3131 -0.0388  0.1275
    1CHOL    C230896  13.382   9.816   5.126 -0.1808  0.0132  0.3360
    1CHOL   ROH30897  20.361  12.746   6.085  0.1146  0.2044 -0.0477
    1CHOL    R130898  20.168  12.710   5.881  0.0742  0.1537 -0.0010
    1CHOL    R230899  20.002  12.914   5.796  0.0257  0.1208  0.0116
    1CHOL    R330900  20.103  12.850   5.552 -0.0187  0.1068 -0.0026
    1CHOL    R430901  19.881  13.033   5.495 -0.0893  0.0294  0.0213
    1CHOL    R530902  19.910  12.835   5.410 -0.0512  0.0228  0.0504
    1CHOL    C130903  19.905  13.042   5.090 -0.1978 -0.0368  0.0136
    1CHOL    C230904  19.760  13.022   4.641 -0.3072 -0.2411 -0.0429
    1CHOL   ROH30905  13.698  19.796   2.905 -0.2435  0.2694  0.0202
    1CHOL    R130906  13.783  19.709   3.161 -0.0819  0.2438 -0.0412
    1CHOL    R230907  13.854  19.885   3.362 -0.1557  0.2283 -0.0019
    1CHOL    R330908  13.668  19.746   3.504  0.0072  0.0227  0.0146
    1CHOL    R430909  13.785  19.934   3.697 -0.2749  0.2548 -0.0297
    1CHOL    R530910  13.768  19.718   3.720  0.0155  0.2343  0.0420
    1CHOL    C130911  13.572  19.832   4.026 -0.1915  0.0772 -0.0303
    1CHOL    C230912  13.449  19.935   4.318  0.1694  0.0752 -0.2892
    1CHOL   ROH30913  15.588  22.830   5.889 -0.0876 -0.0499  0.0645
    1CHOL    R130914  15.579  22.769   5.613  0.0589 -0.1358  0.0785
    1CHOL    R230915  15.511  22.956   5.421 -0.0205 -0.2450  0.0033
    1CHOL    R330916  15.749  22.884   5.312  0.0765 -0.0891  0.1052
    1CHOL    R430917  15.592  22.987   5.087  0.0259 -0.3675  0.0024
    1CHOL    R530918  15.691  22.793   5.098  0.2078 -0.2736  0.1427
    1CHOL    C130919  15.863  22.937   4.789  0.1441 -0.2919  0.0975
    1CHOL    C230920  15.938  22.804   4.512  0.1222  0.1369 -0.1524
    1CHOL   ROH30921  13.050   6.049   6.546 -0.0778  0.1980 -0.0092
    1CHOL    R130922  12.977   5.873   6.337 -0.0523  0.1124  0.0536
    1CHOL    R230923  12.807   5.947   6.133 -0.0210  0.0315 -0.0014
    1CHOL    R330924  13.012   5.863   5.975 -0.0009 -0.0403  0.0618
    1CHOL    R430925  12.785   5.899   5.792  0.0418 -0.0521  0.0058
    1CHOL    R530926  12.907   5.719   5.814  0.0098 -0.0655  0.0768
    1CHOL    C130927  12.965   5.792   5.444  0.0972 -0.1682  0.0693
    1CHOL    C230928  12.558   5.588   5.280  0.2529  0.0980  0.0856
    1CHOL   ROH30929  13.318   7.383   3.134 -0.0256 -0.1188  0.0036
    1CHOL    R130930  13.200   7.479   3.372  0.0288 -0.0273 -0.0053
    1CHOL    R230931  13.000   7.343   3.505 -0.0131  0.0714  0.0401
    1CHOL    R330932  13.169   7.365   3.716  0.0157  0.0510  0.0187
    1CHOL    R430933  12.910   7.299   3.836  0.0422  0.0257  0.0488
    1CHOL    R530934  13.037   7.468   3.888  0.0403  0.0216  0.0518
    1CHOL    C130935  13.017   7.294   4.227  0.1014 -0.0201  0.0338
    1CHOL    C230936  12.671   7.212   4.417 -0.0372 -0.3290  0.1050
    1CHOL   ROH30937  12.876  19.246   2.970 -0.1077  0.1050 -0.0141
    1CHOL    R130938  12.950  19.081   3.188  0.0207  0.1256 -0.0398
    1CHOL    R230939  13.102  19.174   3.401 -0.0244  0.2037 -0.0333
    1CHOL    R330940  12.894  19.079   3.547  0.0449  0.0445 -0.0385
    1CHOL    R430941  13.099  19.144   3.745 -0.0369  0.2270 -0.0321
    1CHOL    R530942  12.996  18.954   3.723  0.1260  0.1463 -0.0208
    1CHOL    C130943  12.901  19.038   4.083  0.0210  0.0911 -0.0363
    1CHOL    C230944  12.805  18.795   4.238 -0.0659 -0.1921  0.0366
    1CHOL   ROH30945  12.352  15.339   6.288  0.0307  0.1484 -0.1437
    1CHOL    R130946  12.198  15.244   6.070 -0.0508  0.0463 -0.0435
    1CHOL    R230947  12.181  15.380   5.830 -0.1825 -0.0388 -0.0822
    1CHOL    R330948  12.262  15.143   5.726 -0.1878 -0.0597 -0.0390
    1CHOL    R430949  12.262  15.328   5.498 -0.1577 -0.0905 -0.0681
    1CHOL    R530950  12.161  15.136   5.509 -0.1709 -0.0844 -0.0474
    1CHOL    C130951  12.386  15.075   5.207 -0.1482 -0.1402 -0.0193
    1CHOL    C230952  12.534  15.099   4.883  0.2962 -0.2094 -0.2546
    1CHOL   ROH30953  25.960  19.250   3.399  0.1443  0.0944  0.0140
    1CHOL    R130954  26.070  19.140   3.635  0.0196  0.0714  0.0620
    1CHOL    R230955  26.302  19.235   3.750  0.0466 -0.0432  0.1053
    1CHOL    R330956  26.146  19.257   3.971  0.0010  0.0865  0.0609
    1CHOL    R430957  26.420  19.245   4.075 -0.0236  0.0884  0.1271
    1CHOL    R530958  26.254  19.118   4.134 -0.0581  0.1441  0.1500
    1CHOL    C130959  26.342  19.272   4.471 -0.1071  0.2868  0.0981
    1CHOL    C230960  26.491  19.087   4.719 -0.1560 -0.1489 -0.2032
    1CHOL   ROH30961  15.102   9.069   6.389 -0.0450  0.1001 -0.0071
    1CHOL    R130962  15.121   8.923   6.147 -0.0858  0.0461  0.0208
    1CHOL    R230963  14.900   8.858   5.994 -0.1162  0.0045  0.0723
    1CHOL    R330964  15.041   8.981   5.797 -0.1535 -0.0312  0.0248
    1CHOL    R430965  14.845   8.816   5.656 -0.0085 -0.2446  0.0847
    1CHOL    R530966  15.060   8.815   5.626 -0.0061 -0.1241  0.1343
    1CHOL    C130967  14.945   8.907   5.274  0.0192 -0.4231  0.0473
    1CHOL    C230968  14.908   8.558   5.205  0.0237  0.0906 -0.1612
    1CHOL   ROH30969  22.874  17.343   6.175 -0.0315  0.0432 -0.0713
    1CHOL    R130970  22.826  17.489   5.938  0.0968  0.1274 -0.0447
    1CHOL    R230971  23.030  17.597   5.786  0.1951 -0.1044 -0.0697
    1CHOL    R330972  22.911  17.458   5.585 -0.0152  0.0636 -0.0682
    1CHOL    R430973  23.038  17.689   5.453  0.3618 -0.1273 -0.0741
    1CHOL    R530974  22.828  17.628   5.437  0.2563  0.1960 -0.0823
    1CHOL    C130975  22.931  17.611   5.070  0.2614  0.0171 -0.0753
    1CHOL    C230976  22.715  17.728   4.879 -0.0253  0.0078 -0.0130
    1CHOL   ROH30977  22.034  12.243   2.781 -0.0273  0.0710 -0.0214
    1CHOL    R130978  21.912  12.350   3.014  0.0030  0.1295 -0.0322
    1CHOL    R230979  21.776  12.194   3.196 -0.1958  0.2092 -0.1064
    1CHOL    R330980  21.947  12.309   3.373 -0.1374  0.0120 -0.0318
    1CHOL    R430981  21.724  12.212   3.537 -0.2684  0.1838 -0.1158
    1CHOL    R530982  21.804  12.415   3.533 -0.0803  0.1093 -0.0479
    1CHOL    C130983  21.854  12.332   3.902 -0.2559 -0.0161 -0.0514
    1CHOL    C230984  21.576  12.570   4.117 -0.0410 -0.2344  0.2673
    1CHOL   ROH30985   6.490   5.061   4.041  0.2792 -0.0194 -0.0028
    1CHOL    R130986   6.349   4.893   4.220  0.2152  0.0818  0.0423
    1CHOL    R230987   6.306   4.625   4.170  0.0760  0.0956  0.0941
    1CHOL    R330988   6.422   4.594   4.414  0.0863  0.0782  0.0874
    1CHOL    R430989   6.274   4.345   4.369  0.0000  0.1190  0.1152
    1CHOL    R530990   6.258   4.476   4.543  0.0557  0.1396  0.1085
    1CHOL    C130991   6.363   4.152   4.715 -0.0345  0.1164  0.1212
    1CHOL    C230992   6.318   4.155   5.066  0.0833  0.0582  0.2483
    1CHOL   ROH30993  27.326  29.441   3.988  0.1009  0.1494 -0.0567
    1CHOL    R130994  27.528  29.408   4.183  0.0819  0.0487 -0.0540
    1CHOL    R230995  27.520  29.207   4.373 -0.0140  0.0452 -0.0632
    1CHOL    R330996  27.767  29.149   4.275 -0.0376 -0.0647 -0.0590
    1CHOL    R430997  27.743  28.986   4.517 -0.1058 -0.0344 -0.0426
    1CHOL    R530998  27.904  29.124   4.470 -0.0477 -0.1037 -0.0555
    1CHOL    C130999  28.104  28.802   4.509 -0.1813 -0.1839 -0.0266
    1CHOL    C231000  28.157  28.818   4.871 -0.1092  0.0112  0.2881
    1CHOL   ROH31001   0.568  12.423   5.654  0.0506  0.1556  0.0404
    1CHOL    R131002   0.551  12.417   5.371  0.1844 -0.0448  0.0307
    1CHOL    R231003   0.436  12.622   5.225 -0.1941 -0.3490 -0.1496
    1CHOL    R331004   0.675  12.619   5.095 -0.1123  0.0707 -0.0155
    1CHOL    R431005   0.488  12.736   4.903 -0.2643 -0.5567 -0.2331
    1CHOL    R531006   0.619  12.566   4.869  0.1443 -0.2846  0.0097
    1CHOL    C131007   0.742  12.800   4.594 -0.2283 -0.2836 -0.1557
    1CHOL    C231008   0.859  12.656   4.298  0.1840  0.4454 -0.0567
    1W        W31009   7.933  12.163   7.766  0.0660 -0.1864  0.0513
    1W        W31010  27.974  28.210   7.282  0.2426 -0.2166  0.4290
    1W        W31011   0.015   3.597   2.275  0.0218 -0.3318 -0.0476
    1W        W31012   9.046  18.662   0.787  0.1386  0.2940 -0.0468
    1W        W31013  12.496   1.078   9.016 -0.0610  0.0826  0.0987
    1W        W31014  28.509  22.972   1.187 -0.1085  0.1953  0.1311
    1W        W31015  15.818  17.729   1.420 -0.1921  0.1467  0.0506
    1W        W31016  29.420   4.849   9.452  0.2387 -0.0809  0.0216
    1W        W31017   8.454  15.979   0.665 -0.1090  0.3169 -0.0592
    1W        W31018  23.294   9.486   2.283 -0.2179  0.1048  0.0882
    1W        W31019   7.085   8.654   9.332  0.0413 -0.0030 -0.0321
    1W        W31020  18.956  20.672   7.349 -0.2517  0.0736  0.1704
    1W        W31021   7.999   6.510   2.756  0.0671 -0.1440  0.1115
    1W        W31022  27.322  23.661   0.902 -0.3858 -0.0942  0.0869
    1W        W31023  25.274   6.280   7.811  0.1210 -0.2099 -0.1801
    1W        W31024   3.243   3.263   7.375 -0.3097  0.1514 -0.0527
    1W        W31025  23.250  18.014   1.419  0.1692 -0.1583 -0.0122
    1W        W31026  23.162  29.150   8.663  0.1474 -0.1242  0.0853
    1W        W31027   1.057   2.704   7.445  0.1542 -0.0344  0.0655
    1W        W31028   9.169   0.421   8.839 -0.0491  0.1067  0.0586
    1W        W31029   8.478   0.022   7.482 -0.0673 -0.0467 -0.0588
    1W        W31030   9.436  15.964   9.282 -0.0787 -0.2194  0.2121
    1W        W31031  28.825  26.779   0.302 -0.3297 -0.0919 -0.0864
    1W        W31032   6.323  16.168   7.796 -0.1724 -0.0545  0.0972
    1W        W31033   0.905  19.090   8.721  0.0853 -0.2465  0.1652
    1W        W31034   9.045  16.214   6.627  0.0713 -0.0755  0.0861
    1W        W31035   7.164  27.849   8.375  0.2173  0.2671  0.0132
    1W        W31036  13.784  19.886   2.210  0.1012  0.0703 -0.1859
    1W        W31037  12.404  20.955   1.693 -0.1046 -0.0739  0.0904
    1W        W31038  20.404   8.027   8.740  0.0523  0.0397  0.0580
    1W        W31039  26.395  24.224   7.366  0.0139 -0.0769 -0.2674
    1W        W31040   7.958  19.480   0.773  0.0915 -0.2564 -0.0059
    1W        W31041  15.562   5.668   7.956 -0.0440 -0.1090  0.1544
    1W        W31042  22.837   3.608   2.285 -0.1493 -0.1031  0.2056
    1W        W31043   1.036  10.110   5.927 -0.2676 -0.2712 -0.1670
    1W        W31044  28.193   0.514   9.438  0.0760 -0.3600  0.2115
    1W        W31045   4.622  29.621   0.233  0.1717  0.0108 -0.0346
    1W        W31046  11.584  18.894   8.217 -0.1790 -0.0195  0.1133
    1W        W31047  23.333  25.520   0.081 -0.3560  0.1959  0.3346
    1W        W31048  25.534   3.132   1.554  0.1747 -0.3206 -0.2047
    1W        W31049  14.216  15.386   9.444  0.1626 -0.1746  0.0593
    1W        W31050   1.372  23.297   8.648 -0.0521 -0.1794 -0.0291
    1W        W31051  10.879  20.000   8.210 -0.1966  0.0452 -0.0355
    1W        W31052  25.566   9.251   1.644 -0.0109  0.0249 -0.2401
    1W        W31053  22.001  25.002   2.385  0.0284 -0.1895 -0.2952
    1W        W31054  21.851   9.562   7.710 -0.1580  0.2949 -0.1554
    1W        W31055  13.130  12.753   1.064  0.0381 -0.2331 -0.1187
    1W        W31056  24.538  19.974   0.413  0.1405  0.1044  0.2930
    1W        W31057  28.915  15.120   1.735  0.2260 -0.0638  0.1786
    1W        W31058   5.082  26.503   7.692  0.1193  0.1889  0.0384
    1W        W31059  20.344   9.761   1.244  0.1109 -0.2604  0.2691
    1W        W31060  25.304  15.257   1.473  0.1596 -0.1765  0.4690
    1W        W31061  14.173   9.900   0.040 -0.1321  0.1779 -0.0782
    1W        W31062  27.715   6.593   0.875 -0.2388  0.1076 -0.1474
    1W        W31063  15.399  21.185   6.812  0.4319 -0.0722 -0.0417
    1W        W31064   2.692  28.867   6.109  0.2512 -0.0918 -0.0328
    1W        W31065  22.084  16.404   9.137 -0.4080 -0.1123 -0.0470
    1W        W31066  13.545  19.747   6.782  0.1233  0.2612 -0.2466
    1W        W31067  15.514  24.525   1.934  0.0211  0.0469  0.1260
    1W        W31068  13.561  26.148   1.969 -0.0118 -0.1655  0.1095
    1W        W31069  12.137  23.493   7.714 -0.0877 -0.2176 -0.0033
    1W        W31070   6.471   8.086   1.889  0.3399 -0.1979  0.1150
    1W        W31071   2.640  19.417   1.854  0.1131 -0.1591  0.3472
    1W        W31072   5.555  20.284   6.759 -0.1317  0.2421 -0.0595
    1W        W31073   1.019  10.204   7.020  0.1547  0.0868  0.2052
    1W        W31074  12.374  18.924   0.274 -0.0078 -0.1860  0.2360
    1W        W31075  15.594  17.836   8.779  0.0636 -0.3828  0.1067
    1W        W31076  13.168   3.577   2.957 -0.2735 -0.0296  0.2010
    1W        W31077  26.885   7.212   8.346 -0.1303 -0.1474 -0.1691
    1W        W31078  19.102   3.787   7.851 -0.0615 -0.1467 -0.3587
    1W        W31079  11.188  18.219   6.875  0.4798  0.2065  0.0588
    1W        W31080  21.465   8.669   2.297 -0.0808 -0.3659  0.0712
    1W        W31081  18.030   5.797   1.785  0.2019  0.0757 -0.0785
    1W        W31082  26.763  21.712   8.596  0.1570 -0.0771  0.2517
    1W        W31083   0.455  13.815   7.912  0.0082  0.0251  0.0859
    1W        W31084  16.947  18.243   2.509 -0.1759  0.2217  0.1995
    1W        W31085   9.841   8.858   3.336  0.3053 -0.2182 -0.1834
    1W        W31086  29.364   8.641   1.044 -0.1068  0.2370  0.0183
    1W        W31087  20.724  13.683   6.335  0.2539 -0.2394 -0.2377
    1W        W31088  28.043  20.611   0.668  0.1287 -0.5044  0.0525
    1W        W31089   8.851  19.474   1.274  0.2228 -0.1119 -0.1171
    1W        W31090   2.267  25.746   2.137  0.0847 -0.0029  0.0464
    1W        W31091   5.250  14.257   9.137  0.1454 -0.4621  0.3776
    1W        W31092  16.442   9.407   8.493 -0.1254 -0.2295  0.1886
    1W        W31093  18.151   0.498   7.915  0.0040 -0.1333  0.1264
    1W        W31094  19.583  10.051   1.868  0.1067 -0.1309  0.1339
    1W        W31095   9.230  13.817   1.092 -0.0635 -0.1283  0.3861
    1W        W31096  10.698  10.308   2.508 -0.1460 -0.1734  0.0898
    1W        W31097   9.517  17.921   7.567  0.3387 -0.1525  0.0832
    1W        W31098   1.780   0.476   7.642  0.5055  0.5049 -0.0260
    1W        W31099  15.957   7.943   7.568  0.1762 -0.0663  0.0032
    1W        W31100  25.574  26.837   1.680  0.2138 -0.0887  0.3059
    1W        W31101   3.847   4.546   9.066 -0.2474  0.1485  0.1753
    1W        W31102  16.669   9.991   2.894  0.1731 -0.0319  0.2465
    1W        W31103  26.206   0.557   0.746  0.1793 -0.1489  0.1227
    1W        W31104  17.498  21.013   9.086  0.0789 -0.0511  0.1360
    1W        W31105  10.430   1.043   7.191  0.0316 -0.1550 -0.2657
    1W        W31106  10.804  25.216   0.513 -0.0446  0.0709  0.0936
    1W        W31107  13.884   6.054   8.064 -0.1059 -0.2084  0.2214
    1W        W31108   5.666  18.503   8.582 -0.1577 -0.0373  0.0842
    1W        W31109   9.317   4.651   9.408 -0.0314 -0.1347  0.2235
    1W        W31110  20.129  27.561   8.736 -0.0049 -0.2142 -0.0100
    1W        W31111  23.852   7.398   2.572  0.2621  0.2176  0.4608
    1W        W31112   4.506  15.080   1.651  0.1678 -0.0939  0.1701
    1W        W31113   5.592  12.714   7.842 -0.1355  0.0928  0.1790
    1W        W31114  13.459   2.667   1.960  0.0880  0.1928  0.4661
    1W        W31115   0.261  12.209   0.988 -0.0677  0.0878  0.1960
    1W        W31116  16.949  20.313   9.332 -0.1231 -0.0023 -0.0728
    1W        W31117   1.998  26.398   0.662 -0.1126 -0.0494 -0.0227
    1W        W31118  23.442  11.859   8.068 -0.0237 -0.3257 -0.0759
    1W        W31119  10.399  15.636   6.986  0.2202 -0.0932  0.1906
    1W        W31120  27.215  23.715   1.451 -0.1712 -0.1047  0.0414
    1W        W31121  18.432  22.285   9.051 -0.2907  0.0077  0.0783
    1W        W31122  16.140  25.331   2.075 -0.2421 -0.2532  0.2156
    1W        W31123  11.611   1.165   2.808 -0.0866  0.0495  0.3011
    1W        W31124  18.935  13.029   7.371  0.0645 -0.1318 -0.0281
    1W        W31125  11.047  12.277   8.307  0.1454 -0.2027  0.1028
    1W        W31126   8.655   6.948   2.833 -0.0809 -0.2210  0.4796
    1W        W31127   0.155  14.855   1.518  0.0202  0.0979 -0.1271
    1W        W31128  27.903  29.670   2.202 -0.0492 -0.0897 -0.0335
    1W        W31129  13.651   7.794   2.277  0.1577 -0.0135 -0.2043
    1W        W31130   1.753   9.774   7.654  0.1516  0.0709  0.3667
    1W        W31131   2.379  17.986   0.957 -0.1145 -0.0084  0.1628
    1W        W31132   9.685  17.486   1.834 -0.0491  0.1864  0.1625
    1W        W31133  28.014   0.291   7.502 -0.2743 -0.0441 -0.2269
    1W        W31134  10.706  29.137   3.101 -0.0963  0.1598  0.1224
    1W        W31135   3.900   5.065   3.038  0.1532  0.0046 -0.1578
    1W        W31136   2.674   6.778   0.845 -0.1243  0.0747 -0.1356
    1W        W31137  20.237   3.302   1.120 -0.0699 -0.1974  0.1715
    1W        W31138   3.092  28.875   7.734 -0.0153  0.1616  0.2933
    1W        W31139  20.694   0.315   1.615  0.1245 -0.0179  0.0612
    1W        W31140  24.399   8.619   8.134 -0.2072 -0.1499  0.0008
    1W        W31141  22.873  22.024   8.105 -0.0458 -0.1049 -0.3817
    1W        W31142  16.236   1.325   2.717  0.2146 -0.0739  0.0543
    1W        W31143  22.381  16.709   8.891  0.0721 -0.1630 -0.0196
    1W        W31144   6.926   3.558   0.126  0.1489  0.1359  0.0418
    1W        W31145  24.428   9.623   0.586  0.0725 -0.0834 -0.3289
    1W        W31146  15.655   5.312   8.856  0.0114 -0.5249 -0.0268
    1W        W31147   7.115   7.503   0.667 -0.0961 -0.2958  0.0642
    1W        W31148  29.793   4.123   1.730 -0.0246  0.3291  0.1405
    1W        W31149  16.369  29.478   3.088 -0.1874 -0.0811 -0.0923
    1W        W31150  19.919  27.418   0.971 -0.3568 -0.1758  0.0500
    1W        W31151   7.443   8.876   8.347 -0.0657  0.2103  0.0097
    1W        W31152   4.260  15.755   7.558  0.0488  0.2710  0.0234
    1W        W31153  22.169  16.852   0.004 -0.0462  0.0347  0.0281
    1W        W31154   7.607  14.056   1.927  0.1826  0.1968 -0.2231
    1W        W31155  21.441  20.358   8.056  0.1047 -0.0139 -0.2765
    1W        W31156  20.731   2.714   9.414  0.0481  0.0167  0.0594
    1W        W31157  28.526  29.325   3.064  0.1141 -0.0690 -0.1917
    1W        W31158  24.262   9.721   1.997 -0.4447 -0.2621  0.3800
    1W        W31159   6.244  29.680   1.319  0.0223 -0.2212  0.1522
    1W        W31160   6.475   1.522   8.898 -0.0594  0.3673  0.0129
    1W        W31161  11.433   1.235   7.775  0.0028 -0.2472 -0.0828
    1W        W31162  22.723  23.889   9.247  0.0960 -0.2722 -0.0832
    1W        W31163  19.362  11.177   6.253 -0.0045  0.0934  0.0492
    1W        W31164   8.679  14.537   9.019  0.0743 -0.1915 -0.0034
    1W        W31165  28.031   3.818   0.609 -0.1380  0.1024 -0.1848
    1W        W31166   2.953   4.369   2.093  0.0094  0.0687  0.3189
    1W        W31167  25.080   2.596   0.784  0.2318  0.1347 -0.1850
    1W        W31168  18.009  25.005   7.904 -0.1648 -0.1640 -0.1629
    1W        W31169  19.979   9.539   7.256  0.0126 -0.2272  0.1182
    1W        W31170  10.309   0.844   9.220 -0.1132 -0.0882  0.1426
    1W        W31171  22.061  20.162   2.502 -0.0519 -0.0732  0.1434
    1W        W31172   5.346  19.960   0.281 -0.2376  0.0089  0.1842
    1W        W31173  26.099   7.229   2.024 -0.0002 -0.0128 -0.0461
    1W        W31174   7.779  10.419   1.997 -0.1104  0.2472  0.4140
    1W        W31175   3.398  26.797   0.010  0.1094  0.0673 -0.3669
    1W        W31176  18.124  28.489   8.886 -0.4219 -0.0686 -0.1517
    1W        W31177   5.216   5.871   1.679 -0.0798  0.0293 -0.1297
    1W        W31178  22.924   0.860   7.474 -0.0916  0.0744  0.1337
    1W        W31179  12.999  25.126   0.709  0.0774 -0.1052  0.0525
    1W        W31180   4.620  15.970   7.203 -0.0170 -0.0195 -0.0904
    1W        W31181   2.687  24.047   0.042 -0.1659 -0.1728  0.3225
    1W        W31182  28.209   0.531   0.908 -0.3294  0.0390  0.7439
    1W        W31183  14.890  25.120   8.018  0.0457  0.0565 -0.0466
    1W        W31184  18.352  16.617   1.239  0.0773  0.2611  0.3095
    1W        W31185  21.853  15.502   1.362  0.0093 -0.0274 -0.2372
    1W        W31186  20.812  10.833   7.597 -0.0140 -0.0080 -0.0131
    1W        W31187  12.293  25.307   9.210  0.0537 -0.0137 -0.3418
    1W        W31188   3.289   8.664   7.373 -0.4246  0.1483  0.1300
    1W        W31189  26.917  26.996   7.728 -0.0340 -0.1833  0.3928
    1W        W31190   6.432  16.059   0.473 -0.1336 -0.1017  0.1413
    1W        W31191  27.156  28.340   3.144  0.0155 -0.0836 -0.3467
    1W        W31192  24.162  29.871   7.874 -0.2672  0.0158 -0.3210
    1W        W31193  19.805  29.118   8.677  0.4133  0.0889 -0.0883
    1W        W31194  22.751   5.609   3.215 -0.1017  0.1669 -0.1445
    1W        W31195  22.494  21.577   7.345 -0.1532  0.1336 -0.1799
    1W        W31196   5.856   0.585   7.091 -0.2848 -0.0205 -0.3119
    1W        W31197  10.150   5.060   0.205  0.1829 -0.0449 -0.1513
    1W        W31198   2.195   0.318   0.467  0.4389  0.1055 -0.3995
    1W        W31199  28.624  22.138   7.544 -0.1882  0.0880  0.1820
    1W        W31200  27.642  18.937   2.826  0.1388 -0.1189 -0.0235
    1W        W31201   8.732   1.319   7.911 -0.0073  0.1395  0.0389
    1W        W31202   0.818  25.094   0.377  0.0222 -0.0938 -0.3719
    1W        W31203   2.425   4.807   6.016  0.2911 -0.0181 -0.1359
    1W        W31204  10.176  22.933   2.250  0.1660 -0.0553  0.1456
    1W        W31205   5.757  24.808   0.888 -0.0100 -0.0526 -0.2176
    1W        W31206  19.732  25.943   6.620 -0.3702 -0.1506  0.0840
    1W        W31207  15.920   2.100   1.725  0.6341  0.1999  0.0315
    1W        W31208  27.497  14.896   7.374  0.0806 -0.0707  0.0077
    1W        W31209   0.140  28.139   8.342  0.2369 -0.0298 -0.1122
    1W        W31210  28.069   3.863   2.580 -0.2061  0.0625 -0.3186
    1W        W31211  27.054  10.099   1.515  0.3102  0.4133  0.2809
    1W        W31212   6.205   9.437   2.877 -0.0355  0.0407 -0.0370
    1W        W31213  26.729  24.322   7.959  0.0407  0.1871  0.1648
    1W        W31214  24.964  23.550   0.913 -0.0130 -0.3544  0.3563
    1W        W31215  15.998  24.922   7.416  0.1812  0.1210 -0.0948
    1W        W31216  18.378  13.746   7.251 -0.0809  0.0574 -0.1526
    1W        W31217  24.510  28.154   0.148 -0.3208  0.0953 -0.0836
    1W        W31218   9.280  21.545   1.433  0.0275 -0.1268  0.0951
    1W        W31219  18.977  23.083   1.284  0.1022  0.0039  0.0614
    1W        W31220   2.481   1.934   3.333  0.1552 -0.2292  0.1519
    1W        W31221  12.834   1.059   7.755 -0.1805  0.1422  0.3405
    1W        W31222   0.049  10.390   6.761  0.2571 -0.1335  0.1716
    1W        W31223   0.574  17.413   0.313 -0.0490  0.1523 -0.1898
    1W        W31224   8.663  21.231   7.968 -0.1223  0.1035  0.2276
    1W        W31225   6.105  21.556   1.021  0.0607  0.0882  0.0155
    1W        W31226   4.584  23.870   0.723 -0.1365  0.0360  0.0036
    1W        W31227  10.280  26.421   6.949 -0.2264 -0.0752 -0.0626
    1W        W31228  22.010   5.465   8.667  0.0935  0.3609 -0.0283
    1W        W31229  26.373  18.956   0.798 -0.0636 -0.0367  0.1404
    1W        W31230  11.976  22.962   6.878 -0.1068 -0.1702 -0.1054
    1W        W31231   6.356   6.173   9.058  0.0052  0.1492  0.1790
    1W        W31232   5.239  21.220   6.387 -0.1248  0.1952  0.2963
    1W        W31233   0.284  16.141   1.637 -0.0394  0.0871  0.0672
    1W        W31234  17.740   8.262   0.766  0.2156  0.3041  0.0427
    1W        W31235  16.374   3.289   1.242  0.0103 -0.1496  0.2409
    1W        W31236   8.315  15.468   8.927  0.0513  0.0094  0.2817
    1W        W31237  13.341  13.734   7.832 -0.0072 -0.1342 -0.0184
    1W        W31238   5.915   5.749   9.442  0.0333 -0.0989 -0.0137
    1W        W31239   1.579  14.358   1.068 -0.0170  0.1158 -0.1952
    1W        W31240  10.664   9.368   0.856 -0.2496  0.0373  0.0062
    1W        W31241  22.064  19.743   7.644 -0.3967  0.1749  0.5962
    1W        W31242  14.314  23.114   1.090  0.0330  0.2137 -0.3521
    1W        W31243  18.528  19.119   8.420  0.1141 -0.0898  0.0948
    1W        W31244   6.987   7.793   4.031 -0.1975  0.1142  0.0208
    1W        W31245  10.453   5.681   8.250  0.1791 -0.5075 -0.0147
    1W        W31246  13.836   5.943   7.494  0.2185 -0.0925  0.0164
    1W        W31247  14.773  14.296   1.472 -0.0238 -0.1007  0.1768
    1W        W31248  19.650   8.634   8.868  0.0030  0.0084 -0.3179
    1W        W31249  10.569   5.750   0.972  0.0719 -0.2096 -0.0469
    1W        W31250  27.086  10.493   8.316  0.2308 -0.2345  0.1638
    1W        W31251  15.735  28.317   7.997  0.1618  0.2040  0.0196
    1W        W31252   3.230   6.728   2.547 -0.0276 -0.1930 -0.1526
    1W        W31253  11.133   2.546   9.244 -0.0674  0.0961  0.1463
    1W        W31254  18.542   8.348   6.141  0.0973  0.2436 -0.0648
    1W        W31255   7.934  16.384   1.116  0.0492  0.1441  0.1186
    1W        W31256  28.655  11.419   1.109  0.0913  0.0470 -0.1429
    1W        W31257  19.397  22.898   7.699 -0.1902  0.2812  0.0857
    1W        W31258   0.908  18.012   6.019  0.0928  0.2355 -0.0950
    1W        W31259   0.160   7.146   0.898  0.0190 -0.1521 -0.0618
    1W        W31260   5.907  23.889   7.018  0.0791 -0.1576  0.2172
    1W        W31261  20.140  22.908   2.652  0.0949 -0.0498  0.1175
    1W        W31262  24.667  27.988   6.692  0.0595  0.2067 -0.3231
    1W        W31263   7.438   7.710   2.283  0.1367 -0.3532 -0.1712
    1W        W31264  28.123  15.628   2.211 -0.2970  0.0187 -0.3370
    1W        W31265   2.449  18.556   7.744 -0.2407  0.0974 -0.0958
    1W        W31266   7.285   9.581   3.657 -0.2474  0.2140 -0.0952
    1W        W31267  19.602  23.049   2.360  0.4633 -0.1558 -0.1165
    1W        W31268   4.351  17.369   6.265  0.1332  0.4252  0.0643
    1W        W31269  25.247   0.626   2.571  0.0429  0.1010  0.0331
    1W        W31270   9.081  10.461   2.639  0.1865 -0.0612 -0.0363
    1W        W31271  14.762  21.616   6.658  0.3317  0.2876 -0.3523
    1W        W31272  10.971  21.243   0.682  0.1975 -0.0984 -0.4553
    1W        W31273   0.889   5.602   6.230 -0.0833  0.1152 -0.1586
    1W        W31274  20.216   4.971   7.540 -0.0206 -0.1300  0.0723
    1W        W31275   5.552  11.225   1.801  0.1247 -0.3557  0.2412
    1W        W31276   1.057  23.804   1.877 -0.1161  0.1148  0.1044
    1W        W31277  14.095  10.479   8.727 -0.4643 -0.0611  0.1724
    1W        W31278  24.303  29.502   3.159  0.2545 -0.0642  0.2171
    1W        W31279   0.613  11.627   0.254 -0.4702 -0.2111 -0.1193
    1W        W31280  23.449  20.549   1.289 -0.0586 -0.1862 -0.2670
    1W        W31281  16.053  22.425   8.695 -0.1679  0.3631  0.0107
    1W        W31282  17.581  23.841   0.353  0.0058  0.1595  0.3831
    1W        W31283   0.185  29.893   8.158  0.1634 -0.0520 -0.0727
    1W        W31284  23.198  15.277   7.278  0.1388 -0.3437 -0.1780
    1W        W31285  12.051  13.279   8.277 -0.2471  0.1657 -0.2741
    1W        W31286  25.246   7.839   0.651 -0.0529  0.1102  0.0789
    1W        W31287  10.465   7.088   9.232  0.0302 -0.0247 -0.5081
    1W        W31288   2.279  22.949   2.882 -0.2931 -0.0769 -0.1365
    1W        W31289  27.083  25.834   0.737 -0.0209 -0.0791  0.1357
    1W        W31290  24.219  23.370   9.197  0.0735  0.0039 -0.0442
    1W        W31291  16.859  20.172   2.458 -0.0536  0.0022  0.0337
    1W        W31292   2.576   6.227   8.009  0.0867  0.0890  0.0035
    1W        W31293  23.150   6.422   2.184 -0.0403 -0.0238 -0.1101
    1W        W31294  23.382  15.390   1.106 -0.3100  0.2283 -0.2170
    1W        W31295  14.452  25.106   6.201  0.4936  0.1096 -0.0888
    1W        W31296  11.780  15.802   0.364 -0.0636  0.0607 -0.0625
    1W        W31297  16.369   6.010   1.657 -0.2199  0.0944 -0.2612
    1W        W31298   4.140   8.788   2.365 -0.0214  0.4500 -0.5603
    1W        W31299   8.342   3.998   8.732  0.3306 -0.3097  0.1642
    1W        W31300  24.585  10.867   9.309  0.2117 -0.1844  0.2019
    1W        W31301   3.531   6.894   2.245  0.2933  0.0428  0.0757
    1W        W31302  23.101   5.537   7.018 -0.1188 -0.0530 -0.0260
    1W        W31303   3.382  15.837   1.063  0.2028 -0.0027 -0.0307
    1W        W31304  23.276  15.582   0.568  0.0523 -0.2221  0.1667
    1W        W31305  23.347  14.107   7.572  0.3829  0.0601 -0.0707
    1W        W31306  21.224  29.120   8.767 -0.0698  0.1517  0.0143
    1W        W31307  22.544   9.935   8.821  0.1849  0.0906 -0.1968
    1W        W31308  18.888  21.789   0.811 -0.3919 -0.2200 -0.1790
    1W        W31309  23.085  11.238   9.423 -0.0861 -0.1251 -0.0686
    1W        W31310  19.944  18.232   8.203 -0.0643 -0.0203 -0.1837
    1W        W31311   2.801  26.391   6.888  0.1701 -0.0393  0.1022
    1W        W31312  25.406   5.019   0.612 -0.0151  0.4498 -0.0647
    1W        W31313  18.939   5.162   8.954  0.1846 -0.0273  0.1816
    1W        W31314  24.667  11.139   7.592 -0.0389 -0.2070 -0.1460
    1W        W31315  18.447   8.484   8.144 -0.0314 -0.1756 -0.0139
    1W        W31316  24.587  16.809   8.799 -0.0862  0.0355 -0.1704
    1W        W31317   8.211  21.028   7.065 -0.2277 -0.1280 -0.0746
    1W        W31318  15.675   0.509   6.884 -0.0193 -0.0822  0.0800
    1W        W31319  10.561   5.243   7.595 -0.1156  0.0559  0.1083
    1W        W31320  25.725  27.756   1.084 -0.1251 -0.1794 -0.0538
    1W        W31321  16.354   4.397   9.453 -0.0053 -0.0206 -0.1970
    1W        W31322  15.308   2.954   2.082  0.0162  0.1561  0.0021
    1W        W31323  28.321   0.547   7.203  0.0161  0.0504  0.0407
    1W        W31324  21.844  18.396   7.865  0.0451  0.0498  0.1318
    1W        W31325   4.094   2.782   7.278 -0.1184  0.1619  0.0841
    1W        W31326   4.547  22.922   0.725  0.0703  0.0565  0.0669
    1W        W31327  26.492  23.214   8.944  0.2438  0.0570  0.2399
    1W        W31328  21.021   9.188   8.743 -0.1717  0.1669 -0.1280
    1W        W31329   0.263   7.738   2.125  0.2088 -0.5370 -0.0714
    1W        W31330   4.589   5.492   1.520 -0.1376  0.0816 -0.1169
    1W        W31331  21.645   3.547   2.302  0.2035  0.2291 -0.0799
    1W        W31332  13.103  16.966   7.768  0.1665  0.1529 -0.1470
    1W        W31333  26.386  22.702   2.448  0.3970 -0.1796 -0.1141
    1W        W31334  24.745  10.794   1.412 -0.0348  0.2049  0.1720
    1W        W31335   6.553  18.456   8.683  0.1103  0.1472  0.0794
    1W        W31336   9.829  18.626   7.124  0.2607  0.0132  0.1537
    1W        W31337  15.548  26.960   3.236  0.0139 -0.2707 -0.0745
    1W        W31338  22.980  21.005   2.148  0.0331  0.1290 -0.0975
    1W        W31339  17.702   3.356   9.156  0.2072 -0.2140 -0.1045
    1W        W31340  28.972  23.799   0.856  0.1283 -0.1377 -0.0162
    1W        W31341  19.811  23.562   8.280  0.1582  0.0241 -0.2977
    1W        W31342  17.313   5.063   8.632  0.0180  0.0764 -0.2318
    1W        W31343  25.605  27.425   8.320  0.2734  0.1485  0.1440
    1W        W31344   1.804   6.837   8.030 -0.1697 -0.1978  0.0046
    1W        W31345  22.302  15.118   6.510 -0.1927 -0.3597  0.2762
    1W        W31346   8.712  26.907   7.905  0.0541 -0.3384 -0.1868
    1W        W31347  23.542   9.963   0.197  0.3200 -0.2190 -0.3262
    1W        W31348  11.766   9.194   7.571 -0.0078 -0.1575  0.0587
    1W        W31349   5.399  21.204   9.212 -0.0745 -0.0484 -0.2630
    1W        W31350  12.287  20.443   0.295 -0.1949 -0.2600  0.0221
    1W        W31351  19.978  17.922   7.544 -0.1168  0.1972  0.2646
    1W        W31352  12.306   0.141   2.506  0.0564  0.4002  0.1836
    1W        W31353   0.285  18.916   2.176  0.1093 -0.0622  0.0024
    1W        W31354   0.614   1.029   1.078  0.0717  0.0941  0.0737
    1W        W31355   3.029  19.780   8.075 -0.2320 -0.3257 -0.1842
    1W        W31356  19.865  24.741   2.628 -0.1197  0.1070  0.0347
    1W        W31357  16.462  14.298   7.993  0.1836  0.2205 -0.4989
    1W        W31358   8.628  18.525   9.269  0.0187 -0.0446 -0.0517
    1W        W31359  27.906  11.976   9.054  0.0863 -0.0123 -0.0346
    1W        W31360  14.319  19.990   7.383  0.0377 -0.0511 -0.2409
    1W        W31361   0.108   4.687   6.874  0.0261  0.0999 -0.1438
    1W        W31362   9.103  29.251   8.400 -0.0278 -0.1440 -0.4527
    1W        W31363   2.224  26.553   7.686  0.0941 -0.0448  0.2520
    1W        W31364   6.225   3.928   1.652 -0.1614  0.2748  0.3761
    1W        W31365   9.018   1.828   2.617 -0.1278 -0.0048 -0.2612
    1W        W31366   8.786   4.409   0.603  0.2494  0.0535  0.1303
    1W        W31367  16.797  13.478   1.604  0.2259 -0.2575 -0.0208
    1W        W31368   9.962   3.578   0.883  0.0322  0.0879  0.0840
    1W        W31369  24.773   0.980   2.600  0.4188 -0.0544  0.2953
    1W        W31370  26.021   9.167   6.920  0.1480  0.0432 -0.1634
    1W        W31371  18.503   1.974   1.221  0.0770  0.0112  0.0672
    1W        W31372  11.052  28.048   1.864 -0.0015  0.0439 -0.3429
    1W        W31373  23.746  22.186   3.336 -0.0679  0.0863 -0.3657
    1W        W31374   0.887   7.013   9.072 -0.1169 -0.1348  0.1451
    1W        W31375  27.949  14.128   2.019 -0.0625  0.1060 -0.1665
    1W        W31376   3.812  10.106   7.124 -0.1062  0.0757 -0.2978
    1W        W31377  20.010   0.468   2.213 -0.0651  0.3246  0.2351
    1W        W31378  12.222  28.467   6.698 -0.1559  0.2071 -0.1597
    1W        W31379  25.922  22.713   2.215 -0.1846 -0.2329 -0.3728
    1W        W31380  17.664  29.897   7.546  0.1364  0.3034  0.1523
    1W        W31381  26.899   0.558   2.148  0.0827  0.0764  0.0841
    1W        W31382  26.833   3.468   2.888  0.1518 -0.0201 -0.0068
    1W        W31383  26.146  23.500   8.040 -0.0029  0.0216  0.0612
    1W        W31384   7.333  15.378   0.480 -0.1965 -0.0983 -0.2930
    1W        W31385   9.131   5.541   0.972 -0.0721 -0.2881 -0.1184
    1W        W31386  12.265  18.128   1.591  0.0323 -0.2238 -0.2959
    1W        W31387  11.223  19.391   7.556  0.1760 -0.2971  0.0589
    1W        W31388  20.612  14.653   0.967  0.4974  0.1443 -0.0575
    1W        W31389  22.322  17.425   1.154  0.2532  0.2809 -0.1500
    1W        W31390  26.283   1.471   1.774 -0.1151  0.0288  0.1671
    1W        W31391  15.107   2.331   8.468 -0.0342  0.1502 -0.2949
    1W        W31392  25.598  23.404   1.634  0.0179  0.0743  0.2421
    1W        W31393   4.940  12.970   0.042 -0.1098 -0.0539 -0.1724
    1W        W31394  23.254   0.765   2.634 -0.0211 -0.2430 -0.1844
    1W        W31395  29.564   8.451   8.806 -0.0552  0.1433  0.0242
    1W        W31396   7.072  13.139   6.921 -0.1386  0.2629 -0.0634
    1W        W31397   9.970  12.633   7.258 -0.0494 -0.2034  0.2502
    1W        W31398   8.518  12.567   7.748  0.1455 -0.0678 -0.0438
    1W        W31399  23.072   6.684   3.519 -0.0161 -0.2392 -0.3400
    1W        W31400   8.415   3.962   2.679  0.1233 -0.0709 -0.2810
    1W        W31401  12.206  27.837   1.101 -0.0040 -0.0445  0.0523
    1W        W31402  29.546  12.266   8.771 -0.0220  0.0210 -0.2776
    1W        W31403   7.217  17.773   8.245 -0.2408 -0.0312  0.1300
    1W        W31404   5.570   0.220   1.618 -0.1579  0.3792 -0.1143
    1W        W31405   7.176  17.864   1.419 -0.0564  0.0312  0.0102
    1W        W31406  21.270   8.654   9.448  0.1479  0.1168  0.1020
    1W        W31407   2.800  10.526   1.378 -0.2084  0.0364 -0.4340
    1W        W31408   2.788   8.007   2.617 -0.1809  0.0091  0.1636
    1W        W31409   4.376  18.899   7.230  0.1321 -0.0495  0.0527
    1W        W31410  29.366  19.831   7.263 -0.1125 -0.0509 -0.2246
    1W        W31411  21.744  25.389   9.095 -0.1095  0.4940  0.1231
    1W        W31412  17.493  29.053   0.126 -0.1012  0.2051  0.0473
    1W        W31413  14.400  19.743   8.854  0.2165  0.0142 -0.2534
    1W        W31414  26.752  29.518   1.343  0.2091 -0.2101 -0.1793
    1W        W31415  14.959   8.395   1.433  0.1336 -0.1349  0.0380
    1W        W31416  16.151  21.838   7.230  0.1847 -0.3490  0.0071
    1W        W31417  10.408  10.716   2.273 -0.1045 -0.0431 -0.1638
    1W        W31418  21.621  16.882   7.623  0.2219  0.2568 -0.0229
    1W        W31419  12.312  24.874   6.510  0.0869  0.1622 -0.1043
    1W        W31420  25.178  29.907   9.117  0.1333 -0.2783 -0.0278
    1W        W31421   2.663  26.701   1.875  0.1645  0.1020  0.3824
    1W        W31422   8.563  27.868   7.520  0.1203  0.0914 -0.0121
    1W        W31423  18.341   4.838   6.579  0.1306  0.1920 -0.0734
    1W        W31424   8.115  23.113   8.936  0.2826  0.4546  0.1612
    1W        W31425   7.778   1.032   2.864 -0.0247  0.1868 -0.3031
    1W        W31426  28.709   5.905   0.983 -0.2826 -0.0440 -0.0020
    1W        W31427   5.575  16.685   1.034 -0.0746  0.2482  0.1890
    1W        W31428   3.742   1.328   7.569  0.0274  0.0313 -0.0788
    1W        W31429   0.032  19.271   7.096  0.1453 -0.4405 -0.0947
    1W        W31430  27.342  29.381   7.589 -0.0294 -0.1785 -0.3215
    1W        W31431   4.738  11.715   8.629 -0.1089  0.4261  0.1034
    1W        W31432   8.535   7.333   8.393  0.2063  0.2551 -0.3871
    1W        W31433  19.191  15.178   8.954  0.1624  0.0905 -0.0762
    1W        W31434  26.301   0.559   6.637 -0.0544 -0.4737  0.1010
    1W        W31435  27.020  24.060   8.325 -0.2540  0.0293 -0.0065
    1W        W31436  24.037  14.665   1.003 -0.0092 -0.0766  0.0389
    1W        W31437  28.927   3.535   8.925  0.1286  0.0059 -0.2986
    1W        W31438  26.499   8.129   1.703 -0.3414 -0.0209  0.0474
    1W        W31439   1.740  24.853   6.641  0.1938 -0.0966  0.0973
    1W        W31440  10.356  19.173   2.118  0.0707 -0.3054  0.1039
    1W        W31441  28.896  22.089   7.100 -0.1988  0.1032 -0.0409
    1W        W31442  22.186  11.491   8.992  0.0740 -0.0941 -0.1108
    1W        W31443  17.874  27.995   7.167  0.0150  0.0512 -0.1462
    1W        W31444  13.166  24.080   0.461  0.0974 -0.1546  0.2069
    1W        W31445  11.957   9.938   1.387  0.0015 -0.2052 -0.2739
    1W        W31446  18.568   3.854   6.934 -0.0425 -0.1658  0.0678
    1W        W31447  10.974   2.614   0.318 -0.1915 -0.3205  0.1731
    1W        W31448  18.575   0.059   0.152 -0.0125  0.2080 -0.5533
    1W        W31449  23.139  22.054   2.087 -0.0592  0.1697  0.1170
    1W        W31450  23.033   5.732   8.701  0.0471  0.1055 -0.0935
    1W        W31451  19.387   7.265   7.434  0.1130 -0.0543 -0.0793
    1W        W31452  15.649  14.052   1.628 -0.0098  0.1154 -0.2547
    1W        W31453  16.881  14.355   7.190  0.0984  0.1070  0.1250
    1W        W31454  24.104  25.764   1.399 -0.0734  0.0959 -0.1878
    1W        W31455  16.736  29.584   3.414  0.0802  0.1913  0.3502
    1W        W31456   2.303  12.978   2.716 -0.0104 -0.1489  0.1178
    1W        W31457  11.619  13.192   0.813  0.1534 -0.1589  0.3876
    1W        W31458   4.961  26.746   0.924  0.2138 -0.0223  0.1226
    1W        W31459  18.414   0.211   2.714  0.2587 -0.1185 -0.0538
    1W        W31460   5.282  11.751   0.824 -0.1050  0.3343  0.0324
    1W        W31461  14.096   8.127   7.655 -0.1660  0.0214  0.1807
    1W        W31462  28.724  16.907   0.498 -0.4173  0.0855 -0.3015
    1W        W31463  25.483  11.441   7.606  0.0955 -0.0780 -0.0312
    1W        W31464   9.562  12.353   1.182 -0.0088  0.1506  0.2797
    1W        W31465  26.388   1.795   7.965  0.1628  0.0688  0.2245
    1W        W31466  10.316  21.048   2.569 -0.2657 -0.0069 -0.0636
    1W        W31467   8.844  29.729   1.214  0.1206 -0.1304  0.3000
    1W        W31468  17.791   6.262   0.490  0.0146 -0.4004 -0.1538
    1W        W31469   1.144   8.921   2.943  0.1169 -0.0191  0.0476
    1W        W31470   5.938  16.868   8.156 -0.2452 -0.0712 -0.2024
    1W        W31471   0.620   5.140   7.368 -0.4780 -0.1296  0.0935
    1W        W31472  26.451   4.396   0.178 -0.0846 -0.0513 -0.1276
    1W        W31473  13.322  22.336   8.077 -0.2034 -0.1467  0.1903
    1W        W31474  28.563   3.807   1.405 -0.0182  0.1825  0.1978
    1W        W31475  23.424   2.811   8.814 -0.0783  0.2050  0.0453
    1W        W31476  24.535  17.050   7.803  0.1660 -0.0116  0.1270
    1W        W31477   6.914  15.141   0.573 -0.1537 -0.1761 -0.0327
    1W        W31478  18.178  12.876   0.355 -0.1838 -0.1270  0.1035
    1W        W31479   5.344   7.779   7.869 -0.1386  0.0528  0.0740
    1W        W31480  27.910  23.482   8.915 -0.0341 -0.2412  0.3099
    1W        W31481   3.947  13.664   0.083 -0.0121 -0.0769  0.0116
    1W        W31482  10.840  14.806   8.691  0.0298  0.1273 -0.1624
    1W        W31483   9.900  18.235   0.251 -0.0990  0.1415 -0.0749
    1W        W31484  25.422  17.649   6.939  0.0280  0.0345 -0.2279
    1W        W31485   3.253  11.949   6.942  0.1366  0.3170  0.0127
    1W        W31486  10.250   8.353   1.815 -0.0760 -0.0529 -0.4264
    1W        W31487   6.265  17.849   8.093  0.0683  0.1647  0.3858
    1W        W31488  21.395  29.640   8.430 -0.0003 -0.0366  0.1542
    1W        W31489   5.312  26.480   9.434 -0.0151 -0.0099 -0.1632
    1W        W31490   3.601  10.694   9.065 -0.0594  0.2705  0.2259
    1W        W31491  11.667   7.193   8.661  0.2678  0.0310  0.1109
    1W        W31492   5.247  19.751   9.173 -0.3997  0.1894 -0.0387
    1W        W31493  22.202  21.944   7.345  0.2266  0.3815  0.0760
    1W        W31494  22.128   6.805   9.444 -0.0675  0.0218 -0.0074
    1W        W31495   4.343  16.626   1.481  0.1058 -0.0062 -0.1334
    1W        W31496  19.115   6.679   0.737 -0.0474 -0.0198 -0.1606
    1W        W31497   8.722  10.172   8.955  0.3313 -0.0164 -0.0004
    1W        W31498   8.779   0.094   8.917  0.3043  0.1761  0.1081
    1W        W31499  26.830   5.380   8.982 -0.1890 -0.1035  0.1087
    1W        W31500   9.631  26.703   0.253 -0.2952  0.0955 -0.2891
    1W        W31501   6.943   4.913   0.834  0.1090  0.0209 -0.2264
    1W        W31502   0.131   3.178   0.454 -0.0824  0.0440  0.2838
    1W        W31503  20.571   1.728   6.983 -0.1715 -0.0795 -0.1945
    1W        W31504  24.320  12.500   1.995 -0.1425  0.1660 -0.0564
    1W        W31505  21.196  28.886   7.682 -0.0554 -0.0756 -0.1899
    1W        W31506  15.956  20.516   7.685  0.2196  0.2730 -0.0916
    1W        W31507   4.837  12.670   8.183  0.0648 -0.2511  0.1838
    1W        W31508  14.209   8.384   8.780 -0.2760 -0.0627  0.0523
    1W        W31509   7.695  20.769   8.519  0.1094 -0.2137  0.0163
    1W        W31510   8.883  24.369   6.880  0.0752 -0.2990 -0.0139
    1W        W31511  11.026  27.056   3.074 -0.0735 -0.0311 -0.4540
    1W        W31512  17.100  23.171   8.529  0.1086  0.1408  0.0959
    1W        W31513  11.209  20.881   6.377  0.1837 -0.1940  0.0931
    1W        W31514  16.799  19.663   6.900  0.4288  0.1763 -0.1714
    1W        W31515  17.013   4.413   1.675  0.1178  0.1383  0.1755
    1W        W31516   9.328  26.261   7.816  0.0704 -0.0926  0.3706
    1W        W31517  20.464  25.571   1.338  0.0921 -0.0229  0.3426
    1W        W31518  21.904   8.173   7.464  0.2884  0.1088 -0.1571
    1W        W31519   3.607  27.061   7.958  0.1222  0.2515 -0.2632
    1W        W31520   8.253   5.871   8.945 -0.1403 -0.0830  0.3105
    1W        W31521   1.018  22.192   2.149  0.1047 -0.0417 -0.2051
    1W        W31522  22.625  12.604   8.457 -0.2251 -0.0896  0.3220
    1W        W31523  22.592  15.117   8.279  0.0764 -0.0193 -0.0020
    1W        W31524  10.574  24.349   6.410 -0.0890 -0.4784 -0.1078
    1W        W31525  20.316   5.993   7.468  0.1463 -0.2178 -0.0757
    1W        W31526  22.008  10.216   9.285 -0.1571  0.2278  0.0016
    1W        W31527  15.917  25.385   2.721 -0.1813 -0.0072  0.1771
    1W        W31528  21.766  29.900   0.408 -0.0663 -0.2462  0.0933
    1W        W31529  23.479  28.937   8.203 -0.0479  0.1130 -0.1635
    1W        W31530  20.580   2.314   2.196  0.0451 -0.0886 -0.1919
    1W        W31531  13.662   6.980   7.025  0.0758 -0.1641 -0.0914
    1W        W31532   9.484  16.254   8.748  0.0874 -0.1243  0.1598
    1W        W31533  29.851  12.165   8.394  0.1401  0.0089  0.1000
    1W        W31534  22.154  14.241   0.927  0.1035  0.1479 -0.2796
    1W        W31535   4.723  14.615   9.038 -0.1372 -0.0210  0.0640
    1W        W31536   1.939  29.454   7.933  0.0942 -0.4567 -0.2786
    1W        W31537  10.687   8.860   8.320 -0.0667 -0.0013 -0.0580
    1W        W31538   2.044  17.660   1.728  0.1072 -0.2329  0.2439
    1W        W31539  29.285  28.389   7.266  0.1149  0.2585  0.0892
    1W        W31540  27.054   9.358   6.808 -0.0879 -0.0453 -0.0862
    1W        W31541  10.281  28.401   8.903  0.0355 -0.0398 -0.2874
    1W        W31542   3.714   4.611   7.554 -0.1400  0.0838 -0.2397
    1W        W31543   4.404  19.769   6.295 -0.1267 -0.0774 -0.0933
    1W        W31544  17.259  23.520   8.202  0.0086  0.1679  0.0771
    1W        W31545  20.809  19.236   0.648  0.0093 -0.3085 -0.2741
    1W        W31546  16.522  27.084   0.758 -0.2653 -0.2629 -0.3142
    1W        W31547  19.018   4.084   6.830 -0.3031  0.2367  0.0391
    1W        W31548  18.985  12.198   0.252  0.0358  0.1345  0.1077
    1W        W31549  29.312  11.190   0.366 -0.0987 -0.1526  0.0213
    1W        W31550  24.948  16.849   7.128 -0.0451 -0.2895  0.1739
    1W        W31551  14.125   2.610   0.530  0.1470 -0.1978 -0.1961
    1W        W31552  19.319  21.076   0.364  0.3367  0.1830  0.1506
    1W        W31553   1.765  29.275   0.780 -0.1555  0.0130 -0.0721
    1W        W31554   7.089  14.080   6.885  0.2950  0.0980  0.0820
    1W        W31555   9.625   9.256   2.164 -0.0689 -0.0839  0.1328
    1W        W31556   6.975   1.114   3.651  0.0742  0.1187 -0.0515
    1W        W31557  14.386   3.227   7.368 -0.1305 -0.0814  0.0525
    1W        W31558   3.810  23.783   6.160 -0.0964  0.0423  0.0218
    1W        W31559   7.982  22.468   1.049 -0.0479 -0.2007 -0.0694
    1W        W31560  14.859   9.727   9.419  0.0165  0.0912  0.0603
    1W        W31561   7.218   5.234   2.167  0.0064  0.2335  0.2218
    1W        W31562   0.564  27.926   6.990  0.0909 -0.0646 -0.3957
    1W        W31563  13.107  22.222   1.053 -0.1958  0.0959  0.0667
    1W        W31564  10.015   8.732   0.575  0.0469 -0.1854  0.2748
    1W        W31565   0.247  15.348   7.475 -0.2778 -0.3018 -0.0589
    1W        W31566  11.140   7.122   8.480 -0.2307  0.0365 -0.1464
    1W        W31567  21.627  21.119   7.856 -0.0607 -0.0180 -0.0180
    1W        W31568   6.991  17.291   1.934  0.1523 -0.0426 -0.3092
    1W        W31569  21.365  20.285   6.892  0.3032 -0.3098 -0.2375
    1W        W31570  24.562  17.703   1.158  0.0434  0.1523 -0.0532
    1W        W31571  14.290   4.839   2.663 -0.2334 -0.4459  0.1301
    1W        W31572   8.391  20.792   2.328 -0.3860 -0.0623 -0.2365
    1W        W31573  26.801  23.469   8.575 -0.2014  0.1848 -0.0248
    1W        W31574  26.601  18.798   0.412 -0.1451 -0.0022 -0.1101
    1W        W31575  20.772  10.014   1.017  0.0904 -0.3637 -0.0930
    1W        W31576  20.309  14.039   7.647  0.1433  0.0555 -0.0082
    1W        W31577  24.309  25.128   2.579 -0.0890  0.0648 -0.3183
    1W        W31578   8.892  28.749   8.666  0.1464  0.1646  0.0138
    1W        W31579  23.211  28.885   6.916 -0.1315  0.0050  0.0032
    1W        W31580   4.330  10.404   7.048  0.3706  0.3401  0.0259
    1W        W31581  22.683  16.888   6.449 -0.0327 -0.1366  0.2002
    1W        W31582  10.773  14.623   1.501 -0.1092 -0.0154  0.3379
    1W        W31583  10.235   8.116   1.315 -0.1486 -0.1955  0.1139
    1W        W31584  22.221  22.455   8.731  0.2685  0.2957  0.1277
    1W        W31585  27.862  22.471   7.163 -0.1636  0.0821  0.0914
    1W        W31586  18.983   2.289   9.194  0.0592  0.2207 -0.2389
    1W        W31587  13.863   4.254   9.108  0.0460  0.1998  0.1444
    1W        W31588  20.058  25.599   8.441  0.0100  0.0587 -0.4659
    1W        W31589  11.604   1.793   8.086 -0.1272 -0.1592  0.0151
    1W        W31590  23.043   8.821   3.162  0.2342  0.1524  0.0507
    1W        W31591  28.857   8.401   7.185  0.2065  0.1393  0.2697
    1W        W31592  10.323  13.020   7.615 -0.1318 -0.0210  0.0906
    1W        W31593  25.573   9.421   2.728 -0.0793 -0.0037 -0.2615
    1W        W31594  18.649  27.965   9.401 -0.2324 -0.0057 -0.1538
    1W        W31595  15.358  15.402   8.086  0.2979  0.1600  0.0888
    1W        W31596  23.066  29.328   7.073  0.0205  0.2584 -0.0069
    1W        W31597   5.076  24.889   7.800  0.0944 -0.1135  0.0064
    1W        W31598  17.699  15.335   9.098 -0.0441  0.2196  0.1242
    1W        W31599   6.967   9.484   1.372  0.1038  0.1373  0.2131
    1W        W31600  15.066  12.534   9.296 -0.2528  0.0861 -0.0498
    1W        W31601  20.493  16.102   1.937  0.0448 -0.0595 -0.2653
    1W        W31602   0.829  13.699   1.334 -0.0769 -0.1819  0.0750
    1W        W31603  27.074  25.985   2.089  0.2454  0.0331  0.0301
    1W        W31604   7.247  24.139   0.885 -0.1973 -0.1335 -0.0421
    1W        W31605   2.565   6.181   6.916 -0.3897 -0.3102  0.2287
    1W        W31606   9.239   2.380   9.287 -0.1672 -0.0257  0.2112
    1W        W31607  20.142  14.108   9.264  0.4725 -0.0107  0.0974
    1W        W31608  25.363  10.538   0.458 -0.0603 -0.0302  0.1219
    1W        W31609  29.189  26.840   7.398 -0.0132 -0.2063  0.1058
    1W        W31610  10.236   1.117   2.806  0.2990  0.0257  0.0234
    1W        W31611   5.420  10.548   2.119  0.2389 -0.0082 -0.2607
    1W        W31612   8.046  25.542   7.514 -0.0578 -0.0240 -0.0828
    1W        W31613  17.945  25.586   3.135  0.3021  0.2365 -0.0808
    1W        W31614   3.197   1.080   2.930  0.3173 -0.3367 -0.1514
    1W        W31615   0.892   2.337   8.506 -0.0799 -0.0651 -0.0520
    1W        W31616   2.254  27.502   8.843 -0.0781  0.0021 -0.0491
    1W        W31617  22.428  18.074   2.198  0.1445 -0.4067 -0.0307
    1W        W31618  17.869  18.485   2.623 -0.0937 -0.1721 -0.0803
    1W        W31619  20.333  18.426   0.169 -0.2227 -0.2837  0.0120
    1W        W31620  26.671   2.455   0.446  0.2044 -0.0083 -0.1090
    1W        W31621  11.851  16.311   7.966  0.0391  0.0522 -0.1022
    1W        W31622  24.336   6.715   1.419  0.0617  0.1453  0.0488
    1W        W31623   3.673  12.008   1.194 -0.0313 -0.2236  0.0261
    1W        W31624  25.868  25.765   7.769  0.1673 -0.0209 -0.1428
    1W        W31625  25.365   5.480   1.531  0.2207 -0.0920  0.0715
    1W        W31626  16.838  26.966   7.433  0.1491 -0.6564  0.0907
    1W        W31627   4.756  19.625   8.543 -0.0991  0.2731 -0.1258
    1W        W31628   2.724  22.795   0.683  0.0068 -0.1410  0.3764
    1W        W31629  18.702  17.127   0.227 -0.1104 -0.0171  0.3565
    1W        W31630  13.474   0.020   8.880  0.1109 -0.0024  0.5304
    1W        W31631  18.146   9.070   8.079  0.0920  0.0348 -0.0114
    1W        W31632   1.185  25.404   0.500  0.0078  0.1279 -0.0231
    1W        W31633  21.594  22.972   8.624 -0.1767 -0.0030 -0.1676
    1W        W31634   0.827  25.892   1.268 -0.4775 -0.0921  0.3401
    1W        W31635  11.810   2.973   2.438 -0.2856 -0.0733  0.0175
    1W        W31636   6.025   6.729   0.907 -0.0552 -0.0539 -0.1231
    1W        W31637  15.780  27.764   2.702  0.1579 -0.2941 -0.5028
    1W        W31638   4.232   1.340   7.333 -0.0505  0.2445 -0.0728
    1W        W31639  20.612  13.238   7.646  0.1138 -0.1894 -0.2064
    1W        W31640  26.415   4.623   0.661 -0.0576 -0.0346 -0.0298
    1W        W31641  26.029  20.338   0.785  0.2826  0.0441 -0.2316
    1W        W31642  26.396  24.461   2.883 -0.0026  0.0852 -0.3445
    1W        W31643  27.186  27.778   0.130  0.1861 -0.4964 -0.2620
    1W        W31644   8.717  29.042   2.923  0.2432 -0.0413  0.0520
    1W        W31645   6.607   4.568   1.717  0.0825  0.3843  0.0028
    1W        W31646   5.192  16.887   1.282  0.0855 -0.2709 -0.1650
    1W        W31647  16.924   6.741   8.187 -0.2969 -0.3994  0.1920
    1W        W31648  10.448   0.883   0.217  0.0229 -0.2039  0.1564
    1W        W31649  10.634  26.332   9.435 -0.1535 -0.2395  0.1020
    1W        W31650   7.377  17.610   1.043 -0.0953  0.1167  0.1875
    1W        W31651  13.124  22.511   6.648 -0.0098 -0.0433 -0.1219
    1W        W31652   8.650  11.837   8.180  0.1343 -0.0272 -0.0366
    1W        W31653  28.004  16.358   9.196 -0.0396  0.3947  0.0859
    1W        W31654  10.048   3.763   8.081 -0.1120  0.1426 -0.2592
    1W        W31655  12.331  24.757   9.339  0.2765  0.3594 -0.0396
    1W        W31656   3.119  11.552   0.742  0.2364  0.2437 -0.0374
    1W        W31657  28.944   8.135   2.255  0.1176 -0.0417  0.0763
    1W        W31658  16.205   8.013   8.967 -0.1341 -0.1304 -0.0755
    1W        W31659  22.224  28.751   8.717 -0.3223 -0.2432 -0.2509
    1W        W31660  20.743   3.184   1.079 -0.0562 -0.1241  0.0967
    1W        W31661  27.479  24.733   8.514 -0.4388 -0.0876 -0.0867
    1W        W31662  20.690   6.585   1.613  0.0206 -0.1423 -0.1935
    1W        W31663   4.634  19.398   1.997  0.0048 -0.0239 -0.2936
    1W        W31664   3.300   5.815   7.867  0.0934  0.1584 -0.1328
    1W        W31665   5.610  23.563   1.952  0.0893 -0.0494  0.1151
    1W        W31666  11.729   8.075   8.807  0.2526 -0.2574  0.0680
    1W        W31667  20.049  23.348   8.951  0.2511  0.2205 -0.1086
    1W        W31668  27.455   1.152   9.364  0.2499 -0.0935 -0.0314
    1W        W31669  13.007  20.871   8.108  0.0658  0.5001 -0.1346
    1W        W31670   4.099   0.954   7.751  0.1479 -0.0475  0.1152
    1W        W31671   5.127  16.563   0.883 -0.3222  0.4074  0.1479
    1W        W31672  19.898   4.253   9.124  0.0154 -0.4751  0.1782
    1W        W31673  20.290   5.771   7.915 -0.2921  0.1148 -0.1678
    1W        W31674  16.014  21.781   0.807 -0.1457  0.0042 -0.1207
    1W        W31675   4.419   3.769   1.392 -0.0551 -0.0733 -0.1796
    1W        W31676   4.893   4.148   2.395 -0.6059  0.2427 -0.4384
    1W        W31677  27.481  22.060   6.953  0.0662 -0.0575  0.1170
    1W        W31678  18.010  28.041   2.216  0.1797 -0.0417  0.0252
    1W        W31679   4.296  18.637   1.545 -0.0960  0.0045 -0.1915
    1W        W31680   3.520   2.010   7.396 -0.0919  0.1079  0.1341
    1W        W31681   2.058   9.800   2.303 -0.4412 -0.0737 -0.1206
    1W        W31682   7.291  28.061   1.837 -0.0950 -0.1469 -0.2169
    1W        W31683  20.642  21.402   1.693 -0.3585 -0.1015 -0.0519
    1W        W31684   6.355  14.338   1.829  0.3208  0.0851  0.0638
    1W        W31685  27.229  19.070   2.061 -0.4797 -0.0630  0.1234
    1W        W31686  20.302   4.223   2.191 -0.0890  0.0441 -0.0748
    1W        W31687  24.493  26.577   2.665  0.4454  0.1971 -0.0641
    1W        W31688  22.802  15.594   7.152  0.1683 -0.0379  0.0567
    1W        W31689   4.825  25.989   0.500  0.3369 -0.2535  0.1227
    1W        W31690  13.881   9.581   9.220 -0.2424  0.0235 -0.3526
    1W        W31691   8.344  16.722   6.586  0.0883  0.1456 -0.0143
    1W        W31692  18.557  26.610   2.269  0.2117  0.0687  0.2548
    1W        W31693  24.549  12.428   7.374 -0.3048 -0.2208 -0.3190
    1W        W31694  13.528  21.627   0.670  0.1209 -0.0295 -0.1666
    1W        W31695  21.204   3.857   8.856  0.1475  0.0053 -0.3761
    1W        W31696  23.077   8.274   1.717  0.1884  0.2570  0.4529
    1W        W31697   9.160   7.036   3.470  0.4328 -0.0288  0.0367
    1W        W31698  13.890  20.762   1.976 -0.0990 -0.2332 -0.1606
    1W        W31699  13.589  24.342   0.409 -0.1386 -0.0896  0.0999
    1W        W31700  15.545  23.862   8.366 -0.0227 -0.1395 -0.3106
    1W        W31701   0.902  19.109   1.288 -0.1360 -0.0256 -0.2318
    1W        W31702  12.374  17.199   2.664 -0.0002  0.2709  0.0502
    1W        W31703   4.805   7.491   7.045 -0.0335  0.1699 -0.1088
    1W        W31704   1.810   7.132   2.457  0.1769  0.0147 -0.1430
    1W        W31705   3.904  14.606   8.028 -0.1413 -0.2255  0.0550
    1W        W31706   0.715  18.515   8.061  0.1609 -0.2042  0.1928
    1W        W31707  23.132  26.453   2.208 -0.2408  0.1671  0.0329
    1W        W31708   8.052  25.483   8.397  0.1675 -0.0897 -0.0850
    1W        W31709  11.674  24.794   7.108 -0.2043 -0.1864 -0.0711
    1W        W31710   6.164   0.236   2.515  0.0861 -0.0045  0.0108
    1W        W31711  11.603  18.377   8.247 -0.2937 -0.2031  0.1363
    1W        W31712   3.718   3.102   1.916 -0.2188  0.0133  0.2058
    1W        W31713  13.043  16.057   6.313  0.6070 -0.1065  0.3200
    1W        W31714  18.902   3.389   0.163  0.1644  0.2838  0.0231
    1W        W31715   2.203  15.061   0.599 -0.1572  0.0741  0.2144
    1W        W31716   0.249  10.280   1.465 -0.1993  0.1151 -0.3652
    1W        W31717  14.431  23.810   7.032 -0.1101  0.0935 -0.2040
    1W        W31718  27.352  24.762   2.425  0.1775  0.0155  0.0182
    1W        W31719  23.095  19.076   8.169 -0.1686  0.0285 -0.2149
    1W        W31720   2.764   5.389   0.602  0.0759  0.3072  0.0882
    1W        W31721  12.643  16.921   7.471 -0.1427 -0.0903  0.1634
    1W        W31722  19.922  14.827   1.809 -0.1566 -0.0567 -0.3153
    1W        W31723  14.514   8.693   2.302  0.3216 -0.2946  0.0261
    1W        W31724  22.637   8.192   6.618 -0.0989 -0.0757  0.0627
    1W        W31725   4.762  19.647   7.705 -0.0003  0.0626  0.1761
    1W        W31726  27.242  21.742   8.638  0.2752  0.0719  0.2346
    1W        W31727  27.623   3.718   7.013 -0.2460 -0.3150  0.0152
    1W        W31728  10.439   4.932   7.160  0.0169  0.0837  0.1392
    1W        W31729   3.202  10.537   2.004  0.0438 -0.2212 -0.2466
    1W        W31730   8.788  13.764   2.107 -0.1442 -0.0019  0.1941
    1W        W31731  26.688  21.960   6.704  0.2248  0.0012 -0.0625
    1W        W31732  14.551  14.256   9.258 -0.1138 -0.2754 -0.2256
    1W        W31733  11.043  28.202   0.081  0.0000  0.3754 -0.0958
    1W        W31734   1.582  18.234   7.668 -0.0400  0.0219 -0.1906
    1W        W31735  25.076  26.442   6.988 -0.2025 -0.1907 -0.1346
    1W        W31736  11.758   3.154   9.287 -0.0883 -0.1840 -0.0049
    1W        W31737  11.953  24.534   7.462  0.2130  0.1927  0.0013
    1W        W31738  22.808   9.461   2.504 -0.0438  0.0271  0.1983
    1W        W31739   2.586   7.435   7.649  0.4461  0.1142  0.0244
    1W        W31740  16.615   4.227   1.247  0.3587 -0.1848  0.0552
    1W        W31741   9.252  22.505   9.343 -0.1411 -0.2775  0.2421
    1W        W31742   3.741  26.885   8.459  0.3880 -0.0133  0.0724
    1W        W31743  21.843   0.335   8.877 -0.1974 -0.0969  0.0312
    1W        W31744  25.191  12.586   0.707 -0.2429 -0.0188  0.2210
    1W        W31745  12.409  22.906   6.089 -0.1238 -0.2399 -0.1687
    1W        W31746  10.555  19.087   9.462 -0.0224  0.1585  0.3538
    1W        W31747   2.715  29.753   2.321  0.2027 -0.1340 -0.0517
    1W        W31748  28.866  22.170   8.030  0.1524  0.0768 -0.2745
    1W        W31749  27.253   1.214   0.369 -0.0183 -0.1481 -0.0673
    1W        W31750   3.630  16.449   8.868  0.1263  0.1912  0.1672
    1W        W31751  15.351  23.182   9.030  0.2095 -0.3265  0.2673
    1W        W31752  21.937   4.793   6.833 -0.0508 -0.1956 -0.0661
    1W        W31753  28.093  23.459   2.555  0.3012  0.2319 -0.0803
    1W        W31754  13.907   1.111   6.749 -0.2270  0.0353 -0.5900
    1W        W31755   0.689   3.745   6.685  0.2438  0.1653  0.1724
    1W        W31756   9.752  22.575   7.762 -0.1587  0.1639  0.0198
    1W        W31757   4.932   6.698   8.391  0.1020 -0.2118  0.3206
    1W        W31758   6.608   3.460   2.591 -0.1678  0.2013 -0.0567
    1W        W31759  19.931   4.588   7.833 -0.0950 -0.1572  0.0983
    1W        W31760  18.401  26.226   7.897  0.1061 -0.1598  0.1386
    1W        W31761  12.440   5.222   3.878  0.1087  0.1397 -0.2537
    1W        W31762  28.593  24.835   0.624  0.0463  0.2831  0.2257
    1W        W31763  23.386   9.889   1.675 -0.6989 -0.0593 -0.4109
    1W        W31764   2.285   5.838   8.947  0.0121  0.2304 -0.2909
    1W        W31765   5.528   2.492   2.107  0.1826  0.0083 -0.0765
    1W        W31766  10.427   1.991   8.883 -0.0312  0.1430  0.1768
    1W        W31767  16.531   7.647   1.017  0.1993  0.0626 -0.0322
    1W        W31768  23.489  27.944   8.946 -0.1158 -0.1721 -0.1014
    1W        W31769  13.670  20.530   1.119 -0.0328 -0.0916 -0.0345
    1W        W31770   0.950  10.779   0.214 -0.2896  0.0489 -0.3588
    1W        W31771   2.520  20.300   0.319 -0.1656 -0.1842  0.0416
    1W        W31772  13.303  26.040   8.481  0.1817 -0.1072 -0.2334
    1W        W31773  28.624   6.531   1.931 -0.0386 -0.1647  0.0313
    1W        W31774  14.786  17.354   7.627 -0.1819 -0.2377 -0.1406
    1W        W31775  24.803   0.589   8.865 -0.1006  0.0452 -0.2108
    1W        W31776   9.724  24.011   9.225 -0.0336 -0.2199  0.3200
    1W        W31777  12.161  23.654   6.850 -0.0154  0.0939 -0.1122
    1W        W31778   9.181   6.859   8.928 -0.0571 -0.2012 -0.1947
    1W        W31779   3.935   2.425   7.991  0.2751 -0.1021 -0.0331
    1W        W31780  13.584  23.827   5.936 -0.0281  0.0123 -0.1055
    1W        W31781   2.372  22.880   7.533  0.0384 -0.1046  0.2119
    1W        W31782  20.147   1.813   8.627 -0.0679 -0.1951 -0.0957
    1W        W31783  15.871  15.566   8.306  0.2625 -0.0781 -0.1588
    1W        W31784  27.356  15.137   6.438 -0.1775 -0.1137  0.1734
    1W        W31785  24.974   5.915   2.330  0.3708 -0.1213 -0.1581
    1W        W31786  10.558  17.211   2.736  0.2480  0.0014 -0.1556
    1W        W31787   2.217   0.513   8.074 -0.2129  0.0491 -0.0207
    1W        W31788  16.826   5.825   1.233  0.0147  0.2043 -0.1696
    1W        W31789  17.249   9.281   8.117  0.3349 -0.2569 -0.1507
    1W        W31790  25.275  26.323   2.610  0.2824  0.3766 -0.2439
    1W        W31791  22.914   2.393   1.812 -0.0422 -0.2254 -0.1198
    1W        W31792   3.707   0.735   7.459  0.3764 -0.1725  0.0146
    1W        W31793  13.448  18.418   7.013  0.0941  0.0772  0.0946
    1W        W31794   8.789  28.505   2.835  0.0184  0.0218 -0.2259
    1W        W31795  16.833   8.907   6.204 -0.1386  0.1550 -0.0590
    1W        W31796  16.908  11.511   8.878 -0.1878 -0.1042  0.1523
    1W        W31797  21.794  23.942   8.813  0.1939  0.0312  0.3153
    1W        W31798   9.255  15.308   7.772  0.2767 -0.1111  0.0290
    1W        W31799  12.042  15.791   9.398 -0.0843 -0.2280  0.0982
    1W        W31800  25.374  27.284   6.644 -0.1211 -0.1745  0.2790
    1W        W31801  13.156  18.743   0.369 -0.1257  0.2412 -0.0106
    1W        W31802  18.691  10.346   1.697 -0.1869  0.3034 -0.2696
    1W        W31803  22.419   9.741   6.985  0.3567  0.2310 -0.0015
    1W        W31804  14.617  21.210   8.145  0.0515 -0.0101  0.1373
    1W        W31805  25.787  12.809   9.023 -0.2714 -0.0566 -0.0986
    1W        W31806  15.702   3.719   2.075 -0.0295 -0.0683 -0.1164
    1W        W31807  11.912  18.135   9.282  0.1407  0.4703 -0.0848
    1W        W31808  16.152  22.687   0.632  0.0234 -0.4793 -0.1103
    1W        W31809  28.325   1.490   9.276 -0.1849  0.2412 -0.1301
    1W        W31810  13.143  16.186   0.710 -0.3298  0.1110  0.0809
    1W        W31811  11.022  29.454   8.102  0.2062 -0.2054 -0.2495
    1W        W31812  23.985  11.632   9.297  0.1696  0.2696 -0.1882
    1W        W31813  24.610  23.722   0.069  0.4802  0.0927 -0.0094
    1W        W31814   6.343   6.333   3.267  0.2002  0.3925  0.1547
    1W        W31815  11.469  13.865   0.349  0.1829 -0.2116 -0.0990
    1W        W31816  11.457  23.706   9.175  0.3197  0.0221  0.3190
    1W        W31817  14.426  19.558   7.582  0.1151  0.2563  0.2721
    1W        W31818  19.337   7.552   7.049 -0.2754  0.4078 -0.0622
    1W        W31819  19.104  26.936   8.536  0.0935 -0.0036 -0.0726
    1W        W31820  21.021  14.003   2.451  0.0532  0.0486 -0.2234
    1W        W31821   5.493   8.479   7.230 -0.1627 -0.0228  0.1109
    1W        W31822  27.512   9.032   0.126 -0.2385 -0.0558  0.3328
    1W        W31823   3.944  18.734   7.213 -0.4631 -0.4434 -0.0499
    1W        W31824   7.449  27.875   6.542 -0.2362 -0.4696 -0.1857
    1W        W31825  26.971   7.075   2.484 -0.1504 -0.1875  0.0233
    1W        W31826   1.700  20.720   0.513 -0.2418 -0.2585 -0.1178
    1W        W31827   0.788  16.574   9.386  0.0413 -0.1315 -0.0158
    1W        W31828   0.538   3.037   6.905 -0.2669  0.4027  0.1818
    1W        W31829  29.385  17.017   8.379  0.0049 -0.0272  0.1268
    1W        W31830  10.665  13.290   1.244 -0.0035  0.0876  0.0390
    1W        W31831  19.153  16.070   8.498 -0.1780  0.0194  0.1497
    1W        W31832  14.957  19.557   0.537 -0.0895 -0.0280 -0.1042
    1W        W31833   1.685   3.331   2.296  0.0361 -0.1316 -0.0483
    1W        W31834  10.824  17.101   2.296  0.1718  0.0715 -0.0396
    1W        W31835  18.580  23.952   1.028 -0.1480  0.2204  0.0474
    1W        W31836   1.306  19.417   9.395 -0.2554 -0.0122 -0.0694
    1W        W31837  20.972  28.874   2.946  0.0726 -0.1464 -0.0332
    1W        W31838  17.567   8.908   6.803 -0.0664 -0.2777 -0.0355
    1W        W31839   2.587  29.802   7.282 -0.0692 -0.1370 -0.0675
    1W        W31840  27.821  26.989   0.407 -0.1092 -0.1443 -0.2126
    1W        W31841   5.955   0.368   1.919 -0.0627  0.1530 -0.0004
    1W        W31842  25.088   3.748   2.148 -0.0060 -0.3869 -0.1212
    1W        W31843   7.148  12.552   8.530  0.3889  0.0638 -0.1208
    1W        W31844  19.063  16.122   1.207  0.1115 -0.1804 -0.1110
    1W        W31845  28.419  10.064   8.609  0.2986  0.1915  0.1724
    1W        W31846   7.055   8.053   2.520  0.0748 -0.2125  0.1659
    1W        W31847   6.320  21.204   9.195  0.1733  0.0329  0.0269
    1W        W31848  10.638  21.953   7.699 -0.4378  0.3539 -0.4088
    1W        W31849  16.949  13.509   8.983  0.0447 -0.0563 -0.0715
    1W        W31850  26.660   1.549   2.435 -0.0768 -0.2042  0.2430
    1W        W31851   6.894  18.200   1.638  0.0120 -0.0524 -0.1832
    1W        W31852  15.760  23.782   1.443 -0.1349  0.0775 -0.0016
    1W        W31853   0.561   1.041   8.890  0.0460 -0.1610  0.2145
    1W        W31854  21.002   9.957   0.595 -0.2490  0.0201  0.2812
    1W        W31855  23.831  18.712   8.654  0.3127  0.0418  0.0023
    1W        W31856  13.684   3.499   2.964  0.0798  0.0517 -0.0449
    1W        W31857  21.903   5.363   0.043 -0.1463  0.0225  0.3314
    1W        W31858   5.029  21.630   6.638 -0.2244 -0.1079  0.0388
    1W        W31859   7.009   8.017   0.676  0.0221  0.4526 -0.0495
    1W        W31860  26.183   1.049   0.830 -0.2602  0.1107 -0.1844
    1W        W31861  14.855  20.911   0.590 -0.2433  0.1435  0.0538
    1W        W31862  11.863  27.589   2.516 -0.0945  0.0541 -0.0345
    1W        W31863  13.961  25.353   7.822 -0.2643 -0.1638 -0.1393
    1W        W31864   5.102  27.090   8.874 -0.0427  0.2106 -0.1851
    1W        W31865  22.421   6.280   7.336 -0.1445 -0.0139  0.1188
    1W        W31866   4.574   8.779   2.025  0.2218  0.3359  0.4292
    1W        W31867  10.375  14.555   8.734  0.2131  0.1450 -0.3843
    1W        W31868   6.365  26.434   1.987  0.1963 -0.2316  0.1956
    1W        W31869  18.992   9.527   0.913 -0.0912  0.0087 -0.1247
    1W        W31870  24.741  13.281   7.040  0.1844 -0.1050  0.2205
    1W        W31871  18.565  25.393   0.715 -0.2320 -0.1085  0.1149
    1W        W31872  23.851  26.680   1.058 -0.1707  0.0054 -0.0132
    1W        W31873  13.647  22.585   2.078  0.1842 -0.2719 -0.0514
    1W        W31874   1.775   6.180   2.330  0.1843 -0.0991 -0.1029
    1W        W31875  27.562  28.219   6.984  0.1713  0.3043 -0.1607
    1W        W31876   9.847   7.701   1.306  0.1453  0.0088  0.2514
    1W        W31877  15.489  26.692   7.806 -0.0999 -0.2787 -0.2875
    1W        W31878  18.360  21.895   7.803  0.0785 -0.2016  0.3031
    1W        W31879  22.527   1.681   2.075  0.2402  0.0570  0.3680
    1W        W31880   2.051  13.419   8.735  0.1326 -0.1944 -0.3665
    1W        W31881  16.688   8.030   9.014  0.0383  0.3511 -0.1398
    1W        W31882   1.041  10.579   0.653 -0.0051 -0.0236  0.1678
    1W        W31883  11.769  28.691   9.198  0.0448 -0.1730 -0.0771
    1W        W31884   5.647  12.865   2.087 -0.1948 -0.1895 -0.0800
    1W        W31885  14.845   8.135   6.224 -0.2204  0.0398  0.3827
    1W        W31886  29.596  21.366   1.305  0.0725  0.0738  0.4197
    1W        W31887   1.408  29.642   0.597 -0.0412  0.2062  0.0467
    1W        W31888   8.203  29.454   8.537  0.1208  0.3480  0.1639
    1W        W31889   7.938  12.818   2.892  0.1530 -0.2372  0.2019
    1W        W31890  26.009  14.746   6.768 -0.0899  0.0133 -0.1161
    1W        W31891   6.954  16.451   9.318 -0.1684  0.2134 -0.2585
    1W        W31892   9.843  11.098   7.585 -0.2590 -0.0096  0.2807
    1W        W31893  17.543   6.255   0.959  0.0591  0.1024 -0.0983
    1W        W31894   0.897  18.910   7.354 -0.0149  0.1103  0.2015
    1W        W31895  10.143  14.787   9.429  0.3789  0.1108 -0.1372
    1W        W31896  13.695  10.553   8.309 -0.0951  0.0206 -0.1244
    1W        W31897  26.010  20.344   1.557  0.1086  0.2161 -0.2861
    1W        W31898  10.564  23.403   9.334 -0.2430 -0.0376 -0.0134
    1W        W31899  26.343  22.721   1.957  0.3238 -0.0931  0.2457
    1W        W31900  15.460  23.585   1.828 -0.0909  0.1682  0.2723
    1W        W31901   9.878   8.887   8.247  0.4474 -0.1171  0.0599
    1W        W31902  28.741  10.978   8.538  0.0701  0.3063 -0.0440
    1W        W31903   3.904   8.980   1.809  0.0432 -0.1793  0.0061
    1W        W31904  24.334   7.732   1.809 -0.0123 -0.1318  0.0657
    1W        W31905  19.997  26.293   2.063 -0.2006  0.4054 -0.1353
    1W        W31906  28.436  26.935   0.665  0.1166 -0.0745  0.1444
    1W        W31907  15.646  10.676   8.658  0.2061  0.1490 -0.1654
    1W        W31908   9.996  29.720   3.548  0.0328 -0.1384 -0.1721
    1W        W31909  29.375   4.494   1.458  0.0454 -0.0907  0.4755
    1W        W31910   7.677  26.330   8.648 -0.0951  0.0379 -0.2578
    1W        W31911  25.823   0.347   1.860  0.3027  0.0584 -0.1807
    1W        W31912  28.695  16.235   9.091 -0.2279  0.0723  0.3095
    1W        W31913  29.405   0.973   2.488  0.1883  0.1929  0.0564
    1W        W31914  26.381  29.750   7.917  0.0153 -0.0683  0.1696
    1W        W31915  24.849  26.084   7.987  0.0843 -0.3105  0.0153
    1W        W31916  25.911  15.706   1.020  0.2939  0.0023 -0.2735
    1W        W31917  17.283   6.156   2.734 -0.0249 -0.1783 -0.0924
    1W        W31918   0.675   9.698   6.795  0.0197 -0.0232  0.0403
    1W        W31919  29.239  25.095   6.593 -0.0305  0.0849  0.3955
    1W        W31920   0.967  21.757   2.401  0.1936 -0.0939 -0.0511
    1W        W31921   4.229   5.830   6.394  0.0092  0.1009 -0.0042
    1W        W31922   9.200  28.396   8.957 -0.3072 -0.2118  0.2642
    1W        W31923  22.258  24.588   2.584 -0.0448  0.1791  0.1316
    1W        W31924  29.865  20.560   0.991 -0.0780  0.2239  0.1136
    1W        W31925  25.139   8.866   8.568 -0.1374 -0.0857  0.2346
    1W        W31926  20.514   5.376   7.865 -0.0432  0.0211 -0.1515
    1W        W31927   8.246  18.721   7.910 -0.2215 -0.0928 -0.1262
    1W        W31928  23.240  16.125   0.497 -0.0150 -0.1384  0.3179
    1W        W31929  14.117  17.908   7.482 -0.0842 -0.2189  0.0137
    1W        W31930  21.799  11.443   7.711 -0.0131 -0.2063 -0.0626
    1W        W31931  20.548  29.731   0.377  0.1116 -0.3160  0.4473
    1W        W31932  27.032  17.639   0.602  0.3710 -0.3686  0.2182
    1W        W31933   2.308  24.716   9.072 -0.1244  0.0687  0.1025
    1W        W31934  20.847  29.742   8.253  0.2341 -0.2905  0.0829
    1W        W31935   3.283   4.717   6.213  0.0322 -0.0675 -0.0389
    1W        W31936  14.727  22.175   0.502  0.0515 -0.0790 -0.0888
    1W        W31937  11.439   0.149   8.796 -0.0253 -0.3691 -0.2668
    1W        W31938   2.416  24.109   0.426 -0.2686  0.1944  0.1308
    1W        W31939   5.820  26.215   2.034 -0.0163  0.0627 -0.1244
    1W        W31940   5.336  26.195   8.022 -0.1472  0.2773  0.0936
    1W        W31941  17.744  17.984   1.049 -0.1628  0.1666 -0.2872
    1W        W31942  24.301  17.774   8.894 -0.3433 -0.2870 -0.0130
    1W        W31943   7.784   3.492   3.119 -0.1591  0.2397  0.2922
    1W        W31944   8.924   5.401   0.045  0.1867 -0.0163  0.0784
    1W        W31945  10.194   5.929   3.829  0.0407 -0.0147 -0.1413
    1W        W31946   7.329  19.904   8.043 -0.0591  0.0511  0.3596
    1W        W31947  18.417  11.094   1.791  0.1861  0.0311 -0.0259
    1W        W31948  21.232  15.168   9.269 -0.1179  0.0513 -0.1340
    1W        W31949  21.537  10.043   9.382  0.2118  0.2467  0.2679
    1W        W31950  20.798  29.613   2.915 -0.1527  0.1252  0.0460
    1W        W31951  19.671   3.010   8.154 -0.2684  0.2146  0.0390
    1W        W31952   1.825  22.747   5.619  0.0297  0.1344  0.3882
    1W        W31953  19.625  16.215   1.066 -0.0090  0.0478  0.1568
    1W        W31954  14.454  21.313   2.410  0.0803 -0.1213 -0.3900
    1W        W31955  26.285   3.620   2.637  0.0331  0.1199 -0.0100
    1W        W31956   4.161   6.669   2.088  0.2247  0.3778  0.1470
    1W        W31957   6.010  10.450   9.155  0.0875 -0.1452  0.0397
    1W        W31958  26.972  29.043   6.942  0.3037  0.0437  0.1819
    1W        W31959  25.941  16.400   9.411 -0.3105  0.0923 -0.3346
    1W        W31960  11.338   3.869   2.774 -0.0374 -0.0496  0.4022
    1W        W31961  16.110   1.307   1.326 -0.2204  0.1160 -0.0185
    1W        W31962   4.740  10.566   0.416  0.0846  0.3839  0.2927
    1W        W31963  18.669  27.732   8.927 -0.0477  0.0049 -0.1316
    1W        W31964   9.510  14.908   1.725 -0.3140  0.2477  0.1454
    1W        W31965  29.415  25.457   7.843  0.1901  0.0954  0.1757
    1W        W31966   1.330   5.970   2.404  0.1209 -0.2139 -0.0175
    1W        W31967  27.788  18.062   2.904  0.1448  0.0370  0.1519
    1W        W31968  17.332  11.414   0.795  0.2088 -0.1294  0.0485
    1W        W31969  29.344  13.894   2.096 -0.0908  0.0130  0.1923
    1W        W31970  22.104  29.725   0.782  0.0263 -0.0224 -0.0665
    1W        W31971  11.037  27.183   7.776  0.1115 -0.1900 -0.0014
    1W        W31972  26.877  21.382   1.234 -0.2265  0.1345  0.1312
    1W        W31973  11.784  22.308   0.921  0.1106  0.1293 -0.3808
    1W        W31974  19.527  20.792   8.605  0.1657 -0.1736  0.3251
    1W        W31975   4.405  22.775   8.876  0.0349  0.0057  0.0240
    1W        W31976  20.937  19.340   1.551  0.2077 -0.2970 -0.3460
    1W        W31977  25.756  25.623   1.165 -0.1343  0.0695  0.1119
    1W        W31978  13.976   3.413   0.212  0.2010  0.1928 -0.0216
    1W        W31979  21.028  28.366   0.181  0.1146  0.1794  0.0894
    1W        W31980   4.446  20.165   9.079  0.2527 -0.0198 -0.1426
    1W        W31981  24.819  29.219   6.884  0.1080 -0.0258  0.0762
    1W        W31982  13.218  18.103   8.006  0.0254 -0.0118 -0.0729
    1W        W31983  10.765  29.665   2.565  0.0957 -0.3123  0.2833
    1W        W31984   8.896  19.088   7.610  0.0941 -0.1314  0.1285
    1W        W31985  28.395   6.367   0.837 -0.0868 -0.0381  0.2152
    1W        W31986   0.288  25.248   6.218 -0.2206 -0.0808  0.0001
    1W        W31987   1.060   8.570   7.561  0.0645 -0.1248  0.0377
    1W        W31988   5.958   5.568   8.951 -0.1652  0.0870  0.1323
    1W        W31989   6.959  10.999   2.415 -0.1885 -0.0454  0.1177
    1W        W31990   4.585  29.883   7.759  0.0036  0.4571 -0.2729
    1W        W31991   6.593   5.140   0.533 -0.3314 -0.0877 -0.1445
    1W        W31992  12.952  23.161   9.142 -0.2892 -0.0545  0.0870
    1W        W31993   7.619  21.350   8.332  0.1925 -0.0219 -0.3022
    1W        W31994  24.220  15.677   8.916  0.0616  0.0254 -0.0661
    1W        W31995   5.808  17.260   8.466  0.0055 -0.0302 -0.2355
    1W        W31996   4.129   5.586   1.888 -0.1688 -0.0708 -0.0438
    1W        W31997   6.106   6.307   2.867 -0.0298  0.1873 -0.1605
    1W        W31998  29.117  13.480   2.271  0.0879 -0.2924 -0.3944
    1W        W31999  23.994  21.811   2.457 -0.1903 -0.1346 -0.3441
    1W        W32000  23.562   5.327   0.881 -0.1545 -0.2252 -0.2013
    1W        W32001  19.633   7.642   7.696  0.1040 -0.1102  0.0055
    1W        W32002  25.214  24.942   1.346 -0.1364  0.0862  0.0973
    1W        W32003  18.218  20.583   2.933 -0.0089  0.0516  0.0994
    1W        W32004   3.524   4.980   7.969  0.0157  0.2871 -0.0794
    1W        W32005  13.245  22.337   9.145  0.0565 -0.1575  0.0953
    1W        W32006   9.070  25.312   5.888 -0.0738  0.4413 -0.2934
    1W        W32007  22.871  16.655   1.239  0.0093 -0.1768 -0.0159
    1W        W32008  26.083  17.581   2.784 -0.1482 -0.0659 -0.0877
    1W        W32009  27.403  16.472   8.758 -0.1365 -0.0414 -0.1147
    1W        W32010  22.432   9.778   2.444  0.1822  0.0571  0.1626
    1W        W32011  21.701  19.826   1.085 -0.0053 -0.3055 -0.1595
    1W        W32012   5.426  13.210   0.142 -0.2741  0.4262  0.3311
    1W        W32013   1.064  26.730   0.864 -0.0768  0.0299 -0.0993
    1W        W32014   6.780  15.729   7.567  0.1374 -0.3511 -0.1106
    1W        W32015   6.117   4.113   9.236 -0.0117  0.2082 -0.0683
    1W        W32016  15.373  12.029   8.072 -0.0316  0.0719 -0.4844
    1W        W32017  15.660   9.080   7.828  0.1849  0.0475 -0.1541
    1W        W32018  20.375  15.494   1.401 -0.0310 -0.0172  0.0368
    1W        W32019  14.610   3.835   1.069  0.0933  0.0510 -0.2010
    1W        W32020  26.888   5.561   2.316 -0.1092 -0.0503  0.2288
    1W        W32021  23.707  11.780   2.734  0.0965 -0.0305  0.0665
    1W        W32022  15.261   2.135   7.780 -0.2948 -0.0104  0.3719
    1W        W32023  15.907  26.831   8.170  0.0532  0.0805 -0.0577
    1W        W32024   2.624   9.818   8.567  0.1854  0.0184  0.0632
    1W        W32025   0.318  18.255   0.668 -0.1160  0.2267 -0.0350
    1W        W32026  11.754  14.308   1.060  0.1965 -0.1890  0.1156
    1W        W32027  23.242   4.328   0.181  0.0093 -0.1455  0.0201
    1W        W32028   7.776  24.714   8.708  0.0670  0.0392 -0.3659
    1W        W32029   5.297  19.583   1.281 -0.1091  0.1169 -0.0019
    1W        W32030  11.082  14.483   7.970 -0.0924  0.2109  0.0242
    1W        W32031   0.902   8.900   0.675 -0.1218 -0.1283 -0.2445
    1W        W32032  23.304  10.912   8.223 -0.0785  0.1511 -0.2818
    1W        W32033   1.600  24.530   6.242 -0.3930  0.1097  0.0033
    1W        W32034   6.371   7.014   1.247 -0.0781  0.2191  0.1926
    1W        W32035   2.808  21.880   6.476 -0.1185  0.1095 -0.0783
    1W        W32036  28.364   3.090   1.399  0.1776  0.1708  0.1197
    1W        W32037  13.888   7.613   8.507 -0.1813 -0.2498  0.2857
    1W        W32038   4.458   4.711   7.015  0.1648 -0.0041  0.0447
    1W        W32039   1.591  17.656   2.605 -0.1760 -0.0196  0.1921
    1W        W32040  10.346  19.892   0.993  0.1008 -0.2283  0.0049
    1W        W32041   2.022  24.686   1.196  0.2311 -0.1028 -0.0116
    1W        W32042  25.827   1.819   2.867 -0.1433  0.1325 -0.1952
    1W        W32043   8.879  28.844   0.475 -0.2396 -0.1008 -0.1502
    1W        W32044   1.643  22.489   1.526 -0.1283 -0.6172  0.1409
    1W        W32045  21.421  14.128   9.035 -0.3009 -0.1068  0.1495
    1W        W32046   0.685  17.314   6.621 -0.0795 -0.1390  0.1471
    1W        W32047  28.063  17.485   0.657  0.2168 -0.1586 -0.5400
    1W        W32048  15.869  26.157   1.822  0.0014  0.2007  0.2246
    1W        W32049  19.672  28.542   8.945  0.1378 -0.0503 -0.1322
    1W        W32050  20.182   2.468   7.308 -0.1181  0.0018  0.1592
    1W        W32051  25.086   2.814   1.298  0.1866  0.2803 -0.1148
    1W        W32052  22.458  14.821   7.794  0.4081  0.0415 -0.1396
    1W        W32053   7.431  24.282   8.503  0.1948 -0.0118  0.1890
    1W        W32054  10.722  11.920   7.194  0.3309  0.1516  0.0883
    1W        W32055  12.845  28.108   1.579  0.1677 -0.0549  0.2834
    1W        W32056  21.954   6.206   8.847  0.0436  0.1269  0.0045
    1W        W32057  11.939   8.143   0.282 -0.0495 -0.2534 -0.1748
    1W        W32058   7.442  21.457   1.278  0.1070 -0.1966  0.1540
    1W        W32059   1.103  16.348   0.287  0.1782 -0.0413 -0.1539
    1W        W32060  28.436   6.263   6.633 -0.0255 -0.0674 -0.1013
    1W        W32061   7.401  20.956   5.688  0.2321 -0.0819  0.0416
    1W        W32062   4.651  25.207   6.885 -0.2903  0.1723  0.1522
    1W        W32063  15.591  11.958   0.141 -0.0710 -0.0348  0.0729
    1W        W32064  21.772   3.099   7.235  0.0302  0.0317 -0.5861
    1W        W32065  28.687  11.431   8.878  0.0597 -0.1067 -0.3643
    1W        W32066   2.621   3.921   2.108  0.2116  0.1418 -0.1485
    1W        W32067   4.622   5.122   7.488 -0.2414  0.1765 -0.1151
    1W        W32068   1.952  15.111   7.193  0.0897  0.0660  0.0608
    1W        W32069  23.499  28.581   1.653  0.0129 -0.1922  0.1463
    1W        W32070   9.672  23.497   9.058  0.3007  0.0463 -0.1093
    1W        W32071   2.873  29.363   1.378  0.0626  0.2944  0.2512
    1W        W32072   4.687   9.970   0.123  0.0629 -0.1261  0.1230
    1W        W32073   0.168   7.852   6.624 -0.1016 -0.0427 -0.0002
    1W        W32074  26.221  10.668   0.786 -0.1048  0.3393 -0.2853
    1W        W32075  25.045  23.208   8.916  0.2205  0.0080  0.0294
    1W        W32076   1.467  10.813   0.058  0.1391 -0.1477 -0.2840
    1W        W32077   4.546   9.029   7.954 -0.1880 -0.2893  0.2575
    1W        W32078  24.358  25.948   6.584  0.1010 -0.3603  0.0017
    1W        W32079  23.043   8.498   8.220  0.3412 -0.1367  0.0197
    1W        W32080   1.213  24.119   1.190  0.0444  0.1398 -0.0499
    1W        W32081   3.319  25.009   1.055 -0.0287 -0.1165  0.0020
    1W        W32082  27.696   2.407   8.507  0.0042 -0.2417 -0.1802
    1W        W32083  13.129   8.092   7.406  0.2780  0.3966 -0.0844
    1W        W32084   2.853  21.919   8.503  0.5115  0.1058 -0.0613
    1W        W32085  12.038  17.079   7.834  0.1112  0.0498 -0.1689
    1W        W32086  15.891  22.960   0.981 -0.0476 -0.0888 -0.0359
    1W        W32087  29.722  15.038   0.036  0.1157  0.1499 -0.3823
    1W        W32088   7.822   9.473   1.869 -0.1041  0.0143 -0.1616
    1W        W32089   7.893  28.988   2.674 -0.0363 -0.3033  0.0694
    1W        W32090  14.941  29.741   0.401 -0.0276 -0.1591  0.3203
    1W        W32091   3.855   8.493   9.020 -0.1371  0.0583  0.1229
    1W        W32092  16.830   3.125   1.686  0.0908 -0.1518  0.1475
    1W        W32093  22.488  13.993   2.491  0.2353 -0.1188 -0.0497
    1W        W32094  27.901   8.851   1.459  0.0996  0.1686 -0.0942
    1W        W32095  19.665  25.280   0.188  0.0752  0.2061  0.0323
    1W        W32096  22.607  24.983   2.458 -0.2608 -0.1475  0.2653
    1W        W32097  24.371  22.577   2.442 -0.1890  0.1942  0.1465
    1W        W32098  11.997   4.886   1.419  0.0686  0.0550  0.0672
    1W        W32099   3.889  27.416   1.853  0.1292  0.1362 -0.3157
    1W        W32100  19.783  23.324   0.962 -0.0302  0.0703 -0.1375
    1W        W32101   3.342   3.008   3.522 -0.0785  0.0223  0.1033
    1W        W32102   8.017  22.346   9.383 -0.0407  0.0703 -0.1460
    1W        W32103  15.901  22.981   2.430  0.2011 -0.0850 -0.2018
    1W        W32104  24.290  11.800   0.930 -0.2017  0.1427 -0.0392
    1W        W32105  10.246   0.737   8.200 -0.0196 -0.0076 -0.2376
    1W        W32106  16.745   1.990   1.597  0.0711 -0.0086  0.1452
    1W        W32107  25.608  18.525   0.360 -0.1303 -0.0789 -0.0600
    1W        W32108  25.454   1.581   0.494 -0.0950  0.2907 -0.1781
    1W        W32109   5.491  11.217   8.983  0.0930  0.0393 -0.0478
    1W        W32110   0.651   4.149   2.031  0.1199 -0.3849  0.1042
    1W        W32111   6.919   7.948   7.547 -0.0716 -0.2952 -0.2068
    1W        W32112   7.898  24.063   6.735  0.2993 -0.2517  0.1029
    1W        W32113   1.712   6.980   3.478 -0.2113 -0.2146 -0.0509
    1W        W32114  13.625  27.702   9.182  0.2235  0.2398  0.0412
    1W        W32115   2.254  12.307   9.409 -0.0634 -0.1525  0.0989
    1W        W32116   3.251  15.322   1.020 -0.3693  0.2190 -0.1661
    1W        W32117   6.908   2.128   7.408  0.2700  0.1439  0.0606
    1W        W32118   6.184   4.937   7.514 -0.0348  0.0294 -0.0145
    1W        W32119  19.422   0.065   7.426  0.2270  0.3886  0.2506
    1W        W32120  22.493   0.368   0.002  0.2579 -0.0127  0.1173
    1W        W32121   2.364   3.152   6.312  0.0814  0.1774 -0.2889
    1W        W32122  22.225  28.588   0.774 -0.0267 -0.2462 -0.1712
    1W        W32123   6.734   1.859   8.319 -0.1568  0.1020  0.2283
    1W        W32124  24.622  16.782   6.633 -0.1296 -0.1207  0.0780
    1W        W32125  10.411  18.288   9.435  0.0117  0.2883  0.0833
    1W        W32126  18.757   7.963   0.765  0.2394  0.0832  0.1712
    1W        W32127  23.777  11.042   7.939  0.2389  0.0002 -0.0361
    1W        W32128  11.787  26.859   1.928  0.0246  0.0630  0.0268
    1W        W32129   7.041  25.104   1.145  0.3183 -0.3083 -0.3392
    1W        W32130  16.107  10.762   9.436 -0.1044  0.0210  0.0822
    1W        W32131   9.856  11.235   9.216 -0.2441  0.2918 -0.1058
    1W        W32132  25.807  22.693   8.047  0.2801  0.0648  0.3519
    1W        W32133  29.375   1.853   0.130 -0.0167  0.1665 -0.2874
    1W        W32134   0.611  29.457   7.938 -0.1799  0.3558  0.2381
    1W        W32135   6.204  13.171   1.364 -0.3997 -0.1846  0.0858
    1W        W32136   8.018   6.609   6.933 -0.0217  0.4105 -0.0214
    1W        W32137   2.114  21.401   0.686  0.3119 -0.2981  0.0652
    1W        W32138   6.750  13.316   8.178 -0.2991 -0.3649  0.0806
    1W        W32139   5.644   7.416   7.157  0.0422  0.3365 -0.0929
    1W        W32140   3.422   6.076   0.903  0.0411  0.2015 -0.1319
    1W        W32141  19.038  15.210   0.110 -0.1647  0.0838  0.0277
    1W        W32142  13.903  14.764   0.620 -0.3758  0.1187  0.0203
    1W        W32143  21.149  24.579   6.398  0.0242  0.2490 -0.0138
    1W        W32144  28.291  19.926   0.571 -0.1236  0.2661  0.1014
    1W        W32145  13.025  28.921   3.509 -0.0259  0.1259 -0.0555
    1W        W32146   7.794  18.895   8.743 -0.1053  0.4496 -0.1858
    1W        W32147  26.388   7.804   8.275 -0.1783  0.2228 -0.1273
    1W        W32148   7.434  27.158   1.653  0.2397 -0.0609  0.1402
    1W        W32149  27.325  19.905   7.262  0.0455  0.2047 -0.2616
    1W        W32150  21.048  18.131   2.609  0.0036 -0.1402  0.0747
    1W        W32151  21.190  20.796   7.182  0.2933 -0.1035  0.0160
    1W        W32152  12.641  14.471   0.199  0.2164  0.0048 -0.1183
    1W        W32153  19.435   4.884   2.218 -0.0314 -0.2752 -0.0538
    1W        W32154  14.508  26.248   1.968  0.0450  0.2198 -0.3629
    1W        W32155  24.870   7.761   0.989 -0.1705  0.1017  0.0916
    1W        W32156  15.750  14.723   1.641  0.2358  0.2590 -0.0254
    1W        W32157  27.110  10.731   2.731 -0.1812 -0.1137 -0.2320
    1W        W32158  11.141   6.273   1.525  0.1243  0.0914 -0.0864
    1W        W32159  21.973   9.862   0.211 -0.1643  0.1834  0.2763
    1W        W32160  19.545   8.750   1.035  0.1009 -0.1434 -0.1264
    1W        W32161  14.371  13.478   7.138  0.1133  0.1511 -0.1432
    1W        W32162   2.700  29.787   1.591  0.1418 -0.1422 -0.0070
    1W        W32163   1.655  19.261   2.404 -0.0890  0.3112 -0.3352
    1W        W32164  20.869  18.402   7.662  0.1233  0.1624 -0.0180
    1W        W32165  14.189   8.644   9.180 -0.4240 -0.0410 -0.3191
    1W        W32166   1.662  14.079   7.861 -0.2399  0.1660  0.0389
    1W        W32167   3.928   1.606   2.349  0.1004  0.2630  0.2493
    1W        W32168  18.561  28.362   8.639 -0.0727  0.0338 -0.1979
    1W        W32169   5.456  23.734   6.246  0.4841 -0.0519 -0.1486
    1W        W32170  28.688   5.299   7.506 -0.4179  0.1095  0.1284
    1W        W32171  15.251  29.874   7.036 -0.1062  0.2236  0.1045
    1W        W32172  12.379  11.680   8.017 -0.0827 -0.1930  0.1742
    1W        W32173   0.058  24.674   0.181 -0.1519  0.1897  0.1399
    1W        W32174   3.416   3.374   2.705 -0.4144  0.2455  0.1180
    1W        W32175   9.770  19.650   1.100  0.0289  0.0186 -0.0699
    1W        W32176  22.826  23.549   2.624 -0.0919  0.1976  0.1960
    1W        W32177  21.207  18.118   1.176  0.0952 -0.0793 -0.0663
    1W        W32178   5.690  22.339   9.097  0.0838 -0.1252 -0.2503
    1W        W32179  10.386  26.279   1.522  0.0435 -0.2700 -0.0429
    1W        W32180  28.589  25.507   1.250 -0.1493  0.2060 -0.2440
    1W        W32181  11.437  11.071   0.148 -0.0608 -0.0308  0.0560
    1W        W32182  14.283  25.656   0.035  0.2285 -0.1101  0.2612
    1W        W32183  15.597  28.364   2.991  0.2049 -0.1824 -0.2139
    1W        W32184   4.479   2.421   2.095  0.1024  0.0720 -0.0374
    1W        W32185  11.979  12.199   1.819 -0.0038  0.1052  0.1378
    1W        W32186  25.104   8.694   0.443  0.0352 -0.0472 -0.1906
    1W        W32187   4.526  15.580   1.891  0.1568 -0.0501 -0.0526
    1W        W32188  11.080  26.474   0.670  0.0807  0.0203  0.3461
    1W        W32189   5.492  14.942   7.387 -0.0576 -0.1241 -0.0325
    1W        W32190  22.869  17.668   6.556  0.2919 -0.3426 -0.0257
    1W        W32191  23.878  17.820   7.433 -0.1894 -0.0446 -0.2278
    1W        W32192  13.180   8.242   7.924 -0.0288 -0.1307  0.3471
    1W        W32193  13.602   5.169   6.847  0.0463  0.0734 -0.2086
    1W        W32194   3.357  14.129   6.194  0.1195  0.5324 -0.1500
    1W        W32195  13.265  14.556   9.394 -0.2241 -0.0771 -0.0010
    1W        W32196   4.339   4.409   3.580 -0.1733  0.0275  0.0250
    1W        W32197  22.410  14.715   8.394 -0.1879 -0.1735  0.0764
    1W        W32198  22.716  15.834   8.488  0.3822  0.3804  0.2681
    1W        W32199  24.298   7.384   0.030  0.1738  0.0372 -0.3985
    1W        W32200  15.863  14.880   0.850 -0.2681  0.2208  0.2117
    1W        W32201   9.909   1.218   9.438 -0.1831  0.0508  0.3790
    1W        W32202   8.858   3.702   8.554  0.0196 -0.4009  0.0045
    1W        W32203  18.902   2.241   6.986 -0.0141 -0.1247  0.1772
    1W        W32204   1.284  10.294   6.593 -0.1444 -0.1144  0.0945
    1W        W32205   8.041  19.463   8.121 -0.0868  0.0573  0.2824
    1W        W32206  16.350  19.534   8.791 -0.1163 -0.1398  0.0175
    1W        W32207  17.453   4.257   1.923  0.0959 -0.0862  0.1015
    1W        W32208  10.660  28.185   8.481 -0.1897 -0.2226 -0.2607
    1W        W32209  10.694  20.332   6.971 -0.1433  0.3547 -0.1661
    1W        W32210   5.920   9.385   1.615  0.0552  0.0598  0.0547
    1W        W32211   1.812  26.239   8.734  0.0898 -0.0634  0.1466
    1W        W32212  27.415   9.547   8.247  0.2041 -0.4382  0.0767
    1W        W32213   1.572   1.504   3.133 -0.2755 -0.0304 -0.0035
    1W        W32214  29.098  28.886   7.221 -0.1341 -0.2244  0.2068
    1W        W32215   3.821   1.217   7.111  0.0011  0.1086 -0.1210
    1W        W32216  17.156  20.594   8.283  0.1243 -0.0483  0.0960
    1W        W32217   8.382  25.279   8.712 -0.1604  0.0719  0.2193
    1W        W32218  10.966  13.733   0.393 -0.2846 -0.0242 -0.0891
    1W        W32219  15.054  25.470   1.125  0.1577  0.0581 -0.1296
    1W        W32220  19.840   4.015   8.131 -0.0266 -0.1751  0.1451
    1W        W32221   4.933   2.860   3.761  0.1597  0.0162 -0.1889
    1W        W32222  13.847  11.428   1.221 -0.2331  0.1240  0.3545
    1W        W32223   3.071  22.025   8.943  0.0407 -0.0780  0.0200
    1W        W32224   2.036  22.959   1.682  0.1599  0.1701  0.6275
    1W        W32225   6.125  23.166   0.684  0.0655 -0.1253  0.0899
    1W        W32226   9.820   6.183   8.284  0.2343  0.0430  0.1055
    1W        W32227   9.233   8.378   0.901 -0.1925 -0.2014  0.0612
    1W        W32228  12.808   1.648   0.394 -0.0074 -0.3493  0.1091
    1W        W32229  16.838  19.536   9.048 -0.2128 -0.0600 -0.0442
    1W        W32230  25.242  10.928   2.794  0.3546 -0.2812  0.1976
    1W        W32231  25.285   2.600   3.182 -0.0486 -0.1653 -0.0238
    1W        W32232   4.870  27.219   6.884 -0.0926  0.3785  0.1272
    1W        W32233  14.745  23.109   8.763 -0.0068 -0.0366  0.1263
    1W        W32234   2.320  17.376   2.722 -0.1078  0.2119 -0.0524
    1W        W32235  22.773  21.856   7.649  0.0394 -0.3175  0.0071
    1W        W32236  14.397  17.318   1.889  0.1894 -0.4698  0.1487
    1W        W32237   6.454  10.013   7.751  0.1321 -0.0752  0.3012
    1W        W32238   6.073   3.631   8.350 -0.3760 -0.0755 -0.0476
    1W        W32239   5.621  17.579   7.369 -0.0153  0.0972  0.0336
    1W        W32240   5.547   1.645   2.375 -0.3017 -0.0125  0.1408
    1W        W32241  23.422  12.257   0.893 -0.0481  0.0256 -0.2489
    1W        W32242   9.113   9.208   7.582  0.2553 -0.2074  0.1031
    1W        W32243  12.219   4.992   9.017  0.1282 -0.1461  0.1403
    1W        W32244  27.093  20.678   0.719  0.1469  0.2890  0.2298
    1W        W32245   2.859  21.231   1.206 -0.1739  0.0881 -0.4954
    1W        W32246  15.467  17.252   2.270 -0.1711 -0.2651 -0.1733
    1W        W32247   0.697  17.734   7.785  0.0375  0.1400 -0.0430
    1W        W32248  13.292  24.871   1.006  0.0616 -0.0678  0.2439
    1W        W32249  21.563  22.244   3.098  0.0711  0.0135 -0.0838
    1W        W32250  29.043  13.614   8.238  0.1186  0.3743  0.1282
    1W        W32251  20.714  12.346   1.611 -0.1817 -0.1047 -0.0026
    1W        W32252   1.968  25.703   1.609  0.2243 -0.1520  0.2494
    1W        W32253   4.072  17.422   0.905  0.1727  0.1169 -0.1313
    1W        W32254  15.500  22.352   7.568  0.2493 -0.0404 -0.0926
    1W        W32255  22.925  23.115   0.000 -0.0684  0.0111 -0.0102
    1W        W32256  10.464  22.627   1.870 -0.1461 -0.2717 -0.1360
    1W        W32257  13.065   3.460   0.611  0.1056 -0.0428 -0.1294
    1W        W32258  23.453   4.830   1.532 -0.1609 -0.0886 -0.0098
    1W        W32259   3.194  17.345   6.662  0.3855  0.1113  0.0138
    1W        W32260   6.711  24.500   1.255 -0.0467 -0.0626  0.1167
    1W        W32261  25.331  26.829   2.497 -0.2010 -0.2220  0.0771
    1W        W32262  17.718  27.768   0.489 -0.0945  0.0678  0.1369
    1W        W32263  21.687   0.999   1.404 -0.0413  0.1067 -0.2402
    1W        W32264  22.443  27.089   0.788  0.0148 -0.4128 -0.1543
    1W        W32265  14.386  24.162   6.583 -0.0054 -0.0659 -0.1222
    1W        W32266  12.973   6.060   7.768 -0.1574 -0.0921 -0.1532
    1W        W32267   4.391   0.364   1.066  0.2012 -0.1466 -0.3594
    1W        W32268   8.101   4.785   0.307  0.0938 -0.4021  0.1654
    1W        W32269  19.738   2.353   7.172  0.0108  0.2089  0.3082
    1W        W32270  18.013  22.035   0.843  0.2741  0.0874 -0.1225
    1W        W32271  20.116   1.450   2.047  0.0303 -0.1625 -0.0869
    1W        W32272  27.960  22.083   2.330  0.0005 -0.3796  0.1857
    1W        W32273   7.308  13.590   9.416  0.0825  0.1604  0.0939
    1W        W32274   8.536  13.023   0.388  0.1972  0.0856 -0.1228
    1W        W32275   6.747  15.633   8.374 -0.0390 -0.3109  0.0204
    1W        W32276  20.485  15.756   0.065 -0.1545 -0.0201 -0.3365
    1W        W32277  25.718  16.280   0.779  0.0081  0.3003 -0.0107
    1W        W32278  27.565  21.779   2.358  0.0641 -0.1448  0.1355
    1W        W32279   2.250  26.064   2.567 -0.0904 -0.1955 -0.2635
    1W        W32280   3.840  27.388   8.308 -0.1623 -0.0598  0.1793
    1W        W32281  12.926   1.174   1.152 -0.0634  0.1836 -0.2318
    1W        W32282  19.939  18.676   0.388  0.0387  0.3185  0.0696
    1W        W32283  24.808  20.424   1.981 -0.2948 -0.0281 -0.1214
    1W        W32284  23.665  16.127   6.010 -0.1658  0.1734  0.6015
    1W        W32285   9.772  18.891   1.910 -0.0773 -0.3504  0.2377
    1W        W32286   8.722   5.493   7.014  0.1259  0.0733 -0.1951
    1W        W32287  11.497   6.437   1.236 -0.1279 -0.0216 -0.2617
    1W        W32288  19.853   6.528   9.035 -0.2757  0.2264 -0.0861
    1W        W32289  11.283  27.262   1.151 -0.2772 -0.0924  0.1801
    1W        W32290  11.486  24.595   8.148  0.3048  0.2550 -0.2355
    1W        W32291  13.543   8.896   1.691 -0.0780 -0.4594  0.1374
    1W        W32292   9.119  29.618   3.090 -0.1629  0.0720 -0.0012
    1W        W32293  13.793  19.412   9.082  0.0799 -0.0196  0.0380
    1W        W32294   1.011  27.336   0.202 -0.2558  0.3264  0.4349
    1W        W32295   8.128   5.971   8.423  0.0682 -0.1089  0.1235
    1W        W32296  17.104   0.461   0.495 -0.0496 -0.4680  0.2395
    1W        W32297   2.155  22.709   0.916  0.1611  0.0412 -0.0722
    1W        W32298  22.214  27.147   2.453  0.1802 -0.1274 -0.0216
    1W        W32299   7.912  14.730   1.514 -0.1296  0.2588  0.1386
    1W        W32300  18.991  22.314   2.948  0.2104  0.2161 -0.0867
    1W        W32301  11.446  20.331   0.790  0.1716  0.3200  0.1034
    1W        W32302  17.578   2.655   8.679 -0.2543  0.1394 -0.1555
    1W        W32303   5.978  20.907   7.360 -0.1166 -0.2647  0.2905
    1W        W32304   9.444  29.736   0.566 -0.1883 -0.1996 -0.1682
    1W        W32305  20.467  12.984   6.904  0.1339  0.3641  0.1626
    1W        W32306   2.066   5.860   9.357  0.0807 -0.0024 -0.0332
    1W        W32307  16.320  28.511   0.908  0.0217  0.2647  0.2901
    1W        W32308  28.179  26.489   9.074 -0.2243  0.1316  0.0267
    1W        W32309  16.900   8.743   9.285  0.0380 -0.2447 -0.1007
    1W        W32310   4.747  26.220   0.959 -0.0943 -0.2751  0.0110
    1W        W32311   5.707  17.417   7.992  0.1136 -0.1738 -0.1310
    1W        W32312   2.059  27.485   0.862  0.2314 -0.0997 -0.1032
    1W        W32313   6.611  20.580   2.353  0.1639  0.1345 -0.0303
    1W        W32314  13.896  17.300   7.819  0.1998  0.0175  0.0012
    1W        W32315   7.105   1.954   3.361 -0.0134 -0.3920  0.3560
    1W        W32316  21.229  10.743   8.513  0.3529  0.0906  0.2085
    1W        W32317   0.369   7.745   9.022  0.1215 -0.3078  0.1233
    1W        W32318  24.567  29.171   1.034  0.0864 -0.0393 -0.2882
    1W        W32319  13.079  14.596   8.253  0.3933  0.2484  0.0152
    1W        W32320  11.088  16.587   7.872 -0.1786 -0.0931  0.1824
    1W        W32321   6.657  14.034   2.176  0.1239 -0.1453  0.0546
    1W        W32322  26.868  23.777   1.068  0.2014  0.1836 -0.1823
    1W        W32323   3.772  23.681   7.608 -0.2911 -0.3007 -0.1141
    1W        W32324  27.116  16.301   2.072  0.2441 -0.0088 -0.0342
    1W        W32325  20.286   1.014   8.899  0.2159  0.2015 -0.5239
    1W        W32326   8.422  28.081   6.596 -0.1898  0.2071  0.0655
    1W        W32327  29.897   5.861   6.418  0.4243  0.2064 -0.1135
    1W        W32328   5.922   5.585   3.334 -0.3638 -0.0428 -0.3171
    1W        W32329   9.006  15.751   7.870  0.1564  0.1352 -0.1807
    1W        W32330  23.163   8.339   2.240  0.0755 -0.0011 -0.0546
    1W        W32331   6.379  16.249   1.235  0.1742  0.0766  0.1032
    1W        W32332   8.291   0.940   0.568  0.0121  0.1819 -0.1242
    1W        W32333  13.429   4.831   7.822 -0.0188  0.0812 -0.1117
    1W        W32334  14.366  14.432   1.706  0.2184  0.1627  0.0905
    1W        W32335  25.839  25.018   0.037  0.2699 -0.1316 -0.0456
    1W        W32336  19.861  13.017   1.741  0.0047  0.4444  0.3879
    1W        W32337  18.457  10.640   8.697 -0.0841  0.1509 -0.1110
    1W        W32338  11.055   5.208   9.423  0.0407  0.0801 -0.1208
    1W        W32339  15.536  14.399   6.524 -0.1671 -0.1055 -0.0611
    1W        W32340  25.811  14.376   1.518 -0.0966 -0.1064 -0.0573
    1W        W32341   4.416  28.015   1.732 -0.3270 -0.0723 -0.0329
    1W        W32342  25.896   0.067   6.813 -0.1829 -0.1975 -0.0524
    1W        W32343  23.336   4.115   3.088  0.1209 -0.1187 -0.0600
    1W        W32344   5.422  16.287   7.113  0.1510  0.1876  0.0197
    1W        W32345   0.322   7.593   1.092 -0.2633  0.2046  0.0344
    1W        W32346  11.916  25.151   1.711  0.1915  0.0557  0.1371
    1W        W32347  19.495  25.479   1.149  0.1072 -0.1028  0.0737
    1W        W32348   9.406   7.343   2.489  0.1742  0.1249 -0.3118
    1W        W32349   0.541   2.653   7.756 -0.3440  0.0556 -0.2262
    1W        W32350   4.024  16.767   1.884  0.0178 -0.4164  0.0511
    1W        W32351  29.837  15.252   7.063  0.1098  0.1860 -0.1681
    1W        W32352  13.350  19.273   6.957 -0.0037  0.0104 -0.0015
    1W        W32353   7.636   8.889   9.340 -0.0345  0.3422  0.1565
    1W        W32354  19.256  27.247   2.176  0.0562 -0.3769  0.0170
    1W        W32355  24.585   2.059   8.266 -0.0886 -0.1103 -0.1880
    1W        W32356   1.604  21.961   9.174  0.2515 -0.4914 -0.0842
    1W        W32357  13.660   8.794   6.818  0.0579  0.0062  0.1194
    1W        W32358  29.326  18.577   6.622  0.3475 -0.0613 -0.1148
    1W        W32359   1.132  28.034   0.041 -0.0956  0.0181 -0.1833
    1W        W32360  15.672  20.037   7.521  0.0315 -0.0773  0.0418
    1W        W32361   7.382  21.871   7.563 -0.1853 -0.0380 -0.0218
    1W        W32362  23.831   8.371   0.572 -0.2826  0.1335 -0.1159
    1W        W32363   0.656  16.588   7.131 -0.1046 -0.2056 -0.1033
    1W        W32364  29.714   6.041   2.934  0.0050 -0.0686 -0.1379
    1W        W32365   1.522  23.876   8.990 -0.2244 -0.0203  0.0634
    1W        W32366  18.456  14.995   6.859  0.3966  0.3542 -0.0444
    1W        W32367  10.433  18.751   7.909  0.0064 -0.1616  0.0695
    1W        W32368  23.639   6.489   2.843 -0.0828  0.0240 -0.0939
    1W        W32369  22.662  16.385   0.510  0.3139 -0.0080 -0.1200
    1W        W32370  28.903  16.580   2.086 -0.0444  0.0586  0.0937
    1W        W32371   1.769  25.093   1.665 -0.0404  0.2295 -0.0348
    1W        W32372  16.038  18.131   7.415 -0.0988 -0.1709  0.2811
    1W        W32373  19.265  10.385   8.819 -0.1537 -0.2584 -0.4676
    1W        W32374  15.131  23.963   1.433  0.0571  0.1763 -0.2025
    1W        W32375   1.579  19.728   8.251 -0.0272  0.3710  0.2238
    1W        W32376   4.472  15.177   5.951 -0.1154  0.2103  0.0876
    1W        W32377  25.634   2.088   0.482  0.1946  0.2073  0.1872
    1W        W32378  11.127  18.775   1.589  0.0867  0.0684  0.0367
    1W        W32379  11.178   6.804   8.901 -0.3598  0.1951 -0.1002
    1W        W32380  14.974  28.118   9.028 -0.1131 -0.2396  0.1785
    1W        W32381  12.916  12.907   1.436 -0.2282  0.0285  0.0009
    1W        W32382   0.185   3.672   7.533 -0.0116  0.2023  0.1030
    1W        W32383  27.468   1.847   2.167 -0.0900 -0.0333  0.0283
    1W        W32384  12.910   6.460   0.233  0.0876  0.2012 -0.1760
    1W        W32385  20.816  23.437   9.289 -0.3612 -0.2345 -0.1366
    1W        W32386  28.992  17.335   0.385  0.2145 -0.2176 -0.0043
    1W        W32387  20.402   5.878   6.980  0.0726 -0.1154  0.2452
    1W        W32388  22.194   8.497   8.376 -0.1387 -0.0567 -0.0006
    1W        W32389   3.479  24.310   1.896  0.2342  0.2988 -0.1168
    1W        W32390   2.169   3.868   6.966 -0.0288  0.2249 -0.0939
    1W        W32391  23.155   9.729   7.689 -0.0892 -0.1998  0.1594
    1W        W32392  27.381  12.293   7.195 -0.3200  0.4733 -0.1730
    1W        W32393   1.102  29.226   7.730 -0.1471  0.1006 -0.1462
    1W        W32394  19.077   3.349   9.138  0.1596 -0.0149 -0.1108
    1W        W32395  16.987   7.123   1.854  0.1540 -0.3955  0.0243
    1W        W32396  28.471  26.084   9.149 -0.1829 -0.1015  0.3919
    1W        W32397   6.627  11.218   2.175 -0.3122 -0.3383  0.0723
    1W        W32398  11.406  10.050   1.220  0.1155 -0.2983 -0.0920
    1W        W32399   4.999   8.943   2.203 -0.1865 -0.1078  0.0115
    1W        W32400  20.615  11.335   1.535  0.1606  0.1675  0.3021
    1W        W32401  16.507  22.292   9.012  0.3645  0.1723 -0.1583
    1W        W32402  25.280  25.886   0.399  0.0618 -0.3396 -0.2664
    1W        W32403  13.693   0.599   0.780 -0.0509 -0.0602  0.1567
    1W        W32404   9.293  10.164   7.696 -0.3359  0.0636  0.2757
    1W        W32405  29.368  11.625   7.215 -0.0128 -0.2259 -0.0174
    1W        W32406   2.875   5.909   0.797 -0.0963  0.0030 -0.1687
    1W        W32407  14.365  21.627   1.562  0.0881 -0.1167  0.1161
    1W        W32408  15.894  25.435   7.592  0.0949  0.3449 -0.2573
    1W        W32409  29.123  10.221   7.770 -0.1258 -0.1458 -0.2150
    1W        W32410  22.891  15.188   2.169 -0.0485 -0.2176 -0.2487
    1W        W32411  23.269   7.635   8.932 -0.2035 -0.1031  0.4247
    1W        W32412   9.742   2.973   8.253 -0.1168 -0.0939 -0.1983
    1W        W32413  21.393   4.618   9.029 -0.1841 -0.2858  0.2255
    1W        W32414  18.078  29.241   2.259 -0.1369 -0.0171  0.0105
    1W        W32415   2.568  16.892   7.792 -0.1183 -0.1703 -0.4358
    1W        W32416   2.581   1.183   2.576 -0.0009  0.1208  0.2244
    1W        W32417   0.816  22.243   7.857  0.2199  0.0097  0.0019
    1W        W32418  28.362  20.077   7.992 -0.1693  0.0421  0.1305
    1W        W32419  19.154  27.983   0.148 -0.2624  0.1784  0.1128
    1W        W32420  29.705  26.674   0.623  0.0414 -0.0779  0.0275
    1W        W32421   7.128  11.249   9.185  0.1774 -0.0803 -0.1241
    1W        W32422  13.908  18.821   1.028 -0.0383 -0.2120  0.1154
    1W        W32423  16.431   7.502   8.750  0.3633  0.0412 -0.0904
    1W        W32424  13.031  12.620   0.145 -0.1154 -0.0815  0.0677
    1W        W32425   7.740   5.640   2.827  0.0000  0.2345 -0.1326
    1W        W32426   8.906   1.185   1.224 -0.0644 -0.0838 -0.1024
    1W        W32427   4.790  28.079   3.027 -0.2759 -0.2656  0.1813
    1W        W32428   2.719  12.118   8.681 -0.2682 -0.1933  0.0552
    1W        W32429  14.775  27.410   3.379  0.1168 -0.1170 -0.2446
    1W        W32430  22.353  10.201   6.622 -0.2181 -0.4675 -0.1043
    1W        W32431   3.716   3.690   6.816  0.1402  0.2495 -0.1584
    1W        W32432   4.070  26.072   6.505  0.2170 -0.5225  0.0796
    1W        W32433  23.930  15.758   0.705  0.0117  0.1165 -0.0478
    1W        W32434   7.515  18.721   9.148 -0.1793 -0.1224 -0.0941
    1W        W32435   1.952   0.972   6.219 -0.2048  0.0190 -0.3084
    1W        W32436   2.414  22.546   8.489  0.0760 -0.0976 -0.1870
    1W        W32437  25.829   8.702   2.129 -0.1898  0.0634  0.1248
    1W        W32438  10.067  21.782   6.449 -0.0748  0.1771 -0.0533
    1W        W32439   3.227   7.102   8.341 -0.0927  0.0007 -0.0360
    1W        W32440  19.110  20.279   7.062 -0.0829 -0.3210 -0.1754
    1W        W32441  25.291  17.165   6.901  0.0551  0.1347 -0.1695
    1W        W32442  25.957  19.953   8.647 -0.1489 -0.0593  0.0275
    1W        W32443  29.885  20.513   7.593 -0.1764  0.1404  0.0211
    1W        W32444   5.154  16.148   0.511  0.1028  0.0758 -0.0085
    1W        W32445   4.529   2.523   2.964 -0.0509 -0.1447 -0.0140
    1W        W32446  27.136   1.648   6.684 -0.2524 -0.1805  0.1933
    1W        W32447  12.876  22.780   2.172 -0.2573 -0.0145  0.1823
    1W        W32448   2.345  22.142   5.534 -0.2581 -0.1592  0.0319
    1W        W32449  28.122  18.518   9.112  0.2597 -0.0485 -0.0867
    1W        W32450  14.742  21.946   0.008 -0.2758  0.3330 -0.1625
    1W        W32451   0.972  20.208   1.551  0.1548  0.2855  0.0788
    1W        W32452  15.237   7.127   8.363  0.0431  0.1621 -0.1817
    1W        W32453   8.945  19.052   8.628 -0.1343 -0.1172  0.1299
    1W        W32454  19.595  17.527   7.189  0.0126  0.1370  0.0825
    1W        W32455   7.497  18.562   2.086  0.1108 -0.1191 -0.2418
    1W        W32456   7.020   0.043   6.903  0.0340  0.0675 -0.0746
    1W        W32457  14.603   0.676   0.665 -0.1377 -0.4285  0.1156
    1W        W32458   3.300  20.122   1.744 -0.2541 -0.1015  0.1812
    1W        W32459   8.847  13.297   2.548 -0.0462  0.2831  0.0077
    1W        W32460  29.794  20.197   9.259 -0.0998 -0.2931 -0.0917
    1W        W32461   8.470  19.885   2.073 -0.1890 -0.0943 -0.1878
    1W        W32462   4.586  10.168   1.653  0.1351 -0.2235 -0.1179
    1W        W32463   8.225   8.937   6.946  0.3819 -0.1216 -0.1856
    1W        W32464  16.205   5.911   1.213  0.1076  0.1743 -0.1700
    1W        W32465  25.515  11.900   9.217  0.0855 -0.0793  0.0408
    1W        W32466  16.664  22.251   1.950 -0.1606 -0.2348 -0.1055
    1W        W32467  29.019   4.696   6.444  0.0712 -0.0632  0.0254
    1W        W32468  10.838  19.698   9.075 -0.0205 -0.4106 -0.1818
    1W        W32469  20.360   6.535   7.569  0.4098 -0.0499  0.0505
    1W        W32470   6.779   5.432   2.448 -0.1710 -0.3696 -0.1064
    1W        W32471  23.766  20.375   6.844  0.1795 -0.0789  0.4523
    1W        W32472  14.842  15.918   0.254  0.1670  0.0825 -0.2417
    1W        W32473   4.053  13.696   8.587 -0.0129  0.0400 -0.0072
    1W        W32474   9.555   8.745   2.295  0.0231 -0.2089  0.1300
    1W        W32475   9.984   0.213   2.687  0.2578  0.0993  0.0223
    1W        W32476   7.464   5.166   0.417 -0.1634  0.1448  0.1128
    1W        W32477  21.447   5.930   1.584  0.1307 -0.0993 -0.1943
    1W        W32478  21.397  14.536   0.393  0.2205 -0.2304  0.5002
    1W        W32479  25.060  17.550   6.601  0.1516  0.3787 -0.1115
    1W        W32480   4.861  11.027   7.420  0.2209 -0.1313  0.1387
    1W        W32481   7.320  23.959   7.940 -0.0774 -0.1452 -0.0992
    1W        W32482  14.390  15.209   6.385  0.0869 -0.0966 -0.0294
    1W        W32483   5.742  26.510   9.185 -0.2552 -0.3297  0.4786
    1W        W32484   7.810  13.749   0.349 -0.1494  0.0875  0.2468
    1W        W32485  13.523  18.658   7.441  0.3045  0.0677 -0.1839
    1W        W32486  18.352  24.310   8.745 -0.1701 -0.2562 -0.3530
    1W        W32487   5.849  14.843   7.735 -0.4021  0.0867  0.2844
    1W        W32488  11.601   1.684   3.619  0.1117 -0.1401  0.0990
    1W        W32489  28.094  26.567   7.319  0.4813 -0.0826  0.0483
    1W        W32490  20.256   3.895   8.975 -0.0252  0.2408 -0.3193
    1W        W32491  23.305   2.287   2.094  0.1200 -0.0656  0.2098
    1W        W32492  15.559   6.476   0.962 -0.1433  0.1403 -0.1068
    1W        W32493  12.803   0.728   1.471  0.2683 -0.0874 -0.3538
    1W        W32494  18.088   2.931   8.486  0.4235  0.2473 -0.0675
    1W        W32495  17.401  25.543   2.284  0.2526  0.1218  0.0030
    1W        W32496   3.947   9.847   2.635 -0.0249  0.1290  0.0569
    1W        W32497   7.899   2.391   2.297 -0.0295 -0.2917  0.0732
    1W        W32498   7.866   2.382   0.129  0.0636  0.0829  0.0174
    1W        W32499  10.720   6.627   2.693  0.1974 -0.3265 -0.0104
    1W        W32500  29.648  20.670   9.253 -0.0166  0.1764 -0.0324
    1W        W32501  26.691   3.852   3.215  0.2435  0.3283 -0.1871
    1W        W32502  15.650   1.403   8.193  0.0177 -0.1431 -0.2010
    1W        W32503  22.696   1.063   0.767  0.0400  0.3677 -0.1141
    1W        W32504  21.941   3.180   0.320  0.1965  0.1995  0.1777
    1W        W32505  24.183  28.357   8.297 -0.0977  0.5092 -0.1780
    1W        W32506  11.313  27.207   7.273  0.1388  0.1676 -0.0565
    1W        W32507  10.337   2.823   1.501  0.0083  0.1092  0.0695
    1W        W32508  23.888   6.649   9.141 -0.1917 -0.0435 -0.0764
    1W        W32509  29.409  24.964   7.553 -0.2394 -0.3045 -0.1597
    1W        W32510  26.715  23.107   1.966  0.1056 -0.0569 -0.0976
    1W        W32511  28.257   7.135   9.171  0.0739  0.0928 -0.1384
    1W        W32512   1.848  18.925   0.133  0.0465 -0.2110 -0.2753
    1W        W32513   3.946  23.901   7.034 -0.2689 -0.1674  0.0148
    1W        W32514  14.414   7.700   0.142  0.2623  0.1057 -0.0208
    1W        W32515   1.026  25.520   7.091 -0.3053 -0.1341  0.0833
    1W        W32516   9.255   7.995   9.296  0.0267 -0.1944 -0.0540
    1W        W32517  28.232  17.322   1.125  0.0058 -0.1019 -0.0251
    1W        W32518  24.505  20.727   8.570 -0.0572  0.1164  0.1979
    1W        W32519   7.269  24.985   8.012 -0.4216  0.2010  0.0349
    1W        W32520  11.174  19.049   7.152  0.1489 -0.0212  0.1335
    1W        W32521   4.233  12.621   2.597  0.3077 -0.0106 -0.1448
    1W        W32522  15.184   8.658   2.263 -0.0776  0.2481 -0.1279
    1W        W32523   8.970  26.763   2.021  0.1282  0.0277 -0.0475
    1W        W32524  17.497  18.834   1.400  0.0716 -0.2056 -0.2422
    1W        W32525  28.639  12.503   0.900  0.2001 -0.3024  0.1185
    1W        W32526   4.966  20.281   7.464  0.1218 -0.1602 -0.1314
    1W        W32527  13.015  24.189   7.326  0.1061  0.2285 -0.0993
    1W        W32528  22.683  13.282   6.733  0.3299  0.1392 -0.0744
    1W        W32529  21.516  14.408   2.167  0.4112  0.0780 -0.2257
    1W        W32530  27.679  15.988   8.783 -0.1274 -0.1700  0.0208
    1W        W32531  14.841  14.327   7.279 -0.0258 -0.0015 -0.1275
    1W        W32532  15.316  23.784   9.192 -0.1688  0.1853  0.0429
    1W        W32533  10.298  26.616   8.177 -0.1176 -0.0928 -0.0552
    1W        W32534  17.410  28.922   3.561 -0.1035  0.1984 -0.0492
    1W        W32535   1.087  17.130   7.519 -0.2258  0.2837  0.4088
    1W        W32536   0.623  20.763   7.064  0.1835  0.0915 -0.0246
    1W        W32537  17.226  20.135   0.865  0.2723 -0.0159 -0.1936
    1W        W32538  29.480  21.746   0.481 -0.2852 -0.1366 -0.3383
    1W        W32539   2.301   2.485   2.121 -0.1306  0.4845  0.3205
    1W        W32540  24.632  23.474   8.213 -0.2427  0.0936 -0.0158
    1W        W32541  23.310  12.539   6.797 -0.0515  0.0140 -0.0608
    1W        W32542  15.423   2.919   1.502 -0.0392  0.1548  0.0984
    1W        W32543   0.420   6.725   8.605  0.0827 -0.1363  0.1492
    1W        W32544   8.269  11.492   0.798 -0.1854  0.2064  0.0701
    1W        W32545  15.229  23.401   6.477 -0.3718 -0.4349  0.0142
    1W        W32546   2.148  17.955   9.173 -0.2517  0.0189  0.1729
    1W        W32547  16.734   2.820   7.495 -0.2330  0.3349  0.2512
    1W        W32548  18.580   3.655   0.404 -0.1625 -0.0227 -0.1399
    1W        W32549  18.542  15.224   8.308  0.3025 -0.0315 -0.2850
    1W        W32550   9.015  13.453   8.064  0.0881  0.0399  0.0640
    1W        W32551  14.590  27.924   7.912  0.1219  0.2259 -0.3061
    1W        W32552  12.374  16.983   6.927  0.0152  0.0935  0.2631
    1W        W32553   9.708  23.347   1.128  0.2644 -0.3838  0.1761
    1W        W32554  10.495  20.478   8.358 -0.2719 -0.3011  0.2810
    1W        W32555  15.621   5.277   2.240 -0.0242  0.0086  0.3354
    1W        W32556  20.773  13.066   8.516 -0.2613  0.0107 -0.1504
    1W        W32557  14.094   1.864   3.827 -0.3286  0.0924  0.2766
    1W        W32558  19.573  28.736   1.364  0.1695  0.1375  0.0709
    1W        W32559  16.534  14.670   1.276 -0.2833  0.2996  0.0145
    1W        W32560   6.361   7.506   1.254  0.0295 -0.1550 -0.0384
    1W        W32561  12.662   6.202   3.055 -0.2191 -0.1185  0.0027
    1W        W32562   9.052   9.380   8.454  0.1551  0.0430 -0.0541
    1W        W32563   1.540  25.418   6.186 -0.1777  0.0773 -0.1788
    1W        W32564  20.602  22.209   2.527  0.1164 -0.0708 -0.0180
    1W        W32565  22.469  21.645   8.241  0.1000  0.1237 -0.0578
    1W        W32566  28.233  10.246   6.213 -0.3194 -0.1010  0.1977
    1W        W32567  17.800  27.925   0.986 -0.1712 -0.0690  0.0164
    1W        W32568  17.850  15.225   0.822  0.1578 -0.2153  0.1294
    1W        W32569   2.334  11.248   0.282 -0.1143  0.0202  0.0091
    1W        W32570  28.898  20.847   8.993 -0.1352 -0.0819  0.1254
    1W        W32571   5.573   1.593   1.855  0.1875  0.0110  0.1050
    1W        W32572  20.576  16.932   2.389  0.0517 -0.2606 -0.5917
    1W        W32573  13.201   0.730   0.612 -0.1480  0.0846  0.1484
    1W        W32574  11.530   5.398   9.295 -0.2406 -0.1901 -0.2723
    1W        W32575  26.809  23.647   2.414 -0.0795 -0.1312 -0.0500
    1W        W32576   0.871   2.243   7.501 -0.4378  0.0473 -0.0070
    1W        W32577  14.152  26.366   0.717  0.2234  0.1632  0.3237
    1W        W32578   9.015   0.436   7.998  0.1856 -0.0854 -0.1202
    1W        W32579  11.900   5.091   2.553  0.4001  0.1162 -0.1660
    1W        W32580  16.882  24.538   0.188  0.0315  0.4279  0.1333
    1W        W32581  17.506  15.710   1.620 -0.0099 -0.4330 -0.0677
    1W        W32582  10.688   2.887   2.634  0.0482 -0.1620 -0.1908
    1W        W32583  18.680   2.233   8.750 -0.0704 -0.0210  0.3576
    1W        W32584  28.231   0.851   0.365 -0.0200  0.0160  0.3985
    1W        W32585  14.844  19.535   8.965 -0.0488 -0.1205 -0.2090
    1W        W32586  23.165  28.621   0.724 -0.1430 -0.0576  0.0381
    1W        W32587  16.666  28.427   8.917  0.0282  0.3757  0.0357
    1W        W32588  28.517  27.759   7.505  0.0758  0.1497 -0.0421
    1W        W32589  24.471   4.477   8.629  0.1132 -0.1507  0.1960
    1W        W32590   9.105  12.345   1.344 -0.0303  0.0218 -0.1369
    1W        W32591  28.510  17.270   8.033 -0.1079  0.2529  0.1257
    1W        W32592  17.329  25.082   1.795  0.0870  0.4726 -0.3590
    1W        W32593  11.122  25.932   7.232  0.1175 -0.1762  0.0840
    1W        W32594  14.728  12.703   7.604 -0.2704  0.4179 -0.0567
    1W        W32595  28.874   2.036   7.165 -0.1243 -0.0293 -0.1315
    1W        W32596  10.452  17.426   2.162  0.1015 -0.1191  0.0834
    1W        W32597  17.316  20.466   7.827 -0.0602 -0.1125 -0.1798
    1W        W32598  29.018   0.560   7.891  0.0990  0.0028  0.2211
    1W        W32599  26.947  28.146   0.403 -0.1179  0.4978  0.1774
    1W        W32600   0.750  20.673   6.547 -0.2070  0.4135  0.0487
    1W        W32601   6.636   3.953   0.210 -0.1442 -0.1346 -0.1033
    1W        W32602  27.478  28.564   7.375  0.0859  0.2272 -0.5974
    1W        W32603  10.141  15.202   7.120  0.0919 -0.0984  0.2520
    1W        W32604  23.653  24.858   0.479  0.2617 -0.0547 -0.3918
    1W        W32605  16.611   6.574   9.087  0.1262 -0.0287  0.1453
    1W        W32606   9.014  20.716   6.906 -0.2248  0.2054  0.1069
    1W        W32607   0.013  27.229   8.353  0.1837  0.2194  0.0486
    1W        W32608   2.575  16.429   7.399  0.4189 -0.0384 -0.1098
    1W        W32609  24.063  21.206   2.495 -0.0883 -0.2378  0.1863
    1W        W32610  17.078  29.487   8.174 -0.0928 -0.2035 -0.2881
    1W        W32611  12.053  12.410   2.363  0.2782 -0.0744  0.1562
    1W        W32612   0.850  14.960   2.681  0.1691 -0.2473  0.4630
    1W        W32613  27.255  17.691   6.936 -0.0309 -0.1082  0.1007
    1W        W32614   7.656   7.806   9.179  0.0057 -0.3844 -0.1512
    1W        W32615  28.170  10.621   1.192 -0.1714  0.4281  0.3371
    1W        W32616   8.463  28.032   0.173  0.1739 -0.1279  0.0210
    1W        W32617   3.043   1.092   2.404 -0.3592 -0.3348 -0.3326
    1W        W32618  12.581  15.802   6.217  0.0110  0.1442  0.2169
    1W        W32619   3.664  17.244   0.079  0.2870 -0.0235 -0.1265
    1W        W32620  21.492  25.733   3.012 -0.2058  0.0063 -0.1692
    1W        W32621   7.870  28.989   3.273 -0.0872 -0.2867  0.0245
    1W        W32622  23.870  24.572   8.575 -0.0015 -0.2165 -0.0015
    1W        W32623   5.112  10.825   9.006  0.0899  0.2633  0.0990
    1W        W32624  19.510  13.927   0.639  0.0682 -0.0439 -0.0681
    1W        W32625  29.293  28.472   9.357 -0.0433 -0.1954  0.1677
    1W        W32626  10.020  24.154   8.822  0.1151 -0.1707  0.3131
    1W        W32627   0.025  25.803   9.154  0.3088  0.1562  0.0734
    1W        W32628  19.781  27.157   2.280 -0.3115  0.1062  0.1606
    1W        W32629   9.925  24.428   7.140  0.0996 -0.0136 -0.2128
    1W        W32630  26.137   4.755   8.877  0.0428  0.0965 -0.1539
    1W        W32631  19.770  23.300   2.821 -0.2033  0.0711  0.2687
    1W        W32632  21.828   5.697   9.135  0.2331 -0.2073 -0.0610
    1W        W32633   7.753  10.648   3.519 -0.1167 -0.0693 -0.0043
    1W        W32634  17.970   2.469   3.196  0.2222  0.1273 -0.1902
    1W        W32635  18.180   6.082   2.172  0.0152 -0.0652  0.0546
    1W        W32636   5.502  27.779   8.081 -0.2329  0.2622 -0.0827
    1W        W32637   1.545  28.777   1.818 -0.2071 -0.2018 -0.1052
    1W        W32638  13.409  17.354   7.703 -0.1332 -0.0915 -0.0461
    1W        W32639  17.888  25.145   6.967  0.1438  0.0175 -0.0809
    1W        W32640  15.984  14.488   7.431 -0.0236 -0.0954 -0.0119
    1W        W32641   3.517  25.650   7.669 -0.2060 -0.2812 -0.0263
    1W        W32642   6.759   7.628   8.881 -0.0793 -0.2522  0.1326
    1W        W32643  11.232   9.967   8.598  0.0522 -0.0749  0.0927
    1W        W32644  28.305   4.508   7.823 -0.4147 -0.2166  0.1793
    1W        W32645   5.064  24.906   2.463 -0.0441  0.0589  0.2718
    1W        W32646  10.597   5.132   0.257 -0.1470  0.0694  0.2075
    1W        W32647  25.885   6.668   9.400 -0.1737 -0.0431  0.1750
    1W        W32648  20.969  12.477   1.084 -0.1763  0.0861  0.0509
    1W        W32649   8.088  17.482   0.953 -0.0469 -0.1412 -0.0153
    1W        W32650  10.256  24.881   8.710 -0.3427 -0.0497  0.1803
    1W        W32651  26.030  11.822   9.241 -0.0856  0.0872  0.0531
    1W        W32652  26.751  12.596   6.504  0.2104 -0.1711  0.2820
    1W        W32653   5.000   9.392   7.917 -0.1381  0.1453  0.1108
    1W        W32654   4.604  27.992   1.221  0.1971 -0.0848 -0.0925
    1W        W32655   1.706  19.104   6.553 -0.0336  0.1809 -0.0942
    1W        W32656  12.402   0.844   0.030  0.0851  0.4033  0.2992
    1W        W32657  22.319  28.929   9.203  0.2500 -0.3443  0.2002
    1W        W32658  28.515  16.725   2.367 -0.0270  0.0197 -0.2601
    1W        W32659  14.167   9.015   8.813 -0.0582 -0.1495 -0.2776
    1W        W32660  10.086   5.258   7.486  0.1390 -0.1996 -0.0705
    1W        W32661  14.410  27.318   7.835  0.1394  0.0829 -0.1831
    1W        W32662  16.184  24.894   3.373 -0.0586 -0.2781 -0.1659
    1W        W32663   0.654  29.726   8.385  0.2376  0.2351 -0.3143
    1W        W32664  11.532  10.760   6.989  0.1766 -0.1150  0.3002
    1W        W32665  12.536  15.916   0.078 -0.2804  0.2388  0.0454
    1W        W32666  29.083  18.482   2.368 -0.3728  0.2260 -0.0708
    1W        W32667  24.873  22.883   0.279  0.0404 -0.1602  0.2014
    1W        W32668  14.553  15.528   0.396  0.1037  0.2576  0.1532
    1W        W32669  29.759  13.001   0.053  0.0652 -0.2025  0.0868
    1W        W32670  16.622   2.140   2.958  0.4198  0.0639  0.0214
    1W        W32671  13.833  22.610   0.708 -0.0706  0.0960  0.2173
    1W        W32672  13.492  28.559   3.042 -0.0779 -0.3302 -0.1060
    1W        W32673  11.920   0.623   2.158  0.1534 -0.1263 -0.2876
    1W        W32674  18.077   6.636   6.963  0.1014  0.0024  0.0818
    1W        W32675   3.413  17.517   6.086 -0.2892  0.1343  0.1134
    1W        W32676  22.574  23.144   8.629  0.0526 -0.1979 -0.0995
    1W        W32677   9.369   8.344   7.307 -0.3955 -0.0579  0.2651
    1W        W32678  28.362  12.280   2.090 -0.0878  0.0929 -0.0878
    1W        W32679  27.868  23.747   7.822  0.2881  0.0641 -0.0145
    1W        W32680  26.994   8.396   7.756 -0.0602  0.1155  0.2980
    1W        W32681  23.264  27.906   7.053  0.1360 -0.2731 -0.0425
    1W        W32682  24.829  28.745   7.748  0.0838  0.0419 -0.1318
    1W        W32683  28.746   9.390   1.090  0.1714  0.1597  0.0496
    1W        W32684  11.040  11.282   2.452 -0.0408  0.2328 -0.1801
    1W        W32685   2.411  19.172   1.082 -0.0380  0.0625  0.5169
    1W        W32686   6.566  21.014   8.807 -0.0501  0.1443  0.0147
    1W        W32687  28.930  18.475   7.937 -0.1466 -0.0971 -0.3149
    1W        W32688  16.251   1.935   1.355  0.0129  0.1493  0.1074
    1W        W32689   1.842  11.902   7.833 -0.1009  0.1362 -0.1216
    1W        W32690   0.529  15.524   1.974 -0.2635 -0.0686 -0.2973
    1W        W32691  20.047  18.787   7.204 -0.0066 -0.0638  0.0638
    1W        W32692  15.274   4.253   9.211 -0.2246 -0.1344  0.0900
    1W        W32693  15.829   2.919   9.428  0.0266  0.2487  0.0867
    1W        W32694  27.413   5.219   2.784 -0.1134  0.0165  0.0051
    1W        W32695  26.693  25.962   8.272  0.4396  0.2215  0.2107
    1W        W32696  23.295   5.594   1.904  0.0307  0.1106  0.0936
    1W        W32697  22.932   7.080   9.393 -0.0956 -0.4632 -0.0844
    1W        W32698  14.665   6.864   7.412 -0.0556  0.3803  0.1574
    1W        W32699  15.842  25.847   9.286 -0.3134  0.1980 -0.2088
    1W        W32700   9.992  12.099   7.700  0.0523 -0.0910 -0.2219
    1W        W32701  17.461  26.515   1.920  0.1468  0.3673 -0.2823
    1W        W32702   9.968  21.695   8.670  0.0517  0.3603  0.1504
    1W        W32703   3.427   3.079   1.519  0.1084 -0.3663  0.3705
    1W        W32704  17.351   3.835   1.081 -0.2041  0.1324  0.2228
    1W        W32705   8.857   8.399   7.304  0.2680  0.2202  0.0516
    1W        W32706   2.681   1.039   2.048  0.1088  0.2298 -0.0770
    1W        W32707   1.707   7.494   1.933  0.2195 -0.0116 -0.0038
    1W        W32708   2.545  29.854   0.365 -0.1738  0.0208 -0.2821
    1W        W32709   7.055   8.974   8.652 -0.0068 -0.1854 -0.2080
    1W        W32710  20.676  15.876   8.792  0.0457  0.1592  0.0439
    1W        W32711  23.941   4.861   7.645  0.0282 -0.1380 -0.0994
    1W        W32712   8.195   7.922   6.993  0.0686  0.0443 -0.3390
    1W        W32713   0.527   1.951   6.547  0.1496  0.2880  0.0182
    1W        W32714  16.812  16.741   1.460  0.0511  0.1378 -0.0638
    1W        W32715  21.018   1.113   1.608 -0.0553 -0.0409  0.0808
    1W        W32716   0.975   7.611   1.614 -0.0592  0.3349 -0.1318
    1W        W32717  19.666   1.986   8.657  0.0420  0.2813  0.1505
    1W        W32718   5.233  15.052   0.068 -0.1450 -0.0834 -0.0358
    1W        W32719   7.974  28.473   9.320 -0.0828 -0.1040 -0.1551
    1W        W32720   1.435   8.355   7.900  0.1784  0.0760 -0.1059
    1W        W32721  18.685  24.370   2.484 -0.2533  0.5883 -0.3466
    1W        W32722  18.921  10.110   8.028 -0.0330  0.0160  0.0938
    1W        W32723   6.096  11.603   0.368 -0.2011  0.1295  0.1761
    1W        W32724  11.690  19.485   1.153  0.0417 -0.0952  0.4535
    1W        W32725  15.075   4.760   8.250  0.1009  0.2215 -0.0257
    1W        W32726  12.405  10.044   9.276  0.1450  0.1120  0.0446
    1W        W32727  10.052  14.143   1.364 -0.0271 -0.1425 -0.3673
    1W        W32728   1.481   3.671   0.510 -0.3346 -0.2031 -0.0020
    1W        W32729  26.197  28.494   0.028 -0.0781  0.0274 -0.0410
    1W        W32730  15.634   6.658   9.243  0.0945 -0.1546 -0.1825
    1W        W32731  11.877  11.197   1.838 -0.0704 -0.1109 -0.1121
    1W        W32732  16.889   2.509   8.465  0.0994 -0.0224  0.1362
    1W        W32733   8.939  21.776   8.216  0.1746 -0.0948  0.1028
    1W        W32734   6.269  12.110   0.721 -0.0844  0.0451 -0.0140
    1W        W32735   4.953  18.241   7.646 -0.1589  0.0399  0.0875
    1W        W32736   9.979  27.600   9.375 -0.1014  0.1021 -0.2744
    1W        W32737  19.038  26.686   2.690 -0.1445  0.0655  0.3283
    1W        W32738   6.448  24.745   0.032 -0.1283  0.0543  0.2688
    1W        W32739  11.955   6.388   2.741  0.1089 -0.1391 -0.1087
    1W        W32740  29.554  16.280   6.512  0.1441  0.0879  0.0639
    1W        W32741  21.131  28.382   7.187 -0.0153 -0.3327  0.0769
    1W        W32742  28.952   1.104   2.678  0.1223 -0.2320  0.3606
    1W        W32743  23.397   3.142   9.178  0.0432 -0.0021  0.0155
    1W        W32744  26.737   5.502   1.244  0.0990 -0.3218  0.4706
    1W        W32745  26.090   9.420   7.929 -0.1551  0.0896  0.0995
    1W        W32746  15.095  29.345   2.042 -0.0264  0.1694  0.2396
    1W        W32747  26.706  23.160   2.543  0.0561  0.2958 -0.2250
    1W        W32748  10.070   1.596   3.405 -0.0560 -0.0279 -0.1538
    1W        W32749   5.855  12.262   1.044 -0.2391  0.1013  0.3749
    1W        W32750  20.074   1.450   9.126  0.2711 -0.1494  0.2079
    1W        W32751  15.505   6.241   0.068  0.1770 -0.0756 -0.0416
    1W        W32752  13.017  23.430   1.318  0.1696  0.2013  0.0161
    1W        W32753   6.208  12.472   7.172  0.0074  0.1619 -0.0158
    1W        W32754  26.314  15.639   7.334 -0.4764  0.0528 -0.2338
    1W        W32755  13.723  17.141   7.376 -0.0521 -0.0066  0.0778
    1W        W32756  27.650   9.112   0.589  0.0942 -0.0238  0.0337
    1W        W32757   1.226   2.447   8.926  0.1342 -0.0207 -0.1900
    1W        W32758  23.057  10.469   5.862 -0.1083 -0.1417  0.1926
    1W        W32759  25.927   3.080   6.974  0.0901  0.2734 -0.0203
    1W        W32760  11.788  23.831   7.988  0.1028  0.3141  0.0118
    1W        W32761  18.160  12.409   8.564 -0.3324  0.0052  0.3794
    1W        W32762  28.710  27.830   0.281  0.0626 -0.1405 -0.2382
    1W        W32763  20.139   8.239   7.413  0.0451 -0.1048  0.1955
    1W        W32764  26.477   8.726   2.893  0.2436  0.0663  0.0641
    1W        W32765  16.023  14.354   0.829 -0.0378 -0.1872 -0.2888
    1W        W32766   7.881  20.467   7.718 -0.0624 -0.0221  0.1495
    1W        W32767  10.894   1.110   2.432 -0.2961 -0.0058  0.3459
    1W        W32768  22.849  21.800   8.622  0.0636 -0.3289 -0.0821
    1W        W32769  10.337   3.620   1.254 -0.0830  0.0343  0.5906
    1W        W32770   6.025  26.679   7.543 -0.1225  0.0718 -0.3480
    1W        W32771  26.768  23.474   1.462  0.1404  0.2215  0.0723
    1W        W32772  25.027  10.857   1.865  0.1908  0.0331 -0.1243
    1W        W32773  18.005   7.190   0.448  0.4366  0.0305  0.2025
    1W        W32774   4.908  20.845   6.096 -0.0617  0.0158  0.3235
    1W        W32775   7.775   3.524   6.901  0.0403 -0.1364  0.0273
    1W        W32776  19.950   5.557   8.636  0.2674  0.4763 -0.4143
    1W        W32777   1.605   0.682   6.341 -0.0129 -0.2142  0.0256
    1W        W32778  10.322   0.413   8.552 -0.1540 -0.0956 -0.1353
    1W        W32779  27.395  29.894   0.630 -0.0782  0.2720 -0.0646
    1W        W32780  23.366  25.521   1.710  0.0577  0.2474  0.0636
    1W        W32781  22.492  27.515   7.074  0.2070 -0.1107  0.0575
    1W        W32782   1.551   0.064   2.389  0.0175 -0.5386 -0.1872
    1W        W32783   3.726  12.498   2.437  0.0946  0.2561  0.2211
    1W        W32784   8.767  20.772   0.902 -0.1665  0.0765 -0.2945
    1W        W32785  27.804   5.565   1.725  0.1103 -0.1145 -0.0711
    1W        W32786  18.941  16.002   8.955  0.1313 -0.1221  0.1863
    1W        W32787   6.521   1.373   1.808 -0.0373  0.0608  0.1335
    1W        W32788   9.553  29.712   3.936  0.0819  0.0972  0.1779
    1W        W32789  27.923   4.406   1.565 -0.3025 -0.0327 -0.1487
    1W        W32790   9.124  14.897   2.017  0.1305  0.0474 -0.1712
    1W        W32791  29.494   7.339   9.059  0.0453 -0.1141 -0.0466
    1W        W32792  23.559   5.164   7.551 -0.1689 -0.1672  0.2457
    1W        W32793   6.928   3.717   1.162  0.4671  0.0955 -0.2897
    1W        W32794   3.156  27.700   1.658 -0.2408 -0.0199 -0.2994
    1W        W32795   9.420  22.888   0.906  0.1456 -0.3235  0.3885
    1W        W32796  25.235  21.572   3.086  0.0589 -0.0212 -0.0815
    1W        W32797  27.629  19.421   9.029 -0.1563 -0.0570 -0.1121
    1W        W32798   2.390  29.266   8.068  0.1888 -0.0736  0.0073
    1W        W32799  23.936  14.129   8.329 -0.0691 -0.1783  0.1223
    1W        W32800  20.534   3.684   2.137 -0.1627  0.0314  0.2026
    1W        W32801   2.647  25.970   8.241 -0.0488 -0.1010  0.0169
    1W        W32802   4.600  14.542   7.342  0.0560  0.2146  0.2081
    1W        W32803  15.518   4.793   2.135  0.4539 -0.1149 -0.1953
    1W        W32804  20.170  29.503   2.694 -0.1054 -0.2780 -0.1193
    1W        W32805   0.064  17.915   7.616 -0.1488 -0.0413  0.1558
    1W        W32806  19.773   7.907   7.262  0.0465 -0.1041  0.1010
    1W        W32807   2.632  29.402   6.904  0.1451 -0.0265 -0.2410
    1W        W32808   1.543   0.579   2.176  0.2148 -0.0547  0.0514
    1W        W32809  16.918  14.198   0.275 -0.0770  0.0827  0.0071
    1W        W32810   1.296   7.178   1.539 -0.5341  0.4675  0.2004
    1W        W32811   4.725   8.673   0.418 -0.1466  0.2249 -0.1492
    1W        W32812  24.772  24.764   8.762  0.1750  0.1249 -0.1560
    1W        W32813  20.191  17.386   1.549 -0.0142  0.0843  0.0936
    1W        W32814  26.373  10.892   8.450 -0.1194 -0.0337 -0.2059
    1W        W32815   8.444  21.476   8.391  0.2002 -0.0010 -0.0974
    1W        W32816  17.331  12.554   0.652 -0.2228  0.1462 -0.1834
    1W        W32817  22.080   2.923   8.425  0.0432 -0.1264  0.1908
    1W        W32818  26.564  17.431   0.046 -0.1821 -0.0997 -0.1193
    1W        W32819  28.815  27.124   9.206  0.0181 -0.2141 -0.1364
    1W        W32820  12.927  19.118   1.372  0.0442 -0.1786  0.1986
    1W        W32821  24.735  10.023   8.869  0.0693 -0.0059  0.0807
    1W        W32822  24.038  24.581   7.007 -0.0306 -0.1429  0.0385
    1W        W32823   1.908  22.557   9.025  0.1647 -0.2057 -0.1394
    1W        W32824   3.516  28.950   8.094  0.0548 -0.0791  0.1764
    1W        W32825  25.959  11.326   7.934  0.0609 -0.1582 -0.0523
    1W        W32826   5.838  29.872   6.994 -0.0100 -0.1932  0.5452
    1W        W32827   0.763   3.386   8.807  0.0514 -0.1957 -0.0267
    1W        W32828  13.541   4.287   9.456 -0.0746 -0.1131  0.2919
    1W        W32829  20.347  14.022   8.160  0.1597 -0.0198  0.1681
    1W        W32830  20.494  13.786   6.885 -0.2116  0.1075 -0.2612
    1W        W32831  19.701   4.298   0.981  0.2181 -0.1884  0.1636
    1W        W32832  19.897  28.653   7.186  0.0024  0.0716  0.1171
    1W        W32833  24.982   9.065   0.065 -0.2726  0.0655 -0.2206
    1W        W32834   0.634   4.405   1.131  0.0096  0.0763  0.3263
    1W        W32835   6.113   0.075   8.705  0.0305  0.2663  0.3259
    1W        W32836  11.960  25.825   6.309  0.1136  0.0491 -0.1994
    1W        W32837  24.656   6.575   8.660 -0.0347  0.0697 -0.0427
    1W        W32838  21.109   1.277   0.203 -0.0482  0.0319 -0.1008
    1W        W32839  18.420  25.056   8.160 -0.1568 -0.2204  0.0547
    1W        W32840  18.742   2.326   0.624  0.1543 -0.3047  0.2970
    1W        W32841   1.156  17.198   6.912  0.0606 -0.2186  0.0788
    1W        W32842  13.511  21.981   8.515  0.1820 -0.0044  0.6010
    1W        W32843  22.503   2.397   1.542  0.0266 -0.2178  0.1373
    1W        W32844  10.352   8.075   8.172 -0.2036  0.2201  0.0518
    1W        W32845   6.216  11.438   6.886 -0.1446  0.1029 -0.2578
    1W        W32846  17.855  16.353   7.260  0.1809  0.0146 -0.4607
    1W        W32847  22.379  29.458   1.736 -0.3256  0.0181  0.0019
    1W        W32848  13.293  11.291   0.945  0.0802 -0.1589  0.1004
    1W        W32849  27.440  28.841   9.334 -0.1508  0.1286 -0.1501
    1W        W32850  26.538   7.920   6.130  0.1463 -0.1049  0.0362
    1W        W32851   6.969  28.269   7.909 -0.0946  0.3192  0.0277
    1W        W32852  11.543  13.406   0.296  0.2957 -0.1521  0.3274
    1W        W32853   6.059  17.699   2.082 -0.3392  0.0623 -0.0934
    1W        W32854   6.252  29.726   7.253 -0.0069 -0.0316 -0.0548
    1W        W32855  28.849  24.001   3.031  0.0204 -0.0215  0.2443
    1W        W32856  17.089   9.732   8.033 -0.0010 -0.1149 -0.0891
    1W        W32857  22.650  16.876   6.999  0.0087 -0.1693  0.2547
    1W        W32858   7.742   0.748   8.817 -0.0034 -0.1666 -0.2818
    1W        W32859  12.596  28.754   0.675 -0.1121 -0.1926 -0.4765
    1W        W32860   7.273   1.775   7.578  0.1687 -0.3660  0.2229
    1W        W32861  14.602  21.103   0.194  0.4203 -0.0051 -0.1117
    1W        W32862  21.662   8.686   0.920 -0.2928  0.1051  0.1968
    1W        W32863   4.914  24.447   1.372  0.0016 -0.2772  0.1071
    1W        W32864  18.217  25.970   6.605  0.0728  0.0476  0.1330
    1W        W32865  19.411   3.524   0.008  0.1383 -0.5118 -0.0095
    1W        W32866   4.590   2.186   2.541 -0.0753 -0.1297 -0.3222
    1W        W32867  21.570  29.191   8.102  0.0154 -0.0775  0.0031
    1W        W32868   3.346  11.378   7.855  0.1967 -0.0125  0.1406
    1W        W32869  11.847  13.154   9.416 -0.2208  0.1236 -0.1604
    1W        W32870  29.270   7.420   1.754  0.2881  0.1953  0.1592
    1W        W32871  27.843   8.273   0.844 -0.1551  0.0377  0.0325
    1W        W32872  24.137  25.417   7.001  0.2826 -0.0968  0.0444
    1W        W32873  24.915   9.826   0.633  0.0425 -0.0429 -0.1257
    1W        W32874   9.895   3.918   1.310 -0.0016  0.2090  0.0872
    1W        W32875   8.990   4.963   7.163 -0.1277 -0.0092 -0.0396
    1W        W32876  17.629  10.181   1.404  0.1109  0.0586 -0.3750
    1W        W32877  14.351  16.417   8.778  0.1776 -0.0406  0.1761
    1W        W32878   5.523  27.666   1.831 -0.2431 -0.1574  0.1864
    1W        W32879  23.192  11.947   7.507 -0.0692  0.2716 -0.1032
    1W        W32880  15.441  21.540   7.306 -0.3026 -0.1499  0.1407
    1W        W32881   5.035  15.215   1.736  0.0909  0.0012 -0.1061
    1W        W32882   8.964   1.543   0.880 -0.2792 -0.0837 -0.3346
    1W        W32883  20.538  10.186   0.527 -0.2453  0.2988 -0.1464
    1W        W32884   2.509  22.735   1.702  0.1639 -0.0525 -0.2205
    1W        W32885  26.256  13.126   5.764  0.2209  0.0401 -0.0106
    1W        W32886   9.815   7.565   8.330  0.0570 -0.0297 -0.0758
    1W        W32887  15.336  27.479   8.208 -0.2712 -0.1517  0.3385
    1W        W32888  10.113  15.231   1.165 -0.1691  0.2503  0.1144
    1W        W32889  20.328  28.702   1.638 -0.0247  0.2590 -0.2428
    1W        W32890   0.015   6.777   1.967  0.2621 -0.1835  0.0058
    1W        W32891  21.973  29.369   2.516  0.0201  0.0350 -0.0568
    1W        W32892  20.621  11.542   7.121  0.0091  0.1287  0.0537
    1W        W32893  29.238   5.162   6.271 -0.1227  0.2800 -0.1019
    1W        W32894  11.000  27.352   2.034 -0.2045 -0.1282 -0.0441
    1W        W32895  19.927  26.459   8.175  0.2537  0.1445  0.2797
    1W        W32896   3.745  10.552   2.005  0.0562  0.2590  0.1040
    1W        W32897   8.504   4.424   7.978  0.0490  0.0767 -0.1348
    1W        W32898  21.467  28.248   0.339  0.0110 -0.0684  0.1096
    1W        W32899  26.394   8.067   2.228  0.1664  0.1887 -0.2467
    1W        W32900   0.045   6.745   0.108 -0.0668 -0.0836  0.0354
    1W        W32901  19.033  17.015   9.298 -0.3336  0.1549  0.1287
    1W        W32902  27.737   9.873   8.575 -0.3564 -0.1384 -0.0991
    1W        W32903  11.891  12.694   1.851 -0.0426 -0.1121  0.0582
    1W        W32904  25.285  12.752   2.438 -0.0427  0.2526  0.0923
    1W        W32905  19.902  15.297   1.412  0.1208 -0.0581  0.0160
    1W        W32906   9.383  17.781   6.765  0.4274  0.2964  0.1340
    1W        W32907   0.612  24.508   6.397  0.2191 -0.2699  0.1437
    1W        W32908   5.098  22.212   1.196  0.0587  0.3898  0.3956
    1W        W32909   5.008  28.966   8.515  0.2919  0.0243  0.0053
    1W        W32910  12.195  11.725   1.635 -0.0861 -0.1639 -0.1325
    1W        W32911  17.095  11.722   7.530 -0.0529  0.0895  0.2127
    1W        W32912  22.049  21.172   8.963 -0.0242  0.1437 -0.3314
    1W        W32913   2.763  22.720   0.098 -0.1883 -0.1065 -0.0973
    1W        W32914  28.297  15.310   6.705  0.0429 -0.3385 -0.1016
    1W        W32915   9.821   7.973   7.985  0.0243 -0.2670  0.0235
    1W        W32916  19.462  13.942   8.498  0.0063  0.0802  0.1267
    1W        W32917  29.348   3.343   8.728 -0.0359 -0.1628 -0.0754
    1W        W32918   2.151  10.954   7.172 -0.1086  0.4104 -0.2862
    1W        W32919  10.096   0.754   2.430 -0.2472  0.0291  0.0138
    1W        W32920   0.546   2.024   7.127 -0.1446  0.3049 -0.1082
    1W        W32921   6.669   4.866   0.019 -0.0552 -0.2426  0.1505
    1W        W32922  27.286   8.624   8.682 -0.4425 -0.3548  0.1225
    1W        W32923  18.965  23.656   3.862 -0.1871 -0.1132  0.0923
    1W        W32924  28.892   2.734   7.925 -0.3737 -0.1115 -0.1663
    1W        W32925  22.395   4.439   1.442  0.0577  0.1179 -0.1624
    1W        W32926  24.618  16.857   0.838 -0.3981 -0.2553 -0.1745
    1W        W32927  26.948  29.617   0.587  0.1513 -0.0110  0.0010
    1W        W32928  11.749  18.770   1.754 -0.3271  0.1471  0.0566
    1W        W32929  26.753  28.551   9.447 -0.0318  0.2685  0.0210
    1W        W32930  21.141   5.149   0.229 -0.0498  0.2181  0.0298
    1W        W32931  12.336  12.547   1.944 -0.0589 -0.0947  0.0644
    1W        W32932  24.096  25.659   2.855 -0.0121 -0.0003 -0.0591
    1W        W32933   1.258  29.790   1.976 -0.0421  0.2826  0.2880
    1W        W32934  23.349  13.938   8.420  0.0057 -0.0222  0.2791
    1W        W32935  17.836   8.008   1.169 -0.2417  0.1130 -0.0250
    1W        W32936  16.010   9.527   8.224  0.0326 -0.1134  0.0792
    1W        W32937   3.961   0.158   3.058  0.2096 -0.1131 -0.2180
    1W        W32938   9.644  21.242   0.075  0.0153  0.0208 -0.0088
    1W        W32939   5.987   4.325   0.811  0.0057  0.2790 -0.1854
    1W        W32940   6.038   0.224   7.513  0.0639 -0.1112 -0.0919
    1W        W32941  16.686  28.584   0.294 -0.0056  0.0184  0.1888
    1W        W32942   2.183  11.643   1.907 -0.2239 -0.2070 -0.0172
    1W        W32943  16.692   4.676   1.435  0.2352 -0.1693  0.2247
    1W        W32944  18.770  23.127   2.393  0.1837 -0.0011  0.1533
    1W        W32945  24.566   5.716   3.099  0.1326  0.0829  0.1794
    1W        W32946  18.911   6.106   8.505 -0.0792 -0.1622 -0.0234
    1W        W32947  26.291  28.695   1.127 -0.0462  0.0184  0.0237
    1W        W32948   3.838   6.965   1.179 -0.1461  0.2933 -0.2733
    1W        W32949  16.865   0.937   1.145  0.1340 -0.3092  0.3191
    1W        W32950  21.248  10.898   6.701  0.2883  0.2078 -0.2889
    1W        W32951   5.862   1.974   2.924 -0.0547  0.0168  0.1291
    1W        W32952   3.825   9.267   8.913 -0.1710  0.0179  0.2526
    1W        W32953   7.058  16.374   8.810 -0.0102 -0.0718 -0.3089
    1W        W32954  26.877  22.233   2.950 -0.2460  0.1816 -0.1404
    1W        W32955   8.432   6.377   7.132  0.1280 -0.1514 -0.1585
    1W        W32956  11.355   7.005   7.404  0.0112 -0.2210 -0.0823
    1W        W32957  23.672  12.050   7.628  0.0930 -0.0363  0.0721
    1W        W32958  23.555  10.126   7.617  0.1046  0.0405  0.0648
    1W        W32959   9.947   7.078   1.411  0.1307  0.0513 -0.0521
    1W        W32960  13.326   9.983   0.555 -0.1470  0.0638 -0.1395
    1W        W32961  11.341  26.775   7.706  0.0225 -0.2792  0.0915
    1W        W32962  27.683  19.740   2.712  0.0355  0.3251  0.0736
    1W        W32963   7.387  12.622   9.446 -0.1267 -0.3604  0.0787
    1W        W32964  26.444  26.968   6.499  0.0540  0.1158  0.2930
    1W        W32965  24.985   5.389   0.771  0.2882  0.2489 -0.0104
    1W        W32966   2.479  13.480   2.708 -0.1194  0.0867 -0.1305
    1W        W32967   1.647   6.087   9.200 -0.2357  0.1219  0.2008
    1W        W32968  20.903   1.469   9.277 -0.2105  0.3342 -0.1234
    1W        W32969  11.886   2.526   9.292  0.2004 -0.0290  0.0216
    1W        W32970   9.720   5.793   3.178 -0.2193  0.3041 -0.1999
    1W        W32971   8.022  11.128   2.370  0.0403 -0.3783 -0.1777
    1W        W32972  15.246  18.685   0.780 -0.0836 -0.1233  0.0840
    1W        W32973  24.931  28.105   7.797 -0.0564 -0.1962  0.1615
    1W        W32974   1.840   8.475   2.679  0.1311 -0.1719 -0.1147
    1W        W32975  24.065  20.597   8.893  0.3189  0.2315  0.0370
    1W        W32976  22.699  15.090   7.047  0.2163 -0.2555 -0.2740
    1W        W32977  25.288   1.970   7.146 -0.0564 -0.1747 -0.4089
    1W        W32978   9.392   5.656   1.576  0.0974 -0.2418 -0.0308
    1W        W32979  12.543   8.531   8.702 -0.2615 -0.2016 -0.0723
    1W        W32980  19.355  11.798   7.287 -0.0992  0.4699 -0.0613
    1W        W32981   3.343  23.440   1.265 -0.0913 -0.0676  0.0112
    1W        W32982  26.394  20.437   0.490  0.1673 -0.1258 -0.0021
    1W        W32983   0.630  21.987   1.771 -0.1294 -0.1803  0.0515
    1W        W32984   9.762  25.504   9.134 -0.2447 -0.0527 -0.0141
    1W        W32985  24.364  15.145   8.874  0.2459  0.0030 -0.1882
    1W        W32986  13.884  19.939   7.069  0.0866  0.1755 -0.0864
    1W        W32987  12.861   7.329   0.665 -0.1302 -0.0084  0.0571
    1W        W32988  13.152   8.366   0.836  0.3725 -0.1586 -0.1190
    1W        W32989   7.936   9.090   8.402 -0.2713  0.0282  0.0254
    1W        W32990  28.581   9.329   7.794  0.0557  0.2785  0.1250
    1W        W32991  19.536  17.111   6.910 -0.1296 -0.1213 -0.0197
    1W        W32992   2.840  16.137   0.514 -0.1799  0.1429 -0.1817
    1W        W32993  15.859  16.106   8.370  0.1702  0.2555  0.1452
    1W        W32994   1.028   7.318   0.013 -0.1988 -0.1310  0.1656
    1W        W32995  25.398  20.926   2.011  0.0597  0.2262  0.0887
    1W        W32996  12.040  14.139   6.916 -0.1575 -0.2702 -0.1105
    1W        W32997  14.455  17.695   8.555 -0.2779 -0.1546 -0.1074
    1W        W32998   2.260   5.772   8.156 -0.2223  0.0328  0.0713
    1W        W32999   5.176   7.572   0.638  0.0052 -0.0383  0.2812
    1W        W33000   1.747  29.158   1.342 -0.1047 -0.0688  0.0069
    1W        W33001  11.462   9.785   1.819  0.0596  0.1395  0.1129
    1W        W33002   3.568   8.895   8.982  0.1858  0.0409  0.0923
    1W        W33003   0.498  19.990   7.566 -0.1021  0.0372  0.3866
    1W        W33004   4.706   0.647   1.419  0.2573 -0.0296 -0.0849
    1W        W33005  14.292  19.095   2.475 -0.4341 -0.0825 -0.2982
    1W        W33006  17.855  28.087   6.544 -0.0856 -0.0758 -0.3927
    1W        W33007   5.865  18.182   1.850 -0.1178 -0.1872 -0.0203
    1W        W33008   7.039  15.468   0.014 -0.1650 -0.6216  0.3628
    1W        W33009   5.673  14.819   8.228  0.3512 -0.2396 -0.0236
    1W        W33010  21.252   4.315   8.635  0.4071 -0.1973  0.0171
    1W        W33011  14.352   2.149   0.558  0.2340 -0.1472 -0.1021
    1W        W33012   4.441   1.729   1.020  0.1887 -0.1228  0.0001
    1W        W33013  26.617  25.565   0.990  0.0660  0.2818  0.0078
    1W        W33014  12.348  10.530   2.864 -0.2664 -0.1308 -0.0092
    1W        W33015   2.738   2.844   0.224 -0.0295 -0.2498 -0.2502
    1W        W33016  15.497  23.224   6.868 -0.0577  0.1075 -0.1498
    1W        W33017   4.290   8.747   3.514 -0.2341  0.2344  0.1067
    1W        W33018   5.376   2.320   9.165 -0.3225  0.3547 -0.0561
    1W        W33019  28.459  24.064   9.332 -0.0372  0.2883  0.2945
    1W        W33020  14.191  21.709   9.347 -0.0441  0.0556  0.2565
    1W        W33021  18.356  25.332   2.885  0.1038  0.1906  0.2082
    1W        W33022  13.917  27.398   7.714  0.2893  0.0356 -0.2047
    1W        W33023  27.499  28.832   2.442 -0.0033 -0.1576  0.3908
    1W        W33024   3.273  20.329   0.100  0.3485  0.0247  0.4297
    1W        W33025   7.775   9.871   0.537 -0.3251 -0.2165 -0.0167
    1W        W33026   7.328   9.441   2.102  0.0757 -0.0868 -0.0184
    1W        W33027   7.627  13.869   7.053  0.0523  0.2139  0.1455
    1W        W33028  16.240   2.999   9.021 -0.0533  0.0902  0.4351
    1W        W33029  24.730   9.079   6.883 -0.0150 -0.1946  0.2181
    1W        W33030  23.534   2.763   7.485  0.1968 -0.1298  0.1087
    1W        W33031  16.715  15.062   7.909  0.2443  0.3046  0.0281
    1W        W33032   0.874   6.393   1.290  0.3048  0.0424  0.0633
    1W        W33033  13.235   5.200   1.675  0.0379 -0.0462  0.0911
    1W        W33034  24.795  22.930   2.407  0.1633 -0.1007 -0.1180
    1W        W33035   3.568   1.390   9.035  0.0171  0.0243  0.0985
    1W        W33036   2.583  27.671   1.755  0.1910  0.0374 -0.4484
    1W        W33037  27.986  22.898   7.413  0.4074 -0.0679 -0.1054
    1W        W33038   3.843   9.081   0.351  0.2859  0.0632 -0.0208
    1W        W33039  14.613   7.183   6.870 -0.1583 -0.0584  0.1882
    1W        W33040   4.835  26.385   0.047 -0.0865  0.1893  0.3830
    1W        W33041   8.643  20.005   7.574 -0.0272  0.1204 -0.0646
    1W        W33042  24.329  15.199   1.754 -0.3702 -0.1962 -0.0062
    1W        W33043  16.731  22.620   9.308  0.0551 -0.0293  0.3282
    1W        W33044  21.778   7.568   9.426 -0.0886 -0.0828 -0.2420
    1W        W33045   1.614  21.827   0.910 -0.0903  0.0237  0.0814
    1W        W33046  10.510  13.039   1.637 -0.0320 -0.0326  0.0518
    1W        W33047  13.019  16.082   7.640  0.1289  0.0330 -0.0606
    1W        W33048  17.089   5.472   6.941  0.0321 -0.0216  0.0471
    1W        W33049   7.732  20.291   6.682  0.1054  0.1076 -0.0814
    1W        W33050  18.946  20.699   0.337  0.1187  0.0333 -0.0754
    1W        W33051   1.779  12.495   0.185  0.1436 -0.0841 -0.0330
    1W        W33052   5.289   5.094   2.806 -0.0021  0.0092 -0.2295
    1W        W33053  24.782  22.310   2.287  0.0736  0.2984  0.2485
    1W        W33054  22.558  28.002   7.941  0.0704 -0.0622  0.1671
    1W        W33055  10.150   0.233   7.576  0.2650 -0.0063  0.0093
    1W        W33056   1.295  26.779   6.007 -0.2828 -0.4703  0.0140
    1W        W33057   8.968  16.452   1.879 -0.0668  0.0979 -0.0458
    1W        W33058  22.977   8.017   1.235  0.3456 -0.0390 -0.0587
    1W        W33059  20.182  24.187   0.170 -0.3082  0.3102  0.2117
    1W        W33060  17.888   4.287   0.581 -0.0585 -0.0662 -0.2565
    1W        W33061  17.814   0.743   8.327 -0.1991  0.0829  0.1263
    1W        W33062  27.523  15.290   0.807 -0.0270  0.1056  0.2332
    1W        W33063   5.025  24.338   8.527 -0.1246  0.0445  0.2683
    1W        W33064  21.499  15.468   7.784  0.0533  0.1264 -0.1680
    1W        W33065  12.318   2.871   0.312  0.1356  0.1128  0.0563
    1W        W33066  11.169   5.195   1.501 -0.0443 -0.1069 -0.1280
    1W        W33067  18.906   8.505   0.982 -0.1976 -0.1551 -0.1967
    1W        W33068   8.355  23.722   8.568  0.1926  0.1998  0.1036
    1W        W33069  29.543  12.407   0.882  0.1647 -0.0858  0.3377
    1W        W33070  17.407   4.805   2.502  0.0055 -0.0778 -0.2615
    1W        W33071   3.734   4.872   2.122  0.1284 -0.0913 -0.0877
    1W        W33072   0.298   8.443   2.677  0.0317 -0.0304  0.1128
    1W        W33073  15.267  19.634   8.682  0.0170 -0.2278  0.2629
    1W        W33074  18.316  23.090   0.614 -0.0781  0.0648 -0.0202
    1W        W33075   2.498   1.931   8.913  0.1095  0.0165  0.0046
    1W        W33076  11.338   5.558   1.800  0.0680 -0.1274 -0.1551
    1W        W33077  23.434  21.685   9.395 -0.1026  0.1502  0.0737
    1W        W33078   3.067  19.133   7.208 -0.0167  0.0481 -0.0340
    1W        W33079  10.143  25.097   1.247 -0.0293  0.1713 -0.0401
    1W        W33080  14.482  22.269   8.076 -0.0598  0.0651  0.2418
    1W        W33081  15.200   1.913   8.710 -0.0007 -0.0662 -0.2084
    1W        W33082   1.353   2.327   7.709 -0.0874  0.0034  0.0457
    1W        W33083  18.941   5.538   8.307  0.1123 -0.2133 -0.1649
    1W        W33084  18.185   1.045   8.042  0.1629  0.1628 -0.0405
    1W        W33085   9.963  22.209   8.196 -0.1527  0.2632 -0.1930
    1W        W33086   9.693  22.088   8.599 -0.1347  0.0928 -0.1657
    1W        W33087  28.183  12.722   0.201  0.1360 -0.0814 -0.1325
    1W        W33088  27.936  29.783   8.824 -0.0727 -0.0693  0.3100
    1W        W33089  10.094  22.631   7.345 -0.1961  0.3692  0.0275
    1W        W33090  14.267  12.235   0.893 -0.1439 -0.2273  0.1806
    1W        W33091   5.843  13.087   8.071 -0.0904  0.1049  0.0612
    1W        W33092  13.155  23.444   6.616 -0.0346  0.1598 -0.1394
    1W        W33093  23.469  12.783   8.410 -0.2982 -0.0793  0.0295
    1W        W33094  11.612  17.030   7.117  0.0325  0.2961 -0.0858
    1W        W33095  28.355  11.608   6.504  0.2377 -0.2307 -0.0450
    1W        W33096   8.836  27.584   1.069 -0.2539 -0.1586 -0.1546
    1W        W33097   9.044   8.319   8.314  0.3049 -0.3281 -0.0477
    1W        W33098   8.550  26.681   0.539  0.0586 -0.0358  0.4205
    1W        W33099   5.502  26.750   0.844 -0.0884  0.1178 -0.1477
    1W        W33100   9.326  25.577   6.230 -0.1374 -0.3158  0.0815
    1W        W33101  10.070  27.508   8.396  0.0044 -0.0589  0.1939
    1W        W33102  27.625  15.210   3.567  0.1753  0.1981 -0.1792
    1W        W33103  21.364  11.165   1.040  0.1848  0.1567 -0.1390
    1W        W33104   3.546   2.894   9.297  0.0041 -0.2579  0.1485
    1W        W33105  15.048  15.489   0.397  0.1761  0.2052 -0.1764
    1W        W33106   6.628  23.547   8.736 -0.0307 -0.0555 -0.0269
    1W        W33107   6.475  12.451   0.427  0.2371 -0.0090  0.2090
    1W        W33108  12.024   6.848   2.568  0.2582 -0.3040  0.0732
    1W        W33109   3.468   1.964   2.695 -0.1947  0.0341  0.2654
    1W        W33110  28.240   5.302   2.486 -0.0114 -0.1736  0.0901
    1W        W33111   1.015   6.185   8.118  0.0981 -0.0698 -0.1234
    1W        W33112  23.074  12.230   1.347  0.0599  0.1750  0.2922
    1W        W33113   7.922   3.864   7.585  0.1108  0.0264  0.2599
    1W        W33114  22.261  11.088   9.271 -0.3022  0.0748 -0.0784
    1W        W33115   4.240  27.689   6.939  0.0896  0.2015 -0.3291
    1W        W33116  26.398   5.276   8.723 -0.0279 -0.0064 -0.2580
    1W        W33117   3.823  21.069   1.994 -0.0926 -0.1122 -0.0882
    1W        W33118  23.767   8.513   9.195 -0.0160  0.2281 -0.0632
    1W        W33119  18.848   1.662   2.518  0.1142  0.1831  0.0363
    1W        W33120  21.522  19.408   0.415  0.0022  0.1491 -0.0658
    1W        W33121   2.899   0.936   3.474  0.0155  0.3412  0.1153
    1W        W33122  12.907  26.467   8.668 -0.0076 -0.0903 -0.0151
    1W        W33123  24.107   9.815   8.054 -0.1314  0.0542  0.1345
    1W        W33124  12.183   8.822   2.714 -0.0065  0.1778 -0.1675
    1W        W33125  26.019  28.579   7.346  0.1207 -0.3170 -0.2022
    1W        W33126  14.408  27.159   0.044  0.2103  0.0634 -0.5635
    1W        W33127  13.325  26.400   0.782 -0.1198  0.1830 -0.1472
    1W        W33128   9.504  10.190   8.200 -0.0448  0.0868 -0.3586
    1W        W33129  14.344  10.615   8.346  0.1379 -0.2440 -0.0174
    1W        W33130  26.443   5.732   2.046 -0.1239  0.0491 -0.1208
    1W        W33131  21.856   2.959   6.473  0.0671 -0.2821  0.0246
    1W        W33132   3.033  17.463   0.020  0.1192  0.1287 -0.1773
    1W        W33133  24.281  13.311   6.888  0.1403  0.2209 -0.1106
    1W        W33134  24.300  20.458   6.979 -0.0524  0.0104  0.0694
    1W        W33135   9.413   4.456   7.147  0.0390  0.1554 -0.1302
    1W        W33136  10.967   9.535   8.747 -0.0144 -0.0424  0.2520
    1W        W33137  23.762  19.743   1.369  0.1493 -0.2698  0.0545
    1W        W33138  16.943  17.360   2.050  0.0940 -0.0895  0.3752
    1W        W33139  24.768   4.082   3.830 -0.1555 -0.0035  0.0482
    1W        W33140  19.970  23.760   9.375 -0.0294 -0.1368 -0.0887
    1W        W33141   2.614  27.283   9.332 -0.2138  0.0221 -0.0708
    1W        W33142  12.990   6.098   8.527  0.1000  0.2142  0.1710
    1W        W33143   9.376  15.631   0.796  0.0122 -0.3241 -0.0037
    1W        W33144  16.212  15.842   8.063 -0.0941 -0.3442 -0.0147
    1W        W33145   2.704   5.607   3.557  0.0059 -0.3665 -0.2253
    1W        W33146   1.595   1.633   0.049  0.0685  0.1756 -0.2724
    1W        W33147  20.799  24.207   9.411 -0.0527  0.3261  0.2839
    1W        W33148  15.789  20.222   6.671  0.1261 -0.0390 -0.1167
    1W        W33149  24.586   2.088   1.899  0.1600 -0.1591 -0.0906
    1W        W33150  23.181  10.931   7.750 -0.3001  0.0518  0.1532
    1W        W33151  10.476  24.526   2.980 -0.1319  0.2512  0.0552
    1W        W33152  11.029  14.276   7.105 -0.0111 -0.2349  0.2395
    1W        W33153   0.992   1.457   7.278  0.0704  0.1172  0.1263
    1W        W33154   6.018  11.341   1.398  0.3374 -0.0368  0.2402
    1W        W33155  15.870   6.723   2.249  0.0086  0.1988  0.2992
    1W        W33156  20.981  23.099   3.468  0.0230 -0.0404  0.0230
    1W        W33157  13.725  27.783   1.178  0.1570  0.0393 -0.0332
    1W        W33158  10.751  15.920   0.859 -0.0509 -0.0640 -0.0945
    1W        W33159  11.202  16.211   8.174  0.0103 -0.0864  0.0458
    1W        W33160  15.674  14.030   1.135  0.2069  0.5727  0.0807
    1W        W33161  13.147   7.522   2.485  0.1110 -0.3449  0.1566
    1W        W33162  19.508  15.254   7.193 -0.0761  0.2142  0.1549
    1W        W33163  27.044  11.835   9.245 -0.0563 -0.2946 -0.0711
    1W        W33164  14.360  29.771   2.258 -0.1326 -0.1356 -0.3490
    1W        W33165   4.954  27.671   7.755  0.0175  0.1057  0.2449
    1W        W33166   7.671   1.690   0.371  0.1609 -0.1248 -0.0646
    1W        W33167   6.306   5.390   6.705 -0.0210 -0.2157  0.3935
    1W        W33168   1.371   6.432   7.303  0.0111 -0.0417 -0.1607
    1W        W33169  24.097   8.188   2.697 -0.1931  0.1296  0.1192
    1W        W33170  20.863   1.112   0.622  0.2026  0.0387 -0.0237
    1W        W33171   3.880  28.076   6.944  0.1038  0.0065  0.2031
    1W        W33172   6.047   3.326   0.029  0.0680 -0.2564 -0.3036
    1W        W33173  13.648  27.353   8.209  0.0175  0.2293  0.1441
    1W        W33174   0.026   0.198   7.725  0.3931 -0.0279 -0.0618
    1W        W33175  13.843   1.042   2.640  0.2419  0.1539  0.0445
    1W        W33176  11.880  29.817   1.389  0.1493  0.0083  0.1465
    1W        W33177  21.326  18.507   7.913  0.0658 -0.0861  0.1022
    1W        W33178  18.164  16.551   1.967 -0.1808  0.3259 -0.1112
    1W        W33179  11.125  28.538   1.514 -0.3993 -0.0991  0.1388
    1W        W33180  10.689  24.382   6.912  0.1271 -0.4383 -0.0242
    1W        W33181  13.804  13.386   8.668  0.0651  0.1664  0.0181
    1W        W33182  24.888  10.353   2.249  0.0195  0.0314 -0.2491
    1W        W33183   0.625  18.641   1.471  0.3116  0.0235 -0.1226
    1W        W33184   9.971   3.956   1.842 -0.2680  0.2318  0.0313
    1W        W33185   6.030   6.699   0.415  0.0474 -0.3514  0.0459
    1W        W33186   5.830  22.134   0.970 -0.0773  0.0850 -0.1133
    1W        W33187  15.359   5.008   6.692  0.0866  0.1772 -0.0431
    1W        W33188  25.412  18.846   0.021 -0.1320 -0.1205  0.0430
    1W        W33189   1.560  11.497   7.470 -0.1178  0.0477  0.0585
    1W        W33190  25.825   6.364   6.349 -0.0546  0.1010 -0.2260
    1W        W33191  27.900   5.799   7.316  0.0786  0.0606 -0.3632
    1W        W33192  15.011  25.774   2.652 -0.1360 -0.0289 -0.2083
    1W        W33193  21.189   3.501   0.738 -0.0790  0.1483  0.1466
    1W        W33194  10.303   6.094   8.493  0.2421 -0.1472  0.0398
    1W        W33195  23.319   8.639   2.660  0.2125 -0.2550  0.1817
    1W        W33196  22.401   7.530   1.749  0.0716 -0.0127  0.1333
    1W        W33197  21.272  27.850   7.470  0.2097 -0.3116 -0.0150
    1W        W33198   3.128   2.411   2.652  0.3078  0.0146 -0.0520
    1W        W33199  11.309   0.476   1.571  0.2278 -0.1779  0.1355
    1W        W33200  14.504   7.861   1.065  0.2245 -0.2289  0.2061
    1W        W33201   8.432  16.002   8.457 -0.1447  0.0523  0.2059
    1W        W33202   0.668  23.748   0.035  0.1113  0.2618 -0.1654
    1W        W33203  15.748   1.984   6.974 -0.0338 -0.1166 -0.3217
    1W        W33204   2.307  28.278   2.175  0.0167 -0.2588  0.1226
    1W        W33205   0.121  17.041   8.870 -0.0977  0.1398  0.0938
    1W        W33206   0.680   8.674   7.254 -0.3148 -0.0700  0.2135
    1W        W33207  13.657  11.938   2.149 -0.0821 -0.0507 -0.0678
    1W        W33208  18.122  28.743   1.322 -0.0834 -0.2902  0.0414
    1W        W33209   8.749  10.845   0.222  0.2299  0.0344  0.1471
    1W        W33210  23.864  28.031   8.538  0.1449 -0.5296  0.2383
    1W        W33211  20.263  10.328   0.067 -0.1613 -0.1754  0.0150
    1W        W33212   7.309   5.552   3.622 -0.1417  0.0091 -0.0971
    1W        W33213   5.482   7.863   0.094  0.3579  0.1655  0.1744
    1W        W33214  22.084  14.849   9.357  0.0716 -0.2147  0.1399
    1W        W33215   1.658  14.055   0.706  0.0005 -0.1320  0.3886
    1W        W33216  27.592  18.509   1.885  0.0487  0.0368 -0.0465
    1W        W33217  10.835   7.609   7.820  0.2072 -0.2961  0.2739
    1W        W33218  23.081  24.810   0.782 -0.0915  0.0156 -0.3938
    1W        W33219  15.213   3.582   8.398  0.1843 -0.0528 -0.0051
    1W        W33220  20.626   3.068   8.229 -0.0165  0.2522  0.0933
    1W        W33221   8.619  10.691   2.597  0.1756 -0.1735  0.3267
    1W        W33222  15.785   0.533   9.448  0.0747 -0.1748 -0.0431
    1W        W33223  13.141  25.985   0.554 -0.1991 -0.1118  0.2157
    1W        W33224  27.580  24.707   7.977  0.0226 -0.0655 -0.2117
    1W        W33225  26.317  27.901   6.631 -0.0559  0.0581  0.0992
    1W        W33226   7.543  20.092   8.981  0.2002  0.1524  0.5004
    1W        W33227  18.666  14.383   8.706 -0.1437  0.3148 -0.0813
    1W        W33228   0.710   4.629   7.034  0.4264  0.1959  0.0926
    1W        W33229   0.476  20.780   0.922  0.3119 -0.1970  0.3718
    1W        W33230  20.053  14.422   1.057 -0.0389 -0.1773 -0.1848
    1W        W33231   2.200  29.721   8.288 -0.0152 -0.2302  0.0002
    1W        W33232   0.454  15.336   0.828 -0.1232 -0.0012  0.4656
    1W        W33233  11.232   8.287   1.307 -0.2704 -0.0126 -0.0978
    1W        W33234  26.648   4.570   1.186  0.0133 -0.0668 -0.3343
    1W        W33235  12.127  11.671   0.794  0.0593 -0.0689  0.1086
    1W        W33236  25.233   2.892   2.354  0.0556  0.2578 -0.1537
    1W        W33237  14.001   0.845   7.188  0.0516  0.0429 -0.0987
    1W        W33238  15.058  14.529   7.972  0.2419 -0.1249 -0.1054
    1W        W33239   1.815  17.125   8.241 -0.0080 -0.1124 -0.1625
    1W        W33240  10.310  20.014   6.636 -0.1409  0.1458 -0.1524
    1W        W33241  13.522  18.394   0.170 -0.1359  0.1152  0.5988
    1W        W33242  11.152  24.625   7.002  0.0365  0.0045  0.0424
    1W        W33243  20.452  16.428   1.500 -0.0714  0.0938  0.0809
    1W        W33244  12.284  15.780   1.230  0.2572  0.1512 -0.2959
    1W        W33245  17.465  22.740   9.248  0.0748  0.0079  0.0814
    1W        W33246  15.791   3.815   7.546 -0.0637 -0.3824  0.0340
    1W        W33247  23.740  22.983   0.024 -0.1371  0.2888  0.0746
    1W        W33248  28.030  20.750   8.464  0.3312 -0.0280  0.2461
    1W        W33249  24.953   0.280   7.913 -0.0737 -0.0709  0.0181
    1W        W33250  26.840  27.299   2.210 -0.0013 -0.0783 -0.2324
    1W        W33251  29.540  19.480   1.421 -0.0516  0.2953  0.0043
    1W        W33252   0.998   1.958   1.150  0.2792  0.1160  0.2078
    1W        W33253  10.427   4.968   1.215 -0.0305  0.3867  0.4049
    1W        W33254  14.045   0.066   8.174  0.1550 -0.1361 -0.2343
    1W        W33255  28.085  21.316   0.744  0.1191 -0.0804  0.1416
    1W        W33256  15.679  11.660   1.507  0.1087 -0.0398  0.0287
    1W        W33257  26.444  26.152   7.903  0.1717 -0.3575 -0.0946
    1W        W33258  11.914  27.126   8.434 -0.3116 -0.0643 -0.0709
    1W        W33259  25.488   7.289   8.762  0.1335  0.0876  0.1170
    1W        W33260  10.472  11.252   8.161 -0.0534  0.3318  0.0747
    1W        W33261   5.647  19.419   8.372  0.2021  0.3198  0.0672
    1W        W33262  14.555  10.264   1.491 -0.2688 -0.0585  0.1116
    1W        W33263  27.530   1.344   8.666  0.3219  0.0001  0.0066
    1W        W33264   1.883  23.183   0.248 -0.1420  0.0158 -0.1663
    1W        W33265  20.378  17.654   7.823 -0.1023 -0.0156 -0.0313
    1W        W33266  28.502  24.669   1.662  0.2001  0.0202  0.1097
    1W        W33267   4.921   4.496   9.071  0.1454  0.1422 -0.2090
    1W        W33268  15.416  23.158   2.342 -0.1394 -0.2556  0.0505
    1W        W33269  18.888  24.385   0.869 -0.0865 -0.0761 -0.2526
    1W        W33270  17.106   1.367   7.409 -0.0831  0.0430 -0.1691
    1W        W33271   2.362   3.983   3.375 -0.3266 -0.1404  0.0281
    1W        W33272  15.770  15.009   7.500 -0.1679 -0.0108 -0.1512
    1W        W33273  17.801  22.444   0.001 -0.0618  0.1452 -0.0119
    1W        W33274  28.749  27.108   7.810  0.1885 -0.0958 -0.0742
    1W        W33275  22.938  17.225   6.800 -0.1577  0.1957 -0.1525
    1W        W33276  12.425   1.473   1.154  0.2716  0.4017 -0.1832
    1W        W33277  26.135   0.953   2.939 -0.0793  0.3252 -0.0518
    1W        W33278   5.359  29.904   8.177  0.2025 -0.0001 -0.1300
    1W        W33279  29.120  12.161   1.152  0.0541 -0.1689  0.3025
    1W        W33280  17.850  26.576   7.303 -0.2059 -0.1712  0.1717
    1W        W33281   0.299  29.197   1.436 -0.1045 -0.1244 -0.1798
    1W        W33282   6.826   6.052   0.010 -0.2349  0.2133  0.2481
    1W        W33283  17.845  24.903   7.419  0.3520  0.0313 -0.2700
    1W        W33284  13.272   6.455   0.643 -0.1331  0.1661 -0.0606
    1W        W33285   6.526   4.599   0.566 -0.1395  0.1385 -0.1500
    1W        W33286   8.205  12.389   8.636 -0.0654  0.1035 -0.0965
    1W        W33287   6.326  18.147   9.169 -0.2321  0.3591  0.0235
    1W        W33288   0.296  27.238   8.824 -0.0205  0.1850 -0.2367
    1W        W33289   0.800   1.145   2.407  0.0486  0.0671  0.0223
    1W        W33290  20.757  23.796   2.576 -0.1549  0.1150  0.0436
    1W        W33291  17.336   8.040   1.486  0.0102  0.1928  0.0601
    1W        W33292  20.341   6.632   9.174 -0.0542 -0.1383 -0.3315
    1W        W33293  19.134   9.220   0.409  0.1078  0.1231  0.1000
    1W        W33294   8.287   9.836   2.377 -0.1396  0.0577  0.1100
    1W        W33295  21.018  12.780   1.472  0.3639  0.1319 -0.1246
    1W        W33296  12.819  13.331   1.137  0.1619  0.1268  0.0444
    1W        W33297  10.185   7.291   0.196 -0.0789  0.1675  0.1890
    1W        W33298  10.336   8.408   8.696  0.1525  0.0302  0.3010
    1W        W33299   7.686  21.055   6.229  0.0882  0.0082  0.0715
    1W        W33300  22.726   4.654   1.081  0.0762 -0.1697  0.1737
    1W        W33301  15.060   6.207   8.025 -0.2135 -0.0727 -0.1421
    1W        W33302  15.402   2.340   6.632 -0.3861 -0.0384 -0.3190
    1W        W33303  22.096  22.151   1.364  0.3271 -0.3334  0.2273
    1W        W33304  12.248  29.522   7.020 -0.0807  0.1773  0.0674
    1W        W33305  21.913  14.168   1.891 -0.1790 -0.0031 -0.1353
    1W        W33306  15.332  17.561   7.472  0.0061  0.0718  0.1980
    1W        W33307   2.514   1.529   7.065 -0.2051  0.1166 -0.1327
    1W        W33308  17.754  17.481   6.657  0.2577  0.2492 -0.0694
    1W        W33309   5.092  20.782   0.607 -0.0841 -0.0341 -0.0938
    1W        W33310  18.731  15.365   0.506  0.1429  0.4089 -0.0234
    1W        W33311   1.732  16.568   2.136  0.1315  0.1308 -0.0291
    1W        W33312   6.142   2.715   1.472  0.1045  0.1249  0.0223
    1W        W33313  12.235   7.169   0.320  0.2636  0.0146 -0.0783
    1W        W33314   6.081  21.418   7.353  0.0089  0.1127 -0.1017
    1W        W33315  11.668   5.974   1.976 -0.2950  0.0058  0.0974
    1W        W33316   0.477  19.186   1.488  0.1605 -0.0296  0.0002
    1W        W33317  13.942   0.912   8.141 -0.0437 -0.2656 -0.1064
    1W        W33318   7.718  11.416   1.962 -0.1794  0.2152 -0.0199
    1W        W33319  14.624  17.879   7.677  0.0228 -0.0521 -0.0238
    1W        W33320   5.527  23.677   9.017  0.2653  0.0703 -0.1304
    1W        W33321  13.967   8.761   2.457  0.0216  0.3052  0.0677
    1W        W33322   9.705  12.436   8.961 -0.0024 -0.2014  0.0690
    1W        W33323   5.515  24.214   8.825  0.1078 -0.0448  0.0391
    1W        W33324  25.240  23.860   7.224  0.1069  0.0940 -0.2735
    1W        W33325   1.106  25.805   1.775  0.0510  0.1605  0.1586
    1W        W33326  20.721   2.853   2.166  0.1399 -0.0771 -0.1286
    1W        W33327   3.066  10.349   6.977  0.1231 -0.2825 -0.1605
    1W        W33328   1.360  23.074   6.256 -0.0470 -0.1566  0.0305
    1W        W33329   6.617  11.756   8.409  0.0272 -0.0354  0.0872
    1W        W33330  16.880  11.916   7.019  0.0032  0.1912  0.1034
    1W        W33331  27.628  11.717   8.109  0.2536  0.0128 -0.0803
    1W        W33332   1.173  22.571   0.469 -0.2840  0.1431 -0.3009
    1W        W33333  17.653  24.415   9.068  0.0092 -0.3348  0.1477
    1W        W33334   2.049  21.291   2.043  0.0689  0.3104 -0.1262
    1W        W33335  20.906  15.415   0.088  0.1031  0.3535 -0.0496
    1W        W33336  28.560  20.343   0.419  0.2039  0.0997 -0.0129
    1W        W33337   5.992  29.307   6.517 -0.0290 -0.2459 -0.0675
    1W        W33338  12.517  19.690   7.198  0.1682  0.2749 -0.2777
    1W        W33339   5.755  19.849   7.397 -0.1570 -0.0983 -0.1960
    1W        W33340  21.471   1.580   6.434 -0.2516  0.1179  0.2592
    1W        W33341   4.632  27.503   1.516  0.1868  0.2043  0.1893
    1W        W33342   6.214   9.826   0.158 -0.0538 -0.0768 -0.0023
    1W        W33343  21.392  12.203   1.071  0.1022  0.2804 -0.0691
    1W        W33344  11.399  23.571   0.221 -0.1152  0.2578  0.1360
    1W        W33345   0.088  21.880   0.300 -0.1152  0.1070  0.0386
    1W        W33346  21.040  26.176   8.547  0.0555 -0.5712  0.0922
    1W        W33347  21.772  11.030   8.199 -0.3142  0.0819  0.1183
    1W        W33348  25.896  29.394   0.475  0.1475  0.1152 -0.3510
    1W        W33349   2.494  28.582   8.902 -0.1134 -0.2526 -0.0578
    1W        W33350  21.734   8.217   1.886 -0.1156 -0.3738  0.4799
    1W        W33351   8.857   8.872   8.504 -0.1144 -0.0354 -0.0815
    1W        W33352   2.572  14.424   1.652  0.1257  0.1374  0.0466
    1W        W33353   1.783  10.317   2.979  0.0258 -0.0360  0.1552
    1W        W33354   7.035  26.706   0.570 -0.2407  0.3521  0.0220
    1W        W33355  27.408  18.857   3.210  0.2456 -0.0516  0.1111
    1W        W33356   8.998   3.953   1.763  0.1783  0.3472 -0.2712
    1W        W33357  26.840  11.315   7.812 -0.0565 -0.0691 -0.2987
    1W        W33358   2.725  15.935   8.875 -0.0655  0.2113 -0.2487
    1W        W33359  11.783  20.880   8.523 -0.1496  0.1430 -0.0650
    1W        W33360   0.055  11.947   6.511 -0.2444 -0.4460 -0.1164
    1W        W33361   4.859  12.109   6.827 -0.0605  0.1014 -0.0403
    1W        W33362  14.515  13.982   7.720 -0.3827 -0.0556  0.2663
    1W        W33363   9.349   4.256   0.734  0.0148  0.2868 -0.3037
    1W        W33364   5.942   3.458   0.592  0.1391  0.1479 -0.0704
    1W        W33365   7.719  15.760   2.829 -0.3067 -0.0415  0.0881
    1W        W33366  20.541   5.001   0.212  0.0244 -0.2831  0.0848
    1W        W33367  24.857  14.331   0.345 -0.0086 -0.2873  0.0624
    1W        W33368   8.749   2.617   9.377  0.1580 -0.0118 -0.1747
    1W        W33369  17.543   8.433   1.241  0.1610  0.1064 -0.1164
    1W        W33370  25.213   1.893   0.116  0.2832  0.1288 -0.0193
    1W        W33371   9.693  18.117   1.269 -0.0112  0.0164 -0.1045
    1W        W33372  12.446  13.699   7.440  0.2503 -0.0922 -0.2373
    1W        W33373   0.011   4.621   8.507 -0.1332  0.1550 -0.0676
    1W        W33374   5.858  15.818   1.508 -0.1794  0.4619  0.1780
    1W        W33375  14.719   4.584   9.378 -0.0030 -0.2409  0.1941
    1W        W33376  22.040   8.217   8.748  0.0849 -0.0136 -0.3623
    1W        W33377  22.823  24.497   7.265  0.0767  0.0286 -0.2019
    1W        W33378  15.857  10.687   7.287  0.0754 -0.0283 -0.0795
    1W        W33379  11.632   5.236   0.351  0.2073  0.0192  0.1140
    1W        W33380  20.629  17.987   7.446  0.3402 -0.2326 -0.4865
    1W        W33381   6.996  29.084   3.570 -0.1564  0.1822 -0.0393
    1W        W33382   5.216  25.381   6.482  0.0132 -0.0047 -0.1262
    1W        W33383  28.094   2.458   8.097  0.1122 -0.3293  0.1391
    1W        W33384  23.334  19.967   1.008 -0.1678  0.1332  0.1669
    1W        W33385  24.796   9.602   0.208 -0.2134  0.1445  0.1450
    1W        W33386   1.599   4.222   0.544  0.1122 -0.0269  0.2652
    1W        W33387  12.162  19.542   2.282 -0.0109  0.1975 -0.0751
    1W        W33388  20.121  17.055   0.154  0.3448 -0.0531  0.0526
    1W        W33389   3.417  23.677   1.724 -0.0572  0.0930 -0.0593
    1W        W33390  21.494   6.525   2.612 -0.3259 -0.4863 -0.2684
    1W        W33391  14.839  20.406   0.411  0.0759 -0.1109  0.1761
    1W        W33392   9.837  29.102   8.363  0.0108  0.2102 -0.2214
    1W        W33393  22.218  25.163   7.525 -0.0562 -0.2161 -0.0064
    1W        W33394   3.084   3.994   1.801 -0.3228 -0.2440  0.2035
    1W        W33395   5.045  19.376   8.903  0.1248  0.1764  0.3328
    1W        W33396   6.905   9.560   6.671  0.0662 -0.0057  0.2045
    1W        W33397   3.642  16.917   1.189 -0.0568 -0.1667 -0.2999
    1W        W33398   8.773  19.596   0.746 -0.3406 -0.1686 -0.1927
    1W        W33399   9.979   2.912   1.833 -0.4489 -0.1729 -0.0324
    1W        W33400  23.336   3.634   0.811  0.2566  0.0640 -0.0774
    1W        W33401   1.402   8.581   0.682 -0.1104  0.0172 -0.2671
    1W        W33402  14.644   0.525   1.187  0.1893  0.1369  0.0265
    1W        W33403   6.797  17.719   8.020 -0.1309 -0.1049  0.1158
    1W        W33404  19.034  28.581   1.414 -0.0464  0.1836  0.0575
    1W        W33405   7.755  23.462   6.285 -0.1660 -0.0865  0.2341
    1W        W33406  26.567  11.712   6.355  0.3026 -0.2313 -0.1709
    1W        W33407   0.978  14.350   8.154  0.0120 -0.2054  0.0097
    1W        W33408  14.919  29.064   0.932  0.0260  0.0828 -0.2584
    1W        W33409  20.455   8.337   1.018 -0.0732 -0.0035 -0.1207
    1W        W33410  11.021   3.769   7.855 -0.0224  0.1225  0.1057
    1W        W33411   6.275  28.024   9.352 -0.0790  0.3203  0.0120
    1W        W33412  21.701  20.868   8.761 -0.0607 -0.0192 -0.1212
    1W        W33413  12.015  20.666   8.133 -0.1007  0.0842 -0.2383
    1W        W33414  24.046   7.192   9.078  0.0783 -0.0551 -0.1669
    1W        W33415  10.049  20.812   1.601  0.0367  0.1133 -0.2908
    1W        W33416   2.701  15.855   6.626  0.0492 -0.0164 -0.1771
    1W        W33417  27.745   7.478   9.256  0.0896  0.2301 -0.0131
    1W        W33418  16.432  19.337   2.145  0.2381 -0.0169  0.0806
    1W        W33419   4.944  16.310   0.077  0.3706  0.0255 -0.3538
    1W        W33420  10.633  11.267   8.697  0.2224  0.0048 -0.1782
    1W        W33421   4.532   3.331   2.209  0.1728  0.0312  0.1762
    1W        W33422   1.862   5.457   3.545 -0.1158  0.1255  0.0396
    1W        W33423  15.390  21.897   8.698 -0.1902 -0.0352 -0.0409
    1W        W33424  27.237  16.559   2.495  0.0691 -0.0492 -0.0004
    1W        W33425  22.518  11.467   8.593  0.2893  0.1698  0.2410
    1W        W33426   6.718   9.918   0.139 -0.0987  0.1408 -0.0013
    1W        W33427  20.683  17.680   8.611  0.2371 -0.0309  0.1347
    1W        W33428  18.673  27.037   7.649  0.2193 -0.1298  0.2787
    1W        W33429   7.849  28.912   6.585  0.3059  0.1565  0.1532
    1W        W33430  28.520  16.309   7.585 -0.0757  0.1421  0.0232
    1W        W33431  25.416  13.063   5.916 -0.2626 -0.0815 -0.3218
    1W        W33432  19.412  25.806   0.627 -0.1504  0.0803 -0.1400
    1W        W33433   8.890  16.171   8.076 -0.0200  0.1741 -0.0887
    1W        W33434   4.855  21.017   0.109 -0.0310 -0.0703 -0.3577
    1W        W33435  21.135   9.092   7.058 -0.1468  0.1960 -0.3291
    1W        W33436  12.287  27.574   2.701 -0.1722  0.0177 -0.1339
    1W        W33437   0.729   4.766   8.809  0.3568  0.0073  0.2096
    1W        W33438  14.139  11.823   2.128  0.0386  0.0808 -0.0642
    1W        W33439  29.745   4.664   3.083 -0.0302 -0.1152  0.0827
    1W        W33440  18.440  18.573   2.631 -0.2273  0.3477 -0.0953
    1W        W33441  23.791  19.645   7.050  0.0726  0.0414 -0.2139
    1W        W33442  27.350   8.207   6.252 -0.2346  0.3527  0.2378
    1W        W33443  28.635  21.625   6.854 -0.1111  0.6013 -0.1180
    1W        W33444   8.701  29.196   7.084 -0.4323 -0.0327 -0.1969
    1W        W33445   9.554  16.921   6.961 -0.1137  0.1861 -0.1568
    1W        W33446   8.122  24.757   7.897 -0.2414 -0.1925 -0.0425
    1W        W33447  20.395   0.103   6.825  0.1274 -0.2324  0.0799
    1W        W33448   5.178  13.053   6.579 -0.3653 -0.0078  0.3546
    1W        W33449   6.180  12.842   6.204 -0.0341  0.2577  0.2146
    1W        W33450  11.167  22.721   6.438 -0.0769 -0.0827  0.0507
    1W        W33451  17.659  28.561   0.156  0.1680  0.0342  0.0000
    1W        W33452  16.390   2.019   1.907 -0.1094 -0.0028  0.2276
    1W        W33453  11.046  27.738   9.254 -0.0659 -0.0765 -0.0287
    1W        W33454   4.839  17.239   0.378  0.0472 -0.0003  0.1809
    1W        W33455  21.811  10.941   1.079 -0.2976  0.1421  0.1135
    1W        W33456  13.623   6.256   0.288  0.0868  0.2415 -0.1300
    1W        W33457  11.855  25.399   7.245 -0.1664 -0.0541  0.3269
    1W        W33458   3.506  12.630   1.451  0.5277  0.0774 -0.1191
    1W        W33459  25.330   6.492   1.640 -0.2451 -0.1338 -0.1210
    1W        W33460   9.327  25.367   7.862  0.1244  0.1403 -0.1221
    1W        W33461   7.428  14.864   6.845  0.2278  0.1345 -0.1225
    1W        W33462   1.425   6.555   9.451 -0.0165  0.2930 -0.1500
    1W        W33463   6.882  17.586   8.528 -0.0258 -0.2355 -0.3250
    1W        W33464   5.745  24.274   2.370  0.1896 -0.3304  0.2007
    1W        W33465  29.906   4.947   8.126 -0.0302  0.0635 -0.1088
    1W        W33466   7.471  14.609   1.121  0.0625  0.2878 -0.0051
    1W        W33467  21.170  12.723   8.084  0.1555 -0.1195 -0.1607
    1W        W33468  23.479   5.759   9.049  0.0507 -0.4190 -0.1117
    1W        W33469  15.978  21.575   0.343  0.1684  0.1586 -0.4022
    1W        W33470  27.536   5.142   1.051  0.1166 -0.0403  0.1055
    1W        W33471   6.206   6.490   1.313  0.2502 -0.0298 -0.2850
    1W        W33472  27.764  28.364   7.728  0.4434  0.0151  0.0754
    1W        W33473  17.344  21.331   1.158 -0.1171 -0.0950  0.1007
    1W        W33474   1.991  14.182   0.308 -0.1088  0.0602 -0.0592
    1W        W33475  11.997  27.225   2.161  0.1708 -0.3418  0.0503
    1W        W33476  13.323  19.125   7.428 -0.0979 -0.2536  0.0338
    1W        W33477  26.170  26.177   0.578  0.2494 -0.2300 -0.2178
    1W        W33478   3.441  24.287   8.021 -0.2075  0.0581  0.1472
    1W        W33479   4.956   2.500   1.151 -0.1575 -0.1305 -0.1310
    1W        W33480  29.636  19.639   0.203  0.4388 -0.4421 -0.2136
    1W        W33481  28.954   8.228   2.783 -0.0364 -0.0173 -0.2485
    1W        W33482  10.197   5.329   8.021 -0.1661  0.3415 -0.0572
    1W        W33483   0.066   8.009   2.622 -0.2405  0.1144 -0.0856
    1W        W33484  13.391   8.338   8.924  0.1832 -0.0807  0.0323
    1W        W33485  24.021   6.727   1.815  0.2701  0.0702 -0.1961
    1W        W33486   7.370  19.636   9.194  0.0594 -0.1024 -0.1512
    1W        W33487   8.944  24.840   7.216  0.0149  0.2099 -0.1842
    1W        W33488   1.882  13.511   2.422 -0.0586 -0.0276  0.1263
    1W        W33489  29.744  21.265   7.563  0.0846  0.0382  0.5090
    1W        W33490  12.225  21.129   0.819 -0.2341  0.4345  0.1056
    1W        W33491  25.046  22.450   7.078  0.0006  0.1217  0.1372
    1W        W33492  10.621   1.388   1.497 -0.0695 -0.0990 -0.2923
    1W        W33493  21.792  10.367   1.906 -0.2625  0.3754  0.2711
    1W        W33494  27.638  23.190   7.138 -0.0653 -0.3260 -0.2461
    1W        W33495  18.425   4.305   8.636  0.2803 -0.5534  0.2055
    1W        W33496  27.842   1.018   1.766 -0.0747  0.1313 -0.1963
    1W        W33497   9.579  14.068   1.357 -0.5035 -0.2597  0.2224
    1W        W33498  25.793  26.117   1.116 -0.4119  0.0783 -0.0257
    1W        W33499  28.843  14.731   8.094 -0.1389  0.0052 -0.0605
    1W        W33500  20.183  12.472   0.885  0.1773  0.2532 -0.2959
    1W        W33501   1.541  18.738   1.960 -0.0530  0.1589  0.0066
    1W        W33502   0.047   9.424   9.158  0.0964 -0.1492  0.2208
    1W        W33503  10.157  21.053   0.166  0.2661 -0.0316  0.2742
    1W        W33504   8.946  23.675   5.939 -0.0914  0.1109  0.1515
    1W        W33505  27.948   7.012   2.570  0.0470 -0.0303 -0.0561
    1W        W33506  22.753  12.390   1.888 -0.0919  0.1642 -0.4281
    1W        W33507  21.895   8.443   2.307  0.0646 -0.2713  0.0637
    1W        W33508  22.031  28.244   7.354  0.0715  0.2325 -0.0226
    1W        W33509  15.340  27.956   9.347 -0.1782  0.1069 -0.0432
    1W        W33510  21.212  26.893   8.427  0.1523  0.2032  0.0924
    1W        W33511  26.627   0.531   7.041  0.2911 -0.0618 -0.0169
    1W        W33512   7.000  11.389   1.549  0.1369  0.0336  0.1555
    1W        W33513  13.018  12.115   1.881 -0.1638 -0.3546 -0.0564
    1W        W33514  25.051  10.955   0.137  0.1172  0.0414 -0.1627
    1W        W33515   8.915   7.822   8.367  0.3415 -0.1004  0.1277
    1W        W33516  12.936   4.430   3.769  0.2632  0.1087  0.2635
    1W        W33517  23.330  14.503   7.132 -0.0969 -0.0536 -0.2958
    1W        W33518  24.328   0.106   8.672 -0.0069  0.0078  0.1406
    1W        W33519  28.977  22.682   7.359  0.0473 -0.2967  0.0931
    1W        W33520  17.665  23.987   7.727  0.4100 -0.1180  0.2777
    1W        W33521   9.706  10.671   0.176  0.0439 -0.0997  0.1449
    1W        W33522  26.313  13.033   7.145  0.1010 -0.1583  0.2494
    1W        W33523   4.593  15.353   8.886 -0.1063  0.0127  0.0768
    1W        W33524  27.813  26.744   2.256  0.1699  0.1720  0.0076
    1W        W33525   1.909  13.915   8.790  0.0111 -0.1693 -0.1661
    1W        W33526  28.544  20.723   1.397 -0.3580 -0.0591 -0.0920
    1W        W33527   8.843  11.859   1.965  0.4554  0.0636  0.1715
    1W        W33528  15.486   0.232   3.810 -0.0164  0.1482  0.0484
    1W        W33529  13.054  19.030   7.838 -0.1989 -0.1403  0.0816
    1W        W33530   8.789   4.523   3.654 -0.0458 -0.1679 -0.0305
    1W        W33531  16.614  20.973   1.314  0.0184  0.1601 -0.1898
    1W        W33532  16.807  11.972   9.170 -0.0137 -0.1374 -0.0903
    1W        W33533  15.862   4.596   0.169 -0.1385  0.3820  0.0432
    1W        W33534  18.785  15.704   1.914 -0.0701 -0.1615  0.0645
    1W        W33535  12.917  21.380   8.991  0.0730  0.0737 -0.0839
    1W        W33536   1.421  11.542   1.577  0.3245 -0.0045 -0.3668
    1W        W33537  21.281  15.320   6.396  0.3482 -0.4147 -0.2657
    1W        W33538  23.605  20.870   8.122 -0.0089 -0.1066 -0.2506
    1W        W33539   3.897   5.733   8.488 -0.3927 -0.2616 -0.0604
    1W        W33540  10.327  12.125   0.176  0.2357 -0.3651 -0.0795
    1W        W33541  12.705  10.633   2.160  0.0820  0.2181  0.0076
    1W        W33542   4.351  27.516   1.939 -0.0515  0.2355  0.1817
    1W        W33543  23.078   6.276   2.700  0.1040  0.1148  0.1795
    1W        W33544   1.519  24.956   6.003 -0.3478  0.1936 -0.3475
    1W        W33545  18.759   7.433   1.573  0.0023 -0.2476 -0.0912
    1W        W33546  24.365  28.602   2.460 -0.3611 -0.1680 -0.0901
    1W        W33547  26.336   7.199   1.094  0.2706  0.0939 -0.0889
    1W        W33548  11.799   1.254   7.417 -0.1407 -0.0486 -0.2901
    1W        W33549  11.723  12.543   9.394 -0.0643 -0.2004  0.0428
    1W        W33550  12.575  26.552   7.653 -0.1815 -0.1144 -0.0096
    1W        W33551  17.661  26.909   1.768  0.0218  0.0618  0.0667
    1W        W33552  22.692   3.463   8.800 -0.1751 -0.1800  0.1828
    1W        W33553   2.671  29.578   7.755  0.1170 -0.2250  0.4243
    1W        W33554  23.773  10.595   9.218  0.3941 -0.2340  0.3476
    1W        W33555  25.834   9.477   0.206 -0.2139  0.0468  0.1475
    1W        W33556  28.366  18.865   7.427  0.1645 -0.0842 -0.1573
    1W        W33557  22.195  18.908   1.802 -0.0626  0.3640 -0.2340
    1W        W33558  23.332  24.186   3.065 -0.1470 -0.5581  0.1282
    1W        W33559   7.045  20.137   8.893 -0.0300 -0.0011 -0.0293
    1W        W33560   4.053   5.736   7.345  0.4143  0.0822  0.1828
    1W        W33561  26.922  20.733   8.130 -0.2681  0.0144 -0.1112
    1W        W33562  16.002  26.931   2.184  0.1603 -0.1074 -0.1618
    1W        W33563  24.637  17.779   6.571 -0.0390 -0.0713 -0.1936
    1W        W33564   4.547  21.967   7.648  0.2201  0.1597  0.2056
    1W        W33565   4.620  22.635   6.627  0.0747 -0.0457 -0.1101
    1W        W33566   7.952   7.669   2.163  0.1514 -0.2275 -0.0542
    1W        W33567   8.273  18.030   6.774 -0.1068 -0.0662  0.0815
    1W        W33568   5.501  27.947   1.346  0.1849 -0.2789 -0.1564
    1W        W33569  10.856  14.200   0.643 -0.0833 -0.2010  0.1085
    1W        W33570  25.573   8.533   9.216 -0.2286 -0.0386 -0.0795
    1W        W33571  10.980  11.088   0.985  0.4596 -0.0711 -0.0789
    1W        W33572  18.333  28.007   1.649  0.1432 -0.0641  0.1477
    1W        W33573  10.977  20.396   1.965  0.0328  0.1090 -0.0771
    1W        W33574   7.730  28.044   2.067  0.1606 -0.0503  0.3911
    1W        W33575  10.362  11.151   3.109  0.1214 -0.0637  0.2121
    1W        W33576   5.192  28.531   8.832 -0.0382  0.0467 -0.2278
    1W        W33577  19.859  19.543   7.966  0.0121  0.2197  0.2254
    1W        W33578  27.621  18.014   8.109  0.0291  0.0541  0.2150
    1W        W33579  15.944   6.097   9.223 -0.1084 -0.0512  0.2646
    1W        W33580  17.491  12.733   9.202 -0.0550  0.0451  0.0347
    1W        W33581  17.331   0.728   0.952 -0.3644 -0.0987 -0.0911
    1W        W33582   3.327   7.408   8.731  0.2403 -0.2569  0.0288
    1W        W33583  26.507  10.375   8.585  0.1909  0.2103 -0.2270
    1W        W33584  27.514  24.186   9.175 -0.1504 -0.0656 -0.2376
    1W        W33585   4.317   2.700   1.102 -0.0851  0.3059  0.0580
    1W        W33586  27.014  22.765   1.218  0.0763 -0.2390  0.0264
    1W        W33587  11.799  22.623   8.914 -0.2745 -0.0557  0.0125
    1W        W33588  15.072   6.568   7.549  0.2355 -0.2896 -0.1675
    1W        W33589   2.510  28.553   1.252 -0.0125  0.0913  0.0811
    1W        W33590  23.084  14.816   7.428  0.0608 -0.1603  0.0042
    1W        W33591   6.661  11.850   9.029 -0.0180 -0.2872  0.2925
    1W        W33592   3.813  21.082   0.668  0.3762  0.1809 -0.0389
    1W        W33593  29.348  25.390   7.301 -0.0767 -0.3609  0.0419
    1W        W33594  27.122  17.087   6.404 -0.2603  0.0916  0.1533
    1W        W33595  19.110  23.478   9.425 -0.2184  0.1463 -0.1683
    1W        W33596  24.746   3.187   9.176 -0.1045  0.1307 -0.3782
    1W        W33597   8.887  12.837   1.771  0.2160 -0.0520 -0.0803
    1W        W33598   0.883  29.689   6.964 -0.1049 -0.0513  0.3535
    1W        W33599  10.590   0.814   0.740 -0.2421  0.5332 -0.1364
    1W        W33600  13.663   2.617   9.369 -0.1020 -0.0422 -0.1499
    1W        W33601  18.844  27.025   2.981  0.1401 -0.0313  0.0143
    1W        W33602  23.577  12.307   8.157  0.0776 -0.1682 -0.0156
    1W        W33603   9.830  13.289   1.812 -0.1976  0.0546  0.1213
    1W        W33604  16.160  22.981   1.957 -0.1921 -0.0731  0.0294
    1W        W33605  20.512  13.185   2.118  0.0136  0.0111  0.0813
    1W        W33606  15.035  15.007   9.150  0.0600 -0.0472 -0.0535
    1W        W33607   5.991   3.563   1.912 -0.0477  0.0346  0.0636
    1W        W33608   1.582  18.498   0.112  0.2281  0.0648 -0.1838
    1W        W33609  12.177  12.121   8.239  0.0967 -0.3679 -0.1261
    1W        W33610  24.040  27.765   0.360 -0.2423 -0.1630 -0.2686
    1W        W33611  12.333   7.670   0.572 -0.0722  0.0534 -0.0777
    1W        W33612  17.342  14.436   7.659  0.2986  0.0453 -0.2561
    1W        W33613  11.109  17.035   1.415  0.0178 -0.2265  0.0157
    1W        W33614   0.917  15.245   0.003 -0.0743 -0.1403  0.1530
    1W        W33615  29.152   7.045   7.557  0.1669  0.0289  0.2721
    1W        W33616  22.126   5.604   2.004  0.1135  0.0693 -0.1255
    1W        W33617   7.580  17.452   7.147  0.0638  0.0091 -0.1148
    1W        W33618  29.478   2.137   7.209 -0.0350 -0.0826 -0.0812
    1W        W33619   0.454  15.082   2.324 -0.0774  0.0034  0.0594
    1W        W33620  17.725  25.822   7.749  0.0865 -0.0837 -0.1436
    1W        W33621   4.342  24.273   6.801 -0.0452  0.0892 -0.0001
    1W        W33622   3.226   8.008   7.278 -0.0688 -0.1453 -0.1353
    1W        W33623  26.334  18.479   6.112 -0.0109  0.2999 -0.0647
    1W        W33624  29.026   1.996   0.437  0.1004  0.0567 -0.0966
    1W        W33625   3.237  21.852   7.489  0.2245 -0.0452 -0.2307
    1W        W33626   0.308  28.842   2.618  0.1392  0.3254 -0.1494
    1W        W33627   6.275  10.370   2.294  0.1441  0.2853  0.0070
    1W        W33628  12.284   2.165   2.074 -0.1603  0.1695 -0.0964
    1W        W33629  25.303  16.357   1.131 -0.2337  0.1478 -0.0786
    1W        W33630  13.438  11.241   7.425 -0.0581  0.3604 -0.5049
    1W        W33631  19.376   6.721   2.793 -0.3189  0.1752 -0.3106
    1W        W33632  11.064  20.202   1.498 -0.3780  0.0342 -0.2989
    1W        W33633   8.307  14.437   0.669 -0.3260 -0.0285 -0.0704
    1W        W33634  14.365   3.826   8.039 -0.3114  0.0923  0.2107
    1W        W33635  27.028  27.765   7.746  0.1609 -0.0557 -0.2357
    1W        W33636   7.934   9.866   2.873 -0.1968 -0.1346 -0.1180
    1W        W33637  20.761  28.982   0.746 -0.0444 -0.0503  0.3050
    1W        W33638  23.668   2.359   1.678 -0.0197  0.0952 -0.0586
    1W        W33639   6.215   0.658   6.675  0.1091  0.2102  0.2942
    1W        W33640  18.361  13.362   0.553 -0.1394  0.3355 -0.0019
    1W        W33641   5.493  23.954   1.036 -0.1487 -0.0396 -0.1230
    1W        W33642   1.298  24.036   6.665 -0.0125  0.0330  0.2688
    1W        W33643  25.875  21.826   2.366  0.0527  0.1654  0.1210
    1W        W33644  11.892   1.083   7.926 -0.0226 -0.0490  0.0674
    1W        W33645  26.900  23.569   7.370 -0.2988 -0.1594 -0.1394
    1W        W33646  21.589   4.981   9.383  0.0371 -0.0498 -0.2287
    1W        W33647  11.407  20.528   1.434  0.2631 -0.1580 -0.3690
    1W        W33648  23.646  16.265   1.667  0.0536  0.2169  0.1009
    1W        W33649   5.134  21.427   8.099  0.1032  0.1247  0.2055
    1W        W33650  26.100  25.443   9.109  0.3413  0.1525 -0.2412
    1W        W33651   3.659   4.760   8.633  0.0453 -0.2234 -0.3744
    1W        W33652  28.216  18.076   6.865 -0.2943 -0.1908  0.1995
    1W        W33653   1.317  26.138   8.764  0.1061 -0.1408 -0.0624
    1W        W33654   7.401   1.401   0.760  0.2963  0.1612  0.1286
    1W        W33655  12.877  27.195   2.133  0.0222  0.2317  0.1083
    1W        W33656   5.568  10.845   6.959  0.1145  0.0520  0.2853
    1W        W33657   3.631  15.449   1.929 -0.0305 -0.0093 -0.1524
    1W        W33658  26.926  29.383   1.758 -0.2664 -0.0078  0.0457
    1W        W33659  28.468  13.418   0.559 -0.0557 -0.2205  0.0889
    1W        W33660  27.129  25.269   0.596  0.2771  0.2451 -0.3999
    1W        W33661  27.670  28.409   9.464 -0.0088  0.0807  0.2064
    1W        W33662  27.828  21.763   0.885 -0.1822  0.1833 -0.1646
    1W        W33663  19.970  24.935   0.381 -0.1126 -0.0495  0.0618
    1W        W33664   4.636   4.859   8.891  0.0028  0.0404  0.2011
    1W        W33665   1.000   9.516   0.929 -0.0563 -0.0613 -0.3750
    1W        W33666  22.899  23.750   8.790  0.1012 -0.0220 -0.2150
    1W        W33667   0.339  18.416   6.722 -0.0283 -0.3053 -0.0737
    1W        W33668  14.922  19.494   2.045  0.0338  0.1662  0.1638
    1W        W33669  22.734   4.629   6.988  0.0357 -0.2721  0.0208
    1W        W33670  18.409  12.569   1.896 -0.1292  0.1454  0.1695
    1W        W33671  27.377   7.160   1.147 -0.0889 -0.0699  0.0174
    1W        W33672  28.722  14.912   0.395  0.2518 -0.1643 -0.1315
    1W        W33673  28.786  19.500   8.702 -0.2143 -0.0581 -0.3262
    1W        W33674  14.375  18.793   7.396  0.1094  0.0325 -0.1301
    1W        W33675  17.254   9.414   1.175 -0.1376  0.2077  0.0496
    1W        W33676  14.442  11.109   2.683 -0.1765  0.1641  0.0144
    1W        W33677   2.910  17.692   8.755  0.2158 -0.1731 -0.1062
    1W        W33678  22.717  29.279   9.129 -0.0660 -0.0031  0.0540
    1W        W33679  16.263   8.018   0.914  0.1149  0.0440 -0.0290
    1W        W33680   0.607  11.494   8.751 -0.1427  0.1665  0.1354
    1W        W33681  24.891   7.490   7.539 -0.0301 -0.0487  0.0214
    1W        W33682  23.597  14.634   1.910  0.2480  0.3369  0.2357
    1W        W33683  29.037  15.184   8.066 -0.2085 -0.0996  0.0204
    1W        W33684   1.449  26.528   1.210  0.0324  0.2511  0.1317
    1W        W33685  17.641  20.145   1.240  0.0723 -0.0134  0.0556
    1W        W33686  11.693   6.875   8.996  0.0658  0.0652 -0.3195
    1W        W33687   4.299  24.531   7.913  0.3420  0.1268 -0.3022
    1W        W33688   7.104  23.119   0.870  0.1176  0.0231  0.0214
    1W        W33689   0.298  26.126   8.716  0.0401  0.1352 -0.2200
    1W        W33690   9.931  24.391   9.464 -0.0225  0.2273 -0.2376
    1W        W33691  18.066  27.521   2.417  0.0483 -0.0715 -0.0416
    1W        W33692  22.953  12.382   0.658 -0.2342  0.0356 -0.0031
    1W        W33693  26.749   3.128   9.253 -0.0808 -0.0561  0.0249
    1W        W33694  17.956   1.942   2.311 -0.2228  0.0375  0.2178
    1W        W33695  20.964   6.918   8.180 -0.2858  0.0594  0.1316
    1W        W33696  24.348   9.697   1.523 -0.2321 -0.1167  0.3873
    1W        W33697   6.189  18.432   7.002 -0.3211 -0.2366 -0.4841
    1W        W33698  28.375  10.593   8.537  0.1015  0.0334  0.1325
    1W        W33699   4.323   8.948   7.413  0.3684  0.1723  0.0529
    1W        W33700  16.209  25.514   6.624  0.1714 -0.2716  0.2930
    1W        W33701  14.796   0.198   7.755 -0.0682  0.0923 -0.0349
    1W        W33702  10.022  12.295   6.733 -0.0395 -0.0323 -0.2796
    1W        W33703  24.144  16.645   7.942 -0.0686 -0.0174 -0.0267
    1W        W33704   1.037   8.133   6.657 -0.3268  0.0751  0.3724
    1W        W33705  13.332  11.093   1.886  0.0587  0.1598 -0.0480
    1W        W33706   6.259   4.805   8.703  0.0790 -0.1685 -0.2744
    1W        W33707  17.954   5.264   1.075 -0.0292 -0.0397 -0.0659
    1W        W33708   3.067  10.032   6.493 -0.0199  0.4306  0.2398
    1W        W33709  14.782   7.370   9.368 -0.0544  0.1330 -0.2996
    1W        W33710  25.698  23.369   2.437 -0.0983  0.1992 -0.0550
    1W        W33711   8.271   6.731   0.667 -0.0798  0.0414 -0.1387
    1W        W33712  29.616  13.308   1.072  0.2283  0.1131  0.0277
    1W        W33713  23.162  15.655   9.091  0.1144  0.2411  0.3016
    1W        W33714  18.509   6.314   6.907  0.3837 -0.1297  0.0559
    1W        W33715  29.220   2.875   7.508  0.0202  0.0077  0.0578
    1W        W33716  29.500  15.497   8.124  0.0726  0.1021 -0.1283
    1W        W33717   5.548   5.364   1.863 -0.2104  0.1130 -0.0149
    1W        W33718  17.105  27.361   1.429 -0.0715 -0.2565  0.0804
    1W        W33719  18.691   1.632   1.824 -0.2241 -0.2474  0.0892
    1W        W33720  18.802  18.885   1.326 -0.0288  0.2671 -0.0074
    1W        W33721  16.498  12.226   0.852  0.1891  0.1266 -0.5232
    1W        W33722  28.831   3.955   8.487 -0.1316  0.0466 -0.0244
    1W        W33723  25.983  24.847   8.408  0.1101 -0.0928  0.1041
    1W        W33724   8.288  20.491   0.807 -0.0583 -0.0301 -0.1188
    1W        W33725  16.691  11.952   8.672  0.2055  0.3029  0.2155
    1W        W33726  23.321  17.466   7.408 -0.1911  0.0099  0.2774
    1W        W33727  16.192  27.406   3.955  0.1979  0.2336 -0.0904
    1W        W33728  16.265  13.338   1.329  0.4055  0.1899  0.1722
    1W        W33729  15.089  11.061   8.396  0.2561 -0.1704  0.5214
    1W        W33730  28.811   4.715   6.918 -0.0256 -0.2731 -0.1549
    1W        W33731  29.570   5.599   0.021 -0.0886  0.1631  0.3546
    1W        W33732   0.281   3.599   8.842  0.1316 -0.1976 -0.2643
    1W        W33733   4.326  26.970   2.240  0.0319 -0.0759  0.0172
    1W        W33734   8.373   6.805   1.164  0.0814 -0.2625 -0.0662
    1W        W33735  12.641  19.949   6.798 -0.3041 -0.0191  0.3828
    1W        W33736   5.337  28.469   7.326  0.0978 -0.0818 -0.0028
    1W        W33737  18.882  23.965   0.580 -0.0198  0.0384 -0.0815
    1W        W33738  17.098   2.395   8.871 -0.6119  0.2195 -0.1958
    1W        W33739   1.218   2.126   2.436  0.1094  0.0374  0.1774
    1W        W33740  17.148  20.909   1.275 -0.0941 -0.1691  0.2328
    1W        W33741   1.600  14.851   8.584  0.2079  0.2895  0.0166
    1W        W33742  19.949   1.175   0.933 -0.1919 -0.0351  0.2492
    1W        W33743  27.250  23.784   2.175  0.4222 -0.0519 -0.0256
    1W        W33744  23.819   4.102   7.186  0.1901 -0.0063 -0.1823
    1W        W33745   1.937  13.769   8.277  0.2420 -0.2981  0.0679
    1W        W33746  15.013  16.993   8.263 -0.2121  0.2540 -0.0785
    1W        W33747   0.468  13.630   8.400 -0.2265 -0.0856  0.1303
    1W        W33748  25.702   9.919   0.460 -0.0179  0.0937 -0.2913
    1W        W33749  18.598   0.954   1.783  0.0901 -0.1083  0.1377
    1W        W33750  19.891  15.659   0.902  0.0646 -0.1955  0.0714
    1W        W33751  20.165  22.858   8.864 -0.2673 -0.2472  0.1129
    1W        W33752   7.076   8.372   7.788  0.2158 -0.1622 -0.2176
    1W        W33753   3.701  26.204   1.755  0.1189 -0.0927 -0.2904
    1W        W33754  18.673  20.085   7.228  0.1970 -0.1596 -0.0127
    1W        W33755  20.211  27.995   7.517  0.1123  0.0200 -0.0390
    1W        W33756  12.979   6.155   1.981  0.2418  0.3503  0.1337
    1W        W33757  17.892   9.072   0.447  0.0713 -0.3366 -0.1948
    1W        W33758  16.495  17.399   0.545 -0.0166 -0.3612  0.1959
    1W        W33759   8.732  23.966   6.656  0.7238  0.0606  0.2463
    1W        W33760  19.248  23.639   3.359 -0.4792  0.1223  0.0785
    1W        W33761  26.236  22.473   9.139 -0.1653 -0.0059 -0.1483
    1W        W33762  12.201  19.059   8.269  0.1233  0.0076  0.4573
    1W        W33763   6.160   4.868   0.257 -0.1284 -0.3504  0.0526
    1W        W33764  22.189  18.535   1.331  0.2232  0.3246 -0.1719
    1W        W33765   7.391  29.245   8.086  0.0066 -0.0233  0.0170
    1W        W33766  28.858  26.024   1.955  0.1990 -0.0580 -0.1705
    1W        W33767  13.317  15.022   1.448  0.2617 -0.2450  0.1564
    1W        W33768   0.737  26.353   6.127  0.1975  0.1365 -0.0624
    1W        W33769   7.312  15.371   6.827 -0.1490  0.1128 -0.1080
    1W        W33770  19.258   3.305   8.023 -0.0758  0.2649 -0.1953
    1W        W33771   0.949   2.533   0.903 -0.0943  0.1950  0.0623
    1W        W33772   7.259  24.261   7.134  0.2567 -0.0253  0.1724
    1W        W33773  29.850   9.972   5.905  0.0929  0.0317 -0.3879
    1W        W33774  27.574  15.027   6.903 -0.1780  0.0661 -0.0942
    1W        W33775  27.572  18.790   2.299 -0.1558  0.0573  0.0636
    1W        W33776   7.655  19.403   0.148 -0.1922  0.1759 -0.0128
    1W        W33777   5.443   3.079   8.805  0.1140 -0.5095  0.3743
    1W        W33778   6.076  14.065   8.686 -0.1117  0.1728 -0.1239
    1W        W33779  27.109   5.822   1.330 -0.0274  0.2075 -0.2953
    1W        W33780   8.653   6.008   6.677  0.1932 -0.0006  0.3186
    1W        W33781  26.955   8.694   9.048 -0.0869 -0.0202  0.0757
    1W        W33782   4.721  18.418   1.313  0.0294 -0.3911  0.0336
    1W        W33783  28.681  19.075   0.619 -0.1435 -0.0950 -0.1381
    1W        W33784   6.754   8.765   3.466 -0.1973 -0.1099  0.2606
    1W        W33785   4.551   1.022   7.550 -0.2147 -0.2338  0.2127
    1W        W33786  22.806   7.507   0.096  0.0846  0.3499  0.1170
    1W        W33787  18.339  17.942   0.203 -0.0623 -0.4630 -0.2317
    1W        W33788  21.843   4.740   7.591  0.2065  0.5642 -0.1505
    1W        W33789   5.027  18.737   1.487  0.0912  0.1779 -0.0777
    1W        W33790  28.859  13.082   9.302 -0.3376  0.0454  0.1354
    1W        W33791   9.095  10.560   8.068  0.0353 -0.1065  0.1069
    1W        W33792   1.685  13.755   0.296 -0.0993  0.5807 -0.1687
    1W        W33793  15.412  19.619   7.472 -0.0713 -0.1747  0.1610
    1W        W33794  29.834  21.710   7.421 -0.1131 -0.0975  0.0454
    1W        W33795  10.941   2.215   7.838 -0.2048  0.1913  0.1033
    1W        W33796   3.836   9.408   0.002 -0.0134  0.2231 -0.0860
    1W        W33797  20.813  12.394   6.168  0.0316  0.3144 -0.3053
    1W        W33798  14.036   2.686   8.365  0.1484  0.2439  0.1358
    1W        W33799  14.695   7.261   8.877 -0.2645 -0.3842  0.4200
    1W        W33800  16.024   6.060   6.845  0.0836  0.1638 -0.3801
    1W        W33801  13.816  15.848   8.702  0.1128  0.0593  0.3375
    1W        W33802   3.701  23.204   1.022 -0.0987  0.2736 -0.2872
    1W        W33803  27.676  19.032   7.803 -0.0105 -0.2880 -0.0629
    1W        W33804   7.924   7.352   9.140  0.1756  0.0111  0.1651
    1W        W33805  20.525   1.515   8.845 -0.0542  0.2560  0.0696
    1W        W33806   8.586   1.244   0.849 -0.0907  0.2799  0.0508
    1W        W33807   3.354  14.252   8.348  0.0109  0.0677 -0.0158
    1W        W33808  14.756  28.817   3.336  0.3533 -0.1716  0.0175
    1W        W33809  18.070  15.533   7.680  0.1595 -0.1890  0.1216
    1W        W33810   5.723   7.189   1.900  0.2285 -0.2378 -0.0445
    1W        W33811   5.820   0.634   8.656  0.3977 -0.2473  0.2704
    1W        W33812  20.955  23.857   0.790  0.1073  0.1104  0.3469
    1W        W33813  23.746   0.428   1.811 -0.2272  0.1849  0.2980
    1W        W33814  19.560  11.661   8.458 -0.2571  0.2001 -0.1362
    1W        W33815  28.589  10.165   9.464 -0.1181 -0.3693  0.0541
    1W        W33816  26.973  13.558   8.541 -0.1459  0.1688 -0.1914
    1W        W33817   0.247   0.561   2.910  0.0278 -0.2685 -0.3464
    1W        W33818   8.336  15.030   6.737  0.1193  0.0642 -0.0510
    1W        W33819  21.993  19.505   1.871 -0.1586  0.0370 -0.3593
    1W        W33820  23.605  21.753   2.062  0.0531  0.3776 -0.2303
    1W        W33821   8.721   9.601   2.231  0.2549 -0.1681 -0.0552
    1W        W33822  18.100  24.971   0.726 -0.2839  0.0210  0.1315
    1W        W33823   9.758   1.653   0.077  0.0946 -0.2987 -0.1659
    1W        W33824   8.740  13.035   7.180 -0.3661  0.2011  0.0732
    1W        W33825  10.156   6.956   7.028 -0.0468  0.2543 -0.0376
    1W        W33826   3.665  24.410   8.716 -0.2025 -0.0383 -0.1478
    1W        W33827   9.170  17.847   7.202 -0.2632 -0.0279  0.1572
    1W        W33828  13.797   1.885   1.684 -0.0003  0.1620 -0.1303
    1W        W33829  15.834  25.319   7.091  0.1186 -0.4963 -0.1169
    1W        W33830  25.086   3.686   1.033  0.0181 -0.2137  0.5161
    1W        W33831  24.702  15.579   0.528 -0.2820 -0.1479  0.1062
    1W        W33832  26.091  14.415   7.844  0.1089  0.1809  0.2801
    1W        W33833  23.846  22.282   7.235 -0.3538  0.0310  0.3520
    1W        W33834   5.757  14.608   8.819 -0.0922 -0.1235  0.2385
    1W        W33835   2.733  24.502   1.645 -0.2170  0.3773  0.0552
    1W        W33836  10.340   6.313   9.076 -0.4029 -0.2701 -0.2574
    1W        W33837   3.674  12.566   1.906  0.1939  0.0591 -0.2254
    1W        W33838   7.108   1.600   3.773  0.1855 -0.2420 -0.0921
    1W        W33839  24.839   1.146   9.105 -0.0479 -0.1342 -0.2218
    1W        W33840  28.493   0.383   0.504 -0.1424 -0.1413 -0.0839
    1W        W33841  19.926   7.220   7.767  0.2374  0.2890  0.0348
    1W        W33842   5.624   4.819   7.173 -0.0844  0.0681  0.1287
    1W        W33843   1.532   5.596   9.162 -0.1669 -0.0168  0.1465
    1W        W33844  29.291  15.433   1.497  0.0042 -0.0032  0.0310
    1W        W33845   5.251   7.571   7.346  0.0859  0.2558 -0.2211
    1W        W33846  29.391  24.093   9.310 -0.2106  0.0320 -0.1843
    1W        W33847  24.756  14.617   7.038  0.0810 -0.2396 -0.1731
    1W        W33848  24.015   6.113   0.465 -0.2817 -0.0425  0.2118
    1W        W33849  19.858  17.882   0.891  0.0498 -0.1189 -0.2142
    1W        W33850   6.478  22.182   6.420 -0.1040 -0.4431  0.0569
    1W        W33851  13.221   2.932   9.062  0.1535 -0.0931 -0.2590
    1W        W33852  16.256  15.117   1.267  0.0043 -0.2587 -0.0207
    1W        W33853  18.153  21.588   1.069 -0.2427  0.0750 -0.1695
    1W        W33854   5.340   9.524   2.327 -0.0265 -0.0450  0.0315
    1W        W33855   2.726  19.923   2.720  0.0578 -0.2321  0.0583
    1W        W33856  23.506   2.799   2.244  0.0326 -0.0246 -0.1633
    1W        W33857  12.482  27.136   2.377  0.2246  0.2483  0.0998
    1W        W33858   0.878  16.237   6.827  0.1518  0.1579  0.1655
    1W        W33859  22.178  14.289   1.474 -0.1373  0.2437 -0.1217
    1W        W33860  13.349  17.948   7.052 -0.0795 -0.0603  0.0668
    1W        W33861  21.565  25.497   2.069  0.0972 -0.1458  0.1507
    1W        W33862  22.580   1.949   1.139  0.1160  0.1025  0.1306
    1W        W33863  16.439   1.073   8.022  0.0114  0.1555 -0.1438
    1W        W33864  15.253  21.100   8.037  0.2655 -0.0291 -0.0380
    1W        W33865  14.493  18.436   8.302 -0.0102  0.1710  0.1181
    1W        W33866   1.265  23.638   6.972 -0.0919  0.1249 -0.0244
    1W        W33867  21.636   0.214   8.313  0.4359  0.0249 -0.0053
    1W        W33868  12.542  28.430   2.731  0.2583 -0.1251  0.1206
    1W        W33869  19.285  11.281   0.620 -0.1753 -0.1256 -0.1017
    1W        W33870  29.316  11.723   6.343 -0.0728  0.0562  0.0840
    1W        W33871   8.146   7.088   7.772 -0.2101  0.2043  0.1440
    1W        W33872   0.724   4.599   7.551 -0.2298 -0.0548  0.0551
    1W        W33873   3.486  29.788   9.238  0.0502  0.3319  0.0687
    1W        W33874   2.222   6.595   1.697 -0.0181  0.0530  0.0941
    1W        W33875  26.333  10.029   6.538 -0.4466  0.0867  0.0549
    1W        W33876   7.439  21.509   5.530 -0.0117  0.0376  0.1192
    1W        W33877   1.658  25.748   6.877  0.3358  0.3237  0.1442
    1W        W33878  21.283  22.209   7.276  0.0936 -0.1790  0.3962
    1W        W33879  20.429  18.245   6.844 -0.0610  0.1912  0.1192
    1W        W33880  13.252  25.789   6.641 -0.1249  0.1937 -0.0486
    1W        W33881  27.109   3.745   6.825 -0.2074 -0.1112 -0.1277
    1W        W33882   8.447   2.142   7.008 -0.0681  0.0017 -0.0885
    1W        W33883   5.062  21.917   7.904 -0.3444  0.1267 -0.0224
    1W        W33884   4.436   1.448   1.465  0.3533  0.1865 -0.0887
    1W        W33885  27.987  16.628   6.589  0.2540 -0.0599  0.1820
    1W        W33886   2.935   2.510   2.223  0.0509  0.0093 -0.0332
    1W        W33887   8.124  26.847   6.995 -0.0418  0.2012  0.0549
    1W        W33888  12.172   6.965   1.692  0.2625  0.1426  0.0948
    1W        W33889   4.359  14.556   7.810  0.0270  0.0706  0.1757
    1W        W33890  14.256  11.308   9.062  0.0322 -0.0389  0.0955
    1W        W33891  12.231  29.408   8.833 -0.3683  0.0593  0.2501
    1W        W33892  20.768   9.870   0.159  0.2567  0.1257  0.4400
    1W        W33893  29.897  21.381   6.424  0.2916 -0.4899  0.2132
    1W        W33894  11.567  28.363   1.801 -0.0552 -0.2316 -0.2343
    1W        W33895  28.539  25.592   9.332  0.1132  0.1357 -0.2873
    1W        W33896   4.854   3.673   2.593 -0.1720  0.1783  0.4095
    1W        W33897  13.585   2.278   2.668 -0.2341  0.0312  0.3717
    1W        W33898  20.399  16.338   7.475 -0.1573 -0.0343  0.0983
    1W        W33899   5.765   6.251   1.456  0.0361 -0.1665 -0.0219
    1W        W33900  17.180   8.995   8.548 -0.1354  0.1974  0.0810
    1W        W33901  22.413  15.999   6.611  0.1199 -0.0547 -0.0175
    1W        W33902  16.235   9.806   2.610 -0.0917 -0.1067  0.0107
    1W        W33903  16.301   6.419   0.015 -0.0146  0.0884 -0.0680
    1W        W33904   9.991  27.876   0.316 -0.2510  0.1159  0.1239
    1W        W33905  21.196  28.261   8.550  0.1426  0.0263 -0.3874
    1W        W33906   2.295  10.286   6.325  0.4373  0.0173 -0.3045
    1W        W33907  12.607  23.364   0.834 -0.0197  0.1026  0.2317
    1W        W33908   0.722   7.087   6.437  0.1293  0.0135  0.1234
    1W        W33909   5.742  23.766   7.538  0.2002 -0.1580  0.1839
    1W        W33910  13.114   8.176   8.400  0.0097  0.1540 -0.0067
    1W        W33911  10.584  20.842   0.775 -0.0076 -0.1672 -0.1869
    1W        W33912   3.881  24.982   1.561  0.2151 -0.0535  0.2488
    1W        W33913   4.633  29.590   8.469  0.0746 -0.0091 -0.2238
    1W        W33914  27.846  10.035   1.565  0.1553 -0.1816  0.0839
    1W        W33915   4.638   3.411   6.204  0.2203 -0.0145 -0.0319
    1W        W33916   2.959   4.673   3.825 -0.2624 -0.2133 -0.1590
    1W        W33917   8.926  27.014   2.410  0.1592  0.1608 -0.0472
    1W        W33918  20.798  17.151   7.096 -0.0013 -0.3277 -0.0985
    1W        W33919  28.237  11.762   8.655  0.3255 -0.0875 -0.1670
    1W        W33920  14.858  27.965   6.959  0.1695  0.0027 -0.1094
    1W        W33921  26.012  27.657   0.038  0.0113 -0.1322  0.0158
    1W        W33922   5.609  13.882   6.947 -0.0737 -0.3295 -0.0322
    1W        W33923   7.473  22.162   6.172 -0.0086 -0.0921  0.1208
    1W        W33924   4.392   0.808   3.197  0.1354 -0.3658 -0.2396
    1W        W33925  18.700  23.335   1.686 -0.0292 -0.0792  0.3133
    1W        W33926   7.671  17.358   0.778 -0.0238  0.3262 -0.1157
    1W        W33927  27.622   9.651   0.603  0.0117 -0.1801 -0.1379
    1W        W33928  16.393   7.785   2.116  0.2475  0.1817 -0.2193
    1W        W33929   9.879   4.300   7.429 -0.2741 -0.2929 -0.0737
    1W        W33930  28.280  24.607   2.196 -0.4354 -0.2703 -0.1458
    1W        W33931   2.033  24.361   8.654  0.0141  0.0285  0.1061
    1W        W33932  23.203  24.618   7.610 -0.0160 -0.3502  0.0841
    1W        W33933  17.272  18.142   2.097  0.1434 -0.0540  0.0110
    1W        W33934  19.873  27.674   1.765 -0.1281 -0.3092  0.1558
    1W        W33935  26.218   8.996   7.413  0.0104 -0.0587  0.1976
    1W        W33936   4.615  28.937   7.683 -0.2406 -0.1302  0.0030
    1W        W33937   5.159  24.429   7.948 -0.0493  0.0213  0.0890
    1W        W33938  24.786   0.528   2.291 -0.0957  0.1257 -0.2075
    1W        W33939   7.660  27.551   2.382  0.0576 -0.0613  0.3567
    1W        W33940  15.690  27.175   7.927  0.1259  0.1252 -0.0976
    1W        W33941   1.407   8.252   8.460  0.2391  0.1516 -0.1458
    1W        W33942   8.213  11.053   1.047 -0.2187  0.1019  0.1674
    1W        W33943   3.949  21.206   9.287 -0.0477 -0.2550 -0.1026
    1W        W33944  15.371  16.826   9.242  0.2193 -0.0260  0.3814
    1W        W33945  13.637  18.118   8.306 -0.1847  0.0832 -0.3250
    1W        W33946  13.563  11.572   1.648  0.0146 -0.1751 -0.0947
    1W        W33947  15.645   5.738   7.007 -0.2475  0.0479  0.1045
    1W        W33948   2.298  14.774   9.239  0.2536  0.2315 -0.0723
    1W        W33949  11.265  23.567   8.081  0.0256 -0.0152 -0.3242
    1W        W33950   8.813   9.865   0.438  0.3127 -0.1808 -0.0698
    1W        W33951   5.903  22.742   7.254 -0.0448 -0.2303  0.1037
    1W        W33952  25.486  25.442   7.080  0.0286 -0.0986  0.0642
    1W        W33953   8.286   6.866   7.236  0.0324 -0.3040  0.0585
    1W        W33954   1.302   3.175   1.414 -0.0233  0.0753  0.0601
    1W        W33955   7.599   7.571   8.684  0.2603 -0.0017  0.3421
    1W        W33956   1.763  10.626   2.270  0.3551 -0.0381  0.0719
    1W        W33957  21.350  11.852   1.535  0.0911  0.2026 -0.1621
    1W        W33958  24.121  13.355   2.031  0.0712  0.0592  0.0059
    1W        W33959  14.345  14.567   8.497  0.0760  0.1518  0.1043
    1W        W33960   9.588  25.962   9.229 -0.1963  0.1756  0.0224
    1W        W33961  21.207  10.395   8.116  0.1020  0.1008 -0.1776
    1W        W33962  27.774   7.808   8.460  0.2151 -0.1742 -0.0785
    1W        W33963  27.525  17.541   0.732 -0.0794  0.0809  0.1796
    1W        W33964  22.444   0.885   2.821  0.1947 -0.1317  0.2470
    1W        W33965   5.263  10.462   7.906 -0.0678  0.0822  0.0484
    1W        W33966   3.294   3.666   0.823  0.3559  0.0505 -0.1353
    1W        W33967   1.071  29.262   0.672 -0.0404 -0.2489 -0.2952
    1W        W33968   4.516  21.345   9.025  0.1465  0.1367 -0.0215
    1W        W33969  13.817  22.887   1.124  0.3745  0.1022 -0.0937
    1W        W33970   9.746  23.796   1.358  0.0024  0.6202 -0.1019
    1W        W33971  25.690   3.431   9.359 -0.0087  0.1105 -0.2408
    1W        W33972  19.630   9.385   0.229  0.1227 -0.0462 -0.1564
    1W        W33973  13.724  11.312   9.082 -0.3109  0.0938 -0.0839
    1W        W33974  21.767   8.813   1.873  0.1404  0.1660  0.0462
    1W        W33975   1.726  23.842   1.985  0.0807  0.0051  0.2111
    1W        W33976  28.505  16.521   6.745  0.2236 -0.1668 -0.1713
    1W        W33977  22.829   0.081   7.888  0.2197 -0.0197  0.1549
    1W        W33978  24.472   6.595   1.927 -0.0061 -0.2074  0.1400
    1W        W33979  11.634   7.847   1.742 -0.3358 -0.4255 -0.1086
    1W        W33980   9.142   6.129   2.956 -0.3106  0.0985  0.2213
    1W        W33981  12.260   3.783   2.221  0.1350  0.2776  0.1845
    1W        W33982   5.899  21.575   1.893  0.0708  0.0919 -0.1651
    1W        W33983  18.648  22.503   3.339  0.2553 -0.1281 -0.2480
    1W        W33984  29.543   2.292   6.573  0.1621 -0.1607 -0.2738
    1W        W33985  20.106  13.476   0.881  0.0027 -0.0008  0.1412
    1W        W33986   0.358  14.102   7.396  0.0560  0.1208 -0.2688
    1W        W33987  19.345  19.734   7.571 -0.0024  0.1762 -0.1061
    1W        W33988   4.114   4.392   6.799  0.0851  0.3485 -0.1465
    1W        W33989   2.110   0.677   2.142 -0.0585  0.1290  0.0749
    1W        W33990   8.361  19.454   6.885 -0.2275  0.1237 -0.0738
    1W        W33991   0.828   8.136   7.101  0.0394 -0.0051  0.4153
    1W        W33992   2.258  20.925   1.718 -0.0527 -0.2846 -0.0138
    1W        W33993   5.311  13.657   1.897 -0.1560  0.2133 -0.4456
    1W        W33994  29.358  12.218   9.246 -0.0058  0.1663 -0.1439
    1W        W33995   8.508  13.447   7.533 -0.1358 -0.1479 -0.0449
    1W        W33996  26.562  18.571   8.396 -0.2920  0.0474 -0.2334
    1W        W33997  25.057   1.100   8.063  0.2363 -0.1052 -0.1642
    1W        W33998  11.169   2.034   0.003  0.1414 -0.1391  0.0061
    1W        W33999   2.930  15.625   0.366  0.3367 -0.1152 -0.1499
    1W        W34000  18.716  26.681   0.790  0.0885  0.0704  0.0687
    1W        W34001  26.704  26.124   3.447  0.2251  0.0178  0.0763
    1W        W34002   8.552   4.981   6.946 -0.1095  0.0339 -0.2172
    1W        W34003  12.077  10.337   1.023  0.0272  0.3393  0.0558
    1W        W34004  16.894  12.241   0.581 -0.2366 -0.0024 -0.0555
    1W        W34005  25.420  16.835   8.327 -0.0130 -0.0865  0.1146
    1W        W34006   9.327  11.031   7.504 -0.0009  0.2096 -0.0574
    1W        W34007  13.799   8.190   9.118 -0.1291 -0.3584  0.0370
    1W        W34008   4.604   9.641   9.140  0.1469  0.1830 -0.0355
    1W        W34009   2.879   3.570   1.060  0.1121  0.4619 -0.0339
    1W        W34010   2.128  16.767   9.071 -0.0940 -0.0435 -0.1412
    1W        W34011  21.083  25.309   0.399  0.1336 -0.0788  0.4280
    1W        W34012  19.320  11.832   0.885 -0.1200  0.2073  0.0576
    1W        W34013  21.865  28.394   8.731  0.1916  0.3871 -0.1217
    1W        W34014  12.697   0.746   8.146  0.0460 -0.1299  0.2474
    1W        W34015  24.213  21.537   2.091  0.1852 -0.0101  0.1999
    1W        W34016  27.869   1.329   9.077 -0.0741  0.0913 -0.0078
    1W        W34017   2.266  18.763   0.315  0.1968  0.1098 -0.1456
    1W        W34018   1.916   4.619   1.598 -0.2724  0.3081  0.1239
    1W        W34019  23.675  13.175   2.006 -0.0617  0.0266  0.0540
    1W        W34020   4.324  13.843   7.168  0.1275  0.0838  0.2447
    1W        W34021  18.776  14.579   6.825 -0.0508 -0.2837  0.1632
    1W        W34022   2.437   2.603   7.696 -0.2362  0.2268 -0.1094
    1W        W34023  12.252  17.471   7.498  0.1945  0.0927 -0.1551
    1W        W34024   1.414   2.835   7.976 -0.0897 -0.0452  0.0126
    1W        W34025  10.820   7.472   0.817 -0.2527 -0.0043 -0.1347
    1W        W34026  15.699  11.058   0.238  0.0413  0.0800  0.0500
    1W        W34027   8.037  15.050   9.140 -0.2784  0.0573 -0.0344
    1W        W34028   0.111   2.176   2.028  0.1694  0.0621  0.0724
    1W        W34029  16.678  12.986   1.568  0.1936 -0.0683 -0.3662
    1W        W34030   1.134  12.716   1.294 -0.2052 -0.1294  0.4873
    1W        W34031  17.137  25.763   8.974  0.0631 -0.1455  0.0121
    1W        W34032  24.602  14.724   7.859  0.3148  0.2640 -0.1027
    1W        W34033  28.410   8.824   1.405  0.1154 -0.1189 -0.2630
    1W        W34034  29.260   8.798   6.509 -0.1670 -0.1733  0.2376
    1W        W34035   5.868  16.694   8.622 -0.2573  0.4859 -0.0921
    1W        W34036  19.484   8.934   0.125 -0.0907 -0.0412 -0.0894
    1W        W34037   7.578   4.482   2.403 -0.0656 -0.0857  0.0495
    1W        W34038  13.546   1.181   3.551  0.0739 -0.1076 -0.1364
    1W        W34039  18.333   0.589   7.025  0.1646 -0.2003 -0.0101
    1W        W34040  14.403  25.689   8.914  0.0436  0.4466  0.0198
    1W        W34041  22.628  17.887   1.127 -0.0802 -0.0221 -0.0508
    1W        W34042  29.499  20.890   7.411 -0.4056 -0.0234 -0.1109
    1W        W34043  25.081  21.977   7.265 -0.1438 -0.0235  0.2290
    1W        W34044  11.443   3.726   8.154 -0.1917  0.0149  0.0793
    1W        W34045  14.770  18.266   9.173  0.1094 -0.2288  0.2534
    1W        W34046  27.580   3.364   0.717  0.1806  0.0380  0.3243
    1W        W34047   4.869  16.726   7.172  0.2461  0.0506 -0.0531
    1W        W34048  19.519  20.476   6.648  0.0387  0.2661  0.0281
    1W        W34049   6.253  24.848   0.463  0.0786 -0.0370 -0.1974
    1W        W34050  19.417  26.552   8.840  0.0872 -0.4626 -0.0266
    1W        W34051  28.662  28.981   6.990 -0.0483  0.2288 -0.2219
    1W        W34052   4.893   1.584   7.963  0.2135  0.3337 -0.1085
    1W        W34053   7.830   4.229   1.230  0.1622 -0.1848 -0.1600
    1W        W34054  23.466   6.125   1.896 -0.1357 -0.0828  0.0650
    1W        W34055  27.879  13.041   0.682  0.2306  0.0932 -0.0815
    1W        W34056   6.565   6.366   8.624 -0.2084 -0.0412  0.0977
    1W        W34057  17.953   0.936   9.096 -0.3144 -0.1898 -0.0495
    1W        W34058  23.550  22.529   0.471  0.1500 -0.2244  0.2417
    1W        W34059  22.704  28.380   0.962  0.1257  0.0037  0.1078
    1W        W34060  20.103  11.447   6.152  0.0944 -0.1649  0.0589
    1W        W34061   4.831  21.811   1.355 -0.2523 -0.1341  0.0246
    1W        W34062   8.165   4.394   8.459  0.0141 -0.1881 -0.2302
    1W        W34063  12.444   9.456   8.646  0.2186 -0.1412 -0.3308
    1W        W34064  28.280  22.106   7.133  0.1851  0.0245  0.0477
    1W        W34065  19.675  10.887   7.931  0.0057 -0.1757  0.4671
    1W        W34066  18.373  28.383   7.356 -0.1175 -0.2468  0.1288
    1W        W34067  10.454  14.954   1.332  0.2334  0.0627  0.0118
    1W        W34068   7.754   4.564   8.269 -0.2630 -0.2339  0.2617
    1W        W34069  23.721  23.433   2.623 -0.2063 -0.1211  0.3324
    1W        W34070   1.125   1.541   0.947 -0.0117 -0.2071 -0.0549
    1W        W34071   1.368  14.494   7.832 -0.1270  0.0480 -0.0419
    1W        W34072   5.258  16.035   2.261  0.1463 -0.1184 -0.0880
    1W        W34073   3.541  16.616   7.120 -0.1404 -0.0479  0.0828
    1W        W34074  26.154  16.914   1.222  0.3449 -0.1598  0.1384
    1W        W34075  18.326   8.130   0.967  0.2495 -0.0657 -0.0432
    1W        W34076  28.382   9.802   0.864  0.2398  0.0384 -0.0415
    1W        W34077   1.370   9.723   0.090  0.0229  0.0633  0.1263
    1W        W34078  29.383  14.733   9.251  0.2375 -0.2516 -0.2437
    1W        W34079  20.303   1.403   8.411  0.2499  0.1736  0.2169
    1W        W34080  28.681   5.773   8.315  0.2785  0.0138 -0.1627
    1W        W34081  16.735  14.660   6.794  0.1152  0.0845 -0.1739
    1W        W34082  12.419   6.582   0.914 -0.4327  0.0287 -0.3499
    1W        W34083   0.949  29.611   1.048 -0.3105 -0.0673 -0.1272
    1W        W34084  23.990  10.176   0.079 -0.3191 -0.1322  0.4080
    1W        W34085  10.576  15.486   1.343  0.0702 -0.5515  0.1564
    1W        W34086  13.859  14.325   8.412 -0.0612  0.0778  0.0834
    1W        W34087  29.327   9.185   6.181  0.1446  0.0184  0.1767
    1W        W34088  22.473   2.418   2.989  0.3648 -0.0720  0.2245
    1W        W34089   0.064  15.013   6.410 -0.0288 -0.3745 -0.4459
    1W        W34090   7.926  14.656   6.907  0.0124  0.2898  0.2270
    1W        W34091  21.338   5.482   9.324 -0.2004  0.0139 -0.2409
    1W        W34092  23.191  20.493   8.082  0.1370 -0.0034  0.1448
    1W        W34093   7.628  22.476   8.754 -0.2079 -0.0503 -0.2339
    1W        W34094   9.835  11.755   1.647  0.2839 -0.2220 -0.0525
    1W        W34095  11.933  27.499   3.016  0.0712 -0.3912  0.2694
    1W        W34096  24.578  22.620   7.797  0.1515  0.0871 -0.3659
    1W        W34097  21.774  23.833   2.368 -0.0420 -0.0917  0.3249
    1W        W34098   0.699   3.843   8.548 -0.0129  0.1220  0.3799
    1W        W34099  29.522   6.784   1.689 -0.2295 -0.0326 -0.3260
    1W        W34100  25.290   0.396   7.499  0.0370 -0.1846  0.1558
    1W        W34101   0.012   2.435   1.230  0.0572 -0.0322 -0.0470
    1W        W34102  27.679  28.341   2.509  0.0085  0.0305  0.4443
    1W        W34103  16.436  18.728   6.493 -0.1150 -0.1193 -0.0617
    1W        W34104   5.882   1.133   7.132 -0.1186  0.2497 -0.1976
    1W        W34105   2.333  25.800   6.162  0.0998  0.0338  0.4111
    1W        W34106  13.040  14.667   1.645  0.1100  0.1429 -0.2318
    1W        W34107  24.044  24.926   2.075 -0.2940  0.1736 -0.5343
    1W        W34108  12.570   5.489   1.481  0.0320  0.2394  0.1414
    1W        W34109   2.707  28.020   8.108  0.1337 -0.0460 -0.2936
    1W        W34110   5.770  14.831   1.115 -0.0214  0.0856  0.0227
    1W        W34111  15.748  19.441   8.933 -0.2013 -0.3438 -0.2718
    1W        W34112  11.244   5.426   8.427  0.1792  0.3086 -0.2397
    1W        W34113  27.390   5.591   7.616  0.0514 -0.0027  0.2039
    1W        W34114   1.569   1.785   1.024 -0.2192 -0.1572 -0.0852
    1W        W34115  10.427   3.265   0.278  0.2329  0.1008 -0.2948
    1W        W34116   6.028  15.057   6.158 -0.1870  0.0181 -0.1369
    1W        W34117  26.769   4.820   0.311 -0.1982 -0.0725 -0.1787
    1W        W34118   6.065  12.194   2.546 -0.0189  0.0331 -0.0296
    1W        W34119  27.261  14.256   6.413  0.0691 -0.0370 -0.0933
    1W        W34120   1.365  28.499   9.233 -0.0765 -0.0215 -0.1074
    1W        W34121  29.494   9.206   2.906  0.1123 -0.2973 -0.2614
    1W        W34122  25.834  26.095   2.764 -0.0977  0.1845 -0.0332
    1W        W34123  25.276  11.159   9.196  0.0678 -0.0331 -0.0537
    1W        W34124  19.054  18.517   0.544 -0.0141 -0.2381  0.2013
    1W        W34125  27.723  20.476   8.136 -0.1737 -0.3293  0.0382
    1W        W34126  28.430  16.758   9.431  0.1119 -0.1160  0.1574
    1W        W34127  16.085  12.121   8.141  0.0993  0.1326  0.1944
    1W        W34128  26.792   8.122   8.053  0.2036  0.1191  0.1992
    1W        W34129  24.022   2.302   7.647 -0.1056  0.2300 -0.1371
    1W        W34130  22.003  22.009   2.909 -0.0998 -0.0718  0.1247
    1W        W34131   7.126   2.715   1.201 -0.4177  0.2176  0.3275
    1W        W34132   7.625  26.815   7.143  0.1141  0.2133  0.1615
    1W        W34133   6.761  24.011   1.138 -0.0221  0.3683  0.0115
    1W        W34134  10.914   0.543   1.945 -0.0916 -0.0722 -0.1534
    1W        W34135  28.366  17.113   7.537  0.2977 -0.1005 -0.2179
    1W        W34136  22.662  24.610   6.764 -0.4808  0.0867  0.2442
    1W        W34137  25.331  10.575   8.046  0.1430  0.2218  0.1292
    1W        W34138   3.308  16.320   6.730  0.0755 -0.0914 -0.0608
    1W        W34139  20.485  16.284   1.013 -0.2859  0.2502  0.1444
    1W        W34140   1.943  22.269   0.015  0.2144  0.3198 -0.1854
    1W        W34141   8.490  16.720   1.124 -0.2578  0.2361 -0.0021
    1W        W34142   0.264   5.036   1.918 -0.0967 -0.2041 -0.2908
    1W        W34143   8.806   2.787   7.385  0.0100  0.2204  0.1011
    1W        W34144  25.181  13.971   0.086  0.0186 -0.0076 -0.0185
    1W        W34145   9.220   5.192   2.786 -0.1992  0.1672  0.1158
    1W        W34146  20.689   0.961   8.571 -0.0288  0.0430  0.1705
    1W        W34147  26.611   6.098   1.258  0.1707  0.2263 -0.0737
    1W        W34148  17.697   0.145   6.984 -0.1756  0.0232 -0.1625
    1W        W34149   8.641  28.696   6.977 -0.0215 -0.1836 -0.2691
    1W        W34150   9.533  21.311   2.264 -0.1375 -0.0400 -0.0878
    1W        W34151   1.439  19.385   6.930  0.0618 -0.1998 -0.3137
    1W        W34152  18.811   3.391   6.187  0.0023 -0.1924 -0.4199
    1W        W34153   8.226  19.207   0.445 -0.1685  0.2548  0.2869
    1W        W34154  26.792  14.466   0.968  0.1250  0.2934 -0.0076
    1W        W34155  29.334   1.154   1.663  0.0586  0.0362 -0.0127
    1W        W34156  17.613  29.551   2.070 -0.1951 -0.0704 -0.1023
    1W        W34157   9.556  15.788   7.821  0.1635  0.0046  0.0702
    1W        W34158  18.521   8.275   2.480  0.1279  0.4434  0.1004
    1W        W34159  21.988   3.985   6.158 -0.1463  0.1707 -0.3325
    1W        W34160  16.064  22.330   7.111 -0.0628  0.1108 -0.0570
    1W        W34161   1.124  27.705   7.429 -0.1991 -0.3220  0.1651
    1W        W34162  13.154  21.806   9.213 -0.0416  0.1456 -0.2251
    1W        W34163  19.162  22.403   7.250 -0.0780  0.2058 -0.0268
    1W        W34164  11.518  11.545   1.652 -0.1273  0.1159 -0.0641
    1W        W34165  24.534  18.154   7.860 -0.0647 -0.2664  0.3380
    1W        W34166  12.000  12.286   7.810  0.1792 -0.3797  0.0311
    1W        W34167  21.831   6.201   0.365 -0.2761  0.2795  0.3219
    1W        W34168  17.808   6.138   6.974  0.1896 -0.1855 -0.3903
    1W        W34169  16.857  10.099   9.092  0.0889  0.1485  0.2775
    1W        W34170   0.428  28.444   2.295 -0.0038 -0.2309 -0.4920
    1W        W34171  20.951  16.943   7.665  0.3925  0.0312  0.0533
    1W        W34172  27.843  28.604   9.025  0.0071 -0.0908 -0.3738
    1W        W34173   5.845  27.645   8.419 -0.0201  0.2501  0.1604
    1W        W34174  25.651   7.234   0.455  0.2433 -0.0826 -0.1132
    1W        W34175   7.496  12.026   0.604 -0.2390  0.0716 -0.1200
    1W        W34176  26.956  17.578   7.988  0.0326 -0.0413 -0.1878
    1W        W34177  14.194  27.624   1.294  0.0317  0.0747 -0.0322
    1W        W34178  22.312  14.965   7.293 -0.0982  0.4693 -0.0382
    1W        W34179   8.459  13.171   0.865  0.1122 -0.0774  0.0045
    1W        W34180  21.731  27.326   2.424  0.0637  0.5078  0.0152
    1W        W34181  24.689  23.977   8.055  0.0058 -0.0886  0.3509
    1W        W34182  19.936   1.841   9.398  0.0626  0.0459 -0.1779
    1W        W34183  19.784  24.338   9.373  0.5052 -0.2802  0.1275
    1W        W34184  22.495  17.737   6.909  0.0695  0.2040 -0.2941
    1W        W34185  18.227  18.544   8.367 -0.2149  0.1738 -0.1940
    1W        W34186  19.780  21.372   0.660  0.1011  0.0755  0.0404
    1W        W34187  19.595   6.373   2.410  0.1870  0.1373  0.0439
    1W        W34188   8.293  20.711   7.548 -0.0447  0.1670 -0.2201
    1W        W34189   1.576   4.563   2.049  0.0057  0.1457  0.2867
    1W        W34190  28.017   2.985   3.073  0.0348  0.0691  0.2024
    1W        W34191   8.287   6.091   3.154 -0.1315 -0.0125  0.0510
    1W        W34192  29.627   9.050   9.060 -0.0823  0.2178 -0.0536
    1W        W34193  19.035  19.175   8.186  0.2512  0.1023  0.0063
    1W        W34194  22.876   7.329   8.970  0.2172  0.0267 -0.1449
    1W        W34195   4.377  22.964   6.301  0.3864 -0.0667  0.0714
    1W        W34196  29.908  14.821   7.440  0.2022 -0.0148  0.0667
    1W        W34197   4.238   2.902   2.179 -0.3983  0.1496 -0.0150
    1W        W34198  16.884  21.497   1.084  0.1365 -0.0123  0.1225
    1W        W34199   8.518  22.257   1.103  0.0894  0.0308 -0.1017
    1W        W34200  21.848   6.857   2.391  0.1327  0.1664  0.0956
    1W        W34201  21.155  21.279   8.092 -0.1345  0.3165 -0.1379
    1W        W34202  28.845  16.986   6.685 -0.1051  0.1606  0.2128
    1W        W34203  14.113  29.132   7.292  0.1250 -0.0110  0.0939
    1W        W34204   1.158  12.939   7.639  0.3310  0.0179  0.3626
    1W        W34205  10.350   1.581   7.175 -0.2914  0.3500  0.0056
    1W        W34206   3.720  17.958   6.706 -0.0965 -0.1807  0.1053
    1W        W34207  24.665   0.853   0.973  0.4492  0.4132 -0.0402
    1W        W34208  22.313  14.557   8.928  0.0093 -0.0732 -0.1583
    1W        W34209   5.341  13.006   1.215 -0.4119 -0.2502  0.1227
    1W        W34210   3.940  12.249   2.883 -0.3121  0.3724 -0.1665
    1W        W34211   2.264   0.810   7.678  0.1827  0.2786 -0.1983
    1W        W34212  10.064  13.882   6.723  0.3415 -0.4863 -0.1412
    1W        W34213   3.014  11.354   3.141 -0.2327 -0.0980  0.1420
    1W        W34214  28.230   6.732   8.937  0.1461  0.2991  0.0177
    1W        W34215   4.441   0.340   1.656  0.2145  0.2076 -0.0100
    1W        W34216  20.477   6.889   0.163 -0.0523  0.1542  0.0369
    1W        W34217  29.110   9.301   0.406  0.2047 -0.0029  0.0528
    1W        W34218  13.149  13.379   2.690 -0.0650  0.0247 -0.2266
    1W        W34219  25.741  28.409   2.656  0.3203 -0.0280 -0.1186
    1W        W34220  12.759   3.198   0.279 -0.4383  0.1239  0.1436
    1W        W34221  23.223  24.339   1.116  0.0329 -0.0865  0.2783
    1W        W34222  23.902   4.769   2.548  0.1509  0.2593  0.0031
    1W        W34223   7.917  28.005   2.564 -0.0430  0.0736 -0.1819
    1W        W34224  21.399   1.785   6.847  0.0278  0.0439  0.3473
    1W        W34225  25.887  12.620   0.392 -0.2894 -0.0641  0.1203
    1W        W34226   8.075  15.114   8.645  0.1416 -0.2980  0.1209
    1W        W34227  23.609  22.690   0.922 -0.3475  0.0229  0.0302
    1W        W34228   6.809  16.488   1.930 -0.1398  0.1153  0.0435
    1W        W34229  23.737   7.618   9.205  0.2597  0.0417 -0.2764
    1W        W34230  21.377  26.841   0.414 -0.4225  0.3669 -0.0835
    1W        W34231  13.796  11.318   7.125  0.4114  0.1608  0.0052
    1W        W34232  28.581  23.828   0.550  0.2429 -0.1973  0.0392
    1W        W34233   8.231   2.815   2.779  0.1545  0.1833  0.3622
    1W        W34234   9.221  25.249   0.280 -0.1064 -0.1076  0.0142
    1W        W34235  13.702  15.313   2.594  0.0401 -0.1164 -0.1303
    1W        W34236  15.034  16.143   7.154  0.1321  0.3965  0.0319
    1W        W34237  24.698   3.213   6.553 -0.0527 -0.1105  0.0516
    1W        W34238   6.796   7.271   2.701  0.0726  0.0006  0.1938
    1W        W34239  11.107  10.561   1.484 -0.0291 -0.1122 -0.2439
    1W        W34240   9.468  17.195   1.424 -0.0827  0.1767 -0.1444
    1W        W34241  14.445   1.611   7.319  0.2990  0.0965 -0.2762
    1W        W34242  16.862  28.242   3.106 -0.3496  0.0476  0.1083
    1W        W34243  28.670  14.825   1.352  0.1237 -0.1207  0.4249
    1W        W34244  21.205   9.532   0.563 -0.2357  0.1359 -0.1691
    1W        W34245   6.651  14.032   7.853  0.2399 -0.0797  0.0989
    1W        W34246  26.004  25.227   0.499 -0.0563  0.2398 -0.0845
    1W        W34247  10.936  12.548   8.709 -0.2717 -0.1610  0.0256
    1W        W34248  15.698  11.993   8.467 -0.0265  0.1208 -0.0712
    1W        W34249  22.614   6.873   0.198  0.1089 -0.0073  0.1699
    1W        W34250  20.692  21.277   7.380  0.0005 -0.1764  0.1375
    1W        W34251  23.339  28.104   8.447 -0.0050  0.0974 -0.1863
    1W        W34252   8.938   7.933   3.029  0.3712  0.1618 -0.0263
    1W        W34253  21.690  15.448   8.260 -0.1535  0.2272 -0.0331
    1W        W34254  10.899   4.905   3.250 -0.1220  0.1032  0.1431
    1W        W34255  27.069  22.169   6.327 -0.1135  0.0571 -0.5216
    1W        W34256   8.245  14.876   1.038 -0.1213  0.0641 -0.0414
    1W        W34257   7.247  20.154   1.148 -0.0917 -0.1548 -0.1709
    1W        W34258  19.646   3.129   7.500  0.3233  0.2624 -0.0617
    1W        W34259   2.636  28.098   8.731  0.1671 -0.0787  0.3113
    1W        W34260   2.974  19.766   1.865 -0.2884  0.1105  0.3322
    1W        W34261   4.857   9.207   7.467  0.2238  0.0707 -0.2363
    1W        W34262  11.987   1.568   7.777 -0.0695  0.3807 -0.0780
    1W        W34263   7.260   2.153   1.036  0.2815 -0.1138  0.0953
    1W        W34264   0.886  14.243   7.248  0.2994  0.1569  0.0955
    1W        W34265   9.072  13.055   8.453 -0.0866 -0.0533 -0.1620
    1W        W34266  27.967  26.799   9.416 -0.3892 -0.4435  0.0323
    1W        W34267   1.798  24.000   6.585 -0.1446  0.0222  0.0825
    1W        W34268  16.146   0.775   2.419 -0.1662  0.2232  0.1001
    1W        W34269  29.491  15.287   0.986  0.3019 -0.1109 -0.0013
    1W        W34270   7.791  20.906   7.469 -0.2889 -0.3230 -0.0003
    1W        W34271  10.073  25.306   6.478  0.0166  0.4736  0.0274
    1W        W34272  20.933  10.553   8.911 -0.0628 -0.0466 -0.0435
    1W        W34273  19.672  15.908   0.275 -0.0884 -0.1475 -0.0794
    1W        W34274   6.534   9.765   7.309 -0.1064  0.3714  0.0285
    1W        W34275   0.983  21.819   0.883 -0.0185  0.2459  0.0740
    1W        W34276  23.966  16.073   8.650  0.0755  0.4331 -0.2885
    1W        W34277   8.698  24.003   1.963  0.0562  0.1209  0.0126
    1W        W34278  17.492  20.492   1.718 -0.0109  0.0894  0.2657
    1W        W34279  26.912   1.283   6.341  0.0758 -0.1182 -0.0554
    1W        W34280  13.831   6.744   2.443  0.1510 -0.2537 -0.1637
    1W        W34281  23.299  26.170   8.140  0.0798  0.0860  0.1210
    1W        W34282   2.619  14.862   8.872 -0.4866  0.2335 -0.2706
    1W        W34283  11.916  10.062   1.869 -0.1813 -0.2691 -0.3630
    1W        W34284  21.221  19.917   8.521 -0.3763 -0.2257  0.0095
    1W        W34285  21.608   7.984   2.528  0.1468  0.0429 -0.1149
    1W        W34286  24.377  14.383   8.162  0.1621  0.1377  0.2816
    1W        W34287  13.770  16.355   6.733  0.1215  0.3829  0.1689
    1W        W34288  29.763   4.514   9.007 -0.1433  0.0705 -0.2609
    1W        W34289  23.298  25.847   2.082 -0.0807  0.2939 -0.3683
    1W        W34290  16.759  22.552   7.540  0.1874  0.1218  0.0184
    1W        W34291   7.916  20.964   0.829  0.0301 -0.1891 -0.0235
    1W        W34292   4.761  13.599   8.637  0.2543  0.1256 -0.1457
    1W        W34293   9.654  26.140   7.426 -0.1619 -0.0287 -0.0576
    1W        W34294  28.282  11.042   2.261  0.3824 -0.0934 -0.1839
    1W        W34295  29.398   3.810   2.324 -0.0932 -0.2688  0.0824
    1W        W34296  28.771  23.262   1.680  0.0606  0.1099  0.0210
    1W        W34297  14.219   1.040   0.699 -0.2843  0.1293 -0.0373
    1W        W34298  26.533  18.110   1.285  0.1041 -0.1455  0.0850
    1W        W34299   3.852  27.898   8.535 -0.0181 -0.2486  0.1373
    1W        W34300   9.679  29.281   0.733  0.2177  0.3050 -0.0873
    1W        W34301  17.433   0.489   7.504 -0.1013  0.0647 -0.3463
    1W        W34302   3.816  12.509   1.026  0.1216  0.3020  0.1405
    1W        W34303   6.681  10.814   6.648  0.1935  0.1731  0.0569
    1W        W34304   6.129  27.163   7.541 -0.0998 -0.0868  0.0261
    1W        W34305   0.864  22.463   6.937  0.5115 -0.1288 -0.1236
    1W        W34306  20.529  21.427   9.041 -0.4522  0.2981 -0.0753
    1W        W34307  15.485   9.176   8.903  0.0036  0.1446  0.1191
    1W        W34308  14.065  23.425   7.202  0.0469  0.0165  0.1756
    1W        W34309   8.759   2.341   8.958  0.1631  0.3487 -0.1858
    1W        W34310  24.978  18.405   1.442  0.1874 -0.3157 -0.4243
    1W        W34311  10.934  10.925   2.042  0.1319 -0.3189  0.0601
    1W        W34312   7.953   7.199   2.110 -0.3235  0.0815 -0.1775
    1W        W34313  16.872   0.863   0.627 -0.2468 -0.1322 -0.0630
    1W        W34314   9.795  20.070   6.676  0.1155 -0.2607 -0.1071
    1W        W34315  25.171   6.404   0.539 -0.4579  0.2221 -0.0017
    1W        W34316  22.916   4.792   0.234  0.0511 -0.3107 -0.2042
    1W        W34317  20.630  17.577   9.084 -0.0041 -0.2705 -0.0351
    1W        W34318  28.085  24.243   6.703 -0.1886 -0.1659 -0.3119
    1W        W34319  20.631  16.248   9.416  0.1903 -0.1147  0.0028
    1W        W34320  26.501  22.893   9.352  0.0400 -0.0888 -0.1239
    1W        W34321  11.122   3.917   0.341 -0.5226  0.0526  0.2260
    1W        W34322  29.654  23.677   0.864  0.2950  0.2481 -0.1644
    1W        W34323  24.098  26.066   3.246 -0.0294 -0.0306 -0.2954
    1W        W34324  14.226  20.398   1.347  0.2097  0.2940 -0.3690
    1W        W34325  24.642  11.987   6.586  0.0003  0.2540 -0.4191
    1W        W34326  22.058  28.558   2.234  0.4350 -0.1103 -0.0541
    1W        W34327  22.885   6.459   7.630  0.0597 -0.0241  0.2073
    1W        W34328  15.544  10.560   2.349 -0.2910  0.2139 -0.1235
    1W        W34329  11.081  22.637   0.191 -0.7434  0.0683 -0.2036
    1W        W34330  28.517   1.895   7.520 -0.2272  0.2058 -0.0868
    1W        W34331  11.248  17.298   2.448 -0.0336 -0.2998  0.3817
    1W        W34332   9.204   5.772   0.460 -0.2050  0.0489  0.0449
    1W        W34333  10.369   7.442   1.170 -0.1200 -0.0171  0.2418
    1W        W34334  14.531  10.315   8.822 -0.1750  0.3273 -0.1339
    1W        W34335  11.891  25.481   6.729  0.0870 -0.2009 -0.0889
    1W        W34336  24.658  19.916   8.639 -0.3195 -0.0739  0.1932
    1W        W34337  12.647  26.560   8.153  0.1870  0.2014 -0.0483
    1W        W34338   3.248  28.077   6.009 -0.1662  0.2490  0.1222
    1W        W34339  24.278  12.441   0.962 -0.0628  0.1437 -0.2134
    1W        W34340  17.048   6.185   0.851 -0.0494  0.1259  0.2209
    1W        W34341   9.392  16.274   7.806 -0.1336 -0.1257  0.2993
    1W        W34342  15.155   6.464   8.460 -0.1863 -0.1238 -0.4253
    1W        W34343  21.789   7.331   2.095  0.3614  0.0481 -0.3143
    1W        W34344  20.483  24.670   7.138 -0.0396 -0.2091 -0.3663
    1W        W34345  11.145  22.914   1.742 -0.1304  0.0593  0.0720
    1W        W34346  14.867  10.025   1.215  0.1286  0.0122  0.1138
    1W        W34347  12.788   1.971   7.704 -0.1678  0.1806 -0.0343
    1W        W34348   0.336   2.962   1.581  0.0422 -0.1460 -0.0681
    1W        W34349  25.897  26.991   7.017 -0.1692  0.3145 -0.0587
    1W        W34350  29.326  29.690   9.081 -0.1605  0.1738  0.2143
    1W        W34351  27.834  12.684   8.716 -0.0916  0.0769  0.1669
    1W        W34352  23.193  16.045   1.681 -0.3100 -0.3203  0.0378
    1W        W34353  15.133  16.850   0.381  0.0542 -0.0252 -0.0872
    1W        W34354  24.596  10.292   3.292  0.0348 -0.0455  0.1405
    1W        W34355  23.374  18.998   8.708  0.0573 -0.0815 -0.3401
    1W        W34356  16.644  21.068   9.354 -0.0266  0.1077 -0.3548
    1W        W34357   5.780  20.448   1.371  0.2191  0.1820  0.1497
    1W        W34358   7.182  22.452   7.695  0.0245 -0.0503 -0.0435
    1W        W34359   6.846  14.630   8.843  0.0944  0.0322  0.0360
    1W        W34360  19.660  26.039   8.454 -0.1452  0.1694 -0.0864
    1W        W34361   2.683  21.955   7.293  0.1540  0.0004 -0.1969
    1W        W34362   8.567   5.583   1.031 -0.0568 -0.2409  0.2348
    1W        W34363   9.203  21.386   1.893 -0.2257  0.0520 -0.2433
    1W        W34364  26.978  24.729   1.153  0.1120  0.1629 -0.2594
    1W        W34365   3.864  19.156   2.191 -0.0577 -0.3098 -0.0039
    1W        W34366  12.717  20.743   0.295  0.0349  0.2211  0.0024
    1W        W34367  24.458  28.751   8.490  0.1698 -0.0478 -0.1130
    1W        W34368  21.679   7.004   2.896 -0.1569  0.1325 -0.3472
    1W        W34369   8.941  21.977   5.895 -0.0926 -0.0842 -0.0550
    1W        W34370  25.722   3.358   8.843  0.0694  0.1352  0.1251
    1W        W34371   8.265  29.548   3.317 -0.0585 -0.0686 -0.0223
    1W        W34372  25.397  15.940   2.005  0.0691 -0.0421 -0.1408
    1W        W34373  19.276   6.830   1.160 -0.0988  0.3240 -0.2156
    1W        W34374  26.515   9.064   9.075  0.0163 -0.2819  0.2755
    1W        W34375  18.798  11.252   6.927 -0.2783  0.0160 -0.3906
    1W        W34376  15.285  15.611   7.171 -0.0215 -0.3402  0.1444
    1W        W34377  13.520   7.925   7.144 -0.0233  0.2737  0.0221
    1W        W34378  18.959  10.816   1.805  0.0151  0.1577 -0.1524
    1W        W34379  16.675  18.892   6.943 -0.1647  0.2619 -0.1901
    1W        W34380  12.274  13.038   1.955 -0.1530 -0.0975 -0.0296
    1W        W34381  18.491  25.645   8.469  0.0578  0.1001 -0.1508
    1W        W34382  25.749   1.738   0.117 -0.1359  0.1362 -0.2390
    1W        W34383   3.694   5.522   7.981 -0.4227  0.1883  0.0046
    1W        W34384   6.805  21.850   6.718 -0.0192  0.1797  0.0437
    1W        W34385  26.044  17.415   9.417 -0.0111  0.4105  0.0750
    1W        W34386  26.069  25.778   2.274 -0.0858 -0.2118  0.1904
    1W        W34387  27.053  20.951   1.471 -0.0296 -0.1318  0.0099
    1W        W34388   7.969  21.337   2.227 -0.0433 -0.2658 -0.0787
    1W        W34389  13.087  23.369   7.070  0.3026 -0.2269 -0.1223
    1W        W34390  10.871  23.459   0.881  0.0389 -0.1380 -0.0578
    1W        W34391   0.266  28.359   1.162  0.1082 -0.3499  0.2955
    1W        W34392  21.674   9.485   2.005 -0.0714 -0.0421  0.0070
    1W        W34393   7.721  15.704   0.497 -0.3999  0.3156  0.0501
    1W        W34394  28.266  16.999   8.440  0.4059 -0.1927 -0.0422
    1W        W34395  25.158  16.236   0.685  0.0385  0.0465 -0.0694
    1W        W34396  15.186  15.821   7.764  0.0525 -0.1262 -0.1324
    1W        W34397  14.846  10.690   8.146 -0.0308 -0.1819  0.1826
    1W        W34398  23.374   1.524   7.459  0.1008 -0.1094  0.3165
    1W        W34399  11.785  17.156   8.982 -0.0283 -0.1703 -0.0445
    1W        W34400  24.504  11.034   2.526 -0.2690  0.1402  0.0743
    1W        W34401   1.982  26.862   0.446 -0.1306  0.0466  0.2042
    1W        W34402   2.938  23.698   1.520 -0.0865 -0.0685 -0.0323
    1W        W34403  27.603   0.688   2.858 -0.0179  0.1724 -0.0883
    1W        W34404  13.151  14.230   2.090  0.0763  0.0806 -0.0957
    1W        W34405  22.665   7.987   1.637  0.1321  0.0724 -0.1177
    1W        W34406  13.131   4.223   2.991 -0.0177  0.1378  0.0671
    1W        W34407  16.877  14.198   7.685 -0.1083  0.2122 -0.0595
    1W        W34408   5.433  26.955   9.304  0.1684  0.0985  0.1335
    1W        W34409  28.901  23.456   0.435  0.1124 -0.1820  0.4049
    1W        W34410  13.489  11.792   0.641  0.1712  0.0415  0.3183
    1W        W34411  23.130   1.224   2.459 -0.0192 -0.0561 -0.0104
    1W        W34412   2.375   1.511   0.252  0.0930  0.3625 -0.2430
    1W        W34413  22.554  28.485   2.435  0.2404  0.0196  0.0804
    1W        W34414   0.055  22.979   9.147 -0.2452  0.1065  0.4508
    1W        W34415  17.041  11.138   7.859  0.0508 -0.2249 -0.0516
    1W        W34416  26.633   1.862   1.762 -0.1843  0.1594  0.0837
    1W        W34417  17.719  25.401   7.990  0.2193 -0.2514  0.0448
    1W        W34418   4.517  27.774   9.370 -0.0692  0.0487  0.1541
    1W        W34419  27.237  18.877   9.022  0.1306  0.1517 -0.1563
    1W        W34420   3.420  12.132   1.628 -0.2127 -0.1465  0.0754
    1W        W34421  28.341   5.919   0.584  0.0754 -0.0777  0.1612
    1W        W34422   8.640  20.095   0.635  0.3198  0.1262 -0.2662
    1W        W34423  10.853  12.455   2.785 -0.1468  0.2552  0.0625
    1W        W34424  11.561   9.597   8.474 -0.1354  0.2238 -0.3691
    1W        W34425   0.077  18.387   0.234 -0.0422  0.0161  0.0302
    1W        W34426  27.970  15.624   2.729 -0.0219  0.4348 -0.0297
    1W        W34427  11.508  10.882   0.604 -0.0860 -0.0132 -0.2125
    1W        W34428   4.541  18.606   6.894  0.1222  0.1715 -0.0682
    1W        W34429  27.617  12.802   1.530 -0.0698  0.2340 -0.0620
    1W        W34430   9.108   7.111   8.458  0.2561 -0.2103 -0.4472
    1W        W34431  16.840   5.336   8.414  0.2080  0.0426  0.2952
    1W        W34432   1.144   3.446   2.536  0.1489  0.0790 -0.2139
    1W        W34433   6.142  19.294   2.435 -0.0516  0.0455  0.1604
    1W        W34434  16.359   0.878   1.416 -0.0296  0.4916 -0.0124
    1W        W34435   1.526  26.891   0.718  0.1550 -0.4661 -0.1727
    1W        W34436  17.464   3.765   6.581 -0.1200 -0.1563  0.0855
    1W        W34437  22.924   7.538   6.857  0.1915 -0.0180  0.1246
    1W        W34438   5.113   2.123   3.450 -0.2642 -0.1735  0.1574
    1W        W34439  16.247  13.631   6.897  0.1177 -0.1017 -0.0220
    1W        W34440  13.074   0.095   2.364 -0.0139  0.2198 -0.0276
    1W        W34441  28.329  20.953   1.018 -0.2441 -0.0207  0.0551
    1W        W34442  17.123  26.684   3.904  0.0629 -0.0649  0.2799
    1W        W34443  26.690   7.153   7.294  0.1188  0.7115 -0.0288
    1W        W34444   1.647  18.528   6.516  0.0294  0.0046 -0.0123
    1W        W34445  11.216   4.884   9.123  0.0389 -0.2912  0.1809
    1W        W34446   9.911  29.607   9.222 -0.0749 -0.2305 -0.0158
    1W        W34447  29.341  23.207   9.024  0.3957 -0.1803  0.1657
    1W        W34448  28.927  27.719   6.523 -0.0472  0.0992 -0.0968
    1W        W34449  15.870  11.901   0.534  0.0167 -0.2997  0.1676
    1W        W34450   7.325  19.213   8.714 -0.0008 -0.1588  0.0494
    1W        W34451   7.571  14.069   8.247 -0.1297  0.1119 -0.2713
    1W        W34452  20.416   3.280   6.923  0.0509  0.1256  0.1699
    1W        W34453   9.701  10.077   2.400 -0.0444 -0.1617 -0.0625
    1W        W34454  24.154   2.124   1.668 -0.2729 -0.2525  0.1264
    1W        W34455  24.197  19.130   0.007  0.3625 -0.2041 -0.1125
    1W        W34456  20.764  25.503   8.159 -0.3786 -0.1919  0.0153
    1W        W34457   7.214   5.759   8.776  0.1524 -0.0443  0.2700
    1W        W34458   3.723   2.274   8.620  0.1384  0.0325  0.0625
    1W        W34459  21.440  12.672   1.244 -0.2318 -0.2757  0.4134
    1W        W34460   6.093   5.889   1.168 -0.0847 -0.0100  0.2537
    1W        W34461  26.484   4.738   2.476  0.0299  0.0350 -0.0747
    1W        W34462   7.368  10.184   1.626  0.0864 -0.1190 -0.3061
    1W        W34463   4.035  10.327   2.547  0.2073  0.0737  0.3693
    1W        W34464   2.541   1.708   2.516  0.2346 -0.0852 -0.0629
    1W        W34465   4.192  16.015   1.562  0.2607  0.0184  0.3229
    1W        W34466  14.553  20.886   1.261 -0.3362 -0.0242  0.1089
    1W        W34467  11.907  15.032   7.479  0.0841 -0.0799  0.0468
    1W        W34468  21.937  25.028   0.904  0.2009 -0.1971 -0.1121
    1W        W34469  13.871  15.921   8.141 -0.4188  0.2299  0.1689
    1W        W34470  21.626   9.521   9.376  0.1906  0.0105 -0.0698
    1W        W34471   8.716  13.739   0.098 -0.1292 -0.1257  0.1835
    1W        W34472   7.594  15.321   2.732 -0.0642 -0.0148 -0.0014
    1W        W34473   0.146   5.300   9.413 -0.0978  0.2934  0.0359
    1W        W34474   2.324   3.740   0.830 -0.0199 -0.1658  0.0752
    1W        W34475  17.093  16.517   9.074 -0.4208 -0.0894 -0.0136
    1W        W34476  26.063   7.383   1.519  0.2278  0.1306 -0.2306
    1W        W34477   1.413  13.089   8.298 -0.0538 -0.1505  0.0606
    1W        W34478  15.931  16.245   8.817  0.1278  0.0640  0.1962
    1W        W34479  12.560   8.230   9.098 -0.1386 -0.0113  0.2023
    1W        W34480  10.384  16.449   7.092  0.0556  0.0400  0.2703
    1W        W34481   3.652  21.243   0.215 -0.1984  0.0646  0.0980
    1W        W34482  22.567  11.167   5.925  0.3450 -0.0287 -0.0379
    1W        W34483   8.754   6.807   3.836  0.0173 -0.2165  0.0816
    1W        W34484  17.020  14.239   8.515 -0.4081  0.1517 -0.1038
    1W        W34485   9.100   6.401   0.465 -0.1700 -0.0097 -0.1029
    1W        W34486  26.022  19.074   8.900  0.1075  0.0835 -0.0025
    1W        W34487  16.938  29.607   7.462 -0.1458 -0.1292  0.1248
    1W        W34488  20.765   2.954   1.633 -0.2482 -0.1203  0.0191
    1W        W34489   7.579  16.073   8.897 -0.0107  0.2474 -0.0080
    1W        W34490  26.165  10.318   1.703  0.2950  0.0449 -0.0150
    1W        W34491  20.313  19.716   8.073  0.0976  0.1658 -0.1482
    1W        W34492  28.917  13.164   8.085  0.1278 -0.1340 -0.1319
    1W        W34493  29.185  29.706   0.510  0.0391  0.1175 -0.3740
    1W        W34494  20.547  20.973   2.021 -0.1883 -0.0493 -0.0983
    1W        W34495  22.686   2.360   0.756  0.0379 -0.0400 -0.0964
    1W        W34496  22.000  20.767   8.238 -0.0152  0.3286  0.2804
    1W        W34497  23.291   8.953   9.414  0.0750 -0.2491 -0.0283
    1W        W34498  16.483  25.348   0.782  0.2175  0.1650 -0.0654
    1W        W34499   8.827  25.680   7.042  0.1093 -0.1292 -0.1444
    1W        W34500  26.976  24.077   7.436  0.2672  0.0173 -0.0386
    1W        W34501   4.317  10.371   7.953  0.1044 -0.0386  0.1282
    1W        W34502   2.414  26.431   8.118  0.0307  0.0536  0.0319
    1W        W34503  25.978   4.247   0.318  0.1568  0.1710 -0.2945
    1W        W34504   8.182  15.795   7.815 -0.0629 -0.0683 -0.0782
    1W        W34505  10.104  19.287   0.158  0.0042  0.2315  0.1224
    1W        W34506   6.300  25.396   8.970  0.3814 -0.0750 -0.1235
    1W        W34507  28.633  16.386   0.459 -0.1139 -0.1463  0.3215
    1W        W34508  15.674   0.318   8.465 -0.1103  0.2802 -0.3557
    1W        W34509   6.219  23.779   0.443 -0.1547  0.1128  0.2305
    1W        W34510  20.494  29.250   0.447  0.1060  0.1299 -0.0671
    1W        W34511  24.593   8.781   0.437 -0.1136  0.2239  0.0917
    1W        W34512  28.613   0.923   8.080 -0.0635 -0.1775 -0.0103
    1W        W34513   6.899  17.675   7.412  0.0718  0.0841  0.0808
    1W        W34514  19.321  12.112   1.717  0.0592 -0.1760  0.0997
    1W        W34515  19.816   6.403   7.494  0.2141  0.0853  0.1178
    1W        W34516  29.872  17.576   1.544  0.0095 -0.0825 -0.2478
    1W        W34517  24.519  10.038   7.127 -0.1367  0.0907  0.1264
    1W        W34518  17.107   4.635   7.030 -0.3255 -0.1523 -0.2160
    1W        W34519  29.292   1.854   6.828 -0.0824 -0.1542 -0.1452
    1W        W34520  17.878  25.853   8.265  0.1382  0.0970  0.0635
    1W        W34521  18.472   0.278   0.595  0.3437  0.1313 -0.0075
    1W        W34522  17.758  18.208   2.167  0.1056 -0.0860  0.2440
    1W        W34523  22.658  22.201   8.853  0.4442  0.1512 -0.0403
    1W        W34524   0.278  25.384   7.073 -0.1923  0.0742  0.0083
    1W        W34525  16.339   2.705   7.258  0.0707 -0.1525 -0.2928
    1W        W34526  20.133   8.490   0.329 -0.3520 -0.0454  0.0316
    1W        W34527  14.778   2.341   0.301 -0.3527  0.1570 -0.0625
    1W        W34528  18.762   4.988   9.428 -0.0748  0.1271 -0.2104
    1W        W34529  11.445   2.359   1.247  0.1693  0.0535  0.2391
    1W        W34530  22.970  11.815   9.384  0.2095  0.1248  0.2516
    1W        W34531  28.541  18.736   7.821 -0.0829  0.1080 -0.2077
    1W        W34532  26.284  19.189   7.229  0.3023  0.0598 -0.3308
    1W        W34533  20.112  26.065   8.678  0.0515 -0.2400  0.0779
    1W        W34534   2.738  15.632   1.869  0.3394 -0.1095 -0.1138
    1W        W34535   1.499   2.570   0.797  0.0459 -0.0256 -0.1765
    1W        W34536  13.815  12.916   8.939 -0.1122  0.0738  0.2902
    1W        W34537  17.902  28.992   8.664 -0.2691  0.2600 -0.0489
    1W        W34538  29.862  10.784   6.305  0.1589  0.1264 -0.1063
    1W        W34539  29.385  28.307   2.549  0.1154 -0.1931  0.2065
    1W        W34540   2.872  27.253   1.466 -0.3116 -0.3082  0.0154
    1W        W34541  18.674   6.300   1.974  0.3198 -0.0066 -0.0440
    1W        W34542   9.466   6.693   3.225  0.1603  0.0292  0.0157
    1W        W34543  13.696  22.270   8.902  0.1889  0.1671 -0.1359
    1W        W34544  29.434  25.493   6.537 -0.4742 -0.0892 -0.1139
    1W        W34545  19.929   6.759   0.457  0.2714  0.0961  0.0245
    1W        W34546  24.892   8.594   8.170  0.0595 -0.0326  0.0264
    1W        W34547  22.921  21.942   1.667 -0.0671  0.0402  0.2921
    1W        W34548  28.036  23.912   9.111  0.1925  0.2933  0.4804
    1W        W34549  13.308  15.175   1.942 -0.0020 -0.1340  0.3679
    1W        W34550   7.950  19.257   7.093  0.0328 -0.1460 -0.1959
    1W        W34551   4.939  10.485   0.855  0.3645  0.0055 -0.1375
    1W        W34552  13.944   0.546   2.483  0.3060  0.1589 -0.0412
    1W        W34553  29.902   2.138   3.706 -0.1003 -0.2392 -0.3672
    1W        W34554  16.977   1.980   2.053  0.1872  0.0963  0.3627
    1W        W34555  27.673  26.354   9.246 -0.0879  0.1521  0.0635
    1W        W34556  16.565   9.190   0.570  0.1484  0.0097 -0.1567
    1W        W34557  12.578   9.310   6.582  0.1130 -0.0669 -0.1377
    1W        W34558  27.659   3.075   0.105 -0.0447  0.2382 -0.0692
    1W        W34559  18.545   3.532   1.906 -0.0711  0.2967 -0.0009
    1W        W34560   6.169  14.845   1.921 -0.2456  0.1255 -0.2299
    1W        W34561   2.236   8.527   8.775 -0.1330 -0.0909  0.1368
    1W        W34562  21.343  22.760   6.593  0.0179 -0.2790 -0.0942
    1W        W34563  20.029   2.680   1.893 -0.0584 -0.2761  0.2483
    1W        W34564   8.057   9.138   8.946  0.0171  0.1128  0.0065
    1W        W34565  12.897  28.964   1.203 -0.1760  0.4548  0.2030
    1W        W34566  25.076   7.290   2.046  0.0698  0.2296 -0.1069
    1W        W34567   1.753  19.227   9.153 -0.0107  0.2272 -0.1905
    1W        W34568  18.932  26.646   7.745 -0.0273 -0.0405  0.0721
    1W        W34569  21.545  15.024   8.435 -0.0766 -0.1488 -0.0733
    1W        W34570  24.991   5.112   1.727  0.2463  0.1112  0.3169
    1W        W34571  27.005   5.576   2.835 -0.0998  0.0303 -0.0378
    1W        W34572  20.087   2.453   0.520  0.1811 -0.0090  0.0881
    1W        W34573  22.362  19.853   0.208 -0.0388 -0.3230  0.3087
    1W        W34574   0.386   6.031   2.438  0.4559 -0.4410  0.2798
    1W        W34575  23.079  11.290   1.654  0.1542 -0.0093  0.0833
    1W        W34576  10.637  18.096   7.116  0.0026 -0.0733 -0.1969
    1W        W34577   9.213  22.140   6.364  0.3071  0.1530 -0.0255
    1W        W34578  24.216  15.913   5.674  0.0504  0.0624 -0.4001
    1W        W34579   4.082  12.002   7.485 -0.0037  0.0055 -0.0340
    1W        W34580  27.540  25.864   9.086 -0.0805  0.2725 -0.0630
    1W        W34581  15.196   2.336   9.432  0.4656 -0.1100  0.0566
    1W        W34582  23.059  14.186   1.212  0.0690 -0.0792 -0.1019
    1W        W34583   3.197   8.840   1.646 -0.1459  0.2089  0.1066
    1W        W34584  25.973  16.916   8.285  0.1198  0.0846 -0.0022
    1W        W34585  23.777   0.601   3.535  0.0092 -0.0406 -0.1635
    1W        W34586  18.465   1.313   9.121 -0.2184  0.1209 -0.1908
    1W        W34587   1.743   5.233   8.077 -0.0605  0.3288  0.2422
    1W        W34588   8.565  24.751   8.088 -0.1355  0.2186 -0.1709
    1W        W34589   1.772  24.426   6.917 -0.2743  0.1746  0.2008
    1W        W34590   0.938   8.477   8.654  0.0273 -0.3370 -0.3192
    1W        W34591  27.390   0.547   0.673  0.1509 -0.0447  0.0838
    1W        W34592  13.779   9.735   1.411  0.0080  0.1437  0.3936
    1W        W34593  29.657   5.086   7.720  0.2507  0.0794 -0.0077
    1W        W34594  28.402  25.907   8.075  0.0037  0.2118  0.3532
    1W        W34595  27.877  15.591   1.092  0.2167 -0.2371  0.0269
    1W        W34596  29.419  16.707   7.187  0.2989  0.1715 -0.1481
    1W        W34597  14.257   3.029   8.668 -0.1642 -0.2705  0.1114
    1W        W34598  22.493  13.244   1.049 -0.0648  0.0330  0.0248
    1W        W34599  24.494  29.291   8.009  0.0783  0.0284  0.1946
    1W        W34600   9.607  22.264   0.088  0.4012  0.2606 -0.1210
    1W        W34601   5.426  13.759   9.280  0.0823  0.1251  0.1250
    1W        W34602  23.412  27.217   3.230 -0.0058 -0.1338  0.1533
    1W        W34603   0.472  20.150   6.534  0.2336  0.0531  0.2454
    1W        W34604  27.349   8.253   7.384 -0.0885  0.2138 -0.0750
    1W        W34605  25.235  22.721   8.696 -0.1036  0.1088 -0.0751
    1W        W34606  22.793  17.718   7.366 -0.2332  0.0615  0.2698
    1W        W34607   6.560  12.074   6.336  0.0015  0.1456  0.1376
    1W        W34608  22.545  14.315   8.015  0.1995 -0.2457 -0.0820
    1W        W34609  29.539   8.595   8.372  0.3592  0.0486  0.3874
    1W        W34610  25.870   5.892   2.799  0.0549  0.3523  0.0495
    1W        W34611  22.750   5.998   8.282  0.1281  0.1256 -0.1353
    1W        W34612  26.484  26.481   8.535 -0.0763 -0.1195 -0.3644
    1W        W34613  19.127   7.945   8.558 -0.1566  0.1659 -0.0836
    1W        W34614  15.668  25.591   8.214  0.1748 -0.2536 -0.0461
    1W        W34615   1.954  29.607   6.124  0.0759 -0.2006 -0.0792
    1W        W34616  24.189  11.267   0.113  0.0452 -0.1124  0.0554
    1W        W34617   0.288  27.004   0.804 -0.0949  0.0616  0.2361
    1W        W34618  14.365  15.971   0.510 -0.0763  0.3883  0.0292
    1W        W34619   9.033  11.867   0.909  0.0399 -0.1840  0.0444
    1W        W34620  24.719   3.030   7.515  0.4239  0.1597 -0.1933
    1W        W34621  17.959  16.779   8.438  0.1171  0.0611 -0.0912
    1W        W34622  21.760  22.188   7.219  0.1579  0.0103 -0.1934
    1W        W34623  27.237  10.176   9.206  0.4058 -0.1459  0.0566
    1W        W34624  22.087   9.351   0.047  0.0508  0.1386  0.0243
    1W        W34625  28.186  26.768   8.681 -0.1729 -0.3157  0.1430
    1W        W34626  13.824  23.901   1.877  0.0674  0.0424 -0.0509
    1W        W34627  24.717  29.052   0.394  0.0603 -0.1773  0.0740
    1W        W34628   9.838   8.541   1.498  0.0118  0.0861 -0.4345
    1W        W34629   7.838   9.638   2.373  0.1169 -0.1433 -0.3451
    1W        W34630  25.149  15.488   7.455 -0.1147  0.0107 -0.0543
    1W        W34631  24.031  27.648   1.330 -0.2807 -0.2227  0.0761
    1W        W34632  27.727  28.051   1.500  0.0160 -0.1396  0.1238
    1W        W34633  29.111   1.396   8.826  0.3915  0.0134 -0.1132
    1W        W34634   6.926   6.894   1.124  0.0384  0.1995  0.2022
    1W        W34635  27.755  14.156   6.345 -0.1312  0.1328 -0.1619
    1W        W34636   7.379  17.877   6.582 -0.1285  0.2303  0.1007
    1W        W34637   0.484   2.803   0.048 -0.1770  0.4326  0.0966
    1W        W34638  12.412  29.366   2.032  0.3158 -0.0145 -0.3714
    1W        W34639  14.717  25.397   7.132  0.0625 -0.0133  0.0115
    1W        W34640   0.366  17.493   2.442 -0.0674 -0.0878  0.1278
    1W        W34641   2.760  17.082   0.616  0.0955  0.0412  0.0043
    1W        W34642  25.437  28.160   7.878  0.0083  0.6117 -0.1433
    1W        W34643  12.703  15.107   2.507  0.1599 -0.0120 -0.2818
    1W        W34644  13.817   9.808   8.220 -0.0224  0.0173 -0.0578
    1W        W34645  28.906   0.923   6.668  0.0350  0.2210  0.2035
    1W        W34646   0.256  18.116   8.022 -0.2685 -0.0357 -0.1028
    1W        W34647  27.832   9.799   7.414 -0.2105 -0.3451  0.2911
    1W        W34648  28.639   5.542   1.460  0.0998 -0.3292  0.1989
    1W        W34649  12.482  16.539   7.110 -0.1112  0.0293 -0.1897
    1W        W34650  18.892  12.656   8.282 -0.1030 -0.0458  0.1505
    1W        W34651  17.162   1.118   8.355 -0.0717  0.1791  0.0455
    1W        W34652  29.443  26.308   0.935  0.0309  0.0550  0.0114
    1W        W34653  16.344   2.567   0.751  0.1463 -0.0994  0.0204
    1W        W34654   0.781   2.636   1.856  0.1851 -0.1555 -0.2172
    1W        W34655   5.569  16.251   1.337  0.0380  0.0992  0.0420
    1W        W34656  28.880  20.893   0.987 -0.0721 -0.0508 -0.0427
    1W        W34657   9.614  27.920   0.653 -0.2385 -0.1961 -0.1526
    1W        W34658  25.349   9.545   0.203  0.0476  0.0688  0.0113
    1W        W34659  11.291  28.201   9.064  0.2168 -0.4020 -0.1359
    1W        W34660  13.927   4.292   1.615 -0.0705 -0.0986 -0.3316
    1W        W34661  10.085   1.008   0.591 -0.1191 -0.2327 -0.1219
    1W        W34662  22.300  26.713   2.205 -0.1406 -0.1347  0.1929
    1W        W34663   6.219  18.209   0.536  0.0303 -0.0181 -0.0121
    1W        W34664  16.107  24.886   7.913 -0.1484  0.1851 -0.1930
    1W        W34665   2.438  10.788   6.363 -0.0047  0.1121  0.0772
    1W        W34666  19.222  27.544   3.132  0.0346  0.0998  0.1738
    1W        W34667  20.447  25.049   6.822  0.3040 -0.0576  0.0594
    1W        W34668  27.632   4.275   3.956 -0.1373 -0.0334 -0.0043
    1W        W34669  25.011   5.491   7.332 -0.2001 -0.3240  0.0775
    1W        W34670   5.056   1.417   0.194 -0.3574  0.0028  0.2703
    1W        W34671  24.432   9.180   0.254  0.0027  0.1407  0.2228
    1W        W34672  17.560  12.814   6.906  0.1211  0.0552  0.0352
    1W        W34673  29.127  24.115   1.600  0.1193  0.0021  0.2150
    1W        W34674  20.552   7.075   1.609 -0.0796  0.2643  0.0648
    1W        W34675  27.301  21.608   1.902 -0.1072 -0.0739  0.2551
    1W        W34676  14.406   8.710   0.923 -0.0007  0.0313  0.1095
    1W        W34677   1.864   9.224   1.605 -0.0574 -0.4159 -0.0722
    1W        W34678  20.436  29.307   7.435 -0.0298 -0.0476 -0.0247
    1W        W34679   9.801   8.094   1.725  0.1178 -0.3358 -0.0616
    1W        W34680   2.792  26.701   0.771  0.1893  0.1148 -0.0185
    1W        W34681   3.884   3.371   2.817 -0.0823  0.3068  0.5194
    1W        W34682   7.387   5.265   2.981  0.0290 -0.2112 -0.1258
    1W        W34683  16.189  11.867   8.572  0.0054 -0.0372 -0.1138
    1W        W34684   5.308  16.719   1.811  0.1302  0.1220  0.1211
    1W        W34685   1.045  23.374   7.310  0.0226 -0.2023 -0.0819
    1W        W34686   1.284  24.979   6.435 -0.1390  0.1905 -0.1325
    1W        W34687  20.831  24.566   8.482 -0.2158  0.0768 -0.2845
    1W        W34688   1.804  15.584   1.966 -0.2229 -0.2076  0.1336
    1W        W34689  13.315   5.398   0.889  0.1027 -0.1314  0.1648
    1W        W34690  15.448   4.811   1.592 -0.0024 -0.1255  0.1990
    1W        W34691  19.323  23.554   2.883  0.2041 -0.5043  0.0461
    1W        W34692  10.588  21.253   0.317  0.2850 -0.4579 -0.2984
    1W        W34693  19.163  12.528   8.823  0.2202  0.1358  0.2743
    1W        W34694  10.744   1.992   3.750 -0.1604 -0.1404 -0.0303
    1W        W34695  13.452  11.087   1.399  0.2374  0.0913 -0.0613
    1W        W34696  29.546   2.397   7.615  0.1483  0.1548 -0.0411
    1W        W34697  26.376  12.176   1.225 -0.0892  0.1933 -0.0402
    1W        W34698   0.827  15.912   0.572 -0.0865 -0.0284  0.2670
    1W        W34699   3.090  14.268   7.529  0.0975  0.1732  0.0758
    1W        W34700  27.275   7.169   1.630 -0.0399  0.0316 -0.0824
    1W        W34701  26.157  12.790   1.909 -0.1494  0.2687  0.1137
    1W        W34702   9.460   4.676   1.514 -0.1311  0.3419  0.0512
    1W        W34703  25.207   4.214   7.644  0.0232  0.0812  0.0300
    1W        W34704   1.045  28.603   8.841  0.1249 -0.1325  0.1004
    1W        W34705  21.976  17.202   9.141 -0.0104 -0.1779  0.1425
    1W        W34706   2.245  10.320   2.062 -0.1570  0.0779 -0.1494
    1W        W34707   7.448  12.001   6.969  0.1799  0.0248 -0.1311
    1W        W34708   0.320   1.566   8.830 -0.2334 -0.1533  0.2928
    1W        W34709   4.344  24.851   8.326 -0.1436  0.1171  0.1258
    1W        W34710  27.822   7.378   7.127 -0.0893  0.0119 -0.5074
    1W        W34711  13.230  23.623   0.486 -0.3569  0.1938 -0.1444
    1W        W34712   3.767   8.314   3.193  0.0518  0.3586  0.0538
    1W        W34713  17.292   8.175   7.913 -0.2457 -0.1200  0.0584
    1W        W34714  17.966  22.728   2.147 -0.0539  0.0921 -0.1042
    1W        W34715  14.398  10.722   9.044  0.0393 -0.4038 -0.1715
    1W        W34716  10.222   6.753   9.426  0.1463 -0.1476 -0.0127
    1W        W34717   5.627  27.137   1.495  0.1477  0.2022 -0.0215
    1W        W34718  28.085   1.762   3.433 -0.1755 -0.2117 -0.0387
    1W        W34719  20.765   9.271   8.232 -0.0491  0.1398 -0.1371
    1W        W34720   1.709   4.067   6.984  0.0195 -0.1289  0.0533
    1W        W34721  29.240  29.074   8.421 -0.4249 -0.0454 -0.3205
    1W        W34722   4.220  28.228   9.242 -0.0668 -0.2892 -0.0778
    1W        W34723   0.963  17.063   9.375  0.4250 -0.1998  0.1259
    1W        W34724   2.520   0.690   1.368  0.0112 -0.0469  0.1066
    1W        W34725  15.224   8.902   9.194  0.1271  0.2319 -0.2475
    1W        W34726   6.227  29.434   6.064  0.1644 -0.4142 -0.0221
    1W        W34727  20.107  16.175   2.303 -0.0946  0.0118 -0.4192
    1W        W34728  22.126   5.867   0.062  0.1479  0.2440 -0.0191
    1W        W34729  17.776  22.548   1.037 -0.0484  0.1086 -0.1526
    1W        W34730  24.902  26.376   1.674 -0.0526  0.2688 -0.0581
    1W        W34731  14.390  22.574   1.239 -0.2519 -0.1073  0.0494
    1W        W34732  21.091  12.978   0.052 -0.1940 -0.2592  0.1627
    1W        W34733  29.244  24.127   2.694  0.1100  0.0502 -0.0651
    1W        W34734  28.866   2.246   9.016  0.2598 -0.0378 -0.0977
    1W        W34735  24.764  16.125   8.196 -0.0245 -0.1843  0.4478
    1W        W34736   4.411  13.699   1.363  0.2199 -0.2777  0.0573
    1W        W34737  29.650  24.255   0.217 -0.1482  0.4135 -0.1202
    1W        W34738  25.692  15.561   8.854 -0.2231 -0.0966 -0.0967
    1W        W34739  21.368  19.483   1.261  0.0643 -0.1249 -0.2053
    1W        W34740  15.727  24.558   7.825 -0.0877  0.0816 -0.1637
    1W        W34741   4.193  19.932   1.554  0.1480 -0.1194 -0.0168
    1W        W34742  13.728  18.336   7.891  0.0270  0.0137  0.0468
    1W        W34743  15.604  18.727   1.845 -0.2588  0.2494 -0.0048
    1W        W34744  10.671  17.968   8.081  0.2466 -0.1517 -0.0087
    1W        W34745  17.271   7.320   7.712  0.1466 -0.0836  0.0098
    1W        W34746   1.026  19.405   0.341 -0.1362  0.0343 -0.3130
    1W        W34747  22.155  24.687   1.291  0.0344  0.0335 -0.0945
    1W        W34748  26.136  11.409   1.861 -0.0703  0.1839  0.0565
    1W        W34749  20.266  12.340   6.407  0.2728  0.1606 -0.0689
    1W        W34750  16.701  27.114   7.837 -0.1115  0.1563 -0.0828
    1W        W34751  24.105  27.981   7.540 -0.0675 -0.4273 -0.0837
    1W        W34752  24.145   1.905   8.559  0.0568 -0.0539  0.0009
    1W        W34753   6.118  28.411   7.591  0.1280  0.1339  0.0490
    1W        W34754  15.841   8.293   8.608  0.1647 -0.0144  0.0446
    1W        W34755   2.015  12.875   0.040 -0.1572 -0.0572  0.0179
    1W        W34756   3.559  13.775   8.303 -0.1841  0.2588  0.0113
    1W        W34757  13.080  23.209   0.855 -0.0191  0.1419  0.0952
    1W        W34758  24.374  15.620   1.490 -0.0064 -0.3576  0.2885
    1W        W34759   1.646   9.974   3.277  0.0513  0.2296 -0.0283
    1W        W34760  13.142  16.736   9.025  0.1227  0.3758  0.0458
    1W        W34761  19.718  13.636   8.757  0.2336  0.1406  0.1661
    1W        W34762   6.901   9.686   2.401  0.0916  0.1207 -0.1036
    1W        W34763  15.985  29.396   8.017  0.2688  0.2632 -0.2132
    1W        W34764   0.214  14.816   0.161 -0.1503 -0.2122  0.0546
    1W        W34765  18.881  29.481   8.457 -0.1476 -0.1958 -0.0526
    1W        W34766  15.922  13.634   8.589  0.2194  0.0655 -0.1727
    1W        W34767  15.203  23.621   2.285 -0.1557 -0.1478 -0.2433
    1W        W34768  18.231  26.171   8.424 -0.1940 -0.2722  0.0530
    1W        W34769  12.620  15.433   7.772  0.0704  0.0970 -0.1360
    1W        W34770  23.449   3.314   8.691  0.2062  0.3080  0.3924
    1W        W34771  29.202  19.381   8.295 -0.1506  0.0836 -0.0895
    1W        W34772  14.985  25.709   7.495  0.0077 -0.1269  0.1474
    1W        W34773  27.757  17.782   6.154 -0.3038  0.0848  0.0427
    1W        W34774   8.481  11.515   7.507 -0.0079  0.2517 -0.0804
    1W        W34775   4.703  22.683   2.640 -0.1439  0.0759  0.3544
    1W        W34776  18.128   2.776   1.381  0.3751  0.1327  0.0455
    1W        W34777  28.143  11.533   1.034 -0.3474 -0.2050  0.3122
    1W        W34778  23.120  15.076   8.331 -0.1184 -0.0788 -0.1816
    1W        W34779   5.559  26.640   7.726  0.0732  0.3472  0.1801
    1W        W34780  27.503  22.331   2.427  0.1065  0.0845  0.2518
    1W        W34781  28.870   7.764   2.576  0.0102  0.1656  0.0198
    1W        W34782  23.709   9.797   3.137 -0.0258  0.1247 -0.2386
    1W        W34783   9.081   2.065   3.552 -0.0039 -0.0495 -0.4201
    1W        W34784   4.516  12.992   0.430 -0.0490  0.0601  0.0388
    1W        W34785  23.169  27.754   1.311  0.0552 -0.0280  0.0567
    1W        W34786  28.174  23.369   3.010  0.0218  0.0259 -0.0752
    1W        W34787  21.142   8.692   1.012 -0.0810 -0.0490  0.0078
    1W        W34788  14.396   4.248   6.548 -0.0654  0.0501  0.0443
    1W        W34789  15.656  25.055   7.989 -0.2335  0.0779  0.1743
    1W        W34790   1.421   7.036   9.149 -0.1993 -0.1941  0.1677
    1W        W34791  18.084  12.869   6.266  0.4059 -0.0525  0.0551
    1W        W34792   0.290  22.440   6.874  0.0310 -0.0053  0.0074
    1W        W34793  22.082  22.205   1.878 -0.2126 -0.1228 -0.0512
    1W        W34794  26.758   2.560   8.271  0.0885  0.2729  0.2778
    1W        W34795  20.284  24.049   3.420 -0.2599  0.4173 -0.2380
    1W        W34796  14.304   8.466   7.986 -0.0228 -0.0696  0.1548
    1W        W34797  22.556  28.853   3.195  0.0655 -0.0928  0.0135
    1W        W34798  18.001   6.504   1.696  0.2053  0.0316 -0.1403
    1W        W34799   1.130  26.267   7.453  0.0580  0.2773 -0.3249
    1W        W34800  17.210  27.223   9.124 -0.0375 -0.0458  0.4240
    1W        W34801   1.613   8.043   9.195 -0.0165 -0.1060 -0.1028
    1W        W34802  27.167  15.788   7.181 -0.0783 -0.1111 -0.1396
    1W        W34803  20.155  24.149   9.101  0.1351 -0.1876 -0.1148
    1W        W34804  24.336  19.828   9.010  0.4956 -0.1168 -0.2210
    1W        W34805   8.909   8.917   9.014 -0.3442  0.0913 -0.2940
    1W        W34806  29.108  29.456   8.098 -0.2831  0.0153 -0.0125
    1W        W34807   7.413  26.392   1.518  0.0778  0.1590  0.0201
    1W        W34808  26.312  26.928   8.315  0.0170 -0.1941  0.0720
    1W        W34809   1.078   3.062   6.221 -0.2526  0.0053  0.2621
    1W        W34810  28.971   2.224   1.283  0.0717 -0.2734  0.0571
    1W        W34811  10.916  17.016   6.679 -0.0552  0.0784 -0.0340
    1W        W34812  18.738   5.128   8.547 -0.1112  0.1906  0.1352
    1W        W34813   6.806  28.014   1.808  0.2560  0.1471 -0.0670
    1W        W34814  13.894  21.291   0.808  0.2170  0.1938 -0.1446
    1W        W34815  22.041  22.888   8.425 -0.2005  0.2604 -0.0301
    1W        W34816   9.892   5.606   2.393  0.0416  0.0158  0.2009
    1W        W34817  15.501  27.234   1.346 -0.0960  0.0573  0.1044
    1W        W34818   5.659  11.679   1.192 -0.3893 -0.1681  0.1546
    1W        W34819  26.034   6.818   2.501  0.1063 -0.1616  0.1414
    1W        W34820  19.878  19.903   2.699 -0.2275 -0.0227  0.1561
    1W        W34821   6.624  27.873   1.373 -0.0018 -0.0451  0.2781
    1W        W34822  21.476  14.976   7.784 -0.2091 -0.2722 -0.2756
    1W        W34823  20.928   8.330   0.221 -0.1942  0.0780  0.0632
    1W        W34824  25.765   2.665   2.453  0.0758  0.0804 -0.5576
    1W        W34825  15.506   9.579   1.687 -0.1374 -0.1722 -0.2468
    1W        W34826   4.446  26.614   0.981 -0.0217  0.2831 -0.5258
    1W        W34827   9.746  16.250   0.117 -0.0473 -0.1094  0.0307
    1W        W34828  29.345  22.131   6.788 -0.2255 -0.2480  0.2582
    1W        W34829   9.511   7.009   0.917  0.1302 -0.1236  0.0640
    1W        W34830   1.983  24.147   8.231 -0.1503  0.0555 -0.4880
    1W        W34831  19.103   0.557   2.419 -0.0006  0.0884 -0.2219
    1W        W34832  11.351  26.867   8.165  0.1190 -0.1306 -0.0321
    1W        W34833   8.524  15.341   7.196 -0.1416 -0.0568  0.0916
    1W        W34834  19.623   9.034   8.591  0.3248  0.2219  0.1189
    1W        W34835  17.329  29.750   0.747 -0.1586 -0.3009  0.1292
    1W        W34836   2.071  23.247   9.166  0.1975  0.0336 -0.1111
    1W        W34837  16.937  13.618   7.672  0.2096 -0.2562 -0.1679
    1W        W34838  18.661  22.196   0.620 -0.1172 -0.0784  0.1746
    1W        W34839  11.977  21.148   1.798 -0.0040  0.0229  0.2762
    1W        W34840  15.679   1.111   9.015 -0.1359  0.1767  0.1878
    1W        W34841   5.138   1.657   7.143  0.2209 -0.0091  0.0678
    1W        W34842  17.449   4.238   0.203  0.2557  0.0766 -0.3817
    1W        W34843   2.888  21.526   2.162  0.1307 -0.1094  0.0816
    1W        W34844   0.830  19.621   1.662 -0.1565 -0.0821  0.1804
    1W        W34845  26.435  27.556   3.528 -0.1838  0.0365 -0.1154
    1W        W34846   9.771  21.839   0.351 -0.1425 -0.2530  0.0704
    1W        W34847   4.837  17.999   5.930  0.1364 -0.1146  0.0596
    1W        W34848  25.017  22.768   1.973 -0.0298  0.0368  0.2536
    1W        W34849   1.361  23.365   2.532  0.3108  0.1626 -0.0572
    1W        W34850   6.633  18.468   0.294 -0.3569  0.0594  0.1402
    1W        W34851   2.474   8.330   1.768  0.2208  0.0082 -0.0378
    1W        W34852  13.841  28.261   0.499 -0.0192 -0.3432  0.1795
    1W        W34853   7.751   4.477   0.625  0.2756  0.1608 -0.1007
    1W        W34854  29.535   0.163   0.378 -0.2155  0.1473 -0.1497
    1W        W34855  23.528  27.721   2.307  0.2268 -0.1124 -0.1439
    1W        W34856  26.093  27.509   8.394 -0.1832 -0.0118 -0.2232
    1W        W34857  24.751  16.382   0.899  0.1156 -0.0176  0.0202
    1W        W34858  18.066  16.316   1.515 -0.2049  0.1558 -0.1231
    1W        W34859   7.643   0.052   8.022  0.1747  0.0338 -0.0029
    1W        W34860  23.651  28.779   3.593  0.0385 -0.0634 -0.4513
    1W        W34861  25.047  10.040   1.911 -0.2741 -0.1160 -0.1554
    1W        W34862  23.396  24.109   7.914 -0.0992 -0.5207 -0.3039
    1W        W34863  26.883   7.394   1.318  0.1803  0.0264 -0.0343
    1W        W34864  16.686  20.327   1.918 -0.1609 -0.0211 -0.2895
    1W        W34865   8.260  13.611   2.139 -0.0033 -0.1098 -0.3604
    1W        W34866  24.820  15.183   0.839  0.2899 -0.0288 -0.0512
    1W        W34867   5.020  20.145   1.441  0.1280 -0.0746 -0.0457
    1W        W34868  15.125   9.701   7.425  0.0435  0.0918  0.3182
    1W        W34869   5.898  11.317   0.856 -0.1755  0.2254  0.0689
    1W        W34870   1.448   3.688   7.321 -0.1137 -0.1703 -0.3187
    1W        W34871   8.408   5.223   0.159 -0.0538  0.2039 -0.1697
    1W        W34872   3.097  12.625   7.860 -0.0143  0.1650 -0.2541
    1W        W34873  22.662  14.269   9.142  0.2172 -0.2497 -0.1754
    1W        W34874   6.065  16.293   1.578 -0.0678 -0.0928 -0.0800
    1W        W34875  16.711  10.060   7.857 -0.2177 -0.3091  0.0301
    1W        W34876  11.927  27.271   9.427 -0.1076 -0.4383 -0.0035
    1W        W34877  22.863  18.868   0.097 -0.0303  0.2192  0.1167
    1W        W34878   0.180   2.882   8.075  0.0699  0.2479  0.0240
    1W        W34879   9.498   2.070   7.973  0.1400  0.4631 -0.0769
    1W        W34880   3.164   9.218   8.232  0.1713 -0.0223 -0.2433
    1W        W34881  28.930  10.783   7.483  0.6300  0.0762 -0.2117
    1W        W34882  28.215  26.689   3.143  0.0502 -0.0695  0.2160
    1W        W34883  17.447   1.998   9.241  0.0007 -0.0835 -0.1601
    1W        W34884  24.386  20.951   8.997  0.0914  0.0529 -0.3945
    1W        W34885  18.097   2.250   6.877  0.0285  0.0137 -0.2546
    1W        W34886  26.920  12.214   7.102  0.0253  0.1939 -0.2136
    1W        W34887   9.201  14.774   0.838 -0.1508 -0.3305 -0.0667
    1W        W34888  16.346  23.637   1.465 -0.0415 -0.2066  0.1951
    1W        W34889  10.321  10.272   1.994 -0.1431 -0.1760 -0.0058
    1W        W34890  10.448  27.366   1.796  0.3107  0.1390 -0.1104
    1W        W34891  15.769  15.134   1.414 -0.2516  0.0203  0.1138
    1W        W34892   9.289  18.319   7.002  0.0610  0.1685  0.3254
    1W        W34893  22.947  28.699   1.286  0.0586 -0.1676  0.1457
    1W        W34894  18.562  10.644   1.342  0.0333 -0.1813 -0.0377
    1W        W34895   6.015  28.038   1.192 -0.2525  0.2058  0.1364
    1W        W34896  15.462   7.620   0.575  0.0164 -0.2296 -0.3001
    1W        W34897   6.814   0.658   3.301 -0.2931 -0.0523 -0.1402
    1W        W34898   4.549   1.110   8.517 -0.0414  0.0049 -0.2081
    1W        W34899  12.365   2.338   1.068 -0.0129  0.0853 -0.3270
    1W        W34900  21.205   6.862   2.943  0.0129  0.3200 -0.4203
    1W        W34901  13.705  24.018   1.272 -0.3218 -0.1819  0.2131
    1W        W34902   8.746  18.955   1.164 -0.1557 -0.1993  0.0697
    1W        W34903   2.235  16.343   1.474  0.2203 -0.1505 -0.0097
    1W        W34904  11.220  26.554   1.621  0.1943  0.3031 -0.1083
    1W        W34905  28.104  28.727   6.466  0.0045 -0.1483  0.2288
    1W        W34906  11.412  27.175   6.759 -0.0737  0.2478 -0.0373
    1W        W34907  29.035  12.635   1.193 -0.2601  0.0568 -0.2048
    1W        W34908   1.756   4.308   7.797 -0.3740 -0.1283 -0.2174
    1W        W34909  25.469  13.538   0.146 -0.0602 -0.1492  0.1176
    1W        W34910  11.095  17.851   7.214 -0.0361 -0.0235 -0.1327
    1W        W34911   2.750  11.458   7.884  0.3063  0.0037 -0.1980
    1W        W34912   4.162   5.633   7.823  0.0125  0.1814  0.2978
    1W        W34913   9.394   7.470   0.674 -0.0503  0.0934  0.0175
    1W        W34914  27.391   0.810   2.005 -0.0557  0.3524  0.4218
    1W        W34915  22.630  19.292   0.215 -0.1626  0.2361 -0.3491
    1W        W34916   0.908  23.151   8.886  0.2243 -0.0719 -0.0998
    1W        W34917  20.575  25.898   9.452 -0.0769 -0.1032  0.0163
    1W        W34918  14.241  13.800   0.340 -0.0811  0.1045  0.2989
    1W        W34919  13.856  19.888   8.813  0.1520 -0.1463 -0.1199
    1W        W34920   8.015  10.412   7.024  0.0892  0.0444 -0.1114
    1W        W34921  13.362   3.742   0.902 -0.1918 -0.2309  0.1659
    1W        W34922  21.778   4.978   8.521 -0.0282  0.1203  0.0350
    1W        W34923  27.145  11.167   6.953  0.2204  0.1104  0.2176
    1W        W34924  10.149   1.686   8.561  0.0453  0.2245 -0.0694
    1W        W34925   8.402  18.625   7.410  0.0014  0.4535 -0.0588
    1W        W34926   8.114  19.652   0.070  0.3710 -0.1651  0.3065
    1W        W34927  12.279  17.245   0.380 -0.0320 -0.0691  0.1660
    1W        W34928   4.663  18.560   1.860  0.1216  0.1183  0.0012
    1W        W34929  24.817   9.811   2.321 -0.1943  0.3485 -0.0962
    1W        W34930   7.949   9.592   8.608  0.1085 -0.0110 -0.2831
    1W        W34931  28.773   1.334   1.808 -0.0664  0.0526  0.2028
    1W        W34932  17.603   7.026   0.096 -0.0302 -0.0457  0.3765
    1W        W34933   1.245   6.502   2.350 -0.1332  0.3212  0.4369
    1W        W34934  20.263   1.918   2.920 -0.1476  0.2626 -0.3950
    1W        W34935  17.802   9.072   2.517  0.1399  0.0374 -0.1042
    1W        W34936  17.314   6.435   8.323 -0.1139 -0.1158 -0.0950
    1W        W34937  27.430   1.782   8.105 -0.0654 -0.1238  0.0330
    1W        W34938   7.955  25.175   6.299  0.0026 -0.1170  0.0152
    1W        W34939  22.871   7.964   0.316  0.1247 -0.1352  0.1024
    1W        W34940  27.864  23.484   6.765  0.0222 -0.1255  0.2198
    1W        W34941   5.370   7.572   8.306 -0.0630  0.3136 -0.3498
    1W        W34942   9.502  21.361   1.031  0.2648  0.0380 -0.0537
    1W        W34943  21.030  18.084   8.472  0.1576  0.1366  0.2195
    1W        W34944  12.952   0.902   2.972  0.1017  0.3064 -0.0236
    1W        W34945  23.024   5.367   8.316 -0.2138 -0.0399 -0.3370
    1W        W34946   9.434  27.073   6.615  0.0360  0.2994  0.2736
    1W        W34947  12.669  27.612   1.505  0.2168 -0.1573  0.2413
    1W        W34948  13.036  29.458   2.129  0.1814 -0.2726  0.0069
    1W        W34949   7.325  15.481   6.021  0.0421 -0.0657 -0.2425
    1W        W34950  20.911  10.365   1.798 -0.0107 -0.1083 -0.1834
    1W        W34951  24.290  19.678   0.047  0.1725  0.2615 -0.0758
    1W        W34952  29.390  28.733   7.635  0.0573  0.2485 -0.1293
    1W        W34953   8.393  14.108   0.291 -0.0916  0.1040  0.3268
    1W        W34954  13.615  17.360   1.048 -0.1111 -0.0064  0.0754
    1W        W34955  14.417  12.302   7.616  0.0613  0.3031  0.0402
    1W        W34956   2.538  12.022   9.139 -0.1913 -0.1483 -0.0439
    1W        W34957   7.489   3.508   2.358  0.0158  0.2094 -0.0869
    1W        W34958   2.075   6.093   7.694 -0.2086 -0.0264 -0.0426
    1W        W34959  10.358  16.374   7.617 -0.0778 -0.0858 -0.1949
    1W        W34960   2.497   8.720   2.156  0.0905 -0.0280 -0.1487
    1W        W34961  23.950   4.242   1.826 -0.0365 -0.3844 -0.1951
    1W        W34962  29.026  23.712   9.088 -0.1463 -0.0426 -0.3526
    1W        W34963   2.112   1.726   7.926 -0.3084 -0.4481 -0.0053
    1W        W34964   2.017   0.686   1.535 -0.1673  0.1389  0.2281
    1W        W34965  10.792   3.529   1.016 -0.2936  0.2205  0.0798
    1W        W34966  11.526   5.334   1.216 -0.2056 -0.0356  0.0180
    1W        W34967  15.690  25.662   8.873  0.0752 -0.1807  0.0450
    1W        W34968  18.295  20.517   1.903 -0.0575  0.0130 -0.1283
    1W        W34969   5.169  17.812   9.130  0.1520 -0.1728 -0.0833
    1W        W34970  20.077  26.796   7.847  0.1400  0.0580  0.1402
    1W        W34971   5.056  22.245   8.352 -0.1024  0.5078  0.3216
    1W        W34972   0.130   6.290   8.583  0.3198 -0.0722  0.3905
    1W        W34973  17.446   4.797   0.037  0.2784 -0.2007  0.0461
    1W        W34974   0.966   5.532   8.807  0.0806  0.4127  0.2030
    1W        W34975   6.581  16.645   1.489 -0.3001 -0.0170 -0.1694
    1W        W34976   3.368  21.626   8.824  0.4449 -0.0652 -0.0212
    1W        W34977  13.457  24.132   9.141 -0.2382  0.1139  0.1261
    1W        W34978  18.992   5.842   2.019 -0.3117  0.0999  0.0694
    1W        W34979  15.799  27.954   2.235 -0.2380 -0.2788  0.0152
    1W        W34980  14.051  16.794   7.611  0.0734 -0.1076 -0.1636
    1W        W34981  19.853   7.684   9.236 -0.0069 -0.0301  0.0792
    1W        W34982   4.177  27.275   1.414 -0.1932 -0.2676 -0.3755
    1W        W34983  27.440   4.427   1.735 -0.1956  0.1768 -0.2716
    1W        W34984   5.521  29.334   1.208  0.1339 -0.0116 -0.0179
    1W        W34985   4.459  12.666   8.533  0.2009  0.0226 -0.4389
    1W        W34986  20.995  20.814   8.161 -0.0824 -0.0127  0.1781
    1W        W34987   5.393  26.240   6.774 -0.0102  0.1374  0.1400
    1W        W34988  25.264   8.979   9.119  0.0960 -0.0365 -0.0604
    1W        W34989  28.585  17.544   1.882 -0.1714  0.1960 -0.1477
    1W        W34990   4.091  26.356   9.157  0.3008 -0.3739 -0.3959
    1W        W34991   5.420  17.855   0.371  0.2347  0.1167  0.1205
    1W        W34992   4.480  16.421   6.775  0.1286 -0.1729 -0.2812
    1W        W34993   3.571  28.741   1.413  0.0982 -0.1594  0.4774
    1W        W34994  28.900   3.684   7.832 -0.1537 -0.1387  0.0665
    1W        W34995   8.093  15.364   7.488  0.1719  0.0872 -0.0148
    1W        W34996   9.554  18.397   7.993  0.2162  0.3406  0.4418
    1W        W34997   5.193  11.454   8.517  0.1149 -0.1139  0.0227
    1W        W34998  28.646  12.805   0.271  0.1162  0.2090  0.1884
    1W        W34999  16.585  21.861   1.000  0.2902 -0.0237 -0.1891
    1W        W35000  15.387   5.774   1.299 -0.3010 -0.0709 -0.1484
    1W        W35001  26.145  23.751   7.594  0.1188 -0.0056 -0.1443
    1W        W35002  28.852  13.178   1.949  0.0194  0.0059 -0.1738
    1W        W35003   3.571  15.354   6.368 -0.0696  0.1166  0.2111
    1W        W35004  14.374   8.903   0.247  0.1294 -0.3431 -0.0582
    1W        W35005  23.921  27.297   3.223  0.3918  0.1727 -0.0193
    1W        W35006  21.012  23.469   7.797 -0.3449  0.2637  0.0551
    1W        W35007  15.879  22.637   6.252  0.3729 -0.0847  0.1603
    1W        W35008  15.354   5.409   2.817  0.2814 -0.1091 -0.1611
    1W        W35009  12.406  12.223   1.577 -0.3205 -0.1176  0.1008
    1W        W35010  24.046  22.271   9.088 -0.2615  0.0611  0.0954
    1W        W35011   2.720  27.841   0.665  0.2601 -0.0975  0.1026
    1W        W35012  22.401  28.434   9.178  0.1335  0.1717 -0.0924
    1W        W35013  16.004  14.689   9.333  0.0411 -0.0760 -0.2669
    1W        W35014  15.124  12.206   0.182  0.1583  0.1712  0.1838
    1W        W35015  18.305  28.543   3.173 -0.0344 -0.0571  0.1513
    1W        W35016   7.414  13.016   7.383 -0.2635  0.1255 -0.2858
    1W        W35017   6.088  17.599   7.618 -0.1689 -0.1074 -0.1632
    1W        W35018  25.274  22.659   8.166  0.2174 -0.0164 -0.2528
    1W        W35019  22.155   7.556   9.025 -0.2578  0.0329 -0.2579
    1W        W35020  28.701  17.098   2.074  0.1099 -0.1351  0.2635
    1W        W35021  13.101  19.255   2.257  0.4279 -0.0775  0.2018
    1W        W35022   6.918  20.820   5.789  0.1915  0.0710 -0.0295
    1W        W35023  18.540   4.621   2.059 -0.1642  0.2429 -0.0506
    1W        W35024  25.955  25.628   2.730 -0.0256 -0.1931  0.1979
    1W        W35025  13.022  10.843   1.195 -0.3914  0.1072  0.0625
    1W        W35026  26.598   4.436   2.074  0.0389  0.1686 -0.2336
    1W        W35027  16.293   4.559   7.682 -0.2313 -0.0350  0.1369
    1W        W35028   1.797  27.302   0.314  0.1738 -0.0330 -0.1018
    1W        W35029   7.229   5.145   0.005  0.2265 -0.0036  0.0815
    1W        W35030  24.396   7.735   1.331  0.3267 -0.0296 -0.1661
    1W        W35031  19.170  24.175   7.589 -0.1318  0.0534 -0.2153
    1W        W35032  23.561   8.520   0.160  0.0482  0.2706  0.2649
    1W        W35033   4.643  21.330   8.183 -0.0970  0.0489 -0.1923
    1W        W35034   3.464  29.351   3.413  0.1619  0.1591 -0.4689
    1W        W35035   0.011  28.660   0.751 -0.0859  0.1112 -0.0180
    1W        W35036  18.901  29.194   0.309 -0.0860 -0.3477 -0.0071
    1W        W35037   8.978  23.917   8.623 -0.2330  0.0359  0.3389
    1W        W35038  28.367   3.625   8.894  0.1102 -0.2225  0.0526
    1W        W35039   6.483  16.275   7.202  0.0601  0.0663  0.3445
    1W        W35040   6.365  15.661   1.480  0.4018  0.3087 -0.0988
    1W        W35041  24.900  17.103   1.350 -0.3055  0.2878  0.0430
    1W        W35042  18.156  20.344   7.393  0.1370  0.2551 -0.2456
    1W        W35043  17.633  10.644   7.632  0.1895  0.1228  0.0461
    1W        W35044  26.823  25.566   6.187  0.1284 -0.0103 -0.3959
    1W        W35045  28.241   9.001   9.004  0.1617  0.3129  0.0835
    1W        W35046  22.520   5.276   2.751 -0.2390  0.0857 -0.2416
    1W        W35047   1.880   3.464   9.110  0.2820  0.0938  0.2507
    1W        W35048  17.027   1.237   6.968  0.1181  0.1280 -0.5494
    1W        W35049  25.079  25.903   2.408 -0.1699  0.0006 -0.0221
    1W        W35050   5.209   0.683   3.663  0.2963  0.1551 -0.0280
    1W        W35051  18.108  26.547   8.715  0.0738  0.0423  0.0065
    1W        W35052   6.250  13.892   0.585  0.3462 -0.0829 -0.1515
    1W        W35053  18.831  24.747   1.227  0.1521  0.3140 -0.3103
    1W        W35054   3.731  24.686   7.957  0.2397  0.1053 -0.0144
    1W        W35055  23.940  26.008   8.384 -0.1729 -0.2562  0.1181
    1W        W35056  21.129  16.782   8.160  0.1424 -0.1850  0.0599
    1W        W35057   0.530  28.512   7.768  0.1090 -0.2117  0.1292
    1W        W35058   7.554  16.089   6.735 -0.0758 -0.0032  0.1364
    1W        W35059  22.744   9.190   0.853  0.0898  0.1609 -0.1670
    1W        W35060   2.921   3.495   0.483 -0.2417  0.0219 -0.2847
    1W        W35061  17.972  16.965   1.120  0.2186 -0.0509 -0.0880
    1W        W35062  15.516  12.613   2.507  0.2674  0.1665  0.3608
    1W        W35063  17.281  17.903   0.481  0.0893 -0.0477  0.2746
    1W        W35064   4.134  27.920   0.761  0.1631 -0.0187  0.1555
    1W        W35065   2.846  29.530   8.223  0.0069  0.0269 -0.1954
    1W        W35066  27.599   3.779   7.566 -0.0337  0.1122  0.2101
    1W        W35067   0.092   9.745   1.475  0.3752 -0.1489 -0.1591
    1W        W35068   3.066  10.929   2.318  0.1857 -0.0837 -0.1386
    1W        W35069  20.416   7.855   1.968  0.1048  0.0669 -0.2341
    1W        W35070  15.232  21.957   7.803  0.0843 -0.2261  0.0321
    1W        W35071   4.973   3.010   7.435 -0.0966  0.0028 -0.0825
    1W        W35072  13.109   2.224   2.788  0.0327  0.0450  0.0536
    1W        W35073  14.795   2.474   2.080 -0.3385 -0.0888 -0.0453
    1W        W35074  27.157  10.248   1.026  0.2330  0.4558 -0.0395
    1W        W35075  23.748  24.169   7.154 -0.1060  0.2375 -0.1589
    1W        W35076   0.807  22.607   6.479  0.1058 -0.0561  0.1400
    1W        W35077  16.773   6.339   6.137 -0.1121  0.0828 -0.2561
    1W        W35078  14.009   8.583   1.567 -0.0890  0.3409 -0.2164
    1W        W35079   8.530  29.066   0.046 -0.3141  0.2889 -0.1700
    1W        W35080  28.598  19.324   7.392 -0.0884 -0.3335  0.2845
    1W        W35081  29.691  28.918   8.925 -0.2120 -0.1621 -0.0891
    1W        W35082  21.773  29.294   2.970 -0.0186  0.1327  0.4474
    1W        W35083   2.249  20.658   2.172 -0.0470  0.0272 -0.0788
    1W        W35084  26.386  29.575   9.294 -0.2322 -0.2531 -0.1416
    1W        W35085  12.801  13.644   1.604  0.1927  0.2334 -0.0753
    1W        W35086   9.141  24.159   7.637  0.1220 -0.0267  0.1169
    1W        W35087   0.773  12.456   0.153  0.5233 -0.0873  0.0064
    1W        W35088  27.315  28.585   6.105  0.1625 -0.2157 -0.0066
    1W        W35089  25.906  14.950   5.633 -0.1063  0.0983  0.0114
    1W        W35090   7.861  25.177   0.323 -0.0592  0.2378 -0.1419
    1W        W35091  23.331   1.657   2.859  0.3737 -0.5731 -0.0432
    1W        W35092  15.093  19.030   0.405  0.0958 -0.3597  0.2927
    1W        W35093  27.904   1.167   1.290 -0.0833 -0.2514 -0.2982
    1W        W35094   8.236  10.382   2.187 -0.0580  0.0533  0.0389
    1W        W35095  17.290  24.295   7.088  0.0008 -0.1229  0.2831
    1W        W35096   8.581   6.882   8.193  0.2480  0.3119 -0.1154
    1W        W35097  27.223   0.705   0.137 -0.1734  0.0670 -0.1495
    1W        W35098  18.204   5.984   0.512  0.3371  0.1103  0.0943
    1W        W35099  20.400   5.538   8.372  0.0956  0.0354 -0.0878
    1W        W35100  20.535  20.677   8.174 -0.2347  0.2966 -0.3194
    1W        W35101   8.167  11.855   7.102 -0.0667  0.4016 -0.2509
    1W        W35102   9.379   4.687   0.452  0.0543  0.0468  0.3319
    1W        W35103  27.867  21.100   0.275  0.2868 -0.2527 -0.4332
    1W        W35104  23.972  27.491   2.763  0.3498 -0.1281  0.1749
    1W        W35105  23.836  12.018   0.067 -0.1024  0.0449  0.2818
    1W        W35106  12.800  18.619   1.509  0.0579 -0.2484  0.0360
    1W        W35107  23.732  11.172   9.071 -0.0492 -0.0739  0.1508
    1W        W35108  26.222   2.098   1.665 -0.0941  0.1680 -0.0037
    1W        W35109  10.533  22.411   7.483 -0.3456 -0.1958  0.0112
    1W        W35110  20.953  12.524   0.335  0.2625  0.3400  0.1280
    1W        W35111  19.604  19.252   1.740 -0.1936 -0.3138  0.0244
    1W        W35112  15.703  23.484   7.302  0.0001  0.1731 -0.0238
    1W        W35113   7.609  13.773   7.831  0.1034  0.3204  0.0381
    1W        W35114  24.229   1.889   0.672  0.0266 -0.0948  0.2907
    1W        W35115   6.152  11.766   1.085 -0.1453  0.1061  0.0239
    1W        W35116  18.555   1.824   3.026 -0.0393  0.0665 -0.0422
    1W        W35117  20.654  27.612   8.301  0.0784 -0.0863  0.3831
    1W        W35118  22.085  28.180   7.848  0.2257  0.2028 -0.0992
    1W        W35119  24.869  25.938   0.071 -0.0820  0.0585 -0.3008
    1W        W35120  18.369  28.926   8.927  0.3552  0.0731  0.0535
    1W        W35121  28.021  14.135   2.689 -0.0049  0.1103  0.0680
    1W        W35122  26.127   1.528   3.182  0.1460 -0.0302 -0.1919
    1W        W35123  27.603  22.089   1.926  0.1023 -0.1704 -0.0212
    1W        W35124  22.003   4.821   0.245  0.1029 -0.2010  0.1715
    1W        W35125   9.535   7.841   2.162 -0.2200  0.3152 -0.0357
    1W        W35126  14.060  16.782   8.138  0.2551  0.0087 -0.1731
    1W        W35127  13.635   0.954   8.952  0.0105  0.0889 -0.3347
    1W        W35128  23.468  21.881   2.543  0.0750 -0.3394 -0.5519
    1W        W35129   5.857   3.090   9.099 -0.1285 -0.2660  0.0502
    1W        W35130  26.811  18.390   0.900  0.0418  0.3387  0.2056
    1W        W35131  14.638  16.111   7.617 -0.1360 -0.5797  0.1448
    1W        W35132   9.899  17.615   7.614 -0.0701 -0.1722  0.2990
    1W        W35133  26.803  28.760   8.629  0.1731 -0.1652  0.1437
    1W        W35134   5.002   0.809   2.260  0.0212 -0.1784 -0.0967
    1W        W35135   3.492  19.104   7.525  0.0721  0.0199  0.1858
    1W        W35136  28.155  13.718   2.400 -0.3078 -0.1866 -0.1997
    1W        W35137   9.295   8.524   8.683  0.2246 -0.1866  0.0470
    1W        W35138   0.837  15.298   6.703 -0.1624  0.1175  0.2857
    1W        W35139  17.872  27.185   1.137 -0.1071 -0.0343 -0.1089
    1W        W35140   9.365   4.206   7.616  0.0422  0.2346 -0.1929
    1W        W35141  18.311  26.385   7.390 -0.1414  0.2912  0.4736
    1W        W35142   2.817  21.684   7.716  0.2451  0.2906  0.1006
    1W        W35143  17.216  12.591   7.367 -0.1776 -0.0215 -0.1098
    1W        W35144  12.785   9.900   8.677 -0.1434 -0.3293  0.1763
    1W        W35145  23.759  17.577   6.976 -0.3585  0.0982  0.1961
    1W        W35146  13.671   1.493   2.601 -0.1481  0.1794 -0.0085
    1W        W35147  11.558  17.350   8.008 -0.0330 -0.0994  0.4784
    1W        W35148  14.769  15.903   8.717  0.0443  0.1784  0.2895
    1W        W35149   3.789   9.224   2.343 -0.1904  0.2387 -0.1825
    1W        W35150   6.116  17.442   6.096 -0.2727  0.2948  0.2198
    1W        W35151  22.086   2.663   1.715 -0.0672  0.2292  0.1400
    1W        W35152  25.084  17.547   1.311  0.0884 -0.0955 -0.0899
    1W        W35153  16.396  12.027   7.645  0.2443  0.1674 -0.1841
    1W        W35154  25.857  16.609   1.532  0.0742 -0.1124  0.0192
    1W        W35155   8.945  19.251   6.192 -0.4112  0.0328 -0.2450
    1W        W35156   3.834   2.526   6.927  0.0168 -0.2410  0.0835
    1W        W35157  14.914   3.098   0.330  0.1838 -0.1005  0.0567
    1W        W35158  23.467  22.922   2.307 -0.1689 -0.0961 -0.1563
    1W        W35159  12.236   8.471   0.007  0.2471 -0.3376  0.0461
    1W        W35160   8.154  10.891   1.950  0.1018 -0.0733 -0.1311
    1W        W35161  23.730  28.461   2.292 -0.0329  0.0053  0.0346
    1W        W35162  10.416   1.275   2.355  0.1594 -0.1916 -0.1396
    1W        W35163  14.356   2.569   7.914 -0.4229  0.1022  0.0983
    1W        W35164   6.945  19.926   9.347  0.1553 -0.0673 -0.1387
    1W        W35165  13.653   0.179   2.576  0.3918 -0.4199  0.2454
    1W        W35166   3.233  21.938   6.843 -0.0231  0.0403  0.1536
    1W        W35167  24.051  13.359   8.890 -0.2568  0.1600  0.2019
    1W        W35168   5.851  29.202   9.085  0.3529  0.3746  0.0631
    1W        W35169   2.054   3.854   9.397  0.1256  0.2393 -0.1929
    1W        W35170  17.979  26.101   9.078 -0.1502 -0.1586  0.1544
    1W        W35171   3.590   3.228   7.763  0.0361 -0.0177  0.1790
    1W        W35172  26.132  13.988   0.390 -0.1579 -0.1888  0.5103
    1W        W35173  19.324  26.782   6.298 -0.0554 -0.0689  0.0076
    1W        W35174  11.019  13.754   9.358 -0.3369  0.0294 -0.3126
    1W        W35175   9.635   6.531   1.766 -0.0098 -0.1650  0.2918
    1W        W35176  11.525  17.701   1.763  0.1757 -0.2178 -0.1362
    1W        W35177  15.171  24.301   0.273  0.1394 -0.1871  0.0700
    1W        W35178  24.079  14.482   2.786  0.1430 -0.0006  0.0358
    1W        W35179  24.768  16.624   1.319  0.2436 -0.0414  0.1402
    1W        W35180  12.613  19.273   2.187  0.1716 -0.0929  0.3126
    1W        W35181  27.209  18.133   2.002 -0.1479  0.0199 -0.3051
    1W        W35182  29.705   5.726   6.903 -0.1259  0.0795 -0.3107
    1W        W35183  20.095  19.746   1.451 -0.1306 -0.3438  0.0034
    1W        W35184  19.093   4.271   6.340  0.0332 -0.0215 -0.1284
    1W        W35185  17.460  26.570   3.000  0.0910 -0.1555  0.1347
    1W        W35186  16.961  13.338   8.471  0.1265  0.1772 -0.1674
    1W        W35187   9.232  20.021   6.839  0.0233 -0.0059 -0.0669
    1W        W35188  20.320  29.589   8.304 -0.0303  0.0316 -0.2133
    1W        W35189  25.871  28.582   0.798  0.3509  0.1696 -0.0733
    1W        W35190  20.066  19.360   1.944 -0.0838 -0.0082 -0.0074
    1W        W35191  14.292   5.379   9.123 -0.0373  0.0515 -0.0493
    1W        W35192  20.055  17.047   2.004  0.1438 -0.2042 -0.0141
    1W        W35193  24.636  26.676   7.074  0.1039  0.1920  0.0608
    1W        W35194   4.821   6.389   7.008  0.2771  0.4240 -0.0794
    1W        W35195   7.233   1.724   0.092 -0.2185 -0.1717  0.2800
    1W        W35196   5.196   6.041   7.990  0.2028  0.2806  0.0603
    1W        W35197   5.894   9.340   8.945  0.2617 -0.2815 -0.2421
    1W        W35198  10.123  25.100   5.951 -0.0732 -0.2168 -0.1388
    1W        W35199   4.642   8.000   8.936 -0.1840  0.0226  0.2319
    1W        W35200   7.851  10.093   1.040 -0.3119  0.2764  0.0232
    1W        W35201  11.218   0.478   3.104  0.0876 -0.0582  0.1515
    1W        W35202  13.533  19.911   9.212  0.0016 -0.0593 -0.2263
    1W        W35203  16.928  16.614   0.033 -0.1726 -0.2867 -0.0018
    1W        W35204  19.731   2.601   2.671  0.0577 -0.0705 -0.1218
    1W        W35205   0.082  11.663   1.036  0.1016 -0.1593  0.1619
    1W        W35206   8.635   7.177   1.083 -0.0134 -0.3571  0.0126
    1W        W35207  16.898  24.444   7.477 -0.1567 -0.0974  0.1330
    1W        W35208  10.930  26.135   0.240 -0.0600 -0.0180 -0.1430
    1W        W35209  13.807   2.478   1.191  0.1762 -0.1010 -0.0174
    1W        W35210   7.880   0.511   7.844 -0.0818  0.2399 -0.1004
    1W        W35211  29.461  14.361   6.925 -0.2040  0.0502 -0.0752
    1W        W35212  24.872  20.701   2.822  0.1306 -0.0635  0.2902
    1W        W35213   5.659  26.615   1.308  0.2475  0.0779  0.2279
    1W        W35214   2.464  10.168   2.494  0.3782  0.1805  0.2964
    1W        W35215  17.097  18.355   9.041  0.3045 -0.0683 -0.0211
    1W        W35216   4.505   9.125   1.067  0.2872  0.0787  0.0052
    1W        W35217  12.855   4.033   7.617 -0.2074 -0.0267  0.1507
    1W        W35218  17.645  23.113   1.992 -0.3884  0.1786 -0.3480
    1W        W35219  16.912  23.908   7.487 -0.3522  0.3425 -0.2132
    1W        W35220  13.039   4.787   0.719  0.2898 -0.0731 -0.0535
    1W        W35221  14.604  13.265   9.122 -0.0505  0.0210  0.0830
    1W        W35222  20.889  15.705   6.366  0.1330 -0.0380 -0.4457
    1W        W35223  27.889   3.455   0.276 -0.0201  0.0820 -0.3314
    1W        W35224  17.262  16.442   7.584  0.1271 -0.4058 -0.1463
    1W        W35225  18.833  21.245   8.948 -0.0817  0.1182  0.1463
    1W        W35226   6.439  27.839   0.334 -0.1428 -0.1112 -0.1607
    1W        W35227  20.296  19.611   7.520  0.0480 -0.1064 -0.2018
    1W        W35228   5.388  25.852   0.439  0.1096  0.2684 -0.3440
    1W        W35229  29.885   9.435   8.633  0.0829  0.0267 -0.1676
    1W        W35230   8.392  27.444   3.083  0.2705 -0.0097  0.0296
    1W        W35231  29.152   5.607   7.452 -0.0055  0.0214  0.3455
    1W        W35232   6.201  14.314   7.048  0.0572  0.1438  0.2145
    1W        W35233  21.680  11.291   7.237  0.0621 -0.0457  0.3941
    1W        W35234  24.172  11.978   6.777  0.1998 -0.0455  0.1109
    1W        W35235   2.769   4.796   1.909  0.1557  0.2238 -0.0409
    1W        W35236   2.132  20.658   0.214  0.0045 -0.0522 -0.0062
    1W        W35237   6.875  10.863   9.427  0.3297  0.2108 -0.0567
    1W        W35238   2.060  12.466   1.639  0.0533  0.0028 -0.1981
    1W        W35239   8.551  20.229   5.390  0.1731 -0.1886  0.1519
    1W        W35240   2.750  25.013   7.601  0.0854  0.4227  0.1055
    1W        W35241   2.853  28.833   6.787  0.1031  0.3284 -0.1554
    1W        W35242  20.855  25.019   8.303  0.0500 -0.4218  0.0256
    1W        W35243  19.648  28.655   0.648  0.0132 -0.0660 -0.0199
    1W        W35244  12.832  24.754   5.832  0.5013  0.1446  0.0056
    1W        W35245  19.596  16.755   1.237  0.0920 -0.1312  0.1726
    1W        W35246  25.690  17.201   7.388 -0.0013  0.2929  0.0625
    1W        W35247   6.018  11.054   8.249 -0.1204 -0.2600  0.1311
    1W        W35248   1.907  22.109   6.718 -0.2880  0.0285 -0.1144
    1W        W35249  27.583   2.377   7.354 -0.1196 -0.0721 -0.2791
    1W        W35250   0.666  15.071   7.406 -0.1648  0.0829 -0.3486
    1W        W35251   9.106   6.826   7.972 -0.4194  0.3894  0.1316
    1W        W35252  25.516  29.575   9.193 -0.1444  0.0607 -0.1487
    1W        W35253  28.664  18.458   7.415  0.2665  0.1665  0.1071
    1W        W35254   0.475  10.048   2.001  0.4011 -0.2498 -0.3363
    1W        W35255  18.977   2.771   2.409 -0.1289 -0.1482 -0.1985
    1W        W35256   3.480  10.934   1.776 -0.1789 -0.1252 -0.1860
    1W        W35257   8.832  25.902   1.903 -0.3239  0.1703 -0.2484
    1W        W35258  11.982  11.738   9.308 -0.0711 -0.2263 -0.1109
    1W        W35259   2.291  17.811   7.532  0.3322 -0.1063 -0.0725
    1W        W35260  17.432  28.069   0.185 -0.2491 -0.0557  0.0454
    1W        W35261  17.672   9.023   8.729 -0.4077  0.3850 -0.1625
    1W        W35262   2.236  26.186   1.714 -0.2569  0.1376  0.3510
    1W        W35263  16.975  20.133   8.041 -0.0304  0.0146  0.1592
    1W        W35264  29.228  10.624   1.277  0.1180  0.1298 -0.0012
    1W        W35265  19.253   0.896   7.008  0.1191 -0.0570  0.0873
    1W        W35266  26.673  19.810   1.120  0.0534  0.1291 -0.1710
    1W        W35267   7.507   0.677   0.539  0.1724 -0.1720  0.0400
    1W        W35268  25.630  17.312   8.551  0.3236 -0.1893  0.2984
    1W        W35269  21.152  17.863   0.291  0.0982 -0.0175  0.1421
    1W        W35270  25.619  21.108   0.322  0.0842  0.3160 -0.2794
    1W        W35271   3.694   7.524   8.304 -0.3750 -0.1122  0.0984
    1W        W35272   3.295  18.231   1.094  0.1470  0.1357 -0.3061
    1W        W35273  15.351  13.159   6.051  0.0299 -0.3126 -0.1295
    1W        W35274   6.118  13.495   1.748 -0.1923 -0.2121 -0.1483
    1W        W35275   4.961  14.800   0.470  0.3171 -0.0625  0.1213
    1W        W35276   3.609  26.537   7.289  0.2842 -0.2144 -0.0330
    1W        W35277   2.185  26.972   8.018  0.0858 -0.1069  0.0977
    1W        W35278   8.291   9.383   2.142 -0.0641  0.1075  0.0665
    1W        W35279   8.174  27.953   3.000  0.0780  0.0576 -0.0524
    1W        W35280  11.000   1.369   8.262 -0.2420 -0.1540 -0.1373
    1W        W35281  24.696  23.362   2.761 -0.2860  0.2803 -0.1367
    1W        W35282  12.992  23.006   8.120 -0.2459 -0.0524  0.1546
    1W        W35283  15.888  22.300   1.386 -0.0518 -0.2209  0.0763
    1W        W35284  22.547  17.285   8.277  0.1346  0.1274 -0.3543
    1W        W35285   4.128   8.860   8.767  0.2789 -0.0900  0.0415
    1W        W35286  18.728  25.998   8.176  0.3425 -0.3762  0.1648
    1W        W35287  27.824  10.815   0.813  0.4528  0.2335  0.2561
    1W        W35288  23.801   5.261   3.587 -0.3035  0.0810 -0.3312
    1W        W35289  26.908   5.128   2.624 -0.0072  0.2813  0.2996
    1W        W35290   4.634   3.007   3.379  0.0739  0.0413 -0.2419
    1W        W35291   9.927   1.964   8.221 -0.0046 -0.2435 -0.0964
    1W        W35292   0.556  13.655   7.337 -0.3334 -0.2210 -0.4731
    1W        W35293   1.799  23.139   6.458 -0.1501 -0.1439 -0.0257
    1W        W35294   8.684   9.048   0.772 -0.0203 -0.0572 -0.0274
    1W        W35295   7.209  25.523   1.382  0.0691  0.1423 -0.0374
    1W        W35296   9.673  21.639   1.898 -0.1905 -0.1560  0.1259
    1W        W35297  17.928  20.973   2.898  0.0246  0.2342 -0.1971
    1W        W35298  20.856   4.758   9.436 -0.3553 -0.2470  0.0423
    1W        W35299   1.553   0.585   0.584  0.4103 -0.1307 -0.4185
    1W        W35300   2.880  13.710   2.403  0.1985  0.1953 -0.0302
    1W        W35301  11.590  19.933   7.158  0.0882  0.2677  0.1646
    1W        W35302   0.381  21.218   6.890  0.0553 -0.1827 -0.1300
    1W        W35303  17.436  26.247   2.544  0.4119 -0.0030  0.0558
    1W        W35304  22.768  14.330   1.725  0.1018 -0.1020  0.0148
    1W        W35305  25.199  22.039   2.290 -0.0777  0.2436  0.1962
    1W        W35306   0.699  23.528   6.360  0.1893  0.2012  0.0835
    1W        W35307   4.711  28.478   8.615 -0.0035  0.0880  0.0436
    1W        W35308   0.077  15.933   8.666 -0.0590 -0.0932 -0.0837
    1W        W35309   5.198  28.606   7.842 -0.0836 -0.3791 -0.0328
    1W        W35310  26.684  29.600   7.521 -0.0034 -0.2252 -0.2552
    1W        W35311  27.356  13.629   7.586  0.2210 -0.2955  0.1252
    1W        W35312  21.024  21.294   9.079 -0.0613 -0.0264  0.0128
    1W        W35313  26.631  16.892   1.287  0.2882  0.1509 -0.0128
    1W        W35314   1.052  19.266   0.844 -0.1714 -0.2707  0.0131
    1W        W35315  22.731  16.333   7.007 -0.2917 -0.1820  0.1557
    1W        W35316   2.723  21.989   5.967  0.0564  0.4732 -0.1030
    1W        W35317  25.718  16.712   7.503 -0.0416  0.0636 -0.1124
    1W        W35318  25.557  29.335   0.829  0.2085 -0.1226 -0.0599
    1W        W35319  11.962   9.682   7.722  0.0423  0.0127  0.0612
    1W        W35320   3.463  11.523   6.688 -0.0918  0.1029 -0.0759
    1W        W35321   9.130  20.666   8.484  0.0864  0.0118 -0.2805
    1W        W35322  26.467  11.947   0.656  0.1996 -0.1232  0.0504
    1W        W35323   4.670  26.817   8.774  0.1451 -0.2468  0.0356
    1W        W35324  23.313  13.283   2.495 -0.2955 -0.2375  0.1726
    1W        W35325  27.002   6.747   9.343 -0.0739  0.1598  0.3684
    1W        W35326  20.236  11.932   0.764 -0.0850 -0.2286  0.2406
    1W        W35327  14.519  20.261   1.777  0.2058 -0.0390  0.2184
    1W        W35328  28.066  20.578   1.353 -0.0384  0.0754  0.3320
    1W        W35329  21.469   7.472   1.139 -0.1801  0.0623 -0.0923
    1W        W35330  27.946   6.446   8.095 -0.0448 -0.0775  0.0886
    1W        W35331  12.769  18.054   1.575 -0.1218  0.1380 -0.0845
    1W        W35332  29.305  19.862   8.152 -0.1554  0.0697  0.2620
    1W        W35333   3.838  28.674   9.044  0.1522  0.0564 -0.1382
    1W        W35334   0.754   6.902   1.074  0.2088  0.1740  0.0634
    1W        W35335  17.112   3.390   6.798 -0.2750  0.0679  0.0766
    1W        W35336   6.220   0.693   1.006 -0.1721  0.2389  0.1518
    1W        W35337   0.489  18.768   8.612  0.2489 -0.0219  0.1197
    1W        W35338  22.314  22.451   2.260  0.1190 -0.3269 -0.0204
    1W        W35339  10.613  26.410   2.419  0.1743 -0.2137 -0.1103
    1W        W35340  24.756  22.731   8.832  0.4086 -0.1074  0.2142
    1W        W35341  29.801   9.909   9.330 -0.3253 -0.0040  0.2586
    1W        W35342  29.028  13.605   1.787 -0.1069 -0.1075 -0.1455
    1W        W35343   0.619   1.085   2.910  0.1803 -0.1450 -0.1652
    1W        W35344  20.233   1.097   2.481  0.0964  0.3583  0.0154
    1W        W35345   0.874  10.050   6.483  0.3394 -0.0292  0.0957
    1W        W35346  13.872  19.075   8.285 -0.2191  0.0008  0.0439
    1W        W35347  29.792  12.447   9.217  0.3014 -0.1704  0.0105
    1W        W35348  21.526  24.622   6.060 -0.1775  0.2702 -0.1636
    1W        W35349  10.733   2.202   9.436  0.1204  0.0389 -0.3000
    1W        W35350  22.004  29.363   7.797  0.1632  0.0931  0.1419
    1W        W35351  27.290   3.794   8.968 -0.0345  0.2787 -0.0616
    1W        W35352  22.653  13.266   8.297 -0.0614 -0.1676 -0.0027
    1W        W35353  24.081  26.503   0.628  0.1332  0.1806  0.0973
    1W        W35354   2.596   8.808   6.838  0.2029  0.2315 -0.0510
    1W        W35355   9.679   8.268   8.972  0.0190  0.3456  0.0611
    1W        W35356  16.951  20.820   6.722 -0.2275  0.0927 -0.0912
    1W        W35357   3.802  16.966   7.326 -0.0330  0.2896 -0.0792
    1W        W35358   5.381  23.401   0.536 -0.0308 -0.0780 -0.0256
    1W        W35359  11.555   6.749   2.507 -0.1740  0.0889 -0.0612
    1W        W35360  11.266  18.315   0.750  0.2831  0.0227 -0.0749
    1W        W35361  15.024   4.057   0.161 -0.1469 -0.3024 -0.0840
    1W        W35362  29.701   0.847   0.491 -0.4625  0.0961 -0.2023
    1W        W35363   9.382  15.543   8.605  0.0821  0.2472 -0.0106
    1W        W35364  10.964   1.514   0.077 -0.2892 -0.0464 -0.0790
    1W        W35365  27.879  20.779   9.203 -0.0472  0.0117  0.2147
    1W        W35366   4.135  13.259   1.357 -0.0096  0.1158  0.1145
    1W        W35367  16.269  16.653   8.713 -0.3064 -0.1135 -0.1312
    1W        W35368  24.689   6.939   7.609 -0.0346  0.0509  0.3719
    1W        W35369   3.975   2.491   3.015  0.0613  0.1680 -0.2848
    1W        W35370  15.667  22.516   9.415 -0.1850  0.2967 -0.1137
    1W        W35371  27.206  17.921   8.416  0.3305  0.1319  0.2773
    1W        W35372  19.359  14.486   7.761  0.1143  0.4501  0.1850
    1W        W35373   8.061  27.731   6.513 -0.3020 -0.1547 -0.1872
    1W        W35374  27.169   7.352   5.994  0.1727  0.0825 -0.2651
    1W        W35375  26.026   0.117   7.643 -0.1474  0.3905  0.2510
    1W        W35376  18.636  12.441   8.847 -0.0534 -0.0440  0.0479
    1W        W35377  29.475  21.810   6.264 -0.2305  0.1399 -0.0331
    1W        W35378  24.373   4.020   2.905  0.1501 -0.0101 -0.1674
    1W        W35379   5.450  24.788   9.430 -0.0012  0.0287  0.1087
    1W        W35380   8.720  25.636   8.977 -0.0960 -0.0626 -0.1069
    1W        W35381   8.018  26.606   7.665 -0.2812 -0.0864 -0.0028
    1W        W35382  19.944  24.165   2.858  0.2906 -0.0104  0.1972
    1W        W35383   9.698  26.167   2.258  0.1354  0.0031  0.1238
    1W        W35384  29.594  11.562   0.399 -0.4383 -0.2976  0.1014
    1W        W35385  16.305   2.408   1.599 -0.1599  0.0488 -0.1717
    1W        W35386  18.906  24.855   7.884  0.1765 -0.2715  0.0483
    1W        W35387   1.421  27.626   0.250 -0.2226 -0.0586  0.0938
    1W        W35388  17.824  11.257   0.953 -0.1832 -0.2625 -0.0053
    1W        W35389  19.306  28.637   9.209  0.1819 -0.1235 -0.0676
    1W        W35390  28.166  16.486   2.110 -0.2291 -0.1058  0.1219
    1W        W35391  10.214  19.468   7.316 -0.2974  0.1058 -0.1181
    1W        W35392   2.552   6.123   1.067 -0.2965  0.1001 -0.3612
    1W        W35393   5.297  12.453   2.078 -0.3213 -0.1004  0.1388
    1W        W35394   1.858  19.216   5.947  0.0890  0.0536  0.0741
    1W        W35395  10.430   5.085   9.167  0.1414 -0.0584 -0.1682
    1W        W35396   4.184  14.219   5.835  0.0055 -0.2971  0.1451
    1W        W35397  14.837  24.690   6.862  0.2601 -0.0590  0.3017
    1W        W35398  22.433   2.351   2.039 -0.3713  0.0315 -0.2185
    1W        W35399   1.368   3.346   6.460  0.1853 -0.2237 -0.1145
    1W        W35400  16.374   7.134   8.386 -0.1833  0.1344 -0.1227
    1W        W35401   2.892  21.799   0.772 -0.0504 -0.1594 -0.0590
    1W        W35402  29.427   4.350   8.662  0.2044 -0.0462 -0.3458
    1W        W35403  15.451   5.274   1.462  0.0757 -0.0316  0.2938
    1W        W35404   5.169   5.996   0.900 -0.0436 -0.0669 -0.1210
    1W        W35405   8.955  28.877   2.419  0.1839 -0.1402 -0.0289
    1W        W35406  13.956   3.821   8.318 -0.2319  0.2515 -0.1116
    1W        W35407  17.441  23.995   6.714 -0.0531 -0.5558 -0.1340
    1W        W35408  12.059  27.346   8.933  0.1429  0.3645 -0.0128
    1W        W35409  24.793  12.092   0.129  0.3093 -0.2358  0.3335
    1W        W35410  24.052  21.694   8.242  0.0498 -0.0501  0.3772
    1W        W35411  26.048  23.982   8.307  0.0760  0.2845  0.0774
    1W        W35412  11.394  21.661   2.044  0.1571  0.0634 -0.0276
    1W        W35413  10.727  23.256   1.662  0.0318  0.1165 -0.4195
    1W        W35414  10.541  13.796   9.122 -0.0044 -0.1627  0.1104
    1W        W35415  15.570  16.719   1.479  0.2581  0.1046 -0.2543
    1W        W35416  11.960  20.864   1.128 -0.0299  0.1608 -0.0803
    1W        W35417  22.069  23.346   7.013 -0.1311 -0.0517 -0.0626
    1W        W35418  26.751   5.337   8.141 -0.1360  0.0905  0.3745
    1W        W35419   0.708  26.066   1.710 -0.3196 -0.2610 -0.3510
    1W        W35420   4.391  19.630   0.369 -0.0339  0.1662  0.1864
    1W        W35421   2.239  12.144   2.147  0.0727 -0.2549  0.0172
    1W        W35422  11.401  12.934   9.393  0.1310 -0.0480 -0.1916
    1W        W35423  22.156   8.627   0.279 -0.2159  0.1461 -0.0923
    1W        W35424  18.445   7.126   6.958  0.0450  0.2750 -0.0046
    1W        W35425  24.063  16.862   7.502  0.2427 -0.0781  0.1324
    1W        W35426  20.048   5.646   6.741  0.0655 -0.1020  0.2144
    1W        W35427  20.829  28.048   8.182 -0.0058  0.3903 -0.0332
    1W        W35428  27.160  23.701   8.798 -0.0079  0.0322 -0.1589
    1W        W35429   3.626   5.953   2.167  0.2169 -0.2256 -0.0944
    1W        W35430   8.116   1.289   7.152 -0.1981  0.2117 -0.0582
    1W        W35431   7.348  27.152   1.146  0.1367  0.0904  0.0027
    1W        W35432   6.290   0.730   8.422  0.1996 -0.1037  0.2594
    1W        W35433  24.806  10.836   7.932  0.0870 -0.1300  0.1338
    1W        W35434  12.761  24.269   6.004 -0.1991 -0.2450  0.2362
    1W        W35435  20.996  24.534   3.331  0.1128  0.0622 -0.1404
    1W        W35436  29.322  17.563   0.701  0.2996 -0.1451  0.0246
    1W        W35437   1.966  20.511   1.796 -0.0091  0.1199 -0.1292
    1W        W35438  21.235  10.960   7.969 -0.1110  0.3161 -0.0849
    1W        W35439   1.550  26.223   6.874  0.1837 -0.0795  0.0161
    1W        W35440   4.397  22.799   2.213  0.2738  0.0413 -0.2999
    1W        W35441  27.814  14.572   7.302  0.1351  0.0929  0.0854
    1W        W35442  10.777   8.069   8.864  0.0513  0.2985  0.2571
    1W        W35443   4.616  23.383   6.108  0.2468  0.0864 -0.0318
    1W        W35444   3.341  10.804   7.656 -0.1914  0.0106 -0.1850
    1W        W35445  14.257   4.998   7.274 -0.0779 -0.0509 -0.0570
    1W        W35446  25.655   7.043   7.301 -0.1098  0.1566 -0.0789
    1W        W35447   5.627  27.519   1.115  0.0651  0.2970 -0.1178
    1W        W35448   1.625  12.442   2.942  0.1110  0.1527  0.2599
    1W        W35449  23.196   1.101   1.866 -0.0748 -0.2569 -0.1097
    1W        W35450  21.516  17.583   0.126  0.0320  0.1743  0.1120
    1W        W35451  28.269  23.204   9.132 -0.2542  0.0099 -0.0681
    1W        W35452  19.922   9.674   2.038  0.1349 -0.2007  0.0650
    1W        W35453  11.098   0.106   0.171  0.1965 -0.0625 -0.0271
    1W        W35454   8.923  20.183   7.937 -0.0957  0.1685 -0.1510
    1W        W35455  24.726  26.439   6.522  0.0207 -0.0943  0.1009
    1W        W35456   9.957  25.509   1.108 -0.1874  0.0595  0.0206
    1W        W35457  26.236  20.871   0.820 -0.0133  0.1459 -0.0165
    1W        W35458  14.156  25.801   7.824 -0.4568  0.0505  0.1440
    1W        W35459  23.433  18.691   2.700  0.1072  0.0770 -0.1460
    1W        W35460  28.651   8.239   8.029 -0.2861 -0.1374 -0.1898
    1W        W35461  23.276   5.437   2.756  0.0416  0.1467 -0.1491
    1W        W35462   3.097  29.087   7.102 -0.0189 -0.0728 -0.1618
    1W        W35463  16.547   8.598   7.016 -0.0973 -0.0228  0.0210
    1W        W35464   2.863  28.065   1.885  0.2314 -0.1462  0.1719
    1W        W35465   7.364  19.106   1.463 -0.0433 -0.1824  0.1704
    1W        W35466  27.899  21.861   6.771  0.1240  0.0125 -0.0349
    1W        W35467  25.491   5.388   1.995  0.2676 -0.2964  0.0417
    1W        W35468  13.584   1.936   7.725  0.2204  0.2334  0.1133
    1W        W35469   6.159   1.624   9.302  0.1629  0.1132  0.1915
    1W        W35470   2.949  25.442   6.788 -0.0954 -0.2151  0.1203
    1W        W35471  29.562  29.449   8.568 -0.1723  0.2165 -0.3812
    1W        W35472   9.262  14.416   1.649 -0.2702 -0.0763 -0.0497
    1W        W35473  10.693  13.336   2.298 -0.2256 -0.0364  0.2084
    1W        W35474   8.383  25.644   1.420  0.0763 -0.4041 -0.3354
    1W        W35475   2.662  18.399   0.159  0.1218  0.0079  0.1543
    1W        W35476  24.190   5.170   1.957 -0.3933 -0.1526  0.1579
    1W        W35477  15.772   4.253   2.326  0.2422 -0.0849  0.0543
    1W        W35478  15.615   5.806   8.995  0.0998  0.1227 -0.1545
    1W        W35479  18.355   3.036   1.726 -0.4304 -0.0403 -0.0212
    1W        W35480  24.279   4.986   2.912  0.1851  0.3927  0.1592
    1W        W35481   3.157   1.488   8.147  0.0569  0.1502  0.1270
    1W        W35482   1.698   9.436   3.099  0.1408  0.3767 -0.1148
    1W        W35483  26.186  10.128   8.897  0.2913  0.0006  0.1581
    1W        W35484  15.439  17.552   8.337  0.1005  0.2314  0.0100
    1W        W35485   7.016  10.365   9.328 -0.0673 -0.0502  0.1571
    1W        W35486   6.414   2.357   7.576  0.2732 -0.1754  0.1735
    1W        W35487  20.623  16.966   1.436  0.0682  0.3771 -0.1137
    1W        W35488   5.235   6.304   1.356 -0.2721 -0.0449 -0.0341
    1W        W35489  11.945  14.959   0.862  0.0267 -0.2341  0.0523
    1W        W35490   8.222   0.989   1.129 -0.1648  0.1220 -0.0062
    1W        W35491  12.289  29.498   9.299  0.1168 -0.1310 -0.3277
    1W        W35492  21.640   1.972   1.273 -0.0813  0.1167  0.1400
    1W        W35493  12.021   1.757   0.175 -0.1134 -0.3464  0.3665
    1W        W35494  24.237   4.094   0.122 -0.1292  0.1896  0.0446
    1W        W35495  25.627   5.452   8.182  0.1393 -0.3040 -0.1702
    1W        W35496  13.424  21.434   2.083 -0.3370 -0.0857 -0.1671
    1W        W35497   6.596  14.800   8.388 -0.0079  0.2150  0.0429
    1W        W35498   0.189  10.206   7.213 -0.0499 -0.0348  0.1110
    1W        W35499   7.794   0.021   2.511  0.0657 -0.1555  0.0806
    1W        W35500  25.439   2.442   7.485 -0.0346  0.1420  0.3089
    1W        W35501  16.820   5.349   2.779 -0.0390 -0.0206 -0.0607
    1W        W35502  24.845  21.271   1.272 -0.1986 -0.1329  0.0158
    1W        W35503   1.158   5.504   1.859 -0.1189  0.3439  0.0725
    1W        W35504  28.371  15.840   9.276 -0.3606 -0.1259 -0.2380
    1W        W35505  20.650   7.866   0.126 -0.1222 -0.0437 -0.0450
    1W        W35506   3.147  12.000   2.032 -0.0380  0.2646  0.1593
    1W        W35507   0.736  15.737   1.028  0.0911  0.4811 -0.2348
    1W        W35508  19.559   6.835   7.670  0.2553  0.1505  0.3552
    1W        W35509   2.500  17.366   7.325 -0.1156  0.1477 -0.1481
    1W        W35510  26.541  29.673   0.959  0.2665 -0.3972  0.0229
    1W        W35511   6.980   5.155   7.894 -0.0392  0.1984 -0.1729
    1W        W35512  27.064   3.391   2.124 -0.1057 -0.3259  0.0757
    1W        W35513   4.219   1.182   2.124  0.0259 -0.2003  0.3512
    1W        W35514  26.728  22.527   0.427  0.0200  0.2227  0.1476
    1W        W35515  17.005   5.593   0.463  0.1999  0.0462 -0.0293
    1W        W35516  16.440  17.486   8.185 -0.0167  0.0118 -0.0564
    1W        W35517  11.637   1.703   2.765 -0.0008 -0.1078 -0.0434
    1W        W35518  21.231  12.318   1.614  0.0506 -0.0552  0.1902
    1W        W35519   3.003  26.798   7.176  0.2983 -0.1308 -0.0966
    1W        W35520  27.728  15.339   7.290  0.2755  0.0750  0.0752
    1W        W35521  20.126  18.806   9.368  0.1072 -0.0174 -0.0850
    1W        W35522  26.438   9.448   1.809 -0.1904 -0.2076  0.1518
    1W        W35523  11.819  23.154   5.924 -0.0406  0.2001  0.1647
    1W        W35524  16.444  29.496   7.467 -0.0066 -0.3167  0.0888
    1W        W35525  12.868  27.383   1.173  0.0951  0.0119  0.0418
    1W        W35526  19.081   9.231   2.683  0.3890  0.1846  0.1952
    1W        W35527  14.554  13.725   8.158  0.1151 -0.0895  0.1181
    1W        W35528   9.889  18.536   0.756  0.1993  0.1319  0.0873
    1W        W35529   5.606  16.757   6.360 -0.2452 -0.0927 -0.0702
    1W        W35530   5.504  17.994   8.600  0.0370 -0.0338  0.0797
    1W        W35531  11.491  20.826   0.859 -0.1270  0.4443 -0.1043
    1W        W35532  28.825   7.693   6.749  0.2159 -0.1896 -0.1454
    1W        W35533   7.519  20.220   6.238  0.0940  0.0504  0.2387
    1W        W35534  13.115  25.157   1.664  0.2780  0.1795 -0.0903
    1W        W35535  19.615  27.471   1.361  0.1745  0.2070 -0.1578
    1W        W35536   7.226  16.440   8.104  0.1596 -0.2937 -0.0872
    1W        W35537  22.856  25.027   6.544 -0.2698  0.3415 -0.1427
    1W        W35538  24.345  28.009   7.994 -0.1191 -0.1397 -0.1594
    1W        W35539   2.293  13.470   7.172 -0.0144  0.1516 -0.2733
    1W        W35540  15.305  28.443   8.218 -0.1497 -0.2045  0.0181
    1W        W35541  25.453  22.490   1.985 -0.1908 -0.0833  0.0568
    1W        W35542  26.623  19.683   7.342  0.1434 -0.1105 -0.0133
    1W        W35543  10.788  16.430   0.696  0.2563 -0.0035  0.1335
    1W        W35544  25.244  19.649   7.660  0.0717 -0.3159  0.0427
    1W        W35545   9.750   2.824   1.294 -0.1849 -0.1003  0.0997
    1W        W35546   6.054   7.207   7.471  0.1160 -0.0637  0.0702
    1W        W35547  14.187  15.030   8.566  0.3621  0.2025  0.1250
    1W        W35548  10.681  15.590   9.193  0.0233  0.3136 -0.0151
    1W        W35549   8.841  20.317   1.697 -0.0527 -0.0608 -0.1293
    1W        W35550   3.186  27.907   0.404 -0.1158 -0.1583 -0.1844
    1W        W35551  22.868   2.592   2.279  0.0263 -0.0885 -0.0893
    1W        W35552   8.941   5.643   1.991 -0.0188 -0.0361 -0.0700
    1W        W35553  23.075  26.992   7.265 -0.0876 -0.1773  0.0995
    1W        W35554  15.602  14.045   0.639  0.0699  0.0169 -0.3105
    1W        W35555   4.091   7.174   8.035  0.1065 -0.4411  0.0543
    1W        W35556   4.987  29.231   1.085 -0.2432 -0.1889  0.2570
    1W        W35557   1.410  10.359   2.429 -0.1283  0.0460 -0.0588
    1W        W35558  13.590  17.154   0.146 -0.2412 -0.1226 -0.1003
    1W        W35559  23.869   4.475   8.882 -0.2450  0.0933  0.0482
    1W        W35560  11.611   6.837   1.557 -0.4259 -0.0829  0.0095
    1W        W35561   5.683   3.931   8.208  0.3433  0.0569 -0.0553
    1W        W35562  25.875  27.057   2.266 -0.2029  0.0362 -0.0753
    1W        W35563   0.621  29.233   0.954 -0.0893  0.0524 -0.1003
    1W        W35564  16.313  23.520   8.895 -0.1737  0.0963 -0.1459
    1W        W35565  22.622   4.680   8.092  0.0390  0.1275 -0.0982
    1W        W35566   9.365  22.373   2.139 -0.0953 -0.3142  0.3860
    1W        W35567   0.004  27.967   2.151 -0.2112 -0.0250 -0.0261
    1W        W35568   5.996  20.538   8.039 -0.4926  0.0036 -0.2641
    1W        W35569   8.880  21.863   1.516  0.1469 -0.2130  0.2867
    1W        W35570  29.517   6.130   7.874  0.2469  0.2794 -0.1547
    1W        W35571  18.733  14.765   8.208 -0.2268  0.0789 -0.0705
    1W        W35572  21.504  11.789   8.354  0.1848 -0.0816  0.0641
    1W        W35573  11.204  24.348   0.729 -0.1592  0.2403 -0.0079
    1W        W35574  25.111   6.537   0.035 -0.1610  0.0722 -0.1178
    1W        W35575   5.295  14.850   7.810  0.3165 -0.1708  0.1247
    1W        W35576   0.483  21.285   2.097 -0.1283 -0.0489 -0.0339
    1W        W35577   5.664   3.498   2.939  0.1310 -0.0074 -0.2048
    1W        W35578  11.380  27.545   3.375  0.0592 -0.1392 -0.0483
    1W        W35579  22.260  27.642   8.768  0.0368 -0.0433 -0.0520
    1W        W35580   7.567  19.625   1.444  0.1241  0.3195 -0.2588
    1W        W35581   2.375   6.759   3.158  0.2967  0.1844  0.0687
    1W        W35582  25.980  29.378   1.550  0.1387 -0.0793  0.1324
    1W        W35583  12.624   3.070   7.658  0.0623 -0.2645  0.1461
    1W        W35584   7.019  14.139   1.752 -0.2101  0.0493  0.3580
    1W        W35585  10.359  20.031   9.081 -0.4214 -0.1080 -0.0047
    1W        W35586  20.890   0.113   8.712 -0.1487 -0.1798  0.0441
    1W        W35587  29.143   9.680   0.744  0.0214 -0.0597  0.0814
    1W        W35588  15.788  18.478   7.089  0.1113 -0.0235 -0.1588
    1W        W35589  21.618  12.897   8.763 -0.1373 -0.0730  0.1018
    1W        W35590   5.926  18.641   1.632  0.0826  0.1772  0.2793
    1W        W35591  20.885   8.332   1.284  0.0728  0.0196 -0.0964
    1W        W35592   2.550   8.829   0.545  0.0809 -0.1272  0.0117
    1W        W35593  18.772  12.959   0.679  0.1452 -0.1819 -0.1322
    1W        W35594   0.454  16.259   9.205  0.2206 -0.3020 -0.2549
    1W        W35595  17.837   8.269   1.681 -0.2151  0.0762  0.4200
    1W        W35596   8.124  18.764   9.071  0.1999  0.0516  0.4285
    1W        W35597  13.965  18.921   9.158 -0.1898  0.0342 -0.1230
    1W        W35598  16.906  29.176   1.972 -0.0240 -0.3003 -0.0525
    1W        W35599   5.411   9.143   1.351 -0.2325 -0.0293 -0.3604
    1W        W35600  17.820  17.229   7.613 -0.3171 -0.1161  0.1216
    1W        W35601   4.935  12.494   8.663 -0.0062  0.1499 -0.2665
    1W        W35602  27.997  19.498   7.751  0.0064  0.0566  0.1399
    1W        W35603  15.319   6.369   2.803 -0.0297 -0.2481 -0.0072
    1W        W35604   1.658  11.534   2.012  0.0186  0.2360 -0.0925
    1W        W35605  19.462   6.003   1.458 -0.0552 -0.0108  0.1042
    1W        W35606   1.220  23.131   6.913  0.2011  0.0526 -0.1846
    1W        W35607  12.222   5.999   9.052 -0.0836 -0.1969 -0.1328
    1W        W35608   6.892   0.401   1.892  0.1753 -0.1643 -0.0814
    1W        W35609  20.048   7.996   0.586  0.1693 -0.1726 -0.0508
    1W        W35610   6.488  20.168   6.434  0.0644  0.3052  0.1064
    1W        W35611  13.126  17.481   2.196  0.1620  0.0562 -0.2720
    1W        W35612  29.103   9.317   8.317 -0.0863 -0.1937 -0.0015
    1W        W35613  16.136  28.210   2.769  0.4006  0.0882 -0.3891
    1W        W35614   4.033   1.352   8.342 -0.0468 -0.1710 -0.0058
    1W        W35615  20.605  14.254   9.143 -0.2226 -0.3027  0.1398
    1W        W35616  20.229  26.871   8.422 -0.1039  0.0339 -0.0444
    1W        W35617   5.768   3.466   6.935  0.2394 -0.0869  0.0630
    1W        W35618   0.774  19.114   1.857 -0.2558  0.1372 -0.1663
    1W        W35619   1.666  25.698   7.737  0.0626 -0.2689  0.1745
    1W        W35620  24.576   4.488   9.424 -0.1937 -0.0715  0.2908
    1W        W35621   0.445   6.434   0.071 -0.0250  0.0782 -0.4196
    1W        W35622  28.065  27.435   2.117 -0.1927  0.0081 -0.1550
    1W        W35623   5.112  28.700   0.819 -0.0355  0.0995 -0.4511
    1W        W35624   3.395   1.603   3.052  0.3696  0.3077  0.1813
    1W        W35625  24.174  25.866   0.124 -0.1522  0.0548  0.1690
    1W        W35626  17.107   2.919   8.628 -0.1383  0.1990  0.0791
    1W        W35627  29.553   9.124   0.261 -0.1332  0.1062 -0.0169
    1W        W35628  11.594  28.738   7.864  0.0085  0.0223 -0.1785
    1W        W35629   5.015  29.877   6.800 -0.1201  0.0249 -0.2205
    1W        W35630   9.142  15.180   6.371 -0.1113 -0.0951  0.1477
    1W        W35631  21.581   7.039   7.014 -0.0087  0.0423 -0.1915
    1W        W35632   5.887   3.240   8.642  0.0780  0.0110 -0.3171
    1W        W35633  28.814  20.798   2.163  0.0216  0.2335 -0.0874
    1W        W35634  17.218   8.860   1.276 -0.1250 -0.0034  0.0623
    1W        W35635  10.339  16.998   8.814 -0.1756 -0.1133 -0.4023
    1W        W35636   4.016  12.541   6.764  0.1845  0.0874 -0.0078
    1W        W35637  14.951  17.219   9.143 -0.0532  0.2951  0.0450
    1W        W35638  12.474  29.829   8.883 -0.1083 -0.1201  0.0494
    1W        W35639  25.318  26.042   6.927  0.0019  0.1696  0.0248
    1W        W35640  27.181   1.072   1.629  0.1491  0.1516 -0.1874
    1W        W35641  21.087   2.211   0.694 -0.1760 -0.0061 -0.0610
    1W        W35642   9.041  26.320   2.242  0.1976 -0.2697 -0.0882
    1W        W35643   5.894  21.994   9.406  0.1975 -0.0009 -0.3503
    1W        W35644  19.879  21.163   8.616  0.0660  0.3598  0.0730
    1W        W35645  23.993  14.662   7.153 -0.0200  0.0069 -0.3260
    1W        W35646  23.336  18.118   1.905  0.1271  0.1881  0.0934
    1W        W35647  17.669  27.217   2.259  0.3287  0.2872 -0.0569
    1W        W35648  20.909   6.860   0.737 -0.0190 -0.2106 -0.0562
    1W        W35649  16.510  26.388   8.141  0.1553  0.1758 -0.2475
    1W        W35650  18.327  19.167   0.166  0.0960  0.0241  0.1545
    1W        W35651  14.107  14.475   8.007 -0.0992  0.0647  0.0471
    1W        W35652  13.571  18.897   7.892  0.3135  0.2076 -0.0149
    1W        W35653  12.903  11.191   8.401 -0.0269 -0.0375 -0.2872
    1W        W35654   0.454  29.210   6.731 -0.3811 -0.2945  0.0576
    1W        W35655  18.305  26.628   0.092  0.1353  0.1966  0.1076
    1W        W35656   6.838  20.199   1.676  0.2028 -0.3420  0.2632
    1W        W35657  11.891  12.096   8.818 -0.0780  0.0149 -0.3996
    1W        W35658  14.438  18.361   1.041 -0.0255  0.2376 -0.1684
    1W        W35659  22.014   6.378   0.790 -0.0542  0.2158  0.0910
    1W        W35660   3.468  15.495   1.410 -0.1075  0.1384  0.0733
    1W        W35661   0.451  24.983   0.091  0.0045  0.3023  0.0134
    1W        W35662  17.253  19.002   1.893 -0.0115 -0.0848 -0.0298
    1W        W35663  17.432  20.799   2.179  0.1929  0.2724 -0.0085
    1W        W35664   7.509  28.232   0.189  0.1854  0.0823  0.2108
    1W        W35665  28.697  24.587   6.736 -0.2145  0.3504  0.0935
    1W        W35666  10.378  28.404   2.730  0.1682  0.1894  0.0395
    1W        W35667   0.330  16.925   7.877 -0.3313  0.1248  0.0896
    1W        W35668   9.848  23.589   1.885  0.0260  0.0350  0.2113
    1W        W35669  11.103  28.057   1.389 -0.1962 -0.0331  0.0260
    1W        W35670   3.082  11.746   7.512  0.1566 -0.0071  0.2627
    1W        W35671  13.302  25.751   1.969  0.0339  0.0110 -0.1435
    1W        W35672  19.917  24.075   8.306  0.0571  0.1595 -0.0431
    1W        W35673  21.674  16.796   9.285  0.2030 -0.0625 -0.1106
    1W        W35674  27.230   7.554   9.240 -0.0701 -0.0273  0.3289
    1W        W35675   1.826   7.104   1.510  0.1501 -0.0832  0.0022
    1W        W35676   1.358  21.365   6.906 -0.0465  0.2468  0.3073
    1W        W35677  16.338  12.820   0.999 -0.4414  0.0487 -0.3506
    1W        W35678   0.711   0.121   1.379  0.0724 -0.0255  0.2833
    1W        W35679   5.278  28.124   6.583  0.0385  0.3707 -0.0105
    1W        W35680   7.944  24.085   7.234  0.1159 -0.1259  0.0596
    1W        W35681  15.307  22.621   8.973 -0.1936 -0.1357  0.1679
    1W        W35682  24.160   2.070   0.143 -0.0203 -0.1205  0.2843
    1W        W35683  10.923   2.119   6.586  0.0042  0.2286 -0.0959
    1W        W35684  15.712  16.078   0.254  0.0571  0.3092  0.1806
    1W        W35685   7.256   5.438   1.424  0.2545  0.1051 -0.1639
    1W        W35686  29.695  10.337   1.362 -0.2583 -0.1959  0.2637
    1W        W35687  10.781  15.679   0.359 -0.0922  0.1584  0.1960
    1W        W35688   2.052  14.366   0.832  0.3744  0.0521  0.0740
    1W        W35689  24.282  22.455   6.389  0.0263 -0.2394 -0.0028
    1W        W35690   3.484   7.956   3.030 -0.0605  0.0537  0.2758
    1W        W35691   6.549   5.709   2.020  0.0512  0.3637 -0.2958
    1W        W35692  17.099  19.165   0.867  0.4758 -0.0736  0.2219
    1W        W35693  20.796   0.131   1.123 -0.1783 -0.2491 -0.0141
    1W        W35694  26.297   3.740   7.390  0.3000 -0.0444  0.1271
    1W        W35695  10.687   4.521   8.190  0.2869 -0.0431  0.0411
    1W        W35696   6.747   6.576   8.167 -0.2149 -0.1581 -0.1104
    1W        W35697  19.436  26.216   1.969 -0.0838 -0.1926  0.2830
    1W        W35698   3.588  11.603   8.244 -0.1589  0.0034 -0.1461
    1W        W35699   0.534   9.098   7.428 -0.0287 -0.0850 -0.2424
    1W        W35700  27.201   2.933   2.038  0.3014 -0.1007  0.0522
    1W        W35701   6.402  27.310   0.273  0.0695  0.0332 -0.1786
    1W        W35702  11.031  21.119   1.159  0.1736  0.0470 -0.2740
    1W        W35703  29.320  12.087   8.058  0.2174 -0.3034  0.2810
    1W        W35704  11.397  27.734   8.914 -0.0631 -0.0418 -0.0971
    1W        W35705  21.894  19.230   9.124 -0.1965 -0.0380 -0.4242
    1W        W35706  13.994  26.418   2.105  0.1462 -0.0388  0.0962
    1W        W35707  17.285  25.351   9.367  0.2643  0.0388  0.0446
    1W        W35708  28.881  21.949   2.198 -0.2003  0.0701  0.0454
    1W        W35709   2.883   6.289   2.367  0.2061 -0.0628 -0.0995
    1W        W35710  22.957   4.903   1.501 -0.2663 -0.1012 -0.2821
    1W        W35711  26.649   3.490   0.296 -0.1876  0.0071  0.0273
    1W        W35712  13.050  18.396   1.917 -0.1989 -0.4186 -0.1493
    1W        W35713   2.598   2.977   2.249 -0.0225  0.2952  0.2079
    1W        W35714  19.441  26.885   0.179 -0.5901  0.0416 -0.0754
    1W        W35715  24.574  15.121   0.329  0.1632  0.0152  0.1897
    1W        W35716   0.191  18.132   7.135  0.2575  0.2497  0.3744
    1W        W35717   4.789   7.475   6.184 -0.3499 -0.1110 -0.1208
    1W        W35718   2.430  13.920   9.123  0.0951 -0.1445  0.2234
    1W        W35719   0.919  14.475   2.605 -0.0002 -0.0429 -0.0827
    1W        W35720   3.143  18.833   1.473 -0.0579  0.2313  0.1591
    1W        W35721  17.467   3.721   0.049  0.2359 -0.0620  0.1156
    1W        W35722  26.829  26.883   0.558 -0.0741  0.0672  0.2417
    1W        W35723  17.795   3.925   2.639  0.2228 -0.2086  0.0229
    1W        W35724  29.355   1.120   3.004  0.1514  0.1466  0.2673
    1W        W35725  24.179  27.571   7.843  0.0784  0.1054 -0.2999
    1W        W35726  14.727   9.675   8.374  0.2008  0.0220 -0.1349
    1W        W35727  20.933  16.219   7.377 -0.0067  0.1160 -0.0527
    1W        W35728  22.275  21.839   3.759  0.2012 -0.1270 -0.0224
    1W        W35729   6.368  29.164   0.136  0.0789 -0.0409  0.0075
    1W        W35730   3.188  17.021   2.744  0.2262 -0.0945 -0.0518
    1W        W35731  21.257   3.581   8.064 -0.0369  0.0220 -0.1068
    1W        W35732   4.560  18.417   6.049 -0.0164 -0.1902  0.1532
    1W        W35733  19.758  12.482   9.053  0.3757  0.1351  0.1158
    1W        W35734  23.303   8.193   8.623 -0.1288 -0.0356  0.0505
    1W        W35735  16.640  12.575   7.593 -0.1338 -0.1650 -0.0743
    1W        W35736   7.850  23.892   9.322  0.3366 -0.1533  0.2290
    1W        W35737  21.577   5.246   7.648 -0.0188  0.0122 -0.1210
    1W        W35738  25.594   0.308   2.349 -0.3955 -0.1106 -0.0254
    1W        W35739   8.279   4.362   0.632 -0.1976  0.0477  0.1203
    1W        W35740   7.084  28.053   1.307  0.2005 -0.1918  0.3054
    1W        W35741   2.532   3.613   3.075  0.0444 -0.1208 -0.1163
    1W        W35742   8.286   8.672   3.144  0.0640 -0.1743 -0.0904
    1W        W35743  18.834  24.919   0.695  0.2360  0.3003  0.1869
    1W        W35744  26.636  18.055   9.339  0.0369  0.1377  0.3111
    1W        W35745  15.959  26.955   1.491  0.1615 -0.1977 -0.2209
    1W        W35746  28.758  29.608   1.812  0.1543  0.0168 -0.1001
    1W        W35747   4.255  25.344   6.060 -0.0494 -0.0754  0.0080
    1W        W35748  29.716  11.084   8.639  0.1492  0.2709  0.1056
    1W        W35749   7.578   5.958   1.978 -0.1678 -0.3032 -0.1958
    1W        W35750   0.318   9.090   6.648  0.0446 -0.0979  0.1718
    1W        W35751  22.443   9.632   1.082 -0.1347 -0.0680  0.0422
    1W        W35752   7.128  29.593   8.939 -0.1143  0.1895  0.0823
    1W        W35753  10.272  23.971   9.222 -0.1291 -0.0648  0.1647
    1W        W35754  26.562   6.160   8.052 -0.2358  0.1379 -0.1022
    1W        W35755  16.248  11.215   2.034 -0.1045 -0.1066  0.2017
    1W        W35756  20.984  19.800   1.729 -0.2686 -0.0542 -0.0191
    1W        W35757  16.051  29.672   2.499 -0.0409  0.2149 -0.4141
    1W        W35758  11.251  27.096   3.587  0.0656 -0.1866 -0.1112
    1W        W35759   5.533  20.218   9.299 -0.1460 -0.1236 -0.3749
    1W        W35760   5.940  29.701   2.329 -0.1058 -0.0074 -0.0848
    1W        W35761   6.844   4.835   1.393  0.0952  0.2554  0.0662
    1W        W35762  20.279  11.246   9.157  0.2881 -0.0329 -0.2784
    1W        W35763  29.551   1.375   0.351 -0.2537  0.1730 -0.1097
    1W        W35764   3.514  20.060   7.436  0.1280  0.2105 -0.0580
    1W        W35765  25.397   4.352   8.146  0.0493 -0.1038 -0.0357
    1W        W35766   0.570   6.534   1.708  0.2344 -0.2758 -0.0240
    1W        W35767   5.059  13.292   0.503 -0.0204  0.0206  0.0747
    1W        W35768   0.311  24.357   1.671  0.0181  0.2939  0.2763
    1W        W35769   1.210  15.423   2.738  0.1201 -0.0235 -0.3652
    1W        W35770   1.909  26.250   8.139  0.1167  0.0526  0.3934
    1W        W35771   0.661  25.636   0.553  0.1434  0.0033 -0.3619
    1W        W35772  23.259  18.055   0.308 -0.3064 -0.1636  0.1909
    1W        W35773  12.861  28.471   9.266  0.0992 -0.1393 -0.0131
    1W        W35774   6.142   6.458   1.917  0.1427 -0.0112 -0.3787
    1W        W35775   6.101  25.634   0.219  0.0164 -0.0913 -0.0345
    1W        W35776  23.214  15.584   8.398  0.1130 -0.1625 -0.3234
    1W        W35777   1.669   2.074   6.843  0.2013 -0.2901  0.1855
    1W        W35778  29.822   3.205   1.840  0.1785  0.1119  0.3075
    1W        W35779   5.051   1.973   2.561  0.1669 -0.3251 -0.2735
    1W        W35780  13.720   1.476   8.769 -0.1227  0.0369  0.1832
    1W        W35781   5.235  26.100   8.502 -0.2046 -0.1248 -0.2302
    1W        W35782   5.676  15.499   0.482  0.2146 -0.0024  0.0772
    1W        W35783  20.755  10.623   0.312  0.0315 -0.3426 -0.0395
    1W        W35784  28.143  22.431   7.578 -0.0327  0.0082 -0.1295
    1W        W35785  25.791   3.927   0.918  0.1954 -0.0672  0.1885
    1W        W35786  11.118   8.452   0.804  0.4127 -0.1788 -0.1236
    1W        W35787  18.846  11.948   1.719 -0.1752  0.1844  0.2313
    1W        W35788  25.923  19.409   1.335  0.2603 -0.1265 -0.1442
    1W        W35789   4.964  12.120   7.865  0.0725 -0.3470 -0.2416
    1W        W35790  13.627   5.584   1.717 -0.0056  0.1334  0.0591
    1W        W35791  13.308  23.856   1.519  0.0581  0.0391  0.1119
    1W        W35792  13.513   2.435   6.793  0.2416  0.0435 -0.2701
    1W        W35793   6.941  23.692   1.541  0.2574  0.2464 -0.0921
    1W        W35794  26.795  15.894   0.731  0.1333  0.2519  0.0013
    1W        W35795  15.920   3.637   8.135 -0.0890  0.1970 -0.1406
    1W        W35796  12.537   0.119   3.058  0.0472 -0.2912  0.0492
    1W        W35797  18.155  14.814   8.088  0.1820  0.0986 -0.0400
    1W        W35798  16.719  16.102   0.973 -0.0875 -0.1289 -0.1083
    1W        W35799  10.807  28.741   2.845 -0.0445 -0.1877 -0.2926
    1W        W35800  12.718   5.148   8.207 -0.2707  0.0507 -0.3036
    1W        W35801  18.772  10.226   8.550  0.1780  0.0266  0.3168
    1W        W35802   7.168  11.446   2.598  0.1177  0.2527  0.2113
    1W        W35803  18.068  29.747   7.147  0.0587  0.0507 -0.2755
    1W        W35804  14.844   1.275   3.780  0.0379 -0.4126 -0.2758
    1W        W35805  11.917  11.479   2.411 -0.3479 -0.0302  0.1660
    1W        W35806  17.670  12.007   0.313 -0.0238  0.0497  0.2026
    1W        W35807   6.174  10.889   7.809 -0.1727 -0.2247  0.0240
    1W        W35808   5.728  18.146   9.069  0.0109 -0.3736  0.1029
    1W        W35809  22.082  14.685   1.864  0.1776 -0.3096  0.1996
    1W        W35810  10.714   4.001   1.183  0.2310 -0.3416 -0.1041
    1W        W35811  15.699   5.970   0.932 -0.0059  0.2530  0.0633
    1W        W35812   3.144  17.167   1.869 -0.1429  0.0300 -0.0915
    1W        W35813   5.292  29.205   3.006 -0.2426 -0.4717  0.0035
    1W        W35814  28.885  27.521   1.426  0.1018  0.3361  0.0320
    1W        W35815  21.138   0.429   7.308 -0.0067 -0.0382  0.3211
    1W        W35816  18.003   1.960   8.539  0.1111 -0.2292  0.0175
    1W        W35817   6.001  22.924   5.969 -0.0078  0.2412  0.1967
    1W        W35818   0.664   0.114   7.998 -0.0948 -0.0479  0.1605
    1W        W35819   6.048  27.173   1.984 -0.0727  0.1497  0.0267
    1W        W35820   0.240  10.497   7.666  0.1424  0.0715  0.2823
    1W        W35821   2.683  22.867   1.212 -0.0843 -0.0081 -0.0137
    1W        W35822  12.673  19.863   7.842  0.0029  0.1103  0.0230
    1W        W35823   0.546  15.560   7.204  0.0401 -0.0685  0.0223
    1W        W35824   2.923   6.010   8.679  0.2302 -0.0383 -0.1658
    1W        W35825   7.457  20.879   8.107 -0.0751 -0.2396 -0.0508
    1W        W35826  13.927  24.763   7.077  0.0032  0.0073  0.2673
    1W        W35827   8.320   2.176   2.050 -0.2114 -0.1359  0.1111
    1W        W35828   3.306  23.197   2.464  0.2214 -0.0493 -0.3042
    1W        W35829  10.321  19.995   8.311  0.0515 -0.1577 -0.0663
    1W        W35830  23.544   6.171   2.521 -0.1840  0.0358  0.3742
    1W        W35831  13.059  21.770   8.732 -0.1973 -0.2350 -0.1557
    1W        W35832   3.879  11.767   2.697 -0.2410 -0.0338 -0.0072
    1W        W35833  17.337   6.164   8.868  0.0539 -0.0616  0.1832
    1W        W35834  15.306  12.446   8.295  0.0784  0.1600  0.4559
    1W        W35835  14.451   2.955   9.155  0.1280  0.1175 -0.0135
    1W        W35836  29.890  25.370   7.887 -0.1112 -0.2072 -0.4326
    1W        W35837   6.855  21.664   1.932 -0.1039 -0.2011 -0.0248
    1W        W35838   3.023  20.453   8.108  0.0196 -0.0416 -0.0138
    1W        W35839   5.039  28.777   1.323 -0.0359  0.0383  0.2122
    1W        W35840  28.959  24.595   1.461  0.2027 -0.3331 -0.1662
    1W        W35841  15.391   5.700   0.535 -0.0209  0.1425  0.3656
    1W        W35842   9.257  16.503   1.070 -0.1102  0.0937  0.1027
    1W        W35843  19.726   2.228   6.292 -0.0792  0.1960  0.3758
    1W        W35844   2.567  25.307   8.877 -0.2380 -0.0703  0.2172
    1W        W35845   2.079  23.603   6.103  0.1746 -0.1658  0.1029
    1W        W35846   9.055   9.330   0.409  0.2048 -0.0823 -0.0032
    1W        W35847  13.924   1.483   1.378 -0.2334  0.1257 -0.1037
    1W        W35848  18.918  10.941   0.477  0.1905  0.3922 -0.0455
    1W        W35849  10.312   0.724   7.591 -0.0127  0.2494  0.0044
    1W        W35850   4.510  12.922   1.304 -0.1316  0.3546 -0.1683
    1W        W35851  23.517  15.849   1.417 -0.0365  0.3433 -0.0316
    1W        W35852  21.693  12.473   9.157  0.0930  0.1039  0.1057
    1W        W35853  16.048   9.373   7.790 -0.0856  0.1226  0.1818
    1W        W35854   8.010  18.910   7.538 -0.1619 -0.3503 -0.0689
    1W        W35855   5.228  20.534   0.137  0.0986 -0.0779 -0.2134
    1W        W35856  11.438  17.662   1.282  0.0780  0.2947  0.0112
    1W        W35857  11.436  26.292   6.898  0.0468  0.0197 -0.1326
    1W        W35858  28.790  15.941   0.742  0.0067 -0.0568  0.0589
    1W        W35859  22.303   6.071   1.648  0.1413 -0.3298  0.0154
    1W        W35860   5.147   8.204   1.452  0.0586 -0.0214  0.0577
    1W        W35861  12.331  12.957   8.000 -0.1281  0.0356 -0.2151
    1W        W35862   4.004   1.703   1.415  0.2685  0.0438  0.0455
    1W        W35863  21.283   7.661   8.710  0.0566 -0.0817  0.0461
    1W        W35864   4.292   0.874   8.202  0.0595 -0.0665 -0.2239
    1W        W35865  28.721  24.658   2.452  0.0238  0.2094 -0.3077
    1W        W35866   7.615   5.743   8.452 -0.2862 -0.1829  0.0699
    1W        W35867  20.532  27.538   7.468  0.0699 -0.2739  0.4934
    1W        W35868   3.371  28.437   1.847  0.1251 -0.2038 -0.1744
    1W        W35869  21.519   0.685   2.212  0.0767  0.0936  0.0393
    1W        W35870   2.814  25.439   7.910  0.1087  0.0502  0.2411
    1W        W35871   4.447  14.836   0.630  0.2096 -0.0367  0.1437
    1W        W35872  25.811  11.389   6.365  0.0193 -0.0293  0.2341
    1W        W35873   2.980  28.540   1.468 -0.1384  0.1748 -0.0956
    1W        W35874  20.855  14.842   7.694  0.0967  0.1389  0.1367
    1W        W35875   2.478   7.305   8.970 -0.3250 -0.0602 -0.4297
    1W        W35876  21.919  24.238   2.722  0.3902 -0.1018  0.0199
    1W        W35877  27.169  26.580   7.936 -0.0340  0.0483  0.1833
    1W        W35878  27.597  11.227   8.835 -0.2801  0.0626 -0.1293
    1W        W35879   3.040   7.484   7.436 -0.2868  0.2165 -0.1040
    1W        W35880  28.108   9.367   0.793  0.0632  0.0744  0.1209
    1W        W35881  29.184   4.384   9.125  0.1018 -0.0406 -0.2886
    1W        W35882   8.121  28.044   7.437 -0.0357 -0.1593  0.0151
    1W        W35883  19.560   4.544   2.653 -0.1375  0.1014 -0.0935
    1W        W35884  14.113  13.424   1.168  0.2375  0.1546 -0.0541
    1W        W35885  18.373  29.460   1.606 -0.4292 -0.0315 -0.3334
    1W        W35886  27.972  22.227   0.659 -0.0038  0.2636 -0.0665
    1W        W35887  21.859  27.149   9.320 -0.2426  0.0057  0.1610
    1W        W35888  10.909  18.329   9.162 -0.0044 -0.1394 -0.0187
    1W        W35889  11.099   0.321   7.342 -0.3975  0.0665 -0.1786
    1W        W35890   9.416  28.244   1.064  0.3111 -0.1583  0.2294
    1W        W35891  22.424  18.488   2.482 -0.0310  0.0257  0.0579
    1W        W35892   6.712  26.183   0.984 -0.0889  0.0052 -0.3665
    1W        W35893  15.659   8.618   8.176 -0.2110  0.0653 -0.2377
    1W        W35894   7.482   6.673   8.555  0.0872  0.0976 -0.0121
    1W        W35895  19.028   0.278   3.313 -0.3509  0.1086  0.0706
    1W        W35896   7.596  15.693   7.003  0.1558 -0.0166 -0.0415
    1W        W35897  19.031  21.437   8.197 -0.1798 -0.2323  0.1009
    1W        W35898  12.136  23.325   1.662 -0.0062 -0.3224 -0.0715
    1W        W35899  14.718  18.597   0.632  0.0808 -0.0683 -0.2480
    1W        W35900  12.513  20.932   7.268  0.1880 -0.0417  0.1960
    1W        W35901  29.686  25.348   1.151 -0.3596  0.1213  0.0367
    1W        W35902  25.534  21.823   1.369 -0.2504  0.0603  0.0687
    1W        W35903  16.678  11.318   7.527  0.0040  0.0914  0.2548
    1W        W35904  25.406  28.010   9.145 -0.0385  0.0609 -0.0927
    1W        W35905   2.241  27.729   0.491  0.1143 -0.0475  0.2202
    1W        W35906   6.784  19.721   6.491 -0.3166 -0.2053 -0.4003
    1W        W35907   6.790   7.602   2.317  0.0056 -0.0877 -0.0369
    1W        W35908  11.276  24.136   8.103 -0.0505  0.2893 -0.1644
    1W        W35909  15.502  11.076   2.194 -0.1184 -0.0571  0.0232
    1W        W35910   6.837   0.543   1.347  0.0065 -0.1478 -0.2374
    1W        W35911   3.827  11.436   9.284 -0.4606 -0.4933  0.1283
    1W        W35912  27.716  11.267   0.949 -0.4121  0.2091 -0.2244
    1W        W35913  21.782  19.561   8.459 -0.1515 -0.4183  0.1665
    1W        W35914  29.020  15.478   1.041 -0.2498 -0.0022  0.1248
    1W        W35915  17.416   0.607   6.843  0.0579  0.0725 -0.0867
    1W        W35916  11.480  18.733   0.574  0.0820 -0.0383  0.2718
    1W        W35917  18.454  26.579   3.298 -0.1132  0.4649  0.3557
    1W        W35918   7.950   6.544   0.007  0.0246  0.0792 -0.2329
    1W        W35919  16.452  29.184   2.176 -0.0285  0.0444 -0.2824
    1W        W35920  10.529  23.910   2.197 -0.0480 -0.0373 -0.2486
    1W        W35921  27.603   7.927   1.141 -0.0856  0.0378  0.1399
    1W        W35922  11.584  29.272   7.664  0.0151  0.0436 -0.0231
    1W        W35923  18.434  16.659   8.714  0.2998 -0.1062 -0.0309
    1W        W35924  29.229  15.922   1.554 -0.0213 -0.2172 -0.2189
    1W        W35925  14.687  12.409   1.209  0.1071 -0.1294 -0.1743
    1W        W35926  19.593   9.987   8.811 -0.2581 -0.0085  0.0984
    1W        W35927  22.437  17.631   9.084  0.3733 -0.1901  0.2451
    1W        W35928  10.203  10.508   7.974 -0.1328  0.2419 -0.1590
    1W        W35929  24.219   2.633   1.468 -0.0851  0.2968 -0.0260
    1W        W35930  19.129  14.789   1.697  0.0785  0.2622  0.0752
    1W        W35931   5.529  13.448   6.673 -0.0613 -0.2722  0.1495
    1W        W35932  24.246  15.005   8.121 -0.1892 -0.4252 -0.2907
    1W        W35933   7.296   2.189   2.646  0.0972 -0.1372  0.1489
    1W        W35934  22.036   8.849   3.126  0.0552 -0.2263  0.1512
    1W        W35935  27.653  11.330   7.142  0.4901 -0.0068 -0.0579
    1W        W35936   3.831  24.777   6.438  0.3708  0.3251  0.0133
    1W        W35937   4.955  13.951   2.065 -0.0607  0.4320  0.2957
    1W        W35938  18.069  14.959   9.060  0.0437  0.1165  0.0564
    1W        W35939   3.236   5.055   8.872  0.0562 -0.0259  0.3515
    1W        W35940   2.565  12.678   7.731 -0.1568 -0.3056 -0.0343
    1W        W35941  19.750   6.477   6.737 -0.1057  0.3870  0.0813
    1W        W35942   3.553   1.362   8.519  0.1993 -0.0741 -0.2892
    1W        W35943  14.773  13.756   0.610  0.2278  0.0332  0.1611
    1W        W35944   1.353  10.726   7.452  0.1224 -0.0043  0.3131
    1W        W35945  29.272  21.026   2.033 -0.2835  0.1044  0.0917
    1W        W35946  10.535  13.051   0.200 -0.0489  0.0699 -0.3462
    1W        W35947  12.112  28.471   7.734  0.0053  0.1093  0.0244
    1W        W35948  13.220   5.911   2.362 -0.2939 -0.2250 -0.0466
    1W        W35949   3.621  17.410   1.761 -0.0394 -0.0474 -0.2137
    1W        W35950   5.544  23.480   0.088 -0.3023  0.1283 -0.0638
    1W        W35951  12.781   0.466   2.773  0.0804  0.0707 -0.2976
    1W        W35952  21.099  22.980   1.577 -0.1634 -0.0212 -0.1879
    1W        W35953  16.323   5.477   3.044  0.0227  0.1699 -0.0525
    1W        W35954   5.024  15.108   5.636  0.2148 -0.3561  0.0206
    1W        W35955   2.417  16.998   0.008 -0.1859  0.0036 -0.0546
    1W        W35956  29.470  24.213   7.067 -0.2415  0.0202 -0.0822
    1W        W35957  16.430  16.771   7.287  0.0748 -0.1226 -0.0236
    1W        W35958   6.488  10.400   0.864  0.0716  0.3643  0.1513
    1W        W35959  15.624  13.321   1.714  0.2855 -0.1075 -0.1318
    1W        W35960  17.987  18.210   8.873  0.0476 -0.1229  0.2871
    1W        W35961  16.230  18.112   1.229  0.2423  0.1439 -0.0130
    1W        W35962  13.048  23.930   8.902  0.0521 -0.1117  0.2971
    1W        W35963  21.871  12.653   0.535 -0.1286  0.1427  0.1125
    1W        W35964   6.416   8.184   8.985  0.1357  0.0915 -0.1170
    1W        W35965  24.375  27.219   9.023 -0.2172 -0.1611  0.1450
    1W        W35966  19.766  26.463   0.992 -0.2619  0.1040  0.0181
    1W        W35967  20.521  22.665   2.842 -0.3021  0.4263 -0.3183
    1W        W35968  17.253   4.757   1.428  0.0419  0.0431 -0.2399
    1W        W35969  25.767  17.090   1.512  0.3304 -0.0837 -0.3559
    1W        W35970   7.449  14.955   1.451  0.0558 -0.2039  0.1947
    1W        W35971   8.850   1.902   3.099 -0.0816 -0.0356 -0.2071
    1W        W35972  10.158  25.217   7.027 -0.1131  0.1471  0.0234
    1W        W35973   3.525   3.392   9.456  0.0464  0.2035  0.1793
    1W        W35974   6.038   2.338   2.577  0.0709  0.2461 -0.2176
    1W        W35975  13.804   3.935   0.987 -0.1425  0.4622  0.0194
    1W        W35976   0.188  27.686   8.508  0.0697 -0.0930  0.1547
    1W        W35977  21.603  14.197   8.123  0.2079  0.1573 -0.0188
    1W        W35978  16.878   2.133   6.705  0.0976 -0.3631 -0.0869
    1W        W35979  20.840  15.061   7.077  0.4136 -0.0199 -0.2540
    1W        W35980   6.746   7.476   7.769  0.0188  0.0295  0.1751
    1W        W35981  22.218  19.509   7.176  0.2417 -0.1103 -0.2087
    1W        W35982   7.792  29.556   9.042 -0.3161 -0.1083  0.0852
    1W        W35983  23.180  26.487   7.154  0.0419 -0.5418 -0.2294
    1W        W35984  24.701  10.529   6.268 -0.1248  0.1906  0.1042
    1W        W35985   8.941  12.381   2.270  0.2805  0.1423  0.0561
    1W        W35986  14.306  15.971   8.566  0.2059  0.1875  0.3003
    1W        W35987  16.362  12.633   6.311 -0.1372 -0.2379 -0.1862
    1W        W35988  21.042   6.197   1.435  0.0897  0.3965  0.2370
    1W        W35989   0.802  20.066   8.021 -0.0837 -0.0186  0.2940
    1W        W35990  19.553  24.734   6.889  0.2473  0.2818 -0.2079
    1W        W35991  25.968  24.459   9.422  0.3223  0.0007 -0.1040
    1W        W35992   6.005  19.985   1.835 -0.0046 -0.0705  0.0233
    1W        W35993  29.728  17.095   7.305 -0.2573 -0.1952  0.1638
    1W        W35994  28.976  21.689   7.863 -0.0063  0.0230  0.0361
    1W        W35995  13.579  13.293   1.834  0.2245 -0.1063  0.0744
    1W        W35996  24.408  24.717   7.481  0.4646  0.2334 -0.0032
    1W        W35997   7.739   6.235   8.531 -0.0445  0.2486 -0.1574
    1W        W35998  24.878  14.965   8.845  0.1009  0.1047  0.1034
    1W        W35999  12.428  26.022   1.473  0.3487 -0.0744 -0.0199
    1W        W36000  11.594   2.625   8.513  0.2394 -0.2214 -0.0229
    1W        W36001  21.610  27.948   8.741 -0.0503 -0.1021 -0.0749
    1W        W36002  18.893  12.538   9.283 -0.1611  0.1309  0.3440
    1W        W36003   8.272   6.269   8.052 -0.1454  0.0112 -0.1486
    1W        W36004  17.762  27.545   7.276  0.1082 -0.1667 -0.2623
    1W        W36005   6.281   1.431   3.399  0.1160 -0.0891 -0.0869
    1W        W36006  22.493  26.809   1.189 -0.2325 -0.1044 -0.3479
    1W        W36007  14.958  21.820   8.387 -0.2660 -0.3930 -0.1009
    1W        W36008  14.707  13.807   9.011  0.2937  0.2451 -0.2572
    1W        W36009  12.324  11.231   1.652 -0.0136 -0.0053  0.2754
    1W        W36010  10.116  26.236   2.494  0.3478 -0.2495 -0.1233
    1W        W36011  24.047  20.049   0.365  0.0428 -0.2930  0.4677
    1W        W36012  12.335   1.539   9.245  0.0220  0.0547 -0.0212
    1W        W36013  18.651  15.711   0.857  0.0535 -0.3681  0.0996
    1W        W36014  19.557  20.303   1.789 -0.0838  0.0726 -0.1431
    1W        W36015  19.432  17.544   9.306  0.0818 -0.0709  0.1004
    1W        W36016  17.500   8.146   8.395 -0.2144  0.0115 -0.1761
    1W        W36017  13.963  22.982   9.285  0.0110 -0.1825  0.1241
    1W        W36018  27.331  10.857   1.702 -0.3717  0.0912  0.0345
    1W        W36019  22.550  13.793   8.866  0.1360  0.0734  0.1881
    1W        W36020  28.381  20.817   9.094  0.1334 -0.0373 -0.0980
    1W        W36021  28.384   2.811   0.691  0.3704 -0.0386 -0.2335
    1W        W36022  16.401  13.422   8.634  0.1508  0.2115  0.2860
    1W        W36023   5.211  18.838   0.182 -0.0718  0.2758 -0.2533
    1W        W36024   7.452  22.573   8.281 -0.2170 -0.0390 -0.0695
    1W        W36025   6.212  19.387   1.173  0.1399  0.2931 -0.0506
    1W        W36026   7.614  16.869   8.250  0.0222 -0.1267 -0.3206
    1W        W36027  27.503  20.874   6.207  0.3850 -0.0388  0.1990
    1W        W36028   1.492  12.646   7.423 -0.1662  0.3216  0.1261
    1W        W36029  13.844  16.281   0.084  0.0021 -0.0813 -0.0342
    1W        W36030   1.218  17.839   6.771 -0.1088 -0.1343 -0.0461
    1W        W36031  11.192  18.126   8.244  0.0381  0.0769 -0.3372
    1W        W36032  10.399   6.783   3.144 -0.1186  0.1483 -0.0313
    1W        W36033   4.666  17.157   9.325  0.0045 -0.4560 -0.1569
    1W        W36034  22.641  27.705   1.632 -0.0755 -0.0175  0.1189
    1W        W36035   7.354  20.598   8.903  0.0326 -0.1494  0.0214
    1W        W36036   5.017   7.893   1.049 -0.2625  0.1176  0.3790
    1W        W36037   5.158  20.273   6.305 -0.2496  0.1507 -0.0369
    1W        W36038   9.035   7.087   0.742  0.0098  0.0623  0.2044
    1W        W36039   8.575  18.422   6.931  0.2088  0.1479 -0.1493
    1W        W36040  14.036  29.618   0.234  0.0076 -0.0608  0.0573
    1W        W36041   2.653  12.664   8.492  0.1302 -0.1823 -0.3244
    1W        W36042  25.019  13.698   7.187 -0.0306 -0.0495 -0.2523
    1W        W36043   2.581  11.545   0.711 -0.0031  0.0058 -0.0041
    1W        W36044   9.854  27.125   0.020  0.1023 -0.0181 -0.0878
    1W        W36045  22.923  21.907   3.129  0.0645  0.0695 -0.1202
    1W        W36046   2.581  12.447   1.817 -0.1362  0.0980  0.0390
    1W        W36047  11.115   0.799   8.878  0.2201  0.2056  0.2037
    1W        W36048  11.548   0.928   3.242  0.0803 -0.3209 -0.1633
    1W        W36049  16.119   1.850   2.355 -0.0144  0.1231  0.1384
    1W        W36050  15.292  25.886   3.034  0.2282  0.0625 -0.0347
    1W        W36051  29.590  18.778   8.257  0.0912  0.0179  0.0032
    1W        W36052   9.925  24.866   6.389  0.0555  0.1674  0.0211
    1W        W36053  29.037  27.348   0.961  0.0329 -0.1545  0.0131
    1W        W36054   3.773   7.652   1.073  0.0852  0.2087 -0.1487
    1W        W36055  18.539  23.248   1.115 -0.0583  0.4365 -0.4133
    1W        W36056  29.080  11.534   0.719  0.1869 -0.0993 -0.2148
    1W        W36057   2.707   6.370   1.793  0.1241 -0.1457 -0.1125
    1W        W36058  22.126  27.401   7.464 -0.1824 -0.0700 -0.0220
    1W        W36059  17.257  25.083   8.463  0.0546 -0.0672  0.0883
    1W        W36060  10.408  12.513   8.873  0.1752 -0.2645  0.0438
    1W        W36061  19.598  13.956   0.103  0.1432  0.0648 -0.1901
    1W        W36062  15.380   8.588   7.594 -0.0108  0.1921 -0.1748
    1W        W36063  21.611  14.792   6.786 -0.0570  0.0277 -0.0504
    1W        W36064  15.703  28.221   9.075  0.1362  0.0173  0.1322
    1W        W36065  10.576  13.016   0.729 -0.0237 -0.2163  0.1632
    1W        W36066  13.381  17.108   0.642  0.3851  0.0954 -0.2086
    1W        W36067  25.704  13.669   1.869  0.1279  0.0648 -0.1396
    1W        W36068   8.801  10.723   7.178 -0.0043  0.3622  0.0622
    1W        W36069   7.805   7.146   1.619  0.0404  0.1155 -0.2704
    1W        W36070  10.412  21.718   0.653 -0.0817  0.1866  0.0973
    1W        W36071  24.102   4.829   3.583  0.0089 -0.1364  0.4011
    1W        W36072  12.884  19.292   7.181 -0.0554 -0.0904  0.2181
    1W        W36073  28.492  10.022   1.706  0.1885 -0.0278  0.0773
    1W        W36074   0.240   8.694   7.463 -0.2289  0.2233  0.0593
    1W        W36075  29.578   0.465   2.414  0.1720  0.0163  0.0311
    1W        W36076  15.497  28.964   2.002 -0.2769  0.1162  0.1107
    1W        W36077   1.887  20.008   8.667  0.3803 -0.5112 -0.2897
    1W        W36078   4.134  24.310   5.781  0.0407 -0.0312  0.2678
    1W        W36079  15.625  22.292   8.889 -0.1474  0.0314  0.1024
    1W        W36080   4.719  15.239   0.290  0.0046 -0.0815 -0.0097
    1W        W36081  17.809  20.667   2.535  0.0094 -0.0153  0.1052
    1W        W36082   1.176  14.380   0.524 -0.4189  0.1643  0.3865
    1W        W36083   6.254  10.685   6.220  0.2291  0.1524  0.0728
    1W        W36084  12.807  21.200   0.043 -0.1657 -0.1203  0.1916
    1W        W36085  15.051   4.627   2.163  0.0786  0.0017  0.2205
    1W        W36086  20.853  22.965   2.070  0.1065 -0.0007 -0.2412
    1W        W36087  12.296   8.563   1.779  0.0872  0.2376  0.1030
    1W        W36088   5.745  28.539   8.882  0.1140 -0.0360 -0.0937
    1W        W36089  22.622   6.627   0.769  0.0706 -0.1759 -0.0001
    1W        W36090   1.278  29.281   0.187 -0.1988 -0.0366  0.0418
    1W        W36091  26.280   2.118   2.973  0.0220  0.1458 -0.0891
    1W        W36092  18.383  25.544   9.116  0.1170 -0.2033  0.1573
    1W        W36093  13.418   4.570   8.235  0.0030  0.0013 -0.1392
    1W        W36094   9.689  24.659   8.724 -0.0257  0.3564 -0.0674
    1W        W36095  22.743   4.309   0.256 -0.3019 -0.0532  0.0072
    1W        W36096  22.208  23.346   3.430  0.0049  0.1758 -0.1053
    1W        W36097   5.860  23.893   8.501 -0.2072 -0.2539  0.4532
    1W        W36098   6.084  26.593   0.860  0.0397  0.1177 -0.3182
    1W        W36099  16.982  19.040   0.010  0.2213 -0.0513 -0.2128
    1W        W36100  12.804   5.975   1.441 -0.2941  0.0611 -0.2520
    1W        W36101   3.565  12.822   7.581  0.1546  0.0467  0.0273
    1W        W36102   1.602  17.329   6.763  0.2329  0.0117  0.2500
    1W        W36103  17.881  24.974   1.274 -0.0884  0.0744  0.1613
    1W        W36104  22.633   6.079   8.759 -0.2136 -0.1668 -0.1045
    1W        W36105  14.994  18.214   0.459  0.0093  0.3400  0.2916
    1W        W36106  21.133   7.907   6.661  0.0197  0.0653 -0.1974
    1W        W36107   9.115  20.994   7.593  0.1840 -0.0369  0.0485
    1W        W36108  17.588   6.878   8.452  0.1074  0.1845  0.0124
    1W        W36109  24.888   2.321   7.393  0.0362 -0.0669 -0.2928
    1W        W36110   4.077  16.814   6.907  0.0313  0.2962  0.0066
    1W        W36111  13.890  17.837   1.276 -0.3037  0.1038  0.0608
    1W        W36112  24.606  23.330   8.714  0.0091 -0.1560  0.3501
    1W        W36113  16.626  18.630   9.019 -0.0087 -0.1550 -0.1239
    1W        W36114   9.219  29.705   8.835  0.0942 -0.1435 -0.0835
    1W        W36115  10.755   7.045   1.345 -0.1845  0.0412  0.0820
    1W        W36116  10.438   0.338   8.007  0.0779 -0.1549  0.4498
    1W        W36117  26.391  29.215   1.222 -0.3129 -0.0241 -0.1294
    1W        W36118   3.257  13.232   9.347  0.1384  0.1641 -0.1082
    1W        W36119   2.335   4.959   9.121  0.2586 -0.1426  0.3453
    1W        W36120  27.195   1.574   7.648 -0.2279  0.0177  0.1049
    1W        W36121  24.614  25.499   7.381  0.0883 -0.1724  0.4194
    1W        W36122   1.306   1.634   8.229  0.3380 -0.1976 -0.1071
    1W        W36123   6.501  17.151   6.406  0.0062  0.1082 -0.0434
    1W        W36124  14.121   8.515   0.534  0.1721  0.1511 -0.1535
    1W        W36125  23.265  17.369   2.240 -0.0950  0.1697 -0.0614
    1W        W36126   9.691  19.226   8.564  0.1220 -0.0109  0.1017
    1W        W36127  16.376  10.998   0.280  0.4733  0.2371 -0.1068
    1W        W36128  21.252   0.368   0.882 -0.2919  0.0479 -0.0970
    1W        W36129   2.991  25.190   6.311 -0.1132  0.2169  0.3244
    1W        W36130   0.895  18.146   2.935 -0.1327 -0.0038 -0.0593
    1W        W36131  26.261  24.818   0.359 -0.1561  0.5016 -0.1271
    1W        W36132  25.045  27.391   8.237 -0.3649  0.1872 -0.0277
    1W        W36133  28.061   8.573   7.386 -0.1125 -0.1550 -0.0961
    1W        W36134  12.808  14.910   2.070 -0.0051 -0.3280 -0.0764
    1W        W36135   8.289  13.551   0.234 -0.3335  0.0933 -0.2861
    1W        W36136  12.210   9.060   1.809 -0.1360 -0.2094  0.0342
    1W        W36137  14.236   6.434   8.226  0.1977 -0.0684 -0.1752
    1W        W36138  12.662  23.536   9.315  0.1218 -0.0971  0.0800
    1W        W36139  25.385  17.502   8.101 -0.0651  0.1789 -0.0836
    1W        W36140   0.930  13.214   1.177 -0.2100  0.0898 -0.2828
    1W        W36141  11.553   5.209   2.212 -0.1062  0.1175  0.2793
    1W        W36142  18.360  16.951   7.518 -0.2076 -0.2411  0.4318
    1W        W36143   5.197  10.827   1.183 -0.3885 -0.0357  0.0380
    1W        W36144  16.886  24.611   1.975  0.1206 -0.1379 -0.1067
    1W        W36145  14.482  23.327   9.136 -0.0978 -0.3263 -0.2491
    1W        W36146  27.825  10.492   0.355  0.0798  0.1935 -0.0373
    1W        W36147   7.349  18.625   8.613  0.0870 -0.0656  0.0221
    1W        W36148   6.606  16.042   1.711  0.3731  0.0783  0.2156
    1W        W36149  23.680  13.381   6.035  0.1009 -0.1404 -0.1883
    1W        W36150   4.124   1.381   0.568 -0.0944  0.0619  0.1107
    1W        W36151   5.018  20.729   6.583 -0.0464  0.2850 -0.4582
    1W        W36152  10.581  18.304   1.829 -0.0971  0.0155 -0.0394
    1W        W36153  29.338   6.582   2.102  0.2454  0.1279  0.0289
    1W        W36154   9.140  20.475   1.282 -0.0511 -0.1323  0.2536
    1W        W36155  22.002  29.577   0.019  0.2144 -0.1321  0.0481
    1W        W36156  25.806  25.904   0.394  0.1263  0.4211 -0.0089
    1W        W36157  16.856  29.821   0.511 -0.0984 -0.4699 -0.0380
    1W        W36158  22.681  26.088   0.029  0.2443  0.0367 -0.0591
    1W        W36159  20.049   1.878   7.166  0.2192  0.0691  0.1239
    1W        W36160   6.051   7.140   3.097 -0.2284 -0.3975  0.0391
    1W        W36161  17.089  18.425   7.629  0.1211  0.2529 -0.0203
    1W        W36162   0.344   1.005   8.281  0.2239  0.3099 -0.1264
    1W        W36163   4.106   5.000   6.790 -0.1527  0.1211  0.3592
    1W        W36164  11.431   7.318   0.127  0.3987  0.1246 -0.1434
    1W        W36165   5.853  12.955   0.427  0.0261  0.1853  0.0755
    1W        W36166  19.752  27.876   7.788 -0.2336  0.0742 -0.1206
    1W        W36167  15.225  21.036   0.071 -0.2287 -0.0749 -0.1504
    1W        W36168  11.937   9.679   7.216 -0.6111 -0.0558  0.0576
    1W        W36169   4.736  22.062   0.134  0.1818  0.0426 -0.0224
    1W        W36170   9.440   3.769   8.691  0.0860  0.0123  0.1234
    1W        W36171  23.540  28.969   1.973 -0.3030  0.1242 -0.1929
    1W        W36172  20.290  22.651   0.937 -0.0373 -0.0922  0.3983
    1W        W36173   6.237  20.577   6.329  0.0435  0.0252 -0.0612
    1W        W36174   3.093  26.193   2.532  0.1093 -0.0727 -0.4860
    1W        W36175   3.676  23.990   1.394  0.2112 -0.1832  0.3947
    1W        W36176   6.449  13.790   1.181 -0.0762 -0.0817  0.1372
    1W        W36177  26.668  11.757   1.247 -0.1748 -0.1014 -0.0573
    1W        W36178  29.119  26.823   2.745  0.1577  0.0452 -0.0374
    1W        W36179   0.995  25.691   2.786 -0.2429 -0.0733 -0.1970
    1W        W36180   9.883   9.715   7.548  0.4377 -0.3106  0.1106
    1W        W36181  18.111   6.133   6.581 -0.0160 -0.1171 -0.0893
    1W        W36182   9.032   6.443   1.148 -0.0909  0.1123 -0.2303
    1W        W36183  13.560   4.958   0.838  0.1235 -0.4442  0.1040
    1W        W36184  28.738  13.876   7.004 -0.1399 -0.0631 -0.0901
    1W        W36185  29.497  14.036   6.524 -0.5142 -0.1558 -0.3118
    1W        W36186  17.221  19.615   0.536  0.3557  0.0211 -0.0296
    1W        W36187  24.769   1.220   7.682  0.0069  0.4357 -0.1639
    1W        W36188  23.666  28.199   7.599  0.0171  0.3915  0.1560
    1W        W36189  26.208   1.459   2.239  0.2634 -0.3129  0.1511
    1W        W36190  12.463  23.888   8.906  0.0017 -0.2458 -0.0249
    1W        W36191  24.261   7.239   8.590  0.0751 -0.0661  0.2196
    1W        W36192   8.783  20.664   7.705  0.0259  0.2105 -0.0431
    1W        W36193  10.878  20.559   7.429 -0.0996  0.1497  0.0488
    1W        W36194   4.264  16.487   6.275  0.1016 -0.2869  0.1034
    1W        W36195  16.595  25.523   3.779  0.0320 -0.1327 -0.0358
    1W        W36196  19.516  23.839   1.718  0.0401 -0.0111 -0.0413
    1W        W36197   9.905  17.953   7.988  0.0788  0.0394  0.0760
    1W        W36198  18.876  16.983   8.415  0.3991 -0.0696 -0.0751
    1W        W36199  12.456   6.074   1.012  0.0399  0.1539  0.1472
    1W        W36200   0.491  21.775   9.357  0.2100 -0.1438 -0.0213
    1W        W36201  24.773  18.955   8.572  0.1601  0.0693  0.1270
    1W        W36202  25.303  18.899   0.748 -0.1723 -0.0608  0.0003
    1W        W36203   4.165  10.580   9.082 -0.0980  0.0246  0.1173
    1W        W36204  14.263   7.690   7.544  0.0080  0.0978 -0.0150
    1W        W36205  16.585   1.390   7.637  0.2616 -0.3526 -0.1243
    1W        W36206  21.481  14.356   7.058  0.0730  0.0781  0.1153
    1W        W36207  29.654  24.425   6.169 -0.2949  0.1841 -0.0821
    1W        W36208   4.926   5.549   0.572  0.0173  0.1247 -0.0764
    1W        W36209  10.600   0.695   8.873 -0.1723  0.0185  0.1232
    1W        W36210  13.470  28.154   7.437 -0.0645  0.0053 -0.1399
    1W        W36211  29.238   0.713   0.691 -0.0382 -0.0297  0.0292
    1W        W36212   8.196   5.849   2.734 -0.1680 -0.1280 -0.3637
    1W        W36213  16.928   1.914   8.635 -0.0243 -0.0699 -0.1109
    1W        W36214  22.327  29.530   8.279  0.0746  0.1680 -0.4107
    1W        W36215   3.575  27.539   7.624 -0.3917  0.1117 -0.3373
    1W        W36216   8.785  11.895   7.261  0.1800 -0.1770  0.0637
    1W        W36217  21.955  28.276   2.636 -0.0826  0.1616  0.0194
    1W        W36218  20.463  13.618   0.511  0.0158  0.1866 -0.0882
    1W        W36219  23.795   3.785   1.041  0.1427  0.0144 -0.1239
    1W        W36220  28.176  24.092   2.440 -0.1861 -0.2827  0.3066
    1W        W36221   7.199   7.599   1.603 -0.0407  0.5911 -0.2276
    1W        W36222  20.247  21.927   7.806  0.0391 -0.2226  0.3360
    1W        W36223   1.046   8.936   8.878 -0.0898 -0.2935  0.3442
    1W        W36224  22.305  25.794   2.273  0.1309  0.2381  0.2227
    1W        W36225   7.561  19.115   7.484 -0.0618  0.1853  0.2895
    1W        W36226  29.825  12.357   1.770 -0.1125 -0.0182  0.1487
    1W        W36227  28.910  11.296   7.416  0.0690  0.1841 -0.0477
    1W        W36228  19.773   6.383   0.039 -0.0515  0.1390 -0.1910
    1W        W36229  16.698  13.234   0.562  0.0744 -0.3121 -0.1680
    1W        W36230  29.808  15.510   6.540  0.0396 -0.0693  0.0021
    1W        W36231  25.494  10.720   0.941  0.0504 -0.4324  0.2001
    1W        W36232   4.115  24.824   0.213 -0.1263 -0.3536 -0.0831
    1W        W36233  10.112  25.714   6.849 -0.0614 -0.0065 -0.0261
    1W        W36234  26.511  25.645   2.458  0.1039 -0.4102  0.0562
    1W        W36235  20.364  27.273   0.753 -0.3459  0.0614  0.1510
    1W        W36236  17.532   1.418   0.372  0.2611 -0.2375 -0.0461
    1W        W36237   3.340   6.377   6.668  0.2962 -0.0468 -0.1999
    1W        W36238  18.991  26.839   9.042 -0.0443 -0.3195  0.0367
    1W        W36239   2.693   3.807   6.964 -0.1690 -0.0790 -0.0283
    1W        W36240  23.187  17.721   6.953  0.0873  0.2986 -0.1926
    1W        W36241   7.479   8.016   7.482  0.1960 -0.1076 -0.1277
    1W        W36242  11.812   4.110   2.803  0.0412 -0.1355  0.0188
    1W        W36243  18.260  10.640   7.966 -0.0695 -0.2462  0.0164
    1W        W36244   6.994   0.143   3.203  0.1920 -0.0191 -0.2758
    1W        W36245  22.503  22.054   2.756 -0.3133 -0.0545  0.0049
    1W        W36246  23.964   3.924   0.551  0.1596  0.0365  0.0157
    1W        W36247  26.610   0.209   1.213 -0.1586 -0.1850 -0.3733
    1W        W36248  25.022  13.575   1.411 -0.0555 -0.0342 -0.0980
    1W        W36249  28.204   1.564   2.570 -0.0715 -0.0716  0.2655
    1W        W36250  23.832  27.254   9.180 -0.3079 -0.0189  0.0656
    1W        W36251  10.994  25.651   8.546 -0.1820  0.1451  0.1337
    1W        W36252  25.711   0.039   3.447  0.0872 -0.0934 -0.1432
    1W        W36253   2.926   0.535   8.482  0.0409 -0.0836  0.1475
    1W        W36254   6.565  18.048   2.205  0.0938  0.0792 -0.1754
    1W        W36255   8.115  24.745   0.158 -0.4000 -0.0555 -0.0002
    1W        W36256  15.862  10.350   9.230 -0.4929 -0.1195 -0.0026
    1W        W36257  22.245  18.947   0.112  0.2354 -0.0610  0.0750
    1W        W36258   7.395  13.971   0.295 -0.1207 -0.1689  0.2709
    1W        W36259  24.983  18.467   0.935  0.1196 -0.0976 -0.0058
    1W        W36260  24.582   3.647   6.987  0.0746 -0.1556 -0.3741
    1W        W36261  19.635   6.987   0.842 -0.2007  0.2925  0.1241
    1W        W36262  18.611  28.121   3.054  0.3116 -0.1332 -0.4002
    1W        W36263  18.022  17.898   0.558 -0.0686 -0.0329 -0.0090
    1W        W36264  14.973  26.723   2.606  0.3193 -0.2961 -0.0700
    1W        W36265  16.375   2.995   1.671  0.2464  0.1472 -0.1110
    1W        W36266  20.375   8.589   8.971 -0.0321 -0.0781  0.2523
    1W        W36267   3.326   3.591   1.515  0.0004 -0.1887 -0.1637
    1W        W36268  26.668   5.188   3.040  0.1259 -0.0669 -0.0629
    1W        W36269  16.546   4.081   1.731 -0.1980 -0.1976  0.2790
    1W        W36270  20.418  15.723   0.877 -0.0113  0.2667 -0.1178
    1W        W36271   9.285   6.408   7.638  0.0979  0.0281  0.1206
    1W        W36272  24.603  10.678   0.305 -0.1288 -0.0059 -0.1595
    1W        W36273  23.372   1.553   9.076 -0.3089 -0.1116 -0.1896
    1W        W36274  14.681   9.024   6.697 -0.0134 -0.1098 -0.0777
    1W        W36275  16.305  21.220   0.222 -0.0246 -0.0160 -0.1148
    1W        W36276  20.371   4.108   8.183 -0.0408  0.2235  0.0782
    1W        W36277  23.811   5.226   2.740  0.0631 -0.1799 -0.2665
    1W        W36278  10.725  29.721   2.036 -0.1541  0.1955 -0.3724
    1W        W36279   2.034  27.814   7.156 -0.0596 -0.2455  0.1080
    1W        W36280  11.182  17.847   0.492  0.1433 -0.1485 -0.2328
    1W        W36281   7.616   2.089   1.958  0.2216  0.2180 -0.2181
    1W        W36282  25.704   3.122   7.624  0.0760  0.2705  0.0215
    1W        W36283  24.298   9.656   0.096  0.0007 -0.0548  0.1112
    1W        W36284  12.812   7.847   7.756  0.0046  0.1721  0.0521
    1W        W36285  21.898   5.241   8.077 -0.0398  0.2273 -0.2908
    1W        W36286  29.083  26.197   6.002  0.2092  0.2782 -0.1341
    1W        W36287  19.034   2.761   0.383  0.1241 -0.1310 -0.0873
    1W        W36288  21.944  16.329   0.990  0.3294 -0.1912 -0.2171
    1W        W36289  25.118  24.954   7.872 -0.3390  0.2363  0.1202
    1W        W36290   0.477  10.078   8.985  0.0848  0.2431 -0.0202
    1W        W36291  11.614   5.563   8.855  0.1178  0.1146  0.3048
    1W        W36292   4.808  25.777   8.364 -0.3801  0.3312  0.1258
    1W        W36293  10.447   7.583   8.153 -0.2424  0.1093 -0.1563
    1W        W36294  21.869   8.464   1.483 -0.0790  0.0060  0.3671
    1W        W36295  24.205   9.251   1.858 -0.1107 -0.1153  0.0451
    1W        W36296  16.570  28.017   2.023 -0.0907  0.0322 -0.2067
    1W        W36297  26.174   5.448   3.124 -0.0882 -0.0571 -0.1165
    1W        W36298   8.351   8.830   8.660  0.3495 -0.0538 -0.0821
    1W        W36299  12.702  11.912   2.524  0.0401 -0.1228 -0.1563
    1W        W36300   6.416   7.761   3.754  0.0200  0.2020 -0.0968
    1W        W36301  24.438   8.060   2.302 -0.3309  0.2064 -0.1322
    1W        W36302  16.331  18.377   9.380  0.2117  0.1349 -0.1625
    1W        W36303  12.105  15.512   7.640 -0.1150  0.1454 -0.1460
    1W        W36304  23.069  23.281   8.595 -0.0733 -0.1706  0.1373
    1W        W36305   2.924  25.516   0.247 -0.0926 -0.1041 -0.1463
    1W        W36306  28.345  24.614   9.215 -0.1997 -0.0235 -0.0382
    1W        W36307  17.827  16.460   8.118  0.0140 -0.3729 -0.2771
    1W        W36308   5.966  22.898   6.581  0.1168  0.1307 -0.2030
    1W        W36309  28.445  18.532   6.993 -0.4119 -0.0052  0.2234
    1W        W36310  21.447  18.103   2.014 -0.0498 -0.0815  0.2223
    1W        W36311  22.297  18.327   8.186  0.2615 -0.0619  0.0932
    1W        W36312   3.423   8.537   8.334  0.3145 -0.0423  0.1096
    1W        W36313  22.712   6.970   7.838  0.2038 -0.2306 -0.3411
    1W        W36314  16.570  22.906   0.372 -0.0486 -0.2906 -0.0269
    1W        W36315   9.077   6.568   8.378 -0.1675  0.2392 -0.0802
    1W        W36316  29.316   2.099   6.169  0.2409 -0.0556  0.3305
    1W        W36317  23.914  29.697   8.812  0.4290  0.3167  0.2005
    1W        W36318   6.300  22.050   1.249  0.0066  0.1252  0.4183
    1W        W36319  19.215   5.410   2.005 -0.1895  0.2133 -0.0693
    1W        W36320  27.560   8.613   0.428  0.2372  0.0422  0.0253
    1W        W36321  27.344  16.424   0.250  0.1996 -0.1004 -0.1533
    1W        W36322  13.647  25.649   8.658 -0.0360  0.0967  0.2043
    1W        W36323  19.101   5.741   7.900  0.2722  0.0879  0.2509
    1W        W36324  13.244   4.639   9.330 -0.0383 -0.1561 -0.2956
    1W        W36325   4.628   6.224   0.072 -0.2793  0.0781  0.1977
    1W        W36326  13.810   5.504   6.505 -0.3675 -0.0241  0.0260
    1W        W36327   5.820  29.683   8.381  0.3361 -0.1498 -0.0649
    1W        W36328   6.923  14.305   0.392 -0.0556 -0.1550  0.0843
    1W        W36329  19.881  28.146   9.372 -0.0328  0.2537 -0.0989
    1W        W36330  20.998  24.748   2.098 -0.2773  0.0463  0.1244
    1W        W36331  13.877  10.017   8.662  0.1044 -0.1387 -0.0523
    1W        W36332  27.088  18.407   6.628 -0.1215 -0.2453  0.1567
    1W        W36333  18.448   7.642   6.981  0.0614 -0.0067 -0.3910
    1W        W36334  25.847  10.746   8.270 -0.2203  0.1379  0.1440
    1W        W36335   0.416  29.822   7.621 -0.5074  0.0918 -0.1777
    1W        W36336  19.195  11.288   7.212 -0.1326  0.0066  0.1009
    1W        W36337  15.032   7.471   6.795 -0.1591  0.1294 -0.0172
    1W        W36338  29.784   6.316   9.339 -0.0174 -0.0040 -0.1411
    1W        W36339  23.986   1.493   8.320  0.2014 -0.0455 -0.0297
    1W        W36340   0.085   6.756   3.003 -0.1363 -0.0090 -0.3348
    1W        W36341  13.904  10.444   7.095 -0.3095 -0.2730  0.0128
    1W        W36342  29.424  28.891   0.774  0.0305  0.0539  0.3032
    1W        W36343  23.133  15.994   8.665 -0.2791 -0.0872 -0.1934
    1W        W36344  26.495   1.878   0.489  0.1740 -0.3538  0.2707
    1W        W36345   1.036  28.586   7.883  0.0190  0.1972  0.0816
    1W        W36346  28.908  24.846   9.232 -0.0956  0.1253 -0.3463
    1W        W36347   1.200   0.185   0.576 -0.1980  0.1190  0.0699
    1W        W36348  15.474  22.354   6.971 -0.0784 -0.0951 -0.0331
    1W        W36349   0.379   6.728   0.711  0.0062  0.1307  0.1621
    1W        W36350   9.539   7.019   1.649 -0.2097 -0.1118  0.3230
    1W        W36351   6.612  17.367   0.032 -0.1131 -0.0326 -0.2611
    1W        W36352  21.149  12.513   9.299  0.0171 -0.1732  0.0823
    1W        W36353  19.852  19.046   7.999  0.0763 -0.1606 -0.1543
    1W        W36354  15.413   2.468   1.069  0.0269  0.0765  0.2310
    1W        W36355  15.473  12.169   7.341 -0.0038  0.1978 -0.1331
    1W        W36356  14.629   8.637   7.053 -0.1047  0.2056  0.0687
    1W        W36357  21.246  22.678   0.234 -0.0967 -0.4782 -0.4094
    1W        W36358  17.140  24.192   2.332  0.0693 -0.0005  0.2209
    1W        W36359  23.701   0.996   2.364  0.4455  0.0065  0.0880
    1W        W36360  21.330   8.638   7.066  0.0798  0.1254  0.2648
    1W        W36361  26.025  12.147   0.161 -0.0500 -0.2350  0.2971
    1W        W36362   6.123   4.725   6.972 -0.0910  0.1789 -0.0211
    1W        W36363  23.014  21.733   7.217  0.0578  0.1263  0.0710
    1W        W36364   1.339   8.355   0.073  0.1454  0.1305  0.0557
    1W        W36365  16.896   0.589   9.070 -0.2398  0.2446  0.2428
    1W        W36366  23.002   4.088   2.140 -0.2395  0.1459  0.0577
    1W        W36367  16.363  12.537   6.834  0.0918 -0.2004  0.0970
    1W        W36368   7.143  20.546   0.762  0.2345 -0.0578  0.1678
    1W        W36369  15.768   8.673   3.187  0.1329 -0.0924 -0.1628
    1W        W36370  18.719  17.949   1.633  0.1604 -0.4574 -0.0645
    1W        W36371  25.198  17.139   2.169 -0.0716  0.1500 -0.2638
    1W        W36372   3.083  20.338   7.196 -0.3506 -0.2451 -0.1667
    1W        W36373  24.963  16.436   5.629 -0.3912  0.0636 -0.0225
    1W        W36374  10.220  25.830   0.674  0.2035  0.0907  0.0800
    1W        W36375  11.685  16.285   0.125  0.0583  0.0252 -0.1631
    1W        W36376   4.688  16.346   0.522 -0.0488 -0.1590 -0.0198
    1W        W36377  23.578   8.087   8.980 -0.0770 -0.0487 -0.0276
    1W        W36378  28.815  29.650   7.741 -0.2742 -0.0910  0.0592
    1W        W36379   0.971  15.485   1.737  0.0489 -0.2313 -0.0828
    1W        W36380   9.256  27.127   1.155  0.0123 -0.2447  0.0370
    1W        W36381   2.757  26.640   7.579 -0.0875 -0.0670 -0.0560
    1W        W36382  29.205  14.479   8.445  0.2303  0.1157  0.1774
    1W        W36383  12.783  23.974   6.449  0.1259  0.1657 -0.0295
    1W        W36384  24.019  23.140   8.467  0.1181  0.2193 -0.0723
    1W        W36385  13.413  20.897   8.348  0.0259 -0.0689  0.0830
    1W        W36386   2.978  20.966   8.049 -0.1917 -0.0051 -0.0514
    1W        W36387  19.911   2.756   0.858 -0.0914 -0.0996  0.0002
    1W        W36388   5.647  26.438   8.620  0.1978 -0.2427 -0.0636
    1W        W36389  15.399  10.568   9.269  0.0193  0.1597  0.1789
    1W        W36390  28.584  12.283   8.658  0.2514 -0.2513  0.2995
    1W        W36391   8.278   0.853   2.864 -0.1985 -0.3374 -0.1396
    1W        W36392  12.234   9.665   2.095 -0.3646 -0.1422  0.0986
    1W        W36393  10.730  11.468   3.057 -0.2211 -0.2543  0.4290
    1W        W36394   6.211  14.469   9.073  0.1938  0.0187 -0.1264
    1W        W36395  21.205   2.182   1.608  0.1263  0.3086  0.1902
    1W        W36396  19.247  27.867   7.632 -0.2911  0.0373 -0.0707
    1W        W36397   8.054   6.243   0.896 -0.0146  0.0569  0.2747
    1W        W36398   4.853   6.259   8.306 -0.3724  0.1925 -0.0986
    1W        W36399   4.329  23.383   0.493 -0.1127  0.0396 -0.1798
    1W        W36400  10.791  22.628   1.499  0.1363  0.0275 -0.0129
    1W        W36401  28.683  21.073   1.787  0.0885  0.1653 -0.2151
    1W        W36402   8.781  12.636   8.602 -0.2136 -0.3034 -0.2396
    1W        W36403  23.411   9.436   0.193  0.1499 -0.1319 -0.0206
    1W        W36404  13.363  18.174   9.145 -0.0315  0.0699 -0.0020
    1W        W36405  29.902  13.286   1.648  0.0606 -0.0853  0.1728
    1W        W36406  15.698  29.855   2.076  0.1254  0.1867 -0.1579
    1W        W36407  15.467  17.300   7.055 -0.0450 -0.1434  0.2047
    1W        W36408  26.983   1.191   8.488  0.0044 -0.1856  0.0901
    1W        W36409  19.788   2.021   6.781 -0.0985 -0.2590 -0.1261
    1W        W36410   5.041  16.778   6.582  0.1965  0.5638 -0.1046
    1W        W36411   3.993  12.489   8.452  0.0773  0.2400  0.2269
    1W        W36412   2.094   4.427   6.971  0.3603 -0.0148 -0.0152
    1W        W36413  25.044  29.253   0.765 -0.1061 -0.1480 -0.1638
    1W        W36414  14.290  19.886   1.516  0.2921 -0.1049 -0.1012
    1W        W36415   1.005   5.140   7.000 -0.1193  0.1918  0.0402
    1W        W36416  14.826   2.663   9.338 -0.2809  0.1239  0.1531
    1W        W36417   9.109  23.523   7.379  0.1752 -0.0393 -0.1722
    1W        W36418  25.085  26.093   7.531  0.0027  0.2535  0.0137
    1W        W36419  27.611  20.338   3.305  0.2340 -0.1475 -0.0401
    1W        W36420  11.072  15.451   9.451  0.1522 -0.0689  0.7063
    1W        W36421  18.573  26.514   8.232 -0.1218  0.1064 -0.2455
    1W        W36422   1.448  20.808   0.921 -0.2302  0.1201 -0.1798
    1W        W36423   8.196   3.289   2.760  0.0742 -0.1817 -0.0629
    1W        W36424  19.054   7.779   1.331  0.0011 -0.0576  0.0829
    1W        W36425  21.933   7.990   9.167 -0.2347  0.1607  0.2480
    1W        W36426   7.307  26.000   5.832 -0.0608  0.0838  0.3089
    1W        W36427  12.340  10.980   2.197 -0.1595  0.1752  0.1617
    1W        W36428   0.817  28.962   6.460  0.1972 -0.0091  0.1244
    1W        W36429  27.983   4.295   3.622  0.0611 -0.1367  0.0671
    1W        W36430  15.044   1.475   3.151  0.0261  0.2075 -0.0378
    1W        W36431  23.631  21.716   8.000  0.2131  0.0363 -0.0055
    1W        W36432  25.642  12.474   9.393 -0.3942 -0.1974 -0.0174
    1W        W36433  16.261   5.104   2.750  0.1677  0.1221  0.1670
    1W        W36434  22.710  25.128   1.343 -0.0704 -0.0538 -0.0350
    1W        W36435   8.012  25.887   7.118 -0.2249  0.2160 -0.1201
    1W        W36436   8.938  19.853   9.197  0.0365  0.1531  0.0890
    1W        W36437  10.945  26.335   7.018 -0.3976 -0.1540 -0.1486
    1W        W36438   2.107  29.692   1.886 -0.1728  0.0618  0.1482
    1W        W36439  14.148   8.115   8.315  0.3075  0.2333 -0.0211
    1W        W36440  25.685  23.012   7.245  0.2315 -0.2181 -0.1293
    1W        W36441  17.256  16.253   8.662 -0.1007 -0.1315 -0.1065
    1W        W36442  10.758   5.404   3.234  0.2913 -0.1421  0.0837
    1W        W36443   3.503  13.356   0.288  0.0866  0.0319  0.0414
    1W        W36444  26.305   5.936   2.990  0.1388  0.1584  0.0134
    1W        W36445  14.803  27.009   3.695 -0.0086  0.3321 -0.1409
    1W        W36446  20.863   3.829   9.321  0.1694 -0.0798 -0.1122
    1W        W36447  11.118   6.457   0.955  0.0119  0.0846 -0.0487
    1W        W36448  10.938   6.810   7.704  0.0760 -0.1519  0.3599
    1W        W36449   6.664   0.678   9.144  0.2350  0.0139 -0.2739
    1W        W36450  22.778  14.849   8.681  0.1283 -0.0613 -0.2449
    1W        W36451  17.097   4.286   1.196  0.0431  0.1785 -0.1033
    1W        W36452  16.684  23.024   8.868  0.2432  0.1725  0.0733
    1W        W36453   5.592  18.861   7.684  0.0993 -0.0819  0.0778
    1W        W36454  17.327   3.480   8.443 -0.0389 -0.0585  0.4254
    1W        W36455  22.165  13.419   7.457  0.0710 -0.1199  0.0221
    1W        W36456  29.440  23.996   8.851 -0.0866 -0.0236  0.2276
    1W        W36457  11.072  19.371   9.403 -0.1909  0.0848 -0.0000
    1W        W36458  19.469   9.280   1.193  0.1718  0.1596 -0.2251
    1W        W36459  11.450  25.602   6.992 -0.1166 -0.0886  0.1494
    1W        W36460  26.537  26.272   9.132 -0.0909 -0.0742 -0.0505
    1W        W36461  21.168   9.996   7.673  0.0657 -0.1273  0.2049
    1W        W36462  15.694  29.209   7.659  0.1648 -0.2093  0.0459
    1W        W36463  29.579  12.849   8.674  0.2113 -0.2761 -0.1641
    1W        W36464  11.389   9.217   8.990 -0.3484 -0.0458 -0.1350
    1W        W36465  21.483   2.523   7.545 -0.1713  0.0716  0.0940
    1W        W36466   9.649  23.245   8.129 -0.1090 -0.2401  0.1515
    1W        W36467  18.947  10.044   1.219  0.1437 -0.1582  0.0126
    1W        W36468  11.339   7.590   0.517 -0.1053  0.3009 -0.0979
    1W        W36469  12.433  10.203   2.020  0.3041 -0.3840 -0.0113
    1W        W36470   1.156   4.696   7.184 -0.0495 -0.2679 -0.2749
    1W        W36471  24.187  29.378   2.219  0.1618  0.2307  0.2977
    1W        W36472  11.155   0.987   2.860 -0.1416 -0.2823 -0.2485
    1W        W36473  24.782  27.857   0.853 -0.0553 -0.3093  0.0270
    1W        W36474   9.545  12.110   2.501  0.1458  0.1022  0.0042
    1W        W36475   6.729  20.764   6.324  0.2920  0.0429 -0.1778
    1W        W36476   6.321   6.049   1.718 -0.0527  0.1857 -0.0205
    1W        W36477  29.009  28.577   0.886  0.0358 -0.0889  0.1931
    1W        W36478   3.793  13.287   8.256  0.1024 -0.0998  0.0148
    1W        W36479   8.317   8.830   2.655  0.3439  0.0925  0.1341
    1W        W36480   1.896   6.028   8.497 -0.3986 -0.0939 -0.0174
    1W        W36481   3.634  20.443   6.323 -0.2623  0.1315 -0.1085
    1W        W36482  23.241  29.248   2.900 -0.0598 -0.0960  0.3925
    1W        W36483  12.029   8.243   8.290 -0.0469 -0.0951 -0.0309
    1W        W36484  19.839  27.643   2.275  0.0182  0.0730 -0.2578
    1W        W36485  14.689  23.999   1.714 -0.0009 -0.0279 -0.0806
    1W        W36486  15.057   6.873   8.783  0.0363  0.1447 -0.0105
    1W        W36487   8.748  19.735   8.753 -0.3958 -0.1875 -0.0003
    1W        W36488   1.573  19.040   0.765 -0.0726  0.2624 -0.0163
    1W        W36489   8.664   1.071   8.741 -0.0292 -0.1340 -0.1117
    1W        W36490   4.057  18.746   2.533 -0.2082 -0.1371  0.0263
    1W        W36491  20.945  26.920   2.904 -0.0308 -0.0432 -0.0837
    1W        W36492  24.656   6.141   1.089  0.0351 -0.0592  0.2974
    1W        W36493  16.590  24.175   7.717  0.2112 -0.1165  0.0553
    1W        W36494  17.540  17.053   0.735  0.2439 -0.1564 -0.3090
    1W        W36495   2.589   4.377   7.753  0.1198 -0.0262 -0.2081
    1W        W36496  24.919   5.674   9.082  0.2418  0.1696  0.1779
    1W        W36497   2.744  20.116   8.357  0.0830 -0.1356 -0.1738
    1W        W36498  26.519   2.186   7.302  0.1888 -0.0682  0.0610
    1W        W36499  20.934  19.862   2.214  0.1584 -0.1236  0.1968
    1W        W36500  20.871  13.916   0.523  0.2180  0.1178 -0.0133
    1W        W36501  28.527   7.594   8.893 -0.1060  0.0362  0.1222
    1W        W36502  29.415   1.402   9.296  0.1226 -0.1097  0.2710
    1W        W36503  24.248   3.403   0.270  0.3373  0.0992 -0.1507
    1W        W36504  21.818   6.696   1.143 -0.1012 -0.0252 -0.0741
    1W        W36505  13.418  20.947   2.151 -0.1382  0.1523 -0.0191
    1W        W36506  23.580  11.272   1.798 -0.1705 -0.4280 -0.2342
    1W        W36507   3.242  19.973   6.913  0.0204 -0.0441  0.1877
    1W        W36508  13.198  24.066   1.097 -0.3055  0.1000  0.1707
    1W        W36509   9.356  24.383   5.890  0.1118  0.0816 -0.4193
    1W        W36510  26.367  24.429   6.566 -0.0591 -0.2306 -0.2810
    1W        W36511  21.236  21.172   0.141 -0.1147  0.1820  0.0178
    1W        W36512  27.665   1.171   3.295 -0.1175  0.0234 -0.0845
    1W        W36513   8.975  28.044   0.854  0.0050 -0.0342 -0.0475
    1W        W36514  25.523  29.842   1.973 -0.2730  0.0702 -0.0660
    1W        W36515  27.678   6.976   6.864 -0.1217  0.0140 -0.0544
    1W        W36516  17.054   9.599   9.016  0.3001  0.2232  0.3671
    1W        W36517  13.634  12.509   7.802 -0.1400  0.2676  0.0656
    1W        W36518   6.779  18.031   8.864  0.1864 -0.0533  0.1812
    1W        W36519  20.651   3.559   8.953 -0.3940  0.1668 -0.3501
    1W        W36520  29.555   6.221   1.344  0.3972  0.1547  0.1509
    1W        W36521  25.651  18.812   6.193  0.2558  0.3518 -0.1482
    1W        W36522  16.873   8.169   7.092  0.2751  0.1764 -0.2123
    1W        W36523  21.338   6.769   8.516 -0.0610 -0.1051 -0.3555
    1W        W36524  29.743  29.761   1.733  0.2408 -0.0907  0.2225
    1W        W36525   7.610  23.124   8.127 -0.3360  0.1307  0.1528
    1W        W36526  15.755  21.325   1.047  0.2963  0.2322 -0.0150
    1W        W36527  15.283   4.283   0.681  0.1023 -0.2458  0.1945
    1W        W36528   1.132  14.360   2.138 -0.1883 -0.0788 -0.1704
    1W        W36529  24.863  12.600   0.215 -0.1454 -0.1567 -0.1338
    1W        W36530   6.250   2.025   8.884  0.1521 -0.4178  0.1741
    1W        W36531   7.882   2.824   7.639  0.3692  0.0172 -0.1522
    1W        W36532  28.281  20.515   2.243 -0.3081  0.0452  0.3740
    1W        W36533  11.719  14.588   7.293 -0.0460  0.0405  0.5834
    1W        W36534  23.811   4.929   9.200  0.3164 -0.1687  0.0666
    1W        W36535  18.593   8.638   6.724 -0.0888  0.1326 -0.1971
    1W        W36536   1.377  29.418   2.329  0.1784 -0.4333  0.0197
    1W        W36537  19.704  11.531   6.417  0.2635  0.0515 -0.0973
    1W        W36538  19.813  21.891   0.726 -0.4548  0.1923  0.2353
    1W        W36539  21.334   0.239   0.341 -0.2119  0.0520 -0.0123
    1W        W36540  12.544  28.218   3.208 -0.2272 -0.3123 -0.0768
    1W        W36541  23.577  14.188   7.985  0.0314  0.1874  0.0510
    1W        W36542   1.810  25.399   2.158 -0.0474  0.1767  0.0269
    1W        W36543  22.454  29.132   8.515  0.0645  0.0845 -0.0327
    1W        W36544   3.726  15.552   0.805  0.0465  0.2104  0.1720
    1W        W36545   0.166   4.480   1.329  0.1347 -0.0544 -0.0346
    1W        W36546  23.520   3.010   2.700 -0.2375  0.1227  0.2762
    1W        W36547   4.369  26.123   0.642 -0.2317  0.0783 -0.1121
    1W        W36548  10.815  23.344   8.526  0.1754  0.0696  0.4023
    1W        W36549   7.885  14.686   0.717 -0.0162  0.1268  0.1200
    1W        W36550  17.815  21.169   2.340 -0.0729  0.0755 -0.2594
    1W        W36551  11.526  13.337   7.395  0.0543  0.3133 -0.3016
    1W        W36552  28.083   2.126   0.158  0.1122  0.2391 -0.0629
    1W        W36553  26.988  13.717   6.680 -0.0363  0.0354 -0.0309
    1W        W36554  10.306   5.721   7.694 -0.2824 -0.2511  0.1057
    1W        W36555  24.256   6.984   2.240 -0.1441 -0.0515 -0.3160
    1W        W36556   6.987  26.319   6.886  0.0799 -0.0926  0.0187
    1W        W36557  12.372   2.406   9.439  0.0627  0.2333  0.0809
    1W        W36558  25.377  16.717   1.434  0.1236  0.1326 -0.2451
    1W        W36559   9.665  16.747   1.272  0.0654  0.0096 -0.1310
    1W        W36560  25.427  20.134   8.942  0.0330  0.0059 -0.2756
    1W        W36561   1.379   1.108   9.195 -0.2636  0.0941 -0.1497
    1W        W36562  13.731   3.842   0.474 -0.0172  0.0366  0.0110
    1W        W36563  19.599  28.766   8.457  0.3369  0.2385 -0.1459
    1W        W36564   7.236   7.723   8.946  0.1734 -0.2205  0.1302
    1W        W36565  13.957  29.378   3.092 -0.1298  0.1373  0.4363
    1W        W36566   5.626   4.763   2.587  0.3461 -0.1734  0.0591
    1W        W36567  23.163  13.564   6.697  0.1209  0.1403 -0.2913
    1W        W36568  23.244  25.691   0.652 -0.1499  0.1181  0.1506
    1W        W36569  10.854  10.876   8.408 -0.4100 -0.0083  0.0884
    1W        W36570   8.172   2.489   7.340  0.2271 -0.0289 -0.0306
    1W        W36571  18.392   1.663   0.047  0.2770  0.1654  0.0585
    1W        W36572  20.751  29.311   8.611 -0.1011 -0.2994  0.0776
    1W        W36573   1.600   6.328   8.776  0.1191 -0.0824  0.1112
    1W        W36574  10.553  25.274   8.539  0.0303  0.1565 -0.1113
    1W        W36575  15.569   0.851   1.924  0.2690  0.0396 -0.1208
    1W        W36576   3.384  16.600   8.419 -0.0709 -0.2280  0.0761
    1W        W36577  26.771  25.110   0.883  0.0688  0.0039  0.0649
    1W        W36578  20.900  23.375   2.270 -0.0312  0.0214 -0.0958
    1W        W36579   4.979  25.384   8.718  0.0906  0.0468  0.0874
    1W        W36580   8.524  23.758   5.711 -0.3588  0.1822 -0.1283
    1W        W36581  22.072  12.051   1.905 -0.0884 -0.1058 -0.3118
    1W        W36582   6.809   2.662   7.284  0.1843 -0.0811  0.1822
    1W        W36583   8.108   8.736   7.419 -0.2611 -0.0434 -0.0156
    1W        W36584  12.663  20.182   0.450 -0.0719  0.0367  0.2256
    1W        W36585   5.598  15.793   6.838 -0.2863 -0.2648  0.0013
    1W        W36586   9.747   5.397   1.868 -0.0431  0.1883 -0.0508
    1W        W36587   1.495  19.241   8.262  0.3572 -0.0452  0.2140
    1W        W36588  23.241  14.998   0.885  0.2413 -0.1138  0.0241
    1W        W36589   7.111  18.282   6.929 -0.3049  0.3972 -0.2878
    1W        W36590   3.140  26.893   1.998  0.2211  0.2019  0.0893
    1W        W36591  10.959  23.737   9.397 -0.0840  0.0642  0.2343
    1W        W36592   3.250   8.490   0.762 -0.1447 -0.0774  0.0439
    1W        W36593  20.845   7.057   2.648  0.0837 -0.0325 -0.1252
    1W        W36594   9.751  14.628   7.844  0.0759  0.2794 -0.0203
    1W        W36595  24.156  14.315   1.813  0.0017 -0.0247  0.0381
    1W        W36596  21.911   1.969   8.425  0.1946  0.1192 -0.0367
    1W        W36597   7.600   9.444   2.754  0.0695  0.1278  0.0887
    1W        W36598  17.380   8.868   7.332 -0.0622 -0.5077  0.2486
    1W        W36599  14.220  14.230   1.058  0.0543 -0.1531  0.2406
    1W        W36600  11.553  20.108   9.230 -0.0990 -0.0065  0.0796
    1W        W36601   4.253  10.934   1.024  0.3687 -0.0382  0.0411
    1W        W36602   4.782  12.514   7.126 -0.0394  0.0629 -0.0930
    1W        W36603  18.575  14.126   7.456  0.3070 -0.0444  0.0619
    1W        W36604   4.901   8.263   6.673 -0.1988  0.1280  0.1826
    1W        W36605  15.496   5.058   8.126  0.1364 -0.1384  0.1322
    1W        W36606  18.649  20.961   8.371 -0.1516 -0.2089 -0.0206
    1W        W36607  13.224   6.597   8.280  0.2680 -0.0665 -0.0410
    1W        W36608   6.602  29.670   6.925 -0.0255  0.0495  0.2268
    1W        W36609   9.027   3.491   1.482 -0.2000 -0.1775  0.1583
    1W        W36610   3.350  18.992   5.755 -0.2413 -0.1693 -0.0951
    1W        W36611  12.497   9.523   9.140 -0.0634 -0.0170  0.0021
    1W        W36612  20.781  23.386   8.297  0.0567 -0.0906  0.0429
    1W        W36613  13.601  23.182   0.743  0.0028  0.0074 -0.2050
    1W        W36614  18.430  24.806   7.668  0.0097 -0.0061  0.1658
    1W        W36615  10.092  12.103   1.524 -0.0505 -0.0820  0.4249
    1W        W36616   0.279   4.259   2.347  0.0748 -0.2080 -0.0029
    1W        W36617  21.538  28.042   7.101  0.1811 -0.0441 -0.0678
    1W        W36618   8.202   3.114   8.511 -0.0910  0.1779  0.2855
    1W        W36619  25.999  28.786   9.176  0.0803  0.1768 -0.5685
    1W        W36620  21.436   1.107   8.043  0.3999  0.0221 -0.2432
    1W        W36621  28.780  23.022   0.741 -0.1059 -0.2412 -0.0221
    1W        W36622   2.471  28.471   0.783 -0.0328  0.0627 -0.2799
    1W        W36623  26.281  27.673   0.840  0.0675 -0.0526 -0.1099
    1W        W36624  22.727   2.556   0.283 -0.0964  0.1800 -0.1250
    1W        W36625  12.075  15.889   7.248 -0.0760  0.2800  0.0278
    1W        W36626  18.000   1.342   0.125  0.2116  0.0919  0.1883
    1W        W36627   8.774  25.722   6.532  0.0182  0.0143 -0.2953
    1W        W36628   5.805  16.779   2.024 -0.0200 -0.0589  0.3328
    1W        W36629   5.341  17.311   0.243  0.0054 -0.0381 -0.1211
    1W        W36630  21.529  20.886   2.152  0.1892 -0.0145  0.0438
    1W        W36631   7.409   3.868   2.878 -0.0622 -0.0190 -0.2043
    1W        W36632  22.429  26.162   7.582  0.1911 -0.0553  0.1822
    1W        W36633  17.786   0.021   9.049 -0.2568  0.0677 -0.2402
    1W        W36634  10.882  18.502   7.249 -0.0773 -0.0421  0.1948
    1W        W36635  29.760  23.669   1.475 -0.1273 -0.0542  0.0616
    1W        W36636  21.069  27.862   0.303  0.0203  0.1306  0.3888
    1W        W36637  28.709  25.309   8.604 -0.1826  0.3058  0.1037
    1W        W36638  11.444  27.635   7.596  0.0723  0.0132  0.3228
    1W        W36639  16.844  15.654   9.294  0.1347  0.1189 -0.0478
    1W        W36640  22.109   9.784   0.710 -0.1982  0.2095 -0.0565
    1W        W36641  20.191  12.459   8.054  0.2720 -0.0691 -0.0917
    1W        W36642   3.914  24.835   2.564 -0.1559 -0.3361 -0.0186
    1W        W36643  14.500  18.380   0.208  0.2166  0.0516  0.1830
    1W        W36644   9.358   6.095   3.455 -0.0940  0.0724 -0.0404
    1W        W36645  21.480  14.798   7.283  0.0203  0.0514  0.0445
    1W        W36646  27.266  24.799   6.269 -0.3124 -0.3252  0.2350
    1W        W36647  29.497  16.716   1.460 -0.0234  0.1231 -0.2315
    1W        W36648  19.881  28.734   0.084  0.1466  0.0099 -0.0277
    1W        W36649  10.042  19.991   8.708 -0.0291  0.2289  0.4791
    1W        W36650   3.780  14.057   9.190  0.0522  0.1316 -0.0794
    1W        W36651  26.342  11.948   2.606  0.1490  0.0427  0.3139
    1W        W36652  12.586   1.227   1.611  0.0689 -0.0008 -0.1356
    1W        W36653  16.065   8.252   2.088 -0.1438  0.0053 -0.1065
    1W        W36654  15.189  10.548   8.603 -0.3154 -0.0961 -0.1096
    1W        W36655  12.039   4.483   7.797 -0.0470  0.1892  0.1312
    1W        W36656   6.625   5.115   1.975  0.0351 -0.0032 -0.0416
    1W        W36657   9.203   4.387   1.928 -0.0303  0.0632  0.6140
    1W        W36658   7.006  18.169   7.991 -0.1370 -0.0627  0.0095
    1W        W36659   7.451   0.374   2.452  0.3107 -0.0532  0.0291
    1W        W36660  11.555  24.622   9.224 -0.1614 -0.5081 -0.1991
    1W        W36661   5.949  18.206   1.386  0.2360  0.2143  0.1138
    1W        W36662   4.232  21.348   8.451 -0.0445  0.0913 -0.0225
    1W        W36663   6.362  16.604   2.495 -0.0353 -0.2226  0.1960
    1W        W36664  23.200   9.005   8.447  0.1843 -0.0469  0.1666
    1W        W36665   8.530   5.608   8.277 -0.0019  0.0641  0.1323
    1W        W36666  21.274  18.520   8.527 -0.1226 -0.2311 -0.2287
    1W        W36667   8.595  16.493   8.310  0.0405  0.1124 -0.0384
    1W        W36668  18.123  14.310   8.537  0.2398 -0.2064  0.1357
    1W        W36669   1.084   1.943   7.925  0.2385  0.0825 -0.1894
    1W        W36670   6.069  29.728   2.815 -0.1057 -0.0775  0.0325
    1W        W36671   5.856   4.846   8.396 -0.3309  0.3741  0.0211
    1W        W36672  13.695  26.045   0.595  0.0135  0.1932  0.0222
    1W        W36673  20.359   7.778   9.186  0.0038  0.0576 -0.2298
    1W        W36674   4.206  28.415   0.533  0.0091 -0.0158 -0.2846
    1W        W36675  18.757   3.048   8.187  0.0252 -0.3019 -0.4920
    1W        W36676   1.202  11.188   2.684  0.0146  0.1315  0.0791
    1W        W36677  26.460  27.403   2.563 -0.0628  0.0476  0.0500
    1W        W36678  11.559  29.523   3.608 -0.2113 -0.0484 -0.2403
    1W        W36679  16.731  27.697   0.668 -0.1176 -0.2182  0.1418
    1W        W36680  27.697  13.705   7.974  0.0873  0.0328  0.0613
    1W        W36681  15.043   0.611   0.872 -0.1244 -0.3395 -0.3838
    1W        W36682   4.992   8.522   1.868  0.2747 -0.0050 -0.1235
    1W        W36683  11.348  23.352   1.584 -0.0058  0.2640  0.0784
    1W        W36684   1.641  16.438   0.214  0.0546 -0.1280 -0.1244
    1W        W36685  27.906   0.028   7.965 -0.1478  0.0207  0.2493
    1W        W36686  11.613  29.490   0.523 -0.0714  0.0481  0.0768
    1W        W36687   6.327   9.541   0.841  0.0847 -0.1370  0.2604
    1W        W36688   2.084  13.773   0.679  0.2182  0.1379  0.3842
    1W        W36689  24.076  23.772   1.686  0.0679  0.1267  0.0842
    1W        W36690   7.640   0.837   6.962  0.1009  0.1544  0.2741
    1W        W36691   5.577  18.651   1.110 -0.1539 -0.1052  0.0221
    1W        W36692   0.533   0.201   9.353 -0.1012 -0.1966  0.3561
    1W        W36693   3.356  25.074   7.989  0.0859  0.1295 -0.2701
    1W        W36694  13.430   9.166   0.530 -0.0554  0.1760 -0.0078
    1W        W36695   4.706  16.844   5.615 -0.0734 -0.3396 -0.1657
    1W        W36696  28.062  17.259   8.812  0.0149 -0.6325 -0.0073
    1W        W36697  18.890   0.061   8.397  0.0469  0.0331  0.2866
    1W        W36698  28.511  11.042   0.795  0.1815  0.2373 -0.0652
    1W        W36699  13.699   1.752   9.181  0.2630 -0.1014 -0.1778
    1W        W36700  17.470  28.866   6.894 -0.2231  0.1575  0.3814
    1W        W36701   1.316   1.011   2.296 -0.0753  0.2972 -0.1425
    1W        W36702  12.378  26.704   7.209 -0.1512  0.2670 -0.0442
    1W        W36703   4.120  28.306   2.416 -0.3474 -0.1790  0.2868
    1W        W36704   9.982  26.294   0.642  0.3981  0.0821 -0.0256
    1W        W36705   6.786   7.697   0.298  0.2040  0.3953 -0.4388
    1W        W36706  18.506  23.606   0.657 -0.0693 -0.3027 -0.0197
    1W        W36707   4.473  27.529   1.037  0.2790 -0.0799 -0.0977
    1W        W36708  24.785  25.028   9.226  0.1137 -0.2130 -0.2830
    1W        W36709  14.844  24.940   1.723  0.3704 -0.0894 -0.3634
    1W        W36710  22.972  14.676   1.265 -0.0051  0.1497 -0.1280
    1W        W36711  10.769  24.277   8.204 -0.0285 -0.1373  0.0425
    1W        W36712   2.614   6.850   7.633  0.0229 -0.3762 -0.1464
    1W        W36713  18.570   5.932   8.087 -0.2017 -0.1562 -0.1929
    1W        W36714  22.839  13.825   2.142  0.2954  0.2619  0.2568
    1W        W36715   0.876   5.890   1.627 -0.0881 -0.2090 -0.1126
    1W        W36716  22.836  21.765   6.632 -0.0817 -0.1336 -0.0611
    1W        W36717  14.417  26.141   8.612  0.1912 -0.2608 -0.0147
    1W        W36718  25.500  16.182   0.287 -0.1983 -0.0461 -0.0411
    1W        W36719  15.200  20.124   7.388 -0.2018  0.0901  0.1720
    1W        W36720  18.346   9.031   0.300 -0.1136  0.1090  0.1657
    1W        W36721  29.155  15.893   6.207 -0.1991  0.0050  0.3641
    1W        W36722  22.539  29.393   0.867 -0.0333  0.1001 -0.4146
    1W        W36723   5.836  13.460   9.360 -0.1046 -0.0356  0.1090
    1W        W36724  12.396   1.160   8.056 -0.0641 -0.0838  0.0263
    1W        W36725   3.908   6.308   7.655  0.1675 -0.0720  0.1091
    1W        W36726   0.650  24.154   2.027 -0.3770  0.1416  0.2852
    1W        W36727  24.729   0.159   9.264 -0.0310 -0.0094  0.2251
    1W        W36728  27.371   0.717   8.157  0.0670 -0.4214  0.0981
    1W        W36729   7.890  15.569   9.179  0.7399  0.0869 -0.3778
    1W        W36730  26.234   4.724   2.975 -0.0164  0.2025 -0.0766
    1W        W36731   6.756  25.174   9.384  0.1334 -0.0388  0.2260
    1W        W36732  15.362   2.895   8.869  0.2321 -0.0967 -0.3425
    1W        W36733   8.754   2.903   1.011  0.2790  0.0344 -0.0377
    1W        W36734  23.294  20.444   7.270 -0.2319 -0.1313 -0.2774
    1W        W36735  23.217   6.651   1.605 -0.0822  0.0840 -0.1019
    1W        W36736   5.581  15.298   5.986 -0.0243 -0.1643  0.6126
    1W        W36737   1.374   0.899   1.802  0.0188  0.1663  0.1139
    1W        W36738   9.218  18.837   7.039  0.0562 -0.0030 -0.2093
    1W        W36739  17.048  19.542   1.852 -0.0028  0.1597 -0.0131
    1W        W36740  11.426  22.259   6.540  0.2447 -0.1179  0.2411
    1W        W36741   3.838  16.894   7.919  0.0789 -0.0467  0.1477
    1W        W36742  29.722  17.058   6.757  0.1619 -0.1397  0.0466
    1W        W36743  26.385  12.569   7.360 -0.0899 -0.4158  0.1840
    1W        W36744   2.308  15.889   7.462  0.0352  0.0215 -0.4582
    1W        W36745   3.119  13.499   6.733 -0.1741  0.5330  0.4441
    1W        W36746  28.304   9.800   0.351 -0.1015  0.1905 -0.0412
    1W        W36747   5.197   3.316   1.495  0.1342 -0.1989 -0.2472
    1W        W36748   1.077  20.831   5.664 -0.0364  0.1865 -0.1106
    1W        W36749  26.827  22.584   1.828  0.4012 -0.0207 -0.3499
    1W        W36750   5.448  26.733   1.856  0.0739 -0.5073 -0.1670
    1W        W36751   7.424  11.911   2.793 -0.0541 -0.0071  0.2211
    1W        W36752  27.487  18.660   0.004 -0.0892  0.2509  0.0905
    1W        W36753  10.227   9.511   9.343  0.1070 -0.2574 -0.1895
    1W        W36754  22.762  12.539   8.944 -0.1301  0.0668  0.0839
    1W        W36755  26.583  27.248   0.221 -0.3335  0.1736  0.0340
    1W        W36756  26.156  13.478   6.917  0.0411 -0.1735  0.1391
    1W        W36757  18.553  17.881   2.184  0.0879 -0.0616  0.1906
    1W        W36758  14.294  11.330   2.030  0.2122  0.0507 -0.4309
    1W        W36759   6.377   4.220   2.121 -0.0540  0.0557  0.1766
    1W        W36760  16.035  12.178   9.402 -0.0876 -0.1761  0.2509
    1W        W36761  26.982  26.021   7.709  0.1474 -0.1310  0.0077
    1W        W36762  20.944  13.475   0.707 -0.0668 -0.0391 -0.0811
    1W        W36763  14.573  11.462   7.682 -0.2849  0.0687 -0.2909
    1W        W36764  16.934  23.286   7.844  0.3434  0.0369 -0.2986
    1W        W36765  24.775  16.101   0.373 -0.0074  0.0475  0.1798
    1W        W36766  27.146  27.280   0.356 -0.2170 -0.0251 -0.1824
    1W        W36767  26.776  21.594   1.847 -0.0824 -0.0338 -0.1757
    1W        W36768  15.819  20.806   8.641  0.2549 -0.0964 -0.3735
    1W        W36769  20.858  21.899   1.698  0.2157  0.1136 -0.2528
    1W        W36770   2.998   7.401   9.174  0.1941 -0.1018  0.2414
    1W        W36771  21.811   4.432   0.712 -0.0567  0.3243 -0.1649
    1W        W36772  23.439   0.790   3.085 -0.3790 -0.0504  0.0397
    1W        W36773  15.792  21.018   9.094 -0.0968 -0.0657 -0.0289
    1W        W36774  13.625   9.460   1.776  0.1327  0.0910 -0.2083
    1W        W36775  15.991   0.296   8.012 -0.0808  0.1641  0.1356
    1W        W36776   5.665   1.017   2.771  0.2154 -0.1865  0.1102
    1W        W36777  24.262   8.980   7.655 -0.0290  0.1191  0.2286
    1W        W36778   5.494   2.732   2.685  0.0808  0.0291 -0.3120
    1W        W36779  14.563   9.309   8.669  0.1106 -0.0207  0.3373
    1W        W36780   4.908  13.134   2.428 -0.1612 -0.3385 -0.1949
    1W        W36781   0.742  10.850   2.350  0.0621  0.1837 -0.0437
    1W        W36782  28.620  26.490   6.027 -0.1873  0.2701 -0.0255
    1W        W36783  24.740  24.132   7.620  0.1303 -0.1230  0.1639
    1W        W36784  16.621   0.849   2.611 -0.3051  0.1349  0.0113
    1W        W36785   2.496  29.746   2.807  0.1796  0.4916 -0.0946
    1W        W36786  20.644  25.496   6.570 -0.1953 -0.3342  0.0774
    1W        W36787  27.027  29.176   8.610  0.3033 -0.0387 -0.1802
    1W        W36788  10.924  25.479   7.168 -0.4795 -0.1543  0.2863
    1W        W36789   8.650  11.569   2.314  0.0688  0.0453  0.0008
    1W        W36790   9.295  26.590   8.724 -0.2046 -0.3109 -0.1337
    1W        W36791  22.585  13.100   7.507  0.4387  0.1971 -0.0927
    1W        W36792  11.864  12.940   7.576 -0.1997  0.3143 -0.1000
    1W        W36793  29.181  16.949   6.231 -0.0037  0.0536  0.3487
    1W        W36794  10.005  18.697   6.667 -0.1368 -0.1217 -0.0939
    1W        W36795  27.085   6.124   0.423 -0.0917 -0.1066 -0.3476
    1W        W36796   4.360   1.337   7.892 -0.0611 -0.2625 -0.0770
    1W        W36797   5.690   2.064   1.612  0.1461 -0.6145  0.0688
    1W        W36798   7.345  24.572   9.008 -0.0963  0.2365  0.1365
    1W        W36799   1.321   5.925   8.895  0.0391 -0.2534  0.4491
    1W        W36800  14.670  11.703   1.808 -0.0625 -0.3428  0.1351
    1W        W36801  16.372  10.074   9.128  0.2748 -0.1761  0.1685
    1W        W36802  26.572  20.674   1.591  0.1769  0.0020  0.2109
    1W        W36803  29.401  17.039   0.681 -0.0831 -0.0392 -0.1721
    1W        W36804  24.905  13.156   7.994  0.1921  0.0811 -0.2536
    1W        W36805  24.331  26.202   2.316  0.1409 -0.2117 -0.0809
    1W        W36806   1.668  19.163   7.749 -0.2216 -0.0200 -0.0343
    1W        W36807  17.683  14.422   0.341 -0.1173 -0.0264  0.3488
    1W        W36808   5.793  18.210   8.183 -0.1043  0.1628  0.1563
    1W        W36809  29.773   6.655   1.176 -0.0033  0.2153  0.4806
    1W        W36810  10.671  23.950   1.080 -0.1199  0.2003  0.0746
    1W        W36811  26.031   0.849   0.389 -0.1752 -0.0288 -0.0034
    1W        W36812  27.649   2.715   2.023  0.1059 -0.1236 -0.0178
    1W        W36813   0.407  19.010   2.665  0.3151 -0.2596 -0.1044
    1W        W36814   6.925   5.574   0.335  0.0088  0.0289  0.3505
    1W        W36815   0.815  12.108   8.311 -0.2276  0.0908  0.0059
    1W        W36816   0.414  14.888   7.786  0.3433  0.0227 -0.0238
    1W        W36817   0.320   1.745   3.624 -0.1018  0.0982 -0.3979
    1W        W36818  20.502   6.327   7.111  0.1235  0.2720  0.0245
    1W        W36819  18.084   2.513   8.705  0.0288  0.1488  0.1794
    1W        W36820   3.629  15.000   1.060  0.2436  0.0631 -0.1491
    1W        W36821   9.892  25.691   7.370  0.1728 -0.1980 -0.1714
    1W        W36822  29.852  27.320   9.263  0.0158  0.2698 -0.0563
    1W        W36823   1.113  23.778   8.396 -0.0834  0.1912  0.1760
    1W        W36824   6.551  28.630   7.703 -0.2850 -0.0516 -0.0427
    1W        W36825  28.395  28.631   1.142  0.1377 -0.0942 -0.1896
    1W        W36826  16.622  25.739   6.791 -0.1597 -0.0983 -0.0334
    1W        W36827  18.743  12.797   0.223 -0.0255  0.0705 -0.1457
    1W        W36828   0.734  27.773   0.182 -0.1709  0.0539  0.0729
    1W        W36829  28.156   1.194   8.615 -0.2261 -0.1594 -0.1040
    1W        W36830   6.416   2.972   7.135  0.0332  0.1422 -0.1436
    1W        W36831  18.117  16.310   8.509  0.0265 -0.1015 -0.0643
    1W        W36832  10.719  10.272   0.661 -0.0477 -0.0307  0.3420
    1W        W36833  20.800  11.298   7.847  0.0794 -0.0632 -0.0573
    1W        W36834   6.256  19.136   5.441  0.3487  0.1507  0.2035
    1W        W36835   2.044  29.717   0.670  0.1346  0.0701 -0.0806
    1W        W36836   9.345   5.891   7.747 -0.1295  0.1697  0.2107
    1W        W36837  25.191  20.200   7.788  0.5155  0.5827 -0.1133
    1W        W36838   5.171   2.887   2.340 -0.0883 -0.0636  0.0008
    1W        W36839  29.271  13.241   8.471  0.1040 -0.1632  0.3498
    1W        W36840  26.454  25.149   7.214 -0.1500 -0.0451  0.1884
    1W        W36841  13.446   3.268   0.357 -0.1195  0.0749 -0.0501
    1W        W36842  24.838  24.005   1.052 -0.4270 -0.0270  0.0771
    1W        W36843   8.550  26.481   1.000 -0.1720 -0.1200  0.2140
    1W        W36844  21.053   5.336   6.912 -0.0676 -0.0852 -0.3853
    1W        W36845  29.729  12.335   7.087  0.0027  0.1338  0.1542
    1W        W36846  10.207  17.354   9.217  0.0664 -0.2495  0.3746
    1W        W36847  22.322  27.246   9.346  0.0782  0.2639  0.0679
    1W        W36848  21.856   1.900   2.304 -0.0757 -0.1059  0.2493
    1W        W36849  12.014  11.407   7.704 -0.1251 -0.2370  0.0223
    1W        W36850  19.201  25.335   7.817  0.0775  0.1503 -0.0255
    1W        W36851  22.933  21.821   0.143 -0.1549  0.0369  0.1495
    1W        W36852   7.148  16.783   8.500  0.0366  0.1732 -0.2846
    1W        W36853  26.659   4.126   1.526  0.4331  0.1663  0.1302
    1W        W36854   5.276  17.565   8.272  0.1763 -0.1416 -0.1533
    1W        W36855  23.097   6.927   7.520 -0.1964  0.2178 -0.0085
    1W        W36856  20.345  14.946   6.836 -0.3353  0.2332  0.0275
    1W        W36857  13.532  21.990   7.702 -0.0048  0.4031 -0.0691
    1W        W36858   8.153   9.223   7.325  0.0347  0.0297  0.1005
    1W        W36859   5.683   5.145   3.467  0.0394 -0.0699  0.2807
    1W        W36860   0.761  16.676   6.648  0.2138  0.1009 -0.2058
    1W        W36861  17.028   0.825   2.893  0.0654  0.1305 -0.2166
    1W        W36862  25.692  11.690   6.734 -0.2627 -0.0216 -0.1627
    1W        W36863   6.963  24.689   2.262 -0.0978  0.0957  0.1881
    1W        W36864   5.576   0.492   9.075 -0.0052  0.1522  0.0430
    1W        W36865   4.555   5.888   1.845 -0.0445  0.2048 -0.0213
    1W        W36866   7.739  23.648   6.966  0.0775 -0.0841 -0.0675
    1W        W36867   9.103   2.472   0.743  0.1829  0.1090  0.0509
    1W        W36868  29.220   1.660   8.325 -0.3063  0.0661  0.1348
    1W        W36869   7.380   3.559   9.329 -0.0527 -0.3823 -0.2866
    1W        W36870  25.651  26.845   1.057  0.1638  0.3004  0.1135
    1W        W36871   1.194  18.510   6.083  0.0189 -0.1246 -0.4978
    1W        W36872  21.459   4.822   0.400  0.4368 -0.0228  0.0289
    1W        W36873   7.615   8.613   0.345  0.0279 -0.1201  0.2471
    1W        W36874   5.267   2.832   1.407  0.1878 -0.4149  0.0202
    1W        W36875  25.930  14.702   0.649  0.0843  0.5367  0.0016
    1W        W36876  25.108  14.564   8.529 -0.0279 -0.2123 -0.3080
    1W        W36877  23.375   4.948   0.517 -0.1145 -0.0772 -0.1254
    1W        W36878   0.179   7.515   2.596  0.0020  0.4064 -0.0790
    1W        W36879  27.366   4.244   2.239 -0.3071 -0.1904 -0.0485
    1W        W36880  21.472  10.032   2.065 -0.0029  0.0252  0.0051
    1W        W36881  27.497  23.261   8.036 -0.1610  0.0859 -0.0797
    1W        W36882  23.618  16.666   6.793  0.1326 -0.2358 -0.0959
    1W        W36883  24.566   7.328   0.763 -0.1925  0.0153 -0.0475
    1W        W36884  29.639  22.239   2.059  0.1546 -0.0688  0.1346
    1W        W36885  21.069   7.034   0.239  0.3673 -0.2927 -0.0947
    1W        W36886   8.585   4.616   0.242 -0.0808  0.0220 -0.1120
    1W        W36887  28.846  13.371   8.655  0.0844  0.1191 -0.1038
    1W        W36888   5.019  27.780   1.110 -0.2021  0.2210  0.1513
    1W        W36889  25.145   4.985   2.232  0.3393  0.3585 -0.2351
    1W        W36890  22.939   8.105   8.935  0.0021 -0.0593  0.0706
    1W        W36891  29.407  28.825   2.387  0.1069  0.4719 -0.2683
    1W        W36892   2.696   5.875   1.979  0.1266 -0.1181 -0.2616
    1W        W36893  16.458   8.279   7.452 -0.1127  0.3545 -0.2936
    1W        W36894  25.250  19.434   7.100 -0.0413  0.4250 -0.0973
    1W        W36895   8.176  21.874   9.311 -0.0670 -0.2032  0.1286
    1W        W36896  19.214  20.390   8.460  0.0199  0.0609  0.0281
    1W        W36897   7.666   9.051   1.581  0.1105  0.0431 -0.1117
    1W        W36898   8.572  26.138   1.456 -0.0547 -0.1554  0.0240
    1W        W36899   0.687   1.320   8.511 -0.2038  0.0616 -0.0487
    1W        W36900  22.333   5.119   1.192 -0.0794  0.1226  0.0696
    1W        W36901  25.283  20.235   1.893  0.1044  0.0151 -0.0791
    1W        W36902   1.021  24.373   0.592  0.1825 -0.0298 -0.0292
    1W        W36903  21.672  21.728   3.106 -0.2234 -0.0559 -0.1349
    1W        W36904  15.546  26.745   1.149  0.0195  0.2647 -0.1596
    1W        W36905   4.461   0.711   8.796  0.0550  0.0290 -0.3451
    1W        W36906  23.619  10.043   9.178  0.2639 -0.2280  0.1594
    1W        W36907  26.630   6.678   2.354 -0.1351 -0.2551 -0.3528
    1W        W36908  24.479  14.798   7.365  0.0605  0.0207 -0.1190
    1W        W36909   4.070   7.947   2.971 -0.3340 -0.0525  0.0146
    1W        W36910   3.710  16.380   8.098  0.2249 -0.2704 -0.1315
    1W        W36911   1.198  20.499   8.851 -0.0252  0.2587 -0.0131
    1W        W36912  20.484   5.487   7.341 -0.1728  0.1992 -0.0816
    1W        W36913   6.458  18.888   8.471  0.1665 -0.0923  0.0377
    1W        W36914  28.415  22.908   7.861  0.0978  0.3870  0.3064
    1W        W36915  19.570   3.710   1.935 -0.1132  0.0473 -0.0234
    1W        W36916   7.637  11.446   9.073  0.2620  0.1613  0.1540
    1W        W36917   7.249   7.791   0.020 -0.0950  0.0931 -0.0119
    1W        W36918   4.275  11.779   2.119 -0.2646 -0.2973 -0.1774
    1W        W36919   7.120  18.541   0.005  0.1416  0.0222  0.2343
    1W        W36920  25.559   5.796   9.132 -0.1946  0.0166  0.1428
    1W        W36921   3.709   8.859   7.513  0.0734 -0.1635 -0.0236
    1W        W36922  14.067  21.521   8.502  0.0229  0.3999 -0.3296
    1W        W36923   9.874  16.820   0.280  0.0541 -0.2965 -0.0816
    1W        W36924  29.537  17.398   0.243  0.0253  0.2636 -0.2316
    1W        W36925   3.320  11.750   2.853  0.1815  0.3923  0.1476
    1W        W36926  13.806  17.647   6.600 -0.0208 -0.2397  0.1979
    1W        W36927  13.404  25.992   9.038 -0.0834  0.2438  0.0211
    1W        W36928   2.618  23.593   0.388 -0.0636 -0.2347  0.0234
    1W        W36929  18.919   1.339   8.859 -0.0219  0.0133 -0.1623
    1W        W36930  17.018  25.076   1.003 -0.0945  0.0076 -0.2419
    1W        W36931   1.616  22.472   0.954 -0.1761 -0.0329 -0.1618
    1W        W36932  25.463   6.569   7.312  0.0034  0.1492 -0.1228
    1W        W36933  16.199   7.906   1.420  0.0322  0.1835  0.1644
    1W        W36934  10.689   1.698   8.573  0.2010  0.0045  0.0111
    1W        W36935  13.762   4.639   2.575 -0.3315 -0.0547  0.0416
    1W        W36936   2.083   2.603   1.693  0.3016  0.1450 -0.0091
    1W        W36937  24.533  18.168   2.326 -0.0278  0.1516  0.1776
    1W        W36938  13.257  10.619   7.957 -0.1935  0.1424 -0.3816
    1W        W36939  15.319  28.510   8.754 -0.0795  0.2089 -0.1139
    1W        W36940  12.354  28.703   1.094 -0.2701 -0.0172  0.0313
    1W        W36941  28.453  16.508   8.341 -0.2511 -0.0291 -0.0191
    1W        W36942   4.060  18.173   6.151 -0.1657 -0.0327  0.0376
    1W        W36943  15.676   9.757   0.553 -0.0854  0.0931 -0.2122
    1W        W36944  20.741   9.457   1.924 -0.0935  0.1554 -0.2857
    1W        W36945   6.770   2.056   8.830  0.0021  0.3123 -0.0867
    1W        W36946  13.097  28.444   8.161 -0.0862  0.2612  0.0298
    1W        W36947  22.197   5.906   8.550  0.0727  0.1163  0.0950
    1W        W36948  13.228  23.647   7.892  0.1749 -0.0654 -0.1885
    1W        W36949   1.159  16.685   1.880  0.1857 -0.1223  0.0426
    1W        W36950  20.756  21.387   0.017 -0.0462  0.1634 -0.0847
    1W        W36951   9.552  20.882   6.558  0.0126  0.0883 -0.2357
    1W        W36952  14.269   7.309   9.348  0.2512 -0.0857 -0.0332
    1W        W36953  29.857   2.872   0.086  0.0038 -0.4654  0.1578
    1W        W36954   3.694   0.025   1.635  0.0483  0.0934 -0.3162
    1W        W36955  14.197   7.417   8.870 -0.1357  0.0815  0.2739
    1W        W36956   0.632  17.144   1.246 -0.0413 -0.2659 -0.2754
    1W        W36957   4.021   1.714   6.665 -0.3031 -0.0826  0.2563
    1W        W36958   6.757  23.086   8.903  0.0752 -0.0968 -0.2232
    1W        W36959  25.338  27.224   6.100 -0.1153  0.0569  0.0298
    1W        W36960  22.490  10.937   8.822 -0.3596  0.1687 -0.1013
    1W        W36961  17.158  22.689   1.083 -0.2599 -0.1008 -0.0006
    1W        W36962  23.525  11.604   8.687  0.1273 -0.0214  0.0458
    1W        W36963  16.891   9.866   1.139 -0.0637  0.0965 -0.2739
    1W        W36964  15.779  29.298   0.938  0.2872  0.0519 -0.0480
    1W        W36965  27.070  11.439   8.890  0.0261 -0.1280 -0.1335
    1W        W36966  12.406  12.779   1.512 -0.2739 -0.0930  0.0694
    1W        W36967  23.412   0.658   2.076  0.0464 -0.3610  0.3321
    1W        W36968  15.168   4.631   1.150  0.3407  0.3242  0.2409
    1W        W36969   4.610  23.219   1.856  0.0929 -0.0220 -0.1375
    1W        W36970   0.986   6.986   2.248  0.0275 -0.4190 -0.3445
    1W        W36971  22.455   4.081   9.373  0.2814  0.0385 -0.2109
    1W        W36972   1.338   7.086   8.238  0.3581  0.1551  0.4684
    1W        W36973  20.690   4.985   7.115 -0.1005  0.2165  0.0017
    1W        W36974   1.698  19.500   8.705  0.0010 -0.1845 -0.0594
    1W        W36975  18.206   2.597   0.569  0.0260 -0.4232  0.0623
    1W        W36976  24.582  19.474   8.259  0.2825 -0.1077  0.0940
    1W        W36977   5.051  12.916   3.037 -0.2261 -0.0597 -0.0779
    1W        W36978  16.780  26.440   0.747  0.1819  0.3401 -0.0551
    1W        W36979  27.288   8.151   1.425 -0.1613 -0.1653 -0.0441
    1W        W36980  21.902   8.302   0.625  0.0320 -0.2436  0.2671
    1W        W36981  10.703  18.486   8.273  0.1811 -0.2238  0.2751
    1W        W36982   7.799  25.570   1.417  0.1380  0.3903  0.0589
    1W        W36983   0.444   7.427   9.381  0.2313 -0.0129 -0.0887
    1W        W36984   1.588   6.284   1.922  0.0776  0.1901 -0.0398
    1W        W36985  13.575  28.994   2.794 -0.1301 -0.2484 -0.2074
    1W        W36986   1.252  19.658   8.853 -0.4867 -0.0743 -0.0478
    1W        W36987   1.276   5.642   7.891 -0.1368 -0.2993 -0.2735
    1W        W36988   3.813   1.832   9.282 -0.0308 -0.2734  0.2608
    1W        W36989  21.931  22.302   7.673 -0.0529  0.0557  0.1024
    1W        W36990  10.958  28.894   0.225 -0.1124 -0.3075  0.1333
    1W        W36991   9.714  13.811   7.610 -0.0489 -0.1224 -0.0934
    1W        W36992  11.135   8.123   1.820 -0.1077  0.1487  0.3843
    1W        W36993  26.983  26.884   7.250  0.2996 -0.0614 -0.0368
    1W        W36994   5.279   9.823   2.872  0.0710  0.2366 -0.0704
    1W        W36995  24.491  28.495   6.821  0.3350 -0.0085 -0.1127
    1W        W36996  26.115  11.041   8.892  0.1142  0.0741 -0.2505
    1W        W36997  11.637   7.946   8.203  0.1234  0.5340 -0.0075
    1W        W36998   8.203  26.743   8.753  0.0022  0.2064 -0.0914
    1W        W36999  11.311  22.429   8.474 -0.2764  0.0600  0.1076
    1W        W37000  15.259   6.920   2.333 -0.0229 -0.0218 -0.0525
    1W        W37001   7.596  14.548   8.290 -0.0250  0.2945  0.3872
    1W        W37002  13.350   3.460   3.421 -0.0687 -0.3908  0.2701
    1W        W37003  15.871  21.755   8.177  0.1395  0.2443 -0.0105
    1W        W37004  16.015   6.530   7.589 -0.1647  0.1725 -0.2207
    1W        W37005  21.380  27.439   7.721  0.1843  0.0773  0.1083
    1W        W37006  10.932  29.845   9.210 -0.0270 -0.2657 -0.2810
    1W        W37007  19.786   0.988   6.877  0.1656 -0.4304 -0.0983
    1W        W37008  18.346   7.625   0.672 -0.1038 -0.0900  0.0991
    1W        W37009  16.905  11.458   0.453  0.0321  0.3584 -0.2596
    1W        W37010  22.467   2.173   7.928  0.0060  0.2166  0.1314
    1W        W37011  26.965   7.015   0.441 -0.1226 -0.0833  0.1364
    1W        W37012   1.714   9.066   6.751  0.3097 -0.0139 -0.0105
    1W        W37013   8.647   8.392   2.884 -0.2554 -0.2545 -0.1407
    1W        W37014  11.554  18.088   1.070 -0.4850  0.0794 -0.1293
    1W        W37015   3.116  19.812   0.073 -0.1732 -0.1398 -0.0900
    1W        W37016   4.428  21.829   0.454  0.0835  0.2570  0.1829
    1W        W37017  22.327  20.063   1.078 -0.1039 -0.1555  0.2476
    1W        W37018   4.536   4.618   1.592  0.0692  0.4890 -0.2656
    1W        W37019   3.593  20.716   1.029 -0.1905 -0.0501  0.0327
    1W        W37020  28.002  24.826   1.352 -0.5822 -0.5100 -0.0340
    1W        W37021  28.140  21.385   6.923  0.0182  0.2993  0.1722
    1W        W37022  14.340  26.685   1.756  0.0893 -0.1160  0.2459
    1W        W37023  13.438  21.520   1.181 -0.3420 -0.0827 -0.1776
    1W        W37024  28.847  22.656   7.804  0.0183  0.1055  0.0287
    1W        W37025   9.157   0.831   2.751 -0.0358 -0.3071  0.0687
    1W        W37026  11.852   7.278   9.306  0.1453 -0.0071 -0.1673
    1W        W37027  20.054   4.486   8.338  0.0878  0.1042 -0.3333
    1W        W37028  14.314  21.724   2.152  0.0026 -0.0132 -0.1850
    1W        W37029   7.447   9.492   1.534  0.2092  0.0295 -0.2581
    1W        W37030  21.134   5.163   2.191 -0.3182 -0.0862  0.0511
    1W        W37031  16.531  24.264   9.239  0.0718 -0.0604 -0.0056
    1W        W37032   6.599  22.422   7.550  0.1588 -0.0718  0.0186
    1W        W37033  16.527  27.720   0.034 -0.1017  0.1963  0.0835
    1W        W37034   7.307  20.469   6.958 -0.0746 -0.1723 -0.3191
    1W        W37035   9.246  25.638   1.044 -0.0565  0.1225  0.2107
    1W        W37036  16.466   8.953   9.235 -0.0826  0.5322  0.0025
    1W        W37037  15.070  27.879   7.890 -0.0866 -0.0761 -0.0733
    1W        W37038  17.117   6.385   9.326 -0.1268  0.1185 -0.1686
    1W        W37039   3.909  20.977   2.478  0.0353  0.0579  0.0879
    1W        W37040   7.781  25.056   1.938 -0.1720  0.2223 -0.1042
    1W        W37041  28.394   3.597   2.186 -0.3468  0.1857 -0.0669
    1W        W37042   9.936   1.906   2.670  0.1620  0.1363 -0.0873
    1W        W37043  17.971  19.583   1.981  0.0359 -0.0303 -0.0119
    1W        W37044   7.833  23.123   6.734 -0.1431 -0.1563  0.1329
    1W        W37045  16.904   6.429   8.711 -0.0538  0.1553  0.0193
    1W        W37046   4.777   0.281   8.782 -0.0659  0.2154  0.0544
    1W        W37047  21.693   4.873   2.338 -0.0093 -0.3083  0.1216
    1W        W37048  21.578   6.245   1.131  0.1077 -0.1979 -0.0207
    1W        W37049   6.144   4.383   7.655  0.1040  0.0095  0.1541
    1W        W37050  13.374  20.968   6.972  0.1791 -0.0326  0.0827
    1W        W37051  27.623   0.088   7.084  0.0802  0.0575 -0.0391
    1W        W37052   3.617  11.716   0.724 -0.0768  0.1176 -0.0286
    1W        W37053  13.908   0.089   0.560  0.1396  0.0550 -0.1295
    1W        W37054   5.007  16.894   8.695  0.1169 -0.0960 -0.0634
    1W        W37055   4.600   9.400   8.329  0.1059  0.1617 -0.2081
    1W        W37056  10.610  27.466   3.481  0.3930  0.3516  0.1060
    1W        W37057  12.886  28.921   8.781  0.0745 -0.0210  0.1498
    1W        W37058   6.918  11.902   2.782 -0.0533  0.0790  0.1357
    1W        W37059  21.375  20.013   2.569 -0.0447 -0.1945 -0.2468
    1W        W37060   0.245  13.702   0.603  0.0979 -0.1588  0.1005
    1W        W37061   8.596  23.488   6.708  0.2953 -0.2869 -0.1306
    1W        W37062   9.526  12.462   6.882 -0.1446 -0.0210 -0.0414
    1W        W37063  24.455  18.560   8.622 -0.2252  0.0045  0.2462
    1W        W37064  20.190  11.391   1.761  0.1872 -0.4973  0.3119
    1W        W37065   4.247  18.242   8.839 -0.1970 -0.3537 -0.0615
    1W        W37066   1.261  25.605   2.211  0.1437  0.0932 -0.0677
    1W        W37067  25.724  23.015   1.133  0.0086 -0.2205 -0.1385
    1W        W37068  28.068  20.617   2.712  0.0701 -0.2348 -0.0319
    1W        W37069  20.602  27.937   8.733 -0.1617  0.1055 -0.0668
    1W        W37070  28.238  21.533   1.141  0.0945 -0.0990  0.0047
    1W        W37071  21.756  24.587   2.377  0.0839 -0.0007  0.2274
    1W        W37072   9.022   5.691   2.488  0.1074 -0.1224 -0.0880
    1W        W37073  29.458  27.446   6.353 -0.3261 -0.1971  0.0091
    1W        W37074  17.428  18.531   8.195  0.0263  0.2514 -0.2863
    1W        W37075  25.501  16.983   2.642 -0.1199  0.0046  0.0464
    1W        W37076   3.694  29.178   1.537 -0.0367  0.2226 -0.0520
    1W        W37077  13.572   8.629   0.668  0.0150  0.0198 -0.1713
    1W        W37078  20.005  15.664   2.180  0.1867  0.1734 -0.0570
    1W        W37079  21.035  26.473   8.149  0.0735  0.2836  0.0271
    1W        W37080  21.276  28.125   6.302 -0.2271  0.1827  0.0904
    1W        W37081  20.217   7.223   6.913  0.0785  0.0794  0.0063
    1W        W37082  29.440  18.065   7.895  0.2693 -0.0717  0.0053
    1W        W37083  12.891  14.885   1.182 -0.3266  0.1614 -0.0648
    1W        W37084   6.149   0.249   3.077 -0.4653 -0.1378 -0.2805
    1W        W37085  13.587  23.621   9.171  0.0076  0.0357 -0.1766
    1W        W37086   6.240   3.698   3.711 -0.2044  0.2048  0.2154
    1W        W37087   0.083  19.664   1.513  0.1020 -0.0197  0.0631
    1W        W37088  25.526  16.341   6.495  0.1012  0.2584  0.0108
    1W        W37089  27.334  11.253   2.144 -0.0168 -0.2576 -0.1357
    1W        W37090   8.398   4.083   2.115  0.4781  0.2520  0.2141
    1W        W37091  11.625   5.050   1.726 -0.0083  0.0065 -0.1521
    1W        W37092  26.890  25.384   9.329 -0.1339 -0.2371 -0.3662
    1W        W37093   6.171  17.604   9.328 -0.4396  0.0545  0.4178
    1W        W37094   9.876  26.144   7.005  0.1560  0.3176  0.4740
    1W        W37095  21.349   2.446   9.355 -0.1740  0.0563 -0.0586
    1W        W37096   2.123  23.683   0.236 -0.1846  0.2391 -0.2727
    1W        W37097  17.768   7.773   8.743  0.0868  0.1020  0.2304
    1W        W37098  29.825  24.549   2.128 -0.0845  0.3101 -0.0023
    1W        W37099  23.699  15.343   0.650 -0.0206  0.1146 -0.0438
    1W        W37100  25.539  28.521   2.222 -0.3013 -0.2251  0.0686
    1W        W37101   8.132  13.693   7.139  0.0361  0.1220  0.1584
    1W        W37102  14.790   6.195   0.641  0.2034  0.1130  0.2514
    1W        W37103   6.483  23.301   1.685  0.3388 -0.4865 -0.1961
    1W        W37104  26.783  18.095   8.262 -0.1466  0.2787 -0.1779
    1W        W37105   6.862  23.651   6.621  0.2854  0.1609  0.0549
    1W        W37106  17.293   7.086   8.158 -0.2214  0.1207 -0.3454
    1W        W37107  14.765  11.918   7.542 -0.2134 -0.2377 -0.2523
    1W        W37108  17.403  10.061   8.999 -0.1963 -0.0630 -0.3233
    1W        W37109   4.733  20.101   6.579  0.0033 -0.0049 -0.0378
    1W        W37110  10.810   5.486   4.119  0.1406 -0.0176 -0.1022
    1W        W37111  22.667  23.691   0.259 -0.0655  0.1411 -0.4751
    1W        W37112  18.198  28.459   1.801  0.3283  0.3492 -0.0642
    1W        W37113  10.440  28.034   1.087 -0.3370  0.1085 -0.1086
    1W        W37114   2.170  14.006   7.088  0.3141 -0.2752 -0.1290
    1W        W37115  25.336  26.948   6.998 -0.3232 -0.0306 -0.1572
    1W        W37116   4.941  22.878   7.521  0.0987 -0.2538  0.0188
    1W        W37117   5.493  23.528   7.117  0.1248  0.0106 -0.0808
    1W        W37118  28.841   2.322   0.786  0.1368 -0.0438  0.0817
    1W        W37119   2.900   5.841   7.113 -0.0142  0.1093 -0.2253
    1W        W37120   7.779  22.411   6.546  0.3335  0.0883  0.1715
    1W        W37121  15.173  21.548   1.635 -0.5456 -0.1892  0.0461
    1W        W37122  25.650  27.409   0.318  0.1772  0.3775  0.1976
    1W        W37123   9.197   3.913   4.294 -0.1487  0.0505 -0.2086
    1W        W37124  27.890  26.189   6.197  0.0284  0.0062 -0.1126
    1W        W37125   1.244   5.502   2.363 -0.1128  0.1757 -0.0602
    1W        W37126  15.002  14.461   6.577 -0.2548  0.0726  0.1753
    1W        W37127  25.285   8.047   9.226  0.0548  0.1962  0.1453
    1W        W37128  21.351  17.078   8.978  0.0095  0.0144 -0.0759
    1W        W37129  15.171  13.214   7.368  0.0452 -0.1163  0.1243
    1W        W37130  29.816   6.894   8.765  0.2820  0.0564 -0.1069
    1W        W37131   4.336  21.755   1.553 -0.0553 -0.0336 -0.0580
    1W        W37132  21.974  11.363   0.740  0.0323  0.0050  0.2439
    1W        W37133   1.803  11.886   0.849 -0.2740 -0.0883 -0.3207
    1W        W37134  12.601  21.543   0.544 -0.0183 -0.0754  0.0664
    1W        W37135  11.535  16.606   7.419  0.1049 -0.0260 -0.0337
    1W        W37136  18.647   0.624   3.298 -0.0317  0.0780  0.4980
    1W        W37137  28.059  27.944   9.026 -0.1325 -0.0196 -0.0022
    1W        W37138  24.508  13.041   1.993 -0.0429  0.2529  0.3701
    1W        W37139  17.938  16.779   1.561  0.3357 -0.1658 -0.2593
    1W        W37140  20.823   8.496   0.711 -0.0729  0.2227 -0.0435
    1W        W37141  16.002  19.547   1.263  0.1050  0.0954  0.0325
    1W        W37142   3.280  26.351   6.920 -0.2790  0.2182 -0.1703
    1W        W37143   5.583  21.833   8.179 -0.0839  0.0633  0.0385
    1W        W37144  23.489  13.249   6.500  0.1416  0.0072  0.1317
    1W        W37145  24.376  25.409   2.174  0.4464 -0.2649 -0.1374
    1W        W37146  28.023  12.221   5.535  0.0532 -0.0980 -0.2065
    1W        W37147   5.793   1.072   1.067 -0.1697  0.0126 -0.0453
    1W        W37148   3.074  12.780   2.883  0.2670 -0.3574  0.0530
    1W        W37149  22.047  25.569   0.040 -0.0962  0.1140 -0.1202
    1W        W37150   3.798  28.004   7.628 -0.1067 -0.0862  0.4253
    1W        W37151  13.652  10.484   7.485 -0.0061  0.0291  0.1516
    1W        W37152  16.884  13.918   8.157  0.0116 -0.2407 -0.2677
    1W        W37153  23.620  14.036   0.111  0.0293 -0.2117  0.3610
    1W        W37154   3.838  16.039   0.704 -0.3638 -0.3257  0.0505
    1W        W37155   1.886  17.266   0.817  0.0812  0.3705 -0.0453
    1W        W37156  26.494  13.594   9.149 -0.0597 -0.1541  0.0118
    1W        W37157  18.390   2.297   2.889  0.0018 -0.0479 -0.1314
    1W        W37158   9.158   8.446   2.558  0.0103 -0.0653  0.2698
    1W        W37159  27.917  14.511   7.835 -0.0525 -0.2410  0.1174
    1W        W37160  26.845   9.031   8.522  0.0150  0.3593  0.1777
    1W        W37161  15.745  28.669   8.928 -0.1630  0.2945 -0.0439
    1W        W37162   2.291   2.331   1.214 -0.2011 -0.0528 -0.1506
    1W        W37163  24.907  19.771   8.035 -0.2079  0.1499  0.1346
    1W        W37164  19.333   8.563   9.322 -0.0958  0.1059 -0.1555
    1W        W37165   7.660  10.895   2.014 -0.1492  0.0408  0.0565
    1W        W37166   8.889  25.302   9.366 -0.4052  0.0847 -0.1173
    1W        W37167  16.032  16.579   8.261 -0.0870 -0.0094 -0.0712
    1W        W37168   8.339  22.964   7.416  0.1159  0.0100 -0.1918
    1W        W37169  17.659  14.146   8.416  0.1512  0.1975 -0.0340
    1W        W37170   2.326   3.517   3.545  0.1243 -0.2240  0.1344
    1W        W37171  15.663  25.497   1.861 -0.2072 -0.2467  0.2063
    1W        W37172   5.041  13.406   9.311 -0.0637  0.1765 -0.0023
    1W        W37173  28.398  20.940   7.586  0.0604 -0.1993  0.0481
    1W        W37174  20.525  21.589   8.230  0.1670  0.0571  0.3215
    1W        W37175  23.200  27.723   1.783  0.0574  0.1271 -0.0904
    1W        W37176  10.155   8.831   7.599 -0.1680  0.2161  0.0352
    1W        W37177  23.092   0.713   8.613  0.0152  0.1471  0.3688
    1W        W37178   1.393  14.226   2.604 -0.1075 -0.1155  0.1999
    1W        W37179  11.146  12.344   7.797  0.1557 -0.0585 -0.0981
    1W        W37180   5.956   1.849   0.241 -0.3449  0.2783 -0.0623
    1W        W37181  17.374  14.640   8.408  0.0533  0.2820 -0.2932
    1W        W37182  16.385   4.567   6.818 -0.2747  0.2138 -0.0425
    1W        W37183  13.492  23.920   0.160  0.2037  0.0375 -0.1982
    1W        W37184   4.325  10.302   2.070  0.0553  0.1738  0.1221
    1W        W37185   1.974  26.004   0.364  0.0008 -0.0317 -0.0108
    1W        W37186   8.837  18.603   2.190  0.1763 -0.1759 -0.0773
    1W        W37187   5.028   0.664   7.830  0.0360  0.0832  0.4159
    1W        W37188   7.721  26.876   7.993 -0.0959 -0.2075  0.2033
    1W        W37189  20.399   5.731   9.467 -0.0345 -0.0527 -0.0707
    1W        W37190   7.129  22.116   8.102  0.0932 -0.0270  0.3053
    1W        W37191   0.993  11.952   7.341  0.0137  0.2090 -0.1006
    1W        W37192  12.972   8.238   6.756  0.1768 -0.1031 -0.1168
    1W        W37193  25.722   2.941   2.029 -0.1086 -0.1072  0.0930
    1W        W37194  28.394  16.736   1.124  0.2126  0.2140 -0.0883
    1W        W37195  18.714  11.249   2.209  0.0142  0.1553  0.2578
    1W        W37196   2.947  16.631   6.023  0.0212  0.3901  0.0085
    1W        W37197  24.442   4.612   2.541  0.1483  0.0875 -0.1248
    1W        W37198  23.775  22.681   2.668  0.3043 -0.0717 -0.0448
    1W        W37199   4.759   3.167   0.854  0.0923  0.1772  0.0754
    1W        W37200  22.357   5.484   9.305 -0.2195 -0.0478 -0.0517
    1W        W37201   6.717   8.768   1.320  0.0149 -0.2117  0.1090
    1W        W37202   4.871   1.505   1.110  0.1619 -0.1491 -0.1268
    1W        W37203  22.133  24.486   6.685  0.2733 -0.1789 -0.1405
    1W        W37204  11.572  10.454   0.937  0.0454  0.0432  0.3970
    1W        W37205   2.273  27.550   7.544 -0.2409 -0.1046  0.0603
    1W        W37206  17.459  28.546   7.312  0.3473  0.2115 -0.2702
    1W        W37207  17.079   3.646   6.303  0.0980  0.2063  0.0136
    1W        W37208   4.519  29.058   8.313  0.1987  0.0982 -0.1147
    1W        W37209   6.415   1.069   6.810  0.1968 -0.1460 -0.2939
    1W        W37210  28.862  17.678   0.051 -0.1430  0.1128  0.0407
    1W        W37211  27.570  17.798   2.203 -0.1238  0.2068 -0.2729
    1W        W37212   6.258   5.642   7.604  0.0209  0.0357 -0.1173
    1W        W37213   3.309  17.626   7.733 -0.0237 -0.1568 -0.1254
    1W        W37214   0.222  19.996   8.890 -0.1340  0.3052 -0.2184
    1W        W37215   4.014   4.373   2.764  0.0703 -0.4831  0.0474
    1W        W37216   9.958  16.042   7.631 -0.4090 -0.0906  0.2110
    1W        W37217  20.357  24.867   2.745 -0.2502 -0.0761 -0.1319
    1W        W37218  11.737  25.829   0.688  0.2844  0.0641 -0.0085
    1W        W37219  24.604  21.183   8.344  0.2261  0.0812 -0.2080
    1W        W37220  18.354   4.736   9.462  0.3290  0.0830  0.1637
    1W        W37221   0.150  25.891   6.925 -0.2469  0.0641  0.0381
    1W        W37222  10.301  28.234   8.083 -0.4793  0.0099  0.1850
    1W        W37223   8.313  24.641   0.589 -0.3179  0.0457 -0.3274
    1W        W37224  21.629  16.085   7.765  0.5972 -0.2998 -0.0981
    1W        W37225  21.441  17.686   7.764 -0.0372 -0.2837 -0.2034
    1W        W37226  15.627   2.626   6.997 -0.0716  0.1520 -0.2239
    1W        W37227   6.612   7.237   0.208  0.3417  0.0393 -0.2696
    1W        W37228   4.446   2.974   7.626 -0.0822 -0.0976 -0.2771
    1W        W37229  29.006   3.417   2.046  0.1875 -0.0827 -0.0062
    1W        W37230   9.615  20.780   8.298  0.0898  0.0725  0.0637
    1W        W37231  22.689  22.355   1.906 -0.5100  0.1263 -0.1868
    1W        W37232   1.813  22.297   5.878 -0.1312 -0.1583  0.2813
    1W        W37233   4.305  26.153   1.736 -0.1308 -0.2043  0.2243
    1W        W37234  21.708  27.757   8.206  0.1039 -0.1308  0.1248
    1W        W37235  11.124  18.090   1.394  0.0053 -0.0312  0.0608
    1W        W37236  15.464  25.675   0.119  0.2496  0.0821 -0.1985
    1W        W37237   5.635  22.327   7.030  0.2184  0.3034 -0.0993
    1W        W37238  11.779   4.673   8.748  0.0598 -0.0993  0.1962
    1W        W37239  27.542  26.914   2.669  0.1147  0.1400  0.0463
    1W        W37240   0.283  15.274   9.341 -0.2205  0.0978 -0.0161
    1W        W37241   2.227   3.721   2.707  0.1713 -0.2727 -0.1871
    1W        W37242   9.132   2.921   8.053 -0.0487 -0.2729  0.2091
    1W        W37243   5.098  18.454   0.459 -0.1254  0.1512 -0.3970
    1W        W37244  11.843   7.165   2.211 -0.1465  0.2067  0.2189
    1W        W37245   2.289   1.859   7.467 -0.2639 -0.0078  0.0122
    1W        W37246  24.697  12.118   1.682  0.1326  0.0202  0.0873
    1W        W37247  10.121   2.854   8.585  0.1506 -0.1503  0.2954
    1W        W37248   5.746   7.302   2.412 -0.0572  0.0056 -0.3235
    1W        W37249  19.076  27.595   1.214 -0.1256 -0.0747 -0.1439
    1W        W37250  22.275  12.150   7.195 -0.1562  0.0611  0.0592
    1W        W37251  28.079  18.903   6.951 -0.0192  0.0806 -0.1063
    1W        W37252   5.887   4.021   2.085 -0.0196 -0.1632  0.0983
    1W        W37253  12.035  24.163   7.079  0.2648  0.0854 -0.1165
    1W        W37254  28.875   7.538   8.423 -0.0557  0.1112 -0.2344
    1W        W37255  29.118   5.931   0.655 -0.1514 -0.3973  0.3145
    1W        W37256   5.071   7.077   0.614 -0.2642  0.0095  0.2542
    1W        W37257  16.295  21.019   8.378 -0.0352  0.1588  0.0154
    1W        W37258  25.302   7.831   8.694  0.1629  0.2904 -0.0021
    1W        W37259  25.122  12.060   0.552  0.0984 -0.1536 -0.1430
    1W        W37260  13.367  27.009   8.356  0.1179  0.1892  0.0507
    1W        W37261  24.990  12.605   7.574 -0.1279 -0.1648  0.0544
    1W        W37262   9.543  29.615   8.210  0.0066  0.0555 -0.0523
    1W        W37263  23.497   6.961   4.088  0.1085  0.1335  0.0028
    1W        W37264  20.899  20.355   1.354 -0.0014  0.1886 -0.0516
    1W        W37265  21.867  21.729   0.557 -0.1825 -0.2797 -0.0361
    1W        W37266  14.253  13.415   7.661  0.1105  0.0034 -0.1777
    1W        W37267  18.377   4.151   2.514  0.2304  0.1696  0.1340
    1W        W37268  19.436  10.604   8.427  0.0162  0.4223  0.1433
    1W        W37269   2.522   8.755   7.313  0.3651  0.4053  0.2703
    1W        W37270   6.991  17.618   5.657  0.0961 -0.4127 -0.1204
    1W        W37271   6.636  13.768   1.727  0.2634  0.0477 -0.0649
    1W        W37272  21.307  16.575   0.115  0.0796  0.0433 -0.1775
    1W        W37273  11.541  26.359   9.345  0.0815  0.1282 -0.0180
    1W        W37274  14.045  12.505   2.112  0.0082  0.2785  0.0624
    1W        W37275   8.147  25.741   8.855 -0.0837  0.1588  0.0639
    1W        W37276  17.807   6.293   7.750 -0.5116  0.1915 -0.0864
    1W        W37277   0.007  29.306   7.080  0.0205  0.3055 -0.1898
    1W        W37278  19.655   9.636   9.278  0.0039 -0.0416  0.0563
    1W        W37279   6.150  21.288   1.488 -0.2005 -0.1139  0.0327
    1W        W37280   4.130  26.711   8.699 -0.0153 -0.1694  0.0337
    1W        W37281   0.572   4.101   6.381  0.1450 -0.2914 -0.1070
    1W        W37282  19.797  11.673   0.475 -0.2077  0.0272  0.0974
    1W        W37283  16.174   4.216   7.305  0.2006  0.0550 -0.5151
    1W        W37284  27.521  23.615   9.204  0.0619 -0.1205  0.0594
    1W        W37285   4.657  16.380   5.901  0.0662 -0.2380  0.0290
    1W        W37286  10.931  16.872   0.255 -0.3559  0.0755  0.4065
    1W        W37287  14.050  15.378   8.931 -0.0989  0.0964  0.0437
    1W        W37288   6.016  29.567   0.004 -0.1983  0.0087  0.1611
    1W        W37289  20.583  10.062   1.549 -0.2247 -0.2189 -0.2130
    1W        W37290   4.862  29.488   7.597 -0.1240 -0.1198  0.1556
    1W        W37291  27.268  25.491   1.972  0.2263 -0.1627 -0.1631
    1W        W37292  13.440  20.071   0.293 -0.0757 -0.6575  0.2864
    1W        W37293  28.367  15.325   2.559  0.2523  0.0224  0.0791
    1W        W37294  27.962  10.313   8.515  0.0677  0.1316  0.1153
    1W        W37295  20.111  16.832   1.526  0.0142  0.0793  0.0354
    1W        W37296  21.682  12.828   8.110  0.3778 -0.0007  0.1723
    1W        W37297   1.647  21.978   1.725  0.0284  0.0066  0.3064
    1W        W37298  24.868  10.032   1.113 -0.0825 -0.2052  0.0901
    1W        W37299   3.624   2.616   1.653 -0.1087 -0.3769  0.1016
    1W        W37300  21.021   0.555   8.326 -0.0916  0.1195  0.4642
    1W        W37301  16.345   6.361   2.817  0.2072  0.1015 -0.2331
    1W        W37302  24.682  19.384   9.290 -0.0721  0.1400  0.2014
    1W        W37303   5.330   7.639   6.821 -0.2104  0.0188  0.0924
    1W        W37304  12.566  10.000   7.171 -0.0258  0.0834 -0.0977
    1W        W37305  19.410   8.696   0.553  0.1720 -0.2263  0.0551
    1W        W37306  12.775  15.080   0.761  0.0656 -0.2574 -0.1120
    1W        W37307   7.434  18.802   6.297  0.0164  0.0009  0.1472
    1W        W37308  11.442   2.713   2.620  0.0051 -0.2741 -0.0873
    1W        W37309  14.271  10.560   7.470  0.3779 -0.2138  0.0936
    1W        W37310   1.197  27.079   2.753 -0.1155  0.4483 -0.3302
    1W        W37311  29.740  11.727   8.652 -0.2445  0.3957  0.1252
    1W        W37312  26.670  23.062   8.094 -0.0601  0.0807 -0.3438
    1W        W37313  21.540  12.643   7.232  0.1251  0.0693  0.0025
    1W        W37314  19.514   6.039   7.141  0.0504  0.1969  0.0903
    1W        W37315  10.990   9.427   2.581 -0.1708 -0.2954  0.0972
    1W        W37316   5.979  29.789   0.467 -0.1542 -0.7113 -0.1598
    1W        W37317  15.204   8.335   8.117  0.2069  0.0497 -0.3772
    1W        W37318  20.151  22.876   0.458  0.2150 -0.0188  0.3967
    1W        W37319  21.103  26.220   1.114  0.0874  0.0572  0.1205
    1W        W37320   4.175  23.910   1.416 -0.0441  0.1866 -0.3293
    1W        W37321   2.708   4.108   3.033 -0.2662  0.1170 -0.1878
    1W        W37322  21.084  10.071   9.131 -0.3306 -0.4528 -0.2104
    1W        W37323  16.130  27.318   8.489 -0.0569  0.1884 -0.0051
    1W        W37324   5.478  18.397   7.718 -0.1158  0.0871 -0.0610
    1W        W37325   4.283  13.524   2.009 -0.1362 -0.1954  0.0844
    1W        W37326   5.519  20.028   8.865  0.2492 -0.0149  0.0226
    1W        W37327   1.379  18.883   9.266  0.0365 -0.5853  0.1812
    1W        W37328   9.784  24.649   5.956 -0.0356 -0.1061 -0.1885
    1W        W37329  15.535  12.855   9.332 -0.1361  0.0137 -0.0393
    1W        W37330  23.801   2.382   2.253 -0.1564  0.0089  0.0957
    1W        W37331   4.817  24.367   0.384  0.0043 -0.4590 -0.2302
    1W        W37332   0.299  10.035   1.001 -0.0226 -0.2358 -0.0591
    1W        W37333  28.910  20.001   0.303 -0.0354  0.2592 -0.1349
    1W        W37334  27.449   4.293   2.863 -0.1387 -0.0386  0.1203
    1W        W37335   6.024   8.562   1.911 -0.2086 -0.0914 -0.1704
    1W        W37336  11.281   3.954   7.386  0.4086  0.1106  0.1553
    1W        W37337   5.434   5.575   0.749  0.0286 -0.1633  0.0056
    1W        W37338   5.384   6.805   0.198  0.0239 -0.0999 -0.0818
    1W        W37339  20.815   4.150   6.658 -0.3998 -0.0486 -0.0200
    1W        W37340  28.650   6.352   1.260  0.3051 -0.1821 -0.2125
    1W        W37341  13.636   1.082   1.536  0.0715  0.1690  0.0025
    1W        W37342  21.388  21.953   3.543  0.2320  0.0416 -0.1270
    1W        W37343  19.472   4.117   6.650 -0.2353  0.0901  0.0208
    1W        W37344  15.114  20.216   1.628  0.0580 -0.1228  0.0669
    1W        W37345   4.890  16.122   0.997  0.1644  0.1207  0.1860
    1W        W37346   1.388   5.396   3.314 -0.0369 -0.0131  0.1698
    1W        W37347   5.516  21.528   6.684  0.2381 -0.1081  0.3987
    1W        W37348  26.957   9.226   8.083  0.2122  0.4251 -0.1849
    1W        W37349  22.799  21.334   8.481  0.1134  0.1065 -0.1544
    1W        W37350  22.860   5.699   2.742  0.4030 -0.0826 -0.1484
    1W        W37351   5.648  20.783   9.263  0.1214  0.0472 -0.1370
    1W        W37352   9.361   8.658   8.108  0.0210  0.3949 -0.0287
    1W        W37353  21.374  13.740   7.883  0.0226 -0.2531  0.0979
    1W        W37354   3.298   7.229   1.979 -0.0795 -0.0027  0.0958
    1W        W37355   4.274   7.169   9.430 -0.1048 -0.2852 -0.0803
    1W        W37356   1.801  22.666   6.605 -0.1445 -0.1255  0.0139
    1W        W37357   1.443   7.687   7.388 -0.2542 -0.1459 -0.4603
    1W        W37358   6.875  18.128   9.351 -0.0237  0.0880 -0.1246
    1W        W37359   1.191  14.803   8.254 -0.3370  0.1149  0.1535
    1W        W37360   1.714  27.465   2.475 -0.0340  0.2543 -0.2906
    1W        W37361  11.904   9.555   1.705  0.0344  0.1749  0.0587
    1W        W37362   0.639  23.363   7.608  0.1692 -0.0120  0.2081
    1W        W37363   0.979  27.422   7.879  0.3516 -0.5369 -0.1211
    1W        W37364  13.585  20.800   9.244  0.1463  0.0387 -0.3034
    1W        W37365  27.785  14.227   8.702  0.3591  0.1572  0.0609
    1W        W37366  17.352   9.766   7.170 -0.0159  0.1281 -0.0273
    1W        W37367  11.794   3.691   9.072  0.2006  0.1204  0.2824
    1W        W37368   0.249   7.348   7.400  0.1327 -0.1852 -0.0778
    1W        W37369   2.541  14.953   0.215 -0.0265 -0.0662  0.2563
    1W        W37370   9.786   0.594   1.750  0.2094 -0.1685  0.0632
    1W        W37371   1.763   2.739   0.387 -0.2077 -0.1010  0.0507
    1W        W37372   6.613  19.061   9.108  0.2217 -0.1626  0.3372
    1W        W37373   9.363   3.991   9.124 -0.0739  0.2490  0.0885
    1W        W37374  29.557  14.422   1.551  0.2866 -0.2086 -0.0248
    1W        W37375  25.009  10.529   1.047 -0.0554 -0.2350 -0.3272
    1W        W37376  25.244  15.722   9.011  0.0480  0.0507 -0.2204
    1W        W37377  18.355  29.223   0.429  0.2082 -0.1750 -0.2115
    1W        W37378  22.854  11.080   8.507  0.2675 -0.0335 -0.0415
    1W        W37379  23.517  21.811   7.188  0.0551 -0.2018  0.0692
    1W        W37380  20.692  25.605   2.377 -0.4684 -0.1724  0.1011
    1W        W37381  12.812  24.958   6.329 -0.2256  0.1564  0.1475
    1W        W37382  27.569  17.060   8.764 -0.1845 -0.1710 -0.0015
    1W        W37383  12.815  25.827   2.212 -0.1021  0.0116  0.3045
    1W        W37384  24.200  27.508   7.328 -0.0428  0.2356  0.3198
    1W        W37385  20.100  25.414   0.486  0.0849  0.0191  0.3368
    1W        W37386   1.767  24.881   8.330 -0.1101 -0.1418  0.1247
    1W        W37387   7.329   8.210   8.773  0.1645 -0.2949  0.1728
    1W        W37388   0.544   2.644   8.324  0.0875  0.0150  0.1539
    1W        W37389   8.276  21.049   8.630 -0.3434 -0.3264 -0.0746
    1W        W37390   1.688  14.521   0.550 -0.0591 -0.2171 -0.3136
    1W        W37391  20.792   6.125   6.793  0.0250  0.1467 -0.1931
    1W        W37392   5.107  19.271   8.399 -0.0639  0.1341  0.0569
    1W        W37393   5.273   2.542   3.185 -0.1859  0.0157 -0.2535
    1W        W37394   4.046  20.933   0.294 -0.1209  0.1880  0.0934
    1W        W37395  25.513  29.719   8.233 -0.0779 -0.1194  0.0073
    1W        W37396  29.161   1.622   1.841  0.1510 -0.0987 -0.0025
    1W        W37397  23.292   7.394   7.171  0.1208 -0.0641  0.1789
    1W        W37398  22.522   1.088   7.376 -0.0316 -0.2829 -0.0000
    1W        W37399   0.921   6.667   9.445 -0.0267 -0.0419 -0.0001
    1W        W37400  20.094  25.416   6.678 -0.3798  0.2518  0.0601
    1W        W37401  17.104  21.537   1.630  0.0519 -0.3487  0.0845
    1W        W37402  15.962   0.929   6.792 -0.1975 -0.3181  0.1555
    1W        W37403  17.354  16.223   8.074 -0.3341  0.1931  0.0098
    1W        W37404   8.354  21.270   0.135  0.0882 -0.0326  0.1788
    1W        W37405  14.308  12.696   1.657  0.2439  0.0429 -0.0217
    1W        W37406  28.478  29.651   2.277 -0.0505  0.0937  0.1714
    1W        W37407   8.302  24.063   6.425  0.3114  0.3237 -0.1803
    1W        W37408  29.075  10.267   0.116  0.1004 -0.0941  0.0579
    1W        W37409  16.618  26.483   1.401  0.1732  0.1090 -0.1365
    1W        W37410   4.605  12.161   8.420  0.0094 -0.0987 -0.1641
    1W        W37411   4.297  15.844   8.973  0.1072  0.1258 -0.0318
    1W        W37412   6.768  11.573   3.129 -0.1332  0.2482 -0.0326
    1W        W37413  29.724   9.918   6.925 -0.1720  0.0377  0.1542
    1W        W37414  13.004  16.642   0.792  0.5329 -0.1428  0.0165
    1W        W37415   0.113   1.633   7.378 -0.1270 -0.2062  0.2373
    1W        W37416  18.057  23.851   7.513  0.0583 -0.0272 -0.1336
    1W        W37417  25.777   2.733   7.312  0.0714  0.1922 -0.1314
    1W        W37418   9.078  22.309   1.654 -0.1467  0.0462  0.1042
    1W        W37419  23.787  21.864   2.982  0.1758 -0.1691  0.0033
    1W        W37420   5.990   7.761   2.738  0.0331 -0.0229 -0.0014
    1W        W37421  13.955  17.169   1.587  0.1358 -0.1264  0.1699
    1W        W37422  13.331  16.422   7.045 -0.2495  0.1694  0.2489
    1W        W37423  26.041   2.180   2.495  0.0163  0.1052 -0.1223
    1W        W37424  23.634  26.330   0.130 -0.0524 -0.2164  0.2388
    1W        W37425   1.315   4.169   8.660 -0.1803  0.4381  0.1504
    1W        W37426  22.231  28.098   1.679  0.4854  0.1113 -0.0766
    1W        W37427   4.409  19.100   1.576 -0.1802 -0.1230  0.2918
    1W        W37428   8.652  15.005   6.384  0.0631 -0.0514  0.0332
    1W        W37429  22.576   6.095   9.439 -0.4697  0.1308  0.1757
    1W        W37430   2.337  17.405   7.834  0.1434  0.0838  0.0288
    1W        W37431   2.127  23.203   5.491  0.2240  0.2750 -0.2297
    1W        W37432   1.613  27.675   0.679  0.1320  0.0001  0.1673
    1W        W37433   1.203  21.679   7.259 -0.2852 -0.0332 -0.2311
    1W        W37434  23.571   3.562   3.793  0.2492 -0.4612 -0.4310
    1W        W37435  23.577   3.660   7.764 -0.3803 -0.1384 -0.1063
    1W        W37436   8.112  14.989   7.208  0.0698 -0.2017  0.0302
    1W        W37437   7.561  13.731   0.829  0.0099 -0.2638  0.0137
    1W        W37438  27.529   0.224   0.168 -0.1948  0.0086  0.1003
    1W        W37439   8.553   7.638   2.953 -0.0493  0.1153  0.0550
    1W        W37440  14.895   3.017   2.928  0.1172  0.1085  0.0730
    1W        W37441  17.188  27.747   9.015 -0.0876 -0.1290 -0.1368
    1W        W37442  10.155  16.485   9.421  0.2125  0.2337 -0.0384
    1W        W37443  27.054   7.684   2.528  0.0534 -0.2017 -0.2873
    1W        W37444  10.213  20.451   9.411 -0.0351 -0.0415 -0.3967
    1W        W37445   6.783  22.792   7.741 -0.0780  0.1762  0.2751
    1W        W37446   5.248  14.588   6.532  0.4742 -0.0972  0.1507
    1W        W37447   8.182  10.121   7.443 -0.2002 -0.1026 -0.1803
    1W        W37448   8.344  25.200   7.771 -0.0884 -0.2667  0.0935
    1W        W37449  16.781  17.581   8.634 -0.0390  0.0849  0.0422
    1W        W37450   6.451   7.907   0.857 -0.1401  0.1398  0.0819
    1W        W37451   1.051   7.692   7.097 -0.1319 -0.0870 -0.4691
    1W        W37452  11.554   0.891   8.634 -0.1201 -0.0525 -0.0489
    1W        W37453  23.718  27.692   1.831 -0.2388 -0.0503  0.0037
    1W        W37454  23.152   0.901   8.140  0.0292  0.1574  0.0649
    1W        W37455  27.714  18.055   1.643  0.0654 -0.1075 -0.0585
    1W        W37456  24.404   9.541   7.678  0.1172  0.2538  0.1320
    1W        W37457   0.099  23.344   1.198  0.0652 -0.3493 -0.1727
    1W        W37458  25.281  21.467   7.037  0.0753  0.2152 -0.1423
    1W        W37459  29.856  28.489   8.713  0.0788 -0.1871  0.0365
    1W        W37460   4.891   4.135   0.634 -0.0987  0.1004 -0.3819
    1W        W37461  12.961  13.950   0.352 -0.1507 -0.1726  0.1141
    1W        W37462  23.644  26.491   8.965  0.2241  0.3914 -0.0938
    1W        W37463  23.291  28.181   7.948 -0.3336  0.0694  0.1864
    1W        W37464  10.952  12.090   8.846 -0.0341 -0.3425 -0.0372
    1W        W37465  21.530  16.544   8.466  0.2478  0.1068 -0.1699
    1W        W37466  25.704  15.543   1.458 -0.1787  0.2177  0.4395
    1W        W37467  24.756   8.440   8.611  0.2368  0.0685 -0.0458
    1W        W37468  17.776   3.968   1.366 -0.1175  0.2468 -0.1959
    1W        W37469  26.690  12.962   8.485 -0.1716  0.3994  0.1571
    1W        W37470   6.582  15.371   2.629  0.1856  0.1361  0.1431
    1W        W37471  17.083  22.456   0.633  0.0328 -0.0460 -0.1637
    1W        W37472  13.203  17.805   0.013 -0.0695  0.2090  0.0567
    1W        W37473  18.734   4.862   5.660  0.1119  0.0805 -0.3074
    1W        W37474  27.887   6.934   7.332 -0.2217 -0.1581  0.2229
    1W        W37475  19.230  23.234   1.737  0.2137 -0.0644 -0.1272
    1W        W37476  11.977   0.635   0.936 -0.0032 -0.0559  0.0620
    1W        W37477  11.996   2.010   8.376 -0.1179 -0.0028  0.0752
    1W        W37478  27.828  10.782   1.462  0.2773  0.2078  0.1019
    1W        W37479  10.696  25.985   8.888  0.4875 -0.0478 -0.3288
    1W        W37480   8.775  20.274   6.672  0.0679 -0.3908 -0.1212
    1W        W37481   9.472   4.139   1.553  0.0006  0.0510  0.2904
    1W        W37482   7.696   9.072   7.538  0.2325  0.2905 -0.1941
    1W        W37483  20.312  15.242   8.216 -0.0378  0.0644  0.0541
    1W        W37484  13.065   1.904   9.250  0.1719 -0.2537  0.2597
    1W        W37485   5.731  21.362   2.351  0.1997 -0.3156 -0.2567
    1W        W37486   9.548   7.167   8.137  0.3123  0.1987  0.0535
    1W        W37487   8.762  19.116   0.622  0.0705 -0.2978 -0.1292
    1W        W37488   1.991  27.272   7.190  0.0286  0.2768  0.0344
    1W        W37489  22.264  26.204   1.983 -0.0076  0.1092  0.0864
    1W        W37490  20.058  25.872   6.983  0.3123 -0.1659 -0.0779
    1W        W37491   0.028   1.367   9.153 -0.0169 -0.0616 -0.0015
    1W        W37492   0.841   7.008   2.726  0.0193  0.2289  0.0022
    1W        W37493   1.918   2.742   8.441  0.1762 -0.0764 -0.1728
    1W        W37494  13.756  11.002   8.724 -0.1844  0.1625 -0.0143
    1W        W37495  16.289  25.223   1.632  0.2568 -0.2457  0.1210
    1W        W37496  28.825  19.764   7.367  0.1420  0.1434 -0.0238
    1W        W37497   8.643  20.731   8.193 -0.0735  0.1232 -0.0257
    1W        W37498   5.288  23.914   5.815 -0.0727 -0.0517  0.1515
    1W        W37499  10.379  24.255   0.218  0.2939  0.2511  0.0994
    1W        W37500   5.289  15.710   7.936 -0.0917  0.1952  0.0480
    1W        W37501   4.961  17.698   0.182  0.0298 -0.1579 -0.1686
    1W        W37502   4.721  11.740   2.015 -0.2529  0.0222  0.2617
    1W        W37503  27.688  23.926   0.160  0.3708  0.4096 -0.0472
    1W        W37504  13.926  10.939   7.403 -0.0417 -0.0226 -0.3273
    1W        W37505  23.805  27.193   7.067 -0.5073  0.2872 -0.1732
    1W        W37506  18.981  26.196   2.408 -0.0531 -0.2772 -0.5288
    1W        W37507   5.084   7.851   8.810 -0.0753  0.1881 -0.1960
    1W        W37508  26.331   5.776   0.930  0.1542 -0.0235 -0.1175
    1W        W37509   5.466  28.857   9.164 -0.1959  0.0160  0.0710
    1W        W37510   9.716   3.891   7.675 -0.1747 -0.3635 -0.1916
    1W        W37511  11.379   0.486   2.110  0.2801 -0.2944 -0.1664
    1W        W37512  13.557  16.711   8.357 -0.0818  0.2113 -0.1346
    1W        W37513   6.786  18.038   1.128 -0.1178  0.2894 -0.0368
    1W        W37514   6.911  10.062   0.961 -0.0409 -0.1478 -0.0981
    1W        W37515   1.333  24.821   9.148 -0.0306 -0.2950 -0.0877
    1W        W37516   7.471  13.735   1.593 -0.2710 -0.0068  0.0580
    1W        W37517  19.659  22.965   0.264 -0.1587  0.0485  0.0809
    1W        W37518   9.149  21.061   5.909  0.1736 -0.3681  0.1051
    1W        W37519  29.392  10.058   9.235  0.2556 -0.1152 -0.3263
    1W        W37520   5.068  25.421   1.063 -0.2497  0.2513 -0.2264
    1W        W37521  11.247   5.955   8.827 -0.3524 -0.1239  0.5313
    1W        W37522  19.477   9.858   7.822  0.1325  0.0431  0.1336
    1W        W37523   1.787  17.790   6.655  0.2190  0.0092  0.0979
    1W        W37524   2.214   5.904   7.272 -0.1162  0.0305  0.1723
    1W        W37525  14.106  14.607   7.052 -0.0794  0.0338 -0.3462
    1W        W37526  17.364  25.963   2.060  0.1643  0.2847 -0.0604
    1W        W37527  25.674  27.300   1.893  0.0577  0.0213  0.0903
    1W        W37528  13.267  26.007   7.959 -0.1326 -0.0682 -0.0784
    1W        W37529   3.774  29.025   3.055 -0.1457 -0.1786  0.2205
    1W        W37530  25.327  21.393   1.356 -0.1799 -0.0510  0.1637
    1W        W37531   9.958  28.291   1.919 -0.1380  0.1272 -0.2041
    1W        W37532  25.556  17.773   1.241  0.2146  0.0753  0.0443
    1W        W37533  25.098  17.235   8.568  0.2099 -0.4383  0.3776
    1W        W37534  29.112   8.451   7.830  0.2042 -0.4003  0.0288
    1W        W37535  13.153   2.868   7.462 -0.0160  0.1872 -0.0487
    1W        W37536  10.994  23.628   1.359  0.0451  0.0111  0.0826
    1W        W37537  19.941  10.546   6.561 -0.0434 -0.0883  0.1311
    1W        W37538   1.163  15.609   8.653 -0.0070  0.2313 -0.0832
    1W        W37539  18.080   3.316   8.821 -0.1304 -0.2688  0.1740
    1W        W37540   2.249  19.986   9.094 -0.3809 -0.2444 -0.0156
    1W        W37541  27.603  18.293   2.351 -0.0907  0.0856 -0.1739
    1W        W37542  28.610  19.848   1.817 -0.1008 -0.1087  0.4258
    1W        W37543   8.650  11.948   3.150  0.3015  0.1544 -0.0609
    1W        W37544  10.453  13.806   1.485  0.0559  0.1232 -0.0797
    1W        W37545  17.172   8.348   9.119 -0.2248 -0.0270 -0.3243
    1W        W37546   0.776  29.109   0.271  0.3022 -0.0333  0.0791
    1W        W37547  28.877   7.870   6.269 -0.0057 -0.2293 -0.1325
    1W        W37548   4.066  17.108   1.487 -0.5631 -0.3017 -0.2502
    1W        W37549  28.623   0.462   1.304 -0.0971 -0.1594  0.2875
    1W        W37550  23.660   3.791   8.653 -0.2474 -0.1153 -0.1336
    1W        W37551   2.682   1.286   1.625 -0.1597  0.1315  0.4045
    1W        W37552  23.505  13.574   8.062  0.1584 -0.0943  0.0795
    1W        W37553  22.248   8.559   7.326 -0.1403  0.2598  0.1975
    1W        W37554   5.370  27.361   8.502  0.1340 -0.1227 -0.0904
    1W        W37555  28.584   1.119   0.150 -0.0621  0.1989 -0.0408
    1W        W37556  29.603  16.266   0.847  0.0077 -0.2831  0.3549
    1W        W37557  14.665   1.852   3.197 -0.0209 -0.1323 -0.0874
    1W        W37558   7.706  26.786   1.790 -0.1653  0.1324 -0.0153
    1W        W37559   3.501  26.047   8.983  0.0372  0.1205  0.1354
    1W        W37560  22.790   5.739   9.108  0.1135  0.0456  0.0126
    1W        W37561   7.868  19.008   6.171 -0.0940 -0.0514 -0.3178
    1W        W37562  22.500  25.689   7.171  0.3399  0.3024  0.2304
    1W        W37563  28.350  26.242   2.860 -0.1722  0.1953  0.2079
    1W        W37564  15.348   8.453   1.799 -0.2420  0.1828  0.0145
    1W        W37565  25.264  25.635   8.725  0.1104  0.2010 -0.0817
    1W        W37566  27.185   3.963   1.481  0.0226  0.0663 -0.0051
    1W        W37567   7.187  23.823   2.103  0.2663 -0.4584 -0.2814
    1W        W37568   3.176   6.109   0.479 -0.2481 -0.2494  0.0883
    1W        W37569  20.575  26.913   9.174 -0.0629  0.1845  0.2154
    1W        W37570  17.653  23.427   7.375 -0.1402 -0.0019  0.1602
    1W        W37571  24.981   6.550   7.480  0.2511  0.0342 -0.0105
    1W        W37572  28.692  10.121   7.588  0.1243 -0.2116  0.0609
    1W        W37573  16.113   2.163   2.730  0.0885  0.0836 -0.0719
    1W        W37574  12.493  13.262   1.477 -0.0974  0.2299 -0.0762
    1W        W37575  13.124  20.690   1.856  0.2086 -0.0276 -0.1716
    1W        W37576  21.169  23.484   1.691 -0.0077  0.1740  0.4023
    1W        W37577  19.222   3.070   6.915  0.1546  0.0170 -0.1825
    1W        W37578   8.099   1.446   0.484 -0.1362 -0.0888 -0.1273
    1W        W37579  24.862  25.550   2.119  0.1356  0.1604 -0.0375
    1W        W37580  20.385  19.160   7.356 -0.2514  0.1309  0.1848
    1W        W37581   1.631   7.943   0.277  0.1145 -0.1610  0.2569
    1W        W37582   8.532  28.498   0.052  0.0035 -0.0624 -0.3159
    1W        W37583   5.495  12.227   7.748  0.5334 -0.3166 -0.1201
    1W        W37584   1.286   5.108   7.706 -0.0233  0.0643  0.0956
    1W        W37585   2.682   3.801   2.615 -0.1338  0.1940 -0.2284
    1W        W37586  26.831   2.937   0.273 -0.2908  0.0345 -0.2786
    1W        W37587  16.038  26.216   8.326  0.2910  0.2951 -0.0527
    1W        W37588  14.870  13.348   0.201 -0.3316  0.0009 -0.1375
    1W        W37589  12.621   0.392   9.466  0.2735 -0.1303  0.1977
    1W        W37590  23.053   9.141   0.475 -0.0889 -0.0889  0.0287
    1W        W37591  13.654  21.496   7.734 -0.2117 -0.0940 -0.0360
    1W        W37592  29.726   5.858   0.797  0.3342 -0.0170 -0.2377
    1W        W37593   4.531  14.992   7.540 -0.3256  0.0218 -0.1971
    1W        W37594   7.495   7.124   7.870  0.1857  0.1923 -0.0168
    1W        W37595   9.423  13.062   0.123  0.2983  0.0654  0.0480
    1W        W37596   8.957   1.349   8.367 -0.1474  0.4854  0.0987
    1W        W37597   4.436  25.527   7.339  0.3027  0.2735 -0.1432
    1W        W37598  15.914  18.283   8.418 -0.1559 -0.1578  0.0511
    1W        W37599   5.481  25.881   1.376  0.1061  0.0409  0.1956
    1W        W37600   1.073  25.213   0.954  0.0296  0.2332 -0.0239
    1W        W37601   7.833   6.377   1.866 -0.2194  0.0437 -0.0885
    1W        W37602  16.546  15.919   1.482  0.0920 -0.0388  0.2227
    1W        W37603  19.267  26.219   6.928 -0.0715  0.1038 -0.2089
    1W        W37604   0.740  18.787   2.291  0.2787  0.0329 -0.0486
    1W        W37605  22.882  12.597   7.487 -0.0611 -0.0611  0.0298
    1W        W37606  16.921  20.375   7.564  0.0719 -0.2317  0.2764
    1W        W37607  20.246  17.794   7.115 -0.0102  0.1487 -0.0765
    1W        W37608  12.020  24.484   7.929 -0.0438 -0.1824  0.2149
    1W        W37609  25.908  25.036   7.299 -0.0591 -0.1494 -0.1825
    1W        W37610  24.761  13.611   6.679 -0.1086 -0.1134 -0.0547
    1W        W37611   3.631   5.280   1.207  0.0601  0.1980 -0.1964
    1W        W37612  22.725  21.096   1.566  0.2053 -0.1600 -0.0197
    1W        W37613  18.829   3.281   7.758  0.0457 -0.0501  0.0867
    1W        W37614   4.437  16.304   1.942  0.2464  0.1087  0.2214
    1W        W37615  22.476   6.127   0.819  0.3055 -0.2464  0.4342
    1W        W37616  15.106  11.545   1.594 -0.1356 -0.1180 -0.2874
    1W        W37617  15.308  18.802   8.413 -0.0094 -0.1873 -0.0826
    1W        W37618  21.182   1.836   1.010 -0.2435  0.3302 -0.0413
    1W        W37619  10.746   8.178   1.548 -0.1113  0.2817  0.1181
    1W        W37620  19.759   5.703   0.669  0.2474 -0.1036 -0.0890
    1W        W37621  17.035   8.010   2.937  0.0359 -0.1533 -0.1684
    1W        W37622  28.898  15.912   2.493  0.1851  0.0178 -0.1480
    1W        W37623  24.873  22.375   8.049 -0.0919  0.0161 -0.1008
    1W        W37624  28.118   1.753   7.899  0.0544 -0.1073 -0.1252
    1W        W37625   8.821  14.182   9.401  0.0805  0.0439 -0.0810
    1W        W37626   4.166  17.688   7.887  0.1029  0.0331 -0.1590
    1W        W37627  17.223   5.669   0.986  0.1447 -0.2302 -0.1109
    1W        W37628   5.218   7.240   2.308 -0.0785 -0.0459 -0.1818
    1W        W37629   9.417   0.786   6.927  0.0311  0.1205 -0.4828
    1W        W37630   8.253  29.240   8.004  0.0504  0.4663 -0.2477
    1W        W37631   2.468  19.503   6.748 -0.1041  0.1427  0.1287
    1W        W37632  16.339   9.011   8.757 -0.0627  0.0840  0.2020
    1W        W37633  17.314   8.912   9.066 -0.2910 -0.0705  0.0012
    1W        W37634  11.659   3.639   0.063 -0.1186  0.1705  0.4321
    1W        W37635   9.623   7.778   8.963 -0.0136  0.0879  0.4693
    1W        W37636  27.184  21.175   7.035 -0.0159  0.2331 -0.1261
    1W        W37637   4.298  21.813   2.103  0.0718  0.0113  0.0753
    1W        W37638  25.598  28.909   1.927 -0.1501  0.0353  0.1372
    1W        W37639  16.291  11.695   8.131 -0.0153  0.2663  0.2274
    1W        W37640  15.070   1.623   1.945  0.0014  0.1349 -0.1502
    1W        W37641  18.274   0.011   9.163 -0.2604 -0.0070 -0.1193
    1W        W37642  19.702  25.845   3.310  0.0104  0.1670  0.0213
    1W        W37643  25.130  20.541   7.428  0.2512  0.0821  0.1261
    1W        W37644  27.482  17.843   0.339  0.0348 -0.0862 -0.2384
    1W        W37645  12.912   1.786   3.033  0.0496 -0.0512 -0.0281
    1W        W37646  21.023  27.479   1.272 -0.0008 -0.0660  0.0494
    1W        W37647   9.243   4.922   8.082  0.0227  0.0748  0.2399
    1W        W37648  21.990   0.441   7.827  0.0823  0.2292  0.0279
    1W        W37649  15.210  20.297   0.757  0.1992  0.2672  0.3003
    1W        W37650  22.484   7.692   6.940 -0.0020 -0.2386  0.0312
    1W        W37651  19.721   5.267   7.291  0.1477  0.0003  0.0766
    1W        W37652  27.509  10.213   0.638 -0.0375 -0.2680 -0.2175
    1W        W37653   0.189  15.812   1.260 -0.0859  0.0793 -0.0488
    1W        W37654   6.579  15.327   0.201  0.0483 -0.1851  0.0672
    1W        W37655   7.953  15.951   7.383  0.2106 -0.1916  0.2187
    1W        W37656   4.011  26.570   1.979  0.0576 -0.2113  0.1459
    1W        W37657   9.589  21.248   6.061 -0.0658 -0.1162  0.1901
    1W        W37658  20.696  24.097   8.970 -0.0064 -0.0420 -0.0092
    1W        W37659  10.838  26.943   1.653 -0.1753  0.1952  0.1113
    1W        W37660  25.538  12.351   8.915  0.1229 -0.3152 -0.1132
    1W        W37661  17.636   5.369   7.065  0.3566  0.1635 -0.0160
    1W        W37662  11.845  21.897   8.329  0.0264 -0.1124  0.0802
    1W        W37663  11.478   9.616   7.453  0.0013  0.2452  0.1038
    1W        W37664  13.681   4.270   8.607  0.0290 -0.0607 -0.0091
    1W        W37665   0.387  14.793   0.717 -0.0950 -0.0962 -0.1338
    1W        W37666  18.136   7.842   7.399 -0.1725 -0.3519  0.0229
    1W        W37667  15.024  10.442   1.565  0.0971  0.2341 -0.0032
    1W        W37668   0.440   1.051   2.043  0.0124  0.4171  0.0614
    1W        W37669   1.708  20.398   0.936  0.0971 -0.0636  0.1519
    1W        W37670  29.684   6.946   7.624  0.4293  0.1519  0.0026
    1W        W37671  20.917  24.916   7.791 -0.0777 -0.0447 -0.0603
    1W        W37672  12.093   3.312   2.116 -0.2369 -0.1527  0.1995
    1W        W37673   6.645   7.336   0.853  0.0157 -0.1925 -0.0515
    1W        W37674  27.091  11.124   0.871 -0.0960  0.3048  0.0219
    1W        W37675  19.649  26.677   2.165 -0.1445 -0.0021  0.0446
    1W        W37676  10.045   3.428   9.412  0.2864  0.3345  0.3120
    1W        W37677  18.327  28.828   0.873  0.0202  0.1495  0.0282
    1W        W37678  17.207  17.136   9.399 -0.0823  0.0540 -0.1035
    1W        W37679   1.756  19.959   7.653 -0.0467 -0.0855 -0.3254
    1W        W37680  28.809  11.863   8.589 -0.0812 -0.0483 -0.0589
    1W        W37681  24.703   2.356   1.401  0.0187 -0.0149  0.1487
    1W        W37682  27.171  26.405   7.319  0.0788  0.0596  0.0365
    1W        W37683   1.760   9.864   8.764 -0.2821 -0.2449  0.2443
    1W        W37684   0.299  17.799   8.394  0.2663  0.3431  0.0064
    1W        W37685   5.324   2.094   2.927  0.0146  0.1132  0.2649
    1W        W37686   9.299  29.472   0.987  0.1326  0.1054 -0.0136
    1W        W37687  15.525   3.455   2.736 -0.1797 -0.2135  0.0483
    1W        W37688  23.696  11.493   8.249  0.1080  0.4103 -0.1184
    1W        W37689   1.439  20.071   8.614  0.0409 -0.2819 -0.0074
    1W        W37690  11.365   8.214   0.424  0.1488 -0.0436  0.0587
    1W        W37691  26.395  19.918   8.254 -0.3282  0.3583 -0.0253
    1W        W37692  21.571  27.806   2.108  0.1062 -0.1111  0.1185
    1W        W37693  11.737  17.877   8.356  0.0443 -0.0471 -0.1286
    1W        W37694  12.086   6.518   1.307 -0.0706  0.1080  0.1579
    1W        W37695  25.950   1.644   0.592  0.0404  0.2057  0.0762
    1W        W37696   1.827  15.647   6.651  0.2051 -0.0926 -0.0762
    1W        W37697  16.362  26.060   1.905 -0.3470 -0.0272 -0.2675
    1W        W37698  22.550  13.554   0.643  0.4504  0.1979 -0.1462
    1W        W37699  19.354   2.018   7.105 -0.0846  0.0313  0.1622
    1W        W37700  21.967  26.944   7.203  0.0983 -0.0348 -0.0600
    1W        W37701   7.506  23.917   6.054  0.4111  0.2297  0.1787
    1W        W37702  23.016   1.097   6.500 -0.0987  0.1208  0.1017
    1W        W37703  17.336  28.575   3.089 -0.0113  0.0699 -0.0952
    1W        W37704  11.632  28.607   1.336 -0.0324 -0.0097 -0.2322
    1W        W37705   5.294   5.351   0.299  0.1185 -0.0531  0.0363
    1W        W37706  21.817   1.925   0.343 -0.0723  0.1611  0.3112
    1W        W37707   7.770  26.314   8.017  0.2422 -0.0392 -0.0260
    1W        W37708   1.411   6.107   7.817  0.2650 -0.2001  0.1750
    1W        W37709  19.467   4.298   8.499 -0.1226 -0.1533  0.1273
    1W        W37710   7.647  13.322   1.806  0.0425  0.0431  0.0818
    1W        W37711   3.920  21.583   1.326 -0.0844 -0.2256 -0.2386
    1W        W37712   0.341  21.495   7.275  0.2311 -0.1376  0.2319
    1W        W37713   2.290  24.170   7.231  0.0788 -0.1694  0.2130
    1W        W37714   7.343  12.959   2.828 -0.1541  0.0694 -0.0500
    1W        W37715  26.870   2.186   0.795  0.1122  0.3112 -0.3827
    1W        W37716  27.520   7.232   2.390  0.0916 -0.0398  0.1378
    1W        W37717  20.921   1.397   1.083  0.1495  0.2305 -0.1503
    1W        W37718  22.163  18.687   8.602  0.0109 -0.0816 -0.1007
    1W        W37719  28.413  15.617   0.980 -0.0298 -0.0861  0.1003
    1W        W37720  24.264  28.829   7.531 -0.0671  0.1206 -0.1497
    1W        W37721   2.086  14.065   6.596 -0.0302  0.2450  0.1472
    1W        W37722  11.546  17.253   1.025  0.0979 -0.2257 -0.4084
    1W        W37723   5.837   9.503   7.528 -0.1799  0.5197 -0.0999
    1W        W37724  11.445  14.560   2.023 -0.0328 -0.0889 -0.1514
    1W        W37725  13.981  14.091   9.455 -0.1219 -0.0020  0.1352
    1W        W37726  27.177  29.184   2.146 -0.1568 -0.1241 -0.1185
    1W        W37727   0.909  11.086   6.255  0.3518  0.4913  0.0378
    1W        W37728  22.175  24.468   8.194  0.0475 -0.3010  0.4386
    1W        W37729   6.426  29.028   0.622 -0.0052 -0.0563 -0.1012
    1W        W37730   0.048  22.599   6.316  0.3139  0.0827 -0.0378
    1W        W37731   2.112   9.004   0.240 -0.1687 -0.3972  0.0804
    1W        W37732  15.108  11.836   2.500  0.1640 -0.2978  0.3373
    1W        W37733  21.612  11.609   9.028 -0.1419 -0.1279 -0.0536
    1W        W37734   7.727  19.109   0.520 -0.1780  0.3746 -0.1142
    1W        W37735   6.328   3.589   6.960 -0.1364  0.3733  0.0877
    1W        W37736  23.948  24.641   2.491 -0.0019  0.3881  0.1869
    1W        W37737  13.721  21.104   8.776 -0.2265 -0.0886  0.2676
    1W        W37738   3.594  26.055   6.227  0.0499 -0.0463 -0.1944
    1W        W37739  20.942  29.756   1.543  0.1123 -0.0739 -0.0364
    1W        W37740   0.773  14.492   0.904  0.1436 -0.1466 -0.2940
    1W        W37741   6.977  10.259   0.443 -0.1134 -0.0949 -0.1883
    1W        W37742   4.515  13.414   8.999  0.1722 -0.0586  0.0051
    1W        W37743  28.839  19.347   1.093  0.0526 -0.0247  0.0122
    1W        W37744  26.023  27.443   7.929 -0.2810  0.2160  0.2096
    1W        W37745  24.988  18.376   8.536  0.1007 -0.0098  0.2168
    1W        W37746  14.663   4.088   2.882 -0.1496 -0.0190 -0.0881
    1W        W37747  27.087  25.540   1.134 -0.2626  0.2907  0.0715
    1W        W37748  15.381  25.502   1.502  0.2108  0.0361 -0.1097
    1W        W37749   0.978  25.254   8.572  0.2249  0.0216  0.1036
    1W        W37750  23.763  11.395   6.029  0.0116 -0.2493  0.3542
    1W        W37751  19.641  10.750   1.096  0.2414  0.1551  0.0414
    1W        W37752  22.233  15.423   7.172 -0.2084 -0.1028  0.0864
    1W        W37753  25.701   8.910   7.787  0.2748 -0.0979  0.1550
    1W        W37754   3.971   5.481   0.400 -0.2402  0.2004 -0.1422
    1W        W37755  22.006  15.079   8.111  0.2397 -0.0267  0.0421
    1W        W37756  15.749  21.140   8.237  0.3217 -0.1348  0.0583
    1W        W37757   9.376  28.907   9.241  0.3960  0.0359 -0.2633
    1W        W37758  28.678  13.055   6.876 -0.3605 -0.1445  0.0388
    1W        W37759   8.765   5.919   0.285  0.0231 -0.0691  0.0318
    1W        W37760   4.776  13.988   2.569 -0.3546  0.1560 -0.1221
    1W        W37761   7.109  10.452   6.638  0.1512  0.1200  0.2181
    1W        W37762   1.805  22.647   7.815 -0.0039  0.2184  0.6562
    1W        W37763   7.795  18.378   8.906  0.0552 -0.3593  0.0374
    1W        W37764  16.995  17.380   0.438 -0.2135  0.1538  0.1540
    1W        W37765  28.017  10.054   0.640  0.1050  0.1069 -0.2975
    1W        W37766  13.515   1.562   7.362  0.1786  0.0160 -0.1396
    1W        W37767   6.039  13.449   0.426  0.3088 -0.0156  0.1747
    1W        W37768  21.841  20.247   1.766  0.2013 -0.1117 -0.0752
    1W        W37769  18.329  27.680   2.986  0.1764 -0.2858  0.1240
    1W        W37770  28.583  21.212   7.200  0.4495 -0.0903 -0.2889
    1W        W37771  27.375  10.707   1.184  0.3017 -0.3400  0.3289
    1W        W37772   8.539  13.454   7.046  0.1634 -0.1361 -0.0139
    1W        W37773   3.788  22.365   9.061  0.1290  0.0977  0.0330
    1W        W37774  20.528  24.563   0.240  0.1637 -0.0841 -0.3080
    1W        W37775  14.500  12.314   8.681  0.0548  0.0960 -0.3397
    1W        W37776  11.221  16.446   0.154  0.0605 -0.0502  0.1255
    1W        W37777   2.432  12.764   0.903  0.3658  0.2196  0.0325
    1W        W37778   4.706  22.980   1.404  0.3586 -0.0586  0.1761
    1W        W37779  29.709  12.416   7.900 -0.0355 -0.2056 -0.2809
    1W        W37780  20.078   6.573   2.277 -0.2161  0.0996  0.0976
    1W        W37781   1.380  12.843   6.463 -0.2830  0.1638  0.3799
    1W        W37782   1.462  13.341   6.335  0.0739 -0.1730  0.0846
    1W        W37783   0.496  29.305   2.540  0.4520  0.0228  0.1332
    1W        W37784  12.582   1.518   8.412 -0.1393  0.3221 -0.2523
    1W        W37785  15.726   9.494   9.215  0.1612  0.4074  0.0389
    1W        W37786   3.963   2.879   7.793  0.1565 -0.3213 -0.0600
    1W        W37787   1.618  24.279   2.244  0.1593  0.0706  0.3677
    1W        W37788  21.356  26.561   8.791  0.1279 -0.1126 -0.0782
    1W        W37789  23.252   0.562   3.528  0.0689  0.0875 -0.0092
    1W        W37790   0.405  13.401   6.553 -0.0711 -0.2984 -0.1083
    1W        W37791  24.536  25.964   7.535 -0.0897 -0.0241 -0.0028
    1W        W37792   2.925   0.385   1.428  0.1531  0.0843  0.1228
    1W        W37793  12.217  18.151   8.280  0.0860 -0.0139 -0.0356
    1W        W37794  28.597  18.090   1.585  0.3055  0.1293 -0.2569
    1W        W37795   7.828  12.292   0.914  0.0113 -0.1029 -0.1188
    1W        W37796  22.881  13.756   0.267 -0.0706 -0.0837 -0.2097
    1W        W37797  18.028  24.799   9.111 -0.1230 -0.2470 -0.0238
    1W        W37798   0.291  24.685   9.158 -0.0904 -0.3201  0.1119
    1W        W37799  15.283  24.210   8.118 -0.2133  0.0815 -0.2491
    1W        W37800  21.546  13.135   1.376  0.2523  0.0889  0.1050
    1W        W37801  22.132   8.948   6.924  0.0292  0.0367 -0.0726
    1W        W37802  18.771  29.448   1.290 -0.2231  0.1161 -0.5355
    1W        W37803  16.735  23.352   0.246 -0.0912  0.1147 -0.2173
    1W        W37804  26.451   3.071   1.399 -0.1605 -0.3613  0.0946
    1W        W37805  17.062  24.040   1.866 -0.0095 -0.1599  0.0952
    1W        W37806  23.556  10.631   7.753  0.0910  0.1475 -0.1471
    1W        W37807  22.892  14.787   2.510  0.1265  0.1665 -0.0925
    1W        W37808  28.702   3.206   8.013 -0.0160  0.3390 -0.2186
    1W        W37809  23.995  10.304   7.852 -0.1792  0.2781 -0.3308
    1W        W37810  12.946   4.729   8.025  0.2630  0.0450  0.0391
    1W        W37811  28.544  28.077   1.983 -0.4539 -0.0346  0.0234
    1W        W37812   3.780  18.963   9.305 -0.4523 -0.0878 -0.0458
    1W        W37813   3.138   1.530   1.517  0.2042  0.2604 -0.1203
    1W        W37814  25.819   9.303   7.396 -0.1488 -0.0769 -0.1933
    1W        W37815  12.920  24.044   7.911 -0.0937 -0.1803 -0.1954
    1W        W37816  14.456  13.617   1.948 -0.1756  0.2611 -0.0604
    1W        W37817  24.133  23.061   6.185 -0.3865 -0.1166 -0.0177
    1W        W37818   2.782   8.586   1.418 -0.2583 -0.1736  0.0747
    1W        W37819  21.583  10.654   9.285  0.0345  0.0039  0.1780
    1W        W37820  15.775  24.187   6.822  0.0656 -0.1253  0.0139
    1W        W37821  21.623  20.350   0.393 -0.0646  0.1369 -0.0487
    1W        W37822  10.438  12.024   8.982 -0.4787 -0.3866  0.0386
    1W        W37823  17.549  25.032   9.063 -0.0596  0.2216 -0.0062
    1W        W37824  26.674  24.124   6.951  0.0422  0.1752 -0.0930
    1W        W37825   7.491  17.115   1.641  0.0533 -0.1087 -0.1588
    1W        W37826   2.162  17.551   0.132 -0.3025 -0.0026 -0.3994
    1W        W37827  14.045  23.556   8.915  0.0266  0.0222 -0.1085
    1W        W37828  21.910   3.133   3.014 -0.0933  0.0803 -0.1332
    1W        W37829   9.825  21.867   6.905 -0.4162 -0.0908  0.0261
    1W        W37830   7.532  10.971   7.387 -0.0812  0.0220 -0.0007
    1W        W37831   8.209   9.425   2.671 -0.1184  0.0812 -0.1150
    1W        W37832  23.487  24.468   0.697 -0.0336  0.2971  0.1151
    1W        W37833  17.667   5.545   1.364  0.4383 -0.3445 -0.1064
    1W        W37834   4.272  13.900   9.153 -0.0237  0.1586  0.0311
    1W        W37835  14.532  26.169   0.399 -0.0044 -0.3070  0.1439
    1W        W37836  23.138  11.366   8.892  0.0633 -0.3011  0.0193
    1W        W37837  27.283  20.679   0.116  0.2526 -0.1725  0.0892
    1W        W37838  10.127  13.124   7.181  0.3262  0.4649  0.0369
    1W        W37839   4.816  10.620   2.724  0.1208 -0.1986  0.0366
    1W        W37840  15.316   0.101   7.526 -0.1893  0.1863  0.1259
    1W        W37841  18.738   8.128   1.257  0.1079  0.1712  0.3522
    1W        W37842  13.566  16.651   9.347 -0.1410  0.1393 -0.1602
    1W        W37843   9.350  26.032   1.853 -0.1004  0.0449 -0.0647
    1W        W37844  19.070  27.525   0.385 -0.0277 -0.0170  0.4280
    1W        W37845   1.238  20.802   1.589  0.1163 -0.1629  0.3720
    1W        W37846  11.729   3.634   8.507 -0.4603  0.2181 -0.5287
    1W        W37847   3.953  12.430   7.265  0.3106 -0.0788 -0.0339
    1W        W37848  18.020  20.403   0.122 -0.0730  0.0754 -0.0603
    1W        W37849   4.298   9.551   2.380  0.1214 -0.0936  0.2747
    1W        W37850  25.618  25.963   7.380  0.1037 -0.2585 -0.1248
    1W        W37851  24.798   8.813   8.938 -0.1504  0.1166  0.0209
    1W        W37852  22.789  15.858   6.125  0.1115  0.0874 -0.0915
    1W        W37853  20.099  10.203   7.573  0.0065 -0.1921 -0.1578
    1W        W37854   9.373  24.191   0.080  0.0824  0.0472  0.0377
    1W        W37855  21.008   7.893   0.574  0.0522 -0.2045 -0.2898
    1W        W37856  27.330   7.407   2.854  0.2023 -0.0144  0.0055
    1W        W37857  12.411   4.530   8.835  0.1241  0.1017 -0.1563
    1W        W37858   0.867  18.875   0.476 -0.0674  0.2043 -0.0221
    1W        W37859  12.374  17.021   8.429  0.2076 -0.1440  0.1001
    1W        W37860   4.631  28.595   8.002 -0.0064 -0.0229  0.0420
    1W        W37861  26.965  11.467   1.550  0.1490 -0.0870 -0.0330
    1W        W37862   6.568   7.057   7.468 -0.2756 -0.4392  0.0020
    1W        W37863  16.994  28.112   8.750  0.1334  0.2505 -0.0092
    1W        W37864  14.993   7.937   8.352 -0.0262 -0.3282  0.0223
    1W        W37865  11.228  25.970   0.709  0.0981  0.0617 -0.3185
    1W        W37866  26.473  20.865   8.246 -0.0013 -0.1019 -0.2108
    1W        W37867  28.102   3.945   1.636  0.0011  0.2965  0.1275
    1W        W37868  29.278  27.368   7.829 -0.1256 -0.2197 -0.1025
    1W        W37869  23.503  23.811   2.469  0.5465 -0.3291 -0.0116
    1W        W37870   8.421  22.906   0.637 -0.0066  0.1551 -0.1693
    1W        W37871  13.276  17.262   9.236 -0.1650  0.2781 -0.3731
    1W        W37872  22.814  26.888   8.053  0.0665  0.2625  0.0245
    1W        W37873  24.114  18.023   0.037 -0.0299  0.1553  0.0904
    1W        W37874  20.940  24.190   2.314 -0.2345  0.2137 -0.1771
    1W        W37875  22.954   9.762   1.373 -0.0447  0.0921 -0.1270
    1W        W37876   0.776  27.258   2.193 -0.0468 -0.2951  0.1652
    1W        W37877   5.788  19.115   1.283 -0.0928 -0.3720  0.3996
    1W        W37878   1.230  10.666   8.599  0.3288 -0.0187  0.3871
    1W        W37879   3.331   7.754   1.895 -0.0357 -0.0790 -0.1423
    1W        W37880  26.765  18.172   1.714 -0.1430  0.2028 -0.0641
    1W        W37881  11.850  13.880   1.349 -0.1297 -0.0237 -0.1290
    1W        W37882  18.846  28.144   1.683 -0.1843  0.1165  0.0608
    1W        W37883   5.630   2.849   8.250  0.0784  0.1119  0.0234
    1W        W37884  12.263   6.719   3.027 -0.0989  0.2706 -0.1066
    1W        W37885   0.005  27.796   9.059  0.0759 -0.0530  0.1087
    1W        W37886   3.748  17.081   0.700  0.1509 -0.0822  0.0144
    1W        W37887  20.953  25.504   6.991  0.2242  0.3751  0.2826
    1W        W37888   4.973   7.729   2.428 -0.0029  0.2219  0.3279
    1W        W37889  14.224  22.355   8.885 -0.0614  0.2232  0.1439
    1W        W37890  12.312  18.340   8.979  0.3539 -0.0280  0.1806
    1W        W37891  27.858  18.921   9.168 -0.0069 -0.0116  0.0721
    1W        W37892  28.950   9.297   2.083  0.1644  0.2925  0.2741
    1W        W37893  27.030   8.981   9.415 -0.0778  0.2636  0.0395
    1W        W37894   0.438   5.722   1.862 -0.1315  0.0647 -0.5333
    1W        W37895  19.751   5.374   2.884  0.0983  0.1406 -0.1149
    1W        W37896   6.659   9.240   7.392 -0.0828  0.0653  0.1633
    1W        W37897  13.523   6.883   9.102  0.2273 -0.1657 -0.0839
    1W        W37898   3.518  24.115   5.774 -0.1041 -0.2725 -0.0662
    1W        W37899  20.414  26.574   1.917  0.0600 -0.0144 -0.3114
    1W        W37900  23.219   1.491   1.518 -0.0397  0.1406 -0.2413
    1W        W37901   1.629  15.708   8.293  0.1097 -0.1326 -0.1589
    1W        W37902  22.055  17.972   6.742 -0.0525  0.0716  0.4054
    1W        W37903  28.654  26.533   6.881 -0.2901  0.1012 -0.4690
    1W        W37904  11.194   4.460   2.413 -0.3653  0.2789  0.0158
    1W        W37905  14.619  20.435   2.344 -0.1051 -0.2499  0.3850
    1W        W37906  10.905   7.239   7.469  0.5146  0.2591 -0.1703
    1W        W37907  21.980   2.465   8.560 -0.2561  0.0891  0.2816
    1W        W37908   0.593   1.636   2.139  0.0463  0.0613  0.3239
    1W        W37909   5.823   6.076   8.951 -0.2906 -0.1617 -0.1186
    1W        W37910  13.845   2.102   3.268 -0.0282  0.1881 -0.2071
    1W        W37911  27.009  23.742   9.360 -0.1884 -0.2193 -0.0272
    1W        W37912  25.563   6.323   9.130 -0.2089 -0.1722  0.2410
    1W        W37913  21.460  24.178   8.503  0.2152 -0.1334  0.2027
    1W        W37914  11.656  21.462   6.991  0.0138  0.1271  0.0012
    1W        W37915  24.636   7.726   7.938 -0.1140  0.1028  0.2225
    1W        W37916  27.206   9.227   2.762 -0.2187 -0.0397  0.1136
    1W        W37917   6.428   7.493   9.304  0.0120 -0.2814 -0.1272
    1W        W37918   1.910  11.680   1.492 -0.2816 -0.3168  0.0145
    1W        W37919  22.070  19.734   8.926 -0.0853 -0.3461  0.3832
    1W        W37920  17.906  10.776   8.817 -0.2560  0.2025 -0.1086
    1W        W37921  23.996   6.283   1.301  0.0608 -0.0583  0.0957
    1W        W37922   5.203  16.160   1.718 -0.2056 -0.0458 -0.1558
    1W        W37923  17.296  14.267   8.125 -0.0082 -0.3842 -0.1718
    1W        W37924  17.901   5.600   6.669 -0.4119 -0.1268 -0.0993
    1W        W37925  25.631   2.085   1.487 -0.1892  0.0896 -0.0540
    1W        W37926  29.453   9.114   1.190 -0.2046 -0.2035 -0.0648
    1W        W37927  23.525   8.245   7.877 -0.2645  0.0646  0.2036
    1W        W37928   7.101  18.689   5.959  0.0444  0.0778 -0.1618
    1W        W37929   3.261   0.998   8.202  0.2328 -0.0610  0.1825
    1W        W37930   7.599   8.490   2.525 -0.0193  0.0609  0.2037
    1W        W37931   6.676  20.353   0.795  0.1773  0.0647  0.2328
    1W        W37932   1.845  12.184   1.316  0.2590 -0.1404 -0.2593
    1W        W37933  25.583  25.029   6.835 -0.2496  0.0130  0.3132
    1W        W37934  14.990  13.079   8.707 -0.0304 -0.1087  0.3084
    1W        W37935   4.133  25.628   0.877  0.1386  0.1831 -0.0408
    1W        W37936  26.279   3.167   7.506 -0.0670  0.1910 -0.1013
    1W        W37937   5.129  20.522   5.736 -0.0501  0.0982  0.0435
    1W        W37938  28.385  21.638   7.293  0.1377  0.0175  0.3205
    1W        W37939   7.342   8.232   9.267 -0.1075  0.1766 -0.1899
    1W        W37940  28.479   4.517   0.120 -0.0237 -0.0821  0.0320
    1W        W37941  18.904   6.901   1.553 -0.2063  0.2011  0.0033
    1W        W37942  23.605   4.728   6.526  0.0437 -0.2514 -0.1696
    1W        W37943  12.285   7.069   6.881 -0.1220 -0.0878 -0.0170
    1W        W37944   9.386  18.973   8.999 -0.1506 -0.2433  0.1060
    1W        W37945  13.439  20.608   0.225 -0.0673 -0.0435 -0.1426
    1W        W37946   2.099  15.163   0.093  0.0220 -0.1157 -0.2349
    1W        W37947  18.414   6.889   0.154 -0.3099  0.0785  0.1436
    1W        W37948  26.982   6.476   1.871 -0.0566  0.0868  0.4976
    1W        W37949  26.622   2.156   1.382 -0.3992 -0.1930  0.2574
    1W        W37950  29.497   9.779   8.468  0.1972 -0.0463 -0.3188
    1W        W37951  11.930  10.479   7.732  0.0271 -0.1193 -0.3663
    1W        W37952  16.048  25.648   8.541  0.0355 -0.4343  0.0485
    1W        W37953  18.117  10.713   0.739 -0.3226 -0.0876 -0.0646
    1W        W37954   3.806  18.355   1.107  0.1351  0.0928 -0.1006
    1W        W37955  21.245   6.091   7.162  0.2694 -0.0209 -0.0722
    1W        W37956   1.045  19.849   8.391  0.1442  0.0289 -0.1149
    1W        W37957   4.786   3.753   2.041  0.2415 -0.2496  0.1409
    1W        W37958  23.980  27.118   7.598 -0.0415 -0.2068 -0.1901
    1W        W37959  24.743   0.393   3.305 -0.1991 -0.4305  0.1453
    1W        W37960  29.711  28.538   2.935 -0.2788 -0.0780  0.1989
    1W        W37961  28.555  24.520   1.182 -0.0028 -0.6253 -0.3715
    1W        W37962  13.470  14.416   6.938  0.1493 -0.1555  0.0554
    1W        W37963  24.498  14.101   1.507  0.2030  0.1016 -0.0016
    1W        W37964  13.253  29.078   2.437 -0.0225 -0.3314  0.1339
    1W        W37965  22.535  28.400   7.186 -0.0175  0.1630 -0.1048
    1W        W37966   7.217  17.861   7.111 -0.0835 -0.2105 -0.3249
    1W        W37967  12.051  21.179   6.838  0.1596  0.0050  0.1121
    1W        W37968   3.263   4.661   0.246  0.1096 -0.3645 -0.0963
    1W        W37969  26.933  13.810   7.370  0.2996  0.0307  0.3186
    1W        W37970  12.225  14.561   9.331  0.1122 -0.1772  0.2728
    1W        W37971   6.293  24.631   0.967 -0.1293  0.0160 -0.3966
    1W        W37972   3.616  16.555   0.892 -0.1379 -0.1912  0.0815
    1W        W37973  15.910  23.672   7.658  0.2760 -0.1581 -0.4020
    1W        W37974  10.585  13.050   6.959 -0.0375 -0.1328 -0.0889
    1W        W37975   8.563  10.659   1.014  0.0329  0.2939  0.3179
    1W        W37976  11.072  16.234   2.260  0.1006 -0.0260  0.0408
    1W        W37977  28.691  16.229   7.111 -0.0917 -0.1169 -0.4318
    1W        W37978  13.104  14.488   0.383  0.1942  0.1086 -0.0138
    1W        W37979   2.373   5.242   3.232 -0.1138  0.1187  0.0996
    1W        W37980   6.651  21.676   7.231  0.0079 -0.0276  0.1840
    1W        W37981   8.138  29.276   0.413  0.1785  0.0151  0.2077
    1W        W37982  29.685   9.728   2.374 -0.3210 -0.0510 -0.1451
    1W        W37983  26.306  26.858   2.433  0.0419 -0.0222  0.0612
    1W        W37984  21.687  13.105   2.102 -0.1054  0.0521 -0.1590
    1W        W37985  21.814  27.318   7.877  0.0941 -0.2948 -0.0986
    1W        W37986   3.162   3.131   1.099 -0.1377 -0.0853 -0.0489
    1W        W37987  29.666   7.210   3.827  0.0151  0.3851 -0.4159
    1W        W37988  24.952  14.380   0.870 -0.1405  0.1622  0.2519
    1W        W37989  25.141  21.255   0.866 -0.2709 -0.1724  0.0419
    1W        W37990  23.668   3.467   2.876  0.1593 -0.1740  0.0315
    1W        W37991  21.600   1.528   0.130 -0.0630  0.1123 -0.1518
    1W        W37992  23.139   6.980   8.119  0.1366  0.1783  0.2734
    1W        W37993  20.813   9.001   1.778 -0.1681  0.1588  0.2480
    1W        W37994  14.974  13.632   8.569 -0.1329  0.2510  0.0335
    1W        W37995  17.712  19.564   3.020 -0.2239  0.2556  0.0124
    1W        W37996  29.472  11.921   0.784 -0.3454  0.3123  0.0015
    1W        W37997  18.760   7.394   8.970  0.0088  0.1089 -0.3121
    1W        W37998  24.394  28.802   8.009  0.0523 -0.1870 -0.4333
    1W        W37999   0.556  24.736   6.823 -0.0173  0.3458  0.0441
    1W        W38000  27.499  19.709   6.815  0.0299 -0.2136 -0.0516
    1W        W38001  17.428   5.508   8.217 -0.0829 -0.3580  0.0779
    1W        W38002  11.091   4.248   8.189 -0.1643 -0.0620  0.0203
    1W        W38003  28.591   9.293   1.622  0.2881  0.0631  0.1788
    1W        W38004  24.199   3.115   1.648  0.0304  0.0708 -0.3169
    1W        W38005  13.402  24.178   8.610  0.0787  0.1626 -0.0388
    1W        W38006   7.690   6.490   2.354  0.2732 -0.0290  0.0977
    1W        W38007   5.954  12.181   7.531 -0.1801 -0.2546  0.1967
    1W        W38008  27.661  18.511   1.386 -0.0060  0.0349 -0.2559
    1W        W38009  26.739  20.589   7.153  0.0862  0.0618  0.3953
    1W        W38010  29.514  12.590   0.286 -0.2119  0.1538  0.0430
    1W        W38011  15.317  11.995   1.738  0.1387  0.2782  0.1485
    1W        W38012   7.259   9.189   6.892 -0.4422 -0.1764  0.1319
    1W        W38013  29.274   5.747   1.084 -0.1426 -0.0724 -0.0650
    1W        W38014  15.282  25.750   2.238  0.2201 -0.2672  0.3058
    1W        W38015  16.258  27.717   7.364  0.0735 -0.0515 -0.0038
    1W        W38016  18.032  19.042   8.424 -0.0646 -0.0924 -0.0613
    1W        W38017  10.516  12.164   2.518  0.0714  0.0758  0.1755
    1W        W38018   5.113  10.282   8.845 -0.1901  0.0425  0.0098
    1W        W38019  24.601   8.158   1.033  0.2207 -0.0433 -0.1811
    1W        W38020  11.857  22.998   0.787 -0.1465 -0.0368 -0.1003
    1W        W38021  26.476   7.868   6.631 -0.0788  0.0129  0.0576
    1W        W38022   5.996   3.293   7.308 -0.0860 -0.0596 -0.2807
    1W        W38023  10.674  15.304   2.151 -0.4059 -0.1167 -0.1410
    1W        W38024  15.396  11.319   1.230 -0.0192 -0.1077  0.1345
    1W        W38025  17.334  25.245   2.674  0.1577 -0.1324 -0.0692
    1W        W38026   6.092  14.026   2.060 -0.2376  0.1356 -0.3204
    1W        W38027  10.566  21.272   2.076  0.0003  0.2440 -0.1379
    1W        W38028   8.744  28.919   7.568  0.3573 -0.2307 -0.0624
    1W        W38029  16.363  17.987   9.047  0.1762 -0.3569 -0.1229
    1W        W38030   6.295  14.889   0.288  0.3577 -0.0047  0.1598
    1W        W38031  28.579  16.129   8.049  0.0492  0.0762  0.4832
    1W        W38032   1.281  22.722   6.624 -0.0651 -0.2278  0.0792
    1W        W38033  27.225  20.967   2.335 -0.1559 -0.2369  0.1822
    1W        W38034   0.892  10.347   8.388  0.0015  0.1863  0.1183
    1W        W38035  20.759   1.764   7.606  0.1102  0.2143 -0.0750
    1W        W38036  17.291  14.568   0.056 -0.2484  0.4200 -0.1626
    1W        W38037   7.715  25.299   2.358 -0.0400 -0.1353 -0.0847
    1W        W38038   5.152  26.060   7.498 -0.0090 -0.1584 -0.0211
    1W        W38039  17.082  24.716   8.251  0.1846 -0.1448  0.0135
    1W        W38040  13.778   8.693   8.875 -0.0141  0.2201 -0.3798
    1W        W38041  27.516   7.010   0.707  0.0833 -0.0816  0.4420
    1W        W38042  27.250   5.406   3.249 -0.1246 -0.0658  0.3309
    1W        W38043  14.953  22.461   1.427 -0.0218 -0.0295  0.3178
    1W        W38044  20.265  21.438   7.635  0.2252 -0.3998 -0.2011
    1W        W38045  25.887   8.049   9.267  0.2108 -0.1180  0.1160
    1W        W38046  22.383  22.108   9.248  0.2883 -0.1417 -0.1677
    1W        W38047  25.942   8.203   1.910  0.1421  0.0041  0.0085
    1W        W38048  14.466  19.321   6.598 -0.1457  0.3896 -0.0439
    1W        W38049  12.256   6.423   1.779  0.1234 -0.1420  0.2568
    1W        W38050  18.497  10.158   1.316  0.0741  0.0505  0.0256
    1W        W38051  17.460  16.770   7.226 -0.1450 -0.1248 -0.2026
    1W        W38052  16.986  28.602   8.564  0.0032  0.2472 -0.1227
    1W        W38053  16.703  13.870   7.292  0.0085 -0.0201  0.3189
    1W        W38054  24.562  10.096   6.184  0.2808  0.1009  0.2574
    1W        W38055  20.102  11.720   9.072 -0.3313  0.0391 -0.3045
    1W        W38056   3.518  22.362   6.392 -0.0269  0.1271  0.0788
    1W        W38057  27.636  26.287   7.205  0.1042 -0.1761 -0.4594
    1W        W38058  14.460   1.887   7.909 -0.0988  0.0340 -0.3131
    1W        W38059   8.270  25.649   7.990  0.1747 -0.1797 -0.0047
    1W        W38060  20.151   3.752   6.297 -0.0654 -0.0115  0.0707
    1W        W38061   0.747  25.002   6.365  0.0083  0.0921  0.2227
    1W        W38062  27.094  19.521   7.629  0.1837 -0.0650  0.2271
    1W        W38063  27.531   9.445   7.635 -0.0545 -0.0822 -0.0476
    1W        W38064  20.159  12.770   0.344  0.1343  0.1339 -0.0689
    1W        W38065   1.326  17.199   0.698 -0.1679  0.1039 -0.1386
    1W        W38066   6.918  27.259   2.915 -0.1061  0.2916 -0.1575
    1W        W38067  13.213   2.259   7.625 -0.0216 -0.0083  0.3917
    1W        W38068  25.521  20.762   2.520 -0.0494  0.0578  0.0321
    1W        W38069   1.238  15.720   2.100 -0.0836  0.0816 -0.3338
    1W        W38070  15.954   3.448   8.576  0.1987  0.4028 -0.3405
    1W        W38071   3.097  14.351   1.963 -0.0830  0.2744 -0.3200
    1W        W38072   5.325  19.875   7.646 -0.0869  0.2440  0.1657
    1W        W38073   5.215  27.474   1.445 -0.0814  0.1556  0.0799
    1W        W38074   2.925  24.576   7.154  0.0240  0.0341 -0.0855
    1W        W38075   1.181  15.576   7.992  0.3275  0.0010  0.2540
    1W        W38076  18.415  21.478   7.512 -0.1641 -0.3726  0.1425
    1W        W38077  28.422  24.445   8.366 -0.0718 -0.0611 -0.1374
    1W        W38078  14.209   4.793   9.177  0.1488 -0.0346  0.3595
    1W        W38079   2.609  16.584   9.254  0.1203  0.3573  0.0207
    1W        W38080   4.742  19.589   6.781  0.1272  0.0513  0.3485
    1W        W38081   2.926   1.405   0.675  0.0286  0.3997  0.1507
    1W        W38082  14.942  21.443   0.044  0.2549  0.0279  0.1807
    1W        W38083   8.875  10.049   9.439 -0.3559 -0.1940  0.0902
    1W        W38084  25.603  26.272   0.714 -0.2092 -0.0374 -0.1180
    1W        W38085  17.790  21.897   0.034 -0.3013  0.1100 -0.3423
    1W        W38086  19.781  25.798   1.929  0.5121 -0.1625 -0.1137
    1W        W38087  22.642   9.373   7.722 -0.0486 -0.0281  0.0606
    1W        W38088   1.607  12.631   2.478  0.0253 -0.2956 -0.1306
    1W        W38089   5.769  22.971   2.174 -0.0438 -0.0856  0.1367
    1W        W38090  29.546   0.859   2.013  0.2034 -0.2711  0.3969
    1W        W38091   3.656   6.451   0.277 -0.2840  0.0255  0.1109
    1W        W38092   1.920  16.866   0.091  0.0240  0.1263 -0.1150
    1W        W38093  21.114  11.686   8.935 -0.1694 -0.2485  0.0905
    1W        W38094  24.757   3.311   7.931 -0.0056 -0.3073 -0.1704
    1W        W38095   7.019   1.271   7.781 -0.1676  0.1292  0.4045
    1W        W38096  27.618  13.225   1.110 -0.0162 -0.0049 -0.0285
    1W        W38097   8.806   1.663   1.369  0.1009 -0.3687  0.1437
    1W        W38098   3.552  25.487   0.951 -0.0705 -0.4483 -0.1122
    1W        W38099  13.390   8.588   1.202 -0.1380  0.2896  0.0603
    1W        W38100  16.374   6.114   7.529  0.3852 -0.0713  0.0145
    1W        W38101  14.124   7.066   1.579  0.1510  0.0271 -0.4422
    1W        W38102   7.949   8.066   0.956  0.0288 -0.0214  0.1224
    1W        W38103  23.782   4.262   0.215  0.0254  0.1269 -0.0183
    1W        W38104  22.074   5.305   2.485  0.0977 -0.2861 -0.2069
    1W        W38105  24.690  19.380   0.892 -0.2822  0.1414  0.3512
    1W        W38106   0.384   7.730   0.556 -0.0113  0.0662  0.1292
    1W        W38107  16.318  26.839   7.207  0.3463 -0.0353 -0.1009
    1W        W38108   5.425  27.850   0.801  0.0328  0.2835 -0.0814
    1W        W38109  15.991  20.538   9.013 -0.1380 -0.0055 -0.1480
    1W        W38110  21.403   8.099   0.047 -0.3389  0.3751  0.1083
    1W        W38111  18.212  24.817   2.956  0.0805  0.1736 -0.1211
    1W        W38112   0.103  11.892   1.647 -0.0960 -0.1591  0.0449
    1W        W38113   2.530  19.640   9.319  0.0611  0.1421  0.2950
    1W        W38114   9.492  18.063   9.211  0.0959 -0.3417 -0.0581
    1W        W38115  16.866  29.740   8.995  0.0333  0.1156 -0.4357
    1W        W38116  23.822  13.787   8.668 -0.1642  0.1639 -0.1532
    1W        W38117   0.306  11.274   0.742 -0.1016  0.3181  0.0156
    1W        W38118   6.353  28.829   1.907  0.3148  0.0360  0.1240
    1W        W38119  29.880  14.355   7.242  0.2675  0.0309 -0.0570
    1W        W38120  18.948   4.899   0.771 -0.0776 -0.2285  0.0278
    1W        W38121  19.095  10.862   5.944 -0.3919  0.2667 -0.0243
    1W        W38122  13.281  25.289   6.865  0.0530  0.1168  0.1201
    1W        W38123   7.790   3.464   7.780 -0.0278  0.0815  0.2980
    1W        W38124   8.815   8.701   0.091 -0.2534 -0.1150  0.1363
    1W        W38125  15.706  26.620   1.900  0.1215  0.2487 -0.1808
    1W        W38126  14.083  27.031   2.689  0.2669 -0.2847 -0.0919
    1W        W38127   8.396  23.883   0.029 -0.1237 -0.1504  0.2028
    1W        W38128  18.003  27.276   2.875 -0.0119 -0.0870 -0.1521
    1W        W38129  26.822  18.562   6.035  0.0192 -0.2722 -0.0434
    1W        W38130  11.798  24.933   0.491 -0.4370 -0.1723  0.1663
    1W        W38131  11.139   2.547   7.377  0.1864  0.3266 -0.1433
    1W        W38132  17.272   5.244   7.749  0.0644 -0.4898 -0.2665
    1W        W38133  13.790  21.307   6.655 -0.0558 -0.2689  0.1975
    1W        W38134  20.450  20.142   8.304 -0.3229  0.1195 -0.0408
    1W        W38135  23.333  21.893   8.471  0.0425 -0.1753  0.3311
    1W        W38136   4.975  16.295   7.326  0.1029 -0.1231  0.1338
    1W        W38137  20.238  28.425   9.352 -0.0809  0.0136 -0.2988
    1W        W38138  15.861  23.910   0.768  0.2068 -0.3261  0.1644
    1W        W38139  28.649  21.307   0.773 -0.0029  0.1200  0.1632
    1W        W38140  21.687  11.370   5.861 -0.1893 -0.2993 -0.1614
    1W        W38141  10.401  12.858   9.224 -0.2003 -0.1195 -0.1153
    1W        W38142   8.601   3.405   0.674  0.3490  0.0473 -0.1372
    1W        W38143   3.813   5.749   0.899 -0.0934 -0.0476 -0.1754
    1W        W38144   5.102  14.844   8.265 -0.0233 -0.3300  0.0817
    1W        W38145  21.283  29.874   1.218  0.1765  0.4170 -0.0157
    1W        W38146   3.368  15.814   0.533  0.0072 -0.0334  0.0618
    1W        W38147   9.257   3.723   7.717  0.3609  0.1250 -0.2855
    1W        W38148   1.273  16.728   7.779 -0.2253 -0.1808  0.0127
    1W        W38149   0.608  15.767   6.657 -0.1006  0.0699  0.0397
    1W        W38150   4.054  29.146   2.492  0.2999  0.2658  0.0021
    1W        W38151  20.094   2.552   8.587 -0.2368  0.0284  0.0480
    1W        W38152   9.961  14.831   1.506  0.2463  0.0567  0.1258
    1W        W38153  11.496   2.153   8.390 -0.0564 -0.2698 -0.1492
    1W        W38154  17.170   4.404   7.903 -0.1802  0.1057  0.3981
    1W        W38155   3.418   4.405   3.544 -0.1056 -0.0095 -0.0535
    1W        W38156  24.317  25.878   1.910 -0.3212  0.0522  0.0980
    1W        W38157   7.802   1.023   9.186  0.0645 -0.0712  0.0355
    1W        W38158  29.450  14.005   5.468  0.0016 -0.0780  0.0977
    1W        W38159  14.032   7.220   1.092 -0.1966 -0.0858  0.1600
    1W        W38160   6.361  24.028   8.705 -0.0660 -0.1928 -0.0524
    1W        W38161  26.508  25.942   6.553  0.2082  0.1597  0.2409
    1W        W38162  16.104  27.956   7.811 -0.1995  0.2472 -0.4239
    1W        W38163  14.716  26.780   0.090 -0.1250 -0.0229  0.1492
    1W        W38164   4.161   9.194   2.673 -0.0907 -0.2956 -0.0508
    1W        W38165  16.247  15.300   0.632 -0.0584 -0.0525  0.2509
    1W        W38166   0.238  28.705   3.143  0.3284 -0.0579  0.0120
    1W        W38167  19.421  18.262   8.509 -0.1997 -0.1361 -0.1430
    1W        W38168  28.499  12.475   2.574 -0.0600 -0.2856 -0.3188
    1W        W38169  26.493  29.618   2.117  0.0627  0.1043 -0.0894
    1W        W38170  23.906   5.425   9.211  0.1112  0.0342  0.3993
    1W        W38171  24.344  24.029   9.123 -0.1560  0.2626  0.3281
    1W        W38172   5.991  10.539   0.897  0.1840  0.1365  0.0938
    1W        W38173   0.524  22.174   6.554  0.2642  0.1936 -0.1000
    1W        W38174   1.858   8.942   9.170 -0.4001 -0.0189 -0.3644
    1W        W38175   8.426  28.461   7.384 -0.4036 -0.0713 -0.2193
    1W        W38176  23.491  21.683   1.116 -0.2921  0.0334 -0.0932
    1W        W38177   6.529  13.358   2.770  0.2906 -0.0834  0.0834
    1W        W38178  21.237  27.349   8.209 -0.1307  0.2155  0.2006
    1W        W38179  10.439  24.901   8.253 -0.1685 -0.1305  0.0303
    1W        W38180   6.849  24.632   1.751  0.0389 -0.0307 -0.1297
    1W        W38181   7.440   1.762   2.432 -0.1389  0.4260  0.2731
    1W        W38182  10.457  11.140   1.997  0.4919  0.1142  0.0944
    1W        W38183  16.667   3.249   0.373  0.3443 -0.1518 -0.0368
    1W        W38184  10.069  11.007   0.361 -0.0763  0.0918 -0.1217
    1W        W38185  10.634  28.362   1.459  0.1155  0.1672  0.0376
    1W        W38186  10.968  27.429   0.745 -0.1797  0.0507 -0.0451
    1W        W38187  21.170   0.104   8.028  0.1145  0.0177  0.1018
    1W        W38188  16.758  19.815   8.560  0.1221  0.2958 -0.0301
    1W        W38189   8.604   5.241   1.839 -0.0055 -0.1322  0.0546
    1W        W38190  17.849  14.711   8.590 -0.1527 -0.1428  0.0712
    1W        W38191  17.533  19.596   8.275 -0.3660 -0.1330  0.3566
    1W        W38192   8.031  16.890   1.594 -0.1965  0.0967  0.2168
    1W        W38193  29.710   7.488   7.768 -0.0268  0.0259  0.3465
    1W        W38194   2.389  25.652   9.212 -0.5464  0.0494 -0.1474
    1W        W38195   3.039   4.211   8.490  0.0201 -0.0403 -0.1596
    1W        W38196  22.439  10.428   9.027 -0.1186 -0.1171 -0.2029
    1W        W38197  11.739   8.805   3.024  0.1844  0.2220 -0.2374
    1W        W38198   3.375  11.276   1.422 -0.0616 -0.1137 -0.1969
    1W        W38199  20.403  24.339   8.155 -0.1337 -0.0878 -0.1257
    1W        W38200   3.458  22.083   8.664 -0.1265  0.2835 -0.3485
    1W        W38201   0.352   4.044   1.491 -0.2592  0.1308  0.2396
    1W        W38202  21.652  20.858   7.410  0.0244 -0.2005 -0.2275
    1W        W38203  16.798  18.501   7.212  0.0888 -0.1410 -0.0358
    1W        W38204  12.120  13.980   7.720 -0.1716 -0.2508  0.3494
    1W        W38205   0.708  18.967   7.833  0.2022  0.1405 -0.0492
    1W        W38206  21.450  13.876   6.871 -0.1670 -0.1686  0.0973
    1W        W38207  15.889   6.696   0.190 -0.1473  0.0382  0.0307
    1W        W38208  20.136  10.035   1.750 -0.1475 -0.1938 -0.1330
    1W        W38209   8.484  15.512   6.700  0.0386 -0.0514 -0.0810
    1W        W38210  13.587  13.395   6.973 -0.1025  0.4034  0.0476
    1W        W38211  26.129  27.629   8.920 -0.2097 -0.0074  0.0576
    1W        W38212  27.913   1.963   2.501  0.2660  0.3698  0.0783
    1W        W38213  16.139   7.398   1.920 -0.2489 -0.1210  0.6760
    1W        W38214  20.631  15.513   0.528 -0.2187 -0.0158  0.0785
    1W        W38215  17.750  24.948   8.454  0.0105 -0.3097  0.0400
    1W        W38216  16.613  29.336   0.283  0.1082 -0.1239  0.0838
    1W        W38217   0.160  25.677   1.968  0.2256 -0.3591 -0.1258
    1W        W38218  18.458  13.745   8.685  0.0835 -0.2526 -0.1758
    1W        W38219  20.722   1.873   1.215 -0.2290 -0.0829  0.1811
    1W        W38220  28.782  16.233   8.613  0.1933 -0.0317 -0.1817
    1W        W38221  23.795  18.751   0.140 -0.2431  0.0309 -0.0324
    1W        W38222   3.234  17.669   1.946 -0.0235 -0.1419  0.1072
    1W        W38223   2.097   7.615   8.985  0.1919 -0.1097 -0.1444
    1W        W38224  27.640   4.312   6.322 -0.0675  0.1036 -0.3151
    1W        W38225  17.834   1.059   0.598  0.2736 -0.1562 -0.0793
    1W        W38226   5.730  20.140   7.827 -0.0337 -0.0867  0.1007
    1W        W38227   4.835  18.239   0.868 -0.0429  0.0187 -0.0908
    1W        W38228   8.474  14.702   8.134  0.0593 -0.2120 -0.3092
    1W        W38229  27.180   3.675   8.492 -0.1463 -0.1950  0.2806
    1W        W38230  25.517  26.147   2.216 -0.0789  0.0152 -0.3776
    1W        W38231  26.242  18.539   2.829  0.1647  0.0025 -0.2118
    1W        W38232  28.389   9.644   1.291  0.0150  0.0385 -0.3500
    1W        W38233   8.069  18.420   0.065 -0.1713  0.0985 -0.1137
    1W        W38234  14.851  29.743   7.404 -0.0668  0.0111  0.1534
    1W        W38235  14.216  22.059   1.720  0.2800 -0.0776 -0.1269
    1W        W38236  19.005  23.511   0.441  0.1152 -0.3505 -0.0011
    1W        W38237   5.701  20.793   8.431 -0.1106 -0.0642  0.1294
    1W        W38238  26.707  13.778   2.567 -0.1914 -0.0628 -0.0204
    1W        W38239   7.228   5.993   3.808  0.0786  0.1184 -0.0921
    1W        W38240   1.402   7.700   2.887 -0.1125 -0.2027  0.0388
    1W        W38241   7.074  27.570   6.392 -0.0986  0.0017 -0.4393
    1W        W38242  10.863  12.641   0.723  0.2961 -0.1275 -0.2253
    1W        W38243  26.189  10.025   0.632  0.0166  0.1941  0.6666
    1W        W38244  28.134   6.715   2.214  0.0713  0.5491  0.1138
    1W        W38245  12.785  12.501   7.435  0.2726  0.0102  0.3322
    1W        W38246  20.750   8.771   7.142 -0.0158 -0.2895 -0.1983
    1W        W38247  22.127  20.156   7.442 -0.0298 -0.0386 -0.1641
    1W        W38248  16.349  19.976   0.196  0.0162  0.2504 -0.0272
    1W        W38249  16.340  24.627   2.583  0.0533  0.0552  0.1109
    1W        W38250  15.829  22.360   2.552  0.0159 -0.4776 -0.2881
    1W        W38251   8.116   9.554   1.446 -0.2477 -0.1271 -0.0755
    1W        W38252  19.388   6.079   0.256 -0.1288  0.1116 -0.2256
    1W        W38253  10.164   7.294   8.579 -0.1140 -0.1262 -0.1232
    1W        W38254  12.272   0.557   2.837 -0.3948  0.0316 -0.4006
    1W        W38255  15.241  24.694   7.253  0.0758 -0.2462  0.0682
    1W        W38256  13.894   1.273   9.264  0.0787  0.2228  0.1085
    1W        W38257  22.196  19.254   8.732 -0.1446  0.2377  0.1410
    1W        W38258  20.049   4.616   6.545 -0.2705  0.1742 -0.0537
    1W        W38259   3.327  15.508   9.459  0.1648  0.0492  0.1198
    1W        W38260  22.465  18.200   8.706 -0.1641 -0.4236  0.0767
    1W        W38261  12.029   1.533   8.308 -0.3377 -0.0902 -0.0573
    1W        W38262   4.227  11.342   0.375  0.0162  0.0136  0.2602
    1W        W38263  18.433  10.720   0.317 -0.0441  0.0786 -0.0988
    1W        W38264  14.556   6.309   1.101  0.1371 -0.2246  0.3672
    1W        W38265  19.205  10.422   0.332 -0.1053  0.0576 -0.4577
    1W        W38266   1.427   2.747   8.493  0.1279  0.1974 -0.2332
    1W        W38267  15.024  28.056   8.423 -0.3028  0.0056  0.1787
    1W        W38268  16.573  13.713   2.007 -0.0930  0.0122  0.1294
    1W        W38269  18.489  10.419   6.369 -0.1930 -0.1328 -0.0825
    1W        W38270  12.346  10.092   0.575 -0.3611 -0.1907  0.3008
    1W        W38271   5.683   2.637   8.884 -0.0044 -0.1747 -0.0418
    1W        W38272  21.765  29.725   8.998  0.1127 -0.0644  0.1810
    1W        W38273  20.255  29.768   9.185 -0.0040 -0.1980 -0.2313
    1W        W38274  19.213  16.596   1.992 -0.0932  0.1753  0.1836
    1W        W38275  17.717  29.077   2.551  0.0059  0.4000  0.1037
    1W        W38276  12.447  11.625   7.541 -0.1003 -0.1769 -0.0925
    1W        W38277  14.042  18.756   2.328  0.1793  0.2563 -0.1196
    1W        W38278   9.916  29.877   7.913  0.0710  0.2520  0.0890
    1W        W38279  21.317   3.422   9.190  0.0407 -0.1270  0.2674
    1W        W38280  22.385  20.978   1.938 -0.0135  0.0828 -0.1165
    1W        W38281  18.068  16.897   7.942 -0.1009 -0.1913  0.3484
    1W        W38282  19.198  17.240   7.346  0.1446  0.1369  0.1459
    1W        W38283  29.057  21.856   9.170  0.0960 -0.1167  0.0965
    1W        W38284  23.841   3.948   3.071 -0.1879  0.1644 -0.0228
    1W        W38285   6.263  16.484   8.251 -0.0405  0.0984 -0.1991
    1W        W38286  23.468   7.996   1.976  0.2713 -0.0158  0.2424
    1W        W38287  19.152   3.532   1.861  0.1536 -0.0043 -0.2412
    1W        W38288   2.293  24.586   8.266 -0.0488  0.3896 -0.2297
    1W        W38289   6.103  17.968   6.026 -0.1289  0.0452 -0.0204
    1W        W38290  28.568   3.307   1.007  0.2362  0.0122 -0.0059
    1W        W38291   3.656   8.540   0.400 -0.0517 -0.0978 -0.2385
    1W        W38292  28.492  11.685   7.756 -0.0403  0.3609  0.2809
    1W        W38293   2.951  11.887   0.424  0.1482  0.0523 -0.1293
    1W        W38294  27.099  11.937   6.596 -0.1294 -0.0683 -0.0975
    1W        W38295   8.013  17.452   7.644  0.1123 -0.0005 -0.1443
    1W        W38296   3.058  21.444   9.267  0.1707  0.1465  0.1728
    1W        W38297  19.447  26.651   7.220 -0.1397 -0.0055  0.0143
    1W        W38298  18.790  16.350   8.590  0.1528 -0.1340 -0.2051
    1W        W38299   3.313  10.179   1.630  0.2653  0.1467  0.1457
    1W        W38300   1.870   2.352   3.063  0.1974  0.1525  0.0949
    1W        W38301  16.130  29.546   9.021 -0.2689  0.1281  0.2171
    1W        W38302  13.611  23.315   1.282  0.3093 -0.1122  0.3912
    1W        W38303   4.651  27.463   8.037  0.0389 -0.2083  0.0601
    1W        W38304   2.348  26.778   0.000  0.0003  0.2935  0.1768
    1W        W38305   8.229   3.128   0.320  0.0572 -0.2066 -0.3285
    1W        W38306   3.728   0.306   2.518 -0.1244  0.3028  0.1378
    1W        W38307  26.188   3.725   8.834 -0.2574 -0.1351  0.1673
    1W        W38308   3.965  17.879   8.487 -0.1285 -0.0328 -0.1904
    1W        W38309  11.976   9.980   0.212  0.0744  0.0945 -0.1028
    1W        W38310  11.199   6.074   2.058 -0.0575  0.1492 -0.0117
    1W        W38311  11.205  13.240   2.291  0.0948  0.0457 -0.3015
    1W        W38312  24.917   6.086   0.227 -0.1174 -0.0393  0.0500
    1W        W38313  17.116  18.829   7.883 -0.0956 -0.1315 -0.1588
    1W        W38314  28.393  20.608   8.116  0.0187  0.2245  0.0555
    1W        W38315   3.436   4.448   8.306  0.1888 -0.0619  0.1157
    1W        W38316  16.281  10.137   8.171 -0.0212 -0.0000 -0.1634
    1W        W38317   5.488  18.528   5.401 -0.0229 -0.1010  0.1969
    1W        W38318  14.718   6.072   8.347  0.2058  0.1017 -0.2453
    1W        W38319  12.502   5.534   9.264  0.2251 -0.1187 -0.1775
    1W        W38320  10.146   2.419   2.325  0.0461 -0.2445 -0.2521
    1W        W38321   7.552   6.615   2.909  0.2612  0.0592 -0.0718
    1W        W38322   3.212  20.164   6.440 -0.3160  0.2894 -0.2103
    1W        W38323  20.057   5.905   0.362  0.3913  0.1471  0.2633
    1W        W38324  25.259   4.380   8.619  0.4134 -0.1939 -0.1044
    1W        W38325   9.632  13.382   7.839  0.3356 -0.0627  0.2252
    1W        W38326   5.763  11.220   7.791 -0.2440 -0.2928  0.1532
    1W        W38327  25.203   1.536   6.892  0.0228 -0.0679 -0.1229
    1W        W38328   5.209  21.667   7.462 -0.0823 -0.1303  0.0762
    1W        W38329  22.206  25.301   9.028  0.0100 -0.2792 -0.0059
    1W        W38330  16.376   2.882   0.138  0.2482  0.1278 -0.3384
    1W        W38331  11.209  11.818   0.333 -0.1341  0.0901 -0.1029
    1W        W38332   8.413  17.019   0.740 -0.1630  0.2782  0.0974
    1W        W38333  11.475   4.124   7.799 -0.1988  0.2064  0.0442
    1W        W38334  25.057   2.950   8.170 -0.2736 -0.0456 -0.0146
    1W        W38335  17.829  29.161   1.491  0.1170 -0.1341  0.0481
    1W        W38336  11.291   4.907   2.527  0.2416 -0.0029 -0.0321
    1W        W38337   0.140  25.267   2.859  0.2355  0.1424 -0.0756
    1W        W38338   8.297  20.657   1.263 -0.0439 -0.1178 -0.1704
    1W        W38339  26.124  16.316   0.393  0.0384  0.2199  0.0669
    1W        W38340  13.345   4.398   2.526  0.0232  0.0084 -0.5400
    1W        W38341  13.415  27.425   1.253  0.2892  0.0167 -0.1224
    1W        W38342   1.801  16.493   7.820 -0.0049  0.0294 -0.1402
    1W        W38343  21.622  11.289   1.482 -0.1230  0.2823  0.2047
    1W        W38344  10.440  19.065   0.948  0.0858 -0.1390  0.0101
    1W        W38345  21.146   6.340   8.185 -0.0269  0.1703  0.0487
    1W        W38346   5.740  19.592   0.968  0.0777  0.2509 -0.0720
    1W        W38347  29.140  11.267   6.909 -0.2493 -0.1589  0.0609
    1W        W38348  22.293  26.525   1.610  0.1303  0.3223 -0.2772
    1W        W38349  25.259   0.343   2.001 -0.2585  0.1263  0.3570
    1W        W38350  12.937  26.063   1.712  0.0940  0.3271  0.2486
    1W        W38351  25.690  28.199   3.132  0.1906  0.2513  0.2208
    1W        W38352  22.195   3.794   8.940 -0.5073  0.1045  0.1843
    1W        W38353   1.260   8.901   6.670  0.3039  0.0251 -0.0188
    1W        W38354  15.824  24.466   2.452 -0.0995  0.1850  0.0203
    1W        W38355   5.973  16.355   6.242  0.2246 -0.2082 -0.0508
    1W        W38356   1.709   5.686   2.499  0.0291  0.0538 -0.2370
    1W        W38357   3.279   8.307   2.606 -0.1757 -0.2191  0.0162
    1W        W38358   0.224  20.097   0.897 -0.0670  0.1711  0.1652
    1W        W38359  14.713  15.291   1.761  0.2352  0.1191 -0.1536
    1W        W38360   7.214  18.945   7.838 -0.2532 -0.0979  0.0732
    1W        W38361   1.130   8.642   2.060 -0.0138 -0.2942 -0.1328
    1W        W38362   0.239  26.241   7.986 -0.4274  0.0171 -0.0835
    1W        W38363   1.518  17.429   1.650  0.1782  0.1826  0.0544
    1W        W38364  20.980   3.159   2.997  0.0113 -0.1085  0.0752
    1W        W38365  25.075  19.172   9.058  0.3324  0.0854 -0.2943
    1W        W38366   5.540   2.257   0.198  0.0984  0.1860  0.2435
    1W        W38367  13.813  14.476   1.061 -0.1036 -0.2389  0.0955
    1W        W38368  19.671  23.790   2.601 -0.0489 -0.1956 -0.1446
    1W        W38369   1.755  17.908   7.253 -0.2135 -0.0959  0.3117
    1W        W38370  18.105  12.296   1.601  0.1458 -0.0934 -0.0062
    1W        W38371  16.298  25.576   1.224 -0.0304  0.0467 -0.1456
    1W        W38372  17.132  13.356   8.038 -0.0568  0.3154 -0.0166
    1W        W38373  17.361   5.225   0.686 -0.0841 -0.1834  0.1673
    1W        W38374   3.094   3.760   2.975 -0.1581 -0.1192 -0.1018
    1W        W38375  12.232  22.150   1.022  0.0813 -0.0503 -0.0626
    1W        W38376  23.656  25.874   0.178  0.1291  0.1598  0.2248
    1W        W38377   5.864  28.598   7.179 -0.1222  0.0832  0.3010
    1W        W38378  11.782  29.478   9.066 -0.0766  0.1760 -0.1088
    1W        W38379  16.899  25.631   7.233 -0.0567  0.3317  0.0227
    1W        W38380   6.864   4.717   8.091 -0.1287 -0.2746 -0.1431
    1W        W38381   0.249   9.008   0.880  0.1933 -0.0813  0.0174
    1W        W38382   3.486   6.323   7.891 -0.0053 -0.1813  0.0557
    1W        W38383  11.090  10.060   1.660  0.2655 -0.2255 -0.1035
    1W        W38384  13.811  15.177   1.566 -0.0883  0.1115  0.0489
    1W        W38385  14.390   1.279   1.180 -0.0088 -0.0996 -0.0359
    1W        W38386   6.423  20.224   5.456  0.0163 -0.1675  0.6093
    1W        W38387   0.774  24.148   8.950 -0.1639 -0.2046  0.1205
    1W        W38388  15.291   6.161   0.660 -0.4158  0.0856 -0.0379
    1W        W38389  25.706  14.514   2.538  0.1097 -0.0473  0.2100
    1W        W38390   5.689  18.676   0.046 -0.0764 -0.1921 -0.2578
    1W        W38391   3.672   7.120   8.618  0.3784 -0.4411 -0.0855
    1W        W38392   4.250  10.378   8.594  0.1427  0.0989 -0.1788
    1W        W38393  22.297  26.956   0.281  0.2579  0.0727  0.2244
    1W        W38394  25.349  12.534   6.312  0.3000 -0.0328  0.0291
    1W        W38395  28.911  11.256   7.981 -0.0791 -0.0972  0.1278
    1W        W38396  13.191  24.881   9.201  0.0880  0.0004  0.3003
    1W        W38397  11.725   0.181   8.089 -0.2235 -0.1377  0.3142
    1W        W38398   6.228  17.039   0.114  0.1670 -0.0137 -0.0054
    1W        W38399   3.900  11.184   8.549 -0.5038 -0.1182  0.0972
    1W        W38400  18.879  14.327   7.806  0.0125 -0.3386  0.1518
    1W        W38401  28.377  11.470   2.466  0.3177 -0.0157  0.2103
    1W        W38402  23.600  14.975   7.200 -0.0430  0.2090  0.2577
    1W        W38403  12.306   4.082   2.685 -0.3164 -0.0825 -0.0562
    1W        W38404  19.963  12.969   7.082 -0.1549  0.1092 -0.2579
    1W        W38405  13.681  25.027   6.695  0.0378 -0.3244 -0.1060
    1W        W38406   0.930   9.680   2.051  0.1039 -0.1264 -0.0968
    1W        W38407  28.392  19.483   0.725 -0.1302  0.3397 -0.1316
    1W        W38408   6.386  12.189   8.809  0.0457  0.2914  0.0638
    1W        W38409  18.756  26.094   7.614  0.1178 -0.1325  0.0562
    1W        W38410  10.668   2.280   0.863  0.0138  0.1637  0.0686
    1W        W38411   8.248   8.904   0.799 -0.2695  0.0385  0.0667
    1W        W38412   7.865  10.867   1.501  0.0243 -0.1397 -0.1679
    1W        W38413  10.988   4.131   1.572  0.3631 -0.1035 -0.3077
    1W        W38414  18.805  25.340   1.176  0.0939 -0.1179 -0.0166
    1W        W38415  12.443  19.233   6.997  0.1056 -0.2710  0.0039
    1W        W38416  29.472   1.030   7.872  0.0069 -0.1080  0.2591
    1W        W38417   2.766  15.673   9.287 -0.3097 -0.1012 -0.0656
    1W        W38418   1.405  15.298   1.784 -0.1128  0.2557 -0.0905
    1W        W38419  18.778  17.484   8.647  0.0465 -0.1249  0.0568
    1W        W38420  18.659  26.924   8.702  0.2451 -0.1358  0.0543
    1W        W38421  14.406   2.270   3.218 -0.0528 -0.1519  0.0416
    1W        W38422  23.925  17.565   0.860  0.0728  0.1135 -0.3939
    1W        W38423  23.321  22.276   7.396 -0.2448  0.0235  0.1994
    1W        W38424   0.633  28.434   1.530  0.2551  0.0624 -0.1189
    1W        W38425  12.699  25.150   7.598 -0.0004 -0.3826  0.1163
    1W        W38426  15.323   7.588   1.964 -0.2094  0.0454 -0.3124
    1W        W38427  17.560  17.711   2.208  0.0107 -0.3082 -0.1746
    1W        W38428   2.875   7.657   8.734  0.3884  0.1092 -0.2167
    1W        W38429  28.429   2.764   7.041  0.0587 -0.0762 -0.3180
    1W        W38430   0.959  20.317   8.412  0.4235 -0.1581  0.0264
    1W        W38431   2.284  14.741   7.565 -0.4010 -0.1145  0.1194
    1W        W38432  24.507  13.703   8.717 -0.3287  0.0016  0.1412
    1W        W38433  13.818   6.122   2.690  0.2315 -0.0840  0.2867
    1W        W38434   2.698  10.505   7.791 -0.2161  0.1804  0.2997
    1W        W38435  25.174   9.158   6.623  0.3580  0.3379 -0.1033
    1W        W38436   3.554  22.594   0.150  0.0489  0.1316 -0.0885
    1W        W38437   4.844  14.829   2.033 -0.1392 -0.2304 -0.1589
    1W        W38438  29.639  10.333   0.288 -0.0926  0.1718 -0.0692
    1W        W38439  17.276  22.326   8.134  0.1333 -0.0786 -0.1473
    1W        W38440   5.663   5.126   0.592 -0.2045  0.2356  0.2119
    1W        W38441  13.643  12.278   7.188 -0.0986  0.2120 -0.0949
    1W        W38442  18.081   8.698   8.463  0.1171  0.2847  0.2765
    1W        W38443  15.186   5.369   8.374 -0.2313 -0.1594  0.6210
    1W        W38444   7.061  13.766   8.063  0.0902  0.2174  0.1939
    1W        W38445  21.777  24.563   7.549 -0.0426 -0.0904  0.1926
    1W        W38446  29.307  16.632   1.017  0.0474 -0.1869  0.0674
    1W        W38447  24.812   5.618   7.836  0.1798 -0.0300  0.0095
    1W        W38448  21.861  27.647   9.408 -0.0984 -0.1973  0.1642
    1W        W38449   4.170   7.399   8.965 -0.0018  0.2516 -0.0809
    1W        W38450  27.251   8.935   2.274 -0.1434  0.2540 -0.2131
    1W        W38451  10.987   2.743   2.211 -0.1509  0.1321 -0.3144
    1W        W38452   2.468  12.714   1.435 -0.3905  0.2867 -0.1775
    1W        W38453  19.129  26.243   2.920  0.2972  0.1781 -0.0338
    1W        W38454  23.422   2.502   2.679 -0.4536 -0.2622 -0.0209
    1W        W38455   9.937   8.603   2.023 -0.0553 -0.4270  0.0820
    1W        W38456   5.701   6.233   7.151  0.0682  0.0692 -0.0322
    1W        W38457  26.329  25.655   1.848  0.2437  0.1457  0.0598
    1W        W38458  21.846  19.364   2.377 -0.1652  0.2597  0.1393
    1W        W38459  18.400  22.509   2.317 -0.0140 -0.1248  0.0267
    1W        W38460  18.673  24.541   8.156  0.2440  0.1982 -0.0004
    1W        W38461  23.791  25.318   1.360  0.0576  0.0223 -0.0711
    1W        W38462  23.540  29.749   2.968  0.2014 -0.2061  0.1880
    1W        W38463  29.769   9.768   0.322  0.0606 -0.0775  0.0294
    1W        W38464   2.064   8.701   1.796  0.3803 -0.0351  0.0352
    1W        W38465  29.154  13.705   8.744 -0.3730 -0.1159  0.2795
    1W        W38466   6.069   7.913   9.349  0.1146 -0.0801  0.1206
    1W        W38467  18.455   6.693   7.327  0.0406 -0.0873 -0.0034
    1W        W38468  24.710  18.389   2.812  0.0993  0.2158 -0.1087
    1W        W38469   3.432  13.569   7.841  0.0127 -0.0873 -0.0008
    1W        W38470   3.817   4.881   7.154  0.0284  0.1408 -0.1188
    1W        W38471   6.361  29.701   0.763  0.1652 -0.2136  0.0680
    1W        W38472  24.190  17.231   2.286 -0.1395  0.1453 -0.1354
    1W        W38473  19.607  18.603   7.950  0.0744  0.3148 -0.0826
    1W        W38474  29.333  13.623   1.401  0.1046 -0.1337 -0.0235
    1W        W38475   2.555  26.262   9.113  0.3463  0.1741 -0.1010
    1W        W38476  18.510  21.630   2.779  0.0032  0.1371  0.1292
    1W        W38477   8.084  27.684   1.658  0.0777  0.0038 -0.2273
    1W        W38478   3.158   3.753   0.105 -0.0061  0.0979 -0.0352
    1W        W38479  15.105  18.764   1.634 -0.0829  0.0666  0.1902
    1W        W38480  29.624  19.252   8.041  0.2397 -0.2525 -0.0121
    1W        W38481   6.905  24.125   6.801  0.0557 -0.0577  0.0001
    1W        W38482   8.763  24.045   1.472  0.5075 -0.0937 -0.0946
    1W        W38483  17.507  21.547   1.966 -0.0796  0.1416 -0.4575
    1W        W38484  22.088   3.504   2.080  0.0147  0.0463  0.1127
    1W        W38485  14.756  15.290   7.175  0.2521 -0.3104 -0.0988
    1W        W38486   8.054   9.076   3.403  0.1076 -0.0438 -0.1851
    1W        W38487   9.154  22.531   6.994  0.2440 -0.0373 -0.0412
    1W        W38488  10.242  29.418   0.765  0.0074 -0.1250  0.0688
    1W        W38489   9.996  26.390   6.018  0.0509 -0.0410 -0.2523
    1W        W38490   8.443   9.732   1.799  0.1344 -0.0444  0.1212
    1W        W38491  27.802   4.135   2.087  0.0500 -0.1168 -0.0899
    1W        W38492  26.113  20.873   9.128  0.1834  0.0467  0.0709
    1W        W38493   7.249  26.172   7.671 -0.1447  0.2885 -0.0269
    1W        W38494  15.983   6.949   1.801 -0.1059  0.2583  0.0759
    1W        W38495  10.671  25.456   6.678  0.1336  0.2417  0.0251
    1W        W38496   6.119  14.102   1.077 -0.3604 -0.1740  0.3880
    1W        W38497  10.438   5.143   4.063 -0.3671 -0.1191 -0.1974
    1W        W38498  17.490  20.342   9.419 -0.2179  0.2051 -0.0513
    1W        W38499   8.546  22.274   1.602 -0.2763 -0.0893  0.2181
    1W        W38500  26.383  12.050   8.829 -0.0742  0.2016  0.1353
    1W        W38501   6.316  27.924   6.638 -0.1092 -0.0853  0.0142
    1W        W38502  27.766  21.191   6.572 -0.0495  0.2666 -0.1638
    1W        W38503   5.402  22.069   6.512  0.0160  0.1722  0.1347
    1W        W38504  25.292  25.867   8.308  0.0093 -0.3990  0.1092
    1W        W38505   3.344  21.934   0.734  0.1861 -0.0089  0.0165
    1W        W38506  25.424   2.909   9.061  0.3409  0.0542 -0.0425
    1W        W38507   8.515   2.052   1.182 -0.1406  0.1844 -0.1501
    1W        W38508  28.647   5.633   9.266 -0.0652  0.1627  0.1682
    1W        W38509  21.333  10.564   7.674  0.0900  0.3138 -0.2684
    1W        W38510  29.641  18.747   9.180 -0.1777  0.0559  0.0889
    1W        W38511  16.602  21.135   0.789 -0.0029 -0.0916 -0.0695
    1W        W38512  21.649  12.383   1.947 -0.0182  0.1627  0.1378
    1W        W38513   6.654   3.149   1.849 -0.0302 -0.3007 -0.2695
    1W        W38514  20.073   9.858   9.303 -0.0184  0.1367  0.1057
    1W        W38515   0.111  22.986   2.732  0.1374  0.0673  0.0195
    1W        W38516  23.493  11.621   9.189 -0.0528  0.1638 -0.1872
    1W        W38517   1.345  16.576   1.263  0.2026  0.0036  0.0608
    1W        W38518  25.129   9.379   3.000 -0.1494  0.3183  0.3693
    1W        W38519   8.632   8.647   1.217 -0.0258  0.0571  0.2359
    1W        W38520  20.379  23.806   2.113  0.1146  0.3208  0.0209
    1W        W38521  14.256   3.938   2.566 -0.0676 -0.0121 -0.1787
    1W        W38522  23.387  12.987   8.987 -0.3710  0.3306 -0.1444
    1W        W38523  25.222  10.426   2.607 -0.3573 -0.2239  0.1212
    1W        W38524  28.807  26.163   8.613  0.0661  0.0793  0.0716
    1W        W38525  26.490  16.686   8.111  0.1011  0.1588  0.0340
    1W        W38526  26.052  12.090   6.729  0.2772 -0.1212 -0.1391
    1W        W38527   2.583   1.453   8.194 -0.0067 -0.2231  0.0177
    1W        W38528   1.122  21.989   9.095 -0.0171 -0.0598  0.0404
    1W        W38529   9.156   6.580   1.692  0.1828 -0.0460 -0.0764
    1W        W38530  15.355  23.591   2.757  0.2485 -0.2949 -0.1175
    1W        W38531  27.706   8.299   8.638  0.3013 -0.1231 -0.0718
    1W        W38532  17.268   7.901   8.834  0.4454  0.1666  0.2928
    1W        W38533  18.451  12.440   0.087 -0.3401 -0.0330 -0.0534
    1W        W38534   6.775  16.603   8.286  0.1212 -0.1041  0.1335
    1W        W38535  26.267  11.349   5.968 -0.1332 -0.0485 -0.1135
    1W        W38536   5.974   5.664   6.349  0.1456  0.1299 -0.1888
    1W        W38537  18.057  15.795   0.141  0.1231 -0.0839  0.1030
    1W        W38538  22.632  10.585   2.034  0.1186  0.0167  0.0048
    1W        W38539  13.135   2.149   3.361  0.0848  0.0470  0.0502
    1W        W38540   3.906  13.149   2.007 -0.1759  0.2256 -0.2251
    1W        W38541  10.635  24.144   8.729  0.3741 -0.2757 -0.1918
    1W        W38542  10.941  19.032   1.098  0.0211  0.1166  0.1487
    1W        W38543  18.448   7.104   2.381 -0.1864 -0.4049  0.2083
    1W        W38544  14.304   0.521   8.150  0.0531 -0.0951  0.0962
    1W        W38545  27.543  13.180   8.004  0.1362  0.2722 -0.0535
    1W        W38546  21.835  22.635   3.821  0.1958 -0.0411  0.0311
    1W        W38547  22.706  28.872   7.070  0.1030  0.2889  0.3382
    1W        W38548   6.501  28.254   8.070  0.2007 -0.1504  0.1108
    1W        W38549  24.880  11.125   7.013 -0.1209  0.0644  0.3034
    1W        W38550  15.397   7.570   8.243 -0.1206  0.4118  0.1035
    1W        W38551  24.254  23.880   0.442  0.0800  0.0046 -0.0053
    1W        W38552  23.396   1.031   8.995  0.0648  0.0491  0.0344
    1W        W38553  24.324  10.392   6.611 -0.1010  0.0327 -0.0718
    1W        W38554   9.600  25.041   0.546 -0.1715  0.1369  0.1797
    1W        W38555  23.860   3.293   7.422 -0.2185  0.3512 -0.1367
    1W        W38556   6.970  10.943   1.842 -0.0034 -0.2641  0.2290
    1W        W38557  22.758   0.835   2.318 -0.0738 -0.0428 -0.0743
    1W        W38558  16.893  29.689   0.059  0.0042  0.1952 -0.2170
    1W        W38559  27.804   9.886   6.874  0.2425  0.0139  0.0989
    1W        W38560  16.383  16.836   1.569  0.2767 -0.0419 -0.2023
    1W        W38561  28.819  23.552   7.533 -0.0291 -0.2008  0.1036
    1W        W38562  21.212  28.335   3.101 -0.1441 -0.0248 -0.1769
    1W        W38563  14.269   6.118   7.775 -0.4904  0.3133  0.0542
    1W        W38564   3.716  20.039   5.992 -0.0174  0.0889 -0.0696
    1W        W38565   3.956   9.572   8.340 -0.2026 -0.0985 -0.0739
    1W        W38566  25.869  10.116   6.749  0.2314 -0.0026 -0.1772
    1W        W38567  22.096  25.852   8.934 -0.0239 -0.1358  0.2739
    1W        W38568  19.085  23.892   9.187  0.1013 -0.0295 -0.3233
    1W        W38569  14.088  17.314   1.116 -0.1674  0.0224 -0.1461
    1W        W38570   3.396  26.189   7.794 -0.2139 -0.3342  0.0886
    1W        W38571  22.344   9.117   8.021  0.0441 -0.0193 -0.0566
    1W        W38572   3.798  21.919   6.761  0.0839  0.0316  0.1159
    1W        W38573  13.724  10.198   0.845  0.1678  0.2254  0.1403
    1W        W38574   2.393   7.054   2.288 -0.2526 -0.2009  0.0375
    1W        W38575  14.689  11.214   0.246 -0.0696  0.3503  0.1284
    1W        W38576   1.264  20.619   6.389 -0.0127 -0.0413  0.0994
    1W        W38577  21.017  11.112   6.296 -0.0557  0.1029 -0.1074
    1W        W38578  19.188   2.186   8.535 -0.0310 -0.1499 -0.3976
    1W        W38579   2.765  18.372   5.847 -0.3248 -0.1695 -0.1762
    1W        W38580  14.666   4.004   7.303 -0.1181 -0.1294  0.0962
    1W        W38581   3.772  11.501   1.207  0.0742 -0.0347 -0.0194
    1W        W38582   7.990  25.962   8.405  0.1072  0.2149 -0.1048
    1W        W38583  17.167  13.648   0.562  0.0191 -0.1544 -0.2192
    1W        W38584   9.685   5.265   2.925 -0.1754  0.1716  0.1989
    1W        W38585   8.527   8.668   9.113 -0.1322  0.2707 -0.0725
    1W        W38586  22.474   0.893   9.125  0.2630 -0.4079  0.2586
    1W        W38587  13.996  18.735   7.732 -0.2204 -0.2851  0.0106
    1W        W38588   6.693  10.232   7.311 -0.1099  0.0494 -0.1253
    1W        W38589  20.618  27.117   7.697  0.2616 -0.0196  0.0731
    1W        W38590   5.171  19.792   6.846 -0.0175 -0.1561 -0.2598
    1W        W38591  29.691   5.109   0.327 -0.0712 -0.0158 -0.0687
    1W        W38592  15.324  25.011   1.977  0.0095 -0.0404  0.0864
    1W        W38593   9.312   6.218   8.131 -0.1154 -0.1673 -0.0778
    1W        W38594  24.616  25.356   0.808 -0.3441  0.2460 -0.1418
    1W        W38595  25.675  19.223   2.492 -0.1353 -0.2494 -0.1213
    1W        W38596   2.434  15.237   1.984 -0.1320  0.1609  0.0030
    1W        W38597  26.558  10.283   1.309  0.0643  0.2055 -0.2234
    1W        W38598  24.682  14.095   9.126 -0.1000 -0.3326  0.0055
    1W        W38599   4.756   2.100   7.526  0.0643  0.0608 -0.2260
    1W        W38600  20.421  15.704   8.077  0.1105 -0.0317 -0.0285
    1W        W38601  18.072  11.821   1.281 -0.1064  0.0795 -0.0664
    1W        W38602  18.474   5.833   7.513 -0.4666 -0.2227 -0.1281
    1W        W38603  24.160  29.235   3.601  0.4785  0.0180 -0.4951
    1W        W38604  25.887  28.477   1.868 -0.1636 -0.2935  0.2129
    1W        W38605   1.008  29.101   8.806 -0.0751  0.0426 -0.2961
    1W        W38606  23.661   5.266   0.209 -0.0559 -0.1910  0.2342
    1W        W38607  24.585  27.873   2.324 -0.2036 -0.2065  0.0347
    1W        W38608  24.944   2.635   9.092  0.0981 -0.0865  0.1529
    1W        W38609  13.527   2.132   8.224 -0.0490  0.2283  0.2258
    1W        W38610  23.065  15.582   7.642  0.0088  0.0645  0.0330
    1W        W38611  29.427  20.564   0.664 -0.0450 -0.0488  0.2745
    1W        W38612   3.123  25.299   7.469 -0.2701  0.0010  0.0412
    1W        W38613   8.806   8.409   7.830  0.2417  0.0839  0.1097
    1W        W38614   1.555  14.307   0.142  0.0595 -0.1862  0.1157
    1W        W38615   8.053   1.109   0.162 -0.0055  0.0106  0.0035
    1W        W38616   5.072  29.871   7.282 -0.1966 -0.1530  0.0500
    1W        W38617   3.801   8.637   0.970 -0.1729 -0.0688  0.2459
    1W        W38618  10.641   7.738   2.315  0.2150 -0.0696 -0.0182
    1W        W38619  18.804  21.651   8.627  0.0673  0.0155  0.3497
    1W        W38620  11.099  10.403   7.603  0.5274  0.2473 -0.1633
    1W        W38621   0.945  10.890   1.887 -0.0842 -0.1248  0.3387
    1W        W38622   2.971  13.064   7.679 -0.1891  0.3121  0.0977
    1W        W38623  25.752   9.906   0.979  0.2784  0.0314  0.0261
    1W        W38624  26.955  25.757   6.744 -0.4759  0.0781 -0.1002
    1W        W38625  14.015   6.988   0.592  0.0032 -0.1232  0.2102
    1W        W38626   7.660  21.424   9.236 -0.1884  0.1586  0.0781
    1W        W38627  16.816   2.727   7.980 -0.1800  0.0854 -0.1825
    1W        W38628   3.964  28.182   8.146 -0.2490 -0.0223 -0.0200
    1W        W38629  20.542  29.419   9.442  0.0786  0.0628  0.1773
    1W        W38630   1.344  19.826   1.658 -0.1610 -0.0884 -0.1154
    1W        W38631   2.033  27.798   1.715 -0.1436  0.1605  0.1214
    1W        W38632   6.008  29.279   0.508 -0.0641  0.1236  0.1539
    1W        W38633  12.186  11.167   1.084 -0.0752 -0.0991  0.0882
    1W        W38634   0.012  29.554   7.823 -0.0410 -0.1656 -0.2115
    1W        W38635  10.357   9.060   7.994  0.0238 -0.4363 -0.0317
    1W        W38636  29.257  24.527   0.040  0.3108  0.2771  0.0068
    1W        W38637   9.801   1.855   3.738  0.2984  0.1838 -0.1471
    1W        W38638  13.085  17.222   8.787  0.0890 -0.0907 -0.1666
    1W        W38639  27.000   4.995   7.298 -0.0516  0.1748  0.0324
    1W        W38640  10.035   7.460   9.089  0.0144  0.0005 -0.2545
    1W        W38641   7.030  13.122   0.180  0.0520  0.0841  0.1063
    1W        W38642  16.586  23.308   1.865  0.0684 -0.1286 -0.0127
    1W        W38643  25.717  27.856   7.081 -0.1053  0.0163 -0.4171
    1W        W38644  25.435   7.248   3.243  0.2933 -0.0252 -0.0121
    1W        W38645  12.146  10.895   7.904 -0.0790  0.0300  0.0800
    1W        W38646   7.602  11.530   2.424  0.1221 -0.1483 -0.0000
    1W        W38647   6.972  22.055   6.295 -0.1609  0.0928  0.0344
    1W        W38648   9.959  29.648   0.375  0.0565  0.2005 -0.1200
    1W        W38649  15.986  28.682   2.760 -0.1351  0.2792 -0.1468
    1W        W38650  18.278  28.782   7.727  0.3320  0.1676 -0.1520
    1W        W38651  10.097   8.942   2.407 -0.0867  0.1078  0.1961
    1W        W38652  28.878   8.016   7.610 -0.0440  0.4504 -0.4708
    1W        W38653   2.219  19.573   8.784  0.3812 -0.0298  0.1828
    1W        W38654   3.263  23.031   0.925 -0.0224 -0.0797  0.2242
    1W        W38655  20.445   3.181   9.238  0.2253  0.4241  0.0119
    1W        W38656  16.642  26.793   0.337 -0.1184  0.3259 -0.0542
    1W        W38657  27.543  21.206   1.988 -0.2570 -0.3189 -0.2705
    1W        W38658  26.991  11.030   1.364 -0.3586 -0.2264  0.0254
    1W        W38659  14.272   7.568   1.429 -0.0877 -0.3105  0.1566
    1W        W38660  26.407  28.491   8.982 -0.3736 -0.0297 -0.1897
    1W        W38661  15.332  13.406   6.915  0.4396  0.1265  0.0378
    1W        W38662  17.825   5.733   2.250  0.2633  0.4214  0.2741
    1W        W38663   1.813  20.253   9.418  0.0083 -0.5102  0.0734
    1W        W38664  24.462  15.855   6.479 -0.0811 -0.0058 -0.1693
    1W        W38665  27.283   9.410   2.173  0.1140 -0.1047  0.0452
    1W        W38666  17.196  16.349   0.439 -0.1365 -0.1488 -0.0617
    1W        W38667  25.829  19.467   8.689  0.2657  0.0013  0.0227
    1W        W38668  22.437   0.327   1.313 -0.1140 -0.0618  0.0228
    1W        W38669   5.986   5.118   7.977  0.0938  0.0784 -0.2397
    1W        W38670  16.325  27.147   1.813  0.0703  0.2332 -0.0046
    1W        W38671  29.294  24.969   1.352 -0.4500 -0.0797 -0.1110
    1W        W38672  25.650  24.332   0.870 -0.1697  0.2535 -0.2586
    1W        W38673  23.786   5.308   1.779  0.0920 -0.4408  0.1311
    1W        W38674  27.236  19.303   1.449  0.1148  0.0249 -0.1506
    1W        W38675   8.913   2.215   0.161  0.2047 -0.0942 -0.0157
    1W        W38676  24.388  28.826   1.546 -0.1949 -0.1500 -0.1966
    1W        W38677   9.403  29.396   1.474 -0.2797  0.0706  0.0170
    1W        W38678   0.838   5.756   2.251  0.1419  0.0000 -0.1382
    1W        W38679  21.401   0.161   8.733  0.0115 -0.0635 -0.2186
    1W        W38680   2.153   5.498   6.440 -0.0623 -0.3670 -0.0092
    1W        W38681   4.182   9.097   8.313  0.0508 -0.2700 -0.4861
    1W        W38682  10.668  16.545   6.444  0.3484  0.0563  0.0333
    1W        W38683  27.612  27.677   6.770  0.0482 -0.4431  0.1187
    1W        W38684  20.277   7.605   1.505 -0.1665  0.1040  0.1172
    1W        W38685  22.127  16.784   1.140 -0.0405  0.0781 -0.1042
    1W        W38686  16.968   0.257   0.043  0.0353  0.1538  0.2699
    1W        W38687  21.586  28.565   7.150 -0.1404 -0.1387 -0.0597
    1W        W38688  29.660   7.212   0.168  0.2665 -0.0626  0.0176
    1W        W38689   5.522  13.470   7.946  0.0603  0.0839  0.0061
    1W        W38690  11.218  13.978   8.077 -0.0591  0.0849 -0.2061
    1W        W38691   3.627  16.495   7.565 -0.0573  0.1028  0.2300
    1W        W38692  11.560  22.546   1.524  0.1007 -0.1013  0.0798
    1W        W38693  23.961  10.219   7.344 -0.4504 -0.0866  0.1090
    1W        W38694  26.893  25.497   2.866  0.4327  0.0384 -0.1508
    1W        W38695  27.041  27.415   7.355  0.0569 -0.0281 -0.1025
    1W        W38696  17.450  18.266   8.680  0.0827  0.2474  0.1913
    1W        W38697   4.572   8.219   1.693 -0.1100  0.1466 -0.2682
    1W        W38698  24.819  20.729   6.953  0.2928 -0.2749 -0.3115
    1W        W38699  18.171  26.993   8.859  0.1476  0.0751 -0.0739
    1W        W38700  15.961  28.212   7.414  0.0034  0.3440 -0.2869
    1W        W38701  23.621  27.898   1.245 -0.1859  0.0724  0.1110
    1W        W38702  17.240   7.549   2.174  0.0542  0.0594 -0.3562
    1W        W38703  12.142  20.617   7.031  0.1475 -0.0176 -0.2805
    1W        W38704  14.318  22.061   1.281  0.1215 -0.1983  0.2046
    1W        W38705  29.777  22.704   1.964  0.1862 -0.0364 -0.1467
    1W        W38706  16.622   0.934   2.084  0.0523 -0.0983  0.1774
    1W        W38707   9.275   0.160   7.510  0.0151 -0.0882  0.1338
    1W        W38708  17.256   3.914   1.550  0.0441  0.1694 -0.1838
    1W        W38709  28.153   3.404   1.644 -0.2321 -0.2938 -0.1515
    1W        W38710  24.720   2.727   7.170 -0.1902 -0.2259 -0.1252
    1W        W38711  28.577  20.823   0.559  0.1512  0.2014  0.2057
    1W        W38712  17.152  10.693   1.207  0.1564 -0.0155  0.2036
    1W        W38713   4.130  24.705   8.848 -0.3921  0.2185 -0.0768
    1W        W38714  17.560   6.409   0.072  0.1222  0.0603 -0.0050
    1W        W38715   8.413  23.189   7.986 -0.0197  0.1240  0.0859
    1W        W38716   8.405   9.172   3.051 -0.0045  0.1185 -0.3594
    1W        W38717   0.987   0.667   0.859  0.1025 -0.0275 -0.1959
    1W        W38718  24.816  27.301   3.196  0.0220 -0.0286 -0.1733
    1W        W38719  22.048  10.986   7.275 -0.1142 -0.0319  0.1466
    1W        W38720  11.953  29.727   0.149 -0.0440  0.1719  0.0759
    1W        W38721  11.871  13.013   2.939  0.0993  0.0458  0.0640
    1W        W38722  21.035   1.524   7.105  0.0896 -0.4391  0.0158
    1W        W38723  14.467   0.132   9.195 -0.0856  0.1087  0.1040
    1W        W38724   1.826  25.848   6.065  0.0361 -0.0736  0.2853
    1W        W38725  21.907  13.118   6.744 -0.0375  0.0871 -0.1378
    1W        W38726   2.795   5.741   9.056 -0.1415 -0.0034 -0.1295
    1W        W38727  27.318  17.341   8.283  0.1525  0.0011 -0.2635
    1W        W38728  10.399  15.787   6.522  0.0508 -0.0719  0.1102
    1W        W38729  12.254  22.608   8.062 -0.0904  0.2711 -0.1414
    1W        W38730  26.257  21.879   8.511 -0.1600 -0.3546  0.0632
    1W        W38731   6.877  27.628   2.199  0.1197  0.1580  0.0485
    1W        W38732  11.087  12.115   2.280  0.1550  0.1688 -0.0162
    1W        W38733  19.015   8.270   7.348  0.0946 -0.0365 -0.2869
    1W        W38734   7.933   3.987   0.796 -0.0229  0.4427 -0.1809
    1W        W38735   6.381  10.716   9.341 -0.1120 -0.0916  0.2647
    1W        W38736  28.709  24.054   8.251  0.3343 -0.2517 -0.3738
    1W        W38737   9.546  19.023   8.086  0.1319 -0.0104  0.0837
    1W        W38738  19.930  16.207   1.659 -0.4334  0.1172  0.0249
    1W        W38739   9.297  16.767   8.716 -0.1856 -0.2304 -0.1509
    1W        W38740  10.468   9.090   9.273  0.1233  0.1177  0.3827
    1W        W38741  24.569   8.942   1.880  0.1192 -0.0371 -0.0402
    1W        W38742  28.469   3.434   7.621  0.3151  0.3515  0.2113
    1W        W38743  28.494  19.206   6.931  0.0631 -0.2816  0.0800
    1W        W38744   4.983  29.599   8.088 -0.0869 -0.3741 -0.2976
    1W        W38745  15.643  25.763   2.600  0.0704 -0.1037  0.0362
    1W        W38746   5.540  20.065   1.156 -0.0106  0.2576 -0.0893
    1W        W38747  27.561  27.744   1.833  0.1420  0.1035  0.2354
    1W        W38748  18.260  21.294   0.483 -0.1046 -0.0636 -0.1113
    1W        W38749  25.792  10.638   1.961  0.1776 -0.1338  0.0641
    1W        W38750  24.912  10.343   7.800  0.1133 -0.0486 -0.0001
    1W        W38751  14.727   6.084   9.321 -0.0813 -0.1180  0.1425
    1W        W38752  24.298  10.705   1.240  0.5119 -0.1139  0.0946
    1W        W38753  22.859   7.418   3.016 -0.0557 -0.1713  0.1719
    1W        W38754  26.989  26.373   8.350  0.3021 -0.0891 -0.1420
    1W        W38755  20.160  27.424   3.006  0.2475 -0.1946  0.2307
    1W        W38756  19.680  17.534   0.528  0.3336 -0.1615  0.1599
    1W        W38757  25.861  15.871   0.521  0.0799 -0.1516  0.0693
    1W        W38758  23.104   7.576   3.437 -0.0532 -0.1717 -0.3033
    1W        W38759  29.624  13.508   8.747 -0.1096 -0.1072 -0.0533
    1W        W38760  19.204   9.634   0.135  0.0495 -0.1913 -0.2634
    1W        W38761  19.456  24.045   2.962  0.2678 -0.2415  0.2652
    1W        W38762  24.779   2.749   2.505  0.2336  0.0144 -0.0375
    1W        W38763  20.597  17.186   7.949 -0.1571 -0.0630  0.2410
    1W        W38764  26.287  20.283   1.957  0.0580 -0.1582  0.0469
    1W        W38765  14.325  29.257   1.883 -0.2315  0.0483 -0.0081
    1W        W38766  28.680  18.385   1.952  0.2912 -0.0144  0.0147
    1W        W38767   3.377  27.122   1.582  0.1935  0.3675 -0.1425
    1W        W38768   8.653  20.336   1.119 -0.1830  0.1583 -0.2116
    1W        W38769   0.735  11.386   2.319  0.0803 -0.1396 -0.3854
    1W        W38770   1.201  19.091   7.860 -0.2042  0.0102 -0.0782
    1W        W38771   0.399  14.918   5.989  0.0793  0.1969  0.0729
    1W        W38772  20.033   3.358   0.131  0.2120  0.5534  0.1405
    1W        W38773   4.446  16.169   8.561 -0.0857  0.1023  0.0736
    1W        W38774  29.180  26.494   2.302 -0.0713 -0.0056  0.0071
    1W        W38775  17.034  24.863   7.752  0.0177  0.1372  0.2465
    1W        W38776  28.044  24.129   7.340  0.0081  0.1286 -0.1501
    1W        W38777  25.233   9.679   1.040 -0.1328  0.0216  0.2893
    1W        W38778  22.568  22.176   1.392  0.0552  0.1732  0.1159
    1W        W38779  15.586   7.646   7.476 -0.1123  0.1545 -0.0206
    1W        W38780  17.695   9.545   2.558  0.1495  0.3451 -0.1949
    1W        W38781  19.297  10.015   8.380  0.1629 -0.1850 -0.0267
    1W        W38782  27.346  12.165   8.152 -0.0294  0.2015 -0.1731
    1W        W38783   7.169  28.297   3.890 -0.0818  0.3041  0.0791
    1W        W38784   3.210  22.186   0.214 -0.0379 -0.0103  0.0299
    1W        W38785  11.896  26.355   7.215  0.2066  0.2758 -0.3132
    1W        W38786  20.543   1.740   2.125  0.3293 -0.3412  0.0992
    1W        W38787   3.487   4.275   8.804  0.1425  0.0936 -0.0338
    1W        W38788  13.773  21.923   1.428 -0.1648  0.2336 -0.0650
    1W        W38789  28.823   0.679   0.199 -0.2444  0.0674  0.0200
    1W        W38790   7.090  12.988   8.765 -0.2611 -0.0160  0.3695
    1W        W38791  18.177  26.063   1.301 -0.2952 -0.2809  0.4184
    1W        W38792  11.428  25.632   8.805 -0.0777 -0.2692 -0.0779
    1W        W38793   0.706  12.719   7.635 -0.0399 -0.0691  0.0141
    1W        W38794   5.874   5.054   8.931 -0.0200  0.0933  0.1379
    1W        W38795  13.703   8.134   8.517  0.1447  0.0035  0.1773
    1W        W38796   2.403   2.713   8.563 -0.4199 -0.2904  0.2547
    1W        W38797  27.065   4.222   6.138 -0.1343  0.0848  0.1481
    1W        W38798  19.199  14.899   8.031  0.2767 -0.0967  0.0119
    1W        W38799   7.937  28.516   7.469  0.0976  0.1489 -0.3662
    1W        W38800   6.189  23.810   1.714 -0.1926 -0.0963  0.1352
    1W        W38801   5.226  28.051   1.773 -0.0768 -0.0424  0.1879
    1W        W38802  17.523  11.457   6.506  0.1313  0.1503  0.1977
    1W        W38803  11.199  20.316   7.053 -0.0620  0.1198 -0.3125
    1W        W38804  18.906  20.357   9.375 -0.0636  0.1143 -0.2227
    1W        W38805   2.843  22.269   9.331 -0.1265 -0.0240 -0.1041
    1W        W38806  29.150  26.571   8.380  0.0958 -0.2879 -0.2653
    1W        W38807   9.419   2.903   3.795 -0.1535 -0.0261 -0.1307
    1W        W38808  19.797   2.139   1.561  0.3235 -0.0916 -0.1637
    1W        W38809  16.122  17.294   1.476  0.1266 -0.1161  0.1284
    1W        W38810  25.924  27.218   6.450  0.1636  0.0724 -0.2432
    1W        W38811  15.594   2.313   8.117  0.1661 -0.1856  0.0900
    1W        W38812   2.504  18.662   8.821  0.1262 -0.1444 -0.0514
    1W        W38813  25.903  12.640   7.172  0.0395  0.0819 -0.0777
    1W        W38814   6.038  22.130   6.200  0.1254  0.0327 -0.1345
    1W        W38815  25.832  29.045   1.168 -0.2634  0.1329  0.1660
    1W        W38816   9.600   3.600   8.217  0.0855  0.1120 -0.0264
    1W        W38817  13.238  26.092   3.143 -0.0851  0.0250 -0.0273
    1W        W38818  22.321   3.697   2.488  0.0672 -0.0260 -0.1704
    1W        W38819  22.039   9.725   9.075  0.3074  0.1121 -0.0104
    1W        W38820  22.857   2.945   3.027  0.2140  0.1579 -0.0117
    1W        W38821  11.253  17.652   8.367  0.0270  0.2908 -0.2028
    1W        W38822  23.658  17.583   7.781 -0.2664  0.1665  0.2068
    1W        W38823  13.053  16.795   1.459  0.1083  0.0266 -0.2405
    1W        W38824  15.563  13.024   7.165  0.0795  0.0682 -0.2468
    1W        W38825  23.022  22.196   2.654  0.3433 -0.0755 -0.2803
    1W        W38826  19.565  18.593   7.073  0.0815  0.1551 -0.1291
    1W        W38827  11.033   5.190   2.888  0.1239  0.0599  0.0405
    1W        W38828   2.842  23.155   0.329 -0.0772 -0.2857 -0.0493
    1W        W38829   4.534  27.053   0.732  0.0128  0.1824  0.2008
    1W        W38830  11.758  17.449   2.589  0.1549 -0.2057 -0.0009
    1W        W38831  16.850   8.473   7.883 -0.2393 -0.1732  0.0564
    1W        W38832   2.181  24.497   6.543  0.0771 -0.1265 -0.1291
    1W        W38833   1.054  25.723   0.863 -0.3735  0.3242 -0.4039
    1W        W38834  23.472  18.583   8.983 -0.1406 -0.0100  0.1724
    1W        W38835  23.963  10.214   8.879 -0.3245  0.2456 -0.1601
    1W        W38836  19.790   6.932   2.505  0.2192  0.3084 -0.1248
    1W        W38837  20.945  24.104   8.492 -0.1076  0.1741 -0.0954
    1W        W38838   5.595  12.753   0.806  0.2030  0.0293  0.0421
    1W        W38839  22.051   0.603   9.315  0.1192  0.1268 -0.1159
    1W        W38840  15.049  17.834   7.895 -0.2807  0.3085  0.0881
    1W        W38841  25.416   4.009   1.247 -0.0126 -0.0497 -0.0905
    1W        W38842  27.537  25.284   8.103 -0.0337  0.0663  0.0353
    1W        W38843   9.622   6.970   3.620  0.0309  0.0694 -0.1935
    1W        W38844  11.139   7.763   7.402  0.0683 -0.0353 -0.0027
    1W        W38845   9.283  15.933   8.273  0.2760 -0.0814 -0.1572
    1W        W38846   2.640   1.606   7.748  0.0647 -0.0282  0.2959
    1W        W38847   3.019  25.780   7.578 -0.0393 -0.2735  0.2204
    1W        W38848  28.626  24.321   2.002 -0.0186 -0.1509 -0.2751
    1W        W38849  29.176  27.030   1.416 -0.1530  0.4345  0.0071
    1W        W38850  13.201  24.596   8.820 -0.1005  0.1055 -0.1316
    1W        W38851   1.849  21.328   7.786  0.2244 -0.2271 -0.1619
    1W        W38852   4.454  12.126   0.943 -0.2196  0.2446  0.1343
    1W        W38853   4.976  14.981   6.728 -0.2997 -0.0601  0.2027
    1W        W38854  20.579  24.097   0.476  0.0444 -0.2634  0.4774
    1W        W38855  20.600  13.696   8.632 -0.0305  0.0860 -0.2488
    1W        W38856   4.933   6.677   9.358  0.0833 -0.0943  0.3796
    1W        W38857  10.975   0.508   6.842  0.2844  0.1815  0.2851
    1W        W38858   6.492  10.800   1.977  0.2176 -0.3720 -0.2804
    1W        W38859  10.962  10.236   1.140  0.1454  0.0348  0.1399
    1W        W38860  18.085  27.721   6.832 -0.0658 -0.0578  0.0400
    1W        W38861   1.411  15.724   7.349  0.0231  0.0372  0.1030
    1W        W38862  14.191  22.880   1.568 -0.1877  0.0301  0.1677
    1W        W38863  12.218  19.804   7.575  0.0481  0.0435 -0.0233
    1W        W38864   8.961  19.993   1.249  0.0288  0.0264  0.1344
    1W        W38865  24.818   6.466   1.473 -0.0946 -0.0570  0.2484
    1W        W38866  12.287   1.046   2.112 -0.0010 -0.1475  0.0552
    1W        W38867  28.537  18.338   1.191 -0.3126  0.2748 -0.0375
    1W        W38868   2.585  10.253   6.717  0.4274  0.0334  0.1489
    1W        W38869   0.843  26.000   8.710 -0.2425  0.2054 -0.0484
    1W        W38870  13.621   8.213   7.511  0.1527 -0.1662  0.0211
    1W        W38871  27.034  24.425   7.085  0.0471  0.2428 -0.2050
    1W        W38872  16.479  28.395   7.524  0.2095  0.0020 -0.2210
    1W        W38873  24.523   1.617   7.875 -0.0789 -0.1311 -0.3061
    1W        W38874   6.530  24.047   6.490  0.1796 -0.1847 -0.0257
    1W        W38875  20.935  17.223   8.369 -0.2709 -0.1026  0.4004
    1W        W38876  23.865   1.314   1.422  0.3831  0.1916  0.0343
    1W        W38877  13.095   2.651   3.283  0.1129  0.0602  0.2492
    1W        W38878  12.734   8.350   7.593 -0.1620  0.1147  0.2425
    1W        W38879   1.333  15.079   5.645  0.1943 -0.2340  0.0655
    1W        W38880  23.092   7.842   6.442  0.1287 -0.1012 -0.0489
    1W        W38881   9.354  12.539   7.428 -0.4277  0.0798 -0.2429
    1W        W38882   4.529   2.265   1.029 -0.1277 -0.0499  0.0859
    1W        W38883  27.117  16.747   7.212  0.0944  0.1323  0.2401
    1W        W38884  26.307  11.191   7.072 -0.4407  0.0686  0.0472
    1W        W38885   9.554   1.319   3.327 -0.0599 -0.2818  0.2696
    1W        W38886  15.860  29.874   0.836  0.3531  0.3225  0.3294
    1W        W38887  14.158  25.852   0.627  0.0669  0.0999  0.1730
    1W        W38888  25.940  25.025   8.856 -0.0748  0.1137  0.1804
    1W        W38889  28.562  13.564   6.679 -0.1466 -0.3324  0.0048
    1W        W38890  19.520  27.460   7.623 -0.2121 -0.2441 -0.2722
    1W        W38891  22.440   4.678   0.496 -0.1532  0.1368  0.0105
    1W        W38892  27.519  10.803   8.007  0.2345 -0.1899  0.0919
    1W        W38893  13.791  19.842   1.673  0.2180  0.2492  0.0865
    1W        W38894   9.513   2.727   2.755 -0.0108 -0.3484  0.0753
    1W        W38895   2.968   3.649   8.196  0.0146  0.1342 -0.0615
    1W        W38896  24.962   4.168   1.415  0.0660  0.1041  0.1748
    1W        W38897  11.261   2.553   8.091 -0.1896  0.2623 -0.1520
    1W        W38898  17.982  22.305   8.555 -0.1355  0.5916  0.4675
    1W        W38899  12.677  10.225   7.625 -0.1455 -0.1346  0.2673
    1W        W38900  21.036  26.665   0.835 -0.0002 -0.0141  0.0619
    1W        W38901   0.804  25.882   5.893  0.0473 -0.0948 -0.0060
    1W        W38902  20.509  27.425   1.185 -0.1606  0.0837  0.0314
    1W        W38903  13.203  19.053   9.042 -0.2175  0.0030  0.0018
    1W        W38904  18.025  17.716   2.167  0.1443  0.1657 -0.1625
    1W        W38905  27.593   7.496   0.845  0.0218  0.0598  0.0404
    1W        W38906   4.972  25.678   1.946 -0.0874  0.1912  0.0618
    1W        W38907   2.895   3.056   0.681  0.2363  0.0078  0.2602
    1W        W38908   8.690   2.785   2.094  0.0740 -0.1369 -0.0326
    1W        W38909  13.623  14.114   7.739 -0.2084 -0.1836 -0.1056
    1W        W38910  21.665   7.915   0.936  0.0932 -0.1356  0.1546
    1W        W38911  10.589  12.135   2.011 -0.0294  0.1537  0.0160
    1W        W38912  19.297  13.666   1.833 -0.0640 -0.0951  0.1728
    1W        W38913  13.371   3.475   8.386  0.4113 -0.2697  0.3308
    1W        W38914  26.080   6.567   0.774  0.2535 -0.0464 -0.3427
    1W        W38915  16.937  20.117   0.392 -0.1888 -0.2420 -0.1148
    1W        W38916  10.877  12.961   2.036 -0.0479  0.0843 -0.1136
    1W        W38917  14.250  12.889   9.238  0.1831  0.0935  0.1353
    1W        W38918  15.164  18.606   9.206 -0.0107  0.1790  0.3293
    1W        W38919   4.525  13.700   8.144 -0.1210  0.2080  0.0427
    1W        W38920  29.211  22.698   8.882  0.0311  0.2182 -0.0081
    1W        W38921  19.970  24.630   7.461  0.1284  0.5875  0.3141
    1W        W38922  20.815   9.556   7.796  0.0448  0.0545  0.2405
    1W        W38923   8.845   4.614   2.258  0.0075  0.1259  0.1534
    1W        W38924  24.841  11.286   9.282  0.0148  0.1979 -0.0274
    1W        W38925  20.893  20.346   0.787  0.0637 -0.1764  0.0032
    1W        W38926  12.759  22.093   9.096  0.0641  0.2937 -0.1581
    1W        W38927  28.559  29.518   0.981 -0.1473  0.0758  0.1560
    1W        W38928   6.518   8.013   1.363  0.0593  0.0070 -0.1238
    1W        W38929   7.226  11.613   3.204 -0.0905  0.1665  0.0867
    1W        W38930  23.005   4.227   7.151  0.2160 -0.0198  0.1914
    1W        W38931   6.764  12.339   6.726  0.1580 -0.0597  0.0706
    1W        W38932   9.643  19.098   6.908 -0.0048  0.1061  0.0690
    1W        W38933  18.929   6.401   8.042  0.0115 -0.1790  0.1277
    1W        W38934   4.196  25.160   9.196  0.2350 -0.0046 -0.2233
    1W        W38935  14.166  19.196   7.819  0.0671 -0.3716 -0.1935
    1W        W38936  16.187  27.665   2.975 -0.4359  0.0960  0.2434
    1W        W38937  12.822   5.594   1.069 -0.4289 -0.0829 -0.1306
    1W        W38938  25.770  16.914   9.358 -0.0279 -0.1792  0.2356
    1W        W38939  29.493  16.970   8.904 -0.1221  0.4162  0.2874
    1W        W38940   1.785  11.968   2.290 -0.1964  0.0527  0.2621
    1W        W38941  11.982   0.919   2.582 -0.0746  0.3279 -0.0176
    1W        W38942   9.182  23.452   7.862 -0.1677  0.0915  0.0479
    1W        W38943   1.231  10.816   2.295 -0.1150  0.1050 -0.3527
    1W        W38944   8.706   5.789   2.916  0.1020 -0.2798  0.1057
    1W        W38945  15.046  21.076   1.364 -0.2633  0.0033 -0.0083
    1W        W38946  26.594   6.047   0.308 -0.1157  0.1744 -0.1218
    1W        W38947  18.917   2.294   1.129 -0.1594  0.0880 -0.2753
    1W        W38948  10.592   9.870   1.905 -0.0698 -0.1629  0.2050
    1W        W38949  17.390  29.173   1.747 -0.1267  0.0210 -0.0323
    1W        W38950   2.471  18.943   1.856  0.0564  0.3974  0.3092
    1W        W38951  22.508   3.331   0.238  0.0561  0.0149  0.2145
    1W        W38952   6.373   3.019   1.137 -0.1068 -0.0114 -0.0278
    1W        W38953  18.754   0.278   2.258  0.1058 -0.0222 -0.1924
    1W        W38954  28.310  19.506   1.992  0.0499 -0.4734  0.0854
    1W        W38955   2.898  16.131   1.794 -0.1644  0.0093 -0.2667
    1W        W38956   2.872  23.815   6.544  0.0015  0.0809 -0.3326
    1W        W38957  13.535  19.057   0.727  0.0441  0.3499 -0.2064
    1W        W38958   0.719  14.777   8.245 -0.1376 -0.1330 -0.0776
    1W        W38959  12.448  22.983   6.681 -0.1803 -0.0530  0.1050
    1W        W38960  11.953  12.451   0.455  0.2860  0.1703  0.0728
    1W        W38961  27.209  21.147   6.523 -0.1254  0.0025  0.1721
    1W        W38962  18.189  26.550   0.558 -0.1656 -0.0989 -0.1616
    1W        W38963  18.508  16.671   9.334 -0.1217 -0.0049 -0.0513
    1W        W38964   7.773  12.313   3.059 -0.1700 -0.0314  0.0554
    1W        W38965  18.932   4.622   6.766 -0.1334 -0.1761  0.2340
    1W        W38966   8.424   1.331   1.420  0.0704 -0.1186  0.0983
    1W        W38967   1.481  24.136   1.704 -0.2197  0.1228  0.2008
    1W        W38968  25.574  23.928   1.767  0.0330 -0.0136  0.0480
    1W        W38969  29.342   8.390   7.390 -0.2667  0.2071  0.1149
    1W        W38970  28.076  14.149   7.132 -0.2270  0.1645 -0.0764
    1W        W38971   4.649  16.193   9.058  0.2120 -0.0949  0.0288
    1W        W38972  28.181   8.358   1.380 -0.0380  0.0506 -0.0840
    1W        W38973  12.769  25.330   2.517 -0.0068  0.0015 -0.0084
    1W        W38974  23.559  29.314   8.986 -0.0024 -0.1639  0.1308
    1W        W38975  10.082  21.222   7.701  0.2075 -0.3330 -0.0545
    1W        W38976   1.251  14.522   6.891  0.2516  0.2168 -0.0771
    1W        W38977  23.011  23.155   2.084  0.1847  0.1448  0.1051
    1W        W38978  27.488  15.736   1.399 -0.0106  0.0816  0.0290
    1W        W38979  22.332  19.336   1.489 -0.0381 -0.1367 -0.1473
    1W        W38980  10.306  12.496   7.663 -0.0997  0.0314  0.0050
    1W        W38981  14.004  28.347   8.250 -0.1185 -0.1731  0.1514
    1W        W38982   6.838  29.009   1.042 -0.4046 -0.2772  0.2102
    1W        W38983  17.622   5.705   3.150  0.0539 -0.0737  0.2446
    1W        W38984  29.861   2.560   1.737  0.1338 -0.1778  0.0944
    1W        W38985  21.467  16.515   8.948  0.2626  0.0257  0.1314
    1W        W38986  20.201  29.077   8.392  0.0099  0.2678 -0.3001
    1W        W38987   4.735  24.436   8.924  0.1750 -0.1910 -0.0589
    1W        W38988  24.304  14.615   1.407 -0.4967  0.0514 -0.0967
    1W        W38989  10.770   6.237   8.289  0.0769  0.2747  0.1790
    1W        W38990  25.704   4.140   2.552  0.0200 -0.1203 -0.0858
    1W        W38991  16.962  11.978   0.165  0.1838 -0.1235 -0.2543
    1W        W38992   7.304   6.645   7.680 -0.0657  0.0534  0.0479
    1W        W38993  14.846  20.460   7.224  0.1777 -0.0359  0.0358
    1W        W38994   4.432   9.432   7.299  0.1772  0.1494 -0.3108
    1W        W38995  17.084   3.799   7.096 -0.0550  0.0329  0.1878
    1W        W38996   5.118  23.342   9.032 -0.1910 -0.0710  0.1765
    1W        W38997   9.611  20.855   9.223 -0.2926  0.0165  0.2838
    1W        W38998   8.896   5.952   0.834  0.1712  0.0667 -0.1046
    1W        W38999   7.745   1.889   7.658 -0.1135  0.2867 -0.2868
    1W        W39000   2.764  10.411   0.639  0.4088  0.2435  0.0634
    1W        W39001   3.117  11.662   1.672 -0.1399  0.2243 -0.0141
    1W        W39002  15.975  26.090   8.833 -0.0094 -0.0462 -0.1663
    1W        W39003  24.876  13.943   1.119  0.1215  0.1825 -0.0185
    1W        W39004   2.744  19.314   6.410  0.0334 -0.2938  0.1605
    1W        W39005  29.609  20.937   6.831  0.0269  0.2690  0.3592
    1W        W39006  19.237  20.758   1.954 -0.1370 -0.0352  0.1766
    1W        W39007  24.896   9.815   1.531 -0.1279 -0.1030 -0.0125
    1W        W39008   8.833   4.693   8.368  0.1186  0.1165  0.1755
    1W        W39009  16.337  15.685   8.513  0.3669 -0.0797  0.0134
    1W        W39010  19.749  15.362   0.454  0.1415  0.2699 -0.3384
    1W        W39011  14.701  27.631   1.130 -0.1255  0.1481 -0.3171
    1W        W39012   3.038   8.377   9.282  0.0888  0.1669 -0.2162
    1W        W39013  22.153   6.781   2.776 -0.1225  0.0329 -0.3753
    1W        W39014  18.548  13.287   8.522 -0.1483 -0.1000  0.2909
    1W        W39015  18.381  12.844   8.481  0.0380 -0.0027 -0.1304
    1W        W39016   7.076  19.301   1.012  0.0508 -0.0309  0.1561
    1W        W39017  12.161  15.865   2.031  0.1260  0.0447 -0.0638
    1W        W39018   8.590   0.485   2.154 -0.0478 -0.1262  0.1108
    1W        W39019  29.226  25.914   3.223 -0.3090  0.3934  0.0493
    1W        W39020   3.546  25.925   7.252  0.2225 -0.2526  0.3239
    1W        W39021  15.234   5.581   8.862  0.0838 -0.1054 -0.0838
    1W        W39022  17.771  12.136   2.726 -0.0372 -0.0946  0.3098
    1W        W39023  13.658  27.911   8.238  0.2926 -0.0700 -0.3482
    1W        W39024  19.333  17.868   8.783  0.0805  0.1367  0.1749
    1W        W39025  25.590  23.834   7.637 -0.2300  0.0839 -0.0133
    1W        W39026  14.075   6.156   8.621  0.1470 -0.1160  0.4050
    1W        W39027   5.613  29.895   7.442  0.0782 -0.2237  0.3310
    1W        W39028  25.284   3.670   8.714 -0.2026 -0.2304 -0.0133
    1W        W39029   9.956  10.321   9.443  0.2466  0.0404 -0.3214
    1W        W39030  15.624  23.281   1.403  0.2904 -0.4614 -0.0054
    1W        W39031   7.038  20.643   8.212  0.0338 -0.2523 -0.2766
    1W        W39032   1.213  15.019   7.044 -0.3480  0.3952 -0.0121
    1W        W39033  12.381  17.920   7.844 -0.2329 -0.1323  0.1701
    1W        W39034  25.194  15.011   7.181 -0.0017  0.2697 -0.1247
    1W        W39035   0.323   5.462   2.284 -0.1764  0.4009 -0.1817
    1W        W39036   1.684  25.852   8.428 -0.1949  0.0360  0.0457
    1W        W39037   6.153  24.235   0.015  0.1700 -0.0212  0.1044
    1W        W39038   1.960  17.394   7.452 -0.3418 -0.0353 -0.1868
    1W        W39039   2.160  17.481   9.084  0.3592 -0.2150  0.2033
    1W        W39040   4.487   7.203   7.412  0.0622  0.0370  0.1774
    1W        W39041  25.360  18.539   1.755  0.0354 -0.1452 -0.0984
    1W        W39042   9.529  22.770   2.380 -0.2075  0.4473 -0.2075
    1W        W39043   1.818   8.063   8.742 -0.1636 -0.1674 -0.0237
    1W        W39044   2.208  29.897   2.328 -0.0152 -0.0696  0.1492
    1W        W39045  27.163  17.418   2.222 -0.2000  0.3535 -0.1508
    1W        W39046  22.230   5.123   8.430 -0.2704  0.1279 -0.0816
    1W        W39047  23.888  29.109   7.309  0.0744 -0.0798 -0.1671
    1W        W39048  29.687  19.672   6.938 -0.0922  0.0333 -0.2409
    1W        W39049  10.943  26.378   9.091  0.0665  0.1266  0.0176
    1W        W39050   1.833  13.524   7.002  0.1025  0.1554 -0.2796
    1W        W39051  27.688   0.498   2.334 -0.3521 -0.0045  0.3403
    1W        W39052  11.803  25.057   9.311 -0.3115 -0.2429  0.1731
    1W        W39053   1.927  20.892   6.805  0.2923 -0.1750  0.0544
    1W        W39054  23.971  15.519   1.199  0.0435  0.5897  0.0529
    1W        W39055  29.333  26.971   0.301  0.2160  0.1110 -0.1951
    1W        W39056  21.776  21.784   7.522  0.1361  0.0636 -0.0822
    1W        W39057  14.932   0.310   9.133  0.1768  0.2538  0.1364
    1W        W39058   6.231  26.341   8.420  0.0559 -0.1147 -0.0245
    1W        W39059  27.996  10.755   8.901  0.0073  0.1896 -0.0490
    1W        W39060  15.338   2.973   2.585 -0.1480  0.3419  0.1465
    1W        W39061  26.258  11.767   1.535  0.2400  0.1143 -0.2172
    1W        W39062  23.272  15.081   0.385  0.1066 -0.4519 -0.0870
    1W        W39063  24.274  27.944   2.719 -0.0923  0.0620 -0.4314
    1W        W39064   7.652  13.407   1.276  0.1023  0.1756  0.3021
    1W        W39065  21.073  22.206   2.377  0.2408  0.0335 -0.0805
    1W        W39066   8.093  27.236   8.263  0.0294 -0.0154 -0.3894
    1W        W39067   8.789  16.228   7.121 -0.2278  0.0927  0.0203
    1W        W39068  17.218   6.345   7.818  0.1263  0.0878 -0.1052
    1W        W39069  12.417  20.544   8.897 -0.3455  0.1771 -0.0108
    1W        W39070   0.823   6.118   2.671  0.1588 -0.3360 -0.1794
    1W        W39071   0.561   1.040   6.414  0.2871  0.0208  0.0409
    1W        W39072  11.601   2.812   0.820 -0.1818  0.1589 -0.2825
    1W        W39073  17.618  18.265   7.560 -0.2078 -0.1422  0.2046
    1W        W39074   8.518   3.258   9.248  0.0188  0.0121 -0.0015
    1W        W39075   3.309   6.344   8.848 -0.1656 -0.1469 -0.0158
    1W        W39076  15.828  23.270   8.842  0.1772  0.4117 -0.3468
    1W        W39077  10.330  24.752   6.684  0.3069  0.2623  0.0841
    1W        W39078  22.924   8.799   2.356 -0.1075 -0.1284 -0.1538
    1W        W39079   2.963   9.838   6.956  0.0982 -0.1279 -0.0296
    1W        W39080   4.246  11.305   6.685  0.1800  0.0120  0.1635
    1W        W39081  22.590   1.493   2.848  0.1934  0.0447  0.0721
    1W        W39082  29.319   9.286   2.432  0.1182  0.1104  0.1268
    1W        W39083   7.541  17.119   2.172  0.0995 -0.0665 -0.2093
    1W        W39084  13.426  15.710   7.074  0.1164  0.0727  0.0304
    1W        W39085  10.886  16.639   1.146 -0.0852  0.1750  0.1037
    1W        W39086  21.225   8.109   1.657  0.3125  0.1093  0.1406
    1W        W39087  28.500   1.186   6.390  0.2598 -0.0079  0.1576
    1W        W39088  28.134  17.200   0.265  0.2022  0.0069 -0.0030
    1W        W39089   8.697  12.630   1.377  0.1547  0.1324  0.1986
    1W        W39090  15.131   4.276   7.890 -0.1812  0.1011  0.2047
    1W        W39091  25.311   1.097   7.611 -0.2459 -0.2536  0.2145
    1W        W39092   9.750  28.616   1.124  0.1703 -0.3054  0.0322
    1W        W39093   9.069  28.442   0.012 -0.0852 -0.0024  0.0208
    1W        W39094  15.326  27.004   7.486  0.0691 -0.0472  0.0598
    1W        W39095  12.145   9.065   8.499 -0.0725  0.0588  0.1473
    1W        W39096  26.723  19.690   9.018 -0.2470 -0.0440 -0.2652
    1W        W39097  13.028   9.926   2.374 -0.1445 -0.0661 -0.1470
    1W        W39098  27.359   4.733   2.151 -0.0379 -0.0464 -0.0375
    1W        W39099   4.383  13.066   1.779 -0.3486  0.1545  0.0655
    1W        W39100  21.260  18.602   2.160 -0.2194 -0.0731  0.0738
    1W        W39101   7.327  19.155   5.513 -0.0925  0.0931 -0.0986
    1W        W39102   7.413  20.657   1.257 -0.2513  0.0988 -0.1122
    1W        W39103   0.888  16.724   8.507 -0.0782  0.0302  0.1977
    1W        W39104  11.904   8.851   8.139 -0.0754  0.2098  0.3530
    1W        W39105   3.621  19.899   0.027  0.3754  0.1663 -0.1373
    1W        W39106   2.829  21.226   0.173 -0.0650 -0.2157 -0.0027
    1W        W39107   7.128  24.261   0.380 -0.2529 -0.0710 -0.0416
    1W        W39108  22.702  10.073   0.661  0.3689  0.0381 -0.0149
    1W        W39109   4.888  22.920   0.334  0.0396 -0.4296 -0.0468
    1W        W39110   9.958  18.843   8.981 -0.1174  0.2048  0.1164
    1W        W39111  15.345  11.513   9.397  0.1689  0.0274 -0.1548
    1W        W39112  23.815  22.670   8.704  0.0220  0.1061  0.2221
    1W        W39113  21.574  22.532   9.079 -0.0494 -0.0008 -0.0645
    1W        W39114   1.024  17.444   1.106  0.1193 -0.2656 -0.0362
    1W        W39115  13.320   3.814   0.272 -0.0292  0.0222  0.0167
    1W        W39116  26.870   3.462   3.473  0.3994 -0.1740  0.1654
    1W        W39117  18.353   5.502   0.871  0.0812  0.0084 -0.0174
    1W        W39118   0.759  20.032   8.907 -0.2685  0.0881  0.0455
    1W        W39119   1.608   4.976   1.733 -0.2780  0.2687  0.0709
    1W        W39120  17.509  13.705   0.875  0.0308 -0.0183  0.1485
    1W        W39121  26.724  27.384   0.739 -0.2580  0.1685  0.0021
    1W        W39122  17.684  19.208   1.740  0.1035  0.1436  0.0198
    1W        W39123  18.289  17.289   2.141 -0.0787 -0.0163 -0.1774
    1W        W39124  27.500  20.865   0.560  0.1034 -0.1219  0.2214
    1W        W39125  15.180  11.073   8.861 -0.1190  0.0042  0.0247
    1W        W39126   0.994   9.223   7.797 -0.1476  0.3094 -0.3382
    1W        W39127   8.968  11.548   7.833  0.0901  0.2009  0.3367
    1W        W39128   5.448   7.719   2.649  0.0281 -0.0519  0.2162
    1W        W39129  18.475   5.803   0.137 -0.1214  0.1260 -0.0974
    1W        W39130  15.835  13.344   6.915 -0.0837  0.3742 -0.1942
    1W        W39131   7.276  28.881   8.413 -0.0797  0.0650 -0.0567
    1W        W39132   4.106   5.535   3.025 -0.0516 -0.1092  0.0104
    1W        W39133  11.148  18.889   0.233  0.3084 -0.0035 -0.0052
    1W        W39134   8.125  20.170   6.443  0.1262  0.1191  0.0586
    1W        W39135  21.889  27.708   3.460 -0.0123 -0.3865 -0.3272
    1W        W39136   3.577  10.562   2.537  0.0106 -0.0175 -0.1071
    1W        W39137   0.752  27.243   9.172  0.0725  0.0833  0.0147
    1W        W39138  19.463  14.010   1.474  0.1370  0.0984  0.0697
    1W        W39139  23.771   5.151   8.750 -0.3375 -0.1628 -0.0253
    1W        W39140   0.738   8.810   6.644  0.1123  0.1370  0.2326
    1W        W39141  20.442  26.341   8.463  0.1499  0.4654 -0.2584
    1W        W39142   5.601  27.275   2.112 -0.1219 -0.1832  0.1417
    1W        W39143   7.451  14.317   0.677 -0.0711  0.0741 -0.1455
    1W        W39144   0.104   0.886   1.010 -0.1782  0.0856  0.2550
    1W        W39145  13.826  26.825   6.894  0.1976 -0.8200 -0.1136
    1W        W39146  25.506  19.023   7.069 -0.0489 -0.2421 -0.3198
    1W        W39147   8.437  14.241   1.091  0.0074  0.4355  0.1625
    1W        W39148  15.419  14.770   0.117 -0.0264 -0.4656 -0.2185
    1W        W39149   6.401  28.373   1.165  0.0050 -0.0994  0.3108
    1W        W39150   5.217  15.290   0.506 -0.2605  0.1646  0.0228
    1W        W39151  15.304  12.879   1.650  0.1451  0.1082 -0.0765
    1W        W39152   7.044  20.249   6.253  0.1877 -0.0195 -0.1677
    1W        W39153  19.438  24.786   8.935  0.0450  0.0805  0.0468
    1W        W39154   2.310  20.796   7.174 -0.2405 -0.2180 -0.0331
    1W        W39155  25.266   0.289   8.292 -0.0057  0.1768  0.0439
    1W        W39156  19.954  17.561   9.370  0.3980  0.0157 -0.1027
    1W        W39157   1.980  19.733   0.516 -0.1847 -0.2917  0.1221
    1W        W39158   1.013   6.556   1.854 -0.1661  0.1922  0.0219
    1W        W39159   4.467  20.302   7.013  0.0556 -0.0379 -0.0521
    1W        W39160  16.563  14.273   0.630  0.0959 -0.1195 -0.1130
    1W        W39161   2.006  29.506   1.144 -0.0211  0.1577 -0.1780
    1W        W39162  16.371  16.196   8.453  0.1536 -0.1775  0.0114
    1W        W39163  22.186   0.991   1.277  0.0906 -0.0008 -0.0758
    1W        W39164   3.853  12.182   0.203 -0.0704  0.3683  0.0277
    1W        W39165  21.095   2.865   8.337  0.1315  0.2188 -0.4516
    1W        W39166   6.433   3.487   0.356 -0.3309  0.0730 -0.0790
    1W        W39167   4.868  19.213   1.347  0.1022  0.1153 -0.3970
    1W        W39168   2.634  17.408   0.239  0.0858 -0.0279 -0.2804
    1W        W39169  27.134  18.210   6.119  0.0658  0.1239 -0.1660
    1W        W39170   8.529  24.764   6.943  0.0622  0.0290  0.0571
    1W        W39171  20.746   1.813   0.706 -0.0431  0.0232 -0.1830
    1W        W39172  24.826  21.310   2.978 -0.0457  0.0042 -0.2308
    1W        W39173  13.918   8.564   8.365  0.0388 -0.0227  0.2031
    1W        W39174  23.846   6.807   1.267  0.0197 -0.4705 -0.2499
    1W        W39175   8.233   2.969   0.885 -0.0612 -0.0311 -0.0760
    1W        W39176  13.955  10.590   7.867 -0.0099  0.0194 -0.0541
    1W        W39177  17.625   0.591   8.783  0.1638  0.2624 -0.0171
    1W        W39178   8.883  13.844   7.884 -0.2591  0.0187 -0.3296
    1W        W39179  21.995  25.467   2.434 -0.0078 -0.0508 -0.0108
    1W        W39180   8.017  18.976   0.904  0.0330  0.3772  0.0716
    1W        W39181  22.836   6.492   1.232  0.2641  0.1122 -0.1972
    1W        W39182  21.341   6.419   7.603  0.4142  0.0222  0.1361
    1W        W39183  27.264   3.135   9.239 -0.0141 -0.1785 -0.1975
    1W        W39184  14.297  12.382   9.114  0.1436 -0.1406  0.1608
    1W        W39185  14.831  18.655   7.270  0.1242 -0.0611  0.1880
    1W        W39186  28.403   8.032   1.708 -0.2327 -0.2027 -0.0395
    1W        W39187  24.759   1.705   0.687 -0.0227 -0.0403 -0.1930
    1W        W39188  29.629  20.118   7.890 -0.1362  0.0544  0.0953
    1W        W39189  15.002   5.694   3.689 -0.2443  0.0209  0.0069
    1W        W39190  18.092   4.573   9.022  0.0041  0.1863 -0.0251
    1W        W39191  18.035  12.114   8.152 -0.1018 -0.1176 -0.3049
    1W        W39192  26.466   9.278   8.205 -0.0534  0.2900  0.5477
    1W        W39193  16.297  20.971   8.851 -0.1790  0.0143 -0.1236
    1W        W39194  28.564  12.698   1.494  0.3446  0.1116 -0.0073
    1W        W39195   2.330   9.737   1.568 -0.2333 -0.0687 -0.0194
    1W        W39196  13.393  10.822   9.056 -0.2334  0.1932  0.0712
    1W        W39197   5.903  14.812   2.589  0.2558 -0.2974  0.0431
    1W        W39198  23.640  25.688   2.629  0.0383 -0.0362 -0.4013
    1W        W39199  22.481  27.822   9.160  0.0341 -0.2351  0.1406
    1W        W39200  10.230  12.457   2.194  0.1464  0.0855  0.0175
    1W        W39201  17.899   9.625   8.805  0.2197  0.0853  0.2359
    1W        W39202  11.281  15.791   7.564  0.0355 -0.2047 -0.2564
    1W        W39203   1.977  29.276   8.396 -0.1147  0.1667 -0.2068
    1W        W39204  16.206  28.007   8.770  0.0589  0.3016 -0.2499
    1W        W39205  21.203   0.919   1.013 -0.1427  0.0217  0.0374
    1W        W39206  12.214  13.035   1.116  0.3397  0.0110  0.0211
    1W        W39207  28.801  23.081   7.576  0.2249  0.0501 -0.1218
    1W        W39208  27.945   4.927   1.514  0.4410 -0.1723 -0.2301
    1W        W39209   4.404  19.406   1.092  0.0002  0.0244 -0.1586
    1W        W39210  22.612  19.025   8.092 -0.0231 -0.0115  0.2030
    1W        W39211   8.715  20.547   0.485  0.1381  0.0954  0.3663
    1W        W39212  26.035  29.204   7.060 -0.1219  0.0427 -0.1118
    1W        W39213  26.283  12.625   6.826  0.0523 -0.0506  0.2263
    1W        W39214   5.709   6.097   2.491  0.0633 -0.0281  0.4900
    1W        W39215   2.874  16.035   7.419 -0.3223 -0.1117 -0.1094
    1W        W39216  18.460   7.152   8.460 -0.1997 -0.0460  0.2028
    1W        W39217  21.631  23.757   2.952  0.0049 -0.1628 -0.3306
    1W        W39218   5.850   6.734   1.651  0.0401 -0.1424 -0.1731
    1W        W39219  26.972  23.139   7.657  0.2691  0.2557  0.1168
    1W        W39220   4.385  20.973   9.365  0.1856  0.1009 -0.0159
    1W        W39221  18.989   0.137   1.816 -0.2120 -0.1120 -0.2067
    1W        W39222   6.985   1.431   8.476  0.2396 -0.4027 -0.1808
    1W        W39223  21.536   3.946   8.476  0.0709 -0.2811 -0.5524
    1W        W39224  22.748  20.457   7.370  0.0137 -0.0702 -0.0430
    1W        W39225  11.293   6.702   3.285 -0.3357  0.2343 -0.1642
    1W        W39226   7.394  27.628   1.045  0.0103  0.1465 -0.3447
    1W        W39227  13.332  24.362   7.720  0.3832 -0.1069 -0.0315
    1W        W39228  17.197  25.348   7.982  0.2440 -0.1129  0.5051
    1W        W39229  22.922  20.066   8.140 -0.0192 -0.0071  0.3514
    1W        W39230  16.137  28.272   8.249 -0.1749 -0.2124  0.1704
    1W        W39231  15.564  26.929   9.143  0.0673 -0.5021 -0.0654
    1W        W39232  12.984  24.675   7.416  0.0831  0.3401  0.1527
    1W        W39233   2.973  27.391   0.513 -0.1255 -0.3613 -0.1061
    1W        W39234   3.418  26.995   7.466 -0.1083  0.2282  0.3101
    1W        W39235  26.007  17.300   1.884 -0.2162  0.0649 -0.3123
    1W        W39236  12.398   7.814   8.195 -0.2897 -0.2226 -0.0372
    1W        W39237  12.393  15.499   1.692  0.0812 -0.1398  0.2973
    1W        W39238  25.087   3.172   1.831 -0.2264 -0.1078  0.0858
    1W        W39239  19.454  23.894   8.008 -0.1936  0.1681 -0.1871
    1W        W39240  25.165   2.344   0.349 -0.4415 -0.0496 -0.0014
    1W        W39241  23.243  19.720   3.127  0.0984  0.2030 -0.1419
    1W        W39242  23.183  18.597   1.276 -0.2919  0.2139 -0.0773
    1W        W39243   5.250   8.937   0.066  0.0526 -0.2005  0.0159
    1W        W39244  20.197   1.866   0.952  0.4871 -0.1679 -0.3776
    1W        W39245  16.532  13.519   9.310 -0.0296 -0.1844  0.1062
    1W        W39246   3.353   1.313   3.532  0.1666  0.2067  0.0210
    1W        W39247  21.131  22.315   8.152  0.1816  0.0324 -0.1310
    1W        W39248  28.855  27.640   7.827 -0.0119 -0.1148 -0.2253
    1W        W39249   4.971  29.501   2.701  0.2059  0.2542 -0.3481
    1W        W39250   5.084   6.278   9.106  0.3114 -0.0229 -0.1781
    1W        W39251   5.273  12.537   1.165  0.2441 -0.0427 -0.2221
    1W        W39252  16.370  20.356   8.045 -0.2830 -0.0034  0.0949
    1W        W39253   2.618  28.920   1.666 -0.1000 -0.1581  0.0713
    1W        W39254   4.078  11.838   9.222 -0.1078  0.0006  0.0969
    1W        W39255   8.701  16.276   1.041  0.1614 -0.2307  0.0899
    1W        W39256  27.060  25.783   1.545  0.0512  0.0208 -0.4876
    1W        W39257  25.810  21.665   8.658  0.0090 -0.3214  0.2724
    1W        W39258   1.440  28.892   8.889  0.1382  0.1188 -0.1997
    1W        W39259  27.919  17.911   7.263  0.3103 -0.0895 -0.1198
    1W        W39260   8.040  22.013   0.802 -0.4437 -0.4233 -0.0726
    1W        W39261   0.115   5.868   9.464  0.1366 -0.1175 -0.2744
    1W        W39262   5.785   2.989   7.734 -0.2979 -0.2711 -0.2069
    1W        W39263  18.138  18.260   0.931  0.0962 -0.2807 -0.1303
    1W        W39264  25.520   4.629   7.750  0.0405 -0.1270  0.1806
    1W        W39265   3.946   5.408   8.923  0.0365 -0.2014  0.2509
    1W        W39266   2.358  11.140   7.964  0.0958  0.3412 -0.2908
    1W        W39267   0.484  27.176   7.235  0.4245 -0.1180  0.0898
    1W        W39268   6.302   5.848   3.034  0.1158  0.0162  0.0219
    1W        W39269  15.638   1.060   0.100 -0.1124  0.1575 -0.1222
    1W        W39270   0.667  28.042   1.105 -0.4132 -0.1271  0.0794
    1W        W39271  25.899  15.116   7.258 -0.1930  0.1312 -0.1035
    1W        W39272  12.754  15.802   0.908 -0.2174  0.0334 -0.0566
    1W        W39273  14.549  26.968   2.578  0.0087  0.0427  0.1522
    1W        W39274   4.378   6.795   1.394  0.0468  0.2459 -0.0114
    1W        W39275  17.374   2.558   7.327  0.0366 -0.0018 -0.0282
    1W        W39276  20.140  13.007   0.952  0.0063  0.1277 -0.0857
    1W        W39277  22.633   6.806   7.402 -0.0327 -0.2143  0.0962
    1W        W39278  12.654  13.278   8.189  0.2571  0.1897 -0.3004
    1W        W39279  21.961  24.992   9.371  0.0401  0.1065  0.4963
    1W        W39280  23.757  14.966   0.131  0.0344  0.0266  0.0479
    1W        W39281  28.017  10.493   8.053 -0.0973 -0.2528  0.0858
    1W        W39282  21.369   7.007   2.496  0.2095  0.0940 -0.1328
    1W        W39283   7.990   5.000   7.270  0.0216  0.1321 -0.0180
    1W        W39284   7.941  17.229   8.180 -0.0290  0.1917  0.0051
    1W        W39285  14.516   0.005   1.246 -0.0699 -0.1524 -0.0437
    1W        W39286   6.746  13.745   6.954 -0.2130 -0.0498  0.1595
    1W        W39287  22.824  12.504   6.551  0.1012  0.1579  0.1481
    1W        W39288  24.252   0.369   3.468  0.0420  0.0456  0.1792
    1W        W39289  15.551  16.099   6.967  0.0366  0.0467  0.0444
    1W        W39290  23.097  22.780   8.619  0.2181  0.1277  0.1419
    1W        W39291  24.885  17.348   0.883  0.2212 -0.1793  0.2277
    1W        W39292   7.421   8.842   2.838  0.2029 -0.1130 -0.0574
    1W        W39293   0.122  20.069   0.242  0.0254  0.1596 -0.0550
    1W        W39294  29.447  18.606   6.122  0.1146 -0.0641  0.1179
    1W        W39295  28.083  14.682   5.606  0.2330 -0.1384  0.0356
    1W        W39296   9.588  17.499   2.430  0.0253 -0.1004 -0.0113
    1W        W39297  12.221   0.102   9.298 -0.0195  0.2617 -0.1199
    1W        W39298  27.619  27.554   2.727 -0.2928 -0.0608  0.1495
    1W        W39299   4.915  17.810   0.679 -0.2896  0.0206 -0.0643
    1W        W39300   5.316   2.903   1.880  0.1168  0.1039 -0.1157
    1W        W39301  23.992  24.928   1.167 -0.0625  0.0108 -0.0767
    1W        W39302  26.735   8.318   6.921 -0.3635 -0.2503  0.2570
    1W        W39303  18.703   1.272   2.172  0.1232 -0.1330  0.0839
    1W        W39304  19.083  14.234   6.925 -0.5126 -0.1763 -0.0014
    1W        W39305  29.668  15.601   2.331 -0.0493  0.1314  0.3257
    1W        W39306   4.831  14.376   1.705  0.2925  0.1490  0.4575
    1W        W39307  21.452  22.983   9.299 -0.0946  0.0242  0.2375
    1W        W39308  26.415   8.156   1.207  0.1190 -0.2345 -0.0399
    1W        W39309   1.316  13.332   9.010 -0.0783  0.0551  0.0774
    1W        W39310   4.844  18.275   8.937 -0.3924  0.0675 -0.2511
    1W        W39311   5.992  16.133   7.039  0.2458  0.0339 -0.1627
    1W        W39312  11.456  24.584   8.704 -0.2204  0.3037 -0.1848
    1W        W39313  14.705  23.685   2.115 -0.0276  0.0953  0.1933
    1W        W39314  12.064  28.622   1.565 -0.2989 -0.1865  0.0744
    1W        W39315  24.312   9.534   7.038  0.0341 -0.1354  0.1935
    1W        W39316  14.545   0.602   7.608  0.1302  0.2373 -0.3420
    1W        W39317  19.686   1.269   2.288 -0.0408 -0.0163 -0.1656
    1W        W39318  10.125   7.860   7.229  0.1627 -0.0780  0.3717
    1W        W39319   4.020  10.993   3.159 -0.2626 -0.2304 -0.1263
    1W        W39320   7.824   3.457   0.255  0.1202 -0.0607 -0.2132
    1W        W39321   4.986  17.874   8.623  0.0750  0.2816 -0.0379
    1W        W39322  29.566  21.427   1.811 -0.5228 -0.1540 -0.1847
    1W        W39323  10.195  11.779   2.251  0.3384  0.0205  0.0550
    1W        W39324   0.285  23.856   1.691 -0.1319 -0.3700 -0.0616
    1W        W39325   8.668   9.788   1.335 -0.0696  0.2275  0.0122
    1W        W39326  24.447  14.990   2.188 -0.2425 -0.2164  0.0733
    1W        W39327  27.165   1.278   8.952 -0.1272 -0.0517  0.0885
    1W        W39328   7.987  17.193   6.923 -0.3661 -0.1831  0.2549
    1W        W39329  16.466   5.163   9.425  0.1925 -0.0646 -0.0361
    1W        W39330   0.780  29.702   0.570  0.1395  0.2356  0.1357
    1W        W39331  11.905  27.898   0.292  0.0855 -0.0798  0.2283
    1W        W39332  28.039  19.032   0.793  0.2765  0.0211 -0.2088
    1W        W39333   1.060  18.728   8.959 -0.2625  0.3740 -0.0538
    1W        W39334   5.136  12.043   0.394 -0.3595 -0.1534  0.2407
    1W        W39335  28.884   3.620   0.325 -0.1352 -0.0812 -0.0510
    1W        W39336  29.361  13.998   8.368 -0.1899  0.0047  0.1237
    1W        W39337  26.875  18.460   9.258  0.0175 -0.5474  0.1139
    1W        W39338  17.486  23.047   0.846 -0.0716  0.2142  0.0409
    1W        W39339  17.181  10.089   7.528  0.2129  0.0335 -0.1028
    1W        W39340  11.651  16.781   7.909  0.1411 -0.0536 -0.2690
    1W        W39341   6.434  25.324   0.583  0.0829  0.1821 -0.0546
    1W        W39342  29.153  29.842   8.480 -0.1800 -0.0776  0.3803
    1W        W39343  27.776   1.165   7.336  0.2193 -0.1565 -0.1868
    1W        W39344  25.665  17.355   0.288  0.2188  0.1240  0.0116
    1W        W39345  28.890   9.653   1.598  0.0426  0.0534  0.1263
    1W        W39346  25.977  29.067   8.012  0.0076  0.0259 -0.1134
    1W        W39347  22.961  28.101   8.854  0.3562 -0.1060 -0.5485
    1W        W39348  23.315  17.638   1.754  0.1761 -0.1918  0.0057
    1W        W39349  20.400  20.728   0.589 -0.2547 -0.3046 -0.1236
    1W        W39350   4.973  20.125   9.422 -0.4021 -0.0528 -0.0591
    1W        W39351  26.351  17.735   8.236 -0.1529  0.1450  0.2069
    1W        W39352  26.038   0.375   0.240 -0.0467  0.0130 -0.2967
    1W        W39353  27.395   4.750   7.786  0.0890 -0.1729 -0.0810
    1W        W39354   2.956  21.479   1.659 -0.1998  0.1484  0.2099
    1W        W39355   8.894  20.609   5.808  0.2515 -0.0622  0.2216
    1W        W39356   0.467  14.583   7.348 -0.3315 -0.0438 -0.0308
    1W        W39357  22.014  17.535   7.121 -0.1036  0.1576 -0.1049
    1W        W39358  15.722  24.056   7.911 -0.1598 -0.1938 -0.1226
    1W        W39359  12.301  10.403   8.903 -0.0956  0.2347 -0.0006
    1W        W39360  26.244   5.666   0.424 -0.1677  0.0408 -0.2708
    1W        W39361   0.276   1.111   6.872 -0.2717 -0.1381  0.2353
    1W        W39362  12.655   7.665   1.899  0.0936 -0.0556  0.1762
    1W        W39363  25.145  27.509   8.685 -0.0993  0.0334  0.2848
    1W        W39364  22.900  28.808   2.676  0.1867  0.1720  0.0257
    1W        W39365   1.604   1.367   8.519 -0.0214  0.1514 -0.0199
    1W        W39366  11.795  19.407   8.085  0.1719  0.0313 -0.2082
    1W        W39367   8.272  14.889   1.899 -0.2418  0.0265 -0.0978
    1W        W39368  14.388  14.664   2.123  0.0439  0.1318 -0.0371
    1W        W39369  29.413  20.128   2.640  0.0112  0.2229  0.1233
    1W        W39370  15.326  12.689   7.456 -0.0003 -0.2031 -0.2048
    1W        W39371  21.922  20.362   6.979  0.0651 -0.2022  0.1890
    1W        W39372  23.423  11.811   6.157  0.2465 -0.0747  0.1759
    1W        W39373  29.768  27.856   1.280  0.2249  0.0616 -0.0674
    1W        W39374   6.909   4.182   8.193  0.0942  0.1362  0.0207
    1W        W39375  24.819  25.381   3.482 -0.0719  0.0759  0.1028
    1W        W39376  22.132  27.346   8.348 -0.0344  0.0919 -0.0786
    1W        W39377   2.616  21.421   6.296 -0.0420 -0.0694  0.0109
    1W        W39378   5.375  14.711   0.882  0.4039  0.0800  0.0906
    1W        W39379  18.601  11.084   8.420 -0.0641 -0.2549 -0.0246
    1W        W39380   0.825  21.355   9.302  0.1261 -0.0977 -0.0194
    1W        W39381  21.749  23.923   9.337 -0.0473 -0.2214  0.0948
    1W        W39382  19.137  10.132   6.226 -0.0310  0.2787 -0.0656
    1W        W39383   7.648  21.915   1.053  0.0030 -0.0714  0.1134
    1W        W39384   0.096  15.844   7.376  0.3308  0.1626 -0.1905
    1W        W39385  27.954  17.976   0.490  0.0102 -0.1934  0.1352
    1W        W39386   9.253  25.430   8.986 -0.0074 -0.1223  0.1062
    1W        W39387  10.302  16.536   8.952 -0.1465 -0.3537  0.2378
    1W        W39388  27.601  15.727   2.341  0.2747  0.1845  0.1597
    1W        W39389  12.068   2.790   0.735 -0.0232  0.4676  0.5084
    1W        W39390  19.293   4.560   0.992 -0.2107 -0.2008  0.0158
    1W        W39391  20.544   6.577   2.128 -0.4412 -0.0180 -0.0172
    1W        W39392   3.416   4.838   1.387 -0.2788  0.3952 -0.1575
    1W        W39393  12.119   8.546   8.977  0.0572 -0.1644 -0.0199
    1W        W39394  29.152  26.403   8.986  0.1441 -0.0467  0.0090
    1W        W39395  26.976  28.353   8.375 -0.2164 -0.1875 -0.2693
    1W        W39396  21.130  27.974   2.475 -0.0092 -0.1683 -0.0618
    1W        W39397   4.503  19.566   1.541  0.1015 -0.0267 -0.4453
    1W        W39398  28.034  12.993   1.357 -0.0012 -0.0669 -0.2675
    1W        W39399  24.348  11.199   6.803  0.1378  0.0268  0.1529
    1W        W39400   0.003   5.196   8.722 -0.2085 -0.0788  0.0874
    1W        W39401   7.556  28.576   8.724  0.2775  0.3360 -0.1757
    1W        W39402  28.475  25.791   7.603 -0.1887  0.0502  0.1609
    1W        W39403   0.409  16.892   8.410  0.1643 -0.0753  0.1603
    1W        W39404  28.452  10.957   9.079 -0.0676  0.0762 -0.3381
    1W        W39405  29.123  11.625   7.669 -0.0254  0.1848  0.4526
    1W        W39406  25.073  26.446   2.118 -0.0909 -0.0515 -0.1443
    1W        W39407  29.581   3.650   1.889 -0.2728  0.0484 -0.3674
    1W        W39408   1.565  24.475   0.842  0.2627  0.0601  0.0870
    1W        W39409  10.087  18.244   1.898 -0.2134  0.0289 -0.1885
    1W        W39410  21.205   3.901   0.305 -0.3564  0.0318 -0.1618
    1W        W39411  16.188  21.351   9.224  0.0959  0.1105  0.0812
    1W        W39412  27.145  10.445   7.839 -0.0568 -0.2686 -0.1325
    1W        W39413  13.744  29.633   2.675 -0.1355 -0.2586 -0.0688
    1W        W39414   8.607  20.554   6.308  0.2492 -0.3356 -0.3766
    1W        W39415   5.437   1.105   9.321 -0.2709  0.1260 -0.3324
    1W        W39416   8.252   2.184   9.243 -0.2600  0.1324  0.0593
    1W        W39417  27.736  23.728   2.848 -0.1605  0.1161  0.2346
    1W        W39418  13.728  27.901   7.768 -0.1250 -0.1820 -0.1807
    1W        W39419   7.637  15.578   7.612 -0.1905 -0.0381 -0.5306
    1W        W39420  20.810  24.824   1.496 -0.1462 -0.0506  0.1328
    1W        W39421  23.473   9.418   9.088 -0.0238  0.0586  0.3983
    1W        W39422  15.441   1.605   8.998 -0.0707  0.0627 -0.2671
    1W        W39423  14.761   4.701   7.843 -0.1163  0.0151 -0.0987
    1W        W39424   8.593   6.067   2.505  0.0115  0.1772  0.3148
    1W        W39425  28.599   5.746   2.239  0.0101  0.2056  0.0674
    1W        W39426   8.884  28.214   8.614  0.0777  0.3527  0.0188
    1W        W39427  21.592  25.698   9.455 -0.4197  0.0324 -0.2178
    1W        W39428   8.129  15.944   8.863  0.1325  0.3696 -0.5298
    1W        W39429   1.553  20.485   2.103  0.1736 -0.1138 -0.2779
    1W        W39430  23.103  28.618   3.191  0.0891 -0.0183  0.2761
    1W        W39431  18.546  26.405   1.387  0.0093 -0.1224 -0.4064
    1W        W39432  10.548  10.630   7.434 -0.2575 -0.1741 -0.0009
    1W        W39433  25.231   2.454   2.645 -0.2762 -0.0081  0.0515
    1W        W39434  20.885  24.195   2.822  0.1430  0.0933  0.1397
    1W        W39435  26.732  26.042   7.260  0.1302  0.0314  0.1600
    1W        W39436  22.754  18.299   9.087  0.1645  0.0537 -0.0456
    1W        W39437  15.693  20.623   9.426  0.2094 -0.1569  0.0309
    1W        W39438  22.765  27.649   7.691 -0.2197  0.2237  0.0293
    1W        W39439  29.149  26.777   7.947 -0.2920 -0.1863 -0.0277
    1W        W39440  14.912  21.945   8.875 -0.2175  0.1690  0.1753
    1W        W39441  23.267  15.811   7.265  0.2012  0.1528  0.2783
    1W        W39442  22.246  20.918   7.725 -0.2744  0.0295  0.0108
    1W        W39443  23.236  12.690   9.312 -0.0397  0.0161 -0.1210
    1W        W39444  25.338  11.360   7.113  0.1933 -0.0438  0.1139
    1W        W39445  12.773  18.744   7.469 -0.1657 -0.2050  0.0494
    1W        W39446   7.033   6.505   1.380  0.1139 -0.0680 -0.1045
    1W        W39447  24.083   6.559   8.090  0.1722  0.1015 -0.0540
    1W        W39448  22.160  12.912   1.970  0.2143 -0.1895 -0.1780
    1W        W39449   3.748  15.364   6.926  0.1689 -0.0683  0.1806
    1W        W39450  28.675   9.819   7.991  0.1088 -0.0504 -0.0021
    1W        W39451  11.791  23.682   1.830 -0.1607 -0.1346  0.3684
    1W        W39452  14.206   5.864   2.003 -0.0500 -0.1432  0.0954
    1W        W39453  15.655  24.045   7.303 -0.2903  0.2040  0.1397
    1W        W39454   6.399   1.620   6.601 -0.0112  0.1962  0.0907
    1W        W39455  14.622   2.692   0.674 -0.0096  0.2221 -0.1975
    1W        W39456   4.012  16.861   8.857 -0.0619  0.0905 -0.1352
    1W        W39457   2.687  18.087   8.498  0.0283  0.2844  0.1131
    1W        W39458  27.170  12.539   2.305 -0.5045 -0.1036  0.1705
    1W        W39459   4.229   0.022   0.150  0.1691  0.0091  0.0124
    1W        W39460  13.982  25.942   8.844  0.2091 -0.0155  0.2887
    1W        W39461  23.603  22.586   7.725  0.0512  0.1492 -0.0755
    1W        W39462   3.303  22.851   2.034  0.2516  0.1502 -0.3599
    1W        W39463  20.920  12.591   2.017 -0.3258 -0.1628  0.1648
    1W        W39464  10.058   9.772   1.987  0.1898  0.1200 -0.1088
    1W        W39465  24.534   6.785   7.126  0.1504  0.1150  0.0294
    1W        W39466   3.239   9.437   0.814 -0.0056  0.0563  0.0613
    1W        W39467  10.810  22.096   2.067 -0.0933 -0.1258 -0.0962
    1W        W39468  13.688   0.272   3.544 -0.1549  0.2267  0.0686
    1W        W39469  28.030  23.950   0.653  0.0080 -0.0618 -0.1301
    1W        W39470  18.560  27.170   2.044  0.0767 -0.1030  0.2214
    1W        W39471  23.397  11.371   7.837  0.0622 -0.1640 -0.0233
    1W        W39472  13.509   3.269   7.439 -0.2632 -0.0718 -0.1688
    1W        W39473  18.913  14.462   7.327 -0.0358  0.2439 -0.2056
    1W        W39474  19.392  29.386   2.159  0.1537 -0.0133 -0.0019
    1W        W39475  29.350  23.616   1.764  0.0944  0.0932 -0.0312
    1W        W39476  29.694  15.994   9.056  0.1086 -0.3498  0.0442
    1W        W39477   3.295  23.925   1.090 -0.1512  0.1943 -0.1373
    1W        W39478  15.389  26.579   6.641 -0.0517 -0.0006 -0.1895
    1W        W39479   3.589  20.405   6.975  0.2813  0.2223  0.2693
    1W        W39480  17.188  27.386   2.333 -0.0515 -0.0896  0.1646
    1W        W39481  29.853  28.931   8.432 -0.1328 -0.3026 -0.0282
    1W        W39482   8.810  15.164   0.411  0.2748 -0.0622  0.1801
    1W        W39483  11.469  10.415   7.932 -0.1040 -0.3817 -0.4992
    1W        W39484  10.443  21.093   1.298  0.1576 -0.1943  0.2125
    1W        W39485   4.887  15.038   1.001 -0.2518 -0.1674  0.3106
    1W        W39486  23.276   5.797   2.356 -0.1421 -0.0665  0.0076
    1W        W39487  25.143   0.818   1.019  0.0424  0.1401  0.0414
    1W        W39488  22.686   8.995   8.870  0.1130  0.1997  0.0937
    1W        W39489   1.300   1.937   1.602  0.0326 -0.1480  0.0832
    1W        W39490  20.142   3.752   0.431 -0.0124  0.0972 -0.0571
    1W        W39491  15.426  26.470   7.373 -0.1246 -0.0780  0.3379
    1W        W39492  29.390  22.629   2.246 -0.0528 -0.0328  0.1737
    1W        W39493  29.073   2.285   0.028  0.1177 -0.2808 -0.1050
    1W        W39494  20.662   4.364   1.831  0.5351  0.0782 -0.0033
    1W        W39495  19.930   3.602   0.891 -0.2875 -0.0335  0.0722
    1W        W39496  25.344  10.151   0.799 -0.0122  0.4383 -0.0766
    1W        W39497  21.614  26.031   7.565  0.1098  0.2465 -0.1474
    1W        W39498  29.238   2.445   0.498  0.2202  0.0253  0.1232
    1W        W39499  19.450  15.153   1.535  0.2246  0.1414  0.1814
    1W        W39500  22.335  11.030   0.958  0.0880  0.1284  0.1600
    1W        W39501  17.268   1.872   1.245  0.2506 -0.0127  0.2505
    1W        W39502  17.227   8.650   0.811  0.4687  0.0908  0.0356
    1W        W39503   5.250  28.788   0.337  0.2269  0.2065  0.1556
    1W        W39504  21.709  29.655   2.138  0.0947  0.0666 -0.0107
    1W        W39505  26.673  25.030   8.147 -0.0321  0.0431  0.3693
    1W        W39506  29.161  20.986   1.448 -0.1634  0.0833 -0.0357
    1W        W39507   6.907   7.464   9.299  0.2449 -0.1719  0.0976
    1W        W39508   8.236  20.169   1.324 -0.1555 -0.3422 -0.0819
    1W        W39509  25.308  15.429   1.953 -0.0547  0.2904  0.2553
    1W        W39510  14.730  15.406   9.392  0.0640 -0.1614 -0.0554
    1W        W39511  25.487  14.877   5.925  0.3224 -0.5056 -0.0927
    1W        W39512   9.966  25.372   0.588  0.3975  0.0983  0.3108
    1W        W39513  17.383  23.221   1.621 -0.2591 -0.0038 -0.4247
    1W        W39514  20.721  29.485   1.906 -0.1435  0.2825 -0.0258
    1W        W39515  11.834   2.350   0.869 -0.0309 -0.1363 -0.1286
    1W        W39516  24.640  16.633   8.170 -0.1400 -0.1639 -0.0606
    1W        W39517  11.740  24.198   8.350  0.1605  0.2061  0.1623
    1W        W39518   8.021  25.060   7.391 -0.0152 -0.1740 -0.1736
    1W        W39519  22.575   7.733   6.482  0.0646 -0.0616 -0.1679
    1W        W39520  11.721   8.267   1.470 -0.1426 -0.2174 -0.0335
    1W        W39521  24.294  27.949   7.073 -0.2640 -0.1467 -0.0060
    1W        W39522  26.851  14.365   6.050  0.1194  0.1250  0.2291
    1W        W39523  17.112  17.972   8.386  0.0609 -0.0740 -0.0350
    1W        W39524   8.814   9.436   1.676  0.0975  0.0298  0.0012
    1W        W39525   6.573   0.530   7.604  0.3715 -0.0215  0.0049
    1W        W39526  22.842  22.346   7.646 -0.1338  0.0880  0.0047
    1W        W39527  27.586   5.606   8.992 -0.1063  0.2244 -0.0308
    1W        W39528   4.325  26.035   7.952 -0.2138 -0.2730 -0.0905
    1W        W39529  17.230   4.726   0.913 -0.2176  0.0143  0.1560
    1W        W39530  21.134   6.934   6.698 -0.0923 -0.1214 -0.1769
    1W        W39531   5.051  23.330   0.075  0.1111  0.1596  0.0995
    1W        W39532  21.432  27.145   1.432  0.1683 -0.0799 -0.0648
    1W        W39533  15.301  21.048   7.505  0.0545  0.0876 -0.2449
    1W        W39534   7.328   5.771   3.152  0.1232 -0.0890  0.0742
    1W        W39535  29.840  16.996   0.346  0.1241  0.2296  0.0911
    1W        W39536   4.386  16.504   8.229 -0.2916  0.2872  0.1184
    1W        W39537   9.800   0.467   6.731  0.0888  0.2182 -0.1240
    1W        W39538   0.281   0.497   8.095  0.1156 -0.1913  0.2479
    1W        W39539  22.321  17.723   8.103 -0.2670  0.3163 -0.1228
    1W        W39540   5.207   4.029   7.319  0.2146 -0.1391 -0.1671
    1W        W39541  14.742   0.216   0.772 -0.3263  0.1423 -0.2436
    1W        W39542  27.952   4.701   3.304 -0.2530  0.0713 -0.0825
    1W        W39543   1.416   2.240   1.149  0.0456  0.1805 -0.0437
    1W        W39544   7.404  25.448   8.141  0.1128  0.2043 -0.1227
    1W        W39545   1.279  25.375   7.711  0.2821  0.1893  0.1620
    1W        W39546  16.934  15.510   7.047 -0.2948  0.0713 -0.1115
    1W        W39547  17.162   0.899   7.569  0.2346 -0.3368 -0.4241
    1W        W39548  10.270   0.232   6.666 -0.0876  0.0095 -0.2236
    1W        W39549  27.373  27.004   8.087  0.2622 -0.0229  0.2845
    1W        W39550   2.808  26.078   0.111  0.0475 -0.2947 -0.1304
    1W        W39551  17.239   8.540   8.231  0.0026 -0.0124 -0.2174
    1W        W39552  21.986  15.073   6.877  0.2174  0.1835  0.1206
    1W        W39553  17.785  11.313   8.245 -0.0145  0.2602 -0.0637
    1W        W39554  24.281  16.731   9.186 -0.3259 -0.0384  0.0080
    1W        W39555  15.260   5.589   7.238 -0.0419 -0.0195 -0.1645
    1W        W39556  10.808  22.896   6.782  0.0614  0.1773  0.1509
    1W        W39557  19.805   0.009   2.196 -0.2094 -0.3080  0.2339
    1W        W39558   7.381  15.542   9.029  0.0617 -0.1016  0.0551
    1W        W39559   4.354   4.416   9.026  0.1485  0.1755  0.3004
    1W        W39560  20.953   5.568   1.768  0.0253 -0.5269  0.1377
    1W        W39561  10.362  15.974   8.317  0.1462  0.4918 -0.1130
    1W        W39562  28.845   4.520   2.652 -0.0234  0.1408 -0.2114
    1W        W39563  21.404   7.323   7.417 -0.3592  0.0187 -0.2833
    1W        W39564   3.918   9.616   1.998  0.0324  0.0205 -0.1618
    1W        W39565   4.614   8.652   0.979  0.1532 -0.3956  0.0420
    1W        W39566  16.066   4.006   1.789  0.2789 -0.2187 -0.1812
    1W        W39567  13.895   6.958   9.427  0.0087 -0.3021 -0.1323
    1W        W39568  28.213   3.202   2.613  0.0622  0.3230 -0.3273
    1W        W39569  26.280  16.180   7.191  0.1653  0.1838  0.2628
    1W        W39570  27.602  27.794   7.311 -0.3319  0.1234  0.6353
    1W        W39571  20.670  23.264   3.837 -0.0507  0.0776  0.1198
    1W        W39572  10.232   0.517   7.128 -0.1684  0.0187 -0.1692
    1W        W39573  10.098  22.532   0.370 -0.1549 -0.0425  0.2356
    1W        W39574   3.834  13.194   0.648 -0.3800  0.0818  0.0143
    1W        W39575  27.805  10.323   1.078  0.1436 -0.2267  0.4311
    1W        W39576  22.630  12.137   0.983 -0.1154  0.1024  0.1347
    1W        W39577  25.137  28.362   0.875  0.1342  0.2333  0.3866
    1W        W39578  19.421   4.735   8.228 -0.0343  0.2847 -0.1732
    1W        W39579  14.584  17.997   8.151  0.0475  0.2568 -0.0265
    1W        W39580   5.550  19.517   8.888 -0.0006 -0.0882  0.1401
    1W        W39581   0.930   0.740   2.689 -0.1919 -0.2080  0.2165
    1W        W39582  25.113   6.080   9.237  0.2333 -0.0565  0.2095
    1W        W39583   7.996   7.308   8.218 -0.2118 -0.2154  0.1487
    1W        W39584   3.160   4.092   7.986  0.1576 -0.1714  0.2177
    1W        W39585   5.834  25.393   8.787 -0.1608  0.3050  0.1455
    1W        W39586   5.310  19.100   9.223 -0.1326 -0.0355  0.1697
    1W        W39587  19.366  12.770   7.711  0.1156  0.1169  0.1673
    1W        W39588  10.304  21.238   0.764 -0.1587  0.1104 -0.1309
    1W        W39589  29.163  29.357   0.903  0.2066  0.2969 -0.2597
    1W        W39590  11.655   1.726   0.825 -0.0499  0.2431  0.1414
    1W        W39591  13.345  15.654   0.737  0.0798 -0.0195 -0.0447
    1W        W39592  26.480   2.540   2.497  0.0406 -0.0659  0.0456
    1W        W39593  15.921  15.486   0.957 -0.1570 -0.0985  0.0138
    1W        W39594  16.746  23.433   9.159 -0.2949 -0.1490  0.1467
    1W        W39595  26.287  25.840   6.981  0.1330  0.0044  0.1270
    1W        W39596   6.289  29.299   2.887  0.1163  0.3178 -0.1931
    1W        W39597   7.128   5.797   2.170  0.0082  0.1227  0.2979
    1W        W39598  28.293  24.209   0.321 -0.3075 -0.2341  0.2094
    1W        W39599   7.547   9.461   0.462  0.0520 -0.5341  0.1281
    1W        W39600  23.937  11.461   6.979  0.3009  0.1536 -0.1273
    1W        W39601  17.693  12.398   7.379  0.0034  0.1284 -0.0068
    1W        W39602  11.940  26.062   1.725 -0.2047 -0.0384  0.0471
    1W        W39603   5.480  22.509   2.312 -0.1374 -0.2001  0.2902
    1W        W39604  11.080  25.888   6.742 -0.0398 -0.0187  0.1387
    1W        W39605  17.607  12.514   1.806 -0.1174 -0.0199 -0.2085
    1W        W39606  26.179  11.119   6.576  0.0725 -0.1259  0.2149
    1W        W39607  29.871  28.116   1.689  0.0137 -0.1688 -0.0440
    1W        W39608  25.897   8.102   7.457  0.2085  0.2954 -0.1834
    1W        W39609  26.862  28.696   3.510 -0.0939 -0.1641  0.0367
    1W        W39610  26.201  13.006   8.413 -0.3705  0.0933  0.0787
    1W        W39611   7.519   5.322   9.090  0.0593 -0.1507  0.1172
    1W        W39612  24.846  18.252   6.391 -0.0541 -0.0539 -0.3669
    1W        W39613   6.847  20.600   8.683  0.0738  0.0965  0.2172
    1W        W39614   4.914  17.164   6.949  0.1036  0.0442 -0.1521
    1W        W39615  12.661  12.037   8.363  0.2495  0.2565 -0.0083
    1W        W39616  19.808  26.290   1.470  0.0244  0.3454 -0.1535
    1W        W39617  27.782   7.286   6.198  0.0360 -0.2913  0.0828
    1W        W39618   0.431   0.782   2.523 -0.0056  0.0496 -0.0195
    1W        W39619   7.964   6.294   8.974 -0.1153  0.1513 -0.2070
    1W        W39620  28.968  14.723   0.902  0.2809 -0.0605 -0.3963
    1W        W39621  21.340  21.715   1.850 -0.1026 -0.5974 -0.2106
    1W        W39622  21.024  17.189   1.740 -0.0781 -0.1198  0.2762
    1W        W39623   7.291  24.814   8.471 -0.1121  0.2712 -0.1091
    1W        W39624   8.021  14.548   7.442 -0.3583  0.0144 -0.0032
    1W        W39625  22.066  11.197   8.620 -0.2473  0.1694  0.0273
    1W        W39626  15.571  12.349   9.307  0.1505  0.0529 -0.1932
    1W        W39627  13.179  18.185   8.513 -0.0307  0.2537 -0.0898
    1W        W39628   4.916  11.612   0.523  0.1165 -0.2872 -0.0557
    1W        W39629   7.437  10.088   2.925 -0.2592  0.1360  0.0444
    1W        W39630  21.581  24.203   0.248 -0.4039  0.0218 -0.1953
    1W        W39631  23.987  23.360   7.125  0.1663  0.1972  0.0203
    1W        W39632  24.733  21.530   9.346 -0.1900 -0.0027  0.0307
    1W        W39633   6.474  19.166   6.518  0.1187 -0.1122 -0.2117
    1W        W39634   0.185  21.414   1.644  0.0468  0.0695 -0.4069
    1W        W39635   2.635   5.312   8.892 -0.0356  0.0155 -0.1198
    1W        W39636  10.853   3.746   9.412  0.2766 -0.0017  0.1949
    1W        W39637   8.658  27.380   8.198  0.0821  0.2975 -0.0111
    1W        W39638  18.530  18.786   9.247  0.2735  0.2580 -0.0243
    1W        W39639   3.653   3.642   8.704 -0.0212  0.1340 -0.1534
    1W        W39640   2.716  22.623   2.688 -0.0819 -0.0510  0.2312
    1W        W39641   8.798  24.410   8.935 -0.0563 -0.2835  0.1709
    1W        W39642   7.943  13.425   0.786 -0.0736 -0.2221  0.1848
    1W        W39643   1.756   8.773   8.070  0.1125  0.1087 -0.1719
    1W        W39644  21.165  25.473   6.482  0.0029 -0.1290 -0.1607
    1W        W39645  27.040  29.872   1.104  0.2452 -0.0551 -0.0208
    1W        W39646  28.124  18.698   2.137 -0.0446  0.1566  0.3090
    1W        W39647  11.586  24.280   2.112  0.3079 -0.0106  0.0858
    1W        W39648  20.806  13.228   7.190  0.0764 -0.0061  0.2319
    1W        W39649  26.127  25.731   0.823  0.1533 -0.2535 -0.0510
    1W        W39650   5.194  21.560   2.237  0.1937  0.1022 -0.1623
    1W        W39651  22.806   1.956   6.593  0.0009 -0.0945  0.1407
    1W        W39652  15.556  18.433   8.739 -0.0008 -0.1042  0.0054
    1W        W39653   1.705  21.347   7.304  0.1219 -0.0715  0.1426
    1W        W39654   5.872   0.950   9.128 -0.0124 -0.0833  0.0264
    1W        W39655  26.001  23.001   9.305  0.0814  0.2555 -0.2462
    1W        W39656   8.103   5.376   2.581 -0.2809 -0.2324 -0.0471
    1W        W39657  28.515   7.069   2.162 -0.2128 -0.0045  0.2282
    1W        W39658   2.009  18.847   7.569 -0.2018 -0.3343 -0.0050
    1W        W39659  17.612   6.047   8.455  0.4043  0.0235  0.1635
    1W        W39660   9.115   7.949   8.833 -0.1976 -0.0396  0.1794
    1W        W39661   1.369   9.582   8.602 -0.0907 -0.0225 -0.0263
    1W        W39662  11.667  20.738   1.816 -0.0643 -0.4682 -0.0829
    1W        W39663   9.557  12.104   8.570 -0.1594  0.0470 -0.2298
    1W        W39664   3.802  26.078   8.205 -0.0442  0.1215 -0.1254
    1W        W39665   7.764   8.459   1.691  0.0786 -0.1034  0.0598
    1W        W39666  12.806  20.378   8.060 -0.2852 -0.2080  0.1563
    1W        W39667   0.908   7.216   3.263 -0.5051 -0.3493  0.0800
    1W        W39668  23.431   5.277   9.085  0.1168  0.0561  0.2265
    1W        W39669  14.094  27.395   0.859 -0.2104 -0.1377  0.0609
    1W        W39670  19.162  17.264   0.224 -0.0731 -0.1306  0.1139
    1W        W39671  12.310  10.233   8.405 -0.0236  0.0486  0.0940
    1W        W39672  23.944  28.969   8.944 -0.1329 -0.0517 -0.0793
    1W        W39673  19.611  23.995   9.063  0.0157  0.2113  0.1488
    1W        W39674   3.097  18.478   6.424  0.0646 -0.0747  0.2345
    1W        W39675   4.562  23.384   9.420 -0.0426  0.0339 -0.0650
    1W        W39676   5.699  16.686   1.505 -0.0678 -0.1056  0.0967
    1W        W39677   6.086   5.066   3.204 -0.3316  0.0610  0.0062
    1W        W39678  13.612  23.410   1.790  0.1738 -0.1024 -0.0963
    1W        W39679  26.926   8.459   1.578  0.0573 -0.1436 -0.0020
    1W        W39680  25.730   5.221   1.199  0.0620 -0.2206 -0.0698
    1W        W39681  12.582  16.715   1.060 -0.1389  0.0054 -0.1709
    1W        W39682  17.796  14.338   8.930 -0.2397  0.1376 -0.1065
    1W        W39683  27.049  14.987   8.220 -0.1458  0.1101  0.0794
    1W        W39684  20.202  21.543   8.649 -0.0392  0.1430 -0.0881
    1W        W39685  27.010   2.524   6.371  0.1796  0.0590  0.0411
    1W        W39686  24.812  11.303   1.600  0.0095  0.1017  0.0890
    1W        W39687   5.754  28.381   3.096  0.0434  0.0594 -0.2323
    1W        W39688  15.427  29.598   3.182  0.1470 -0.0315 -0.0995
    1W        W39689  11.801   4.097   1.905  0.1142 -0.0179  0.0927
    1W        W39690  13.594   5.993   0.724  0.3655  0.0928 -0.0070
    1W        W39691  23.802  28.467   9.198 -0.2222 -0.0681 -0.0061
    1W        W39692  13.660  24.708   0.010  0.2069 -0.1538 -0.1027
    1W        W39693  19.082   6.339   2.408 -0.0917  0.0296  0.0625
    1W        W39694  29.377  11.593   8.096  0.1313 -0.0582  0.2219
    1W        W39695   7.131  28.001   9.377 -0.0754 -0.0332  0.1031
    1W        W39696  24.968  10.143   7.310  0.0177  0.1873  0.0829
    1W        W39697  19.647  18.752   1.993  0.1965 -0.4055 -0.0646
    1W        W39698  12.943   1.141   0.311  0.2647  0.0087  0.0931
    1W        W39699  17.419  12.649   1.187 -0.0660 -0.2155 -0.1921
    1W        W39700  15.613  21.169   0.582 -0.2919 -0.1766  0.3278
    1W        W39701  24.893  25.622   8.389 -0.2214  0.3220  0.2800
    1W        W39702   4.342   4.280   0.454 -0.0108  0.0907 -0.1796
    1W        W39703  14.888   0.865   1.544  0.0089 -0.0436  0.1846
    1W        W39704  10.691   0.419   1.448  0.0302  0.0625 -0.1209
    1W        W39705   1.143   3.827   8.303 -0.1601  0.2660  0.2058
    1W        W39706  26.964  18.956   0.003  0.0296  0.2278  0.0051
    1W        W39707  20.703  21.997   9.364 -0.0098 -0.1395 -0.1177
    1W        W39708  25.349  25.743   7.766  0.1221  0.0783 -0.2743
    1W        W39709   9.252   5.371   7.026 -0.0041 -0.2802  0.2157
    1W        W39710   4.049  16.098   6.666 -0.2516 -0.1096  0.0741
    1W        W39711   0.146  16.459   8.849  0.1069 -0.1492  0.0679
    1W        W39712  20.840  22.625   3.341  0.2866 -0.0054  0.1362
    1W        W39713  15.290  26.796   1.589  0.0004 -0.0562 -0.4493
    1W        W39714  25.566  13.088   2.039  0.2210 -0.0191 -0.2267
    1W        W39715  10.963  18.823   9.274  0.0311  0.2887  0.1014
    1W        W39716  15.046   9.368   1.740 -0.3495 -0.1920 -0.0229
    1W        W39717  12.287  15.730   8.194 -0.0851 -0.1208  0.0264
    1W        W39718   6.613  25.573   7.050 -0.4063 -0.4377  0.0381
    1W        W39719   7.259   3.402   7.686 -0.2214 -0.1568 -0.0198
    1W        W39720   0.116   6.383   2.639  0.1317 -0.1411 -0.0501
    1W        W39721  21.611  13.683   8.314  0.1740  0.0450 -0.0078
    1W        W39722  15.013  13.345   0.739  0.0690  0.1597  0.1559
    1W        W39723  22.751   1.890   0.540  0.1835  0.0512  0.2286
    1W        W39724   7.933  25.220   8.833  0.0529  0.0563 -0.0575
    1W        W39725  24.258   2.062   2.242  0.1712 -0.1900 -0.2153
    1W        W39726  27.257   8.304   6.862 -0.0454  0.1811 -0.0360
    1W        W39727   1.206   1.421   8.756 -0.2112  0.1703 -0.0996
    1W        W39728  17.882   0.312   2.605  0.2484 -0.1943 -0.0579
    1W        W39729   1.849  27.838   1.115 -0.1234 -0.1998 -0.1682
    1W        W39730  27.523  12.736   8.250  0.0590  0.1950  0.2868
    1W        W39731  13.560  15.236   0.647 -0.0724  0.0456  0.0547
    1W        W39732  26.826  23.658   1.946 -0.2718 -0.0412  0.1381
    1W        W39733   9.181   9.052   2.496 -0.2025 -0.3328  0.2822
    1W        W39734  27.373  26.634   8.472 -0.2059 -0.1233 -0.0006
    1W        W39735   5.601  12.932   2.766 -0.2013  0.4000 -0.1477
    1W        W39736  23.183  23.492   1.711 -0.3360 -0.0977  0.0335
    1W        W39737   6.238   0.726   9.385 -0.1613  0.0855  0.0768
    1W        W39738  19.329   4.721   3.165 -0.1116 -0.0830  0.2649
    1W        W39739  15.204   9.616   0.494  0.0963 -0.2004 -0.1590
    1W        W39740   0.314  20.587   6.240  0.2712  0.1279 -0.1609
    1W        W39741   5.314  15.008   1.351  0.1003 -0.1505 -0.0774
    1W        W39742   3.759  27.156   9.269 -0.0652 -0.0181 -0.4356
    1W        W39743  15.627   3.286   7.705  0.2438  0.1020  0.1530
    1W        W39744  26.482  20.779   2.310 -0.1171 -0.0098  0.0670
    1W        W39745  25.788   4.667   2.671 -0.1510 -0.0508 -0.3214
    1W        W39746  10.396  28.785   8.593  0.0108  0.0108 -0.0750
    1W        W39747   7.388  28.315   3.443 -0.1307 -0.2371 -0.0742
    1W        W39748   8.202  17.621   8.278  0.1509  0.0039 -0.2923
    1W        W39749  22.876  16.885   7.966  0.3061  0.1752  0.2498
    1W        W39750  27.905  28.706   1.195 -0.2013 -0.2223 -0.1179
    1W        W39751  12.585  16.090   7.321 -0.0919  0.1179 -0.2692
    1W        W39752  10.237  24.790   7.254 -0.0634  0.0147 -0.0797
    1W        W39753   2.882  11.332   1.096  0.0840 -0.0811  0.2900
    1W        W39754  11.700  21.691   7.880 -0.0795 -0.2179 -0.1976
    1W        W39755  14.757   9.104   8.140 -0.2099 -0.2565 -0.2633
    1W        W39756  16.424  27.044   1.310  0.2318  0.0921  0.4693
    1W        W39757   0.938   9.497   7.296  0.1277  0.0212 -0.2923
    1W        W39758  26.450  27.686   9.293 -0.1257  0.0781 -0.1786
    1W        W39759   6.793  16.892   0.073  0.2385  0.0159  0.1476
    1W        W39760   7.871  11.836   8.837 -0.3107  0.2351  0.3915
    1W        W39761  20.300  13.032   7.969  0.2134 -0.1744 -0.1667
    1W        W39762  28.980  13.423   0.990 -0.3271 -0.0095 -0.0996
    1W        W39763  19.426   2.218   2.066  0.1608  0.1028 -0.0113
    1W        W39764  12.701  17.776   7.462  0.2224 -0.2842  0.0010
    1W        W39765   5.693  14.508   6.261  0.3294 -0.3101  0.1575
    1W        W39766  11.362  10.940   8.265  0.0865  0.3614 -0.2117
    1W        W39767  26.210  22.014   6.904  0.1720  0.0842  0.1292
    1W        W39768  21.018   0.575   1.297  0.0640 -0.1156 -0.0857
    1W        W39769   9.142   0.989   8.050  0.1612 -0.0275  0.1529
    1W        W39770  18.255   9.912   1.631  0.1717  0.0837 -0.1439
    1W        W39771  13.677  16.001   0.955 -0.1290  0.1504 -0.0680
    1W        W39772   5.006  15.358   8.400 -0.0326  0.2368 -0.2036
    1W        W39773   8.850  27.299   2.002 -0.2655 -0.2297  0.1898
    1W        W39774   2.408   6.165   2.324 -0.1466 -0.0264 -0.4179
    1W        W39775  22.672   5.831   1.392 -0.0843  0.0357  0.0570
    1W        W39776   1.490  24.359   8.431  0.0976 -0.0503  0.2441
    1W        W39777  11.449   4.587   7.897 -0.0931  0.1305  0.0415
    1W        W39778   4.872   4.708   0.865  0.0256 -0.0299 -0.0226
    1W        W39779  14.870  16.447   8.001 -0.2782 -0.1675  0.3364
    1W        W39780   8.615  26.544   2.439 -0.1053  0.2125  0.0234
    1W        W39781  19.196   9.355   6.713  0.1976 -0.0824  0.0650
    1W        W39782  17.328  29.215   2.298 -0.1475 -0.0751  0.1054
    1W        W39783   2.632   7.889   6.401 -0.0633 -0.4886 -0.1456
    1W        W39784  25.057   8.598   9.426 -0.2043 -0.1863  0.1115
    1W        W39785  23.725  14.187   7.286  0.0377 -0.0765 -0.0479
    1W        W39786  23.885  11.303   6.511  0.0821 -0.3408 -0.0886
    1W        W39787  28.014   3.792   8.468  0.3609 -0.1811  0.2964
    1W        W39788  23.960  24.107   8.647  0.0291  0.0096  0.2416
    1W        W39789  20.018  23.714   3.003  0.1152  0.1920  0.3826
    1W        W39790  20.938  10.509   1.322 -0.1671  0.1107  0.0940
    1W        W39791  29.359  17.677   2.213 -0.2519 -0.1643 -0.4359
    1W        W39792  19.469   0.920   0.190  0.1467 -0.0427  0.0086
    1W        W39793   8.402  19.150   7.323 -0.0600 -0.2035  0.2245
    1W        W39794   7.770  12.867   6.778  0.4182  0.1924 -0.1834
    1W        W39795  16.814  18.209   1.931  0.1854 -0.0393  0.1556
    1W        W39796  24.633   9.307   2.226 -0.2361  0.0595  0.2129
    1W        W39797   2.621  29.403   1.900  0.1361 -0.0061 -0.0853
    1W        W39798   7.066   7.074   7.634 -0.2323 -0.2833 -0.0239
    1W        W39799   0.211  25.158   1.080 -0.1118  0.0613  0.3581
    1W        W39800   7.544   1.811   3.725  0.0728 -0.1207 -0.0641
    1W        W39801  18.374  20.183   9.240  0.0292 -0.0936  0.4338
    1W        W39802   5.505   9.658   8.956  0.0735  0.0123 -0.0890
    1W        W39803   1.938  10.145   0.158 -0.1345 -0.1173 -0.1137
    1W        W39804  14.614   8.231   7.377  0.0356 -0.0617 -0.0718
    1W        W39805  19.228  25.366   2.431 -0.3559 -0.0922 -0.0388
    1W        W39806  11.822  26.936   7.996  0.0135 -0.0555 -0.1337
    1W        W39807  12.391  17.717   8.436 -0.1619 -0.1934 -0.0486
    1W        W39808  22.776   4.941   9.153  0.1098 -0.0121  0.1177
    1W        W39809   2.174  15.619   8.026  0.0655 -0.0599 -0.1560
    1W        W39810  14.913  23.689   6.860 -0.1686 -0.1007  0.1381
    1W        W39811  20.411  16.666   0.145  0.4626  0.0322  0.0539
    1W        W39812   9.398   2.438   6.803  0.1332  0.0373  0.1689
    1W        W39813  10.079  21.424   2.167  0.1296  0.0173  0.0179
    1W        W39814   4.054  23.440   7.236 -0.0644 -0.1465 -0.1258
    1W        W39815  28.690   8.068   8.480  0.2152  0.1733  0.2328
    1W        W39816   2.538  14.002   0.162 -0.0871  0.1154 -0.0616
    1W        W39817  12.946  24.108   9.373 -0.0329 -0.4113  0.2660
    1W        W39818  10.899   0.579   7.796 -0.0443 -0.0755  0.0306
    1W        W39819   6.789  22.690   6.739 -0.0166 -0.1176  0.0453
    1W        W39820   6.284  25.501   7.961 -0.1608  0.1325 -0.1928
    1W        W39821   1.123   0.250   1.100 -0.2792 -0.2028  0.1924
    1W        W39822  29.439  15.828   6.669  0.0759 -0.0767  0.2713
    1W        W39823   2.765  15.271   6.707  0.1523 -0.1021  0.0238
    1W        W39824   3.973  14.719   8.636  0.4788  0.0081 -0.2265
    1W        W39825   3.205  20.369   8.703  0.1000  0.0936  0.0626
    1W        W39826  16.483  10.907   1.162  0.2605 -0.1078  0.3650
    1W        W39827  16.502  19.948   7.220  0.0305 -0.0508  0.1985
    1W        W39828   3.435  29.426   2.917 -0.0184  0.3233  0.0165
    1W        W39829  23.014   3.054   7.648 -0.0111 -0.2190  0.2827
    1W        W39830  16.559  16.395   1.772  0.1033 -0.0484 -0.0477
    1W        W39831  21.627  25.666   7.233  0.0908  0.2780 -0.1470
    1W        W39832  19.415   8.085   2.197 -0.1861 -0.0781  0.0942
    1W        W39833  26.420   3.887   0.200  0.2522 -0.0297 -0.0771
    1W        W39834  14.059  25.767   2.823 -0.0281  0.0937  0.0356
    1W        W39835  28.094  11.668   2.804 -0.1245 -0.1512 -0.0341
    1W        W39836   0.472  15.296   6.338  0.0740  0.2716  0.3124
    1W        W39837  11.944   0.617   7.032  0.1998 -0.3771 -0.0898
    1W        W39838  14.075  23.130   0.531 -0.4273  0.0307 -0.2140
    1W        W39839  22.023   0.673   8.239  0.0385  0.1944 -0.2189
    1W        W39840  15.978  23.441   6.131 -0.1056  0.1136  0.0805
    1W        W39841  23.969  24.279   6.414  0.0758 -0.1874 -0.0832
    1W        W39842  20.135   8.049   0.108 -0.1385  0.1025  0.3264
    1W        W39843  24.682  28.295   1.020 -0.3650 -0.2007 -0.1540
    1W        W39844   1.827  18.781   1.577 -0.1644 -0.3232 -0.3952
    1W        W39845   5.719  13.130   7.548 -0.0694 -0.1164  0.0347
    1W        W39846  24.222   8.049   7.784  0.0503  0.0543 -0.0489
    1W        W39847  19.200   1.250   7.651  0.0891 -0.1254 -0.0296
    1W        W39848   1.337  24.264   7.155  0.0877 -0.1842 -0.0240
    1W        W39849   3.348  11.467   9.387 -0.0018 -0.2561 -0.0092
    1W        W39850   4.465  24.633   7.277  0.2365  0.0661 -0.0061
    1W        W39851  22.352  23.839   0.616 -0.3676  0.1583  0.4028
    1W        W39852  19.347   8.069   7.040 -0.1467 -0.5400  0.1553
    1W        W39853   3.572  14.895   6.694 -0.0133 -0.2388  0.0964
    1W        W39854  10.860   9.127   7.873 -0.2316 -0.1820 -0.1357
    1W        W39855  14.705  20.331   8.196  0.1706  0.1597 -0.1188
    1W        W39856   0.026  26.588   6.261  0.0977  0.0826 -0.1251
    1W        W39857  15.887   2.943   8.650  0.1203 -0.0060  0.0678
    1W        W39858  11.625  21.540   1.620  0.3301  0.0198 -0.0569
    1W        W39859  10.557  27.359   7.747 -0.2362 -0.1476  0.3392
    1W        W39860  26.648  26.488   1.364  0.0255  0.2199 -0.0943
    1W        W39861   7.611   6.827   1.988 -0.0393 -0.3439  0.1196
    1W        W39862  15.298  11.829   1.234  0.1375  0.0757  0.2061
    1W        W39863   9.234  23.460   8.472 -0.2871 -0.1374 -0.0543
    1W        W39864   9.054  20.326   0.825  0.0690  0.0304  0.0652
    1W        W39865   4.321  28.763   2.568 -0.1463 -0.1848 -0.1756
    1W        W39866  16.075   4.837   9.302  0.0852  0.2180 -0.0500
    1W        W39867  22.813  21.314   7.012 -0.3065  0.0866  0.0923
    1W        W39868   9.826   8.021   9.375 -0.0280 -0.2752 -0.1912
    1W        W39869  13.353  15.619   6.511  0.0715  0.2699  0.0958
    1W        W39870  14.321  20.504   0.023 -0.3079 -0.1318  0.0892
    1W        W39871   3.774  13.923   7.040 -0.1171  0.0404 -0.1166
    1W        W39872  27.819  12.314   7.953  0.1283  0.0621 -0.3257
    1W        W39873   5.889  25.668   7.626 -0.0085  0.0243 -0.0338
    1W        W39874  26.605  28.451   2.540  0.1833  0.0197  0.0998
    1W        W39875  16.935   3.620   1.821 -0.0699 -0.3234  0.0402
    1W        W39876   5.271   6.620   6.937 -0.0084 -0.3089  0.3373
    1W        W39877  24.100   1.933   8.050 -0.0007 -0.1538  0.1162
    1W        W39878  12.893  26.528   0.561 -0.1780  0.1682  0.1253
    1W        W39879  27.699  14.209   5.508 -0.1604 -0.1513  0.1123
    1W        W39880  21.511  22.172   9.414 -0.0790  0.0846 -0.0998
    1W        W39881  10.378  26.353   1.048  0.1519  0.0014  0.1145
    1W        W39882   8.584  18.381   1.246 -0.2939 -0.3087 -0.1275
    1W        W39883   5.599  18.103   6.147  0.2001 -0.2455 -0.2356
    1W        W39884   5.764  11.504   3.210 -0.1644  0.3200 -0.1211
    1W        W39885   9.082   2.843   6.935  0.0292  0.1908 -0.0866
    1W        W39886  10.579  27.704   0.617  0.0650 -0.3759 -0.1893
    1W        W39887  26.652   1.440   7.197 -0.1639 -0.1329  0.2488
    1W        W39888  13.928  17.671   8.303 -0.1509  0.3593 -0.0381
    1W        W39889  26.282  15.455   0.849  0.2339  0.0033  0.0480
    1W        W39890  11.509  13.692   2.036  0.2471  0.0495 -0.1148
    1W        W39891  13.685   7.987   8.043 -0.1336 -0.0565 -0.0286
    1W        W39892  22.587  14.354   1.207 -0.0663 -0.1571 -0.0529
    1W        W39893  29.570  28.686   8.154  0.0150  0.2744 -0.2587
    1W        W39894   7.011   5.633   9.250 -0.2415 -0.1524  0.2015
    1W        W39895  13.683  22.486   8.430 -0.3070  0.0859  0.0379
    1W        W39896  25.084   1.072   8.570 -0.0152  0.0358  0.0462
    1W        W39897  26.310  13.544   0.496 -0.0160  0.2532  0.0030
    1W        W39898   1.067  14.903   1.811 -0.0402  0.3501  0.0141
    1W        W39899  21.926  16.597   6.360 -0.0213 -0.1798 -0.2467
    1W        W39900   3.876  27.221   0.496 -0.0347 -0.1294  0.2631
    1W        W39901   7.536  18.241   1.354  0.0624  0.1516 -0.1799
    1W        W39902  23.821   8.796   8.247  0.1599  0.2278  0.0721
    1W        W39903   5.369  12.995   9.182 -0.0371  0.0259 -0.1343
    1W        W39904  22.362  25.682   8.093 -0.1489 -0.2801 -0.1556
    1W        W39905   5.397   7.375   1.519  0.0099  0.0833  0.0863
    1W        W39906  28.525  27.354   2.344 -0.1374 -0.0660 -0.0155
    1W        W39907   1.326   4.647   8.497 -0.1061  0.1736 -0.0424
    1W        W39908  17.843  22.266   7.626 -0.2688 -0.3406 -0.0043
    1W        W39909  29.833  23.058   6.028  0.0636  0.1618 -0.0629
    1W        W39910  12.253  26.177   7.642  0.0728 -0.1760  0.1676
    1W        W39911   7.582  24.726   0.405 -0.1635 -0.1142  0.1219
    1W        W39912  17.516   2.147   8.603 -0.0317  0.1443 -0.2478
    1W        W39913  22.831  22.860   7.508  0.1043  0.1051  0.0826
    1W        W39914   8.910  10.573   2.112  0.1088 -0.0334  0.1248
    1W        W39915   4.904  15.675   0.734 -0.2414  0.3068 -0.1516
    1W        W39916  26.501   5.227   2.296  0.0477 -0.2113 -0.1984
    1W        W39917  21.271  18.901   8.190  0.0627  0.1800  0.0936
    1W        W39918   7.414   0.370   7.761 -0.2277 -0.1011 -0.0396
    1W        W39919   6.510   9.499   9.369  0.1032  0.0757  0.1366
    1W        W39920   9.423   3.677   1.766  0.0267  0.2107 -0.1230
    1W        W39921  18.507  27.363   2.721 -0.0997 -0.1586  0.0170
    1W        W39922  21.618  28.991   0.749 -0.0737 -0.0010  0.0264
    1W        W39923  22.345  15.535   8.131  0.4213  0.3641  0.0820
    1W        W39924  14.939  10.669   9.062  0.0233  0.2354  0.0260
    1W        W39925   9.072   0.289   2.892  0.0541 -0.0087 -0.0247
    1W        W39926  21.741  18.535   1.883 -0.1241  0.1027 -0.0819
    1W        W39927   8.659   0.007   9.355  0.0650  0.0377 -0.1643
    1W        W39928  25.262  25.965   1.410  0.0595  0.1219  0.1875
    1W        W39929  20.130   8.631   1.258 -0.0525  0.0850  0.2525
    1W        W39930  20.429  17.505   1.043  0.0716  0.0013 -0.0731
    1W        W39931  15.377   3.730   7.967 -0.0158 -0.0083 -0.0553
    1W        W39932  29.059  14.631   0.146 -0.0897 -0.0352 -0.2624
    1W        W39933  18.439   1.118   7.182 -0.2367  0.0503 -0.2211
    1W        W39934  15.535  24.678   9.017 -0.2401  0.2050  0.1139
    1W        W39935  17.374  17.530   0.814  0.1400 -0.1504  0.1963
    1W        W39936  24.274  19.245   1.894  0.0734 -0.3036 -0.0363
    1W        W39937  11.919  23.615   0.306  0.1186  0.1226  0.0001
    1W        W39938  22.402  22.130   7.888  0.0298  0.1448 -0.1722
    1W        W39939  14.765  28.002   0.047  0.0872  0.1220 -0.0364
    1W        W39940  17.513   1.329   6.956  0.0491 -0.0119 -0.2323
    1W        W39941  26.241   1.218   8.703  0.0165 -0.0189 -0.2583
    1W        W39942  26.126   2.325   0.741 -0.0951  0.0679 -0.1761
    1W        W39943   3.490  21.435   7.341 -0.1285  0.0173  0.0371
    1W        W39944  21.316  25.285   3.076  0.1202  0.0406  0.2607
    1W        W39945   6.502  26.190   7.015 -0.0246  0.2875  0.0511
    1W        W39946  22.614   2.634   8.113 -0.0213 -0.0135  0.3566
    1W        W39947  24.370  11.090   1.525  0.0809  0.1759 -0.3363
    1W        W39948  17.988  22.150   9.060  0.0923  0.2501  0.0866
    1W        W39949  13.359  24.754   7.123  0.0587 -0.1354  0.1689
    1W        W39950   7.018  19.807   0.856 -0.1150 -0.0919 -0.0495
    1W        W39951  24.137  22.582   1.765  0.1289  0.0535  0.0593
    1W        W39952  25.990  29.670   0.064 -0.0033 -0.2082 -0.0058
    1W        W39953  17.465   6.129   7.396  0.0623 -0.0646 -0.1424
    1W        W39954  29.102  16.334   0.603 -0.2343  0.1523 -0.2112
    1W        W39955  15.145  14.126   1.832 -0.2558 -0.1625 -0.0062
    1W        W39956   1.369  20.043   9.186 -0.2013 -0.3242  0.1181
    1W        W39957  29.898   5.894   1.544 -0.4144 -0.1959  0.1166
    1W        W39958  19.411  11.543   0.182  0.1881 -0.2052 -0.0271
    1W        W39959   2.298  12.612   2.386  0.0515 -0.4798 -0.0661
    1W        W39960   0.956   2.923   8.594 -0.1482 -0.0388 -0.3110
    1W        W39961   6.649  23.676   5.705  0.0762  0.0744  0.2802
    1W        W39962  23.556  24.833   2.215  0.0232 -0.1751  0.0592
    1W        W39963   4.343  22.660   1.229 -0.1109  0.0961  0.1241
    1W        W39964   1.381  16.954   0.158  0.3711 -0.2675 -0.0941
    1W        W39965  15.516   6.274   8.832  0.1926 -0.0848  0.1510
    1W        W39966   7.718  26.733   2.584  0.0521  0.0769 -0.0234
    1W        W39967   4.183  17.786   6.590 -0.2044  0.1726 -0.0326
    1W        W39968  14.816  28.503   9.411  0.1299  0.2479 -0.1382
    1W        W39969   1.183   2.578   0.341 -0.2648  0.1478  0.4727
    1W        W39970   3.891  15.616   2.399  0.1398  0.0651 -0.0477
    1W        W39971   0.393  22.894   7.321  0.5245  0.3838 -0.2041
    1W        W39972  21.655   1.123   2.544 -0.0338 -0.0260 -0.2304
    1W        W39973  11.479  24.401   1.579 -0.0033  0.1619  0.0911
    1W        W39974  28.392  26.028   1.188 -0.3069  0.0757 -0.1763
    1W        W39975  25.998  18.962   6.885 -0.2256  0.0893 -0.1130
    1W        W39976   7.853  29.121   8.440  0.0532 -0.2483  0.4618
    1W        W39977   5.972  25.859   1.286  0.0834  0.3371 -0.0715
    1W        W39978   8.344  10.605   7.361  0.0083 -0.1139 -0.1718
    1W        W39979  27.975  21.164   6.104  0.2082  0.0124 -0.1744
    1W        W39980   7.471  11.311   1.445 -0.0321  0.1096 -0.3860
    1W        W39981  17.348  24.680   8.687 -0.1323 -0.2155 -0.0679
    1W        W39982   3.480  12.047   6.516  0.4734  0.0171 -0.0875
    1W        W39983  12.394   9.849   1.629  0.1147  0.1122  0.0095
    1W        W39984  29.413  21.767   8.845  0.1176 -0.2062  0.3146
    1W        W39985  29.651   1.146   1.236  0.0875  0.1844  0.0993
    1W        W39986  24.828  21.727   3.539 -0.2006  0.1420  0.3902
    1W        W39987   2.258   6.593   2.693  0.2855 -0.1017  0.0004
    1W        W39988  15.583  22.078   0.394  0.0129  0.1803 -0.0417
    1W        W39989  22.616   3.818   2.892  0.2373 -0.3193  0.0029
    1W        W39990  13.058   3.468   7.529  0.0210 -0.3286  0.3001
    1W        W39991  14.281  26.750   3.629  0.3245  0.1252  0.2560
    1W        W39992  26.290  24.822   2.536 -0.3854 -0.1240  0.0940
    1W        W39993  25.686  17.564   1.689 -0.1052  0.0188 -0.3108
    1W        W39994   8.553  20.947   9.314 -0.0426  0.1705  0.1149
    1W        W39995  21.183  16.449   6.952  0.0101 -0.2484  0.1432
    1W        W39996   4.157  17.802   9.024 -0.1808  0.1058  0.0079
    1W        W39997   8.509  19.794   1.072  0.0460 -0.1544 -0.1512
    1W        W39998  22.505   0.829   0.256  0.2142  0.2675 -0.0621
    1W        W39999   9.958  18.352   9.201 -0.1070  0.1651 -0.0009
    1W        W40000   9.735  12.548   6.414 -0.1375 -0.1043 -0.0052
    1W        W40001   6.341  22.405   2.250  0.1122  0.5590 -0.0823
    1W        W40002  21.888  20.308   1.104 -0.0357 -0.0571  0.0203
    1W        W40003  17.713   8.852   1.447 -0.1760  0.2309  0.4864
    1W        W40004   8.233  26.280   2.261  0.0010  0.1760  0.2815
    1W        W40005  22.648   4.069   6.784 -0.2422  0.1167 -0.1304
    1W        W40006  26.170   3.466   0.177 -0.1415  0.0940  0.1152
    1W        W40007  28.041   1.069   0.768  0.3314  0.0642  0.2494
    1W        W40008  15.265  12.233   8.727  0.0280 -0.3758 -0.3143
    1W        W40009  20.675  28.401   8.487 -0.1723  0.0899  0.0656
    1W        W40010  23.779   8.261   2.292 -0.1333 -0.2246 -0.4039
    1W        W40011  23.648  18.478   2.023 -0.0490  0.0203 -0.1689
    1W        W40012  24.914  14.799   0.540 -0.1643 -0.0392 -0.1149
    1W        W40013   6.354  18.366   2.614 -0.2998 -0.1069  0.0127
    1W        W40014   9.220  23.826   1.348 -0.1835  0.2233 -0.2745
    1W        W40015  26.934  22.536   8.293  0.2470  0.1943  0.0605
    1W        W40016  27.394  17.703   9.345  0.0361  0.0356 -0.1581
    1W        W40017  25.385   5.103   8.447  0.0235  0.2996 -0.1105
    1W        W40018  10.118  21.540   0.199 -0.4654  0.0472  0.0165
    1W        W40019   4.479   7.595   2.273  0.0028 -0.2748 -0.1455
    1W        W40020  26.439  12.311   1.884 -0.2297  0.4116 -0.0102
    1W        W40021  24.189  13.542   7.532  0.2038  0.1849 -0.2409
    1W        W40022  18.944  29.685   2.195  0.2620  0.0289  0.1063
    1W        W40023   0.136  14.206   1.664 -0.2594  0.0431 -0.2038
    1W        W40024  28.808   2.244   7.637 -0.1050  0.0472 -0.5900
    1W        W40025  11.885   4.081   9.413  0.1228 -0.1187  0.0513
    1W        W40026   3.228   1.330   1.959 -0.2153  0.1869 -0.3112
    1W        W40027   4.967  12.854   1.482  0.2223 -0.0695  0.1112
    1W        W40028   8.480  10.900   9.161 -0.0816 -0.1507 -0.2016
    1W        W40029   6.363  17.027   8.378 -0.1943  0.0429  0.1689
    1W        W40030   0.468  20.479   7.713 -0.1229 -0.0536  0.0453
    1W        W40031  26.103   9.674   8.753  0.2463 -0.0216 -0.0853
    1W        W40032  27.177  15.993   6.510 -0.1498  0.1270 -0.1399
    1W        W40033  19.808  14.741   7.567 -0.1975 -0.1745  0.1419
    1W        W40034  10.043   1.733   1.563 -0.1414  0.2596  0.0841
    1W        W40035   9.888  27.144   2.031 -0.0876 -0.2424  0.3001
    1W        W40036  26.958  18.433   8.779  0.0526  0.0080  0.0083
    1W        W40037  27.100   8.786   0.401 -0.0517 -0.0359  0.2298
    1W        W40038  12.747   3.930   2.936  0.0836  0.2452  0.3197
    1W        W40039  18.909  26.247   1.093  0.1828  0.0560 -0.1278
    1W        W40040   2.018   2.848   7.972 -0.0399  0.2337  0.0830
    1W        W40041  22.140  24.179   1.406  0.2095 -0.0257 -0.0443
    1W        W40042   8.923  11.138   9.263  0.1703  0.0091 -0.0680
    1W        W40043  22.256  12.451   8.895 -0.2575  0.1424  0.2170
    1W        W40044  24.061   9.357   7.419 -0.2025 -0.0203 -0.0842
    1W        W40045   2.059   6.137   0.374  0.3655  0.3757 -0.3126
    1W        W40046   9.491  17.114   8.391  0.4068  0.2415 -0.1969
    1W        W40047   7.667   2.136   1.331 -0.0510  0.0290 -0.1446
    1W        W40048  28.353   4.252   6.932 -0.2170 -0.1274  0.2304
    1W        W40049  13.488  12.554   8.767  0.1403  0.3241  0.0398
    1W        W40050  10.026  25.774   8.265 -0.1865  0.0414 -0.2131
    1W        W40051   9.003  17.978   8.497  0.1879  0.0807  0.1212
    1W        W40052  17.617  22.884   7.472  0.3653 -0.0392  0.0412
    1W        W40053  17.992  12.963   7.127 -0.2074  0.3056  0.0659
    1W        W40054  24.673   2.388   8.659  0.1259  0.1813  0.3777
    1W        W40055  23.189  24.743   0.238 -0.1684 -0.0603  0.2394
    1W        W40056  17.966  13.650   1.471 -0.1859  0.0345  0.0588
    1W        W40057  26.693  27.892   3.267  0.1075 -0.1486  0.0144
    1W        W40058   6.019  10.919   1.677  0.2782 -0.0295  0.2509
    1W        W40059  26.504  28.901   9.242 -0.5303  0.2529  0.2325
    1W        W40060  27.589  18.025   0.878 -0.2366 -0.0265 -0.0656
    1W        W40061   2.825   8.441   0.571 -0.0159  0.1900  0.2679
    1W        W40062   3.289  29.323   0.007 -0.0642  0.4448  0.0981
    1W        W40063   1.987  25.341   5.964  0.1866 -0.2773  0.0753
    1W        W40064   3.790   8.173   8.615 -0.2087 -0.0467  0.2598
    1W        W40065  19.572  22.554   2.080 -0.0159  0.0047 -0.0321
    1W        W40066   1.218   9.834   1.292  0.0303  0.2825  0.1516
    1W        W40067   8.034  14.182   7.015  0.2372  0.1507  0.1118
    1W        W40068  25.426  29.425   3.218 -0.0442 -0.0280  0.0705
    1W        W40069  12.712   4.438   2.763 -0.0529 -0.0677  0.0309
    1W        W40070  18.263   9.600   9.169 -0.1138  0.1994 -0.0114
    1W        W40071  28.252  29.244   2.537 -0.0303  0.0907  0.3188
    1W        W40072  13.185  27.950   1.194 -0.1383 -0.1456 -0.1441
    1W        W40073   7.944  14.246   1.629 -0.1015 -0.0081 -0.2663
    1W        W40074  24.793  12.051   8.664  0.0474  0.3204 -0.0874
    1W        W40075  26.658  28.521   7.504  0.1285  0.0101 -0.2678
    1W        W40076   2.793  25.698   0.767 -0.1159 -0.0365  0.1731
    1W        W40077   5.326  19.118   1.547 -0.0514 -0.0287  0.0760
    1W        W40078  19.266  15.433   0.545  0.1206 -0.1376 -0.0804
    1W        W40079  19.059   3.646   2.846 -0.1221  0.3828  0.2257
    1W        W40080  28.801   2.537   7.275  0.2219  0.0010  0.1952
    1W        W40081  26.575  27.316   8.396  0.1868  0.0182  0.0442
    1W        W40082  22.573  24.488   1.119  0.0937  0.4884  0.0480
    1W        W40083  19.655   6.304   0.595 -0.0567  0.3645 -0.3538
    1W        W40084   2.897  29.430   3.219  0.4916 -0.0131 -0.3290
    1W        W40085  11.781  13.769   0.792  0.3846 -0.1529  0.2316
    1W        W40086  14.228   3.896   7.539 -0.2405  0.1182 -0.1100
    1W        W40087  17.630   4.636   2.954  0.4632  0.0280  0.0410
    1W        W40088  12.045  26.689   6.799  0.1963 -0.0162  0.0274
    1W        W40089  17.537  14.825   8.965 -0.0480 -0.2897 -0.3361
    1W        W40090  20.507   8.299   7.047  0.4559 -0.0803  0.0770
    1W        W40091  27.463  28.084   0.375 -0.1087 -0.2157 -0.0864
    1W        W40092  25.323  27.735   2.092 -0.2571 -0.1056 -0.1201
    1W        W40093  17.039  16.395   1.844 -0.2355 -0.1389 -0.2043
    1W        W40094   3.417   2.220   2.217  0.5517  0.0283  0.2648
    1W        W40095  26.842  22.753   2.792  0.1087  0.1952 -0.3102
    1W        W40096   9.963  20.046   6.173 -0.0852 -0.1349 -0.0882
    1W        W40097  14.121  21.464   8.043  0.0627  0.2395  0.0624
    1W        W40098   0.544  26.858   1.270  0.0275 -0.0949 -0.1361
    1W        W40099  17.389   5.420   0.174  0.1955 -0.0538  0.1194
    1W        W40100  20.998   4.054   7.191 -0.1024  0.1149 -0.3194
    1W        W40101   5.556   7.918   8.604  0.0648  0.3416 -0.1486
    1W        W40102  22.063   2.210   2.679  0.0287  0.0557  0.2031
    1W        W40103  21.997  15.591   0.328  0.2285  0.1889 -0.1115
    1W        W40104   9.724   7.165   2.859 -0.0563  0.1035  0.3559
    1W        W40105  25.650   0.837   0.968  0.1786 -0.1789  0.0822
    1W        W40106  27.012  16.511   8.101  0.0227  0.3122  0.2898
    1W        W40107  24.528  15.357   8.478  0.1103  0.2435 -0.0027
    1W        W40108   7.825   3.078   9.425 -0.1082 -0.0358  0.4327
    1W        W40109   5.041  22.575   1.465 -0.0097 -0.2217  0.3478
    1W        W40110  22.503  24.041   8.121 -0.0608 -0.1162 -0.0288
    1W        W40111  26.588  29.239   6.305 -0.1822  0.0330  0.1533
    1W        W40112   0.605  23.286   0.365  0.2325  0.0804 -0.2961
    1W        W40113  27.179  24.022   6.854  0.1893  0.6611 -0.1739
    1W        W40114   7.740  12.649   8.535  0.0945  0.0850 -0.1442
    1W        W40115   5.001  27.985   2.488 -0.0469  0.1869  0.1483
    1W        W40116   4.687  23.704   6.502 -0.0750 -0.1288  0.0962
    1W        W40117  10.955  14.472   1.959  0.0825  0.4047 -0.2008
    1W        W40118   0.518  12.247   0.510 -0.0351  0.2197 -0.0911
    1W        W40119  19.867   8.077   7.821  0.1455 -0.1383  0.0555
    1W        W40120  18.071   8.673   6.782  0.2599  0.0755 -0.0692
    1W        W40121   8.947   0.332   1.264 -0.1101 -0.0431  0.3844
    1W        W40122  11.289   8.452   9.409  0.1722 -0.2494 -0.3580
    1W        W40123   0.596  27.625   7.572  0.0185 -0.1089 -0.2241
    1W        W40124  18.444  25.052   9.265  0.0566 -0.0282 -0.1733
    1W        W40125  17.096   7.465   0.212  0.0139  0.2318  0.0619
    1W        W40126  11.396  17.025   0.146 -0.1248 -0.0712 -0.0966
    1W        W40127   9.291   1.960   1.171  0.1657  0.0357  0.1254
    1W        W40128  17.449  22.220   0.879 -0.2398 -0.1704 -0.1100
    1W        W40129  18.309  16.118   1.021  0.0502  0.1383  0.1414
    1W        W40130   4.786   2.451   8.451 -0.0019  0.0152  0.0178
    1W        W40131  18.370  21.397   9.149  0.2020  0.1674  0.1494
    1W        W40132   0.745   3.055   9.184 -0.3248  0.2139  0.1474
    1W        W40133  16.005  24.917   9.323 -0.1522  0.4361  0.2333
    1W        W40134   8.848  18.016   6.740 -0.1246 -0.1883  0.1041
    1W        W40135  14.156   1.861   2.023 -0.1658 -0.3366 -0.1210
    1W        W40136   2.307  10.323   7.426  0.3320  0.1180  0.1351
    1W        W40137  20.463   1.056   9.382 -0.3170  0.0497 -0.0059
    1W        W40138  24.342   6.770   9.346 -0.0867 -0.0240 -0.1472
    1W        W40139  16.643  28.099   7.954 -0.0233  0.0442  0.0796
    1W        W40140  29.621   6.989   8.327  0.0075  0.2084  0.3716
    1W        W40141   7.772  11.929   2.061  0.2316  0.3855  0.1163
    1W        W40142  27.909   0.520   0.385 -0.1781  0.0069  0.0149
    1W        W40143  22.044   5.949   1.122  0.1795  0.3143  0.0808
    1W        W40144   6.450  22.161   0.774 -0.0262  0.2590  0.0398
    1W        W40145  13.639  23.915   0.733  0.0578 -0.1266  0.0394
    1W        W40146   2.112  19.807   7.283  0.0919 -0.0716  0.2293
    1W        W40147  15.190  10.662   7.838  0.0300 -0.0431  0.2603
    1W        W40148   2.386   9.749   0.610 -0.1346  0.2411  0.2753
    1W        W40149   0.096  26.824   2.479 -0.0255 -0.2637  0.2165
    1W        W40150  20.544  11.770   1.973  0.1306  0.4868  0.0590
    1W        W40151  27.252   9.892   7.959  0.2284 -0.3439 -0.3114
    1W        W40152  27.982  13.068   9.297 -0.0709  0.2169 -0.0433
    1W        W40153   4.156  20.543   9.297  0.1587 -0.0994  0.0699
    1W        W40154  23.682   7.382   8.739  0.0910 -0.0484  0.0581
    1W        W40155   6.028  23.580   2.819  0.0876 -0.0383  0.1854
    1W        W40156  13.706  26.751   9.141  0.0176 -0.0821 -0.0159
    1W        W40157   0.611  25.437   1.049 -0.1967 -0.5423 -0.0146
    1W        W40158   5.087   8.378   0.959  0.2394 -0.0149  0.0133
    1W        W40159  24.186  23.346   6.583 -0.1294  0.0969 -0.0254
    1W        W40160   2.595  12.343   8.148 -0.1640  0.0300  0.1466
    1W        W40161  13.389   7.780   1.207  0.3973  0.2308  0.2327
    1W        W40162   4.446  21.416   5.606  0.1042  0.2433 -0.4111
    1W        W40163  10.190  28.612   7.637 -0.1269 -0.4211 -0.4060
    1W        W40164  24.458   0.861   3.014  0.2760 -0.0884  0.0921
    1W        W40165  24.250   5.318   1.423  0.1718 -0.2042  0.1125
    1W        W40166  20.789  26.998   1.169  0.0010  0.3281  0.0327
    1W        W40167   2.098   8.200   9.132  0.2141 -0.2939  0.0650
    1W        W40168  23.264  25.085   7.954 -0.1288  0.3675  0.0065
    1W        W40169  29.854  27.305   6.990 -0.0777  0.0960  0.0127
    1W        W40170  18.002   5.023   6.864  0.1582  0.4082 -0.0069
    1W        W40171   5.786  13.491   1.270  0.2959 -0.1447 -0.3424
    1W        W40172  10.889  24.749   6.587  0.0712  0.0050 -0.0708
    1W        W40173   0.131  26.158   1.712 -0.1447  0.1016 -0.0613
    1W        W40174  18.883   7.433   7.245  0.0826 -0.2892  0.2175
    1W        W40175  27.017   5.249   7.758 -0.1945  0.3758  0.1716
    1W        W40176   6.530   7.006   7.988 -0.1015 -0.2193 -0.2087
    1W        W40177  29.326  23.809   1.288 -0.2443  0.2045  0.2025
    1W        W40178  19.343  13.374   9.237 -0.1222 -0.0261 -0.1778
    1W        W40179   8.777   4.322   2.691  0.1159  0.1375  0.0799
    1W        W40180  16.351  18.116   1.790 -0.2240 -0.1392 -0.0612
    1W        W40181  21.141   1.349   7.568  0.0633  0.2972 -0.1608
    1W        W40182  17.355  22.153   6.707 -0.0467 -0.0799 -0.1690
    1W        W40183   2.071   3.860   2.273 -0.0093  0.1146  0.0464
    1W        W40184   5.827  11.356   7.266 -0.2158 -0.2458 -0.0346
    1W        W40185  12.802  28.875   7.916 -0.0690 -0.0605 -0.1216
    1W        W40186   2.790  18.104   2.123  0.0781  0.0204  0.1330
    1W        W40187   9.137  26.835   6.906  0.1019  0.2301  0.0669
    1W        W40188   7.516   9.942   2.037  0.1840  0.2003  0.0541
    1W        W40189   3.472  16.763   0.162 -0.2542 -0.0337 -0.0190
    1W        W40190   8.240  18.787   1.358  0.3498 -0.2577  0.0889
    1W        W40191  19.864   0.366   1.255  0.0325  0.0628  0.0805
    1W        W40192  12.587   9.719   2.494 -0.0139 -0.1272  0.1176
    1W        W40193   6.819   3.260   0.547 -0.2248 -0.1927 -0.1004
    1W        W40194  24.334  22.996   6.978 -0.0895 -0.1700  0.0513
    1W        W40195   8.411   9.724   7.767 -0.0168 -0.2974 -0.1959
    1W        W40196  14.353  24.076   0.534  0.2981  0.0195 -0.1384
    1W        W40197   7.745  27.883   3.295 -0.0613  0.2300 -0.0091
    1W        W40198  11.226   0.529   8.468 -0.1229 -0.0072 -0.1557
    1W        W40199  25.646   8.032   1.019 -0.2383  0.0318  0.1673
    1W        W40200   8.710   4.351   1.815 -0.0022  0.0056 -0.0167
    1W        W40201  25.171   3.462   8.197 -0.0732 -0.2031  0.2772
    1W        W40202  15.618  14.154   8.966 -0.0009  0.1722 -0.0999
    1W        W40203  21.301   9.530   7.846  0.1257 -0.0721  0.1824
    1W        W40204  13.976  28.213   2.889 -0.1531 -0.0331 -0.0119
    1W        W40205  18.827   4.116   2.903 -0.0291  0.2853 -0.1929
    1W        W40206  20.265   1.335   6.896 -0.0801  0.0111  0.3166
    1W        W40207  10.619  28.426   0.043 -0.0907  0.0613 -0.2675
    1W        W40208  12.680  27.051   1.549  0.2070 -0.1527 -0.1548
    1W        W40209  18.285  26.903   7.288  0.0339 -0.1334  0.0372
    1W        W40210  17.244  21.865   1.248 -0.0206 -0.0935 -0.2393
    1W        W40211  15.519   6.768   1.881  0.0405 -0.1994  0.1828
    1W        W40212  18.539  29.646   2.901 -0.1462  0.1748 -0.3017
    1W        W40213  24.369  16.628   6.213  0.0122  0.0192  0.2266
    1W        W40214  13.578  27.180   8.759 -0.3437  0.2597  0.0478
    1W        W40215   3.402  19.390   2.264  0.0584  0.0913 -0.2957
    1W        W40216   6.403   9.953   1.115 -0.0956 -0.1670  0.3028
    1W        W40217   8.685  23.558   1.320  0.2736  0.2817 -0.0446
    1W        W40218   4.335  17.462   8.327 -0.1551 -0.0682 -0.1013
    1W        W40219   8.730  23.254   7.120  0.1083 -0.0766 -0.0942
    1W        W40220  14.994   6.437   0.214 -0.0431 -0.1176  0.1524
    1W        W40221   8.585   1.959   2.594  0.1973  0.0562 -0.1091
    1W        W40222   2.742  11.906   7.018 -0.2085 -0.2739 -0.1848
    1W        W40223  16.901  23.462   2.908 -0.0319 -0.1016 -0.2106
    1W        W40224  12.871  21.036   6.871  0.0414 -0.0710  0.1436
    1W        W40225   1.539   9.477   1.362  0.4326 -0.2471  0.0248
    1W        W40226  18.450   9.059   1.608  0.1168  0.1765 -0.0173
    1W        W40227   8.190  10.437   1.710  0.0665  0.2919 -0.2216
    1W        W40228  10.313  17.809   0.289 -0.0551  0.0540  0.1586
    1W        W40229  11.085  25.083   2.326  0.0959 -0.2128 -0.2464
    1W        W40230  29.404  12.478   1.430 -0.0188  0.1788  0.0798
    1W        W40231   5.832  22.776   8.798 -0.1922 -0.1009 -0.0277
    1W        W40232  29.129  26.968   8.731 -0.0676 -0.2079  0.0865
    1W        W40233  25.768  17.325   2.332 -0.0324  0.0367 -0.1405
    1W        W40234  20.774  21.572   7.816 -0.1204  0.1269 -0.0838
    1W        W40235  10.622  25.596   1.619 -0.0499  0.0829 -0.0566
    1W        W40236   5.462  14.158   0.178 -0.3024 -0.0160 -0.0248
    1W        W40237   4.035  19.105   7.623  0.1621 -0.0121 -0.0154
    1W        W40238  27.998  16.109   2.467 -0.0508  0.1683  0.0864
    1W        W40239  16.711  26.782   6.761 -0.1378  0.4444  0.2433
    1W        W40240   4.686   6.982   3.259  0.0757 -0.0376  0.1805
    1W        W40241  18.469   0.537   1.157  0.1078  0.1520 -0.1765
    1W        W40242   7.923   5.531   0.264  0.1848  0.0820 -0.2205
    1W        W40243  24.682   9.027   8.406  0.0409  0.0070 -0.0681
    1W        W40244   5.175  20.214   7.988 -0.2101 -0.0067 -0.1491
    1W        W40245   0.355  10.926   8.841 -0.1786  0.1239  0.2877
    1W        W40246   1.710  29.739   8.341 -0.0311 -0.2990  0.1510
    1W        W40247  25.323   3.196   8.584 -0.2264  0.0857 -0.1337
    1W        W40248   3.391  27.065   8.857  0.1884  0.1137  0.1892
    1W        W40249  13.716  11.563   8.530 -0.0014  0.0221  0.0687
    1W        W40250  23.762   3.457   0.569 -0.1723 -0.0726 -0.1067
    1W        W40251  26.055  11.567   8.828 -0.1511  0.1275  0.2684
    1W        W40252   1.799  28.170   7.890  0.1105 -0.1110  0.2508
    1W        W40253  28.803  12.220   6.029  0.0785  0.0379  0.2577
    1W        W40254  26.326  10.914   7.885 -0.0348  0.1843  0.3414
    1W        W40255   5.380  11.387   7.481 -0.0987 -0.0730  0.0657
    1W        W40256  16.740  19.449   7.439 -0.1142 -0.0021 -0.0392
    1W        W40257  28.163  19.776   2.615 -0.3193  0.0553  0.2592
    1W        W40258   3.016  23.180   1.508  0.0283 -0.3951  0.1245
    1W        W40259  20.661  29.682   3.386  0.0085 -0.2636 -0.0873
    1W        W40260   4.928  25.917   1.337  0.0471  0.0149 -0.1226
    1W        W40261   2.067   1.533   8.390  0.1725 -0.0002  0.2568
    1W        W40262  15.946  20.559   2.214 -0.4303  0.2788  0.0441
    1W        W40263   9.084  22.037   9.465 -0.4526  0.1172  0.0177
    1W        W40264  26.393  23.720   2.177  0.0787  0.0493 -0.1244
    1W        W40265  21.694  28.492   0.683 -0.1986  0.0863 -0.1595
    1W        W40266  26.110   4.720   6.831  0.3510  0.1573 -0.1785
    1W        W40267   6.185  23.649   9.013  0.1877  0.1102 -0.3071
    1W        W40268   6.722  28.599   0.760  0.0798 -0.1142 -0.0635
    1W        W40269  24.089  19.709   2.237  0.2214 -0.0003 -0.2193
    1W        W40270  25.397  15.881   7.315  0.3526  0.4039  0.1846
    1W        W40271  22.277   3.952   1.238 -0.1166 -0.2084  0.2937
    1W        W40272   0.649   5.977   0.081  0.1667  0.0033 -0.1499
    1W        W40273  21.709   8.756   7.418  0.1208  0.1684  0.0866
    1W        W40274   4.485  13.970   1.892 -0.1314 -0.1627  0.1170
    1W        W40275  21.948  20.728   1.873 -0.2449 -0.1097 -0.2220
    1W        W40276  23.854  23.973   7.689  0.1118 -0.2322 -0.2670
    1W        W40277  11.617  17.474   8.638 -0.0711  0.1395 -0.0420
    1W        W40278  21.496  21.801   7.050  0.1015  0.2621  0.0303
    1W        W40279   2.164  12.822   8.014 -0.1559  0.0446  0.3122
    1W        W40280   3.004  20.635   0.442  0.1194 -0.2712  0.0747
    1W        W40281  15.819   2.560   1.441  0.0086  0.0183 -0.1568
    1W        W40282  22.991   8.561   8.693 -0.0505 -0.2172 -0.0950
    1W        W40283   2.371  22.005   7.635  0.1366  0.3745  0.2235
    1W        W40284  24.096   7.192   1.481  0.1748  0.1774  0.2347
    1W        W40285   3.317  14.525   7.900  0.0771 -0.1629 -0.0907
    1W        W40286  19.947   5.191   6.449 -0.0150  0.0977 -0.3456
    1W        W40287   2.661  16.162   7.030 -0.2240 -0.3004 -0.1933
    1W        W40288  19.252  22.076   0.587 -0.0189  0.1993 -0.1409
    1W        W40289   5.008  17.378   1.124 -0.1467 -0.1081 -0.0572
    1W        W40290   3.616   5.487   2.080  0.2053 -0.1067 -0.0069
    1W        W40291  11.314  23.025   9.167  0.0405 -0.0818  0.1728
    1W        W40292  20.636   6.836   7.225 -0.0993 -0.1936 -0.2958
    1W        W40293   5.394  22.836   9.231 -0.1659  0.2233 -0.1474
    1W        W40294  19.152  29.061   1.237  0.3885 -0.2825  0.0467
    1W        W40295  19.488  18.467   0.312  0.2303  0.2353 -0.0483
    1W        W40296  16.900  29.062   2.566 -0.0065  0.0407  0.0777
    1W        W40297  18.654  26.354   2.821 -0.1391  0.0871  0.1306
    1W        W40298   1.190  29.748   3.192  0.1457  0.1756 -0.0568
    1W        W40299   9.399  24.648   0.301  0.0358 -0.2173 -0.1216
    1W        W40300   5.315   5.161   7.690 -0.0043  0.0376 -0.0272
    1W        W40301   7.710   7.728   3.573 -0.2552  0.0607  0.0181
    1W        W40302  25.027  21.615   8.510  0.0642  0.0316 -0.0848
    1W        W40303  19.607  10.143   6.425  0.0564  0.0278  0.1573
    1W        W40304  27.531  23.028   7.584 -0.1213  0.0647 -0.2265
    1W        W40305  26.536  19.955   3.349 -0.2895 -0.0444  0.0872
    1W        W40306  15.519   0.156   3.101 -0.2346 -0.1440 -0.2124
    1W        W40307  10.655   2.504   1.805  0.1737 -0.0048  0.0104
    1W        W40308  14.512  20.924   8.953  0.2152 -0.1777 -0.3798
    1W        W40309  15.530  26.073   8.520 -0.2101 -0.2398 -0.2634
    1W        W40310  24.837  29.619   1.845 -0.1305  0.2502  0.0090
    1W        W40311   3.220   9.622   1.270  0.0154 -0.2543  0.0880
    1W        W40312  10.973  27.704   8.432 -0.2255  0.1278  0.1168
    1W        W40313   3.350   7.313   1.124 -0.1671  0.2556  0.1167
    1W        W40314   1.753  28.985   2.213 -0.3140 -0.0565 -0.1016
    1W        W40315   1.789   2.612   1.184 -0.1145  0.1508  0.0457
    1W        W40316   7.040  17.419   6.980 -0.0001  0.3838  0.1885
    1W        W40317  28.226   5.620   3.010  0.1791 -0.0001 -0.1418
    1W        W40318  25.834  13.903   0.884  0.3472 -0.1597 -0.2320
    1W        W40319  21.298  17.094   0.025  0.0540 -0.0964 -0.0659
    1W        W40320  12.857   0.892   1.999  0.0056  0.2434 -0.1056
    1W        W40321   0.341   1.304   2.587  0.0213 -0.2761  0.0952
    1W        W40322  27.549  20.124   0.063 -0.1995 -0.0671  0.2834
    1W        W40323  16.840  21.947   1.476  0.3133 -0.3798  0.0049
    1W        W40324  29.814  24.925   8.685 -0.1667 -0.0027  0.0013
    1W        W40325  14.366   0.588   2.785 -0.1979  0.1261 -0.1751
    1W        W40326  18.659   4.771   0.371  0.0047  0.0127 -0.1088
    1W        W40327   0.117  17.616   2.003 -0.4707 -0.1174 -0.2641
    1W        W40328  17.272  20.444   1.264 -0.3002  0.4477  0.1852
    1W        W40329   1.425  26.233   7.867 -0.1275  0.2299 -0.1812
    1W        W40330  28.065   7.355   2.166 -0.0969  0.1639 -0.1003
    1W        W40331  18.863  23.688   8.736 -0.3716 -0.0067  0.0931
    1W        W40332   3.239  25.572   2.394  0.1742  0.2961 -0.0628
    1W        W40333   0.063   2.722   7.487  0.0062 -0.1088 -0.2866
    1W        W40334  11.304  25.074   7.245  0.0405 -0.0060  0.3013
    1W        W40335   1.550   0.244   8.676 -0.2811  0.2832  0.0949
    1W        W40336  15.494  18.188   0.634  0.0763  0.3115  0.2318
    1W        W40337  29.250  21.299   7.596  0.0930  0.2200  0.2017
    1W        W40338   2.877   1.763   7.300 -0.3371 -0.0585 -0.2712
    1W        W40339   2.295   0.376   0.013 -0.0477  0.2562 -0.0982
    1W        W40340  14.421  14.886   8.091 -0.1153 -0.1882  0.0053
    1W        W40341   2.328   1.055   7.071  0.0301  0.0147  0.1905
    1W        W40342  18.113  10.747   7.490  0.0197  0.0184  0.0312
    1W        W40343  29.874  18.423   7.745  0.2792  0.1582  0.2626
    1W        W40344  11.659   9.284   7.092  0.1256 -0.1666 -0.0611
    1W        W40345  24.928   0.320   0.319 -0.0307 -0.0535  0.0512
    1W        W40346  17.418  14.523   2.288 -0.2736 -0.1377 -0.0237
    1W        W40347  12.827   8.521   7.112  0.0810 -0.2428 -0.0747
    1W        W40348   7.703  22.866   9.089 -0.0198 -0.3468 -0.2789
    1W        W40349  22.649   0.263   0.499  0.0132 -0.0233 -0.5957
    1W        W40350  18.115  11.815   8.772  0.0143  0.2027 -0.0791
    1W        W40351   1.122  24.450   7.622  0.1228  0.1449  0.0551
    1W        W40352   8.191  12.125   9.085 -0.1499  0.2495  0.1571
    1W        W40353  18.829  26.332   1.919  0.2809 -0.2542 -0.1208
    1W        W40354  10.831   3.648   1.549 -0.1622 -0.1268  0.1160
    1W        W40355  29.119  17.308   8.816  0.2245 -0.0165 -0.0189
    1W        W40356  22.468   4.597   9.418  0.1475 -0.0139  0.1945
    1W        W40357  29.328  13.010   1.338 -0.2129  0.0863 -0.1322
    1W        W40358   7.205  26.768   1.871  0.1480 -0.3356  0.0972
    1W        W40359   8.762  10.230   8.427 -0.2896 -0.0721 -0.3537
    1W        W40360   4.993  26.955   6.436  0.2726  0.3817  0.1665
    1W        W40361  22.177   4.602   8.544 -0.1571  0.3658 -0.0125
    1W        W40362  25.443   2.796   6.888 -0.2640 -0.0307 -0.3837
    1W        W40363   1.898   9.685   1.859  0.1154 -0.3138  0.0923
    1W        W40364   5.951   6.773   9.251 -0.2323  0.1983  0.2142
    1W        W40365  16.288  18.325   8.050 -0.4778 -0.0986 -0.2837
    1W        W40366  24.393  24.500   2.915  0.2559 -0.1569  0.2359
    1W        W40367   5.046  15.692   0.252 -0.0105  0.2558  0.1647
    1W        W40368   1.658  28.067   1.497  0.5098 -0.0891 -0.3850
    1W        W40369  12.283  23.983   7.936  0.3140  0.3181 -0.2931
    1W        W40370   4.941  12.104   9.430  0.0931 -0.0329  0.2293
    1W        W40371  14.822   8.308   2.463 -0.1352 -0.1307  0.1658
    1W        W40372  10.130  16.576   1.446 -0.0641  0.4944  0.1332
    1W        W40373  12.087   2.097   3.556  0.1856  0.0392 -0.1139
    1W        W40374  20.580   3.653   7.321  0.0611 -0.0078  0.1055
    1W        W40375  10.031   5.899   0.976  0.0261  0.0010 -0.2210
    1W        W40376   6.588  29.872   8.601  0.0198  0.0094  0.1950
    1W        W40377  15.169  16.416   1.326 -0.3660 -0.1019  0.0481
    1W        W40378  18.764  16.457   1.012  0.1455 -0.2590  0.1324
    1W        W40379  22.481  20.579   2.511 -0.0475 -0.0430  0.0585
    1W        W40380   1.581  19.796   0.159  0.1394  0.1090 -0.1910
    1W        W40381   4.168  18.857   6.725  0.1986 -0.2351 -0.1252
    1W        W40382  25.576   2.477   0.830  0.0997  0.1769 -0.0601
    1W        W40383  10.871   2.941   9.067 -0.3401  0.0853 -0.1896
    1W        W40384  27.965   1.621   2.046 -0.2661 -0.1421  0.0581
    1W        W40385  13.223  21.742   8.025 -0.0735  0.0488 -0.2856
    1W        W40386   7.700  20.791   6.897 -0.0096 -0.3217 -0.0216
    1W        W40387  28.210  11.086   6.443 -0.0430 -0.1033  0.2507
    1W        W40388  17.557   9.796   6.312  0.0799 -0.3594  0.2098
    1W        W40389  18.068  18.044   7.479 -0.1388  0.3395 -0.2725
    1W        W40390  28.531  13.771   0.900  0.2039 -0.2053 -0.4173
    1W        W40391  15.158  21.626   6.906 -0.0572  0.2617 -0.1210
    1W        W40392  13.438   7.310   7.550 -0.0605  0.1107  0.1406
    1W        W40393  12.007   7.489   8.396  0.0637 -0.0115  0.2450
    1W        W40394  23.866   0.250   8.974  0.1861 -0.0881 -0.1391
    1W        W40395  14.552  23.267   6.965  0.0556  0.0027  0.0528
    1W        W40396  19.743   2.519   3.184 -0.0425 -0.0900 -0.0336
    1W        W40397  19.504  20.924   2.654 -0.0775  0.0748  0.0244
    1W        W40398  24.540  11.578   8.610  0.0880 -0.1131  0.0066
    1W        W40399  11.162  24.667   2.028  0.2225  0.0032 -0.0707
    1W        W40400  20.468  21.709   1.342  0.0886 -0.1822 -0.1128
    1W        W40401  19.511  16.484   8.389  0.2084 -0.1236  0.2454
    1W        W40402   2.458  21.486   0.351  0.1170  0.3256  0.0256
    1W        W40403   2.400   3.238   7.101  0.1956 -0.0826 -0.0549
    1W        W40404  24.127  29.399   0.828 -0.2373  0.0587  0.1000
    1W        W40405  17.231  23.556   3.279 -0.0883 -0.2109  0.0429
    1W        W40406   0.723  19.357   7.448  0.0347 -0.3608  0.1586
    1W        W40407   5.750  14.312   1.778  0.0792 -0.1684  0.3921
    1W        W40408  28.628   9.530   8.378 -0.1779  0.0134 -0.1695
    1W        W40409  12.162  18.966   2.011  0.1118 -0.2525 -0.0168
    1W        W40410   4.511  27.334   8.831 -0.0986  0.1509 -0.4101
    1W        W40411  18.115  19.953   7.676  0.1748 -0.1605 -0.0684
    1W        W40412   0.155   0.759   7.268 -0.2358  0.1337 -0.0003
    1W        W40413   5.413   0.520   8.283  0.2099  0.0436  0.0263
    1W        W40414  19.097   4.530   0.521 -0.1074  0.3269 -0.0673
    1W        W40415  27.627   8.691   8.357 -0.1571  0.1443  0.0312
    1W        W40416  15.650   8.362   0.856  0.1139 -0.3507 -0.0985
    1W        W40417  26.750  16.542   2.538  0.0967 -0.1865 -0.1842
    1W        W40418  29.624  27.082   2.666 -0.1158 -0.0141 -0.1962
    1W        W40419  29.493  19.179   9.401 -0.0626 -0.0107  0.2284
    1W        W40420  24.709   1.541   6.784  0.0086  0.1211  0.1536
    1W        W40421  29.562  25.028   8.026 -0.2637  0.1989  0.1250
    1W        W40422   1.596   5.078   8.955 -0.0583 -0.0459 -0.1304
    1W        W40423  21.198  21.605   8.683 -0.2998 -0.1798 -0.0328
    1W        W40424  22.656   0.453   7.601  0.3888  0.4988  0.3700
    1W        W40425   1.962   2.318   2.551  0.2427  0.0871 -0.0214
    1W        W40426  29.542   4.052   9.391  0.2097 -0.0014  0.1808
    1W        W40427  28.778  10.207   2.210  0.0596 -0.2461  0.2154
    1W        W40428  16.216  26.134   0.887 -0.2831  0.0749  0.4258
    1W        W40429  24.562   6.778   8.200 -0.0858  0.3611 -0.2508
    1W        W40430   5.035  13.539   6.784 -0.3022 -0.1097 -0.1456
    1W        W40431  10.652   1.827   7.511 -0.1489  0.0429  0.0797
    1W        W40432   0.593  21.796   0.589  0.0674  0.0376  0.3084
    1W        W40433  26.273   2.792   8.547  0.0846  0.2416 -0.0259
    1W        W40434  10.303   1.335   8.980  0.4296  0.3322 -0.0874
    1W        W40435  29.668  10.939   1.995 -0.1972 -0.2246 -0.0719
    1W        W40436  22.322  17.676   7.535 -0.0282  0.0670  0.2334
    1W        W40437   0.925  26.907   1.833  0.1184 -0.0780  0.2303
    1W        W40438  26.059  13.446   1.003 -0.3489  0.0071  0.1922
    1W        W40439  14.609  24.391   2.005 -0.0162 -0.0108 -0.2968
    1W        W40440  16.189   3.736   6.505  0.1480 -0.3338  0.2181
    1W        W40441  18.674  27.869   0.425 -0.0096 -0.1468 -0.0674
    1W        W40442  12.790  18.039   9.240 -0.1944  0.1026  0.0010
    1W        W40443  16.611   0.164   7.500  0.0446  0.3915  0.3093
    1W        W40444   3.238  15.735   1.797 -0.0772 -0.2766  0.2923
    1W        W40445   2.111   9.468   7.454  0.2411 -0.2886  0.0201
    1W        W40446  12.140   5.353   0.273 -0.1039  0.1637 -0.1783
    1W        W40447   4.543  28.441   6.199 -0.1395 -0.0500  0.0757
    1W        W40448  19.406  29.401   0.449 -0.0640 -0.0813  0.2787
    1W        W40449   5.629  17.869   1.185 -0.0107 -0.1773  0.1627
    1W        W40450   4.655   0.996   1.930  0.0132 -0.3595  0.2042
    1W        W40451   2.500  26.956   6.388 -0.1703 -0.0926 -0.0185
    1W        W40452   1.049  10.011   0.594  0.3266 -0.2077 -0.1477
    1W        W40453  12.195  21.660   7.856  0.0568  0.1198  0.3109
    1W        W40454  17.381  26.565   9.060  0.0669  0.2019 -0.1423
    1W        W40455  27.957  23.100   2.152  0.1173  0.1934 -0.1182
    1W        W40456  23.153  14.931   6.973  0.1056  0.1191 -0.1685
    1W        W40457  21.286  10.977   8.933 -0.1481  0.2486  0.0550
    1W        W40458  22.019   3.550   7.346 -0.0874 -0.1486 -0.1698
    1W        W40459  12.266  26.400   3.239  0.0215 -0.1567  0.0708
    1W        W40460   6.733   0.440   8.641  0.1128 -0.1666 -0.0163
    1W        W40461  25.637  13.309   1.392  0.0182  0.0292  0.1170
    1W        W40462  20.209  29.207   7.883  0.0913 -0.2893  0.3323
    1W        W40463  22.506   2.815   1.864  0.0633  0.1595 -0.1127
    1W        W40464  23.471   5.495   8.572  0.1809  0.1306  0.0176
    1W        W40465   8.083  16.130   5.873  0.1585 -0.1271 -0.1767
    1W        W40466  18.710  22.121   2.131 -0.1497  0.0859  0.1283
    1W        W40467   4.054  14.205   1.697  0.0405  0.0790 -0.1549
    1W        W40468   8.372  22.297   2.351  0.1422 -0.1855 -0.0131
    1W        W40469  16.753  16.425   8.670 -0.2688 -0.0292  0.0889
    1W        W40470  20.189  28.174   6.524 -0.0294 -0.4906  0.2101
    1W        W40471  18.767   6.279   7.559 -0.4328  0.0664 -0.0610
    1W        W40472   9.627  20.270   8.743 -0.3066  0.0080 -0.0530
    1W        W40473   3.606   6.182   8.502 -0.0560 -0.0906  0.0317
    1W        W40474   4.372  22.239   1.667 -0.0393 -0.1002 -0.4506
    1W        W40475  26.960  16.093   9.328 -0.0663  0.2715 -0.0287
    1W        W40476  16.557  29.749   7.002 -0.0364 -0.2859 -0.3065
    1W        W40477  23.620  26.836   9.323 -0.0004 -0.1918  0.6147
    1W        W40478   1.228   4.439   7.577  0.1994  0.0990 -0.2910
    1W        W40479  15.500  26.514   8.279  0.3563 -0.0429  0.0150
    1W        W40480  17.189   0.369   8.129 -0.1774  0.3230 -0.0423
    1W        W40481   1.909   8.532   9.457  0.1401 -0.2822  0.1934
    1W        W40482   4.295   9.865   0.502  0.1493  0.0058 -0.0310
    1W        W40483  12.080  10.052   2.427  0.0019  0.0018  0.1770
    1W        W40484  23.136   3.858   2.726  0.2518 -0.0418  0.0869
    1W        W40485   0.235  16.982   2.054 -0.0641  0.1710 -0.1933
    1W        W40486  17.899  26.757   2.752 -0.3601  0.0468  0.1032
    1W        W40487   7.770  26.941   8.527  0.1676  0.1443 -0.0212
    1W        W40488   9.648  27.979   2.313 -0.3492  0.0859  0.2866
    1W        W40489  10.574  17.823   1.757  0.2125  0.0093  0.1207
    1W        W40490  26.628  13.054   7.983  0.0899 -0.1478  0.0192
    1W        W40491   2.536   8.933   8.569 -0.0115  0.1705  0.0561
    1W        W40492  13.997  22.650   2.548 -0.2234  0.1668 -0.3052
    1W        W40493   1.263  29.352   7.298 -0.0208 -0.4492 -0.0633
    1W        W40494  25.782  28.750   0.195 -0.1869 -0.1260  0.0456
    1W        W40495   7.385  15.175   2.308 -0.0213  0.3191 -0.0146
    1W        W40496  19.652  19.469   1.265  0.2188  0.0678  0.0129
    1W        W40497  24.732  12.720   9.216 -0.1034  0.0804 -0.1578
    1W        W40498  19.871  16.620   0.006 -0.3727 -0.3520  0.0722
    1W        W40499  29.129  12.910   6.847  0.1614  0.0861 -0.0590
    1W        W40500   9.348   5.139   0.112 -0.0505  0.1659 -0.1368
    1W        W40501  10.159   0.058   0.018 -0.0702  0.0106  0.3837
    1W        W40502   8.723  14.701   0.999 -0.1932  0.2653  0.0549
    1W        W40503  13.470  21.470   8.390 -0.2665 -0.0922  0.1544
    1W        W40504  12.973   2.001   3.845 -0.1734 -0.3575  0.0955
    1W        W40505  20.279   3.941   1.718  0.2313  0.0463 -0.1376
    1W        W40506  22.844   5.115   7.013  0.2608 -0.2063  0.0982
    1W        W40507  18.905   6.867   2.593 -0.0921 -0.1734 -0.0465
    1W        W40508  19.428   4.322   2.197 -0.2432  0.1748 -0.0269
    1W        W40509  21.067   2.520   6.681 -0.2850 -0.2268 -0.0657
    1W        W40510  14.311  28.645   9.331  0.0696  0.0722 -0.3839
    1W        W40511   1.860   9.975   8.214  0.2041 -0.1408 -0.3416
    1W        W40512   1.513  10.224   1.442 -0.2531  0.2163  0.0136
    1W        W40513  19.762  17.480   8.911 -0.0402  0.0524  0.2542
    1W        W40514  22.295  12.167   8.473 -0.1273  0.2762 -0.4032
    1W        W40515   5.993  19.850   2.273 -0.1449  0.1004  0.1567
    1W        W40516  19.201  15.001   7.508  0.0754 -0.2502  0.1144
    1W        W40517  23.545   9.051   0.464  0.1364 -0.1731 -0.2960
    1W        W40518  22.227  16.983   6.315 -0.0200 -0.0542  0.0186
    1W        W40519  19.546  16.960   8.646  0.2243 -0.0068  0.2042
    1W        W40520  12.868  12.014   1.480 -0.4099  0.1318  0.2712
    1W        W40521   2.849  10.644   0.229 -0.0272  0.1141  0.2673
    1W        W40522   5.732  10.367   2.528 -0.1015  0.3300  0.0512
    1W        W40523  20.865  23.921   6.964 -0.0449 -0.0691 -0.1016
    1W        W40524  28.527  28.516   2.325  0.1822 -0.1007 -0.0825
    1W        W40525  28.727  23.037   7.015  0.1713 -0.0910  0.1613
    1W        W40526   0.584  24.889   2.442 -0.1690  0.3806 -0.2166
    1W        W40527  26.897  19.342   2.410  0.0027  0.3274 -0.0556
    1W        W40528  15.891  16.476   1.804 -0.1720 -0.1302 -0.0022
    1W        W40529   7.311  19.183   6.968 -0.0417  0.0212  0.0725
    1W        W40530  28.681   2.974   7.544 -0.0660  0.2966 -0.2272
    1W        W40531  25.131  27.684   0.099 -0.0151 -0.2242 -0.1140
    1W        W40532   3.670  18.551   7.642  0.1606 -0.2639  0.1385
    1W        W40533  14.679  28.654   7.688  0.0903  0.2436 -0.0924
    1W        W40534  17.418   4.811   7.771 -0.2137  0.3294 -0.0308
    1W        W40535   7.468  15.463   1.922 -0.1170  0.2014  0.4847
    1W        W40536   2.289  12.140   6.945 -0.1150 -0.0450 -0.0269
    1W        W40537  14.081  20.678   8.710  0.2593 -0.1225  0.0883
    1W        W40538  21.592  21.342   7.377 -0.3360  0.0575  0.3810
    1W        W40539  25.304  27.919   8.273  0.3237  0.4688  0.1020
    1W        W40540  15.138   3.075   8.496  0.1641 -0.1521  0.3741
    1W        W40541  10.468  22.947   7.579  0.1046 -0.0998  0.0132
    1W        W40542  22.898   7.778   0.814 -0.0917  0.0139 -0.5776
    1W        W40543  24.234   4.121   0.909 -0.3482  0.0666  0.0654
    1W        W40544  28.081  13.911   6.658 -0.0922 -0.1110  0.2687
    1W        W40545  21.697  10.851   8.663  0.2044  0.1328 -0.1053
    1W        W40546  25.358  26.573   9.070  0.0075  0.1733 -0.1249
    1W        W40547  20.972  27.206   6.631  0.0980  0.0407  0.2392
    1W        W40548  18.495   3.627   0.937 -0.1231  0.1514 -0.2028
    1W        W40549  20.229   3.025   1.594 -0.3196 -0.3840  0.2022
    1W        W40550  14.802   0.270   1.615 -0.1044 -0.0355 -0.2380
    1W        W40551   7.006  25.138   1.627 -0.0649 -0.2777  0.1136
    1W        W40552   3.339  25.488   7.075 -0.0069 -0.0468 -0.1253
    1W        W40553  25.377  26.778   0.313 -0.2045  0.0544 -0.0709
    1W        W40554   1.455  11.854   6.614 -0.0488 -0.1415 -0.0703
    1W        W40555   6.316  16.335   6.680  0.1857 -0.2482  0.0483
    1W        W40556  26.782  12.742   7.021  0.1104 -0.1126  0.2232
    1W        W40557  23.833  11.955   8.950  0.4051  0.3340  0.1729
    1W        W40558   4.546   7.711   1.730  0.0120  0.2672  0.2467
    1W        W40559   0.225  29.421   0.663  0.1875 -0.3551 -0.1451
    1W        W40560  17.385   1.932   0.304 -0.1752  0.2355  0.1198
    1W        W40561  29.645  22.751   0.320  0.3233  0.1950  0.1127
    1W        W40562   6.447  25.898   8.240  0.0305 -0.1979  0.1680
    1W        W40563   1.229  17.022   1.541 -0.0759 -0.1084  0.1889
    1W        W40564  14.077   6.215   1.145  0.3601  0.0691  0.2930
    1W        W40565  25.349  13.820   0.541  0.2839 -0.0159 -0.2679
    1W        W40566  16.319  11.967   9.057 -0.1768 -0.1128 -0.1549
    1W        W40567  13.162   5.136   3.132 -0.0485 -0.0854 -0.1098
    1W        W40568  26.629  29.544   2.696  0.0586 -0.0222 -0.2591
    1W        W40569  12.037   5.403   1.465  0.3250  0.0444 -0.2267
    1W        W40570  27.982  22.086   8.019  0.0679  0.2445  0.0635
    1W        W40571  18.779   3.256   7.262 -0.1154  0.1325 -0.1187
    1W        W40572  16.189  21.864   1.301  0.0311 -0.0472  0.0746
    1W        W40573  27.142  22.147   0.210  0.1898  0.0503  0.0797
    1W        W40574   2.841  21.359   8.687  0.1497 -0.0277 -0.0273
    1W        W40575   4.691   9.632   6.914  0.3012  0.1665  0.2069
    1W        W40576  11.929   5.545   1.923 -0.2779  0.3863 -0.1869
    1W        W40577   3.115   0.403   0.907 -0.1840 -0.1005 -0.1336
    1W        W40578   8.399  18.807   0.136  0.0163  0.0677 -0.0986
    1W        W40579  18.057   8.459   1.215  0.1233  0.1356 -0.1125
    1W        W40580   8.964  12.794   2.733 -0.1068 -0.0282 -0.0311
    1W        W40581  29.346  26.262   8.044 -0.1669 -0.3954  0.1078
    1W        W40582  21.218  14.379   6.624  0.2787  0.1085 -0.1512
    1W        W40583   1.565  23.548   6.019 -0.2311  0.0779  0.0096
    1W        W40584  19.784  14.431   9.443 -0.1397  0.1407  0.1868
    1W        W40585  12.711  21.688   8.408  0.2451 -0.1810 -0.0374
    1W        W40586  23.009  10.190   1.084  0.2385 -0.1183 -0.0739
    1W        W40587  17.883   2.182   9.037  0.1870  0.1162  0.1369
    1W        W40588  10.141  21.881   1.578  0.0863 -0.0340 -0.2945
    1W        W40589   1.266   9.367   6.913 -0.0680  0.4960 -0.1748
    1W        W40590  25.945  16.237   1.182  0.2975 -0.0529 -0.1249
    1W        W40591  27.918   2.733   0.925  0.0374  0.2169 -0.0090
    1W        W40592  28.234  15.488   7.540 -0.1805  0.0665 -0.0111
    1W        W40593  12.701  26.311   0.112 -0.2112  0.0788 -0.2460
    1W        W40594  21.385   4.007   9.280  0.1871  0.1254  0.2265
    1W        W40595   8.339   5.755   7.821  0.2583  0.2258  0.1108
    1W        W40596   0.195   1.281   1.359  0.3030 -0.4925 -0.1726
    1W        W40597  24.826   3.688   2.679 -0.0020 -0.1307 -0.1085
    1W        W40598   4.091  20.865   1.065 -0.0316 -0.2871  0.1110
    1W        W40599   2.205   7.129   7.819  0.3034 -0.1112 -0.0913
    1W        W40600  26.784  27.983   7.378  0.4134 -0.1988 -0.2263
    1W        W40601  22.851  19.462   2.265 -0.0761  0.0966 -0.1525
    1W        W40602  18.295  10.313   1.988 -0.1350  0.2919  0.2894
    1W        W40603   7.928  26.341   7.212  0.0760 -0.0797 -0.1539
    1W        W40604  25.644   7.040   2.203 -0.1021  0.3248  0.0562
    1W        W40605  23.137  20.381   9.423 -0.1212 -0.0588 -0.0206
    1W        W40606   5.971  21.406   5.438 -0.1451 -0.1797  0.1329
    1W        W40607  20.713  20.771   7.303  0.2439  0.0103 -0.1557
    1W        W40608   4.127  20.026   5.672 -0.1994  0.0791 -0.0792
    1W        W40609   8.147  26.510   1.825 -0.0044  0.2019  0.0436
    1W        W40610   2.085  28.658   1.561  0.0694  0.2586 -0.0906
    1W        W40611  25.653   8.624   0.281  0.0329 -0.0366 -0.2634
    1W        W40612   1.290  22.672   7.096  0.0041 -0.1076  0.0271
    1W        W40613   3.301  22.423   9.171  0.1745 -0.1080  0.0462
    1W        W40614  24.341  12.441   2.499 -0.1770 -0.1948 -0.1368
    1W        W40615  20.492  18.276   8.441  0.0464 -0.0766 -0.0686
    1W        W40616  27.157   5.602   7.111 -0.3348  0.1136  0.4111
    1W        W40617  28.361  16.087   1.854  0.0337 -0.2292  0.1548
    1W        W40618  11.693  11.014   8.593  0.0768 -0.2918 -0.1207
    1W        W40619   4.671  20.532   9.425 -0.1525 -0.1318  0.2505
    1W        W40620   0.681  29.872   1.856 -0.1317 -0.3947 -0.1175
    1W        W40621   7.270  19.453   1.879 -0.0624  0.0352  0.1062
    1W        W40622   3.071  20.654   7.594 -0.0278 -0.2398 -0.0100
    1W        W40623  19.713   2.839   7.111  0.0508  0.0213  0.0262
    1W        W40624  11.616   4.079   2.380 -0.1991  0.1587  0.0548
    1W        W40625   6.210  22.618   6.280  0.0542 -0.0701  0.1068
    1W        W40626  20.247  26.259   7.232 -0.1907 -0.2808  0.1333
    1W        W40627  26.094   5.235   2.013 -0.0815 -0.3419 -0.0213
    1W        W40628  15.982  23.433   1.763  0.0485  0.0167 -0.3094
    1W        W40629  19.833  23.479   1.484  0.1348 -0.0984 -0.0168
    1W        W40630  16.225  22.995   8.648  0.3478  0.0498  0.1433
    1W        W40631   5.956  26.646   1.816  0.0516  0.1412 -0.0548
    1W        W40632  27.032  27.392   8.042 -0.1225  0.2206  0.1032
    1W        W40633  14.074  10.236   8.264 -0.0812  0.0950  0.0991
    1W        W40634  15.268  29.520   7.545 -0.2264  0.1563  0.0492
    1W        W40635   7.219  18.069   0.940 -0.2112  0.4081  0.0285
    1W        W40636  27.504  19.464   1.878 -0.3805 -0.0009  0.0860
    1W        W40637  20.121  20.229   1.337 -0.0106  0.0623 -0.3813
    1W        W40638   3.092  19.284   8.649 -0.0537  0.2913 -0.2056
    1W        W40639   4.783  25.140   7.371 -0.1111  0.0342  0.2049
    1W        W40640  25.861   1.119   1.757 -0.1662  0.0534  0.1598
    1W        W40641  12.464  14.141   7.248  0.2175 -0.0172 -0.0156
    1W        W40642  18.852  28.248   9.057 -0.0657 -0.0640  0.1778
    1W        W40643  28.914  11.829   6.861  0.3241  0.6071  0.3729
    1W        W40644  28.795  17.839   0.634  0.0887  0.0245  0.4266
    1W        W40645   1.386  22.682   5.335 -0.0393 -0.4001  0.1974
    1W        W40646   2.256  22.920   6.343  0.1074  0.1491 -0.1991
    1W        W40647  11.695  11.274   0.871  0.3019 -0.0768 -0.2287
    1W        W40648   8.351  21.120   1.393  0.1447 -0.1548  0.0574
    1W        W40649  14.418   6.013   1.561  0.1463 -0.1257  0.2327
    1W        W40650  28.726   0.780   2.967 -0.0470  0.3139 -0.1613
    1W        W40651  10.843  29.185   2.619 -0.1898  0.0724  0.0665
    1W        W40652  29.104  29.639   2.229 -0.1280  0.0191 -0.0506
    1W        W40653   4.390  17.361   1.279  0.0519 -0.3133  0.0604
    1W        W40654   9.173  19.109   6.625  0.0441  0.0323 -0.1813
    1W        W40655  23.047  25.785   8.766 -0.3579  0.1292 -0.1355
    1W        W40656  17.926   4.479   0.084  0.0988 -0.0103 -0.0905
    1W        W40657   5.119  29.041   2.575  0.1534  0.0844 -0.2164
    1W        W40658  19.955  19.846   8.377  0.1426 -0.1179  0.0492
    1W        W40659  23.337  28.990   7.395 -0.3172  0.1227  0.1604
    1W        W40660   3.602   2.600   0.459  0.0306  0.0283 -0.1800
    1W        W40661  20.965   0.601   8.829 -0.1967  0.0621  0.0874
    1W        W40662   5.096  17.604   7.094  0.2910 -0.0141 -0.1695
    1W        W40663  20.791  26.607   1.601  0.2566  0.4344  0.3265
    1W        W40664   6.231  24.059   8.156 -0.0397  0.0330 -0.1580
    1W        W40665  12.868  25.934   8.886 -0.1029 -0.0091 -0.2558
    1W        W40666  29.012  15.534   0.447 -0.0526 -0.1798 -0.0341
    1W        W40667  16.128  19.698   9.326 -0.0182 -0.0280  0.0787
    1W        W40668  19.398  28.571   2.731  0.0702  0.1555  0.0982
    1W        W40669  21.484   4.466   1.573 -0.2680  0.1918  0.0573
    1W        W40670   5.370  18.032   1.911 -0.1147  0.1709 -0.3994
    1W        W40671  23.667  29.126   1.409  0.0693 -0.0401  0.0602
    1W        W40672   6.744   6.639   7.658  0.0226  0.0151 -0.1416
    1W        W40673  28.225  14.223   8.421 -0.3116  0.1106  0.0559
    1W        W40674  26.836   3.670   1.671 -0.6720  0.1240 -0.1833
    1W        W40675   6.686  26.442   1.495 -0.0017 -0.1188 -0.0625
    1W        W40676  16.331  27.195   0.022 -0.2762 -0.0990 -0.3073
    1W        W40677  16.459  11.145   1.602 -0.0799 -0.0458  0.2796
    1W        W40678   7.355  10.538   2.581 -0.2036 -0.1642  0.0964
    1W        W40679  17.796  26.868   8.544  0.1529 -0.0225 -0.1473
    1W        W40680  20.979  14.578   7.176  0.0168 -0.3167 -0.0001
    1W        W40681  26.151   6.170   2.001 -0.0426  0.1541 -0.2440
    1W        W40682   7.180   7.308   1.119 -0.0046 -0.2235 -0.0485
    1W        W40683   1.100  24.524   6.209 -0.1441  0.1430  0.4159
    1W        W40684  21.416   7.176   3.311 -0.1863 -0.1925 -0.3857
    1W        W40685  22.129   0.876   2.223 -0.1345 -0.4248  0.1361
    1W        W40686   8.563  24.104   8.345  0.0650 -0.0297  0.1193
    1W        W40687  23.533  15.858   1.994 -0.0826  0.0520 -0.0716
    1W        W40688  12.884  23.435   8.287  0.0651  0.0582  0.0335
    1W        W40689   4.407  10.257   2.917  0.1326 -0.0827  0.1111
    1W        W40690  19.142  13.036   0.298 -0.2162 -0.1009  0.2029
    1W        W40691  14.901  29.709   9.172 -0.0519  0.2711  0.0558
    1W        W40692   3.578   0.550   0.559 -0.0720 -0.0029 -0.0069
    1W        W40693  13.395   0.478   3.185  0.2763  0.1448 -0.3284
    1W        W40694   2.196  13.676   0.004 -0.3371  0.1769  0.2987
    1W        W40695  25.617   9.739   8.719 -0.1451  0.1233 -0.1447
    1W        W40696   9.566  18.949   7.383 -0.1944 -0.3503 -0.0212
    1W        W40697  21.497   1.998   1.976 -0.0963 -0.0258  0.1200
    1W        W40698  19.840   3.545   8.494  0.3109  0.0582 -0.1936
    1W        W40699  26.328  21.841   2.018 -0.1184 -0.0753  0.0273
    1W        W40700  27.578  15.834   6.757  0.0863 -0.0107  0.0492
    1W        W40701  23.542  16.371   7.839  0.1684  0.1125 -0.0916
    1W        W40702   5.094  20.143   1.955 -0.1190  0.0370 -0.3909
    1W        W40703  25.477  20.815   8.301 -0.2437 -0.1003 -0.1491
    1W        W40704   3.236   9.207   7.681  0.1972  0.1687 -0.0077
    1W        W40705   0.544  22.665   7.763  0.1331  0.1271 -0.1469
    1W        W40706  10.137   8.303   7.764  0.0993 -0.1133  0.1759
    1W        W40707   7.058  14.610   0.860  0.0143 -0.1094  0.1785
    1W        W40708   2.844   6.072   3.304  0.2330 -0.1035  0.2330
    1W        W40709   7.860   7.017   3.043  0.0844 -0.0500  0.1032
    1W        W40710   6.223  25.285   6.843  0.0773 -0.3470 -0.3255
    1W        W40711  25.460  13.128   8.836 -0.0419  0.1943  0.1765
    1W        W40712  11.695  24.983   7.635 -0.1675 -0.2075  0.0836
    1W        W40713  27.906  17.281   1.522  0.3451  0.0801  0.3366
    1W        W40714  26.444  20.118   7.041  0.1790 -0.1125  0.1584
    1W        W40715  14.928   9.299   9.039 -0.3898  0.4499  0.2034
    1W        W40716  24.073  14.780   8.510  0.0398  0.1340  0.0183
    1W        W40717   2.574  10.192   1.630  0.0294  0.1845 -0.0643
    1W        W40718  10.711  18.503   2.273  0.1199  0.0585  0.5439
    1W        W40719   9.682  15.905   0.487  0.1941 -0.0834 -0.1471
    1W        W40720  24.973   2.654   7.728 -0.0882 -0.2227 -0.3613
    1W        W40721  14.545   5.354   1.352  0.0270 -0.0311  0.1573
    1W        W40722  28.247  26.848   7.786  0.0372  0.0404 -0.1087
    1W        W40723  14.850   1.665   2.774 -0.4319  0.1045 -0.0037
    1W        W40724   9.590   6.748   7.637 -0.0881  0.0959 -0.3857
    1W        W40725   5.071  29.680   2.095 -0.0211 -0.1883  0.0927
    1W        W40726   0.650  23.013   6.894 -0.0883 -0.1240 -0.0398
    1W        W40727  28.836  13.124   1.392 -0.1809 -0.0263 -0.1229
    1W        W40728  15.588  18.951   7.067 -0.1699 -0.0346 -0.2624
    1W        W40729  14.422   4.555   7.416 -0.4196 -0.1546  0.0302
    1W        W40730   0.628   8.002   6.229  0.2771 -0.1433 -0.0664
    1W        W40731  16.533  12.512   1.426  0.0436 -0.0899  0.0465
    1W        W40732   1.331  26.157   1.980 -0.1329 -0.3094  0.1338
    1W        W40733  25.663   1.284   3.104  0.1869  0.2412 -0.2743
    1W        W40734  13.688   9.295   7.399  0.1706  0.0434 -0.2770
    1W        W40735  23.002  23.879   1.000 -0.3440 -0.1059  0.1033
    1W        W40736  28.123  16.435   0.532 -0.1878  0.0709 -0.1520
    1W        W40737   3.062  25.898   7.071 -0.1945 -0.1410 -0.0125
    1W        W40738  28.184  17.682   1.582 -0.2874 -0.4399  0.3574
    1W        W40739  26.456  12.578   8.284 -0.1667 -0.0928  0.2934
    1W        W40740  29.218  10.843   0.052  0.1264 -0.1147  0.1834
    1W        W40741  20.389  18.453   9.177  0.1584  0.1156 -0.2017
    1W        W40742  27.688  17.324   9.169 -0.2546 -0.0711  0.0361
    1W        W40743  11.296  13.835   7.309  0.0468 -0.1153 -0.1649
    1W        W40744  18.984   1.239   0.238 -0.0410 -0.2177 -0.0394
    1W        W40745  15.264  28.397   2.185 -0.3458 -0.2155  0.1220
    1W        W40746  22.465   4.213   7.276  0.1144  0.0840 -0.0557
    1W        W40747  19.903  16.785   8.138 -0.0428 -0.0789  0.1343
    1W        W40748  12.472   5.427   2.934 -0.0494 -0.0363 -0.2006
    1W        W40749   5.784  19.655   7.856  0.0621  0.0769 -0.3531
    1W        W40750  28.227   6.797   0.101 -0.1115 -0.1097 -0.3046
    1W        W40751  18.078  28.359   0.923 -0.0304  0.1026 -0.3000
    1W        W40752   4.736  10.570   1.392  0.1645  0.1871  0.0207
    1W        W40753   6.337  24.536   6.237  0.2208  0.0922 -0.2022
    1W        W40754  23.939  28.987   7.909 -0.1109 -0.1359 -0.2500
    1W        W40755  10.928  18.502   1.083 -0.0782  0.1369 -0.1244
    1W        W40756   1.314   3.964   7.812  0.0043 -0.0482  0.4327
    1W        W40757  14.434   0.076   7.235 -0.1298 -0.1048 -0.0413
    1W        W40758  23.459  20.802   1.757 -0.0630 -0.0726  0.3761
    1W        W40759  14.130  26.643   1.299  0.0590  0.4590 -0.1764
    1W        W40760  17.519   8.039   7.018 -0.1378 -0.2331  0.0527
    1W        W40761  20.088  16.215   0.174  0.0210 -0.1340  0.2843
    1W        W40762   9.742  24.027   6.892  0.1413 -0.0640 -0.1383
    1W        W40763  12.928   8.559   2.511  0.0995 -0.1508 -0.1983
    1W        W40764   4.027  25.234   8.707 -0.2417 -0.0917  0.0807
    1W        W40765   0.261  15.527   2.396 -0.1867  0.3686  0.1887
    1W        W40766  21.673   8.508   0.210  0.0547 -0.0140  0.0354
    1W        W40767  17.592   6.017   6.574 -0.2394  0.0172 -0.0821
    1W        W40768   9.073  26.241   6.230  0.3128 -0.0756 -0.4317
    1W        W40769  13.921  29.012   1.898 -0.0692 -0.0098  0.1883
    1W        W40770   1.444   6.998   6.776  0.4502  0.2033  0.3023
    1W        W40771  18.027  19.450   8.129 -0.2976  0.0177 -0.3662
    1W        W40772  20.223   7.804   7.044 -0.1697 -0.1963 -0.0278
    1W        W40773  17.682   5.067   8.278 -0.0384  0.0448  0.5597
    1W        W40774  26.776  13.337   2.700 -0.0125  0.1014 -0.0173
    1W        W40775  11.928   1.726   4.035  0.2808  0.2161  0.0450
    1W        W40776  24.681   9.387   3.290 -0.0006  0.0356 -0.3171
    1W        W40777  28.614  21.423   7.696 -0.1228 -0.0343 -0.1094
    1W        W40778  22.174  24.274   9.099  0.0305  0.0576  0.2150
    1W        W40779  26.527  25.654   9.345  0.0296  0.0916  0.0607
    1W        W40780  23.852   1.896   9.145  0.0546 -0.1463  0.1503
    1W        W40781   2.012   4.524   6.110 -0.0729 -0.2164 -0.0993
    1W        W40782  24.965  24.931   1.756  0.2692  0.2780 -0.0319
    1W        W40783  12.154  11.943   2.471 -0.2141  0.0715  0.2447
    1W        W40784  23.163   4.675   7.248 -0.0325 -0.3831 -0.1019
    1W        W40785   4.752  28.646   0.485  0.2328 -0.1519  0.2938
    1W        W40786  11.545  21.196   6.548 -0.0571 -0.1360  0.1814
    1W        W40787  12.327   4.739   2.290  0.0500 -0.1282  0.1784
    1W        W40788   5.235   4.610   2.370 -0.0265 -0.0010  0.0313
    1W        W40789   9.370  13.819   7.980 -0.1463  0.3571 -0.1289
    1W        W40790  22.937   1.401   9.180 -0.1350  0.0813 -0.1569
    1W        W40791  23.702  13.704   7.589  0.2774 -0.2253  0.0613
    1W        W40792  15.865   4.958   1.817 -0.2792  0.3210 -0.1447
    1W        W40793   9.244  28.241   0.483 -0.0262  0.1087  0.2857
    1W        W40794   9.825  29.076   1.410  0.0715  0.1700  0.0339
    1W        W40795   4.728  14.106   9.443 -0.0720  0.0341 -0.0177
    1W        W40796   5.873  17.724   8.346  0.0356  0.0556 -0.0465
    1W        W40797   1.047  17.636   0.645  0.2037  0.1980  0.0730
    1W        W40798  21.322  24.013   2.643  0.0666  0.1490 -0.0765
    1W        W40799   6.259  15.921   8.260  0.0236 -0.2362  0.2887
    1W        W40800  20.132  15.681   0.459  0.0557  0.0776  0.2698
    1W        W40801  10.867   9.879   6.896  0.1956 -0.0380  0.0772
    1W        W40802  15.340  12.014   0.624 -0.0308 -0.1051  0.1695
    1W        W40803   0.616   9.300   2.414  0.0549 -0.3979 -0.0813
    1W        W40804  14.322  26.347   7.948  0.4445 -0.0755  0.3687
    1W        W40805  22.551  10.741   6.829  0.1457 -0.1318 -0.0780
    1W        W40806  20.416   3.671   9.461  0.1088 -0.0283  0.1838
    1W        W40807  20.162   6.456   1.407  0.0302  0.1844 -0.1532
    1W        W40808  29.333  10.647   1.766 -0.0016  0.1908  0.2615
    1W        W40809   1.171   9.792   7.671  0.1199  0.0019 -0.5298
    1W        W40810  11.903  22.402   8.468 -0.1316  0.1374  0.4113
    1W        W40811   4.001   8.740   7.092  0.0989 -0.1966  0.1906
    1W        W40812   1.116  29.217   1.710  0.0757 -0.0566 -0.1197
    1W        W40813  21.281  18.602   7.440 -0.1230 -0.5752 -0.2265
    1W        W40814  17.190  21.174   0.718 -0.0739 -0.1831 -0.3535
    1W        W40815  21.168  14.368   1.763 -0.2406 -0.1175  0.0564
    1W        W40816  25.663  25.536   8.159 -0.3166  0.3004 -0.1846
    1W        W40817   3.714   0.900   8.023  0.0132 -0.1232 -0.0285
    1W        W40818  28.275  18.813   8.777  0.0081 -0.0953 -0.1192
    1W        W40819  29.534  10.918   6.877 -0.3432  0.0006 -0.1872
    1W        W40820  25.467  26.270   0.012  0.0600 -0.2319 -0.0403
    1W        W40821  13.827  13.577   7.783  0.2232  0.2234 -0.3840
    1W        W40822  17.386  24.226   0.635  0.0084 -0.1540  0.3645
    1W        W40823  25.975  26.533   8.411 -0.1679 -0.0290 -0.2829
    1W        W40824   9.164   8.702   7.612 -0.0057  0.0282  0.1266
    1W        W40825   2.497   6.596   2.195 -0.1831 -0.0382  0.0701
    1W        W40826   7.849   8.605   0.786 -0.0217  0.1400  0.1669
    1W        W40827   3.836  11.019   1.391 -0.2597 -0.0706  0.1239
    1W        W40828   8.098   6.747   2.225  0.0749 -0.1238 -0.1428
    1W        W40829   6.682  27.231   9.399 -0.0212  0.3313  0.3623
    1W        W40830   7.908   0.258   2.102  0.2370 -0.0870 -0.1376
    1W        W40831   7.910   6.046   9.387  0.0735  0.0602  0.0133
    1W        W40832  15.882   7.368   8.368  0.3613  0.1901  0.0576
    1W        W40833   9.081   0.502   1.847  0.0478  0.1750 -0.2073
    1W        W40834   8.618  13.870   7.288  0.1532 -0.0551 -0.2491
    1W        W40835  14.345  22.297   5.529  0.0251  0.0353  0.0204
    1W        W40836  28.478   4.877   7.300  0.3356 -0.2534  0.0786
    1W        W40837  17.612  25.016   0.748  0.0325 -0.0930  0.2005
    1W        W40838  11.228  10.170   0.689  0.0076 -0.0691 -0.1718
    1W        W40839  23.830   1.077   9.454  0.3093 -0.3212 -0.0019
    1W        W40840  16.031   9.783   0.017  0.1743  0.0276 -0.1215
    1W        W40841  28.484  11.386   1.773 -0.1040 -0.1761  0.1575
    1W        W40842  11.187  26.778   7.059 -0.2336 -0.1664  0.0933
    1W        W40843   8.536  21.835   0.160  0.5505  0.0843  0.0997
    1W        W40844  27.016  28.796   9.064 -0.1964 -0.0621 -0.1619
    1W        W40845   7.297  29.856   7.471 -0.0205 -0.1323  0.3082
    1W        W40846   7.508  26.622   7.608 -0.0885 -0.1993  0.0497
    1W        W40847  29.511   6.344   0.841 -0.1923  0.0654  0.1364
    1W        W40848  25.241  27.060   8.891  0.1783  0.1867  0.2621
    1W        W40849   9.115   1.949   7.635 -0.4495 -0.2497 -0.1007
    1W        W40850   0.030  20.008   8.395 -0.2361 -0.2028  0.1786
    1W        W40851   5.880  18.566   7.371  0.1121 -0.3203  0.0216
    1W        W40852  26.135  16.438   8.375 -0.3294 -0.2252 -0.2113
    1W        W40853  11.710  28.321   8.133 -0.1071 -0.1488 -0.0101
    1W        W40854   3.797  21.537   8.206  0.0466 -0.2253 -0.3060
    1W        W40855  26.259   4.069   1.839 -0.1673  0.1401  0.2590
    1W        W40856   7.708  19.971   9.451 -0.0213  0.0818 -0.0442
    1W        W40857  13.347  10.098   0.086  0.1237  0.0639  0.2321
    1W        W40858   4.204  15.167   0.215  0.0459  0.1738 -0.0982
    1W        W40859  21.858  26.343   0.687 -0.2832 -0.0026  0.1073
    1W        W40860   7.987  18.306   7.729  0.0831 -0.0050  0.2722
    1W        W40861  10.514   2.360   1.370  0.0950  0.1628  0.2358
    1W        W40862   8.086   3.070   8.933  0.3538 -0.0515 -0.0673
    1W        W40863  27.757   6.722   0.378  0.1558  0.0179  0.4423
    1W        W40864   2.984  13.262   2.262 -0.0089 -0.1020  0.1102
    1W        W40865  22.479  25.693   9.303  0.0508  0.3336 -0.0975
    1W        W40866  26.875  29.453   6.703  0.0546 -0.0364 -0.1366
    1W        W40867   2.159  28.051   8.915  0.0807  0.0467  0.1163
    1W        W40868  19.066   6.991   7.177 -0.0903  0.4126  0.1488
    1W        W40869  12.755   2.798   8.400 -0.2320 -0.0627  0.2457
    1W        W40870   4.033   3.406   2.260  0.1469  0.2442  0.4286
    1W        W40871  14.786   5.005   1.663  0.2666  0.0735 -0.0409
    1W        W40872   6.821   3.883   2.954  0.0724 -0.0436 -0.3731
    1W        W40873   9.565   9.716   2.027  0.1013 -0.1804  0.2559
    1W        W40874  10.315  21.502   6.028  0.1105 -0.0724 -0.1262
    1W        W40875  26.044  16.618   2.009 -0.1425  0.1981  0.0495
    1W        W40876  26.071  18.464   7.599  0.0691 -0.2121  0.1537
    1W        W40877   5.346   3.777   2.710  0.0550 -0.1767 -0.1420
    1W        W40878  18.773   3.176   8.726 -0.1606 -0.0984  0.1945
    1W        W40879  23.547  10.077   7.141  0.1599  0.1188  0.3620
    1W        W40880   2.189   1.133   2.324  0.2384  0.1711 -0.0251
    1W        W40881  21.404  10.784   0.271  0.0484 -0.0224  0.3114
    1W        W40882   1.032  18.361   6.993  0.2032  0.3376 -0.3534
    1W        W40883  16.995  22.649   8.813  0.1895  0.0669 -0.0366
    1W        W40884   9.384   6.091   9.027 -0.2852  0.0520  0.0059
    1W        W40885   3.902  19.108   1.628  0.1552  0.0402 -0.1741
    1W        W40886  15.844  25.919   1.367 -0.2105 -0.3738  0.1603
    1W        W40887  24.462  12.064   2.201 -0.2895 -0.3175  0.0387
    1W        W40888   5.111  14.379   2.118 -0.0690 -0.0864  0.2399
    1W        W40889  18.340  19.409   2.365 -0.1954 -0.0294  0.2490
    1W        W40890  24.744  14.972   1.481  0.1549  0.1665 -0.0508
    1W        W40891  13.515  19.539   1.943  0.1049 -0.0237 -0.0770
    1W        W40892  28.976  12.527   9.433  0.0944  0.2273  0.2894
    1W        W40893  18.883  28.801   9.407  0.1520  0.0821  0.0035
    1W        W40894  24.560   5.385   7.349 -0.1158  0.2710  0.0729
    1W        W40895  16.405  12.326   8.481 -0.0896 -0.0742  0.0552
    1W        W40896  12.230  12.833   0.649 -0.0565  0.0649 -0.3666
    1W        W40897  15.512   0.083   7.976 -0.0354 -0.2654  0.1702
    1W        W40898   7.576  23.061   1.653 -0.2429  0.1037 -0.3279
    1W        W40899   5.609  15.647   8.975 -0.0184  0.0034 -0.2543
    1W        W40900  28.900  28.509   7.716 -0.1186  0.0613  0.0668
    1W        W40901   1.571  27.948   7.335  0.1358  0.2153 -0.1456
    1W        W40902  22.300   4.755   7.242 -0.1679 -0.1403  0.1511
    1W        W40903   3.161  23.367   2.011  0.0770 -0.0985  0.0385
    1W        W40904   8.272  12.049   2.366  0.2485 -0.2270  0.0113
    1W        W40905   5.173   4.415   8.366 -0.2369 -0.0653  0.1306
    1W        W40906   3.513  10.601   1.379  0.2043 -0.0797  0.0170
    1W        W40907  13.968  26.049   2.447  0.0516 -0.4504 -0.2559
    1W        W40908  11.826  10.576   8.830 -0.0518 -0.2943 -0.1669
    1W        W40909   0.662  10.525   8.827 -0.1155  0.5888  0.1919
    1W        W40910   7.175   5.355   0.798 -0.1551  0.0172  0.1283
    1W        W40911  22.889   3.378   0.603 -0.0096  0.0607  0.0287
    1W        W40912  11.988  15.353   9.140 -0.0785  0.0266  0.3627
    1W        W40913  11.595   4.411   8.337  0.1757 -0.1294 -0.1425
    1W        W40914  22.357  26.585   0.664  0.1171  0.1036  0.0230
    1W        W40915  22.400   5.271   7.173  0.1697  0.1700  0.1485
    1W        W40916  20.863  13.985   1.592  0.0081  0.0589  0.1188
    1W        W40917  27.112  15.845   0.319 -0.3248  0.0941 -0.2120
    1W        W40918  18.065  26.395   3.050  0.1191 -0.3873 -0.2731
    1W        W40919   2.906  13.093   0.184  0.0467 -0.1001  0.2858
    1W        W40920  23.768   2.788   1.415  0.2556 -0.0237 -0.0918
    1W        W40921  24.857  28.578   2.457  0.5136  0.0186  0.0045
    1W        W40922   8.179  21.416   0.818  0.0375 -0.0189 -0.3100
    1W        W40923  29.484  10.590   7.433 -0.1385 -0.0864 -0.1826
    1W        W40924  12.002  29.645   2.340  0.1363 -0.0144 -0.1439
    1W        W40925   5.917  17.630   8.866  0.3445 -0.1890  0.0309
    1W        W40926  28.021   0.282   6.737 -0.2384  0.1148  0.0325
    1W        W40927  10.389   3.874   0.039  0.1243 -0.0086  0.0343
    1W        W40928   7.219  27.523   7.339 -0.2438 -0.2003 -0.1453
    1W        W40929  21.994  12.604   7.015  0.4318  0.0133 -0.3492
    1W        W40930  24.846  18.427   7.612  0.0432  0.1065 -0.2728
    1W        W40931  24.418  26.785   7.512 -0.0817  0.1881 -0.2346
    1W        W40932   5.996   6.962   7.949  0.0046 -0.2630  0.2311
    1W        W40933  28.832  26.033   6.842  0.1867 -0.0276 -0.1821
    1W        W40934  23.111  10.576   0.717 -0.0818 -0.0414 -0.1536
    1W        W40935  10.088  12.059   8.611 -0.2059  0.0524 -0.0632
    1W        W40936  13.168  22.290   8.632  0.2754 -0.2957 -0.3569
    1W        W40937   5.195   0.487   8.761 -0.3850 -0.0554 -0.1872
    1W        W40938   3.677  11.133   8.045 -0.1027  0.2617  0.0463
    1W        W40939  20.634  15.248   0.976 -0.1120 -0.1156 -0.0121
    1W        W40940  10.374  12.952   2.105  0.3575 -0.2538 -0.0143
    1W        W40941  26.170   3.314   9.114 -0.0889  0.1800  0.0311
    1W        W40942  28.526   3.777   7.180  0.0354 -0.2498 -0.0782
    1W        W40943  12.106   8.052   9.177 -0.0272 -0.0663  0.0419
    1W        W40944  14.069  20.532   6.643  0.3120 -0.0310 -0.1044
    1W        W40945  18.449  17.444   9.322 -0.0968  0.0750 -0.0528
    1W        W40946  15.684   4.129   8.007 -0.2658 -0.0430  0.0020
    1W        W40947  27.287   6.881   8.593  0.0143 -0.2016  0.1296
    1W        W40948  22.902  13.013   1.307 -0.0422 -0.2497 -0.2009
    1W        W40949  14.281   2.524   1.032 -0.1539  0.2026  0.4087
    1W        W40950  23.855   7.938   6.838  0.1100 -0.1114 -0.0241
    1W        W40951  26.852   3.976   1.076  0.0276  0.0286 -0.1693
    1W        W40952   0.249   4.811   8.914 -0.1602 -0.0341  0.0746
    1W        W40953   7.080   9.456   8.867 -0.1460 -0.0699  0.0953
    1W        W40954   5.799   6.683   8.278  0.1038 -0.3430 -0.0584
    1W        W40955  15.767  17.381   8.647  0.2479  0.1169 -0.1600
    1W        W40956  19.763   6.085   1.082 -0.2148  0.0431 -0.0179
    1W        W40957  29.237   0.677   1.637 -0.1434 -0.1012  0.0384
    1W        W40958  28.053  11.899   2.137 -0.3837  0.0556  0.0082
    1W        W40959  19.630  10.507   7.529 -0.1981  0.0848  0.0826
    1W        W40960  18.958   3.794   7.237 -0.2172 -0.0500 -0.1381
    1W        W40961  21.139  14.901   8.167 -0.0512 -0.1444  0.3413
    1W        W40962  24.247   8.412   3.162  0.1909 -0.2076  0.1891
    1W        W40963  24.421  19.691   1.710  0.0932  0.0090 -0.1310
    1W        W40964  24.038   9.989   6.904 -0.0707 -0.4419  0.0361
    1W        W40965   8.759  25.465   1.151 -0.0492 -0.3495 -0.1287
    1W        W40966  21.289  18.530   0.432 -0.0182 -0.0620 -0.0216
    1W        W40967  29.343   2.211   8.493  0.1370  0.2575  0.0058
    1W        W40968  20.811   6.266   6.301  0.0107  0.0626 -0.2271
    1W        W40969   3.155   2.027   7.049 -0.0531  0.3603 -0.2218
    1W        W40970   4.436   5.198   0.343  0.2438 -0.2858  0.3464
    1W        W40971  12.825  13.090   0.143 -0.3337 -0.0966 -0.0997
    1W        W40972  22.638  23.487   0.931  0.3771  0.0572  0.3459
    1W        W40973   0.184   9.116   7.788  0.0171  0.1302 -0.1797
    1W        W40974  24.009  10.697   7.498  0.0200  0.3323  0.2845
    1W        W40975  22.508   5.254   2.100  0.3487  0.3481  0.2876
    1W        W40976  26.763  22.487   9.171 -0.0059  0.2466  0.0725
    1W        W40977  16.439   9.632   2.179  0.2093 -0.2462  0.2448
    1W        W40978   9.158   4.544   8.937  0.0850 -0.0180 -0.0784
    1W        W40979   2.006   5.280   2.457  0.1372 -0.1109 -0.0160
    1W        W40980   0.367   4.544   1.739 -0.2941  0.3187 -0.2753
    1W        W40981   6.976   9.543   7.164 -0.0649 -0.1842  0.0938
    1W        W40982  20.623  15.948   1.450  0.2947 -0.1571 -0.2290
    1W        W40983  11.270   4.264   1.984 -0.1127  0.0779  0.0499
    1W        W40984  15.528  12.462   7.838  0.1960 -0.0419  0.1207
    1W        W40985  18.070  25.779   0.039  0.0660  0.3062  0.1604
    1W        W40986  29.039   1.205   8.069 -0.1386  0.1591 -0.0771
    1W        W40987   6.320  18.030   0.999  0.1113 -0.0264 -0.0609
    1W        W40988  17.326   0.254   9.036 -0.0156 -0.0696  0.1364
    1W        W40989  24.421  16.169   7.846  0.1078  0.1015 -0.0083
    1W        W40990  12.769  15.145   1.578 -0.0672 -0.3199 -0.1891
    1W        W40991  19.386   6.712   8.880  0.1233  0.0092  0.0288
    1W        W40992  29.605  16.593   0.450 -0.1942  0.0695  0.0274
    1W        W40993  21.730  21.085   2.600 -0.1064 -0.3046  0.0814
    1W        W40994  10.796  13.902   7.272 -0.2890 -0.0839  0.1455
    1W        W40995  28.090  17.418   7.290  0.2071 -0.1303  0.0387
    1W        W40996  19.191  14.128   9.275  0.0021 -0.0581  0.0172
    1W        W40997   3.494  14.724   8.380 -0.1169  0.0223 -0.0566
    1W        W40998   2.172  10.604   6.810  0.1409  0.2091  0.1039
    1W        W40999  24.807  25.270   8.800  0.0037 -0.1983  0.1932
    1W        W41000  26.217  17.158   7.318  0.1795 -0.1412 -0.1642
    1W        W41001  20.606  11.648   9.164  0.1690  0.1716  0.0621
    1W        W41002   7.090  22.551   0.551  0.1520 -0.0903  0.3188
    1W        W41003  11.060  10.000   9.126 -0.1038 -0.3331  0.3159
    1W        W41004  22.659  12.568   1.366 -0.2853  0.0743  0.2275
    1W        W41005   6.921  16.983   6.149 -0.1189  0.3721 -0.1241
    1W        W41006  23.697  26.126   2.247  0.2055  0.0366  0.2130
    1W        W41007  15.444   8.023   2.909  0.1465 -0.1915  0.0404
    1W        W41008   8.829  18.148   8.938  0.0376  0.0201  0.0735
    1W        W41009  21.610  18.132   1.470 -0.0934  0.2511  0.0768
    1W        W41010  22.469   9.398   9.092  0.0692  0.0332  0.1186
    1W        W41011   0.703   5.225   1.965 -0.1543  0.1542 -0.0309
    1W        W41012   2.813  11.132   0.589 -0.2215  0.2363 -0.0930
    1W        W41013   5.418  11.017   0.759 -0.0044 -0.2660 -0.2877
    1W        W41014   5.536  20.000   1.656  0.2437 -0.1307 -0.0179
    1W        W41015   5.822  23.414   6.741  0.1743  0.3851  0.2002
    1W        W41016   7.922   9.862   7.048  0.0529 -0.0783 -0.2044
    1W        W41017   0.405   4.210   6.861  0.2214  0.1537 -0.2945
    1W        W41018  21.588  25.866   8.996  0.0474  0.3799 -0.2969
    1W        W41019  21.433  23.281   2.085  0.2207  0.2866  0.1342
    1W        W41020   3.981  15.633   8.050 -0.1089 -0.0367  0.1461
    1W        W41021   5.189  24.221   6.251 -0.1447  0.1062 -0.1420
    1W        W41022  14.200  28.723   2.192 -0.1575 -0.0270 -0.1268
    1W        W41023  27.328  25.081   1.076 -0.0140  0.1905  0.0854
    1W        W41024  10.187  27.188   3.464  0.2669 -0.0140 -0.1676
    1W        W41025   3.761   7.778   7.426  0.1467 -0.1665 -0.3224
    1W        W41026   4.022  20.478   8.831 -0.0474  0.0716 -0.1132
    1W        W41027   0.620   6.280   8.442 -0.2401 -0.0887 -0.0233
    1W        W41028  24.836  22.598   2.804 -0.2765  0.1859  0.2013
    1W        W41029   8.681  12.212   1.128  0.0006 -0.1173 -0.2135
    1W        W41030  17.739  15.423   0.351  0.1074  0.0723  0.1260
    1W        W41031  19.309   6.297   7.659 -0.0327 -0.1631 -0.1484
    1W        W41032  15.410  10.095   1.378  0.2561  0.1703  0.2086
    1W        W41033  22.638  19.785   6.810  0.0808 -0.3600  0.0807
    1W        W41034  14.703   7.241   1.541 -0.4439  0.0863 -0.0615
    1W        W41035  17.128  11.265   8.417 -0.2963  0.0063  0.0917
    1W        W41036  21.586  26.518   8.323 -0.0824 -0.2010 -0.2548
    1W        W41037   1.081   1.070   6.432  0.0495 -0.1875  0.0595
    1W        W41038  13.876  22.387   7.943  0.1948 -0.2235  0.2322
    1W        W41039  15.547   0.835   8.597 -0.1514 -0.0233 -0.1235
    1W        W41040  26.606  17.900   8.672 -0.0001  0.1429 -0.0606
    1W        W41041   6.740  20.077   1.227  0.0757 -0.3052 -0.0758
    1W        W41042   9.702   2.528   1.703  0.2543  0.2591 -0.0649
    1W        W41043  11.693  29.789   8.428  0.1098  0.1569 -0.4074
    1W        W41044  28.224  22.375   1.733 -0.3448 -0.4095  0.2162
    1W        W41045  11.683  11.988   1.550  0.2552 -0.0342  0.1691
    1W        W41046  15.146   5.875   8.408 -0.0719  0.0689 -0.2860
    1W        W41047   0.944  16.075   9.186  0.1690 -0.3242  0.3448
    1W        W41048   9.611   5.621   8.926  0.0332  0.0174 -0.2420
    1W        W41049  13.606  23.620   8.666 -0.3623  0.2452 -0.4619
    1W        W41050  10.005   1.035   1.510 -0.1578  0.0726  0.3553
    1W        W41051   8.600  27.753   2.068  0.1554 -0.0928  0.1062
    1W        W41052  29.354   3.216   6.524  0.0202 -0.1714 -0.3126
    1W        W41053  24.181   7.757   7.200 -0.3324 -0.0627  0.0679
    1W        W41054  24.757  26.090   2.123 -0.2357 -0.0149 -0.3307
    1W        W41055   8.355  13.903   7.692 -0.1527  0.2873 -0.0848
    1W        W41056  16.327  20.028   8.471 -0.2386  0.1107 -0.1354
    1W        W41057  25.409  11.259   0.797  0.0287 -0.0135  0.1298
    1W        W41058  17.916   9.196   1.693  0.0642  0.1303  0.1733
    1W        W41059   6.069   4.812   0.790  0.0204 -0.1241  0.1970
    1W        W41060   7.032  19.305   6.583 -0.2420  0.3628 -0.1054
    1W        W41061   3.838  25.148   6.921  0.2537 -0.3116 -0.0045
    1W        W41062  18.028  29.889   2.981 -0.1022 -0.0027  0.1857
    1W        W41063  20.066  20.722   8.313  0.1380 -0.1325 -0.1144
    1W        W41064  26.969  20.147   8.081  0.0984  0.0753 -0.0389
    1W        W41065  21.410   3.524   7.124  0.0736  0.2811  0.1385
    1W        W41066   0.427  19.187   8.840 -0.2313 -0.0660  0.1957
    1W        W41067   7.004  26.436   9.027  0.2071  0.0597 -0.2592
    1W        W41068  27.604  27.291   2.278 -0.0607  0.2344 -0.4972
    1W        W41069   8.393   9.269   1.127  0.2527  0.2083 -0.0034
    1W        W41070  26.097   8.465   1.509  0.2799 -0.1235 -0.2318
    1W        W41071  14.178  24.692   6.651 -0.2713 -0.1214  0.1633
    1W        W41072  25.714   4.417   6.758  0.0354  0.0094 -0.3299
    1W        W41073  11.458  27.345   8.055 -0.0289  0.2059 -0.0139
    1W        W41074  28.175  12.261   6.166 -0.1896  0.3665  0.0428
    1W        W41075   8.784  23.624   8.215  0.3091 -0.1031  0.0941
    1W        W41076   2.088   2.880   0.777 -0.0371  0.0385 -0.3163
    1W        W41077   7.581   6.648   1.495 -0.2021  0.1407  0.0165
    1W        W41078  29.233  25.817   8.188 -0.2283  0.2794 -0.4091
    1W        W41079  10.494  13.419   7.269 -0.0322  0.0523  0.0823
    1W        W41080  20.138  28.984   2.648  0.0140  0.0709 -0.0988
    1W        W41081  25.886   4.284   8.904  0.0097  0.1873  0.0318
    1W        W41082   7.000  14.786   1.421  0.1506  0.0855 -0.0135
    1W        W41083   8.905   5.472   1.488  0.2391  0.0627  0.0213
    1W        W41084  17.960  29.514   8.683  0.0727  0.0193  0.4485
    1W        W41085  11.179   9.693   0.886 -0.1438 -0.2729 -0.0719
    1W        W41086   8.986   6.384   9.055  0.0806  0.1383 -0.0511
    1W        W41087   4.358   7.094   2.359 -0.1054  0.0200  0.1278
    1W        W41088   3.369   8.934   0.576 -0.1893 -0.0699  0.1418
    1W        W41089   0.230  19.695   7.198 -0.5110  0.0106  0.1230
    1W        W41090  27.844  27.519   7.652  0.3960 -0.1706 -0.0369
    1W        W41091   2.200   2.865   6.767  0.1818 -0.0801 -0.2250
    1W        W41092   0.897  16.918   5.954 -0.2583 -0.0238  0.0299
    1W        W41093  10.700  13.290   9.174  0.1538 -0.0974  0.1824
    1W        W41094  24.443  10.872   5.844  0.0995  0.0380  0.1657
    1W        W41095  16.579  26.826   2.885  0.1919  0.4199  0.1256
    1W        W41096   3.149   5.401   8.080  0.3559  0.1240 -0.1115
    1W        W41097   4.439  12.428   7.541 -0.0476 -0.3743 -0.1586
    1W        W41098   1.938   0.232   2.014 -0.1532 -0.5187  0.0708
    1W        W41099   8.685  22.042   0.690 -0.3413  0.2413 -0.0515
    1W        W41100  25.770   8.919   1.362  0.0716  0.0121 -0.0271
    1W        W41101  14.294   6.589   2.556 -0.0607  0.3106  0.1647
    1W        W41102  17.675  18.864   2.199 -0.0882 -0.0725 -0.1428
    1W        W41103  24.074  19.320   8.144  0.2777 -0.1925 -0.1116
    1W        W41104   1.763   4.832   0.355 -0.1311  0.4500 -0.1918
    1W        W41105   2.383  21.583   8.564  0.0441  0.0711 -0.1576
    1W        W41106   8.332  12.160   8.033  0.2261  0.0963  0.2512
    1W        W41107   7.772   4.822   8.715 -0.1032 -0.1920 -0.3240
    1W        W41108  26.224   1.702   2.650  0.1868 -0.0376 -0.3384
    1W        W41109  17.828  21.782   7.690 -0.1117  0.0542 -0.1222
    1W        W41110  13.913  28.689   2.629 -0.3809 -0.4401 -0.1504
    1W        W41111   2.597  23.497   7.887  0.0836  0.2948  0.3304
    1W        W41112   2.809   4.895   2.573  0.0075 -0.1996  0.1516
    1W        W41113  16.719  15.131   0.938 -0.3041  0.0523  0.1028
    1W        W41114   5.602  26.876   8.890  0.2188  0.3166  0.2365
    1W        W41115  20.596  12.142   1.085  0.0312  0.0620 -0.1878
    1W        W41116  25.390  18.349   6.298  0.4239 -0.5027  0.0310
    1W        W41117  13.414  11.031   8.265  0.0172 -0.0203  0.0511
    1W        W41118   6.245  28.625   8.470 -0.1185 -0.1277 -0.3822
    1W        W41119  28.847  13.600   9.137  0.2472  0.0454 -0.3764
    1W        W41120   2.241  10.804   2.176 -0.1287 -0.1604 -0.0424
    1W        W41121   7.625   6.031   3.496 -0.3614  0.2753  0.3275
    1W        W41122  23.861  24.186   8.136 -0.0499  0.0112  0.1484
    1W        W41123  11.535  27.211   9.118  0.1589 -0.2617  0.0487
    1W        W41124  17.375  11.563   1.644 -0.2556  0.0250  0.2025
    1W        W41125  13.299  11.747   9.015 -0.2537  0.1635 -0.0080
    1W        W41126  18.658  15.507   6.941  0.2356  0.1748 -0.1868
    1W        W41127  27.065  19.915   0.286 -0.2609  0.1842  0.1231
    1W        W41128   5.954  21.834   5.188 -0.1203 -0.3627 -0.1964
    1W        W41129  28.213  10.128   7.344 -0.1650  0.1409 -0.3482
    1W        W41130  25.157  15.285   0.404  0.1219 -0.2069 -0.1388
    1W        W41131  22.652  29.807   8.905  0.0077 -0.1962 -0.0780
    1W        W41132  25.234  18.376   9.464 -0.3227 -0.1313 -0.1585
    1W        W41133  22.483   4.155   0.603  0.1287 -0.1696  0.0966
    1W        W41134   1.138   7.094   0.639 -0.0391 -0.0987  0.0640
    1W        W41135  19.208  19.544   1.992  0.4095  0.2355 -0.0547
    1W        W41136  10.435  23.581   0.653 -0.2357  0.1431 -0.1873
    1W        W41137  29.066   1.079   0.332 -0.0716 -0.1604  0.0487
    1W        W41138   5.882   2.368   6.978 -0.1449 -0.1437 -0.0924
    1W        W41139  14.605  22.404   7.220  0.0159 -0.2147  0.1712
    1W        W41140  23.889   3.180   1.056  0.0145 -0.1811 -0.1590
    1W        W41141  10.937  11.831   7.693 -0.1573  0.1463 -0.1228
    1W        W41142   7.166  27.112   0.174  0.0145  0.1100  0.0519
    1W        W41143   2.341  15.695   8.962  0.1870 -0.0546  0.1168
    1W        W41144  23.845   9.592   9.369 -0.0440 -0.2075  0.1144
    1W        W41145   7.305  14.121   7.769  0.2379 -0.0718 -0.1838
    1W        W41146  12.471   6.504   2.591  0.1134 -0.0819  0.0037
    1W        W41147   4.598  18.433   7.331 -0.1596  0.0645 -0.1100
    1W        W41148  26.038   3.478   0.846 -0.0347  0.1637  0.0506
    1W        W41149   6.989  10.848   8.882  0.0942 -0.1348 -0.1339
    1W        W41150   3.844  23.526   1.414  0.2651  0.0879 -0.1971
    1W        W41151  25.615  13.869   7.616 -0.0202 -0.0615 -0.0828
    1W        W41152  23.914   9.807   7.589  0.1332  0.3358  0.1010
    1W        W41153   6.223  22.596   8.303 -0.2283 -0.0508  0.0344
    1W        W41154  16.163   1.700   2.979 -0.2395  0.0924  0.1453
    1W        W41155  27.979  25.606   1.324 -0.0607  0.1582 -0.2509
    1W        W41156  26.324   2.725   7.193 -0.1853  0.1967  0.0612
    1W        W41157   1.329  20.109   7.983  0.0746 -0.1969 -0.0266
    1W        W41158  17.832  28.786   0.799 -0.1381  0.1298  0.0022
    1W        W41159  19.147  10.371   6.689  0.0158 -0.0834  0.0224
    1W        W41160   3.838  29.067   6.493  0.4033  0.1599 -0.0687
    1W        W41161  16.277  10.568   7.080  0.1423  0.1523 -0.1392
    1W        W41162  26.155  29.856   1.869 -0.0686  0.1012  0.2648
    1W        W41163   2.149  13.367   1.959 -0.3332 -0.0884 -0.2895
    1W        W41164  21.781   5.910   2.173 -0.0294  0.1088  0.0607
    1W        W41165  22.014  28.837   3.043 -0.1260 -0.1376 -0.0179
    1W        W41166   0.435  17.531   6.277  0.2101  0.0446 -0.0921
    1W        W41167   3.683  17.023   8.505 -0.2124  0.2002  0.0466
    1W        W41168   5.705  16.908   7.321 -0.0791  0.2541 -0.0043
    1W        W41169   1.128   8.983   0.191  0.1002  0.1440 -0.1270
    1W        W41170  16.907   6.319   7.463  0.0321  0.3102  0.1477
    1W        W41171  27.980   1.840   0.572  0.1005  0.1836 -0.3844
    1W        W41172  21.255  22.739   1.950 -0.0083 -0.2345 -0.3924
    1W        W41173  18.616   0.026   1.480  0.2999  0.0260 -0.1745
    1W        W41174  28.123   9.134   1.858 -0.3634  0.0755  0.1185
    1W        W41175   6.252  10.198   8.705  0.0130  0.1343  0.0069
    1W        W41176  11.467  23.851   8.506 -0.0282 -0.1441 -0.0598
    1W        W41177  19.419  23.250   8.066 -0.0032 -0.1468  0.3220
    1W        W41178  13.892  26.938   0.168  0.0430 -0.6513  0.0103
    1W        W41179   7.166   7.636   2.741 -0.1584  0.1977 -0.1036
    1W        W41180  26.375   2.876   6.655 -0.2424 -0.0125  0.1815
    1W        W41181  21.479  28.270   2.670 -0.0806 -0.1824 -0.0074
    1W        W41182  23.420  19.149   7.829 -0.2339 -0.0169  0.2407
    1W        W41183  15.268   5.192   9.222 -0.1544 -0.2462  0.1316
    1W        W41184   3.332  29.459   7.246 -0.1021 -0.0602  0.1320
    1W        W41185  14.096  25.406   8.693 -0.0577  0.1000  0.2463
    1W        W41186  27.083  21.696   8.180  0.0668  0.0473 -0.1114
    1W        W41187  20.684   2.544   7.061  0.2939  0.1582  0.0013
    1W        W41188  26.587   2.620   7.632  0.1370 -0.0570  0.1971
    1W        W41189  26.716   2.099   0.072 -0.3482  0.1830 -0.0070
    1W        W41190  10.900   9.783   0.495 -0.1147  0.0029 -0.2147
    1W        W41191   6.470   4.325   8.010  0.0375  0.1056  0.0218
    1W        W41192  17.072  23.194   2.041  0.0265  0.2364 -0.1551
    1W        W41193  12.135  14.487   1.844  0.3566 -0.0291  0.1722
    1W        W41194  22.543  25.522   7.629  0.1741 -0.3143  0.1988
    1W        W41195   8.282  19.624   8.603 -0.1972 -0.1190  0.4039
    1W        W41196   7.096   4.344   8.932  0.0651 -0.0697 -0.3183
    1W        W41197  17.883  26.603   9.101  0.1156  0.1381  0.2021
    1W        W41198  28.718  19.086   0.094 -0.1565 -0.1542 -0.0688
    1W        W41199  12.505   2.500   0.632  0.0486 -0.3054 -0.2741
    1W        W41200  21.872   0.193   2.304  0.1243  0.1969  0.1615
    1W        W41201  15.072  15.282   7.618 -0.3182 -0.0966  0.0694
    1W        W41202   0.830  23.567   2.304 -0.1541 -0.3217  0.1647
    1W        W41203  21.117   7.039   1.614  0.0351 -0.1518  0.1369
    1W        W41204  13.182  10.706   2.232 -0.0260  0.1136 -0.0923
    1W        W41205  21.760   9.422   8.181  0.1880 -0.1723  0.4516
    1W        W41206  14.549  19.067   8.883  0.0863 -0.1246 -0.2317
    1W        W41207  12.066  23.713   9.281 -0.1106  0.2512  0.3750
    1W        W41208  20.106  17.225   7.939  0.0575 -0.1234 -0.1616
    1W        W41209   0.923  20.380   9.300 -0.0481 -0.1939  0.2692
    1W        W41210  11.568  10.570   7.461 -0.1147 -0.2958  0.1080
    1W        W41211   7.985   4.504   2.007  0.2188  0.1301 -0.2443
    1W        W41212   6.589  18.746   1.672 -0.2137  0.0525  0.3624
    1W        W41213  23.566  15.443   0.155  0.1126 -0.1211 -0.0292
    1W        W41214   2.372  19.980   6.877  0.0111  0.1195 -0.3004
    1W        W41215   9.505  17.290   6.596  0.0262 -0.2317  0.0174
    1W        W41216  28.115   2.183   7.673 -0.0097  0.0974  0.1779
    1W        W41217   3.365   8.378   8.882  0.0229 -0.1908 -0.0196
    1W        W41218  15.594  24.250   0.563  0.1994  0.0903 -0.0029
    1W        W41219  26.077   3.829   8.304 -0.2505 -0.4579  0.2103
    1W        W41220  14.305  16.169   1.506  0.1250  0.0522  0.0842
    1W        W41221  18.273  25.861   2.848 -0.1937 -0.4333  0.1804
    1W        W41222  25.736   3.999   8.003  0.0352  0.0459  0.1949
    1W        W41223  20.009  22.816   2.123 -0.1678  0.1341  0.0960
    1W        W41224   4.429  14.328   0.530  0.0587 -0.3192 -0.4205
    1W        W41225  11.892  10.083   9.161 -0.1329 -0.1177  0.4093
    1W        W41226  12.247   8.818   7.740  0.2167  0.0398 -0.1070
    1W        W41227  27.811   4.212   6.850  0.0843  0.1228  0.0451
    1W        W41228  13.084  20.803   9.330  0.2475  0.1210  0.3186
    1W        W41229  24.561  12.693   7.898  0.0644  0.3266 -0.0456
    1W        W41230   0.325  18.492   1.831 -0.0802 -0.0199 -0.0755
    1W        W41231   1.405   4.408   6.815  0.0449  0.3651  0.0075
    1W        W41232  13.053  21.562   0.876 -0.1158  0.1139  0.1602
    1W        W41233  12.459  17.823   1.944 -0.0278  0.0203  0.0995
    1W        W41234   2.443   6.193   8.568  0.1916 -0.0034 -0.1391
    1W        W41235   8.990   4.532   7.491  0.1032  0.1178  0.2061
    1W        W41236  11.436  26.997   1.551 -0.2247 -0.0242 -0.0183
    1W        W41237   4.761  22.969   9.252 -0.0228 -0.1874  0.2208
    1W        W41238  22.403  16.595   1.524  0.1010 -0.0044 -0.0559
    1W        W41239  10.400  23.024   7.048  0.2719 -0.2421  0.0812
    1W        W41240   6.613  26.034   2.240  0.4101 -0.0541  0.2768
    1W        W41241  15.797   7.533   0.203  0.0961  0.0209  0.1656
    1W        W41242  12.265   5.004   8.507  0.0272 -0.3782  0.2822
    1W        W41243  12.489  18.212   7.370 -0.1407 -0.0604 -0.0559
    1W        W41244  27.412  15.457   8.719  0.1263 -0.0519  0.4494
    1W        W41245   7.059   3.282   1.525  0.1580 -0.2698  0.2256
    1W        W41246  28.866   7.912   0.239 -0.0664 -0.1250 -0.2452
    1W        W41247   2.221  16.706   1.968  0.0870  0.2401 -0.0422
    1W        W41248   5.909  19.640   1.514 -0.1242  0.2069 -0.0747
    1W        W41249   1.333  18.970   0.295  0.2325  0.0579  0.5377
    1W        W41250   4.615  29.565   0.740  0.0662 -0.0849  0.3561
    1W        W41251  29.867   0.023   6.638 -0.1490 -0.2201  0.0555
    1W        W41252  14.861  12.632   8.528  0.1861  0.2158  0.0582
    1W        W41253  11.146   7.046   0.448  0.0618 -0.3695  0.1063
    1W        W41254   2.514   3.539   8.090 -0.2455 -0.1010 -0.2485
    1W        W41255  17.700   2.130   0.637  0.1478 -0.1370  0.1467
    1W        W41256  12.751  24.697   8.534 -0.3938  0.0450 -0.0972
    1W        W41257  25.514  14.317   8.436 -0.1536  0.1282  0.0048
    1W        W41258   9.809  29.687   1.663  0.3183  0.3305 -0.2910
    1W        W41259  24.092   2.477   8.669  0.1869 -0.0025  0.0375
    1W        W41260  20.890   6.875   9.239 -0.1311 -0.0178  0.1191
    1W        W41261  14.144   1.523   2.381  0.0426 -0.1613 -0.2117
    1W        W41262  26.979  17.897   2.410 -0.0617  0.0631  0.0991
    1W        W41263   8.144  13.465   8.534  0.1868 -0.4813  0.1331
    1W        W41264  28.542  10.602   7.222 -0.3126  0.0690  0.0196
    1W        W41265  24.173   8.017   6.485 -0.0059 -0.2654  0.0081
    1W        W41266  17.936  12.632   8.929  0.0694  0.0154  0.1544
    1W        W41267   8.124  13.908   8.772 -0.1442  0.3199  0.0999
    1W        W41268   7.664  18.691   1.257  0.2672 -0.2465 -0.0012
    1W        W41269  17.896   9.761   7.176  0.1265  0.3167  0.0621
    1W        W41270  11.151  12.522   1.943 -0.0014  0.1944 -0.0528
    1W        W41271   2.492  13.134   2.267 -0.1890 -0.1999 -0.0263
    1W        W41272   2.036  25.349   6.442 -0.0867  0.2422 -0.2685
    1W        W41273   8.045  10.151   6.542 -0.0739 -0.0364 -0.0935
    1W        W41274  10.585  18.341   6.701 -0.2773  0.0262 -0.3063
    1W        W41275  23.848   1.579   2.863 -0.0859 -0.1857  0.0919
    1W        W41276   1.384  10.620   6.944 -0.1508 -0.0321 -0.0908
    1W        W41277  18.599   4.062   2.073  0.1713  0.0008  0.1876
    1W        W41278   3.050  26.389   1.047 -0.0549 -0.0651  0.3569
    1W        W41279  18.126  15.293   9.422 -0.1362  0.0455 -0.3151
    1W        W41280  14.227   5.403   2.093 -0.3924  0.1553  0.1020
    1W        W41281   6.662  18.532   9.194  0.1978  0.0857 -0.1398
    1W        W41282  18.830   7.546   0.444  0.1635 -0.1422 -0.0097
    1W        W41283   6.103  24.180   5.689 -0.2510 -0.0446  0.0541
    1W        W41284  22.191   1.305   7.686 -0.2690 -0.0215 -0.0473
    1W        W41285   8.157  23.285   5.969 -0.0094 -0.0353 -0.3420
    1W        W41286  10.113  10.389   2.477  0.1467 -0.2569 -0.1862
    1W        W41287   1.464  29.606   2.837 -0.0275 -0.3026 -0.0862
    1W        W41288  14.900  28.148   2.441 -0.0179  0.2411 -0.2630
    1W        W41289  23.881   3.725   0.126 -0.1461 -0.1433  0.0722
    1W        W41290  25.395  23.468   2.049  0.1387  0.4325 -0.0775
    1W        W41291  17.396   5.070   6.706  0.1185  0.1234  0.1012
    1W        W41292  16.542   6.005   2.188  0.4395 -0.3445  0.0075
    1W        W41293   1.933   1.493   1.947  0.1091  0.1059 -0.1292
    1W        W41294   0.839   2.440   2.485  0.2708 -0.4883  0.0617
    1W        W41295  26.451  25.340   3.217 -0.0107  0.0269 -0.0029
    1W        W41296  16.363  14.653   6.481  0.0075 -0.1856 -0.0010
    1W        W41297   1.093  20.505   6.915  0.2059 -0.0180  0.0591
    1W        W41298  13.491  23.857   2.269 -0.1152 -0.2642  0.1705
    1W        W41299  16.913   9.113   0.893 -0.2862  0.0342 -0.3160
    1W        W41300  20.247  20.570   9.334  0.2259 -0.1471 -0.0217
    1W        W41301  24.590  27.796   7.600  0.1379 -0.1128  0.0106
    1W        W41302   2.721   5.793   2.520  0.2744  0.1650  0.1825
    1W        W41303  17.874  21.661   0.478 -0.2461 -0.3131  0.0054
    1W        W41304   0.562  16.145   1.226  0.1041 -0.0154  0.2038
    1W        W41305  20.217  29.470   2.210  0.2610 -0.0717  0.4131
    1W        W41306  15.464  16.228   0.930 -0.0513 -0.2222  0.2212
    1W        W41307  12.188  25.300   7.600 -0.1605 -0.0801  0.1623
    1W        W41308  12.757  22.555   5.775 -0.3101 -0.0867  0.1356
    1W        W41309  11.127   4.758   8.206 -0.0041 -0.1161 -0.0470
    1W        W41310  11.737   7.202   0.524  0.0910 -0.0125 -0.0450
    1W        W41311   4.080  25.723   1.753  0.0847 -0.1558  0.3802
    1W        W41312  16.096   5.690   8.815  0.1125 -0.0579  0.0269
    1W        W41313  28.611  26.840   6.520  0.0259  0.2450 -0.0413
    1W        W41314   2.080  16.627   8.221  0.1023 -0.2196  0.4024
    1W        W41315   6.003  25.169   8.319 -0.0090 -0.0372  0.0522
    1W        W41316  28.047  11.462   6.145  0.0408  0.0609 -0.1523
    1W        W41317  15.853   3.028   1.848 -0.3690 -0.4804  0.0334
    1W        W41318  15.016  10.144   9.031 -0.0411  0.0813  0.1358
    1W        W41319  24.356   2.336   0.850  0.0787  0.2464  0.0411
    1W        W41320   2.721  15.159   7.861  0.0767  0.3238 -0.1511
    1W        W41321  24.816   8.758   6.477 -0.0011  0.1597  0.2273
    1W        W41322   4.728  24.262   8.057  0.3285 -0.1635  0.1535
    1W        W41323  25.552   7.806   7.556  0.2551  0.0385 -0.2035
    1W        W41324  12.186  16.235   0.215  0.1192 -0.1925 -0.0904
    1W        W41325  24.139  29.359   7.629  0.1514  0.4198 -0.1193
    1W        W41326   1.191  26.767   7.494 -0.4606  0.3735 -0.2779
    1W        W41327  25.383  21.054   9.335 -0.1478  0.1799 -0.1424
    1W        W41328  11.812  27.277   7.596 -0.0535  0.0245  0.0057
    1W        W41329  17.801  23.742   8.779  0.0489 -0.3280  0.0150
    1W        W41330  23.449  28.384   1.200  0.0746  0.3508  0.0738
    1W        W41331  21.032  16.629   8.640 -0.1338 -0.0747  0.0365
    1W        W41332   2.595  21.802   8.980 -0.0142 -0.0334 -0.1959
    1W        W41333  25.926   7.055   0.818  0.1673  0.1417  0.0696
    1W        W41334  15.873   1.494   8.713  0.2143  0.4402  0.0037
    1W        W41335   7.795  20.485   9.317 -0.2568 -0.0360 -0.1117
    1W        W41336  20.418   9.490   9.388  0.4571 -0.0034  0.2461
    1W        W41337  24.143  11.614   8.340  0.0055 -0.1309 -0.0146
    1W        W41338  13.242   3.462   8.874  0.1012  0.1396  0.0553
    1W        W41339  20.307  11.862   0.224 -0.1118 -0.1335 -0.1295
    1W        W41340  17.335   4.991   7.260  0.0094 -0.1551 -0.2379
    1W        W41341   3.521  21.990   9.317  0.0369 -0.0440  0.0385
    1W        W41342  18.124   6.957   8.174 -0.1122  0.1759 -0.1208
    1W        W41343  15.085  29.727   2.820  0.3554 -0.0313  0.0972
    1W        W41344   8.900   7.402   2.636 -0.0816  0.0511 -0.3847
    1W        W41345  26.136   8.531   0.164  0.4395 -0.0436  0.0408
    1W        W41346  12.372   1.581   2.011 -0.1024  0.1375  0.2336
    1W        W41347  21.001  11.551   0.040  0.1213 -0.0302  0.0369
    1W        W41348  12.745   5.599   7.863 -0.2053 -0.0670  0.0100
    1W        W41349  19.517  27.387   0.151 -0.1849 -0.0072  0.2602
    1W        W41350  28.592   6.191   8.650  0.2442  0.1188 -0.2003
    1W        W41351   9.712  19.855   2.272  0.2968  0.3703 -0.2259
    1W        W41352   2.372   9.871   0.099 -0.0541 -0.1509  0.0137
    1W        W41353  24.788  16.203   6.482  0.0578  0.1530  0.3336
    1W        W41354  15.488   6.434   7.741 -0.3685  0.3914 -0.1053
    1W        W41355  22.053  14.314   7.880  0.0150  0.1571  0.3100
    1W        W41356  28.739  19.849   0.746 -0.4767 -0.0783 -0.3036
    1W        W41357  26.083   6.086   8.082  0.1850 -0.2894  0.1011
    1W        W41358  16.725   2.725   1.396 -0.1061  0.0502 -0.0695
    1W        W41359   1.653  15.570   7.786 -0.0780 -0.0842 -0.2184
    1W        W41360  12.025   5.491   9.250 -0.0992  0.0533  0.3191
    1W        W41361  19.699   4.850   8.764 -0.2051  0.2589  0.1270
    1W        W41362  26.454   1.175   2.659 -0.0173  0.2525  0.0924
    1W        W41363  24.410  15.297   7.702  0.1466  0.0201  0.1144
    1W        W41364  11.134   0.977   2.011 -0.0048  0.0591 -0.1389
    1W        W41365  25.515   2.724   7.839  0.1951 -0.0163 -0.0569
    1W        W41366  21.782  29.424   0.567 -0.0295  0.1115 -0.1662
    1W        W41367  11.436  25.505   9.439 -0.0673  0.2532 -0.2514
    1W        W41368  20.559  27.160   3.184  0.1524 -0.3084  0.2319
    1W        W41369   8.740  18.525   0.407  0.2533  0.1364  0.3022
    1W        W41370  13.493  22.517   1.256 -0.0555 -0.2008 -0.2641
    1W        W41371  18.216  15.292   0.426 -0.0304  0.0524 -0.0181
    1W        W41372  12.538   8.757   9.181 -0.0543 -0.0850  0.2571
    1W        W41373  16.777   0.353   2.811  0.1280 -0.1363 -0.1878
    1W        W41374  12.959  27.919   3.189  0.1604  0.2345 -0.1608
    1W        W41375   7.362   4.342   7.933 -0.2530 -0.2224 -0.1066
    1W        W41376  11.217  26.581   1.099 -0.2226  0.2216 -0.0787
    1W        W41377   1.906  25.209   6.942 -0.1421  0.0064  0.2115
    1W        W41378   8.408  22.746   1.133  0.1869  0.0569  0.1002
    1W        W41379  24.106   5.705   1.777  0.2071  0.0775  0.2203
    1W        W41380  11.894  21.653   9.134  0.0264  0.1417  0.1422
    1W        W41381   4.498   7.897   2.674  0.1907  0.0987  0.1005
    1W        W41382  14.257  21.921   7.333 -0.0809 -0.3123 -0.0007
    1W        W41383  27.030  29.472   7.187  0.0145 -0.0722  0.0346
    1W        W41384  17.316  22.048   1.756 -0.0290 -0.0723  0.1559
    1W        W41385  17.715   7.209   7.894  0.0243 -0.3376  0.0914
    1W        W41386  27.904  28.752   7.480  0.1693  0.3007 -0.1970
    1W        W41387   3.602   4.572   1.781 -0.0868 -0.2283 -0.0764
    1W        W41388  20.218  17.467   0.528 -0.0602  0.0501  0.4326
    1W        W41389  25.381  24.582   6.257 -0.0186  0.2228 -0.2422
    1W        W41390  13.366  10.203   1.646  0.1793 -0.0178  0.0903
    1W        W41391   6.914   3.100   2.791  0.3032 -0.1508  0.2536
    1W        W41392  28.944  14.380   7.172 -0.1900  0.1403 -0.0421
    1W        W41393   2.289  12.839   1.888 -0.4098 -0.1398 -0.0878
    1W        W41394  25.997  23.977   0.841  0.1520 -0.0227  0.1346
    1W        W41395   5.602   8.172   1.128  0.1042  0.1619 -0.0634
    1W        W41396  21.804  26.410   2.013 -0.4760  0.1299 -0.2661
    1W        W41397  18.609   0.533   0.197 -0.2101 -0.0345  0.0530
    1W        W41398   2.983   7.609   2.227  0.2113 -0.1641  0.0601
    1W        W41399   3.495   2.371   9.106 -0.0670  0.2309 -0.0394
    1W        W41400  29.869  21.391   0.313  0.0462 -0.3146 -0.1092
    1W        W41401  20.981   2.581   1.858 -0.2636 -0.0491 -0.0573
    1W        W41402   9.451  24.503   6.787  0.0519 -0.2620 -0.6382
    1W        W41403   5.145  26.096   9.117  0.0535 -0.0531 -0.0646
    1W        W41404  10.066  10.769   9.331  0.0752 -0.1585 -0.2452
    1W        W41405   1.556  17.729   7.654 -0.1506 -0.0448 -0.3147
    1W        W41406  27.137  21.636   9.114 -0.0724  0.0536  0.0312
    1W        W41407   4.646   5.796   7.877 -0.0772  0.1248  0.1128
    1W        W41408   7.707  17.775   8.072 -0.2051 -0.2299 -0.0826
    1W        W41409   9.359   1.879   8.993 -0.0789 -0.1355  0.0897
    1W        W41410   4.600  24.302   1.732  0.0805 -0.1734  0.2326
    1W        W41411  21.899  11.642   1.682 -0.0231  0.0115 -0.2095
    1W        W41412  16.463   5.444   1.477  0.2716  0.0266  0.0487
    1W        W41413  16.164   9.857   8.566 -0.0223 -0.0511  0.0918
    1W        W41414  17.585  19.954   2.769 -0.0468  0.0322 -0.1119
    1W        W41415  20.849  14.509   0.385  0.0422 -0.0048 -0.1809
    1W        W41416  17.442  20.315   2.511 -0.2095  0.0888 -0.1756
    1W        W41417  11.977   1.686   1.253 -0.2201  0.2675 -0.0793
    1W        W41418   4.067  20.655   7.033  0.1503 -0.1885  0.0043
    1W        W41419  18.554  11.964   0.341  0.0126 -0.0361 -0.0503
    1W        W41420  27.508  19.305   6.545  0.0802 -0.0365 -0.0482
    1W        W41421  17.352  22.069   0.437  0.0394 -0.1664  0.1913
    1W        W41422   8.498  18.395   8.183  0.1334  0.1567 -0.2857
    1W        W41423  24.725  25.627   7.877 -0.0080  0.2020  0.2276
    1W        W41424   2.330   1.092   1.216  0.2579  0.2278  0.3735
    1W        W41425   2.173  16.141   5.931 -0.2674  0.1926 -0.2845
    1W        W41426   3.655  22.950   2.682 -0.0463 -0.0112  0.0080
    1W        W41427  23.742  11.787   1.837 -0.2849  0.2753 -0.0920
    1W        W41428   0.895  16.210   2.595  0.1569  0.2631 -0.1657
    1W        W41429  16.143   0.710   8.285 -0.0172  0.1376 -0.0369
    1W        W41430   9.662  25.192   1.535  0.0349  0.0013  0.1662
    1W        W41431  19.136  19.539   0.617 -0.1929 -0.0757 -0.2339
    1W        W41432   3.358  20.125   8.269 -0.0662  0.2011 -0.1128
    1W        W41433  13.845  13.045   7.740  0.1200 -0.0423  0.1422
    1W        W41434   1.740  14.195   6.935  0.2148  0.0800  0.0124
    1W        W41435   4.192   7.484   2.736  0.1576  0.3606 -0.4237
    1W        W41436  23.975   8.042   1.337 -0.0814 -0.3561 -0.0514
    1W        W41437  15.269  24.343   7.596  0.0032  0.2855  0.1035
    1W        W41438  17.294  27.914   0.774  0.2587 -0.1835 -0.0043
    1W        W41439   9.489  29.650   7.738 -0.0664 -0.1919  0.1301
    1W        W41440   7.109  29.889   8.498 -0.0219  0.3546  0.0277
    1W        W41441  22.835   1.380   1.802 -0.0326 -0.4088 -0.0527
    1W        W41442   0.750   3.575   9.304 -0.2995 -0.2005  0.1055
    1W        W41443  22.388  26.262   8.078  0.2499 -0.0604  0.3186
    1W        W41444   5.627  20.481   5.736  0.1741 -0.3052  0.1754
    1W        W41445   7.764  26.159   1.980 -0.2199  0.0459 -0.1762
    1W        W41446  18.089   9.192   6.051 -0.1636 -0.0612 -0.0282
    1W        W41447  26.421  25.466   0.565 -0.1467  0.3759  0.1207
    1W        W41448  24.800  15.986   9.079  0.0135  0.1212  0.0725
    1W        W41449   0.569  16.907   8.915 -0.0791  0.1000 -0.1463
    1W        W41450  22.543  27.034   8.456 -0.0193 -0.0144  0.0126
    1W        W41451  28.880  18.373   0.734 -0.1238 -0.1312 -0.0443
    1W        W41452  25.620  14.297   0.514 -0.0328  0.0767 -0.2296
    1W        W41453  21.795  11.142   9.045 -0.0138  0.0530 -0.1980
    1W        W41454  29.447   6.390   7.471 -0.0484  0.2950 -0.1256
    1W        W41455  13.033  14.130   0.889 -0.1115 -0.0661 -0.0453
    1W        W41456  10.788   3.597   8.959 -0.1433 -0.3409  0.0315
    1W        W41457  13.242  26.789   9.453  0.2230  0.0679 -0.0599
    1W        W41458  25.461   9.753   1.488  0.2014  0.1226 -0.1665
    1W        W41459  12.296  15.938   2.531  0.0823  0.1740 -0.0607
    1W        W41460  15.825  29.738   7.657  0.0226  0.0589  0.0122
    1W        W41461   6.559  26.307   7.978  0.3546  0.0012  0.1093
    1W        W41462  23.382  28.868   1.090  0.0016 -0.4508  0.2183
    1W        W41463  17.552   5.896   7.936  0.4356 -0.0260 -0.0042
    1W        W41464  28.344   6.503   7.729  0.0640  0.2916 -0.0208
    1W        W41465  15.157  18.114   8.871  0.0093  0.0674 -0.0003
    1W        W41466   2.584  19.587   1.379 -0.2364 -0.2522 -0.1003
    1W        W41467  25.894  19.240   0.769  0.2640  0.1698 -0.0280
    1W        W41468  12.158   4.549   9.289  0.1302  0.1506  0.2577
    1W        W41469   8.818  20.738   2.015 -0.1564 -0.0607  0.0941
    1W        W41470  11.937   5.022   9.437 -0.1744 -0.0857  0.0577
    1W        W41471   1.232  20.087   1.074  0.3358 -0.0035 -0.1097
    1W        W41472  16.910  12.043   6.523  0.5314 -0.1025  0.1026
    1W        W41473  28.065   3.605   7.384 -0.1826  0.2335 -0.1881
    1W        W41474  10.263   4.064   2.945 -0.1009  0.0935 -0.2096
    1W        W41475   0.738  13.497   0.356  0.2459 -0.1733 -0.0972
    1W        W41476  17.773  20.503   7.118 -0.0475  0.1787 -0.0462
    1W        W41477  13.811  10.267   2.944 -0.0884  0.2290  0.0211
    1W        W41478  19.285  10.990   0.137 -0.0303 -0.0017 -0.0965
    1W        W41479   8.222   5.359   0.652 -0.0474  0.0881  0.1569
    1W        W41480  21.203  21.208   0.657 -0.0980 -0.1728 -0.2630
    1W        W41481   1.033  20.855   8.514 -0.1024  0.5543  0.1451
    1W        W41482   5.868   1.309   7.849 -0.0513 -0.0132 -0.1710
    1W        W41483   5.016   2.396   0.126 -0.2580 -0.3504  0.0509
    1W        W41484  10.132  20.866   9.173  0.0090  0.1274  0.1357
    1W        W41485  27.194   5.457   0.955  0.1219 -0.1127  0.1694
    1W        W41486  20.906   9.539   9.225  0.0777 -0.0853  0.0023
    1W        W41487  27.895  24.118   1.133  0.2124 -0.1587  0.0743
    1W        W41488   0.383  19.555   1.945 -0.1175  0.1719 -0.0983
    1W        W41489   0.584  29.782   2.380  0.1525 -0.2125 -0.1958
    1W        W41490  23.809  22.974   1.460 -0.1452 -0.0184 -0.1952
    1W        W41491  23.269  28.606   2.272 -0.1825 -0.0627  0.0643
    1W        W41492   8.252  29.861   0.247  0.0854 -0.2046 -0.0202
    1W        W41493  15.131  22.075   7.281  0.2283 -0.0496  0.2829
    1W        W41494   0.974  12.813   8.446  0.2624 -0.1807  0.1256
    1W        W41495  10.597  26.905   2.670  0.0582 -0.0427 -0.0041
    1W        W41496  29.381   2.793   0.138  0.1059  0.0153 -0.0603
    1W        W41497  21.310   4.891   8.613 -0.0868  0.1603 -0.0454
    1W        W41498   0.837  13.266   6.932 -0.1648  0.3210 -0.2811
    1W        W41499  24.204  17.010   8.345  0.1177 -0.0570  0.0790
    1W        W41500   2.689  27.805   0.116  0.1522  0.1328 -0.2192
    1W        W41501   7.696   0.878   1.167 -0.1071  0.0940  0.0475
    1W        W41502  13.553  16.130   7.414 -0.1971 -0.1832  0.4352
    1W        W41503  26.945  15.064   8.786  0.2744 -0.5513  0.0399
    1W        W41504   2.744  25.064   7.055 -0.0330 -0.0318  0.3958
    1W        W41505   1.625  14.741   7.132  0.1123 -0.2318 -0.0252
    1W        W41506  24.694   2.926   1.536  0.2856 -0.0382 -0.3083
    1W        W41507  27.120  11.405   6.516 -0.3712 -0.0429  0.1296
    1W        W41508  16.791   9.172   7.346 -0.0573 -0.1424  0.0177
    1W        W41509  18.179  23.335   1.477 -0.2002  0.2581 -0.1172
    1W        W41510  25.283  10.111   0.211 -0.1681 -0.2140  0.0137
    1W        W41511   1.976  21.767   2.145  0.0347 -0.5191  0.0437
    1W        W41512   8.720  19.524   7.347 -0.1723  0.0258  0.2525
    1W        W41513  23.040  21.235   7.612 -0.0103  0.0934  0.0612
    1W        W41514   2.332   4.454   3.178 -0.0301 -0.0431 -0.1664
    1W        W41515  26.416   0.081   2.496 -0.0707  0.0875  0.3282
    1W        W41516  11.559  17.022   8.393  0.0054  0.1418  0.1087
    1W        W41517  23.914  24.287   0.407  0.0797  0.1307 -0.1764
    1W        W41518  23.505  16.396   0.141 -0.0542 -0.0417 -0.3356
    1W        W41519   6.219   1.275   8.191 -0.0589  0.1461 -0.0969
    1W        W41520  24.132   8.485   0.144 -0.4549 -0.4975 -0.3868
    1W        W41521  17.811  29.181   3.547 -0.3388  0.3164  0.1542
    1W        W41522  11.872  10.610   8.252  0.1969 -0.1994 -0.2988
    1W        W41523   0.822   7.667   0.334  0.5894  0.1434  0.4207
    1W        W41524  15.334  11.593   2.092  0.1439 -0.3053  0.1406
    1W        W41525  26.382  11.542   7.706 -0.2427  0.5792  0.2347
    1W        W41526   0.379  12.424   8.400  0.0849 -0.3594  0.2295
    1W        W41527  28.603   5.985   1.839 -0.0949 -0.2293  0.0069
    1W        W41528  27.147  19.918   9.021  0.0505 -0.0413  0.1258
    1W        W41529  19.078  22.455   2.102 -0.1415 -0.1360  0.0367
    1W        W41530  18.890   9.323   7.105 -0.2520 -0.1832 -0.0260
    1W        W41531  11.890  23.612   8.521 -0.2179 -0.1679 -0.1429
    1W        W41532  23.793  18.732   0.656 -0.1039 -0.0916  0.0306
    1W        W41533  21.233  24.404   9.372 -0.1104 -0.2268 -0.0209
    1W        W41534   4.371  20.989   5.217 -0.2081  0.5072 -0.2930
    1W        W41535  17.703   0.309   3.179 -0.1683 -0.0828 -0.1039
    1W        W41536  23.232  18.646   2.166 -0.0462 -0.0922  0.0620
    1W        W41537  21.897  13.693   7.861  0.0095  0.0325 -0.3007
    1W        W41538  27.656   5.045   0.136 -0.0669  0.1824 -0.2514
    1W        W41539   9.627   1.980   1.517 -0.1439 -0.1179 -0.0532
    1W        W41540   6.639  23.468   8.145 -0.0590  0.0456 -0.1678
    1W        W41541   9.016  16.147   0.646  0.0257 -0.0356 -0.0028
    1W        W41542   4.340  15.679   8.494 -0.3020 -0.1656  0.1679
    1W        W41543  16.069   9.277   0.712 -0.0872 -0.2882 -0.1936
    1W        W41544  13.579   5.115   2.708  0.2305 -0.0438 -0.2857
    1W        W41545   0.460  16.081   7.116  0.1713  0.1675  0.0966
    1W        W41546   0.193  12.635   2.231 -0.2417  0.2863  0.2134
    1W        W41547  24.425  20.100   2.039 -0.2071  0.1653 -0.0848
    1W        W41548  12.673  20.551   1.695 -0.2961 -0.2647  0.0059
    1W        W41549  14.003   0.144   8.982  0.1431  0.0415 -0.0640
    1W        W41550   6.891  16.896   1.159 -0.2676 -0.1723 -0.3007
    1W        W41551  25.157   7.760   6.368 -0.0385 -0.0622 -0.2116
    1W        W41552   5.734  22.193   5.574 -0.1311 -0.0303  0.1302
    1W        W41553  21.031   7.869   7.183 -0.0956 -0.1661  0.0557
    1W        W41554  26.672  16.340   7.761 -0.1915 -0.2082  0.0761
    1W        W41555  14.643  18.131   8.678 -0.5197  0.0841 -0.1744
    1W        W41556  10.893   2.955   7.242  0.1570  0.2020  0.0150
    1W        W41557   3.762   4.397   1.279 -0.1660  0.1680 -0.0358
    1W        W41558  10.848  24.580   1.604  0.0131  0.1597 -0.3515
    1W        W41559   7.114   2.771   8.196 -0.0971 -0.2108  0.2326
    1W        W41560   3.605  24.328   6.338  0.0363  0.1199 -0.1276
    1W        W41561  18.046   6.939   2.009  0.0048  0.0588  0.1524
    1W        W41562  17.577   7.050   7.443  0.2267  0.3875 -0.0255
    1W        W41563  23.643  11.981   7.049  0.0085  0.1616  0.1298
    1W        W41564  11.130  27.878   0.544  0.2977  0.0401  0.0752
    1W        W41565  11.178  21.873   6.911  0.2518  0.1487  0.1295
    1W        W41566   4.337  27.224   7.064  0.1493  0.0125 -0.0114
    1W        W41567  13.295  12.595   7.409  0.0228  0.2837  0.3577
    1W        W41568  17.584  21.733   0.861  0.1298 -0.2519 -0.1232
    1W        W41569   3.704  28.440   8.482 -0.0998  0.0423 -0.2060
    1W        W41570   5.729   6.892   2.764 -0.0879 -0.3083 -0.3940
    1W        W41571  16.382  26.651   1.024 -0.0103  0.1017 -0.0689
    1W        W41572   0.477  26.431   9.293 -0.1882  0.1658  0.2902
    1W        W41573   6.216  14.463   6.178 -0.2715  0.1015  0.0921
    1W        W41574  27.100  12.919   7.811  0.1881  0.1803  0.4160
    1W        W41575  11.382  23.377   8.494  0.0590  0.2513 -0.1990
    1W        W41576   5.158  20.930   1.577 -0.2185  0.2734  0.1836
    1W        W41577  16.041  27.988   0.035 -0.3344 -0.1795  0.0038
    1W        W41578  19.804  28.530   2.349  0.0896 -0.1733  0.0122
    1W        W41579   8.146  21.533   6.999  0.1992 -0.3099 -0.1562
    1W        W41580  17.130   5.979   0.181  0.1952 -0.4719  0.0178
    1W        W41581  20.214  19.481   9.270  0.2979  0.2876 -0.3486
    1W        W41582  18.944  13.395   1.548 -0.0770 -0.0264  0.0330
    1W        W41583  29.273  11.859   8.511  0.0495 -0.1468  0.0500
    1W        W41584   3.761   9.106   3.146  0.1437  0.1747 -0.4062
    1W        W41585  16.988  13.460   7.213 -0.0620 -0.3949  0.1212
    1W        W41586   4.690  16.832   0.652 -0.1590  0.1380 -0.1387
    1W        W41587  14.015  22.826   8.814  0.2549 -0.0597  0.1591
    1W        W41588   8.489   4.089   0.188  0.0586  0.0573 -0.0045
    1W        W41589  10.682  10.640   8.026 -0.1483  0.1828 -0.0270
    1W        W41590   5.895   9.009   2.693  0.1880 -0.1038 -0.0129
    1W        W41591  22.031  28.611   3.488  0.0878 -0.0539 -0.2889
    1W        W41592  24.635  11.789   8.175 -0.0731  0.0321  0.0370
    1W        W41593   5.509  16.508   2.284 -0.2277 -0.0660 -0.1489
    1W        W41594  20.795  11.609   6.641  0.0714 -0.0095  0.2952
    1W        W41595  18.676   7.910   7.485 -0.0942  0.3481  0.2126
    1W        W41596  12.721  25.071   0.356 -0.0386 -0.0490 -0.0229
    1W        W41597  22.782  26.774   2.265  0.0936  0.0368  0.1521
    1W        W41598   9.855  26.613   2.125 -0.1348 -0.1557  0.2034
    1W        W41599  26.345  24.673   8.112  0.0319  0.2727  0.1088
    1W        W41600  24.927  13.516   0.281  0.0980  0.0933  0.0366
    1W        W41601   5.441  21.494   5.988  0.3063  0.1260  0.2858
    1W        W41602  12.641  24.452   6.474 -0.0504 -0.0491 -0.2178
    1W        W41603   3.110  25.353   0.715 -0.1152  0.1436 -0.1162
    1W        W41604   3.950  18.777   8.058  0.0675 -0.0464  0.2090
    1W        W41605  19.023   9.167   1.432  0.0976  0.3300  0.4334
    1W        W41606  13.983  24.496   0.654  0.1073 -0.1522 -0.0971
    1W        W41607   1.069  21.172   7.283 -0.1653  0.3599 -0.2844
    1W        W41608  26.416  12.460   0.358 -0.0028 -0.0394 -0.2134
    1W        W41609  22.657   3.810   0.288 -0.0378 -0.2274  0.3567
    1W        W41610  23.556  12.690   1.850  0.1224 -0.3567 -0.0391
    1W        W41611  27.429   4.148   9.397  0.2675  0.1431  0.3173
    1W        W41612  14.104  10.063   1.729 -0.1674  0.0570  0.0754
    1W        W41613  25.727  13.015   6.302 -0.1547 -0.2022  0.0395
    1W        W41614  22.029  22.299   0.439 -0.0322 -0.0974  0.1568
    1W        W41615  26.845  20.502   0.236 -0.0683 -0.2309 -0.0993
    1W        W41616   6.750  28.077   8.506 -0.1205  0.1246 -0.2154
    1W        W41617  18.342  26.207   1.888 -0.0691 -0.0971 -0.2245
    1W        W41618   1.668  28.873   9.348 -0.0990 -0.0813  0.1546
    1W        W41619  28.326   7.170   1.325 -0.0924  0.2086 -0.1303
    1W        W41620   8.381  28.265   2.620 -0.4937 -0.1387 -0.3220
    1W        W41621  17.415   5.875   9.265 -0.0707 -0.3464  0.2642
    1W        W41622   9.030   1.329   8.930  0.2296  0.1932 -0.1954
    1W        W41623  23.365   7.529   2.120  0.1409  0.1090  0.2595
    1W        W41624  11.166   0.423   1.119 -0.2205  0.2863  0.1921
    1W        W41625  28.225  29.546   7.776  0.0572 -0.1679  0.1405
    1W        W41626  17.423  21.951   7.296 -0.1610 -0.1754 -0.1096
    1W        W41627   0.607  11.403   9.265 -0.2029 -0.1104  0.0411
    1W        W41628  22.855   8.058   7.063 -0.1851 -0.0578  0.0940
    1W        W41629   9.174  17.357   1.785  0.0504  0.1348  0.1208
    1W        W41630   7.265   9.685   8.035 -0.1880  0.0425  0.0961
    1W        W41631   6.378  28.405   2.698 -0.0563  0.0630 -0.4710
    1W        W41632  28.329  17.953   0.853  0.3884  0.1767 -0.1423
    1W        W41633   0.628  20.282   2.413 -0.0542  0.1975 -0.1722
    1W        W41634  27.029   4.358   3.165 -0.1875  0.3269  0.0574
    1W        W41635  14.211  21.018   6.588 -0.0890 -0.2364 -0.1022
    1W        W41636  28.370   4.072   8.623  0.0725  0.0632 -0.1679
    1W        W41637  10.470  18.706   9.133 -0.2143 -0.2365  0.0545
    1W        W41638  23.101   6.071   7.789 -0.0638  0.2702  0.1797
    1W        W41639  15.262   9.895   0.895 -0.1085  0.2344 -0.1945
    1W        W41640  19.107  21.290   1.889 -0.1336  0.3878 -0.0757
    1W        W41641  21.584  22.639   7.581  0.0552 -0.1609 -0.1010
    1W        W41642  12.468  22.015   1.787  0.1961 -0.0049  0.1212
    1W        W41643   7.874  14.879   0.222  0.3285 -0.1647 -0.2732
    1W        W41644  22.615  20.149   9.279 -0.0488  0.0900  0.0268
    1W        W41645   8.077  18.226   7.223  0.2063 -0.2301  0.0471
    1W        W41646  22.240  24.184   2.325 -0.2807 -0.1072 -0.3847
    1W        W41647  16.335  19.498   1.704 -0.1825  0.3094 -0.0273
    1W        W41648  23.426  29.839   8.768 -0.0845 -0.2722 -0.1895
    1W        W41649  24.279   2.659   0.391 -0.1305  0.0050  0.1869
    1W        W41650  28.834  15.393   6.845  0.0792  0.0796 -0.0563
    1W        W41651   8.551  14.189   2.273  0.0936 -0.2965  0.1654
    1W        W41652   9.722   5.056   0.459  0.0150  0.0683  0.0169
    1W        W41653  27.301  15.343   0.387 -0.1519 -0.1793  0.3732
    1W        W41654   5.864   0.292   8.314 -0.0373 -0.1898 -0.2388
    1W        W41655  23.580  17.374   0.489 -0.1967  0.1200  0.0909
    1W        W41656   3.212  21.314   8.364 -0.3238 -0.3366 -0.1469
    1W        W41657  23.554   6.284   8.981 -0.1589 -0.1021 -0.0799
    1W        W41658  18.963  19.130   1.756  0.1996  0.0845 -0.2033
    1W        W41659  19.565   9.890   2.351  0.1489 -0.1136  0.1450
    1W        W41660  29.807  19.168   8.934 -0.3301  0.2564  0.0478
    1W        W41661   1.403   3.096   0.295 -0.2628 -0.0944 -0.2611
    1W        W41662  17.401  27.844   1.430 -0.2144  0.1307  0.0196
    1W        W41663  16.426  20.951   6.691  0.3763 -0.0858  0.1917
    1W        W41664  14.239   8.856   6.882 -0.1389 -0.0268 -0.3011
    1W        W41665   1.371  26.677   1.762 -0.1201  0.1732  0.3428
    1W        W41666  28.714  25.055   6.596 -0.4600  0.2322  0.1386
    1W        W41667  24.484   5.745   1.323 -0.0681 -0.0835 -0.2242
    1W        W41668  24.825  17.015   5.991 -0.0662  0.1142  0.0708
    1W        W41669  15.664   9.373   0.232  0.0420 -0.1633  0.3271
    1W        W41670  25.206  15.256   9.091 -0.2014 -0.3789 -0.1642
    1W        W41671  18.661  17.915   6.922 -0.3966  0.0795  0.1503
    1W        W41672  26.905   4.051   8.747 -0.2223 -0.0099  0.3340
    1W        W41673  13.413   1.065   4.097 -0.1157  0.2236 -0.2593
    1W        W41674  28.449  13.887   0.295 -0.0408 -0.0501 -0.0777
    1W        W41675  21.982  14.471   8.394 -0.2016 -0.4184  0.0546
    1W        W41676   5.020  11.354   2.002  0.1648 -0.0213 -0.4211
    1W        W41677  20.697  11.732   0.538  0.1345 -0.0937 -0.2829
    1W        W41678  28.538  23.765   8.918 -0.0306 -0.1743  0.0460
    1W        W41679  29.752  15.973   0.403 -0.0227  0.0621 -0.0819
    1W        W41680  26.874  26.029   2.548 -0.0663  0.0307 -0.0410
    1W        W41681  21.087  11.735   7.332 -0.1978  0.0932 -0.0268
    1W        W41682  20.368   0.919   0.874 -0.1605 -0.3966  0.0043
    1W        W41683  14.100  13.323   9.032 -0.1207  0.0446  0.1556
    1W        W41684  28.618  13.381   2.522  0.0615 -0.1137  0.2068
    1W        W41685   8.140  16.740   8.194  0.1906 -0.0940  0.3590
    1W        W41686   7.165  28.708   0.283  0.2797 -0.0960  0.1552
    1W        W41687  22.242   0.877   0.724  0.0553  0.0049  0.0047
    1W        W41688   6.863  22.036   1.428  0.0175  0.0885 -0.1032
    1W        W41689   0.327  19.396   2.372 -0.3175 -0.2215 -0.0460
    1W        W41690   9.665   1.197   0.466  0.1810 -0.3491  0.2538
    1W        W41691  25.044  22.167   1.800 -0.1239 -0.0526  0.0698
    1W        W41692   9.741   6.591   9.051  0.3271 -0.1001 -0.1315
    1W        W41693  21.765  22.576   0.102  0.0917  0.0429  0.0634
    1W        W41694  13.308  16.563   1.796 -0.1510 -0.0454  0.0441
    1W        W41695   1.237  12.319   0.087  0.2510  0.1160  0.0540
    1W        W41696   2.483  14.269   6.817  0.2977 -0.3673  0.0995
    1W        W41697  14.603  14.510   7.713 -0.0103  0.1176 -0.0795
    1W        W41698   6.151  23.740   6.581 -0.3456  0.0534 -0.3142
    1W        W41699  24.333  29.667   1.772  0.0643  0.0032 -0.1145
    1W        W41700   3.061   8.713   0.219 -0.0431  0.1115 -0.1936
    1W        W41701   9.434  26.364   5.891  0.2031  0.2325  0.0560
    1W        W41702  21.976  23.843   1.138  0.1712 -0.0130 -0.0026
    1W        W41703  29.854  20.038   7.418 -0.2113  0.0882 -0.0163
    1W        W41704   4.067  16.423   1.032  0.0080 -0.1599 -0.2461
    1W        W41705  24.073  10.119   1.316  0.1633 -0.2490 -0.2673
    1W        W41706  28.026   4.640   7.112  0.1094 -0.2619 -0.0581
    1W        W41707   5.311   5.176   2.271 -0.1664  0.1855  0.1599
    1W        W41708  28.299  14.542   2.738  0.0073 -0.3230  0.0024
    1W        W41709  16.017  21.585   2.013  0.0163 -0.0792 -0.1106
    1W        W41710  16.151  13.015   9.213  0.0248  0.2220  0.0073
    1W        W41711   9.805  14.230   7.010  0.1023  0.1291  0.1335
    1W        W41712   9.639  11.728   2.155  0.3409  0.0704  0.1333
    1W        W41713   1.564  24.015   0.089  0.0573 -0.1962 -0.1271
    1W        W41714  29.789  25.766   1.522  0.0222  0.5458 -0.2369
    1W        W41715  16.561  25.560   1.875 -0.0070 -0.1890 -0.0703
    1W        W41716  24.584  21.280   7.770 -0.1449 -0.0842 -0.1642
    1W        W41717   0.278   3.071   9.028 -0.2362  0.0148  0.0041
    1W        W41718  11.541  13.778   7.775 -0.1490  0.2254  0.3231
    1W        W41719  17.859   3.331   8.257 -0.2982 -0.4248 -0.1075
    1W        W41720  23.458  17.235   1.018 -0.1495  0.1370 -0.0538
    1W        W41721   9.853  10.472   8.418 -0.1108 -0.0575  0.1768
    1W        W41722  12.300   8.070   8.675  0.2534  0.1618  0.0201
    1W        W41723  11.297  22.575   1.075 -0.2679 -0.2948  0.0060
    1W        W41724   0.554  21.733   8.051  0.1540 -0.0646  0.1960
    1W        W41725  10.206   0.398   1.569 -0.0783  0.2084 -0.0366
    1W        W41726  25.913  15.235   1.945  0.0691  0.0901  0.2040
    1W        W41727  27.681  16.663   2.742  0.0414  0.0318 -0.1071
    1W        W41728  19.184   1.816   8.897 -0.1205  0.3194  0.2475
    1W        W41729  16.484  25.840   8.241 -0.0472  0.1703  0.0503
    1W        W41730  18.087  12.126   0.063 -0.0732  0.5076 -0.0504
    1W        W41731  24.343   7.083   3.274  0.0211 -0.2019  0.2391
    1W        W41732  25.808   6.164   2.391 -0.0003 -0.2298  0.2069
    1W        W41733  18.324  27.655   2.029 -0.1679  0.1579 -0.0111
    1W        W41734  10.097   5.021   0.773  0.3008  0.0393  0.0573
    1W        W41735  11.874   6.238   0.814 -0.0452  0.0542 -0.2369
    1W        W41736   4.734  16.025   1.680  0.3591 -0.1497 -0.2649
    1W        W41737  28.582   7.974   7.069 -0.0739 -0.1355 -0.0791
    1W        W41738   0.259  11.543   6.816  0.0256 -0.1435  0.1197
    1W        W41739   3.219  10.113   8.181  0.1131 -0.0283 -0.0091
    1W        W41740  20.889   4.651   8.859 -0.3041  0.1072  0.1028
    1W        W41741  25.294   2.484   8.711 -0.1392 -0.0866 -0.3346
    1W        W41742   7.854  22.210   8.380  0.2383 -0.1890 -0.1754
    1W        W41743   0.907   9.933   8.734 -0.0417 -0.0238 -0.0823
    1W        W41744  20.774   1.066   9.031  0.2172  0.0645 -0.0699
    1W        W41745  10.438   0.695   3.362 -0.0594  0.0188 -0.1484
    1W        W41746  28.183  20.418   7.625 -0.1005 -0.0995  0.1506
    1W        W41747  11.089   9.621   3.135  0.1399 -0.2251  0.2243
    1W        W41748  10.683  16.882   8.008  0.0455  0.0844  0.1667
    1W        W41749  25.535  19.080   8.892 -0.1983  0.0036  0.0844
    1W        W41750   3.038   0.098   8.099 -0.1077  0.1426  0.2269
    1W        W41751  13.155  15.489   1.612  0.3197  0.0502  0.1415
    1W        W41752  13.790   8.126   2.632 -0.0012 -0.4083 -0.1605
    1W        W41753  19.346  28.904   2.381 -0.2906 -0.0404 -0.2207
    1W        W41754   9.712  13.382   8.949  0.0639 -0.2790 -0.2475
    1W        W41755  19.224  27.480   1.674  0.0124 -0.1867 -0.0024
    1W        W41756   5.745  17.700   1.716 -0.0354  0.0003  0.0103
    1W        W41757  22.002  26.856   7.686 -0.0574  0.1115  0.0317
    1W        W41758  22.343  18.776   6.589 -0.0788 -0.3273 -0.1573
    1W        W41759   6.073  20.259   9.085 -0.1777 -0.1474  0.1871
    1W        W41760   0.027  28.086   2.697  0.0436 -0.1058 -0.3166
    1W        W41761  11.967  18.948   8.643  0.3690 -0.0950 -0.1935
    1W        W41762  23.556  21.551   0.580 -0.1123 -0.2289  0.3862
    1W        W41763   7.404  15.964   7.354  0.1003 -0.0420  0.3319
    1W        W41764  27.817  29.689   7.542 -0.1016  0.0894 -0.1591
    1W        W41765   0.700   0.684   8.511 -0.2456 -0.0008  0.0385
    1W        W41766   1.861   9.420   8.932 -0.0117 -0.1746 -0.1969
    1W        W41767   9.591   9.752   2.809  0.1060 -0.1239  0.3419
    1W        W41768  29.827   3.234   8.662  0.2446 -0.0558  0.1037
    1W        W41769   6.992  22.373   7.254  0.0053 -0.0833 -0.2069
    1W        W41770  27.179  14.857   0.312 -0.0416 -0.1368 -0.1685
    1W        W41771  28.626   2.585   9.340  0.0592  0.0720  0.0713
    1W        W41772  29.875  13.189   6.574  0.0575  0.2184 -0.2472
    1W        W41773   7.944   7.939   8.780  0.0259 -0.0424 -0.1007
    1W        W41774   4.205  18.952   8.495  0.1945  0.0682 -0.0882
    1W        W41775  20.866  19.293   7.406 -0.2068  0.0670 -0.0063
    1W        W41776  24.748  23.231   9.341  0.1343 -0.2205  0.5097
    1W        W41777   7.808  12.881   1.148 -0.2774  0.2394 -0.2433
    1W        W41778  16.985  14.890   7.168  0.0447  0.0971 -0.2069
    1W        W41779  25.136  15.507   6.921  0.0377  0.3196 -0.2099
    1W        W41780  29.073  14.955   8.523  0.1553  0.0799  0.1832
    1W        W41781   9.053  23.048   2.430 -0.0126  0.0465  0.0827
    1W        W41782   9.603  25.700   8.663  0.0408 -0.1344 -0.0802
    1W        W41783   6.882  12.677   9.236  0.0868 -0.4064 -0.1154
    1W        W41784   4.785   2.119   3.003  0.1155  0.0453  0.0238
    1W        W41785   2.350   1.343   0.742 -0.0863 -0.1012 -0.0512
    1W        W41786  10.622   0.373   0.452  0.1278 -0.2527 -0.0883
    1W        W41787   7.601   4.359   8.819 -0.1020  0.0752 -0.0546
    1W        W41788   6.892  25.298   2.965 -0.0093 -0.1186 -0.2175
    1W        W41789  14.111  22.051   8.350  0.1763  0.0719  0.1617
    1W        W41790  24.755   6.048   7.606  0.0726  0.1155 -0.0484
    1W        W41791  23.828  27.618   6.692 -0.0554 -0.1343 -0.2769
    1W        W41792  19.250  17.360   8.606  0.1339 -0.0312  0.0930
    1W        W41793   4.130   0.052   2.645  0.2228 -0.1689  0.5090
    1W        W41794   4.591  21.498   6.866  0.2411 -0.1508  0.1152
    1W        W41795  25.591   2.753   1.265  0.0769  0.0112  0.0887
    1W        W41796  25.677   7.149   1.307  0.0854 -0.2526  0.1965
    1W        W41797  22.723   4.979   8.461 -0.2165 -0.0974  0.0528
    1W        W41798  20.222  12.631   1.833 -0.2200 -0.1663  0.2835
    1W        W41799   2.165  18.992   6.829  0.5524 -0.0525 -0.1586
    1W        W41800  19.981   3.175   0.610 -0.1048 -0.2126 -0.1352
    1W        W41801  29.309   1.507   1.260 -0.0749  0.1931  0.3195
    1W        W41802  18.110  24.030   7.986  0.1243  0.1286 -0.1713
    1W        W41803  13.519  18.442   0.960 -0.2908  0.0879 -0.0156
    1W        W41804  15.639   9.005   1.875  0.1167  0.2194 -0.1101
    1W        W41805  25.597   0.187   2.915 -0.0287  0.0398  0.0644
    1W        W41806  28.786  29.606   9.096  0.0639 -0.0602 -0.1554
    1W        W41807   6.626  21.992   5.961  0.4545  0.0470  0.4829
    1W        W41808  11.472   8.639   2.083 -0.2544 -0.1255  0.1453
    1W        W41809   9.839  17.632   0.552  0.0790 -0.1382 -0.0620
    1W        W41810  15.119  24.723   0.012 -0.0232 -0.0985  0.2610
    1W        W41811   4.645  24.790   1.612 -0.0951 -0.1886 -0.0529
    1W        W41812  12.557  21.252   8.662  0.1408  0.1222  0.1543
    1W        W41813  26.295   6.904   7.215 -0.0915  0.2729 -0.1022
    1W        W41814  26.450  15.273   9.141  0.0834 -0.1760  0.0350
    1W        W41815   8.946  26.626   7.312  0.1812 -0.1608  0.0885
    1W        W41816  15.454  10.036   7.268 -0.0331 -0.3460  0.0742
    1W        W41817  12.346   6.556   8.996 -0.0704 -0.0514  0.0212
    1W        W41818   4.726  13.298   6.503 -0.1237 -0.1771 -0.2129
    1W        W41819  14.119  27.760   8.064 -0.1505 -0.1387  0.2549
    1W        W41820  25.819  27.790   0.546  0.0991  0.2886  0.2102
    1W        W41821  10.648  20.929   1.711  0.0542 -0.0864  0.1524
    1W        W41822  21.615  20.055   6.511  0.1612 -0.0340  0.3587
    1W        W41823  20.853   9.925   1.997 -0.2966 -0.1141 -0.2103
    1W        W41824  24.571  28.064   1.867 -0.3568 -0.1784  0.2847
    1W        W41825  12.964  29.407   0.187 -0.0988  0.1518 -0.3846
    1W        W41826   4.540  15.020   6.980  0.1512 -0.1325 -0.0059
    1W        W41827   8.982  24.218   0.452  0.0370  0.1999  0.0831
    1W        W41828  11.901  29.612   1.823 -0.0691 -0.0268 -0.1815
    1W        W41829  10.310   8.938   7.046 -0.4160  0.2842  0.5100
    1W        W41830  19.689   6.529   1.309 -0.0399  0.0846 -0.0634
    1W        W41831  14.521   6.122   2.428 -0.1003 -0.0984  0.0472
    1W        W41832  26.085  13.862   8.859 -0.1529 -0.0002 -0.0104
    1W        W41833  11.894  29.332   8.464  0.2147  0.3627  0.1446
    1W        W41834   7.740  17.930   0.944  0.1543 -0.0168  0.1091
    1W        W41835   7.209  28.897   2.085 -0.0338  0.1602  0.0493
    1W        W41836   3.183   1.196   9.320  0.1930 -0.0655  0.0803
    1W        W41837   3.759  16.510   1.399  0.3199 -0.2263  0.2783
    1W        W41838  24.661   4.339   7.645  0.1000 -0.0663 -0.2103
    1W        W41839  21.711   1.626   0.780  0.1951 -0.0433  0.1024
    1W        W41840  19.373  16.609   9.291 -0.0274  0.1051 -0.0075
    1W        W41841  27.778   2.486   1.452 -0.1773 -0.1222 -0.2566
    1W        W41842  26.905   5.721   7.518  0.2808  0.2293 -0.2185
    1W        W41843  16.336  20.784   1.939 -0.3894 -0.1553 -0.0097
    1W        W41844  27.748   1.682   1.003  0.3105  0.1117  0.2616
    1W        W41845  16.020  26.496   1.402 -0.1060 -0.0406 -0.2730
    1W        W41846  26.627  29.292   8.891  0.1492  0.2030 -0.2525
    1W        W41847   5.243   1.111   3.149  0.3075  0.0860  0.0112
    1W        W41848  28.596   4.971   2.609  0.1607 -0.2773  0.0635
    1W        W41849   4.619  26.395   9.015 -0.0613  0.0632  0.0443
    1W        W41850   0.766  24.380   1.049  0.4100  0.6887  0.1380
    1W        W41851   1.026  16.283   0.943 -0.2000 -0.2185 -0.0575
    1W        W41852  27.805   6.824   1.285 -0.0480  0.0738 -0.0554
    1W        W41853   4.793   0.395   2.080 -0.1965  0.2339  0.0242
    1W        W41854  14.256   6.760   7.805  0.1718  0.1478  0.1300
    1W        W41855  10.606  27.819   7.604 -0.1085  0.3412 -0.0090
    1W        W41856  12.672  27.617   2.361 -0.2871  0.2469  0.1121
    1W        W41857   6.482   1.957   7.042 -0.1516  0.2055 -0.0674
    1W        W41858   4.151  24.322   6.297 -0.1234  0.0763  0.1576
    1W        W41859  22.876  25.705   2.426  0.1534 -0.0365  0.0380
    1W        W41860  16.152  15.654   0.178  0.1152 -0.0936 -0.1550
    1W        W41861  27.635  13.840   5.863  0.2483 -0.0078 -0.2239
    1W        W41862   3.197  21.897   8.198  0.1522 -0.1086 -0.2167
    1W        W41863   1.092   3.523   1.145  0.0915  0.2583 -0.0731
    1W        W41864  19.865  11.338   8.834  0.0306  0.0296  0.0151
    1W        W41865  20.207  19.235   6.849  0.0609 -0.0822 -0.1792
    1W        W41866  11.555  12.588   7.661  0.0162 -0.0124 -0.0419
    1W        W41867   3.812   3.413   8.204  0.1173 -0.1749  0.0600
    1W        W41868   9.072   5.183   2.273  0.2566 -0.2560 -0.0691
    1W        W41869   5.243   3.893   8.396  0.2173  0.1742 -0.0358
    1W        W41870  23.070  18.799   7.762  0.3620  0.3269 -0.2342
    1W        W41871  26.407  23.667   0.658  0.1151  0.3206 -0.0426
    1W        W41872  13.388  24.065   8.125 -0.0612 -0.2111  0.0454
    1W        W41873  18.948  17.504   9.213 -0.2391 -0.0747  0.1491
    1W        W41874   7.873  27.668   9.156  0.0269  0.2151  0.2640
    1W        W41875   6.466  15.744   9.327 -0.0757  0.0086 -0.3630
    1W        W41876   5.415  25.738   7.848  0.0658  0.0692 -0.4233
    1W        W41877  11.084   0.104   2.767  0.0959  0.3182 -0.1300
    1W        W41878   5.056  10.592   8.406 -0.1162 -0.1850  0.1093
    1W        W41879   8.903   4.069   7.613  0.0522 -0.0533 -0.2388
    1W        W41880   9.336   5.366   8.579  0.0830 -0.1810 -0.0703
    1W        W41881   4.349   9.771   7.707  0.2486  0.3842 -0.0426
    1W        W41882   6.013  18.134   7.618  0.4324 -0.0030 -0.1602
    1W        W41883  13.179  25.522   9.131 -0.0913 -0.0859 -0.0757
    1W        W41884  28.147  17.041   2.055 -0.0015  0.1049  0.1649
    1W        W41885  12.574  26.740   8.942  0.0460  0.0203  0.1252
    1W        W41886   7.993  23.599   1.964  0.0067  0.4516 -0.2947
    1W        W41887   9.385  15.645   1.314  0.4432  0.1826  0.0151
    1W        W41888  27.951   9.827   1.121  0.1325 -0.2207 -0.0797
    1W        W41889  19.177  13.933   1.074  0.0914 -0.2574  0.0781
    1W        W41890  12.571  17.027   1.574 -0.2576 -0.3321 -0.2266
    1W        W41891   2.054  28.949   7.358  0.2333  0.0391 -0.0459
    1W        W41892   9.622   5.736   6.897  0.0526  0.2045  0.3611
    1W        W41893  25.042  14.841   8.140 -0.1003  0.0965  0.0286
    1W        W41894   4.780  29.364   9.310  0.0394  0.2484 -0.0624
    1W        W41895   1.334   4.628   9.010 -0.1293 -0.1029  0.2363
    1W        W41896  29.264   7.016   6.936  0.2822 -0.1030 -0.2079
    1W        W41897  23.364  29.567   0.493 -0.1805 -0.3116 -0.0341
    1W        W41898  12.871   9.767   9.384  0.2557 -0.3762  0.1442
    1W        W41899   3.931  27.733   6.527 -0.3035 -0.1220  0.2923
    1W        W41900   8.907  28.068   2.531 -0.2200  0.1672  0.2279
    1W        W41901   2.303  18.918   9.235  0.1231 -0.3963 -0.2063
    1W        W41902  20.380   1.959   0.348 -0.0521 -0.2847  0.0276
    1W        W41903  13.905   8.622   1.082  0.1743 -0.1807  0.1684
    1W        W41904  12.561  11.602   1.331 -0.3129 -0.0251 -0.0537
    1W        W41905  16.022   2.574   8.272 -0.3367 -0.0824 -0.0772
    1W        W41906   5.058   3.333   2.148 -0.0941 -0.0553  0.2250
    1W        W41907   3.201   2.408   1.804 -0.0009 -0.1834  0.2332
    1W        W41908  29.069  20.076   1.712  0.1682 -0.1192  0.1117
    1W        W41909   0.264  12.161   2.057 -0.0668  0.0242  0.3009
    1W        W41910  11.331   3.015   9.392  0.0762  0.1228 -0.0491
    1W        W41911  28.307  10.163   1.236  0.2287  0.2041 -0.0374
    1W        W41912  21.801  29.058   3.426 -0.0877 -0.0554 -0.1016
    1W        W41913  24.950   3.976   7.244 -0.0046 -0.1873  0.1489
    1W        W41914   7.560  22.299   7.017  0.0019 -0.0283 -0.0504
    1W        W41915  19.705   3.490   7.977  0.1128 -0.1209  0.2361
    1W        W41916   3.348  17.885   9.199 -0.2262  0.1920 -0.1044
    1W        W41917  20.362  16.465   6.558  0.1682  0.2150 -0.2344
    1W        W41918  18.844  27.490   2.376 -0.2314 -0.0776  0.2271
    1W        W41919   5.942  25.390   2.384 -0.1277  0.0083  0.2266
    1W        W41920   9.927   7.618   3.102 -0.0324  0.1864  0.1194
    1W        W41921  19.680  27.067   7.376  0.1881  0.2250 -0.0423
    1W        W41922  18.390   7.652   9.294  0.2650 -0.1750 -0.2126
    1W        W41923  27.983  22.615   0.112  0.1707 -0.0429  0.1297
    1W        W41924   2.937  26.399   8.375  0.1712  0.3155 -0.0802
    1W        W41925   4.445  11.129   1.579  0.2434  0.1456  0.3985
    1W        W41926   1.923  12.450   6.872  0.1500  0.3650  0.1377
    1W        W41927  29.815   7.570   8.325  0.3180  0.0300  0.1401
    1W        W41928   1.737   5.792   7.995 -0.1957  0.3115 -0.2969
    1W        W41929   3.524   1.372   0.796  0.0322  0.1173  0.2380
    1W        W41930   1.506   4.152   2.990 -0.0436 -0.0248 -0.0649
    1W        W41931  11.530  22.875   8.572  0.2437 -0.0355  0.0345
    1W        W41932  14.284  28.188   0.090  0.1451  0.0219  0.3986
    1W        W41933   7.276   6.242   3.281  0.1016 -0.2843  0.1276
    1W        W41934  24.200   7.947   0.826 -0.0199 -0.2181  0.3331
    1W        W41935  21.472  26.900   7.419  0.4190  0.1760 -0.0278
    1W        W41936  20.754  18.334   0.994 -0.2601  0.1165 -0.0830
    1W        W41937  17.677  22.678   7.941  0.2517 -0.0510  0.3626
    1W        W41938   7.115  18.413   8.977 -0.1058 -0.2672  0.1710
    1W        W41939  18.717  14.190   1.104  0.1355 -0.0336 -0.0076
    1W        W41940  11.510   6.428   7.895 -0.2392  0.1495 -0.0913
    1W        W41941  12.377   1.930   3.884 -0.0534 -0.3417  0.1278
    1W        W41942   5.823   9.709   8.595  0.0063  0.1339  0.1280
    1W        W41943   5.098  12.851   0.759 -0.1188 -0.0608 -0.0825
    1W        W41944  20.746  15.227   8.446 -0.0989  0.2312  0.0339
    1W        W41945  16.983   5.001   2.425  0.0114 -0.0658  0.2147
    1W        W41946   1.167  25.141   8.146 -0.2859 -0.1355  0.0345
    1W        W41947   4.177  20.203   6.174  0.0217 -0.2595  0.0663
    1W        W41948  10.579  11.276   1.474 -0.1412  0.0743 -0.1817
    1W        W41949  21.012  24.425   7.158  0.0073  0.0613 -0.2723
    1W        W41950  18.166  22.125   0.390  0.0386  0.1423  0.1032
    1W        W41951  21.592   3.500   7.594 -0.4978 -0.1743 -0.0755
    1W        W41952  27.539  25.566   0.891 -0.4510  0.5111  0.0243
    1W        W41953  28.682  11.055   6.985 -0.1439  0.0143  0.0351
    1W        W41954  18.133  25.612   3.590  0.1590 -0.2585  0.0996
    1W        W41955   3.448  25.187   1.487  0.0246  0.1029 -0.0335
    1W        W41956  26.060  11.124   7.482 -0.0178  0.0291  0.2406
    1W        W41957   6.095  28.915   7.518  0.2350 -0.1974  0.2237
    1W        W41958  13.810  12.654   1.717  0.1295 -0.1421  0.0466
    1W        W41959  26.963  16.797   6.782 -0.1846  0.2298 -0.0072
    1W        W41960  25.034  24.477   1.972 -0.1070  0.0884  0.1690
    1W        W41961   4.694  16.969   8.303 -0.2746  0.0827  0.1016
    1W        W41962  26.869  14.245   1.419 -0.1356 -0.0639  0.2459
    1W        W41963  15.829  25.035   1.885 -0.0845  0.0393  0.1539
    1W        W41964   5.773  27.163   2.580  0.1517  0.1380 -0.1185
    1W        W41965  10.593  21.368   7.140  0.2256  0.2187  0.2419
    1W        W41966  19.636   2.521   8.516  0.1267 -0.6086 -0.1174
    1W        W41967  29.298  25.851   1.724 -0.0656 -0.2467  0.1994
    1W        W41968  23.294   7.103   9.052 -0.1022  0.0434 -0.2160
    1W        W41969  24.156  13.374   1.182 -0.0981  0.1176  0.0167
    1W        W41970   7.370  20.332   1.642  0.0914  0.2123  0.1330
    1W        W41971  25.555   9.179   8.729  0.0714  0.2513  0.1591
    1W        W41972   9.687   8.664   0.899 -0.1239  0.1262 -0.1488
    1W        W41973  28.087   3.040   6.298 -0.0208 -0.1470 -0.1641
    1W        W41974  25.434  14.093   1.949  0.0905  0.0371  0.0013
    1W        W41975  22.702  18.511   7.957  0.1835 -0.1935  0.1889
    1W        W41976  27.586  25.767   2.540  0.3394 -0.1619 -0.0769
    1W        W41977  16.568   6.027   9.345  0.1644 -0.2578  0.4915
    1W        W41978  14.563  16.352   1.906  0.1912 -0.2688  0.2174
    1W        W41979  19.802  23.402   6.787 -0.0469  0.1626  0.0882
    1W        W41980   3.144  22.010   1.595 -0.3521  0.3504 -0.0038
    1W        W41981  11.922  14.056   9.342  0.1223  0.2619  0.0391
    1W        W41982  20.523   9.924   9.176 -0.3732 -0.0963  0.2045
    1W        W41983   9.416   7.694   1.625 -0.1692  0.2061  0.0360
    1W        W41984  27.915  20.193   2.398 -0.0503 -0.2752 -0.0335
    1W        W41985   7.429  14.505   0.189  0.4105  0.0308 -0.3248
    1W        W41986  24.559  10.057   0.269 -0.0188 -0.1430  0.2748
    1W        W41987   9.277   6.608   9.464 -0.0707  0.2544  0.1845
    1W        W41988  15.490  23.727   0.480  0.0231  0.2245 -0.1864
    1W        W41989  25.910   6.041   8.848  0.2691 -0.1281  0.1934
    1W        W41990   4.125   4.346   6.307 -0.2169 -0.5969 -0.2906
    1W        W41991  18.729   7.903   1.686 -0.4582 -0.2031 -0.0776
    1W        W41992   3.633   8.031   9.149 -0.1639 -0.2478  0.0632
    1W        W41993   4.052   2.192   9.057 -0.1461 -0.0143  0.1640
    1W        W41994  14.686   9.585   1.380  0.1039 -0.1928 -0.0994
    1W        W41995  15.479   7.634   9.239  0.1142  0.0883  0.0360
    1W        W41996  25.536  23.454   7.206 -0.2297 -0.2131 -0.1665
    1W        W41997  17.961  25.971   2.131 -0.0238  0.0784 -0.1021
    1W        W41998  25.849   8.424   7.956  0.1202 -0.2040  0.0388
    1W        W41999  20.260  23.456   8.452  0.1430 -0.1712 -0.0247
    1W        W42000  12.730  12.460   1.273  0.0018 -0.1781  0.0735
    1W        W42001  15.819  27.539   1.889  0.2530 -0.2086  0.0380
    1W        W42002   6.741  19.228   7.939 -0.0619 -0.0277 -0.0754
    1W        W42003  24.726   0.411   0.734 -0.2569  0.1023 -0.0723
    1W        W42004  14.822   6.872   9.247  0.3485  0.0908 -0.0883
    1W        W42005  23.087  20.423   0.841  0.0172 -0.0004  0.3645
    1W        W42006  11.917   1.836   1.725 -0.0708  0.0626 -0.2191
    1W        W42007  20.018   6.898   7.366 -0.0155  0.2000 -0.1577
    1W        W42008  14.401   6.595   0.695 -0.2251 -0.0422 -0.1153
    1W        W42009  28.799  25.032   1.187  0.0679  0.4562 -0.0300
    1W        W42010   9.592  25.083   2.069 -0.0599 -0.0752  0.0967
    1W        W42011  19.642   9.060   9.107  0.0781  0.1694  0.1856
    1W        W42012   8.879   9.288   3.229  0.0514  0.3335 -0.1325
    1W        W42013  25.223   6.315   1.191 -0.1266 -0.0909  0.0903
    1W        W42014  23.080  26.065   1.015  0.0454  0.1065  0.1177
    1W        W42015  22.714  27.728   8.557  0.0717  0.1409  0.0383
    1W        W42016  24.507  21.708   2.482  0.6952 -0.0479  0.3588
    1W        W42017  25.901  18.145   8.897 -0.2604 -0.0352  0.2057
    1W        W42018  20.680  18.160   0.510 -0.0632 -0.0340  0.4357
    1W        W42019  28.231  28.154   8.578  0.3158 -0.1431 -0.0658
    1W        W42020  18.758  21.734   9.201 -0.0319  0.2400 -0.0452
    1W        W42021  21.942  24.378   8.639 -0.2613 -0.2906 -0.1594
    1W        W42022  28.524   7.906   2.209 -0.4621 -0.0396  0.0151
    1W        W42023  20.401   8.082   7.852 -0.1675  0.1404  0.0649
    1W        W42024   5.024   8.913   7.962 -0.2657  0.0510 -0.0024
    1W        W42025  21.723   0.130   0.963  0.0643 -0.1918  0.2314
    1W        W42026  17.675  11.996   6.419  0.0339  0.0289 -0.1837
    1W        W42027   7.563   1.635   8.521  0.2673  0.0560  0.0357
    1W        W42028  21.982  23.262   0.210 -0.1387 -0.0384  0.0790
    1W        W42029  11.692  18.874   0.154 -0.3311  0.2455  0.2523
    1W        W42030  29.756  17.698   0.991  0.1010  0.2814 -0.3193
    1W        W42031  14.495   8.868   7.723  0.0892  0.2588 -0.1521
    1W        W42032  13.345  13.050   7.741  0.2897 -0.0336  0.1357
    1W        W42033  24.454  13.745   7.112  0.0070  0.1531  0.0364
    1W        W42034  21.928   6.303   2.520  0.2762  0.2490 -0.1988
    1W        W42035  23.790   4.654   8.069 -0.1722 -0.2770 -0.2326
    1W        W42036  15.555  17.273   9.088 -0.1843  0.2080 -0.0858
    1W        W42037  29.419  29.549   7.690  0.1650 -0.0756  0.0386
    1W        W42038  26.164   8.898   7.935 -0.1324 -0.2076  0.1565
    1W        W42039  13.873  27.282   9.237 -0.0575 -0.1088  0.1129
    1W        W42040  29.024  11.655   0.226  0.0836 -0.3199  0.2711
    1W        W42041  15.838  16.356   2.307 -0.2625 -0.0096  0.1220
    1W        W42042   5.855  17.839   0.752  0.0670 -0.0350  0.3945
    1W        W42043   7.167  27.956   7.038 -0.1564 -0.2622 -0.1998
    1W        W42044   7.049  15.816   6.836 -0.0274  0.0176 -0.0995
    1W        W42045  10.975  25.448   2.689 -0.0461  0.3303  0.0616
    1W        W42046  22.623  26.576   0.044 -0.2032 -0.1582 -0.0613
    1W        W42047   1.646   5.788   2.037 -0.0234  0.2489 -0.1989
    1W        W42048  12.759   8.553   2.022  0.1585 -0.0542 -0.0117
    1W        W42049   6.414  13.637   6.521 -0.0787  0.0211 -0.1436
    1W        W42050   0.569   7.388   1.930 -0.0867  0.1022 -0.2571
    1W        W42051  29.171  23.521   7.941 -0.2404 -0.0631  0.1266
    1W        W42052  20.045  10.812   9.081  0.1711  0.2359 -0.0685
    1W        W42053  23.117  23.533   0.010  0.1541 -0.2964 -0.2470
    1W        W42054  25.138  28.489   7.399  0.0424  0.0522  0.1877
    1W        W42055  23.567  18.372   1.497  0.0004 -0.1512  0.0820
    1W        W42056  22.159  18.786   7.911 -0.0723  0.1136 -0.1877
    1W        W42057  16.209  10.499   0.973 -0.2077  0.0614 -0.0123
    1W        W42058  27.240  13.077   6.867  0.2348 -0.0812 -0.0213
    1W        W42059   8.164  16.214   6.801  0.1702  0.1990  0.0271
    1W        W42060  28.358  22.247   0.301  0.0635  0.0199 -0.3028
    1W        W42061  21.633   5.779   8.665  0.0627  0.1809  0.1024
    1W        W42062   1.060  14.513   1.338  0.1390 -0.2203  0.0771
    1W        W42063  15.759  22.791   6.764 -0.3300 -0.2037  0.1050
    1W        W42064   3.149  15.197   1.688  0.0912  0.3586 -0.0832
    1W        W42065   8.529  25.051   1.376 -0.1099 -0.2672 -0.2075
    1W        W42066   9.232  15.267   1.571 -0.1040  0.1163 -0.0611
    1W        W42067   9.412  19.962   9.041  0.1280 -0.3680 -0.0758
    1W        W42068  20.961  28.965   2.417  0.0444 -0.1342 -0.1167
    1W        W42069  20.896   0.676   3.521  0.2436  0.3329 -0.1131
    1W        W42070  20.360  29.873   7.927 -0.0679  0.1622 -0.1580
    1W        W42071   3.808  24.999   1.077 -0.1194 -0.0379 -0.1126
    1W        W42072  16.140   0.882   9.311 -0.0403  0.0644 -0.2456
    1W        W42073   3.927  25.415   1.398 -0.1992 -0.0749 -0.0276
    1W        W42074  12.388  20.097   1.638  0.2883 -0.0120 -0.1046
    1W        W42075   4.358  17.224   5.676 -0.0628 -0.1867 -0.0528
    1W        W42076  24.456  23.080   0.495  0.1618 -0.0021  0.0274
    1W        W42077   2.296  22.866   8.893  0.1497  0.0224 -0.1424
    1W        W42078   8.397   5.377   7.454 -0.0111  0.0124 -0.1298
    1W        W42079   1.014  24.513   5.459  0.1205 -0.2718 -0.0729
    1W        W42080   7.966  11.018   9.362  0.0366 -0.0968 -0.2484
    1W        W42081  25.219   7.064   2.513 -0.0465 -0.0203 -0.1450
    1W        W42082  28.210  26.282   6.917 -0.0156  0.0671 -0.1927
    1W        W42083  18.147  24.779   0.129 -0.1642 -0.2879  0.0577
    1W        W42084   3.784  21.902   6.292 -0.1249 -0.0766 -0.2202
    1W        W42085   7.791  29.491   0.074 -0.2465 -0.1929 -0.1366
    1W        W42086   2.609   7.670   9.376 -0.3570 -0.3027 -0.0308
    1W        W42087  11.793  25.043   6.642 -0.0949  0.0196  0.1703
    1W        W42088   9.501   2.409   0.287 -0.3587  0.1717 -0.3086
    1W        W42089   4.369   5.142   3.131  0.1527  0.0076 -0.1511
    1W        W42090   5.896   1.434   8.884 -0.0443  0.1293 -0.6370
    1W        W42091  24.846   7.415   2.499  0.1693  0.1147 -0.1403
    1W        W42092  11.155   5.377   7.586 -0.1951 -0.1072 -0.1652
    1W        W42093   2.114  17.191   1.881 -0.2677 -0.0627  0.0374
    1W        W42094  28.937  21.596   7.305 -0.1281  0.0134  0.1204
    1W        W42095   5.298  12.960   8.155  0.0182 -0.0613 -0.1184
    1W        W42096   4.852  15.737   8.700  0.0480  0.0584  0.1422
    1W        W42097  23.315  12.329   7.251 -0.0149  0.0697  0.1798
    1W        W42098  23.073   7.995   2.778 -0.0105 -0.1622 -0.0434
    1W        W42099  19.708   6.992   2.018  0.2607  0.1557  0.0218
    1W        W42100  20.800  21.046   0.425 -0.0795  0.0541  0.1144
    1W        W42101  16.851  23.586   8.604  0.3472 -0.4820 -0.0209
    1W        W42102  18.344   9.489   8.381 -0.1785  0.1128 -0.1041
    1W        W42103   2.343  10.632   1.607 -0.0380 -0.1038  0.2799
    1W        W42104  24.684  12.285   8.276  0.0998  0.1703 -0.0440
    1W        W42105  10.303  29.404   2.804  0.3224  0.1993 -0.0418
    1W        W42106   0.919   4.228   0.782 -0.1374  0.1704 -0.0068
    1W        W42107   4.081  10.955   1.882 -0.0221  0.1114  0.1399
    1W        W42108  28.728   6.675   8.893 -0.2843 -0.0331  0.0192
    1W        W42109   4.529  22.954   7.134  0.2247  0.1277  0.1901
    1W        W42110  23.059   4.073   7.884 -0.0397 -0.0570  0.2885
    1W        W42111  26.463  14.700   6.514  0.0046 -0.0690  0.1823
    1W        W42112  13.101  11.446   1.473  0.3662 -0.1226 -0.3257
    1W        W42113   6.042  18.693   0.471  0.1345  0.0808  0.0756
    1W        W42114  16.864  10.573   1.601 -0.0829 -0.0579  0.0194
    1W        W42115   8.487  23.440   7.498 -0.0734 -0.0861 -0.1759
    1W        W42116  20.839  17.994   7.937  0.2402  0.0187 -0.2829
    1W        W42117   5.579  23.922   6.655  0.3759  0.2139  0.2046
    1W        W42118  12.010  16.243   1.330 -0.1091  0.0155 -0.2418
    1W        W42119   5.070  22.496   7.858 -0.0085 -0.1687 -0.0943
    1W        W42120  12.965   2.450   9.265 -0.2121  0.0030 -0.1545
    1W        W42121  28.956  24.658   7.487 -0.1963 -0.0206  0.0689
    1W        W42122  18.679  22.486   8.020  0.1472  0.3369 -0.0367
    1W        W42123  22.447   6.685   6.909 -0.0273  0.0131 -0.0811
    1W        W42124  19.740  12.028   8.853 -0.0033 -0.1672  0.0272
    1W        W42125   9.258  23.977   6.664 -0.0032 -0.0763  0.0493
    1W        W42126   1.124  24.198   2.147 -0.3093  0.0188 -0.3206
    1W        W42127  15.898  18.125   9.293 -0.5080  0.4860 -0.0105
    1W        W42128  14.729  22.006   1.555 -0.1596  0.2378  0.1043
    1W        W42129   8.519  17.197   1.213  0.1577  0.0103 -0.0465
    1W        W42130  29.011  24.878   0.356 -0.0221  0.1045  0.1093
    1W        W42131  12.697   0.722   0.398  0.0452  0.2059 -0.1763
    1W        W42132  16.636   0.936   7.558  0.2685  0.1492  0.0133
    1W        W42133  28.796  18.771   1.129  0.2062 -0.1074 -0.4360
    1W        W42134  29.026  23.290   1.195  0.1633 -0.1737  0.0079
    1W        W42135  16.621   4.082   8.262 -0.0177  0.1494  0.2664
    1W        W42136  12.872  20.162   1.935  0.2531  0.0837 -0.1483
    1W        W42137   1.776  22.736   0.466  0.2504  0.0316 -0.1492
    1W        W42138  21.187  25.914   7.293  0.1123 -0.2191  0.1002
    1W        W42139  26.617   8.772   7.210  0.1123  0.1447 -0.2391
    1W        W42140  12.733   7.093   3.199  0.0195 -0.1968  0.0928
    1W        W42141   9.070  14.118   8.905 -0.0516 -0.0414 -0.2186
    1W        W42142  12.897   1.425   9.356  0.2086  0.2279 -0.3220
    1W        W42143   5.378   6.854   6.508  0.3746  0.3288 -0.0053
    1W        W42144  15.740  21.553   6.931  0.1062  0.0303 -0.0443
    1W        W42145  16.078  14.628   1.263 -0.3443 -0.2270  0.1533
    1W        W42146  25.733   7.388   7.738 -0.0531  0.1358 -0.1264
    1W        W42147  23.058   6.803   6.122 -0.2648  0.2085  0.1215
    1W        W42148   6.730  14.269   7.275  0.1020 -0.1661  0.3010
    1W        W42149  20.078  14.434   7.912 -0.0061 -0.0899  0.1098
    1W        W42150  26.877   8.269   0.149 -0.3133  0.1179 -0.2265
    1W        W42151  27.976   0.983   2.262  0.1461 -0.1962  0.2350
    1W        W42152   8.297  13.320   1.747  0.1049 -0.0618 -0.0132
    1W        W42153   8.781  29.385   2.403 -0.0523  0.1187  0.0085
    1W        W42154  26.480   1.893   3.424  0.2101 -0.1186 -0.1561
    1W        W42155   0.923  25.095   9.355 -0.3069 -0.0502 -0.3677
    1W        W42156   8.915   7.840   7.858 -0.1162 -0.2542  0.0327
    1W        W42157  17.920  26.306   7.751  0.0793 -0.1172 -0.1710
    1W        W42158  10.235  25.276   9.342  0.1523 -0.1882 -0.0493
    1W        W42159  14.482  24.726   1.471  0.2383 -0.4226 -0.1842
    1W        W42160  25.299  24.309   7.140 -0.0631 -0.2277 -0.2609
    1W        W42161  11.005  28.968   0.701  0.0740 -0.4564  0.0176
    1W        W42162  26.489  24.533   1.243  0.0576  0.3271 -0.1265
    1W        W42163  19.540  22.760   7.112  0.1028  0.1737 -0.0896
    1W        W42164  29.050  27.477   0.082 -0.1536 -0.0072  0.4708
    1W        W42165  21.532  10.583   6.984  0.0784  0.2685  0.0160
    1W        W42166  13.670  23.290   6.899  0.2065 -0.2033 -0.0948
    1W        W42167   6.026  15.757   0.081  0.0016  0.2116 -0.0188
    1W        W42168  20.174  14.038   0.340  0.1272  0.1130  0.1556
    1W        W42169  14.516   3.420   8.299  0.2123  0.0263  0.0413
    1W        W42170   8.664   2.972   8.828 -0.2249 -0.2891 -0.0707
    1W        W42171  13.235  24.686   1.850  0.2605  0.2039  0.2161
    1W        W42172   8.304  24.358   1.603  0.0482 -0.0233 -0.0441
    1W        W42173  13.789   4.874   8.400 -0.3111 -0.0902  0.0508
    1W        W42174   2.575  10.769   8.354 -0.1139  0.1746  0.0506
    1W        W42175  26.277  22.171   7.372 -0.1086 -0.1848  0.2653
    1W        W42176  17.808  23.012   0.036  0.0552  0.0071  0.0170
    1W        W42177  12.427   3.093   0.860 -0.0011 -0.0184 -0.2999
    1W        W42178  22.791  19.993   0.967  0.1230 -0.4168  0.2490
    1W        W42179  28.129  11.643   7.295 -0.0993 -0.0197  0.1672
    1W        W42180  21.608   5.191   8.964 -0.1231 -0.0618 -0.2998
    1W        W42181  25.368  23.130   8.450  0.0897 -0.0469 -0.3335
    1W        W42182  29.838  11.797   8.124  0.2624  0.0498 -0.0169
    1W        W42183  17.476   3.009   6.976 -0.0307  0.1369 -0.2649
    1W        W42184  28.457  19.854   1.139 -0.3203 -0.0805  0.1949
    1W        W42185   3.529   7.358   2.600  0.4302  0.1383  0.2632
    1W        W42186  23.542  16.851   0.366 -0.1762 -0.1391  0.1152
    1W        W42187  19.852  22.249   7.961  0.1828 -0.2069  0.1679
    1W        W42188  25.326  25.927   0.929  0.0458 -0.1358 -0.0589
    1W        W42189  17.086  28.226   8.242  0.2053 -0.2553  0.2669
    1W        W42190  20.364  16.193   7.962 -0.0301  0.0080 -0.1758
    1W        W42191  18.451  25.222   2.042  0.2167  0.1652  0.1415
    1W        W42192  28.983   1.581   7.162 -0.0334  0.2703 -0.1871
    1W        W42193  24.872  26.860   0.355 -0.1691  0.4277  0.2481
    1W        W42194   1.254  21.636   9.341 -0.0613 -0.0444 -0.2025
    1W        W42195  16.453   7.668   8.159  0.2857  0.1364 -0.0970
    1W        W42196  20.415  13.353   8.336 -0.1438  0.3484 -0.1332
    1W        W42197   1.557  11.458   0.540  0.2022  0.1246 -0.0183
    1W        W42198   3.256  24.852   9.329  0.1962 -0.0557 -0.1594
    1W        W42199   4.141  19.339   8.197  0.0759 -0.1373 -0.2379
    1W        W42200   7.513  12.185   8.756 -0.0457  0.1472 -0.2093
    1W        W42201  23.952  15.856   9.354 -0.0696  0.1753 -0.0925
    1W        W42202   3.857  25.595   6.484  0.1885  0.1000 -0.0410
    1W        W42203  27.867   4.660   1.983 -0.0131 -0.0941 -0.1669
    1W        W42204  14.601  15.099   7.651 -0.1745  0.1343 -0.2751
    1W        W42205   0.342  27.543   8.069 -0.1212 -0.0013  0.1288
    1W        W42206   1.522  16.393   0.763 -0.1717  0.3819 -0.0827
    1W        W42207  18.670  16.424   7.762  0.1272 -0.0509 -0.0369
    1W        W42208   3.004  24.405   9.339  0.0342 -0.0855 -0.0487
    1W        W42209  24.717  15.120   9.267 -0.0255 -0.0448  0.0087
    1W        W42210  18.516   5.142   2.184 -0.2729 -0.0859  0.1642
    1W        W42211  24.957  22.952   7.926  0.1389  0.1240 -0.0185
    1W        W42212  17.970  24.315   1.773  0.0255  0.1389  0.1439
    1W        W42213  23.177  18.313   7.690 -0.2616  0.1481 -0.0550
    1W        W42214   7.038   4.992   2.601 -0.0092  0.2179  0.3493
    1W        W42215   7.585   6.979   9.462  0.0154  0.1703  0.1446
    1W        W42216   6.435  15.288   7.180  0.1917 -0.0868  0.1751
    1W        W42217   9.732  28.776   3.332 -0.3499  0.0697 -0.1164
    1W        W42218   1.669  14.378   2.168 -0.1181 -0.3960  0.1953
    1W        W42219  22.177  17.452   2.561 -0.3701  0.2749  0.1315
    1W        W42220  23.661  15.041   8.209 -0.0539  0.2584 -0.2559
    1W        W42221  24.155   5.685   8.655  0.0981  0.0866  0.0132
    1W        W42222   6.488   1.053   3.686  0.3494 -0.0401 -0.0868
    1W        W42223  16.064  21.042   1.291  0.0803  0.3866 -0.0332
    1W        W42224   3.322  14.902   2.013 -0.0623 -0.1701 -0.1617
    1W        W42225  27.683  23.945   6.934 -0.1600 -0.1312  0.3292
    1W        W42226   7.659  10.432   9.248  0.0454 -0.0770  0.0856
    1W        W42227  27.368   7.060   9.105  0.0986 -0.2372  0.2276
    1W        W42228  25.410   6.809   0.803 -0.0673  0.2478 -0.3497
    1W        W42229   1.448  11.052   8.245 -0.0230  0.1065  0.2207
    1W        W42230  13.142  27.652   9.079 -0.0564  0.2093  0.3529
    1W        W42231  15.134   4.753   9.099  0.1738 -0.0831 -0.0715
    1W        W42232   1.880   2.816   2.867 -0.1600  0.1212  0.0792
    1W        W42233  27.643  18.311   7.604 -0.2722  0.2598 -0.2160
    1W        W42234  14.640  17.401   1.013 -0.1125  0.0047  0.0045
    1W        W42235   9.149  24.825   8.843  0.1213 -0.2919 -0.0765
    1W        W42236   8.922   8.165   2.219 -0.0701  0.0542 -0.0257
    1W        W42237   0.717  19.568   8.700 -0.2268  0.3767 -0.1220
    1W        W42238  25.016  19.809   8.981  0.0373  0.1603 -0.0363
    1W        W42239  23.294  11.555   2.048 -0.1614 -0.0317  0.1288
    1W        W42240  23.822  29.757   0.759  0.0692  0.1744 -0.1282
    1W        W42241  28.395  26.895   7.013  0.1184 -0.1336 -0.0532
    1W        W42242  21.836  19.463   1.415 -0.0977  0.1279  0.1997
    1W        W42243  21.652  18.908   7.798  0.0829  0.2953 -0.0337
    1W        W42244   2.757  14.854   1.866 -0.2571  0.0797  0.1125
    1W        W42245   6.578  12.954   0.954 -0.1002 -0.0270 -0.2274
    1W        W42246  29.327  16.047   2.236 -0.1939 -0.0334 -0.0530
    1W        W42247   1.903  29.830   2.677  0.2023  0.0898  0.0324
    1W        W42248  12.803  27.231   6.538  0.1285  0.0812  0.1563
    1W        W42249   5.318  14.741   1.768  0.1887  0.1082 -0.3053
    1W        W42250  22.333  19.860   1.900  0.2306 -0.0210 -0.2488
    1W        W42251  12.964  14.173   9.390 -0.0666  0.1568  0.1242
    1W        W42252  14.841   4.285   0.963  0.1094 -0.3409  0.1433
    1W        W42253   6.935   5.882   2.633 -0.1523  0.1040 -0.1047
    1W        W42254   4.717   8.578   3.790 -0.1633  0.0096 -0.1302
    1W        W42255  24.546   1.461   1.050 -0.0373  0.1570 -0.1975
    1W        W42256  28.780   0.570   1.760 -0.2937  0.3922  0.3488
    1W        W42257  11.064  12.440   1.415 -0.0148  0.2097 -0.0148
    1W        W42258  12.232  10.536   2.383 -0.2766  0.0805 -0.0876
    1W        W42259   9.201  12.616   0.859 -0.0712 -0.0386 -0.0100
    1W        W42260  15.488  10.398   1.826  0.1101 -0.0834  0.2014
    1W        W42261  24.096  14.245   8.816  0.0819  0.0680 -0.1071
    1W        W42262   5.279   8.902   0.579 -0.0565  0.1429  0.1958
    1W        W42263   9.062   2.353   7.173  0.3479 -0.2195  0.0264
    1W        W42264  22.016   9.494   2.413 -0.0764  0.2061 -0.0570
    1W        W42265   9.804   4.566   0.182  0.2886 -0.0100  0.0658
    1W        W42266   9.357  16.726   0.074  0.0738  0.0489  0.1798
    1W        W42267   6.819   4.938   3.012 -0.0101  0.0810  0.2412
    1W        W42268   6.211  29.515   8.799  0.0331 -0.0949  0.1219
    1W        W42269   9.982  27.409   1.606  0.2425 -0.4803  0.2499
    1W        W42270  17.362  11.754   2.569  0.0230  0.0164  0.2482
    1W        W42271  21.205  29.532   7.917  0.0788 -0.0714  0.1458
    1W        W42272  16.411  28.996   2.857  0.0483  0.0893  0.4739
    1W        W42273  22.148  29.817   8.669  0.1578  0.2559 -0.3972
    1W        W42274   4.964  18.990   0.582  0.3088 -0.0158 -0.1617
    1W        W42275   9.075   1.105   0.713 -0.1663 -0.3528 -0.1470
    1W        W42276   4.079  12.872   7.521  0.1126  0.0173  0.2149
    1W        W42277  11.404  21.875   7.519  0.3770 -0.4333 -0.0924
    1W        W42278  20.084  27.674   6.542  0.0803 -0.0325 -0.0443
    1W        W42279  19.835   0.837   2.533 -0.5070  0.1460 -0.4939
    1W        W42280  16.373  28.533   3.047 -0.0538  0.0981 -0.0587
    1W        W42281  14.054   0.200   0.047  0.0820 -0.1274  0.3627
    1W        W42282   5.246   4.831   3.218  0.0222 -0.1778 -0.0964
    1W        W42283  29.478  10.549   6.465  0.1883  0.1579 -0.0859
    1W        W42284   3.960   8.568   8.378  0.0916 -0.0319 -0.0380
    1W        W42285  26.798  10.799   6.535  0.0876  0.1455  0.3675
    1W        W42286   0.162   9.085   7.131  0.0582 -0.0504 -0.0127
    1W        W42287  10.718   1.773   0.836 -0.2936 -0.0301 -0.1533
    1W        W42288  29.109   7.517   1.188 -0.1828 -0.1117 -0.1987
    1W        W42289  20.390  10.663   7.821 -0.0651 -0.1682 -0.1963
    1W        W42290  22.138  21.288   8.056  0.0563  0.5027 -0.2034
    1W        W42291  20.173  21.554   0.932 -0.0388  0.1383  0.2856
    1W        W42292  11.783   8.891   9.080 -0.1267 -0.0802 -0.1438
    1W        W42293   8.464   6.330   1.152  0.1093  0.0932  0.2019
    1W        W42294  16.038   3.064   8.111  0.2132 -0.1456 -0.0134
    1W        W42295  11.993  23.979   7.524 -0.2144 -0.0846  0.0366
    1W        W42296   4.064  17.749   7.081 -0.1793 -0.0980 -0.0897
    1W        W42297  19.226  17.091   1.207  0.1677 -0.0334 -0.2301
    1W        W42298  17.538   9.788   1.077  0.4699 -0.2137  0.1060
    1W        W42299  15.074  19.862   6.869 -0.3657  0.2962  0.2141
    1W        W42300  27.166  10.034   6.784  0.1942 -0.1362 -0.1598
    1W        W42301  17.850   6.179   6.153  0.1139  0.0279  0.0750
    1W        W42302  13.595  28.096   3.750  0.2321  0.2525 -0.3452
    1W        W42303  29.080  24.743   0.952 -0.2755 -0.4348 -0.1750
    1W        W42304  25.293   7.298   6.201 -0.1160  0.2324  0.0246
    1W        W42305  12.688  20.585   7.584 -0.2776 -0.4108  0.1337
    1W        W42306   4.262  23.413   7.780  0.2188  0.1376 -0.0546
    1W        W42307  26.723  15.922   7.457  0.1963 -0.0783  0.2321
    1W        W42308   3.592  27.554   8.769  0.1210  0.6568 -0.0839
    1W        W42309  26.269   1.721   0.007  0.1191  0.1471 -0.3125
    1W        W42310   4.151  28.296   8.707 -0.2778  0.1945  0.0429
    1W        W42311  13.088   0.876   8.426  0.2088 -0.0411 -0.0852
    1W        W42312  28.990  16.373   6.708 -0.0700 -0.1593  0.0491
    1W        W42313  18.530   7.945   0.280  0.0297  0.1058 -0.3802
    1W        W42314  26.191   7.045   7.769 -0.1395  0.1612  0.0120
    1W        W42315   1.928  17.231   1.443  0.1398  0.2284  0.0484
    1W        W42316   8.113  23.303   2.442  0.0378  0.1643 -0.2496
    1W        W42317  14.624   2.881   8.305  0.0619  0.1467  0.5054
    1W        W42318   6.720  25.426   7.534 -0.1191  0.1722 -0.0185
    1W        W42319   4.684   4.662   3.315  0.0401  0.0817  0.2199
    1W        W42320   9.292  13.429   1.352 -0.0574 -0.2386 -0.1537
    1W        W42321   5.544  12.642   6.723  0.1142 -0.2011  0.0933
    1W        W42322   5.379  22.884   0.306  0.2658 -0.1077  0.0094
    1W        W42323  23.903  12.939   8.632  0.3684 -0.0740  0.1144
    1W        W42324   7.573   0.625   7.382 -0.3213 -0.5528  0.0542
    1W        W42325  19.653  15.740   1.372 -0.0489 -0.1224 -0.1877
    1W        W42326  18.100   8.122   6.836 -0.1013 -0.0033 -0.1879
    1W        W42327  22.802   5.163   6.507  0.2897  0.0913  0.1188
    1W        W42328   1.943   9.473   2.670 -0.2073  0.0990  0.2408
    1W        W42329  11.772  11.192   1.365 -0.0905  0.2359  0.1556
    1W        W42330   6.612  24.122   1.649  0.2142 -0.2157  0.1606
    1W        W42331  15.435  16.831   7.779 -0.0807  0.0899  0.0908
    1W        W42332  12.619   1.906   9.454  0.1202 -0.0356  0.3370
    1W        W42333  21.960  16.322   6.785 -0.0138  0.2031 -0.2619
    1W        W42334  27.400  20.799   7.872 -0.1297  0.5226  0.0859
    1W        W42335   2.423   3.214   0.508 -0.0353  0.2521 -0.1140
    1W        W42336  21.160   3.109   6.989 -0.2270 -0.3153  0.4282
    1W        W42337  20.303  23.246   6.657 -0.1552 -0.0035  0.1546
    1W        W42338   3.989  14.884   9.320 -0.1938 -0.0008  0.0131
    1W        W42339  16.379  19.387   7.097  0.1076 -0.1900  0.0479
    1W        W42340  26.971  14.129   6.924  0.0966  0.2582 -0.0347
    1W        W42341   1.968  20.841   7.556 -0.0273 -0.0520 -0.2834
    1W        W42342  20.662  19.724   9.423  0.2556 -0.1769 -0.2708
    1W        W42343  11.900   9.531   0.558 -0.1038 -0.4652 -0.2346
    1W        W42344   5.107  22.414   6.071 -0.0051  0.2463  0.0521
    1W        W42345  20.833  10.334   7.796  0.1847  0.1887  0.2375
    1W        W42346  13.097  11.017   2.663 -0.0059 -0.1685  0.0622
    1W        W42347  15.805  10.845   1.940 -0.0582  0.1184  0.0292
    1W        W42348  27.990   5.609   0.857  0.0237  0.1096 -0.1950
    1W        W42349  11.111   7.676   8.888 -0.2132  0.1972  0.1604
    1W        W42350  13.859  18.003   7.022  0.1478 -0.0979  0.0145
    1W        W42351   4.537  25.109   8.694  0.0761 -0.2600  0.1461
    1W        W42352   4.178   8.068   0.405 -0.1608  0.0887  0.4994
    1W        W42353   5.781   2.966   0.590  0.0805 -0.1371  0.2001
    1W        W42354  24.494  11.621   7.734  0.1365  0.0737  0.1246
    1W        W42355  18.878  13.464   8.873  0.0024 -0.1303  0.0121
    1W        W42356   6.390  26.901   0.626 -0.1877  0.0815 -0.2671
    1W        W42357  12.924  26.069   2.626 -0.0709 -0.2743 -0.0779
    1W        W42358   8.529   6.212   0.683 -0.0894 -0.4090  0.1104
    1W        W42359  24.544  13.549   1.592  0.1939  0.1198  0.1668
    1W        W42360  17.570  25.044   3.676 -0.1430  0.0895  0.0660
    1W        W42361  18.835  28.963   8.473  0.0560 -0.2182  0.1712
    1W        W42362  12.345  22.742   7.148  0.0837 -0.1396 -0.0187
    1W        W42363   4.618  25.000   5.994  0.0559  0.3887 -0.3057
    1W        W42364  27.687  13.122   6.422 -0.1433 -0.1691 -0.2278
    1W        W42365  19.102   7.621   1.910 -0.1824  0.0034 -0.0310
    1W        W42366   3.065  11.497   6.998 -0.3338 -0.0991 -0.1368
    1W        W42367   0.380  28.902   0.513 -0.1317  0.6064  0.0511
    1W        W42368  21.809   1.362   8.961  0.1163  0.0861  0.0519
    1W        W42369  17.570   8.545   7.717  0.0724  0.0498 -0.2846
    1W        W42370  28.058   8.916   7.006 -0.0705 -0.2126  0.0023
    1W        W42371   2.041   8.130   1.050 -0.0125  0.0719  0.0789
    1W        W42372  27.267  24.236   8.700 -0.4240  0.0462  0.0967
    1W        W42373  23.756   1.180   7.944  0.3589  0.2094 -0.3672
    1W        W42374  26.998  24.173   1.835 -0.0070 -0.0230 -0.0999
    1W        W42375   8.370  23.027   1.511  0.1565  0.0246  0.1633
    1W        W42376   2.744  17.721   7.837  0.0348  0.0101  0.1319
    1W        W42377  20.239   1.771   6.611  0.2831  0.0196 -0.2553
    1W        W42378  26.440   6.259   6.801 -0.1380 -0.2562 -0.0904
    1W        W42379  20.367  29.880   2.993 -0.0998 -0.1730  0.0018
    1W        W42380  22.990  27.603   6.763  0.1686  0.2024  0.0903
    1W        W42381  21.921  26.198   8.210 -0.2845 -0.2092 -0.1845
    1W        W42382   2.023   5.019   6.257 -0.1133  0.0286 -0.0817
    1W        W42383   0.672  22.774   8.461 -0.1066  0.0690 -0.1232
    1W        W42384   9.672  22.220   2.605  0.0475 -0.2688 -0.2007
    1W        W42385  28.291  25.776   6.977  0.1333 -0.0470 -0.2363
    1W        W42386   0.687  11.887   2.309 -0.0600  0.2521 -0.0305
    1W        W42387  18.145  23.477   0.980 -0.2275 -0.3709  0.0045
    1W        W42388   0.837  17.043   7.987  0.0173  0.1977 -0.0451
    1W        W42389  12.113  19.997   7.064 -0.1441 -0.1374  0.1866
    1W        W42390  15.400  22.806   7.167  0.0226 -0.0371 -0.0394
    1W        W42391  29.821   0.294   8.403  0.2503 -0.1425  0.2488
    1W        W42392   1.303  24.852   8.559 -0.0588  0.4119 -0.0462
    1W        W42393  26.525   4.972   1.864  0.3772 -0.0269 -0.1825
    1W        W42394  15.550  29.421   2.252 -0.1707  0.1281 -0.1534
    1W        W42395  12.385  16.005   8.592  0.0599  0.1733 -0.3073
    1W        W42396   9.711   0.563   8.722  0.1803  0.0560  0.1402
    1W        W42397  17.263   6.728   6.579  0.1076  0.2017  0.0323
    1W        W42398  16.596  12.606   2.078 -0.0760  0.1887 -0.4169
    1W        W42399   4.378  27.078   8.411 -0.1183  0.3811 -0.0825
    1W        W42400  16.536   8.379   9.299  0.3308 -0.0012 -0.0349
    1W        W42401   9.952  14.789   7.419  0.1049 -0.3202  0.3214
    1W        W42402  11.902  19.527   0.392 -0.0411 -0.1500  0.0593
    1W        W42403   8.886  27.325   0.007  0.0748 -0.0874  0.0380
    1W        W42404  24.337  21.634   0.234 -0.2070  0.0691  0.1662
    1W        W42405   0.635  24.124   5.407  0.0101 -0.2827  0.5168
    1W        W42406  28.364  26.465   0.424  0.1590  0.0764 -0.2346
    1W        W42407   0.465   6.093   1.380 -0.0078  0.3191 -0.1236
    1W        W42408   4.510  13.165   8.544 -0.3708  0.1084  0.1090
    1W        W42409   3.342  29.894   2.516 -0.1499  0.2390  0.5245
    1W        W42410   4.776   1.773   3.382 -0.1866  0.0039  0.1373
    1W        W42411   0.603   5.534   9.222  0.3126  0.1675 -0.1113
    1W        W42412   6.411  10.748   0.464 -0.0595  0.0621 -0.1063
    1W        W42413   9.327  28.510   3.458 -0.5789 -0.1127  0.1930
    1W        W42414  14.913  10.929   7.259 -0.1152  0.0656 -0.2977
    1W        W42415  26.887   4.870   2.191 -0.1546  0.1926 -0.1089
    1W        W42416  13.385  12.052   1.535 -0.1103 -0.1155 -0.1950
    1W        W42417  10.157  20.586   2.477 -0.2231  0.0334 -0.0256
    1W        W42418  22.314  26.287   9.119 -0.0337  0.1434  0.2061
    1W        W42419  17.236  13.810   9.393 -0.4164  0.1180 -0.1298
    1W        W42420  21.119   6.544   1.051 -0.3954  0.0731  0.3836
    1W        W42421   2.139  11.603   0.586  0.0840  0.1219  0.0331
    1W        W42422   7.003   3.676   7.369  0.0363 -0.0636  0.0018
    1W        W42423  14.121  20.992   0.186  0.1556 -0.2572 -0.0306
    1W        W42424  16.775  14.993   8.441  0.1747 -0.0012 -0.2678
    1W        W42425  16.001  25.142   8.429 -0.0008  0.2697  0.1945
    1W        W42426  18.339  22.542   1.788 -0.1420  0.1056 -0.0655
    1W        W42427   1.693   2.319   8.640  0.1005  0.1106  0.0646
    1W        W42428  17.755  25.748   0.505 -0.1183  0.0390 -0.3089
    1W        W42429  27.295  20.359   8.424 -0.0334  0.1447  0.2392
    1W        W42430  28.936   3.468   6.376 -0.2969  0.0186 -0.1579
    1W        W42431  21.878   2.507   9.432  0.0972 -0.0822  0.2173
    1W        W42432  19.736  14.786   8.059  0.0011 -0.1503 -0.1929
    1W        W42433  24.617   7.177   1.279 -0.0606 -0.0557 -0.0280
    1W        W42434  21.489  24.161   7.245  0.2089 -0.0707  0.2197
    1W        W42435  10.614   7.632   9.083  0.0277  0.1995  0.0062
    1W        W42436  27.404  22.687   7.029 -0.2794  0.0749  0.2532
    1W        W42437  28.152   9.071   7.547  0.0926  0.0196  0.1996
    1W        W42438  15.183  15.079   2.545 -0.0567  0.0333  0.3399
    1W        W42439  14.334   4.891   7.768 -0.0268 -0.1650  0.1177
    1W        W42440   4.920  23.553   6.912 -0.0731 -0.0058  0.1429
    1W        W42441   2.231   3.878   7.890  0.2577  0.1321 -0.0538
    1W        W42442  12.446   1.384   0.278 -0.1078 -0.0134 -0.1774
    1W        W42443  17.045   2.372   3.065 -0.4017 -0.1707 -0.0188
    1W        W42444  13.822  22.057   0.669  0.1249  0.0164 -0.3137
    1W        W42445  25.483   5.558   8.709 -0.1743 -0.1272  0.0368
    1W        W42446  23.363  12.995   1.428 -0.0618 -0.0223 -0.0783
    1W        W42447  19.672  23.966   1.256  0.3335 -0.1273 -0.0945
    1W        W42448  15.314  15.897   0.059  0.1514 -0.1535  0.0179
    1W        W42449   5.078  29.448   8.903 -0.3492 -0.1321 -0.0539
    1W        W42450   6.789  15.686   0.445 -0.0555  0.0762  0.1246
    1W        W42451  15.048   9.726   2.148 -0.0901  0.1133  0.0838
    1W        W42452   6.368  21.991   7.566 -0.1270 -0.1498  0.1051
    1W        W42453  24.310  16.126   1.885 -0.1414  0.1101  0.2974
    1W        W42454   2.666  14.007   1.994 -0.1622 -0.0688 -0.0689
    1W        W42455   3.401  18.038   8.216 -0.1958  0.1845 -0.1173
    1W        W42456  19.186  25.000   3.810  0.2071 -0.1605 -0.2147
    1W        W42457   0.089  24.885   8.247  0.0196 -0.1436  0.1052
    1W        W42458  27.078   6.537   2.414 -0.1216  0.4758  0.1558
    1W        W42459   8.329  17.336   0.317 -0.0758 -0.1352  0.0626
    1W        W42460  25.301  13.346   1.722 -0.0379 -0.1473  0.1331
    1W        W42461  11.255  17.345   0.551  0.0564 -0.0854 -0.0903
    1W        W42462   6.152  16.980   1.554  0.2823  0.3005  0.0029
    1W        W42463  29.441  14.680   7.316 -0.1166  0.0390 -0.1566
    1W        W42464  20.680   0.493   2.664  0.1826  0.0514 -0.1199
    1W        W42465  26.439  23.814   6.629  0.3315  0.1121  0.4144
    1W        W42466  22.592   6.906   3.119  0.0406  0.1972 -0.1629
    1W        W42467   1.308  12.784   8.831 -0.1231  0.3099  0.3967
    1W        W42468   0.288  12.624   7.317 -0.3569  0.4352  0.2331
    1W        W42469   7.349  26.478   8.266 -0.0938  0.3742 -0.1054
    1W        W42470  22.092  24.324   0.928 -0.0864 -0.0372 -0.0937
    1W        W42471  27.196  11.786   7.758 -0.0930  0.0549 -0.1284
    1W        W42472  20.035  19.145   8.486 -0.1094  0.4086  0.0224
    1W        W42473  12.096  10.891   7.066  0.1254 -0.0879  0.1233
    1W        W42474  21.406   6.196   0.637 -0.2233 -0.0746  0.1411
    1W        W42475  13.011  11.606   6.915  0.0518  0.1995 -0.2518
    1W        W42476  27.934   9.397   7.916 -0.0149  0.0720 -0.1539
    1W        W42477  16.244  22.652   1.157  0.3645 -0.1538 -0.2108
    1W        W42478  25.141  16.443   8.362  0.2081  0.3254 -0.0546
    1W        W42479  21.931  14.872   1.371  0.1412  0.2292  0.1446
    1W        W42480  24.270  28.170   9.161 -0.0605  0.1595  0.0651
    1W        W42481   5.999   2.569   2.067 -0.1148 -0.2012 -0.3142
    1W        W42482  27.561  26.679   3.088  0.3627 -0.1918  0.0186
    1W        W42483  25.579  24.740   9.090  0.0311 -0.1476  0.2942
    1W        W42484   0.574   2.885   0.656  0.1430  0.1209 -0.1661
    1W        W42485  28.168  12.867   6.722  0.1462  0.1679 -0.2163
    1W        W42486   6.170   8.310   2.663  0.1846 -0.1382  0.1796
    1W        W42487   5.659  21.743   7.242  0.0204  0.1508 -0.0577
    1W        W42488  11.694  18.150   6.949  0.4394  0.0707 -0.1568
    1W        W42489   9.083  25.031   1.727 -0.1661  0.3375 -0.1289
    1W        W42490  12.111   3.439   1.282  0.1090  0.1225  0.0348
    1W        W42491  29.752  24.410   8.754  0.0612 -0.1959  0.1053
    1W        W42492  12.871  29.718   7.640  0.0323 -0.0958  0.0604
    1W        W42493   9.643  18.654   0.366 -0.0352 -0.5377  0.2653
    1W        W42494  25.497   9.353   2.219 -0.0651  0.1774  0.2489
    1W        W42495   7.496  29.821   9.375  0.2251 -0.0496 -0.0805
    1W        W42496  20.227  13.627   6.464 -0.2805 -0.0394  0.5302
    1W        W42497  27.244  16.759   1.882  0.0386  0.0593 -0.0905
    1W        W42498   1.562   4.758   8.033 -0.1700 -0.2931  0.0745
    1W        W42499  10.112   2.938   9.456  0.0351  0.1693 -0.0553
    1W        W42500   0.552  11.825   6.453 -0.1776 -0.1036  0.2546
    1W        W42501   6.395  28.829   2.496 -0.1087 -0.0960  0.3146
    1W        W42502  25.548  11.116   8.468 -0.0316 -0.1000 -0.0720
    1W        W42503  12.123  12.379   6.831 -0.0227 -0.0334  0.0543
    1W        W42504   1.218  19.336   7.425 -0.0017  0.0979  0.0916
    1W        W42505  18.487  15.393   1.686  0.0330  0.1367 -0.0819
    1W        W42506  21.101   2.672   0.308  0.0369  0.0627  0.1517
    1W        W42507   7.031  29.174   0.283  0.2410  0.0541 -0.0679
    1W        W42508   5.984  21.894   0.425  0.1627  0.2024  0.0336
    1W        W42509   0.250  15.763   9.144  0.1538 -0.0559  0.2989
    1W        W42510   7.999  29.536   1.302  0.3121  0.1013 -0.0247
    1W        W42511  26.926  25.040   6.985 -0.0419 -0.1577  0.1287
    1W        W42512  26.642  24.341   8.454  0.1317 -0.1218  0.4503
    1W        W42513  20.654  19.550   2.487 -0.1842  0.1061  0.0773
    1W        W42514  18.723  27.779   7.734 -0.4105 -0.1336  0.0224
    1W        W42515   6.241   1.725   8.486  0.0983  0.1468 -0.0380
    1W        W42516   3.740  14.412   7.551  0.2239 -0.2225  0.0107
    1W        W42517  24.337   9.880   9.106  0.0993  0.0094 -0.1718
    1W        W42518   4.329  11.351   9.343  0.0836 -0.0201  0.1421
    1W        W42519   6.191  13.508   0.888  0.2367  0.1435  0.1651
    1W        W42520   6.990  23.920   6.221 -0.0224 -0.0216  0.2135
    1W        W42521  23.863   9.226   0.888  0.0468 -0.3119 -0.0741
    1W        W42522   4.421  21.508   7.403  0.0564 -0.1530  0.0988
    1W        W42523  16.406  23.659   2.823 -0.0433 -0.0842  0.0764
    1W        W42524   0.963  22.330   5.792 -0.0656  0.0718 -0.0363
    1W        W42525   6.308   0.387   0.608 -0.0729  0.0084 -0.1861
    1W        W42526  10.293   4.862   1.756  0.4432  0.3343 -0.0268
    1W        W42527  14.300  17.429   7.453  0.2012 -0.2461  0.0170
    1W        W42528  23.673  16.857   8.834  0.0554  0.0239 -0.1053
    1W        W42529  14.970  21.108   9.083 -0.2144  0.0964  0.1531
    1W        W42530  14.489  18.060   0.634 -0.0081 -0.1771 -0.0286
    1W        W42531   0.531   6.094   7.172 -0.0580 -0.0300 -0.2511
    1W        W42532  28.236  13.120   7.169 -0.0211  0.2153 -0.0678
    1W        W42533  25.253   5.801   7.691  0.2085  0.5053 -0.2883
    1W        W42534  23.879  22.673   2.187 -0.2462  0.1704  0.1032
    1W        W42535   9.568   3.166   0.830 -0.0411 -0.0650  0.1282
    1W        W42536   7.565  15.501   0.954 -0.0751 -0.0026  0.0023
    1W        W42537   4.515  12.658   9.446 -0.0829  0.4654 -0.0659
    1W        W42538   1.124   6.090   1.987 -0.2731 -0.1020  0.0117
    1W        W42539   0.778   5.961   9.036  0.0095  0.0909  0.1403
    1W        W42540   1.345  13.924   1.996 -0.1893  0.0216  0.0462
    1W        W42541   9.252   4.325   2.475  0.1274  0.0047 -0.0088
    1W        W42542   0.547   1.943   3.090 -0.1587  0.0177  0.0728
    1W        W42543  20.667  29.558   0.899 -0.1761 -0.0536  0.0223
    1W        W42544   5.587  27.629   2.603  0.1537  0.2030 -0.0861
    1W        W42545  14.512  10.321   7.972  0.0235  0.0761  0.5003
    1W        W42546  18.361  22.410   1.286 -0.2139  0.0377  0.1603
    1W        W42547  21.670   9.932   1.604 -0.0693 -0.4972 -0.0204
    1W        W42548   1.161  26.973   8.577 -0.0187  0.0375 -0.5874
    1W        W42549   7.281  25.576   6.603  0.0559 -0.1253 -0.3172
    1W        W42550   9.426  10.628   0.663  0.1006  0.2433  0.0682
    1W        W42551  18.110  11.765   0.440  0.1846 -0.2097 -0.2542
    1W        W42552   9.368  11.675   1.754  0.0963  0.0071  0.2541
    1W        W42553  21.282  13.950   8.601  0.0714 -0.2236  0.2322
    1W        W42554   2.455  27.035   7.624  0.0404  0.0835  0.0411
    1W        W42555  18.339   4.037   0.773 -0.0266 -0.1549 -0.0079
    1W        W42556  14.439   2.801   2.222  0.1135 -0.2775 -0.3267
    1W        W42557  19.707   2.840   0.375 -0.0080  0.1984 -0.1926
    1W        W42558   8.329  12.694   8.226  0.0038 -0.1718 -0.0203
    1W        W42559  28.686   7.617   9.354  0.1582 -0.0820  0.1701
    1W        W42560  28.699  22.184   9.316 -0.3403  0.1490  0.1433
    1W        W42561  23.777  11.774   0.871  0.1656  0.0867 -0.0162
    1W        W42562  19.499  25.754   1.540  0.2081  0.2893  0.0655
    1W        W42563  28.279  22.075   8.405  0.2214  0.1804  0.3660
    1W        W42564  17.817   6.130   1.405  0.2825  0.0072 -0.1313
    1W        W42565   8.548  24.498   2.053  0.0440  0.1026 -0.0140
    1W        W42566  18.039   9.127   6.567 -0.0167 -0.1298  0.3068
    1W        W42567  29.558  13.117   2.536  0.1726  0.0410 -0.1585
    1W        W42568  25.604  14.415   7.629  0.0832  0.0620  0.1645
    1W        W42569   8.238   4.617   7.552  0.2161  0.1365 -0.0926
    1W        W42570  18.623  25.622   3.289 -0.1178 -0.1321  0.0827
    1W        W42571  16.325   3.482   6.885 -0.2112  0.3334  0.1117
    1W        W42572   3.132  16.192   9.011 -0.0834  0.0136 -0.0484
    1W        W42573   8.153  20.161   7.525 -0.0880  0.0491  0.1216
    1W        W42574  15.394  24.048   2.503 -0.1242 -0.2136 -0.2608
    1W        W42575  16.581  29.808   2.308 -0.0457 -0.0375 -0.0339
    1W        W42576   3.508  13.774   6.588 -0.0759  0.0435  0.0490
    1W        W42577  11.991   5.523   2.781  0.2395 -0.2410 -0.2523
    1W        W42578  13.148  17.495   7.249 -0.0937 -0.3045 -0.2549
    1W        W42579  28.407   0.249   3.258  0.1142  0.1989 -0.1044
    1W        W42580  16.431   9.086   1.030  0.1771  0.0782  0.1917
    1W        W42581   0.784   3.894   2.810 -0.1840 -0.1312  0.5992
    1W        W42582  19.931  26.056   2.517 -0.0239  0.0841 -0.0880
    1W        W42583  12.939  29.258   1.652 -0.1534  0.1135  0.0998
    1W        W42584  27.976  26.934   0.937 -0.0303 -0.1150 -0.0080
    1W        W42585  27.805   9.238   8.383 -0.1280 -0.1186  0.1387
    1W        W42586  12.269  20.852   8.560  0.0999  0.0754 -0.5020
    1W        W42587   6.359   5.584   8.150  0.0371 -0.1628  0.3902
    1W        W42588  14.365   0.503   8.843 -0.0650  0.3971 -0.0158
    1W        W42589   6.016  27.562   1.562  0.3078 -0.0510 -0.1014
    1W        W42590  16.296  22.691   7.404 -0.0663 -0.0230  0.0111
    1W        W42591  11.200   5.931   7.540  0.2907 -0.0121 -0.0159
    1W        W42592   6.683  15.248   1.653 -0.1012  0.0985  0.1822
    1W        W42593  24.974   2.100   7.925 -0.0239  0.2297 -0.0085
    1W        W42594   2.250  28.109   6.342  0.2077  0.1569  0.1748
    1W        W42595   9.475   6.679   1.309 -0.2275  0.0226 -0.0238
    1W        W42596  29.232   4.774   2.941 -0.0093 -0.0073 -0.0088
    1W        W42597  19.013  28.836   7.108 -0.0706 -0.0695  0.5302
    1W        W42598  14.910   0.300   7.095 -0.2612  0.0142  0.1474
    1W        W42599   0.630  17.493   2.030 -0.0730 -0.2924  0.2700
    1W        W42600  15.863  27.585   8.082 -0.1640 -0.3619 -0.3153
    1W        W42601  23.264  22.167   9.403 -0.1808 -0.1866  0.3577
    1W        W42602  17.361   0.913   0.462  0.0707 -0.1999  0.3261
    1W        W42603  26.795   9.210   7.233 -0.1626 -0.2840 -0.1039
    1W        W42604  17.980  20.145   1.606  0.1510 -0.0379  0.4275
    1W        W42605  20.496   4.229   1.387 -0.0794  0.4495  0.3069
    1W        W42606  13.465  13.883   6.859  0.0893 -0.0087 -0.2836
    1W        W42607   3.937   1.104   8.745  0.0515  0.5466 -0.2068
    1W        W42608  19.656   6.995   7.006 -0.1572 -0.0604 -0.0040
    1W        W42609  16.059   0.907   1.931 -0.4553  0.1360 -0.0835
    1W        W42610   8.043  29.129   9.083  0.0613 -0.0802 -0.3553
    1W        W42611   8.123  21.669   0.376 -0.0207 -0.2360 -0.0304
    1W        W42612   7.252  19.877   0.259  0.2460  0.3044  0.2277
    1W        W42613   6.778  21.858   0.146  0.0208  0.1580 -0.0480
    1W        W42614  12.176   7.393   2.552 -0.4921  0.0365  0.2844
    1W        W42615  16.336  20.545   8.543 -0.1217 -0.1763  0.1285
    1W        W42616  16.659  19.795   2.022 -0.0476 -0.3922 -0.3337
    1W        W42617  19.697  11.316   7.576 -0.0533  0.1255 -0.2586
    1W        W42618  13.023   7.443   1.137 -0.1588 -0.0846 -0.2708
    1W        W42619   6.867  18.609   7.722  0.1067 -0.0535 -0.1469
    1W        W42620   7.302   0.207   0.447  0.3102 -0.1791  0.0021
    1W        W42621  12.623   3.359   1.308 -0.3497  0.2998  0.0431
    1W        W42622   8.068  15.420   7.000  0.1832 -0.2377 -0.2101
    1W        W42623  23.995   1.495   3.362  0.2240 -0.2655  0.0902
    1W        W42624  29.794   2.629   6.136 -0.1760  0.0199 -0.0609
    1W        W42625  20.540  14.716   7.273 -0.3441 -0.0689 -0.2320
    1W        W42626  24.785  24.007   0.451  0.1796 -0.2648 -0.3708
    1W        W42627   0.003  20.983   0.704  0.1115 -0.4999 -0.1803
    1W        W42628   0.709  12.911   5.684 -0.0086  0.0677 -0.1102
    1W        W42629   4.014  26.972   0.943  0.1901  0.1084  0.1433
    1W        W42630  27.187  10.347   1.906  0.1596  0.0033 -0.3465
    1W        W42631  27.410   6.218   0.823  0.1268 -0.0190 -0.0632
    1W        W42632  20.291  27.737   0.677 -0.2930 -0.2803 -0.0613
    1W        W42633  24.988  17.877   7.554 -0.0552  0.2462  0.3671
    1W        W42634  16.081   9.862   0.782 -0.1831 -0.0815 -0.2744
    1W        W42635  24.199  23.449   0.220 -0.1584  0.0451 -0.1088
    1W        W42636  29.293  21.427   8.142  0.1986 -0.2629  0.0465
    1W        W42637   2.874   2.513   6.942 -0.1559 -0.0045  0.0618
    1W        W42638  10.938  19.232   1.569 -0.0620 -0.1294 -0.0745
    1W        W42639  10.173  11.560   1.330 -0.2327  0.1364  0.1009
    1W        W42640   1.320   1.060   0.700 -0.3034  0.4339 -0.0712
    1W        W42641   4.175  14.180   7.454 -0.0279 -0.0892 -0.1932
    1W        W42642  11.939  17.894   7.412  0.2406  0.0500  0.1339
    1W        W42643   2.502  20.276   2.386 -0.1007 -0.3919  0.1345
    1W        W42644  23.884  10.424   6.811 -0.2762  0.0719 -0.0132
    1W        W42645   4.926   1.565   1.628 -0.2794 -0.1040  0.0251
    1W        W42646   4.474   2.145   8.124  0.0856 -0.0989 -0.2608
    1W        W42647  16.394   7.151   7.861 -0.4006 -0.1579  0.2245
    1W        W42648  13.409   6.071   1.766 -0.0951 -0.1208  0.2132
    1W        W42649  29.401  21.865   7.268  0.1380  0.3156 -0.1355
    1W        W42650  12.617  15.368   1.181 -0.1121 -0.0842  0.3176
    1W        W42651   1.854  11.348   7.088  0.1195  0.1922 -0.0181
    1W        W42652  24.597   5.643   0.818  0.1082 -0.0768  0.0548
    1W        W42653  27.803   1.606   6.988 -0.4954 -0.1121 -0.1258
    1W        W42654  27.179  20.376   7.682  0.1490 -0.0634 -0.0436
    1W        W42655  25.073   6.754   7.984  0.1372 -0.2484  0.2157
    1W        W42656   3.652  20.799   8.969 -0.1890 -0.2107  0.3210
    1W        W42657  25.510  11.505   8.879  0.1993  0.1669 -0.0407
    1W        W42658   2.534  16.572   0.366  0.1875  0.0540  0.3028
    1W        W42659   8.686   3.757   7.910  0.1886  0.0731 -0.0786
    1W        W42660  12.664  12.797   0.901 -0.0598  0.0961  0.2529
    1W        W42661  25.909  21.022   2.293  0.1845 -0.0169  0.1016
    1W        W42662  27.450  13.372   0.565 -0.1280  0.3318  0.0596
    1W        W42663   0.695   1.789   7.650  0.0251 -0.0618  0.0736
    1W        W42664  10.290  29.106   7.733 -0.1033 -0.1167  0.1544
    1W        W42665  24.338  24.262   7.338  0.1719 -0.0170 -0.0054
    1W        W42666  10.741  18.827   1.897  0.2729 -0.0613  0.2013
    1W        W42667   3.510  23.556   7.191  0.0755 -0.1446  0.0907
    1W        W42668   7.259   9.077   9.133 -0.0557 -0.1032  0.0615
    1W        W42669   7.424  25.970   8.207 -0.3042  0.0373  0.1340
    1W        W42670   3.792  18.824   0.406 -0.2278  0.1335  0.1106
    1W        W42671  28.366  16.270   0.045  0.4011  0.2091  0.2037
    1W        W42672  19.785  25.754   0.314 -0.0465  0.1952  0.2235
    1W        W42673   4.862   3.537   1.193 -0.1597  0.1162 -0.2436
    1W        W42674  12.594   2.306   8.158  0.2075  0.1009 -0.0964
    1W        W42675  29.059  18.420   7.029  0.0698 -0.2006 -0.0335
    1W        W42676  17.924  21.630   9.030 -0.1576 -0.1047  0.0975
    1W        W42677  23.705   6.224   0.899  0.0964  0.0181 -0.1459
    1W        W42678  13.946   2.230   7.910 -0.0148  0.1437 -0.2524
    1W        W42679   0.123  20.025   6.857 -0.2936 -0.2224  0.0174
    1W        W42680  16.983  12.245   1.328  0.1165 -0.2116 -0.0582
    1W        W42681  23.369   8.092   0.435 -0.0413 -0.1242  0.1443
    1W        W42682  26.287  24.957   0.905 -0.1488 -0.1394  0.1462
    1W        W42683  17.676   2.589   7.829 -0.0297  0.1469  0.1318
    1W        W42684  22.117  29.039   2.180 -0.0024  0.0629 -0.1221
    1W        W42685   4.683  11.710   1.040 -0.1446  0.0460 -0.2055
    1W        W42686   8.643   2.038   0.709 -0.2594  0.1659 -0.1243
    1W        W42687   9.017  17.069   6.708 -0.0978 -0.0119 -0.2050
    1W        W42688  12.647   5.967   8.238 -0.2906  0.2715 -0.0734
    1W        W42689  11.205  21.338   6.889 -0.2831 -0.3040 -0.0986
    1W        W42690  28.268   4.166   1.186 -0.3539 -0.1096 -0.1619
    1W        W42691  12.420   9.211   0.498  0.3438 -0.0778 -0.0296
    1W        W42692  16.658   6.302   1.197  0.0572  0.1091 -0.2019
    1W        W42693  22.433  22.104   0.304 -0.2149  0.1929 -0.1410
    1W        W42694   4.117   5.217   0.815 -0.0970 -0.1015  0.2095
    1W        W42695   0.512  25.901   9.154  0.1740 -0.0376  0.1848
    1W        W42696  28.047   7.885   1.309  0.2591 -0.0412  0.0074
    1W        W42697  18.524  16.251   9.011  0.1952 -0.2359 -0.1750
    1W        W42698  27.834   1.718   0.021  0.2157  0.0929 -0.1009
    1W        W42699  25.476   8.866   0.795  0.1927 -0.0335  0.1842
    1W        W42700   9.236   1.578   1.531  0.3431 -0.2310 -0.1769
    1W        W42701   8.530  15.034   8.934  0.1526 -0.3775 -0.1070
    1W        W42702  29.479  25.421   8.313  0.0298 -0.1231  0.4469
    1W        W42703  18.426  17.143   8.376  0.4129  0.2943 -0.0591
    1W        W42704  24.693   2.276   0.411 -0.0542 -0.1743  0.2410
    1W        W42705  10.082  12.421   0.973 -0.0692 -0.0661 -0.3190
    1W        W42706  27.697   8.166   6.573  0.1330 -0.2976 -0.4469
    1W        W42707   2.613   5.598   1.126 -0.2174  0.0476  0.0830
    1W        W42708   3.066   5.071   1.060 -0.1147  0.0248 -0.0291
    1W        W42709  23.661   7.061   1.698 -0.1226  0.0452 -0.2052
    1W        W42710  12.333   4.813   0.386 -0.1714  0.0631  0.0056
    1W        W42711   2.314  11.721   7.847 -0.1695 -0.0323 -0.0077
    1W        W42712   5.156  22.480   7.078 -0.1122 -0.4143 -0.0301
    1W        W42713  18.849   3.430   6.784  0.0672 -0.2938 -0.0315
    1W        W42714  16.403  28.828   7.347 -0.2010  0.0775  0.0692
    1W        W42715  18.534  27.883   8.425  0.1590  0.2203  0.3250
    1W        W42716  24.067  23.452   1.241 -0.1605  0.1108  0.2374
    1W        W42717  11.611   2.863   7.984  0.2791 -0.0587 -0.0800
    1W        W42718  27.140  27.358   1.018  0.1284 -0.0123  0.0833
    1W        W42719  24.995  27.975   8.673  0.1573  0.2561  0.2338
    1W        W42720  25.717   0.232   8.013 -0.1873 -0.1390  0.3856
    1W        W42721  23.167  17.066   9.078 -0.1728  0.0108 -0.2244
    1W        W42722  27.185  18.742   0.527  0.0160  0.1691  0.0573
    1W        W42723  11.944   9.075   0.453  0.0828  0.0535 -0.1747
    1W        W42724   9.727  23.984   2.243 -0.0981 -0.1822 -0.0128
    1W        W42725  29.218  27.961   0.107  0.2335  0.0851 -0.0361
    1W        W42726   3.658  20.323   9.151 -0.3841  0.0092  0.2197
    1W        W42727   3.645  16.327   9.394  0.1437  0.1885 -0.2257
    1W        W42728   9.578   7.274   9.007 -0.2673 -0.1105 -0.0688
    1W        W42729  18.170   4.800   6.117  0.0356 -0.0542 -0.1001
    1W        W42730   5.159  16.713   0.405  0.3680  0.0990 -0.2141
    1W        W42731   7.213  21.803   0.931 -0.1494  0.0432 -0.4584
    1W        W42732   5.919  24.674   6.021  0.1334  0.1404  0.2797
    1W        W42733   1.127  20.282   2.426 -0.2595 -0.1194  0.5142
    1W        W42734  14.291  13.362   0.078 -0.0379 -0.3090  0.2082
    1W        W42735  16.118  21.181   0.714 -0.0684  0.1833 -0.3072
    1W        W42736  26.513  18.052   2.205  0.0150  0.3336 -0.1813
    1W        W42737  15.477   6.344   3.382 -0.3742 -0.0851  0.0620
    1W        W42738   6.959   8.431   7.255 -0.4229 -0.0783 -0.0258
    1W        W42739  16.722  25.557   0.335  0.2708 -0.4518  0.0138
    1W        W42740  16.820   3.506   2.821 -0.0724  0.0124 -0.0506
    1W        W42741  23.148  27.752   6.181 -0.1294  0.0114  0.1366
    1W        W42742   8.351  14.362   1.869  0.3402  0.1157 -0.2285
    1W        W42743  13.605   1.113   8.463 -0.1617  0.0999  0.0539
    1W        W42744  25.056  11.304   7.906 -0.3063  0.0764 -0.0909
    1W        W42745  21.516   8.854   1.346 -0.2524  0.2161 -0.2193
    1W        W42746  22.903  20.885   0.632 -0.1228 -0.3837  0.1837
    1W        W42747   4.005  20.231   6.648 -0.0832  0.0679 -0.0869
    1W        W42748  25.615   8.042   0.243  0.0839  0.1438  0.0371
    1W        W42749  28.391  25.411   8.132  0.1540 -0.0173  0.1601
    1W        W42750   1.892   3.211   6.545  0.1463 -0.1224 -0.1902
    1W        W42751  18.194   7.444   8.852 -0.0232  0.0940 -0.1006
    1W        W42752  12.688  16.589   8.358  0.0721 -0.0485  0.1176
    1W        W42753  22.572   3.087   2.300 -0.5603  0.1101  0.0273
    1W        W42754   5.613  19.548   7.011  0.1639 -0.1987 -0.2678
    1W        W42755   7.472  26.241   0.606  0.1697  0.2530  0.4041
    1W        W42756   4.773  10.381   2.279  0.3451 -0.2408  0.3141
    1W        W42757  29.768  25.942   7.921  0.2422  0.1350 -0.1501
    1W        W42758  27.406  27.148   8.585  0.1091 -0.1684  0.0431
    1W        W42759  16.825   3.721   7.928 -0.0123 -0.0194  0.0920
    1W        W42760  29.218  15.103   0.089 -0.2954 -0.1270 -0.3017
    1W        W42761   0.023  17.479   2.796  0.0665  0.2333 -0.1305
    1W        W42762   5.981  15.137   7.236  0.2352 -0.0655  0.0142
    1W        W42763  19.719  18.567   8.984 -0.1014 -0.1520 -0.1010
    1W        W42764  10.279   8.586   8.243 -0.1744  0.2805  0.0454
    1W        W42765   8.437  27.688   8.521 -0.4417  0.1203 -0.2436
    1W        W42766  13.376  12.797   9.234  0.0440 -0.1405 -0.0080
    1W        W42767  19.955  27.409   7.812  0.2269  0.0241  0.0416
    1W        W42768   6.095  29.274   7.058 -0.0370  0.2649  0.2821
    1W        W42769  11.989   4.011   1.006  0.1247  0.0206  0.0265
    1W        W42770   0.177  25.247   8.942 -0.0717 -0.0197 -0.0115
    1W        W42771   8.275  24.546   8.741  0.0795  0.3011  0.1504
    1W        W42772   6.723  13.544   7.738 -0.1231 -0.0848 -0.1314
    1W        W42773  16.616   5.604   9.031 -0.0236 -0.0795 -0.0023
    1W        W42774  27.786  16.948   0.561  0.2129 -0.2183 -0.0421
    1W        W42775  17.708  29.662   3.586 -0.1388 -0.0321  0.0460
    1W        W42776   3.501   2.444   3.027  0.1775  0.1074 -0.1020
    1W        W42777  16.138  20.041   7.681 -0.2415 -0.0445 -0.0339
    1W        W42778  10.255  22.056   8.609 -0.0045  0.1227  0.0101
    1W        W42779  29.777   8.229   0.116  0.1869  0.0224  0.0704
    1W        W42780  11.272   1.906   2.490  0.2484  0.2557 -0.0245
    1W        W42781  10.836   6.932   0.842 -0.5906  0.2099  0.3254
    1W        W42782  15.088  16.081   1.684  0.2217 -0.0062 -0.0190
    1W        W42783  13.330  12.450   0.674  0.2124 -0.0965  0.1629
    1W        W42784   3.548   2.975   8.177 -0.0815  0.2234 -0.3511
    1W        W42785   1.163  25.781   7.491 -0.2286  0.6432 -0.0049
    1W        W42786  17.189  25.208   0.552  0.0462  0.0338  0.2574
    1W        W42787   0.981  28.549   1.141  0.0346  0.1731  0.1274
    1W        W42788  22.251  19.195   0.565 -0.5213  0.0459  0.2522
    1W        W42789  18.079   6.213   0.946  0.1135 -0.0632  0.1212
    1W        W42790  20.571  15.592   1.853 -0.1396 -0.2149  0.0157
    1W        W42791   3.976  13.670   7.989 -0.0255  0.0120 -0.0304
    1W        W42792  10.998  27.580   3.076 -0.0159  0.0928 -0.0971
    1W        W42793  27.271  13.613   1.057  0.1634  0.0767  0.1589
    1W        W42794   2.797  10.134   0.067  0.0647 -0.0097  0.1186
    1W        W42795   3.885  12.279   1.576  0.2078  0.0050  0.1060
    1W        W42796  29.518  18.110   6.347  0.1050  0.0424  0.2725
    1W        W42797   1.754   6.151   3.365  0.0828  0.2751 -0.1855
    1W        W42798  11.105   5.738   1.384 -0.4098  0.5715 -0.1714
    1W        W42799  11.309  12.191   2.742  0.1001 -0.3916 -0.0662
    1W        W42800   6.281   5.732   2.511 -0.1062  0.0769  0.1673
    1W        W42801  12.644  27.931   2.807  0.0027  0.0065  0.0906
    1W        W42802   8.238   4.154   1.639  0.0678  0.0912  0.1456
    1W        W42803  16.834  16.370   7.199 -0.0192  0.0512  0.0628
    1W        W42804   0.483  21.393   0.282  0.0333 -0.2568 -0.0835
    1W        W42805  17.760   9.334   1.158 -0.1267  0.2028 -0.1049
    1W        W42806  24.183  15.203   7.272  0.0058 -0.2635 -0.0262
    1W        W42807  10.778   3.430   8.252  0.3603 -0.2969  0.0435
    1W        W42808   4.183   4.762   7.457 -0.1328 -0.1189  0.0053
    1W        W42809  14.130  25.259   6.998  0.1815  0.0345  0.1548
    1W        W42810   1.662  26.205   9.245 -0.2122 -0.0635  0.2056
    1W        W42811   7.538  11.307   0.122 -0.0237 -0.0730  0.0591
    1W        W42812  25.035   5.750   1.217  0.0446  0.1206  0.0124
    1W        W42813  28.451  13.187   8.373 -0.0706  0.4478 -0.2213
    1W        W42814  17.184  19.992   6.843  0.1784  0.0950  0.1130
    1W        W42815   7.238  17.755   7.752  0.0866 -0.0538 -0.0521
    1W        W42816  22.870  25.753   7.941 -0.0067 -0.0068 -0.0019
    1W        W42817  13.351  13.056   8.659 -0.4350 -0.0073  0.0571
    1W        W42818  28.496  18.239   0.445 -0.1966 -0.1718 -0.1133
    1W        W42819  13.313   4.379   3.426 -0.0008 -0.0646  0.1766
    1W        W42820   8.283  15.001   0.539 -0.1268 -0.3508 -0.0818
    1W        W42821  26.076  24.500   0.755  0.0311  0.2287 -0.1973
    1W        W42822   4.494  12.426   6.652 -0.0676  0.2417 -0.1875
    1W        W42823  10.317  16.237   6.637 -0.0971 -0.0268 -0.1552
    1W        W42824  13.862  25.621   9.220  0.4993 -0.0958  0.1621
    1W        W42825  24.339   9.775   8.582 -0.0645  0.1397 -0.2038
    1W        W42826  18.484  22.917   1.493  0.1689 -0.0641 -0.1807
    1W        W42827   4.186   1.296   1.055 -0.1112  0.3003 -0.2412
    1W        W42828  27.320   6.103   1.762  0.1813 -0.1256  0.3470
    1W        W42829  21.622  10.873   6.013 -0.1109  0.0542  0.2617
    1W        W42830  24.981   0.008   2.223  0.0576  0.0212  0.2549
    1W        W42831  24.585   5.673   3.637  0.0801  0.0935  0.1939
    1W        W42832  22.485  22.136   8.395  0.1042 -0.0761 -0.2037
    1W        W42833  27.578  24.717   0.190  0.1028  0.3131 -0.1108
    1W        W42834  16.357  10.759   1.928  0.1876 -0.1085 -0.1921
    1W        W42835   5.902  15.934   8.566  0.3497 -0.1254  0.0989
    1W        W42836  16.098  13.479   9.064  0.1437 -0.7593  0.0152
    1W        W42837   1.019  23.976   0.299  0.0868  0.1422 -0.2638
    1W        W42838  15.062   6.759   2.775 -0.1363  0.0429 -0.2109
    1W        W42839  10.123   1.092   7.854 -0.1932 -0.0298  0.0965
    1W        W42840   9.329  24.935   7.581 -0.2089  0.1444 -0.1799
    1W        W42841  22.747  14.597   7.193  0.0678  0.1130  0.1057
    1W        W42842   5.524  22.508   8.044 -0.3634 -0.0922 -0.0959
    1W        W42843  13.048  22.953   5.897  0.0407 -0.0902 -0.0710
    1W        W42844  21.594  25.560   7.768  0.0633 -0.0618  0.4304
    1W        W42845   5.595  16.873   7.790 -0.0226 -0.1102 -0.1400
    1W        W42846  21.959   2.012   7.225  0.1041  0.1480  0.2679
    1W        W42847  14.157  18.103   8.429  0.3784 -0.1268  0.0648
    1W        W42848  28.780   5.504   0.399 -0.1974  0.2541 -0.0343
    1W        W42849  27.665  23.943   2.354  0.2713  0.0529  0.0764
    1W        W42850  22.089  27.660   2.447  0.2754  0.0542 -0.0681
    1W        W42851  26.110   2.631   2.804  0.2081 -0.1263 -0.2751
    1W        W42852  27.031  22.304   6.907 -0.3473  0.0724  0.0589
    1W        W42853   2.003   3.793   0.409  0.2562 -0.2310 -0.1051
    1W        W42854  25.736  22.771   8.525  0.1389  0.0053  0.0089
    1W        W42855  28.583  28.391   0.647  0.0666 -0.0910 -0.2122
    1W        W42856  23.954   1.509   2.334  0.4872  0.0323  0.1830
    1W        W42857  25.194  26.992   1.280 -0.1328  0.1818 -0.0878
    1W        W42858  21.221  18.620   0.981  0.2364  0.0264  0.0334
    1W        W42859  29.541  22.231   0.490 -0.2493  0.1974  0.1559
    1W        W42860   5.941  16.813   5.996 -0.0932  0.0289 -0.0290
    1W        W42861  26.365  23.388   1.731 -0.1228  0.2091 -0.1947
    1W        W42862  29.819  29.099   0.432 -0.1473  0.3142 -0.1476
    1W        W42863   0.709  10.557   7.547 -0.0335  0.1176 -0.1907
    1W        W42864   6.500   5.686   9.241  0.0654 -0.0545  0.0461
    1W        W42865  27.127  18.188   0.592  0.0746 -0.1945  0.0842
    1W        W42866   9.410  25.765   7.654  0.4853  0.0160  0.0715
    1W        W42867  20.506  14.268   1.261  0.1217 -0.0609 -0.0004
    1W        W42868   9.346  23.930   6.129 -0.4581 -0.0220 -0.1106
    1W        W42869  11.090   2.615   8.675 -0.0373 -0.0306 -0.1559
    1W        W42870   5.343   1.181   3.664  0.0055  0.0792  0.0180
    1W        W42871   7.186  23.699   5.726 -0.1176 -0.4259 -0.0693
    1W        W42872   8.009  14.807   8.180  0.0796 -0.2912  0.2034
    1W        W42873   9.205  22.434   0.872 -0.2254 -0.0784 -0.4066
    1W        W42874  20.607  18.985   1.697 -0.3538  0.2745 -0.0520
    1W        W42875  17.397  23.210   2.411  0.3235 -0.2167 -0.1499
    1W        W42876  13.182   2.527   7.101 -0.0196  0.1702  0.2832
    1W        W42877  27.522   3.314   2.260 -0.1090  0.0463 -0.1813
    1W        W42878  22.957   9.501   8.897 -0.1608 -0.0102  0.1483
    1W        W42879  27.228   3.395   7.327 -0.1656  0.2426  0.1677
    1W        W42880   7.364   9.130   1.238  0.0252  0.1430  0.2760
    1W        W42881   0.906   3.764   0.663 -0.2979 -0.1111 -0.2298
    1W        W42882   4.391  10.736   7.338 -0.0610 -0.0995 -0.2069
    1W        W42883   3.913  16.096   2.501 -0.1604  0.1422 -0.0739
    1W        W42884   1.983  12.623   1.167 -0.0336  0.1362  0.1745
    1W        W42885  25.030   2.375   6.947  0.1751 -0.1736  0.3670
    1W        W42886  16.438  14.261   7.448  0.2167 -0.0710  0.1283
    1W        W42887  17.189  24.019   2.827 -0.2171  0.2809 -0.0253
    1W        W42888   3.469   2.714   7.679  0.1932  0.2197  0.0910
    1W        W42889  29.566   2.815   2.105  0.0133  0.1793  0.0544
    1W        W42890  29.270   7.265   8.056 -0.1135 -0.4117  0.1522
    1W        W42891   8.628  12.700   6.814 -0.1689 -0.1161  0.1058
    1W        W42892  24.773  17.863   1.555  0.0549 -0.2202  0.3821
    1W        W42893  11.765  26.305   7.730 -0.1060  0.0357 -0.0014
    1W        W42894  25.037  26.919   9.381  0.0472  0.0488 -0.0975
    1W        W42895  15.821   0.810   1.496  0.0295  0.1169 -0.0500
    1W        W42896   0.799   1.888   5.990 -0.1339  0.0342  0.2336
    1W        W42897  28.548  27.175   8.689  0.0813 -0.1008  0.0340
    1W        W42898   1.079  22.702   1.985  0.0209 -0.2338  0.1900
    1W        W42899  27.468   5.680   8.077 -0.3466  0.2715 -0.1115
    1W        W42900  10.001  21.757   9.218 -0.0302  0.0439  0.1449
    1W        W42901   7.133  22.988   2.752 -0.0400 -0.1853 -0.0342
    1W        W42902   3.987  21.530   1.843 -0.0219  0.1026 -0.0025
    1W        W42903  25.309   3.724   2.618 -0.2579 -0.2178  0.0459
    1W        W42904  29.518  20.267   0.270  0.2073  0.2278  0.1913
    1W        W42905   4.966  10.424   1.811 -0.0347 -0.0491  0.0097
    1W        W42906  10.846  15.421   0.777  0.1058  0.1853 -0.3056
    1W        W42907   6.156  17.199   2.116  0.0524 -0.0855  0.2085
    1W        W42908  22.197   7.058   7.752  0.0762 -0.0650  0.0455
    1W        W42909   9.649  25.300   7.479 -0.0672  0.0462 -0.0036
    1W        W42910  25.837  16.594   2.975  0.3254  0.0558 -0.0556
    1W        W42911  10.061  11.181   2.301  0.2982  0.0240  0.0907
    1W        W42912  18.392  11.109   6.655 -0.1430 -0.1015 -0.0383
    1W        W42913  19.899   4.735   0.845 -0.0880  0.1531 -0.0341
    1W        W42914   2.218   5.130   8.628 -0.2761  0.0274 -0.2487
    1W        W42915  29.360   8.102   0.272  0.1184 -0.2604  0.1239
    1W        W42916   9.919  24.886   8.307  0.2104  0.2187 -0.2636
    1W        W42917  15.118   7.099   1.851 -0.1205  0.1032  0.2668
    1W        W42918   7.925  17.840   0.023  0.1488 -0.0393 -0.3895
    1W        W42919  19.507  22.426   7.588  0.0056 -0.0258  0.0030
    1W        W42920  12.767  24.388   8.903  0.1805  0.3638  0.0003
    1W        W42921  15.214  28.844   0.166 -0.4973 -0.1710 -0.0593
    1W        W42922  26.344  23.234   8.467  0.1776  0.1109  0.1453
    1W        W42923  28.257  16.121   8.833  0.0261  0.0396 -0.0692
    1W        W42924  29.443  13.487   6.470 -0.1242  0.1772  0.2995
    1W        W42925   7.313  24.857   1.894  0.0976 -0.1109  0.0381
    1W        W42926   6.750  19.300   8.595  0.1565 -0.0132  0.1407
    1W        W42927   7.433  21.683   2.184  0.3124  0.4300 -0.1881
    1W        W42928  13.841  20.326   0.110 -0.0187  0.1876  0.0047
    1W        W42929   2.498  29.708   1.131  0.0434  0.2169 -0.0973
    1W        W42930  19.442   2.041   1.101 -0.2072  0.1372 -0.4231
    1W        W42931  10.024  15.619   7.969  0.0397  0.1660  0.0512
    1W        W42932  14.053   2.150   8.397 -0.4561  0.3219  0.1030
    1W        W42933  22.969  25.601   1.165 -0.3003 -0.1972 -0.2281
    1W        W42934  27.282   3.480   2.693 -0.0452 -0.1384  0.2843
    1W        W42935  17.193   4.862   1.920  0.2763 -0.0350 -0.1956
    1W        W42936  22.429   2.844   1.359 -0.0655  0.1005 -0.2273
    1W        W42937  11.912  21.865   0.124  0.2554  0.1713 -0.0007
    1W        W42938  24.900  27.730   3.477  0.0412  0.1401 -0.0430
    1W        W42939   1.173  17.542   7.862 -0.1799  0.1889 -0.3517
    1W        W42940  26.578   6.725   0.684  0.1588 -0.1513  0.0114
    1W        W42941  14.496   6.767   0.144 -0.0438  0.1339 -0.1092
    1W        W42942  18.307  29.685   2.473 -0.0334  0.3014  0.1435
    1W        W42943   6.144  12.043   8.378  0.2331  0.1248 -0.0223
    1W        W42944  17.545   1.697   3.467  0.0783  0.0493  0.1564
    1W        W42945  17.467  18.483   1.767  0.1945  0.1315  0.1429
    1W        W42946  15.306   2.459   1.659  0.1131  0.0534 -0.0589
    1W        W42947  22.430  24.919   0.910 -0.2426 -0.1970 -0.2223
    1W        W42948  21.037  27.088   1.723 -0.0864  0.0197  0.0788
    1W        W42949   9.306  29.899   1.487 -0.0500  0.0120  0.2470
    1W        W42950  26.344  10.590   6.718  0.0493  0.0844  0.2077
    1W        W42951  10.601  22.605   0.288  0.0409  0.0585 -0.0779
    1W        W42952  14.109  11.937   8.558  0.0119  0.0698  0.2334
    1W        W42953  12.860  17.131   0.909 -0.0217  0.0667  0.1588
    1W        W42954  19.369  12.814   8.196  0.2192 -0.1451 -0.2007
    1W        W42955  19.125   5.642   8.781 -0.2979 -0.0871  0.1694
    1W        W42956  26.704  16.465   7.125 -0.1446 -0.0434  0.0134
    1W        W42957  17.446  11.058   1.307 -0.2875 -0.0156  0.0541
    1W        W42958  24.149  20.134   1.633 -0.1212  0.1452 -0.1999
    1W        W42959   5.389   5.794   2.183 -0.2916 -0.1384  0.4794
    1W        W42960  28.416   0.586   7.708 -0.1057 -0.3326 -0.1071
    1W        W42961  11.193   5.878   8.074 -0.0564  0.1145  0.3501
    1W        W42962  25.630   3.536   1.187 -0.1558 -0.2585 -0.1222
    1W        W42963  18.300  24.772   1.477 -0.0552 -0.0785  0.1819
    1W        W42964  16.727  17.004   0.310  0.0661  0.1685 -0.0364
    1W        W42965   7.920  11.252   0.498  0.3006 -0.1792 -0.1745
    1W        W42966  29.161  27.903   8.686  0.0026  0.0831  0.0197
    1W        W42967   7.920   9.632   7.564  0.2248 -0.1654 -0.1570
    1W        W42968   3.073  28.351   6.393  0.3483 -0.0751  0.2700
    1W        W42969  14.282  22.461   7.683  0.1675 -0.1376  0.0171
    1W        W42970   8.798  27.464   8.850 -0.1562  0.0752 -0.0792
    1W        W42971   6.529  16.148   2.217  0.1907 -0.0351  0.0326
    1W        W42972   9.854   4.829   7.372 -0.0818  0.0281 -0.0557
    1W        W42973   2.235  14.946   8.024  0.1499  0.0514  0.1138
    1W        W42974  10.919   0.646   0.083 -0.1392 -0.2646  0.0127
    1W        W42975   9.047  11.405   2.007 -0.1982 -0.4102 -0.1861
    1W        W42976   1.732  20.396   8.893 -0.0064  0.2363 -0.1283
    1W        W42977   0.411  25.262   8.080 -0.0391 -0.1944 -0.6905
    1W        W42978  12.304  18.631   1.647 -0.0976  0.4450 -0.1967
    1W        W42979   7.716  18.107   0.352 -0.1900 -0.1095 -0.0121
    1W        W42980   0.736  17.059   7.081 -0.0617  0.0428  0.1234
    1W        W42981  19.425  28.577   7.347  0.0536  0.3921  0.0774
    1W        W42982  18.709  29.246   7.233 -0.1717 -0.1673 -0.0114
    1W        W42983  29.860  15.092   8.013  0.0526  0.3465  0.3551
    1W        W42984   4.506   3.873   0.884  0.1231 -0.2164 -0.0729
    1W        W42985   9.064  24.022   8.086  0.1037  0.2212 -0.0889
    1W        W42986   7.984  26.072   1.537 -0.1402  0.0501  0.0883
    1W        W42987  19.678  22.168   2.395 -0.2995 -0.2975 -0.3625
    1W        W42988   1.934  10.715   6.233  0.0696  0.0997  0.0931
    1W        W42989  26.958  24.058   2.718  0.1183 -0.1978 -0.0564
    1W        W42990  29.683  24.191   6.629  0.1440  0.0167  0.1848
    1W        W42991   6.241   4.698   9.237  0.1013  0.1644  0.1188
    1W        W42992   9.931  10.667   8.864 -0.0950  0.2572 -0.0240
    1W        W42993  17.499   2.594   2.886  0.0571 -0.0134  0.0425
    1W        W42994  23.292  10.440   1.544 -0.1190 -0.0575  0.4792
    1W        W42995  13.287  20.947   8.836 -0.2484  0.0650  0.0051
    1W        W42996  10.782   5.800   7.878 -0.0435  0.1152  0.1034
    1W        W42997  15.489   2.974   1.029 -0.1169  0.1510  0.3030
    1W        W42998   3.804   9.106   6.660 -0.1527 -0.2260  0.0050
    1W        W42999  27.359  10.702   9.069  0.0265 -0.1015 -0.0898
    1W        W43000  12.845  14.173   2.556 -0.0859  0.0601 -0.0309
    1W        W43001  15.927  27.324   8.959 -0.0525  0.4042  0.5286
    1W        W43002  14.368  15.505   0.836 -0.0978  0.1819 -0.0169
    1W        W43003   4.561  14.586   6.065 -0.0964  0.0207 -0.1287
    1W        W43004  21.694  26.396   2.983  0.1931  0.1899 -0.2608
    1W        W43005   9.662  18.451   2.054  0.0871  0.0408 -0.1959
    1W        W43006  25.131  21.698   0.635 -0.0170  0.0184 -0.0964
    1W        W43007  23.244   2.341   8.567 -0.1215 -0.0551 -0.1280
    1W        W43008  10.950  12.740   0.245  0.2763  0.0050 -0.0605
    1W        W43009  26.826   5.004   8.637 -0.2525 -0.1054 -0.3281
    1W        W43010  16.980  12.815   8.896 -0.2086 -0.0911 -0.1883
    1W        W43011  10.670  29.095   8.036  0.2079 -0.0950 -0.2713
    1W        W43012  17.514  10.853   8.487 -0.2972 -0.1132 -0.2749
    1W        W43013  21.125  17.935   7.543  0.1389 -0.0600  0.0655
    1W        W43014  19.590   1.518   9.036 -0.1201  0.1486 -0.0048
    1W        W43015  14.132  27.176   8.280  0.0451  0.1938  0.0386
    1W        W43016  29.312  27.797   7.359 -0.0098 -0.1374  0.3302
    1W        W43017   1.333  26.376   0.490  0.3590  0.1416 -0.0052
    1W        W43018  23.906  15.886   7.341  0.0819 -0.1386 -0.0214
    1W        W43019  13.860  17.033   0.654 -0.0144 -0.1452  0.2180
    1W        W43020   8.225  27.065   7.783  0.2893 -0.2415 -0.0125
    1W        W43021   1.890  27.309   1.750 -0.0184  0.1342 -0.0162
    1W        W43022  20.773  27.089   2.133  0.1753 -0.2735 -0.1840
    1W        W43023   9.262   8.813   0.504  0.1517  0.2966 -0.2544
    1W        W43024  18.720  17.431   7.657  0.3757  0.0895  0.0653
    1W        W43025  29.698  29.578   0.287 -0.0886 -0.1968  0.0778
    1W        W43026  28.483  22.750   7.372  0.2680  0.1546 -0.0328
    1W        W43027  22.325   7.382   3.161 -0.0037  0.2081 -0.0620
    1W        W43028   7.170   5.978   0.302 -0.1200 -0.1142 -0.0894
    1W        W43029   3.578  11.938   9.200 -0.1410  0.0306 -0.0223
    1W        W43030  24.059   0.825   7.708  0.1864 -0.0562 -0.5106
    1W        W43031   3.112  15.944   6.914  0.1397  0.1619 -0.1917
    1W        W43032  10.659  11.695   8.077  0.1649 -0.0805 -0.2565
    1W        W43033  29.242  24.479   8.976  0.3399 -0.0261 -0.0402
    1W        W43034  17.483   3.372   0.884 -0.1818  0.0952  0.1056
    1W        W43035   0.286   4.680   0.875 -0.2607 -0.0233 -0.0688
    1W        W43036  24.170  19.480   0.876 -0.3192 -0.1016  0.1174
    1W        W43037   9.983   7.967   8.523 -0.0060 -0.3546 -0.3793
    1W        W43038   8.897   0.289   8.449  0.0295  0.1586 -0.1505
    1W        W43039   3.443  18.704   1.075  0.2318  0.2326  0.0039
    1W        W43040   6.413   8.420   2.251  0.0740 -0.0383 -0.2538
    1W        W43041  11.984   2.179   1.375  0.1418 -0.0582  0.0636
    1W        W43042   3.227  10.111   0.380 -0.0203 -0.1652  0.1574
    1W        W43043   3.456  19.553   7.235 -0.1990 -0.1745  0.1297
    1W        W43044  16.481  11.257   0.724 -0.2338 -0.1309 -0.0066
    1W        W43045  20.697   7.580   6.984 -0.0584  0.0521 -0.1913
    1W        W43046  21.505  13.923   1.763  0.1596  0.3233  0.0180
    1W        W43047  27.573   0.625   7.451  0.2200  0.0117 -0.1065
    1W        W43048  14.737   9.754   8.906 -0.0956 -0.0819  0.0304
    1W        W43049   1.272  10.276   3.030 -0.0150  0.1119 -0.3848
    1W        W43050   5.446  25.043   8.990  0.0383 -0.0027  0.0558
    1W        W43051  26.857  10.864   7.576 -0.3104 -0.0542 -0.1204
    1W        W43052  21.236   9.656   5.993  0.0229  0.2740  0.0480
    1W        W43053  20.041   3.545   1.548  0.4178  0.0297  0.0350
    1W        W43054  17.432  20.072   8.210  0.0398  0.0551  0.0723
    1W        W43055   1.816  28.176   6.118  0.1254 -0.0756  0.0496
    1W        W43056   2.165  23.557   1.820 -0.0893 -0.1312  0.0172
    1W        W43057   1.957  15.702   5.900 -0.0496  0.0347  0.0246
    1W        W43058  13.350   0.931   1.094  0.0246  0.1530 -0.0083
    1W        W43059  12.710   4.549   1.851 -0.0718 -0.0843  0.1404
    1W        W43060   4.105   9.528   2.988  0.2629  0.0367  0.0457
    1W        W43061   2.987   1.983   2.437 -0.0331 -0.0946 -0.0016
    1W        W43062  13.115   9.974   7.191  0.2034  0.1011  0.2723
    1W        W43063  28.640  24.316   7.752 -0.1262 -0.0735  0.0278
    1W        W43064  15.978  23.471   8.164 -0.3998 -0.0369  0.3086
    1W        W43065  15.649  24.919   6.281 -0.3185 -0.0050 -0.2327
    1W        W43066  27.557  21.392   0.682 -0.1437  0.1465 -0.1972
    1W        W43067  18.078  12.687   7.640  0.1426 -0.3774 -0.0818
    1W        W43068   1.457  25.890   6.412  0.2637  0.2378 -0.0736
    1W        W43069   2.182  24.361   0.797  0.1785 -0.1651  0.1241
    1W        W43070   8.873  23.988   0.047  0.0142 -0.0088  0.1590
    1W        W43071  17.819  28.434   3.020  0.3559  0.0131  0.1523
    1W        W43072   9.663  22.914   1.364 -0.2832 -0.0877 -0.1261
    1W        W43073  25.109  20.656   1.680  0.1654 -0.1599 -0.2227
    1W        W43074   2.051  17.623   1.127  0.0575 -0.0382 -0.0843
    1W        W43075   2.929   1.462   2.717 -0.1717  0.0678  0.1233
    1W        W43076  25.187   6.644   6.525 -0.0524 -0.3027  0.0259
    1W        W43077  11.057   4.014   3.748  0.0757 -0.0801  0.2920
    1W        W43078   3.955   2.911   1.385  0.0368 -0.1160  0.2081
    1W        W43079  14.222  24.897   8.685  0.2479 -0.2189  0.2057
    1W        W43080   5.105   6.761   8.830  0.0598 -0.1614  0.1007
    1W        W43081  19.994  27.688   8.265  0.3749  0.0666 -0.3517
    1W        W43082   9.554   1.108   2.583  0.1218 -0.0561 -0.0630
    1W        W43083  29.001  14.594   8.913 -0.0128 -0.1972  0.1325
    1W        W43084   5.011   2.069   8.087  0.0185 -0.0214 -0.0407
    1W        W43085   4.840  18.337   2.632 -0.1584  0.0768  0.0772
    1W        W43086  27.441  26.712   8.986  0.0665  0.2621  0.1131
    1W        W43087  16.236   2.534   8.712 -0.1166 -0.0147  0.0778
    1W        W43088  14.705  24.809   8.530 -0.2308 -0.1034  0.2253
    1W        W43089  15.935  26.389   7.248 -0.4161  0.0321 -0.0685
    1W        W43090  18.057  24.953   1.916  0.0486  0.1602  0.3718
    1W        W43091   2.273  22.587   7.958 -0.1111 -0.0064  0.2006
    1W        W43092  11.424  19.362   0.340  0.0145  0.0802  0.1580
    1W        W43093  19.394   6.157   1.920  0.1508 -0.0878  0.0039
    1W        W43094  23.463  26.887   1.298  0.0498 -0.1767 -0.0299
    1W        W43095   6.681  21.196   1.702 -0.0574 -0.2191 -0.1068
    1W        W43096  19.135  27.649   9.274 -0.0391  0.1398  0.3131
    1W        W43097  15.596  19.703   8.242  0.0857 -0.1011  0.3084
    1W        W43098  11.677  23.379   8.894 -0.3090 -0.1660  0.1926
    1W        W43099  10.313   7.795   7.714  0.1429 -0.1698 -0.0146
    1W        W43100  20.416  13.156   0.544  0.0119 -0.0840  0.1072
    1W        W43101  10.049  22.582   5.705 -0.1079  0.1172 -0.1130
    1W        W43102   7.462  23.472   1.882  0.4305  0.0642 -0.1930
    1W        W43103  17.370   0.779   9.159  0.1340  0.0821 -0.2981
    1W        W43104  27.091   8.093   9.169  0.0079 -0.1388 -0.0274
    1W        W43105  14.881  16.553   7.335 -0.3933  0.2352 -0.0890
    1W        W43106   3.072  19.425   1.519  0.0573  0.0749  0.0725
    1W        W43107  29.382   5.370   8.760  0.0865  0.2937 -0.1794
    1W        W43108  10.996  11.510   7.252 -0.1941  0.0473 -0.2414
    1W        W43109  16.818   0.053   1.600 -0.3145  0.0653 -0.1452
    1W        W43110   6.399  12.184   1.251  0.1919 -0.0186  0.1436
    1W        W43111   2.988  14.412   0.728  0.0687  0.0285  0.0758
    1W        W43112  11.096   6.103   2.551  0.0103  0.0513 -0.3138
    1W        W43113   8.054  26.300   9.168  0.0198  0.2734  0.1092
    1W        W43114   6.805  20.167   2.531  0.2326 -0.0287  0.1457
    1W        W43115   6.450  17.345   7.876 -0.1682  0.2327  0.2226
    1W        W43116  15.573  17.235   1.467 -0.0533  0.0886 -0.2925
    1W        W43117  10.487   5.775   1.481  0.5014  0.1602  0.1036
    1W        W43118  21.323  17.578   8.259 -0.1144  0.0260 -0.1113
    1W        W43119  15.901  21.906   8.639 -0.2445  0.0040  0.2567
    1W        W43120   1.411   1.882   8.715 -0.1183 -0.3366  0.1398
    1W        W43121  20.080   9.180   8.453  0.2013 -0.0571 -0.3508
    1W        W43122   9.487   2.334   3.698  0.0900 -0.2864 -0.1602
    1W        W43123  22.182  11.200   6.807  0.1496  0.6449 -0.3024
    1W        W43124  19.105   0.084   0.031  0.3037  0.0348 -0.0782
    1W        W43125  20.421  26.408   2.433  0.2299  0.2344 -0.0637
    1W        W43126   7.660  17.460   0.292 -0.1199 -0.0493 -0.0492
    1W        W43127   0.787  14.004   0.570 -0.1598  0.2282  0.0483
    1W        W43128   3.802  29.331   2.061  0.2443 -0.1763  0.3736
    1W        W43129   1.144   2.278   1.974  0.2383 -0.1114  0.1284
    1W        W43130   0.035   1.130   1.811 -0.2122 -0.3156 -0.1366
    1W        W43131  16.514  11.780   0.586 -0.0656 -0.0146  0.1816
    1W        W43132   4.769  21.529   0.006 -0.0566 -0.1451  0.3884
    1W        W43133   1.143  10.661   3.348  0.0359 -0.1503  0.0129
    1W        W43134   0.133  28.218   3.236  0.1063 -0.0638 -0.2340
    1W        W43135  23.792  11.965   8.417  0.1275  0.0537  0.0507
    1W        W43136  27.580  21.215   2.566  0.1227  0.0911 -0.1401
    1W        W43137   9.113  27.435   8.475 -0.0700  0.2441  0.1367
    1W        W43138   6.828   5.461   6.951 -0.0073  0.1236  0.2539
    1W        W43139   0.449  12.943   8.536 -0.2513 -0.1773 -0.2603
    1W        W43140   7.923  28.014   0.048  0.0405  0.1335 -0.0388
    1W        W43141   1.348  24.240   2.726  0.1082 -0.0884 -0.0767
    1W        W43142  20.411   9.601   7.465 -0.4135  0.0339 -0.0686
    1W        W43143  16.681  19.151   7.902  0.3088  0.0772  0.0609
    1W        W43144  12.094  25.008   2.189 -0.0915 -0.2757  0.3543
    1W        W43145  19.780  12.058   9.383  0.1829 -0.0739 -0.1191
    1W        W43146   8.682   8.860   7.501  0.2471  0.0115  0.1256
    1W        W43147  14.280  24.675   0.240  0.0940 -0.0051  0.0129
    1W        W43148   0.590   5.800   7.618  0.0415 -0.1287 -0.0839
    1W        W43149  24.543  10.264   1.498  0.0287  0.0831  0.0692
    1W        W43150  19.300  28.582   0.990 -0.0087  0.0014  0.1043
    1W        W43151  21.804   0.845   8.923 -0.0053  0.0386  0.1963
    1W        W43152   3.118  29.696   7.684  0.0614 -0.1925  0.2465
    1W        W43153  27.207   6.353   6.800 -0.0616 -0.2039  0.2751
    1W        W43154  20.777   7.008   2.075 -0.0780  0.2634  0.0701
    1W        W43155  13.625  19.009   8.807  0.3067 -0.1509  0.0580
    1W        W43156  18.907  22.061   8.141 -0.0455 -0.2419 -0.0665
    1W        W43157  25.289  23.569   6.405  0.1036 -0.1960  0.0402
    1W        W43158  26.634  17.856   7.681 -0.3112  0.2037 -0.3179
    1W        W43159  10.652  10.287   1.558 -0.2306 -0.2503  0.1196
    1W        W43160  25.709   4.172   7.546 -0.0517 -0.2366 -0.2021
    1W        W43161   2.086   9.365   0.713  0.0506  0.1764  0.1840
    1W        W43162  15.625  17.431   1.043 -0.0565 -0.1533  0.2340
    1W        W43163  27.284  12.868   6.401 -0.1762 -0.0144  0.1551
    1W        W43164  28.606  17.196   0.060 -0.1763 -0.2057  0.0804
    1W        W43165  23.474  29.440   0.007 -0.1791  0.1405 -0.0433
    1W        W43166   4.404  15.674   2.436 -0.2913  0.2617  0.0331
    1W        W43167  23.644  14.680   6.754  0.1136 -0.1422  0.3223
    1W        W43168  10.506  23.802   0.187 -0.3827 -0.0588 -0.0333
    1W        W43169   0.335  19.472   7.688 -0.0074  0.0838  0.1601
    1W        W43170   7.764  26.770   1.294  0.1548 -0.1236  0.0625
    1W        W43171  29.909  23.887   0.450  0.0040  0.3278  0.1435
    1W        W43172   2.467  24.675   0.510  0.1464 -0.2862  0.2112
    1W        W43173  10.274  12.239   7.214  0.1094  0.2948  0.0177
    1W        W43174  25.217  28.520   8.272  0.2298  0.0863 -0.1502
    1W        W43175   6.866   1.509   7.386 -0.2737 -0.1693 -0.1234
    1W        W43176  27.154  16.256   7.457 -0.0102  0.3963  0.1130
    1W        W43177  13.303  19.577   8.907 -0.0940 -0.1619  0.1045
    1W        W43178  19.887  12.706   1.303  0.1942 -0.0442  0.0329
    1W        W43179  18.048   3.926   0.193  0.4502  0.1389  0.2651
    1W        W43180  19.335  17.084   0.659  0.1088 -0.2570 -0.0858
    1W        W43181  28.984  28.141   9.122 -0.1470  0.0078  0.2165
    1W        W43182   2.616   5.597   8.485 -0.1220 -0.1324 -0.0624
    1W        W43183  28.719  15.829   1.277  0.2595  0.0150  0.1240
    1W        W43184  19.334  28.295   2.331  0.1446 -0.0501 -0.0307
    1W        W43185  18.325  16.657   0.721  0.1167  0.1263  0.2822
    1W        W43186   4.718   8.637   7.580 -0.1214 -0.1653 -0.1117
    1W        W43187   0.477  20.101   9.367 -0.2228 -0.0023 -0.5589
    1W        W43188   6.335  25.844   8.727  0.3813  0.1189  0.1996
    1W        W43189  27.906  24.595   7.484 -0.1158 -0.0245 -0.0269
    1W        W43190   4.156  23.885   6.540 -0.0776  0.1565 -0.1307
    1W        W43191   9.191   3.397   0.959 -0.1387  0.0072  0.1423
    1W        W43192   9.236  23.437   0.982 -0.1137  0.1480  0.2129
    1W        W43193   7.002   1.234   2.661  0.1158  0.2294 -0.2590
    1W        W43194   8.250   8.169   9.086 -0.0078  0.1640 -0.1613
    1W        W43195  11.589  22.689   0.008 -0.1594 -0.0606  0.0003
    1W        W43196   3.041  21.416   6.599 -0.3323 -0.0714 -0.2792
    1W        W43197  21.866   3.644   2.755  0.3087  0.1651 -0.0343
    1W        W43198  21.941   4.599   1.745  0.2284 -0.0487  0.0123
    1W        W43199  13.634  18.138   7.442  0.1223 -0.1663  0.0126
    1W        W43200  18.524  24.257   7.764 -0.0350  0.2629 -0.0650
    1W        W43201  21.207  28.820   9.324 -0.1938  0.2340  0.0521
    1W        W43202  16.501   6.488   1.906 -0.0703 -0.0469  0.0638
    1W        W43203   6.157  28.534   0.737  0.0604 -0.0602  0.0762
    1W        W43204   9.839  28.413   7.968  0.2673  0.1271  0.1151
    1W        W43205  14.280  21.078   8.507  0.3063 -0.1319 -0.0293
    1W        W43206   2.333   0.884   6.570  0.2275 -0.0376  0.1586
    1W        W43207  17.467  23.998   3.356  0.0369  0.0756  0.4337
    1W        W43208  13.522  25.413   1.530 -0.0608  0.0444 -0.2347
    1W        W43209   3.495   7.276   0.650  0.2659 -0.0236 -0.2455
    1W        W43210  25.273   0.934   9.032  0.0912  0.0526 -0.1736
    1W        W43211   1.408  21.208   9.156  0.1013 -0.0367 -0.0862
    1W        W43212   2.762  15.562   7.576  0.0992 -0.1765 -0.2156
    1W        W43213  20.697  21.010   7.834 -0.0567  0.0934  0.0233
    1W        W43214  28.456   3.961   0.381 -0.2919  0.3201 -0.2919
    1W        W43215   3.172  24.033   0.187  0.0409  0.0512  0.1501
    1W        W43216   5.828   2.562   2.990  0.1755 -0.2856  0.2172
    1W        W43217  13.381  22.732   8.839  0.2098  0.0415 -0.1935
    1W        W43218  26.103   4.719   2.146 -0.2187 -0.1920 -0.2066
    1W        W43219  10.425  21.347   9.304 -0.0251  0.0439  0.2427
    1W        W43220  13.758   0.188   1.650  0.0007  0.2880 -0.0977
    1W        W43221  20.458   2.250   8.339  0.3649  0.0269  0.2483
    1W        W43222  22.371  14.339   1.986 -0.1940  0.2150  0.2356
    1W        W43223  27.681  19.214   6.999  0.3053 -0.0192  0.0045
    1W        W43224  11.544   1.875   1.340  0.3226  0.0079 -0.0774
    1W        W43225  10.867   8.758   9.288 -0.0925 -0.2028 -0.1179
    1W        W43226   3.882   3.974   7.191  0.2081 -0.3008 -0.1319
    1W        W43227   8.298  18.863   6.927  0.2645 -0.0173  0.0768
    1W        W43228  17.656   8.111   0.179 -0.1902  0.0342 -0.2189
    1W        W43229  10.635   5.145   2.101 -0.1276  0.0132 -0.1415
    1W        W43230   9.495  27.474   2.100  0.0362  0.0807 -0.2488
    1W        W43231  15.438  19.548   0.331  0.3475  0.0687 -0.0577
    1W        W43232  19.218  15.574   8.684 -0.2467 -0.0115  0.3950
    1W        W43233   5.321  12.457   8.156 -0.0942 -0.3319  0.1677
    1W        W43234   4.674  23.847   1.199  0.0348 -0.2297  0.0552
    1W        W43235   1.491  29.302   8.152  0.0946  0.2224  0.0403
    1W        W43236  19.722  17.126   1.553  0.0070 -0.1391 -0.0977
    1W        W43237  23.963   2.758   1.901  0.1581 -0.3046  0.0098
    1W        W43238   0.768  11.446   2.852 -0.2068  0.1281  0.1283
    1W        W43239   0.893  25.962   7.895  0.1540 -0.0055  0.4298
    1W        W43240  10.383  18.461   7.454  0.1410 -0.1054 -0.0384
    1W        W43241  20.573  15.476   9.128  0.1204  0.1301  0.1979
    1W        W43242  29.404   4.818   8.791  0.1881 -0.0404  0.0968
    1W        W43243  19.862  18.254   0.596 -0.1245 -0.0701  0.2738
    1W        W43244  24.046  21.841   7.093  0.1814 -0.2191 -0.2187
    1W        W43245  12.500  19.127   1.642 -0.0528  0.2159  0.4637
    1W        W43246   3.076  17.132   6.098 -0.0184  0.0883 -0.0552
    1W        W43247  19.882   1.043   9.361 -0.0216  0.0801  0.0304
    1W        W43248  15.564  27.754   1.491  0.2074  0.1655 -0.2015
    1W        W43249  22.266   9.750   7.480 -0.2149  0.3909  0.2676
    1W        W43250  19.765  12.071   0.791 -0.0223  0.0018 -0.0318
    1W        W43251  24.132  10.221   1.798  0.0404 -0.3038  0.1678
    1W        W43252  14.756  11.490   2.306 -0.0084 -0.0744  0.0234
    1W        W43253  11.861  18.465   1.340  0.0265 -0.2363 -0.3132
    1W        W43254   5.774  11.220   6.737  0.1995 -0.1465  0.2115
    1W        W43255  29.519  20.932   0.353 -0.2921 -0.3942  0.2395
    1W        W43256  24.826  23.007   8.423 -0.1657 -0.0670  0.1405
    1W        W43257  12.470  15.175   6.768 -0.1580  0.0778  0.3097
    1W        W43258  16.884  26.036   7.597 -0.1248  0.3360 -0.2648
    1W        W43259  14.638  17.443   0.013 -0.1306  0.1403  0.0807
    1W        W43260  26.776  25.583   1.971 -0.1631  0.2988 -0.1896
    1W        W43261   9.785   5.367   0.988  0.0621 -0.2223  0.0119
    1W        W43262  17.712  20.452   8.328 -0.1514  0.3516 -0.2507
    1W        W43263  21.292  24.720   1.389  0.3106 -0.0845 -0.1105
    1W        W43264  12.554   5.298   8.750 -0.0282  0.2730 -0.2028
    1W        W43265  25.187   3.940   8.326  0.0355 -0.0204  0.0969
    1W        W43266  27.124  25.150   1.560  0.2582 -0.2389  0.0131
    1W        W43267  27.577  23.438   2.338  0.1694  0.0953  0.2878
    1W        W43268   0.345  18.728   0.482 -0.0991 -0.0544  0.0554
    1W        W43269  29.489   6.221   1.805  0.0285 -0.0530  0.0535
    1W        W43270   9.454  23.095   8.881  0.0334 -0.0802  0.1296
    1W        W43271  21.469  16.608   1.752  0.1567  0.1442 -0.1655
    1W        W43272   0.080   3.047   2.340 -0.0741 -0.3441 -0.0560
    1W        W43273  29.712  28.112   9.437 -0.1172  0.0853  0.0867
    1W        W43274   5.876  28.817   1.830  0.0701 -0.0771 -0.0749
    1W        W43275  25.652  12.135   6.478 -0.1991  0.2559 -0.2644
    1W        W43276  20.156  15.962   1.236  0.2475  0.2812  0.3606
    1W        W43277  20.150  28.466   3.359 -0.2788  0.2112 -0.2657
    1W        W43278   1.366  28.319   8.146  0.1226  0.2625 -0.1305
    1W        W43279  13.212   2.932   0.073  0.0934 -0.2571  0.3329
    1W        W43280   4.147  29.345   6.147 -0.1368 -0.0181 -0.1997
    1W        W43281  13.890   7.888   0.567 -0.1806  0.1737 -0.3902
    1W        W43282  25.131  16.844   0.941  0.1098 -0.0177 -0.5062
    1W        W43283  11.801   5.245   7.318  0.1617  0.2773 -0.0150
    1W        W43284   9.320  14.338   7.799  0.0119  0.1650  0.1236
    1W        W43285   0.114  28.022   6.832  0.1768  0.1953 -0.1584
    1W        W43286   3.280  12.099   0.749  0.1224 -0.3150  0.1225
    1W        W43287  24.200   3.544   9.267  0.2182 -0.3840 -0.0342
    1W        W43288  27.406   6.315   8.100 -0.0940 -0.0393 -0.0241
    1W        W43289  24.824  26.500   7.712 -0.2659  0.0831 -0.1731
    1W        W43290  12.149  27.173   7.227 -0.0414 -0.0704  0.0031
    1W        W43291  15.610   2.477   2.867  0.2084  0.1292  0.1478
    1W        W43292  28.167  10.448   9.417  0.0663 -0.2479  0.0358
    1W        W43293  10.920  21.641   1.900 -0.0054  0.3488  0.0962
    1W        W43294  22.992  27.812   0.440 -0.2548 -0.0096 -0.1447
    1W        W43295  21.493  25.235   0.057  0.1472  0.1262 -0.0098
    1W        W43296  16.251  16.370   0.800 -0.1118 -0.3609  0.0825
    1W        W43297   9.112   4.471   7.979 -0.0275  0.0519  0.0551
    1W        W43298  23.625  23.606   6.826  0.1906 -0.1993  0.0933
    1W        W43299   2.848  13.564   9.438  0.2475  0.1223  0.0139
    1W        W43300  18.204  25.643   2.443 -0.0153 -0.1457  0.1227
    1W        W43301   4.510  25.573   7.923  0.1506  0.0677  0.0567
    1W        W43302   4.679  15.509   2.840 -0.0479  0.1376  0.0871
    1W        W43303   4.183  29.280   0.709  0.0449 -0.2333 -0.0834
    1W        W43304   9.452  17.855   8.648 -0.0710  0.2002 -0.1481
    1W        W43305   4.512  14.699   0.036  0.0497 -0.4334 -0.0107
    1W        W43306   6.160  19.109   1.576 -0.2595  0.2731  0.1213
    1W        W43307  28.152   2.446   3.198  0.0084  0.1281  0.0262
    1W        W43308  18.884  16.407   7.268 -0.2682 -0.0541  0.1854
    1W        W43309  20.871   2.635   0.864 -0.3399 -0.1210  0.1633
    1W        W43310  19.764  16.168   9.235  0.0185 -0.1935 -0.0058
    1W        W43311   6.424  28.054   0.816  0.1045 -0.0603  0.0836
    1W        W43312   4.048   8.209   8.100 -0.3075 -0.2524 -0.0885
    1W        W43313  24.619  23.904   8.531 -0.2432 -0.0123 -0.6257
    1W        W43314  10.250   3.527   8.859  0.2624  0.2615 -0.2540
    1W        W43315  12.729  23.339   0.344  0.1102  0.0925 -0.1422
    1W        W43316   6.045  23.901   2.213  0.1852  0.1583  0.1363
    1W        W43317   9.896   2.381   2.837 -0.0910 -0.1528 -0.0221
    1W        W43318  10.497  28.633   7.168  0.3310 -0.0471 -0.1520
    1W        W43319  14.744  17.660   7.257  0.0856 -0.2564 -0.1664
    1W        W43320  24.251   0.547   1.821  0.1372 -0.2056 -0.0748
    1W        W43321  28.780  19.701   9.252  0.0291  0.1255 -0.1530
    1W        W43322  22.443  11.814   0.007  0.3726 -0.2184 -0.2041
    1W        W43323   5.311  10.802   7.492 -0.3255 -0.1470  0.0264
    1W        W43324  28.966  15.859   6.658  0.2927 -0.2195 -0.0183
    1W        W43325  17.681   9.936   6.788 -0.0667 -0.2349 -0.1470
    1W        W43326  24.940  15.051   7.639  0.1983 -0.0596  0.0995
    1W        W43327  17.104   7.098   7.114 -0.0188 -0.0357  0.0043
    1W        W43328   8.017  15.901   0.878 -0.0220 -0.0812  0.0790
    1W        W43329  20.440  19.160   2.241  0.1743  0.1634 -0.2101
    1W        W43330   0.410   6.567   7.023  0.1902 -0.0062 -0.1097
    1W        W43331  11.181   4.400   9.396 -0.0479  0.0311 -0.2207
    1W        W43332   3.183  24.620   8.373  0.2602  0.1940  0.1797
    1W        W43333  25.790  17.438   8.993  0.0431 -0.0794  0.0063
    1W        W43334  24.026  27.758   2.233  0.3044  0.4492 -0.2107
    1W        W43335  20.799  23.426   3.088 -0.0134 -0.1278  0.1044
    1W        W43336   1.722   1.392   7.964 -0.1772 -0.0736 -0.1977
    1W        W43337   0.916  10.596   6.771 -0.0701  0.0402 -0.1050
    1W        W43338  25.444   4.694   6.472 -0.0691 -0.2461 -0.0830
    1W        W43339  17.200  24.538   1.043 -0.1644 -0.3914  0.0210
    1W        W43340  23.519   8.249   0.943 -0.1015 -0.0333 -0.0085
    1W        W43341   9.369  11.090   1.844  0.0112  0.0963 -0.1814
    1W        W43342   1.904   2.195   0.903  0.0086  0.0761 -0.3451
    1W        W43343   5.492  25.437   2.664  0.1121 -0.0346  0.0068
    1W        W43344   1.241   8.607   2.540  0.0376 -0.0942 -0.1208
    1W        W43345   4.236   9.199   2.056  0.1834 -0.0616 -0.0872
    1W        W43346  10.457   9.314   2.617  0.0247  0.0555 -0.5089
    1W        W43347  22.521  17.345   0.600  0.3167  0.2579 -0.0682
    1W        W43348  29.363  16.476   1.894 -0.1022  0.1414  0.0499
    1W        W43349   3.155   6.153   7.405  0.1616 -0.1421  0.1405
    1W        W43350  11.139  18.636   8.132  0.3554  0.0484  0.2132
    1W        W43351  13.678  22.911   1.662  0.0983  0.0524  0.1183
    1W        W43352   1.203   7.172   7.245  0.0470  0.2970 -0.0233
    1W        W43353  11.513  27.865   9.433  0.1088  0.3886 -0.0752
    1W        W43354  12.596   5.224   0.480  0.0566  0.2441  0.2123
    1W        W43355   9.737  22.119   2.015 -0.0379  0.1026 -0.1200
    1W        W43356  11.327   2.426   0.654  0.0100 -0.3146  0.1247
    1W        W43357  17.532  19.017   8.122  0.1398  0.0822 -0.2069
    1W        W43358  13.274   8.584   7.480  0.0444  0.0020  0.0249
    1W        W43359  28.520  20.745   6.376 -0.0455 -0.2492 -0.2468
    1W        W43360  29.023  21.089   0.470  0.1818  0.0888 -0.3354
    1W        W43361   0.576   4.865   1.427 -0.0040 -0.1136  0.2908
    1W        W43362  14.576   5.585   1.821 -0.1412 -0.4028  0.2982
    1W        W43363  10.551   6.695   8.068  0.0037 -0.0844 -0.0214
    1W        W43364  28.662   0.690   9.206 -0.1419 -0.2084 -0.2323
    1W        W43365   2.133  12.966   7.092  0.1136  0.0277 -0.2308
    1W        W43366   5.920   6.321   0.065 -0.0443  0.2801  0.0210
    1W        W43367  15.601  29.765   2.678 -0.0055 -0.1530 -0.1649
    1W        W43368  23.372  25.317   0.977  0.0029  0.0617 -0.2809
    1W        W43369  25.377  12.301   7.548 -0.1517 -0.3661  0.0613
    1W        W43370   6.942  22.055   0.590  0.0676  0.4103  0.1688
    1W        W43371   3.947  20.281   8.246  0.3153 -0.0476 -0.1027
    1W        W43372  16.357   0.709   7.205  0.0454  0.4135  0.0448
    1W        W43373   2.545  15.968   7.877 -0.1244 -0.1396 -0.1326
    1W        W43374  26.369   9.839   7.809  0.0699 -0.3850  0.0251
    1W        W43375  25.745  23.529   8.559 -0.3063 -0.0412 -0.1423
    1W        W43376  11.535  26.824   2.793  0.0158  0.0793  0.1497
    1W        W43377  23.621   9.051   7.219 -0.0647  0.2590 -0.1108
    1W        W43378   2.318  13.263   0.788  0.3091 -0.0285  0.1165
    1W        W43379  20.739  28.210   2.231  0.0834 -0.1894 -0.0421
    1W        W43380  26.387   0.030   0.190 -0.0358 -0.0530 -0.1467
    1W        W43381   1.776  27.311   6.632  0.1152 -0.0923  0.3278
    1W        W43382   9.320  23.098   2.035 -0.1275  0.0872  0.1311
    1W        W43383   1.019   0.780   0.349  0.1162 -0.0267 -0.0109
    1W        W43384   2.796  27.206   2.005 -0.1075 -0.1443  0.1780
    1W        W43385   4.806  19.140   2.442  0.0231 -0.1514  0.3277
    1W        W43386   7.642  13.482   7.414 -0.4082 -0.2538  0.0283
    1W        W43387  15.442  21.519   0.225 -0.2536  0.0812  0.0569
    1W        W43388  22.736  25.001   1.836 -0.0194  0.1860 -0.1774
    1W        W43389  25.740   5.882   1.982  0.0567 -0.0709 -0.1656
    1W        W43390  19.535   2.596   1.733  0.2387 -0.0908  0.0382
    1W        W43391  27.540  12.869   9.158  0.3045  0.2015 -0.2472
    1W        W43392   7.550  19.128   0.977  0.1338  0.2467  0.1674
    1W        W43393  29.753  27.783   3.110 -0.1826 -0.3201 -0.2089
    1W        W43394   1.337   7.049   2.589 -0.0316  0.4163 -0.2543
    1W        W43395  20.357   3.894   2.583  0.1353  0.0241  0.3141
    1W        W43396   7.460   0.524   1.438  0.0746  0.0084 -0.2632
    1W        W43397  13.104  27.291   2.512 -0.0829 -0.0213  0.0751
    1W        W43398   6.372  28.238   8.812 -0.0885 -0.0956 -0.1433
    1W        W43399   8.001  14.410   1.158 -0.2081 -0.0200  0.0926
    1W        W43400  16.819  28.650   2.850 -0.0864  0.0869  0.0151
    1W        W43401  14.636  25.570   7.845 -0.1672  0.0423  0.0263
    1W        W43402   6.983  18.338   2.129  0.0583  0.2854 -0.0004
    1W        W43403   5.236  11.358   3.158  0.1786  0.0893  0.0310
    1W        W43404   5.289  22.696   2.718  0.0589  0.3262 -0.0145
    1W        W43405   8.672  24.277   7.897 -0.1399 -0.0922  0.2259
    1W        W43406   2.674  15.620   7.113 -0.2547 -0.0443 -0.1360
    1W        W43407   0.089   4.075   8.978  0.0422  0.1094 -0.2086
    1W        W43408   4.972   1.355   8.419 -0.0801 -0.0398 -0.0403
    1W        W43409  26.118   6.288   1.190 -0.1593  0.2125 -0.2380
    1W        W43410  17.594  28.495   1.116  0.0842 -0.1341  0.3568
    1W        W43411  26.878  25.557   7.207  0.3165  0.1867  0.0164
    1W        W43412   0.651  17.888   0.523  0.0258  0.0576  0.1152
    1W        W43413   5.967   3.590   8.998 -0.0695 -0.1350 -0.0992
    1W        W43414   7.737  26.629   6.689 -0.0409 -0.1695  0.1107
    1W        W43415  14.999  17.263   6.927  0.1282 -0.1122  0.2193
    1W        W43416   4.345   4.194   7.198 -0.1195  0.0836 -0.2535
    1W        W43417   8.534  10.723   6.707  0.1722 -0.2044  0.2722
    1W        W43418  14.774  29.519   8.443 -0.2352  0.2472 -0.1124
    1W        W43419  22.225   4.332   8.978  0.2715  0.1368  0.0623
    1W        W43420  28.862   7.215   2.479  0.3580  0.0821  0.0269
    1W        W43421  11.552  28.871   1.731  0.1305 -0.1889  0.1582
    1W        W43422   5.604  10.657   8.936  0.1465 -0.0539 -0.1687
    1W        W43423   0.178  14.705   6.881  0.3245  0.0168  0.0878
    1W        W43424   0.134   0.123   3.173 -0.0135  0.3061  0.1268
    1W        W43425  15.018  27.080   9.142  0.0923  0.1463 -0.1920
    1W        W43426  21.204   2.989   1.029  0.2497 -0.2655  0.2636
    1W        W43427   3.406  27.371   2.063 -0.0422 -0.4151 -0.0358
    1W        W43428  23.022  13.454   8.742 -0.0255 -0.0344 -0.3500
    1W        W43429   6.865   8.293   1.570  0.3172  0.1062  0.1201
    1W        W43430  27.598   5.112   1.915  0.0743  0.1403  0.0948
    1W        W43431  21.024   3.703   1.280 -0.0440  0.2021  0.2349
    1W        W43432   2.280   3.418   0.032  0.1595  0.1217 -0.0663
    1W        W43433  13.889   4.645   8.007  0.0842  0.0858  0.2607
    1W        W43434   3.358  13.278   7.403  0.1701 -0.0472  0.1584
    1W        W43435   4.734  17.296   7.434 -0.2581  0.0810  0.1747
    1W        W43436  23.755  23.156   8.963  0.0137 -0.1091 -0.1258
    1W        W43437  21.395  19.424   9.400  0.2450  0.0816  0.2790
    1W        W43438  10.529  21.470   1.645 -0.2380 -0.1194  0.1234
    1W        W43439   3.629  22.834   9.222  0.1337 -0.2574  0.1922
    1W        W43440  21.989   7.788   2.089 -0.0237  0.1488 -0.0504
    1W        W43441  16.360  17.176   1.957  0.1231  0.0169 -0.2799
    1W        W43442  17.692  25.652   9.077 -0.1787  0.1461 -0.1606
    1W        W43443  29.366  15.795   0.689 -0.1318  0.0736  0.0575
    1W        W43444  18.842  22.616   2.534  0.0308  0.2405 -0.0913
    1W        W43445   8.869  26.433   0.101 -0.1629  0.2520 -0.0730
    1W        W43446  28.921   3.677   1.075 -0.0261 -0.0155 -0.1221
    1W        W43447  22.600   8.817   8.378  0.0995 -0.4421  0.1853
    1W        W43448   7.631  25.124   8.406 -0.0321 -0.1996 -0.1931
    1W        W43449  13.258  10.792   7.450  0.0976  0.2307 -0.0015
    1W        W43450  27.666  27.008   1.881  0.0961 -0.3232  0.2039
    1W        W43451   4.593   5.266   2.134  0.3477 -0.2418  0.1557
    1W        W43452  11.577  24.033   0.593  0.1165 -0.0289  0.1002
    1W        W43453   8.336   9.281   0.387  0.0387 -0.2428  0.0569
    1W        W43454   0.713  12.342   6.547  0.1135 -0.0407 -0.2797
    1W        W43455  27.460  18.312   9.096 -0.1730 -0.1346 -0.2866
    1W        W43456  21.304  16.880   7.141  0.4524  0.0806  0.1435
    1W        W43457   6.556  12.957   2.352 -0.2206 -0.2401 -0.0632
    1W        W43458  12.192  15.998   0.744  0.0494 -0.0119  0.2108
    1W        W43459  16.985   2.367   7.696  0.1078  0.4263  0.1855
    1W        W43460  27.589   4.124   1.244 -0.3724 -0.1494  0.0891
    1W        W43461   2.309  26.624   6.652  0.1136 -0.0150 -0.0470
    1W        W43462   9.714  22.360   7.127 -0.0215  0.0105  0.0350
    1W        W43463  10.127  13.336   0.965  0.0902 -0.0121  0.0644
    1W        W43464   7.305  18.058   2.815  0.0296  0.0464 -0.0934
    1W        W43465  19.452   1.660   2.982  0.2838  0.0626 -0.0356
    1W        W43466  26.774  29.233   0.877 -0.1002 -0.0986  0.0934
    1W        W43467  25.646  20.017   2.848 -0.1606  0.1954  0.1381
    1W        W43468  20.391   8.734   0.687  0.0622 -0.3526  0.2452
    1W        W43469   4.829   4.135   8.142 -0.0317  0.0354  0.0710
    1W        W43470  15.632  23.072   6.348  0.1723 -0.1628  0.0814
    1W        W43471  15.090  26.211   8.635  0.0782  0.1593  0.0607
    1W        W43472  25.934  11.052   2.180 -0.0313 -0.0827  0.4423
    1W        W43473  19.444  23.718   0.855  0.2137  0.0344 -0.3304
    1W        W43474  27.515  25.250   2.385  0.2579  0.1397 -0.0702
    1W        W43475   6.206  12.604   9.100 -0.2274  0.0348  0.1093
    1W        W43476  10.834   3.496   0.467  0.1957  0.0321  0.1499
    1W        W43477  22.273  29.881   2.465  0.0063 -0.1747 -0.1324
    1W        W43478   0.968  17.430   1.610 -0.0473 -0.0364 -0.3031
    1W        W43479   3.748  15.567   8.504 -0.0343 -0.2133 -0.4797
    1W        W43480  10.923  27.800   3.538 -0.0084  0.1668 -0.1068
    1W        W43481  28.475   3.952   7.666  0.1412  0.1379 -0.1315
    1W        W43482   2.578  25.844   6.853 -0.1590  0.0549  0.1171
    1W        W43483   6.588  25.444   5.997 -0.2261  0.2883 -0.1554
    1W        W43484  26.269   9.137   0.763  0.0576  0.1991 -0.2837
    1W        W43485  28.847  25.099   2.227 -0.2331  0.0084  0.1476
    1W        W43486  23.732  28.599   7.314 -0.0499 -0.0125  0.0687
    1W        W43487  20.021  16.515   1.164  0.2788  0.1113 -0.5641
    1W        W43488   4.783  24.033   6.967 -0.1695 -0.0967  0.0586
    1W        W43489  12.929  20.463   8.990 -0.3607  0.1512 -0.1041
    1W        W43490  11.180  15.267   7.419 -0.0564  0.1506  0.2646
    1W        W43491  28.163  22.620   0.950 -0.1562  0.2024 -0.1380
    1W        W43492  21.820  26.789   8.655  0.1490  0.3960  0.0202
    1W        W43493  13.447  24.211   7.171 -0.2425  0.1578 -0.0554
    1W        W43494  17.323  15.277   1.220  0.0940 -0.4758 -0.0421
    1W        W43495  12.332  11.816   8.816  0.3059 -0.0759 -0.2055
    1W        W43496  14.949  22.564   1.901 -0.2246  0.3153  0.0523
    1W        W43497  25.938  12.558   8.160  0.1969  0.3707  0.1960
    1W        W43498   5.203   8.943   8.840  0.0417  0.0483 -0.1089
    1W        W43499   4.265   3.671   7.016 -0.0407  0.0471 -0.0542
    1W        W43500   9.546  16.844   7.451  0.1023 -0.1090 -0.3747
    1W        W43501   4.103  26.473   8.263 -0.1659 -0.0532  0.1449
    1W        W43502   2.885  29.153   2.385  0.1100 -0.0536 -0.0270
    1W        W43503  23.652  12.468   9.104 -0.1160 -0.0622 -0.1444
    1W        W43504   0.342  18.280   8.517 -0.2501  0.1994  0.0685
    1W        W43505   3.653  10.202   6.360 -0.3595 -0.1170 -0.0151
    1W        W43506  17.251  18.020   1.021 -0.1954 -0.2138  0.2510
    1W        W43507  11.937  28.997   1.203  0.1302 -0.2053  0.0269
    1W        W43508  18.673  24.805   2.188  0.0433 -0.1326  0.1734
    1W        W43509  16.770  16.836   1.951 -0.0517  0.1384  0.0659
    1W        W43510  14.861   7.324   7.339 -0.1316 -0.0096 -0.1121
    1W        W43511   5.328   3.214   7.765 -0.2439  0.0307 -0.3502
    1W        W43512  19.419  28.832   3.145 -0.0951  0.3434 -0.1229
    1W        W43513  24.705   3.766   8.349 -0.4137  0.0532  0.0157
    1W        W43514   7.911   2.141   7.055 -0.0261  0.0021  0.1267
    1W        W43515   5.821   3.987   2.837 -0.5252  0.1002  0.0265
    1W        W43516   7.554  11.652   7.874 -0.1125 -0.1049 -0.1570
    1W        W43517   6.318  12.944   0.524 -0.1955  0.1309 -0.0848
    1W        W43518  16.476  24.455   1.715 -0.0190  0.1171  0.0436
    1W        W43519  25.219  25.030   8.875 -0.0663 -0.0062  0.1551
    1W        W43520  28.759  26.894   2.398 -0.2793  0.1439 -0.0874
    1W        W43521  14.782  28.701   1.445 -0.2251  0.0463 -0.2042
    1W        W43522  21.981   1.432   2.261  0.1670  0.0548 -0.0316
    1W        W43523  15.927  28.037   1.633 -0.2250  0.1736  0.0962
    1W        W43524   4.011   9.446   1.547  0.0583 -0.2389 -0.0743
    1W        W43525  12.875  29.438   1.169 -0.0910 -0.1502 -0.0120
    1W        W43526   8.014   4.923   2.298 -0.4522 -0.2338  0.3190
    1W        W43527  25.964  21.455   7.716  0.3521 -0.2762  0.0461
    1W        W43528  28.563  25.521   1.840 -0.0413  0.0864  0.1925
    1W        W43529  21.511  21.907   2.623 -0.1279  0.1920 -0.0507
    1W        W43530   7.000  20.808   6.818  0.0104 -0.1691  0.1708
    1W        W43531  18.003   0.130   2.089  0.4030  0.0398  0.2742
    1W        W43532  15.329   5.247   7.705  0.3564  0.1830  0.1356
    1W        W43533  18.332  19.731   1.625 -0.0883 -0.0854 -0.2838
    1W        W43534   1.592  23.758   8.434  0.0919  0.0355  0.1257
    1W        W43535   9.101  23.564   6.873  0.1332  0.1710 -0.1475
    1W        W43536  21.837  17.155   0.121  0.2019  0.0876  0.0017
    1W        W43537  26.392  21.348   6.413  0.0286 -0.0588 -0.2262
    1W        W43538  29.139   7.136   9.333  0.0254 -0.3571  0.3067
    1W        W43539  13.959   5.036   2.292  0.1603 -0.1293  0.0161
    1W        W43540  19.475  24.414   7.283 -0.2061  0.0826  0.2452
    1W        W43541   0.545   5.041   7.904 -0.2012 -0.0754 -0.0994
    1W        W43542   0.769  11.043   0.741  0.1133  0.3613  0.2785
    1W        W43543  17.145  11.762   8.287 -0.2529 -0.3462  0.1894
    1W        W43544   0.337  25.848   1.331 -0.1996  0.0146  0.2658
    1W        W43545  16.482   7.752   7.242  0.0193 -0.2909 -0.1313
    1W        W43546   3.362  27.320   8.368  0.0908  0.1542 -0.0333
    1W        W43547   3.887   4.019   9.044  0.0292 -0.0343 -0.0656
    1W        W43548  21.984  18.690   9.101 -0.0016  0.1955 -0.0250
    1W        W43549  22.795   6.852   2.321 -0.0182 -0.0370  0.4213
    1W        W43550   3.250  18.074   0.630 -0.2231 -0.1260  0.1640
    1W        W43551  29.512   5.568   7.841  0.0400  0.0715  0.0904
    1W        W43552  21.406  20.284   0.813  0.1239  0.2357 -0.2991
    1W        W43553   6.149  15.337   1.769 -0.2226  0.1044  0.0592
    1W        W43554  21.609  20.022   7.704  0.4106 -0.1027 -0.0486
    1W        W43555  11.020   6.277   7.837 -0.0466  0.0460  0.2351
    1W        W43556  13.231   4.716   1.806 -0.1269 -0.0520  0.0531
    1W        W43557   6.183  22.537   1.076 -0.3176 -0.1642  0.0731
    1W        W43558   2.572   0.554   8.917  0.0908 -0.0127 -0.0865
    1W        W43559   1.455  20.116   6.471  0.4740  0.1840  0.0513
    1W        W43560  12.455   4.348   0.258  0.0174  0.0952  0.1402
    1W        W43561  27.594   1.993   0.336 -0.1117  0.0547  0.1004
    1W        W43562  10.798  24.989   6.994 -0.1010  0.2059  0.2634
    1W        W43563  21.287   8.212   2.152 -0.1068 -0.2165 -0.1186
    1W        W43564  27.130  29.257   9.138  0.1358  0.0742 -0.0459
    1W        W43565  20.190   1.612   7.597 -0.0979 -0.2437 -0.0633
    1W        W43566   7.534  26.785   0.817 -0.0162 -0.1702 -0.1742
    1W        W43567   8.139   8.130   1.849  0.1335  0.1864  0.1084
    1W        W43568  16.876  19.784   0.860  0.2450  0.1886  0.0466
    1W        W43569  10.768   2.680   3.131  0.2821  0.1927 -0.0758
    1W        W43570  29.899   3.337   8.195  0.3264 -0.2166 -0.2091
    1W        W43571  29.279  28.905   1.815 -0.1024  0.2554  0.0565
    1W        W43572   1.952  23.168   5.930  0.1271  0.1122 -0.3360
    1W        W43573   9.185  19.716   7.453  0.0536  0.0842 -0.1920
    1W        W43574  11.426  23.051   0.355 -0.1204 -0.0130 -0.0456
    1W        W43575  27.778  11.366   5.725  0.1746  0.0194  0.1771
    1W        W43576  25.216   9.133   8.089 -0.2749 -0.0869  0.2479
    1W        W43577  18.915  29.117   2.272 -0.0082  0.1386 -0.1141
    1W        W43578  25.438  19.553   2.871 -0.3259  0.0087 -0.3081
    1W        W43579   9.906   3.326   8.549  0.0704  0.0596 -0.2708
    1W        W43580   1.321  28.908   8.435 -0.1256  0.2714 -0.0044
    1W        W43581  16.599   5.399   6.583  0.0807 -0.2496 -0.1129
    1W        W43582  27.938  23.747   1.489 -0.0639 -0.0028 -0.2442
    1W        W43583  14.983  18.231   0.998 -0.0130 -0.0541  0.1824
    1W        W43584   4.113   3.834   0.444 -0.3709  0.2478  0.1842
    1W        W43585   9.100  24.754   2.143  0.0454  0.2429 -0.1934
    1W        W43586   2.231   2.729   2.549 -0.1900 -0.0101 -0.0351
    1W        W43587   8.104  10.735   2.849 -0.0099 -0.1284 -0.2163
    1W        W43588  17.626  19.772   7.325 -0.0130  0.0947 -0.0852
    1W        W43589   6.453  17.939   0.180 -0.1964 -0.0471 -0.2283
    1W        W43590  12.368   6.319   8.565  0.0484  0.3030  0.0721
    1W        W43591   9.659  12.523   0.047 -0.2645 -0.1616  0.0633
    1W        W43592  10.456  25.499   0.341 -0.2469  0.0233 -0.2330
    1W        W43593   5.612  13.906   7.712  0.0262  0.1814  0.0534
    1W        W43594  17.281   9.823   1.479  0.1441 -0.1193  0.0935
    1W        W43595   7.086  12.376   0.712  0.0639  0.1187 -0.0742
    1W        W43596  17.241  15.552   9.001 -0.0604 -0.1139  0.1456
    1W        W43597  11.652  26.843   7.225 -0.0715 -0.0320  0.0625
    1W        W43598   2.677  19.095   6.933 -0.0296 -0.0628  0.2668
    1W        W43599  28.223   1.044   7.105 -0.0955  0.0078  0.3273
    1W        W43600  23.939  29.869   2.085  0.0632  0.0427  0.2486
    1W        W43601  12.990  13.679   8.252  0.0829  0.1228 -0.3225
    1W        W43602   6.760   0.151   0.632  0.1937 -0.0021 -0.0404
    1W        W43603  25.404   1.603   8.395 -0.0349  0.0201  0.3781
    1W        W43604  23.504   9.550   0.648 -0.1326 -0.0426  0.1805
    1W        W43605  18.888   0.595   8.342  0.0859  0.1818 -0.2320
    1W        W43606  19.035  27.965   8.118 -0.2860 -0.0748  0.0306
    1W        W43607  18.948  11.500   1.029 -0.1062  0.2371 -0.2119
    1W        W43608  24.394   4.130   8.291  0.1385 -0.1953  0.1736
    1W        W43609  21.574  16.517   7.964  0.0787  0.2175 -0.2427
    1W        W43610  26.667   7.781   0.906  0.0200  0.2326 -0.2939
    1W        W43611  23.068   0.609   9.096 -0.0129 -0.0763 -0.2730
    1W        W43612   7.225   2.809   7.571  0.1393  0.4096  0.1996
    1W        W43613   0.056  15.027   1.049 -0.1176 -0.1482 -0.1093
    1W        W43614  14.364  10.408   0.271  0.1491  0.1991  0.3372
    1W        W43615   7.299  28.516   7.193 -0.0602  0.0715  0.1719
    1W        W43616   4.260  13.138   8.132  0.3266  0.0834  0.0667
    1W        W43617  18.002  28.627   2.215  0.2696 -0.2061  0.0113
    1W        W43618   5.749   3.960   0.567  0.1463 -0.5362  0.0183
    1W        W43619   6.419   3.732   8.807 -0.0307 -0.1640  0.0999
    1W        W43620  29.035  16.401   7.464 -0.3667 -0.0669 -0.2236
    1W        W43621   4.943   8.405   7.991 -0.2322 -0.2038 -0.0876
    1W        W43622   7.111  25.616   7.160  0.1732 -0.0987  0.1446
    1W        W43623  11.248  14.787   1.594  0.0890 -0.2273 -0.0482
    1W        W43624   8.519  24.232   0.345 -0.2057  0.2504  0.0228
    1W        W43625  29.280   1.884   9.007 -0.0264 -0.2350  0.1558
    1W        W43626   5.118  28.985   7.447  0.0236  0.0577  0.0310
    1W        W43627  16.852  14.565   8.165  0.1749 -0.3822 -0.2623
    1W        W43628  15.274  23.445   0.093  0.1675  0.0055 -0.1038
    1W        W43629   9.464  10.324   9.366 -0.0588 -0.3435  0.4347
    1W        W43630  17.565   3.917   7.342 -0.1519  0.2354  0.0580
    1W        W43631  12.912  24.342   1.478  0.1213  0.3567  0.1446
    1W        W43632   3.394   6.880   0.358  0.0611 -0.0758  0.2776
    1W        W43633   6.210  20.828   6.862  0.1329 -0.1124  0.4092
    1W        W43634  20.823   4.515   7.304  0.0933  0.0385 -0.1318
    1W        W43635  14.967  22.256   8.092  0.0922  0.0835  0.2039
    1W        W43636  13.966   8.021   2.025 -0.2298 -0.3705  0.1053
    1W        W43637  23.476  13.524   9.042 -0.0881 -0.0810 -0.3201
    1W        W43638  23.835  25.494   9.407  0.0745 -0.0678  0.1084
    1W        W43639  14.183  26.121   1.149 -0.0588 -0.0640  0.2487
    1W        W43640  26.123  22.629   0.173 -0.0621  0.0010  0.4889
    1W        W43641  26.967  29.702   7.969 -0.1105 -0.0288  0.1177
    1W        W43642  24.611  27.682   0.457 -0.1167  0.1512  0.0391
    1W        W43643   5.837  15.495   6.368  0.1133 -0.1245  0.3653
    1W        W43644   4.677  23.169   6.641 -0.2121 -0.2718  0.1481
    1W        W43645  17.944  23.477   0.465 -0.1272  0.0152 -0.1868
    1W        W43646  21.477  15.168   1.510  0.3525  0.0701 -0.3666
    1W        W43647  24.333  25.325   3.628 -0.0220 -0.3160 -0.0571
    1W        W43648  24.301  22.137   2.210 -0.2463 -0.0303 -0.0286
    1W        W43649   5.677   0.804   1.921  0.1163 -0.0510  0.1101
    1W        W43650  13.474  25.319   2.036 -0.2509  0.0274 -0.0965
    1W        W43651  18.888  13.946   8.430 -0.3700  0.0406  0.1417
    1W        W43652  18.618  23.588   2.153 -0.1723  0.0799  0.0320
    1W        W43653   2.218  21.686   7.995 -0.0688  0.0499 -0.4056
    1W        W43654   4.037  16.573   2.322 -0.1558  0.0741  0.3436
    1W        W43655   3.651  27.157   6.301  0.0081  0.0983  0.1304
    1W        W43656  23.963   6.173   1.913  0.1831  0.0541 -0.1263
    1W        W43657  10.125  11.430   0.104 -0.2843 -0.2122  0.0315
    1W        W43658  25.852  23.344   0.806 -0.0143 -0.4667 -0.3795
    1W        W43659  22.926   9.745   1.979 -0.1400 -0.2510 -0.1077
    1W        W43660   7.775  15.144   6.109  0.0393  0.0215  0.0582
    1W        W43661   7.105  21.823   5.772  0.0230 -0.0333  0.3149
    1W        W43662  10.513  23.412   6.111 -0.2708  0.1813  0.0215
    1W        W43663   2.483  16.340   8.235 -0.1166  0.2173  0.1724
    1W        W43664  24.284  11.240   0.957  0.0181  0.0822 -0.2010
    1W        W43665  24.547  19.322   0.383  0.3542 -0.0744  0.0250
    1W        W43666  11.906  16.216   1.804  0.0978  0.3406 -0.0665
    1W        W43667  14.625   6.782   1.671 -0.4517  0.4089 -0.0093
    1W        W43668  11.556   8.726   7.684 -0.1790  0.1526  0.1319
    1W        W43669  26.738  29.247   2.287  0.0981 -0.0354 -0.0196
    1W        W43670  13.383   4.061   8.893  0.0726  0.1795  0.1308
    1W        W43671  12.250  13.185   6.753 -0.1280  0.0442  0.1604
    1W        W43672  25.881  27.338   0.820 -0.2590  0.2551 -0.3181
    1W        W43673  19.775  14.834   1.323  0.2030  0.1918  0.1119
    1W        W43674  14.149   7.721   8.054 -0.2394  0.2225  0.0532
    1W        W43675  17.513   7.005   1.708  0.2197 -0.1371  0.2786
    1W        W43676   1.662  23.035   1.299 -0.1394  0.2105  0.2030
    1W        W43677  20.192  17.997   9.253 -0.2221  0.1960 -0.2088
    1W        W43678  15.791  15.504   0.497 -0.0686 -0.2529 -0.1383
    1W        W43679  18.867  20.017   8.508  0.0637 -0.0708 -0.0364
    1W        W43680  14.725   9.067   7.212  0.0441  0.3220 -0.0954
    1W        W43681  12.909   5.499   8.963 -0.3114 -0.4130  0.1396
    1W        W43682   9.785  27.920   8.280 -0.0940 -0.2072  0.1375
    1W        W43683  12.651   3.216   2.267  0.1918  0.2002  0.1005
    1W        W43684  28.520  22.978   6.502  0.0506 -0.0020 -0.1166
    1W        W43685  22.329   7.401   1.269 -0.1906 -0.0865  0.1134
    1W        W43686   1.352  13.077   1.583  0.0627 -0.1175  0.2330
    1W        W43687  27.889  17.079   6.885  0.2238 -0.1222 -0.1375
    1W        W43688  29.214  27.368   1.830 -0.1691  0.0496  0.1911
    1W        W43689  21.551  29.842   1.603 -0.0340 -0.1687 -0.1251
    1W        W43690  16.000  20.085   0.692 -0.2730 -0.0685 -0.2419
    1W        W43691  23.627  20.353   0.365 -0.0136  0.0223  0.3755
    1W        W43692  29.485  19.247   0.478 -0.0896 -0.1463 -0.1646
    1W        W43693   3.237  20.409   0.855  0.0015  0.1005  0.0836
    1W        W43694   7.040  16.889   1.663  0.0004  0.0059  0.1071
    1W        W43695   8.049  17.237   2.162 -0.0673  0.1273  0.2684
    1W        W43696  19.924   7.374   2.381  0.1006 -0.2590 -0.2275
    1W        W43697   9.821  15.688   1.060 -0.0625  0.1009  0.0053
    1W        W43698   3.101   8.816   2.685  0.2489 -0.1633 -0.4442
    1W        W43699   7.471   7.724   3.123 -0.0185 -0.0626  0.2633
    1W        W43700   2.180  12.376   8.434  0.1647  0.1865 -0.0485
    1W        W43701  29.030  28.563   2.160  0.0528  0.1081 -0.2387
    1W        W43702  27.216   6.817   8.039 -0.2222  0.2371 -0.1422
    1W        W43703  20.132  23.363   1.885  0.3266 -0.1433 -0.0053
    1W        W43704  20.275   2.268   6.853 -0.0307 -0.0297 -0.2458
    1W        W43705  23.950   6.874   2.703  0.2042  0.0742  0.1255
    1W        W43706  18.301  27.428   7.240 -0.1215  0.0838  0.1694
    1W        W43707  29.735  14.430   9.099  0.0733 -0.2739 -0.0810
    1W        W43708  24.867  20.544   1.235  0.0773 -0.1679  0.1801
    1W        W43709  28.066  24.172   1.975 -0.2808  0.0858 -0.0722
    1W        W43710  25.579  28.853   8.302 -0.0123 -0.0264 -0.0996
    1W        W43711   2.816   5.140   3.022 -0.0332  0.1085 -0.2106
    1W        W43712  19.051  12.767   6.872 -0.0560  0.1952  0.2227
    1W        W43713  21.480  16.761   2.259 -0.1203  0.2458  0.1216
    1W        W43714  17.468  13.400   7.658  0.1521  0.2075  0.1580
    1W        W43715  17.332   0.895   1.415 -0.3251 -0.3221  0.1605
    1W        W43716   9.614  18.650   1.533 -0.1248 -0.0025 -0.0299
    1W        W43717   0.169  24.349   5.771 -0.0607  0.2021  0.0049
    1W        W43718  28.587  20.215   7.551 -0.0765  0.3922  0.0054
    1W        W43719   3.263  11.841   7.973  0.2472 -0.1706 -0.1966
    1W        W43720  19.677   4.493   0.468 -0.0469 -0.4438 -0.0962
    1W        W43721   9.569   0.487   2.786  0.0214 -0.2951 -0.1675
    1W        W43722  19.026  15.817   0.317 -0.0009  0.0941  0.1908
    1W        W43723   0.092   1.896   6.947 -0.1548  0.0803  0.0822
    1W        W43724   3.852  14.230   0.558 -0.1660 -0.3229 -0.1550
    1W        W43725  18.393  28.882   7.043 -0.3178  0.0756 -0.1695
    1W        W43726  23.182   1.851   8.730  0.0900 -0.1955  0.0220
    1W        W43727   0.534  22.979   2.052 -0.5916 -0.1237  0.3349
    1W        W43728  12.431   1.448   6.848 -0.3227 -0.1688 -0.3694
    1W        W43729  11.499  10.848   1.698  0.1752  0.4108  0.1684
    1W        W43730  27.175   0.841   1.136  0.0867 -0.0914  0.1936
    1W        W43731  22.961   3.979   9.394  0.2947 -0.0523 -0.0179
    1W        W43732   0.427  22.981   1.313 -0.1044 -0.1048 -0.1919
    1W        W43733   3.057  11.237   6.593 -0.2849 -0.0780 -0.1120
    1W        W43734  22.067  23.030   0.666  0.0157  0.0762  0.3309
    1W        W43735  28.562  11.981   1.199 -0.2383  0.4647  0.2050
    1W        W43736  18.766  18.704   8.193 -0.0068  0.0514  0.1083
    1W        W43737  23.064   3.500   0.087 -0.2454  0.2064  0.1163
    1W        W43738  11.816  14.399   8.508  0.0094  0.0948 -0.0833
    1W        W43739   7.006  24.900   8.907 -0.0507  0.3121 -0.2920
    1W        W43740  28.952   8.930   1.308 -0.4476  0.0083  0.2377
    1W        W43741   5.535  14.033   2.140 -0.0342  0.2665  0.1159
    1W        W43742   7.962  19.999   1.766 -0.1110 -0.1125 -0.2050
    1W        W43743  18.220   2.533   9.368  0.1214  0.0495 -0.1333
    1W        W43744  21.969  18.050   7.202 -0.0571  0.2372 -0.0734
    1W        W43745  22.535   8.229   0.910  0.1409 -0.0438 -0.1261
    1W        W43746  22.832  17.873   8.885 -0.1676  0.0152 -0.0290
    1W        W43747  21.741   4.397   2.607 -0.2189 -0.2296 -0.1545
    1W        W43748  12.582  24.372   7.136 -0.1519  0.1293 -0.0175
    1W        W43749  28.221   9.373   8.622 -0.0282  0.3425 -0.0778
    1W        W43750  18.556   8.936   7.856  0.0408  0.0836 -0.2293
    1W        W43751   6.136  24.852   8.722  0.0716  0.4114  0.0597
    1W        W43752  14.022  23.963   2.470 -0.0140  0.1858 -0.3471
    1W        W43753  18.956  24.197   8.029 -0.2203 -0.0300  0.0715
    1W        W43754  19.629   7.851   0.269 -0.1373  0.0265  0.0569
    1W        W43755   8.974  21.554   1.015  0.1562  0.1429 -0.4046
    1W        W43756   4.678  28.342   2.589 -0.1793  0.0521 -0.3603
    1W        W43757  26.070  22.009   2.759  0.0406 -0.0598 -0.0717
    1W        W43758  22.509   8.916   2.013 -0.1429  0.0768 -0.0399
    1W        W43759  14.054  19.963   9.269  0.5420 -0.0453 -0.2534
    1W        W43760  17.589   8.532   9.401 -0.0631  0.5342  0.2951
    1W        W43761  19.685  18.902   7.555 -0.3188  0.0493  0.0277
    1W        W43762  27.178  11.751   7.083 -0.2255 -0.0618 -0.0461
    1W        W43763   3.262  24.527   0.296 -0.2395 -0.1227  0.0867
    1W        W43764   9.606  29.302   8.752  0.0520 -0.0130  0.0756
    1W        W43765  12.194  26.689   2.329 -0.1372 -0.1508 -0.1171
    1W        W43766  21.315  25.103   1.717 -0.0705 -0.2725  0.2487
    1W        W43767  20.141  10.119   6.227  0.0547  0.2292  0.1302
    1W        W43768   5.952  22.626   2.507  0.0611 -0.1906 -0.1102
    1W        W43769  13.196   8.956   0.900 -0.1293  0.2987 -0.2640
    1W        W43770   6.512  25.864   7.698 -0.0874  0.3053 -0.2153
    1W        W43771  19.992  21.004   2.131 -0.0516  0.1553  0.1559
    1W        W43772   2.420   6.983   1.440  0.1275  0.0407 -0.1032
    1W        W43773  26.474  21.730   1.366 -0.1786  0.0355  0.1696
    1W        W43774   6.517   4.439   2.561 -0.1705  0.0015  0.2020
    1W        W43775  27.434  26.343   6.277 -0.1379  0.3228  0.1561
    1W        W43776  18.946   7.476   8.494 -0.0688  0.0180 -0.1205
    1W        W43777  27.521  16.368   7.850 -0.4463 -0.0583  0.0766
    1W        W43778   8.559  11.848   0.640 -0.1299 -0.1505 -0.0803
    1W        W43779  24.851  19.925   1.834 -0.5285  0.1033  0.0958
    1W        W43780  11.258   3.467   0.241 -0.1077 -0.0882 -0.0579
    1W        W43781  19.269  25.524   6.484 -0.1102 -0.1552  0.0125
    1W        W43782  10.758  15.115   7.713  0.2278 -0.1112  0.0122
    1W        W43783  22.874   0.116   9.274 -0.0997 -0.0319  0.2547
    1W        W43784   9.379  10.722   3.118 -0.1161 -0.1244 -0.1345
    1W        W43785   7.875  18.474   6.204 -0.0633 -0.0346 -0.3353
    1W        W43786   7.126  19.147   9.181  0.0109 -0.1455  0.3058
    1W        W43787  14.876   3.104   6.799  0.0692  0.3609  0.0184
    1W        W43788   5.152   2.435   1.733  0.0602 -0.1854  0.2781
    1W        W43789  27.085   8.938   7.682 -0.0778  0.1168  0.3155
    1W        W43790  16.045  22.312   9.198  0.0945  0.1438  0.0768
    1W        W43791  29.595   0.375   7.052  0.0974  0.0199  0.0752
    1W        W43792   8.126   7.758   8.292  0.2033  0.1804  0.1854
    1W        W43793  29.336  22.118   8.188 -0.1675  0.1391  0.2665
    1W        W43794  24.199  10.709   1.728  0.0790 -0.1287 -0.0678
    1W        W43795   8.346  25.825   1.936  0.2087  0.1500 -0.0127
    1W        W43796  25.007  14.452   9.070 -0.0247 -0.1303 -0.1681
    1W        W43797  12.827  17.781   7.975 -0.2174  0.0979 -0.3657
    1W        W43798   1.926  12.078   6.446 -0.1495 -0.0779  0.3438
    1W        W43799  15.785   8.992   2.358  0.3408  0.2835  0.0246
    1W        W43800  21.478   2.274   0.336 -0.0325 -0.1594  0.0727
    1W        W43801  18.381   2.278   8.339  0.0255 -0.0382  0.3593
    1W        W43802  26.008  27.669   7.467  0.2412 -0.0980 -0.0595
    1W        W43803  13.208  29.703   9.265 -0.1054  0.3276  0.0157
    1W        W43804   3.849  29.898   2.168 -0.2212  0.1479 -0.3228
    1W        W43805  19.390  24.050   8.485  0.4427  0.1727  0.0903
    1W        W43806  16.776  18.190   8.707  0.0059  0.1647 -0.2527
    1W        W43807  17.651  16.513   1.968  0.0456  0.1364 -0.0459
    1W        W43808   0.616  14.847   1.188 -0.0934  0.2892  0.3950
    1W        W43809  26.705  20.418   8.413  0.1490  0.2875  0.1815
    1W        W43810   4.289   9.089   6.879 -0.0249 -0.1939  0.0247
    1W        W43811   1.229  15.884   5.713  0.0110 -0.3177 -0.3711
    1W        W43812  12.377  28.237   9.377  0.1162 -0.3082  0.0354
    1W        W43813  23.067   2.752   0.702 -0.3169  0.1175 -0.3649
    1W        W43814   3.098  23.360   7.936  0.2240  0.2480  0.2203
    1W        W43815  25.470  28.490   6.637  0.1756  0.0694 -0.0331
    1W        W43816  19.379   4.994   2.759  0.2893 -0.1566  0.1418
    1W        W43817  24.957  18.357   1.958  0.0230 -0.0212 -0.1087
    1W        W43818  10.887   3.972   0.759 -0.3613  0.2189  0.0251
    1W        W43819  29.172  12.794   2.235  0.0165 -0.0123 -0.0039
    1W        W43820  22.649  25.098   8.989  0.1888 -0.4474  0.0225
    1W        W43821  14.851  27.070   7.636  0.0502 -0.0907  0.2401
    1W        W43822  19.713   3.106   9.281  0.3106  0.1155  0.0509
    1W        W43823  20.059   0.853   1.293 -0.1381  0.1953  0.0960
    1W        W43824  19.266  22.579   9.407  0.0336 -0.0546 -0.1749
    1W        W43825  21.171   2.038   6.437 -0.0638  0.1719  0.1430
    1W        W43826  14.189  10.551   1.620 -0.2642  0.1312  0.0171
    1W        W43827  29.800  10.202   8.301 -0.1547 -0.2249 -0.0771
    1W        W43828  14.009  13.083   1.521  0.0731 -0.3069  0.0214
    1W        W43829  12.755  28.359   0.265 -0.1377  0.0493  0.0775
    1W        W43830  22.235   8.449   6.384 -0.1547  0.1876  0.1251
    1W        W43831   5.027  12.302   1.673 -0.1151 -0.1464 -0.3026
    1W        W43832   4.958   5.073   1.173 -0.0376 -0.2079  0.0103
    1W        W43833   8.953  11.874   1.407  0.1088 -0.1740 -0.1396
    1W        W43834  11.430  13.013   8.342  0.1678 -0.2316  0.0686
    1W        W43835  23.988  18.313   0.437  0.0581  0.0181 -0.1939
    1W        W43836  18.016   6.748   7.739 -0.1188 -0.1062 -0.2261
    1W        W43837  17.274  26.418   3.458  0.2781  0.1137 -0.2297
    1W        W43838  27.046   9.443   7.619 -0.0177 -0.0390 -0.1929
    1W        W43839  14.259  23.152   6.265 -0.1143 -0.0360 -0.0226
    1W        W43840  11.199   8.279   7.398  0.2019 -0.0076 -0.0553
    1W        W43841   4.102   5.314   1.323  0.0421  0.1121 -0.0239
    1W        W43842  25.122   8.155   0.203 -0.4181 -0.0719 -0.0330
    1W        W43843  14.279  11.018   0.021 -0.1458 -0.0777 -0.3230
    1W        W43844  14.669   1.402   7.745 -0.1279  0.0098  0.0903
    1W        W43845  18.497   3.689   2.797  0.3277  0.1798 -0.1265
    1W        W43846  12.603   5.835   7.449  0.3233  0.0217 -0.0514
    1W        W43847  29.340  15.248   6.735  0.0495  0.0105 -0.1725
    1W        W43848  17.175  23.170   9.073  0.2209  0.2406 -0.1823
    1W        W43849  17.810  15.471   1.287 -0.2115  0.1305 -0.0270
    1W        W43850  10.971  11.575   9.023 -0.1609  0.0530  0.0547
    1W        W43851  25.901  15.757   1.973 -0.2000 -0.2066 -0.1820
    1W        W43852   6.959  15.805   5.936 -0.1348  0.1378  0.0604
    1W        W43853  12.851  22.252   0.071  0.1190  0.5098 -0.1970
    1W        W43854   4.123  20.978   8.778  0.2060 -0.1704  0.0673
    1W        W43855  29.801  13.359   0.619  0.0486 -0.1797  0.1759
    1W        W43856  11.348   7.114   2.242  0.0017 -0.0816 -0.0799
    1W        W43857  19.343   9.519   8.340 -0.1957 -0.3120 -0.1148
    1W        W43858  10.378  23.666   1.766  0.1313 -0.1088  0.1902
    1W        W43859  28.630  15.437   7.849 -0.4675  0.1722  0.3244
    1W        W43860   5.641  17.681   9.286  0.1305 -0.0679  0.0431
    1W        W43861  11.445  20.607   0.397 -0.1137 -0.1255  0.0224
    1W        W43862  20.585  16.808   8.799 -0.0258  0.0535 -0.1606
    1W        W43863  13.074  19.311   0.899  0.2280 -0.0892  0.1636
    1W        W43864  24.787   5.282   1.311  0.0631  0.0556 -0.2010
    1W        W43865  14.279  23.754   1.832  0.0562 -0.1580 -0.0955
    1W        W43866  28.061   4.107   7.292 -0.0899 -0.1566 -0.0568
    1W        W43867  11.412   5.158   7.975  0.0141 -0.2091 -0.0016
    1W        W43868  11.349   4.382   2.861 -0.1400  0.3896  0.0908
    1W        W43869  12.888   5.225   0.037 -0.0324  0.1365 -0.0787
    1W        W43870   4.218   0.751   1.864  0.0206  0.0787  0.0645
    1W        W43871   4.432   0.530   0.039 -0.3333  0.0240 -0.1013
    1W        W43872  25.599  23.112   8.934  0.1069  0.0808 -0.1604
    1W        W43873  15.466   1.964   1.013 -0.0758  0.3704 -0.0359
    1W        W43874  20.122  20.514   2.028 -0.0627 -0.0436 -0.0327
    1W        W43875  23.038   3.712   8.489  0.1122  0.3154  0.0830
    1W        W43876   0.453   3.845   2.413  0.2227  0.1273  0.0580
    1W        W43877   7.194  24.737   0.714  0.1990  0.1904  0.5031
    1W        W43878   7.873  17.941   5.944 -0.0582 -0.2982 -0.0057
    1W        W43879  16.105  11.581   1.227  0.1127 -0.2632  0.1160
    1W        W43880  23.241  26.907   6.738 -0.1063 -0.1292 -0.3946
    1W        W43881  25.754  11.874   2.437  0.2000  0.3714  0.1310
    1W        W43882  21.069  10.738   9.315 -0.0220 -0.1172 -0.0401
    1W        W43883  13.138   5.273   7.898 -0.1186 -0.0606 -0.0062
    1W        W43884   7.434  18.121   2.355  0.1008 -0.1556 -0.1034
    1W        W43885  27.549  19.405   7.454  0.1535 -0.2596 -0.3393
    1W        W43886  14.943  22.915   9.250 -0.2959 -0.1047  0.3281
    1W        W43887  19.503  23.345   0.488  0.0706  0.2190 -0.1167
    1W        W43888  19.020   2.698   0.918 -0.2231 -0.4195 -0.1889
    1W        W43889   0.769  21.485   7.051  0.1541  0.2871 -0.1301
    1W        W43890  26.455  21.574   8.147 -0.1067 -0.1399 -0.0413
    1W        W43891  19.786  26.027   7.936 -0.2943  0.1720  0.3353
    1W        W43892  29.628  16.237   8.561  0.0214  0.0647 -0.3064
    1W        W43893  15.324   8.221   2.443  0.0536 -0.1263 -0.0091
    1W        W43894  17.323   1.888   6.510  0.0094  0.0869  0.2467
    1W        W43895  29.183  26.838   1.890  0.3158  0.0134  0.2869
    1W        W43896  28.140   2.745   1.769 -0.0128  0.2748  0.1026
    1W        W43897  24.560  24.577   9.239 -0.1300  0.3217  0.1293
    1W        W43898  20.092  11.203   7.060 -0.0109 -0.2031  0.1011
    1W        W43899   8.070  27.247   8.792  0.1652  0.3410 -0.0822
    1W        W43900  21.763  16.691   0.384 -0.2762 -0.0145  0.1920
    1W        W43901  23.643   7.046   2.229 -0.0211  0.2307  0.0191
    1W        W43902  17.562  29.525   1.199 -0.2013 -0.4338 -0.1645
    1W        W43903  21.672  18.695   2.346  0.1035 -0.2609 -0.0868
    1W        W43904  15.728  28.488   1.981  0.1007 -0.2981  0.2400
    1W        W43905  11.758  23.317   2.212  0.1520  0.0999 -0.1520
    1W        W43906   8.994  15.683   9.324 -0.2790 -0.0960  0.0716
    1W        W43907   6.142  26.089   7.901  0.2200  0.1208 -0.1218
    1W        W43908   6.899  15.610   8.898  0.1785  0.1331  0.1707
    1W        W43909  20.273  25.821   8.018 -0.0692 -0.1717 -0.0890
    1W        W43910  21.331  15.827   8.112 -0.1010  0.2334 -0.0004
    1W        W43911   9.409   8.082   8.449  0.1263  0.0796  0.5085
    1W        W43912  28.639  26.660   8.537  0.2281 -0.2022  0.2955
    1W        W43913   1.871   6.235   7.037  0.2056  0.1532  0.0146
    1W        W43914  19.322  26.573   1.183  0.0229  0.1243 -0.0090
    1W        W43915  19.014  18.451   1.055  0.1310 -0.0855  0.3536
    1W        W43916   2.710  17.320   9.155 -0.0090  0.2721 -0.1853
    1W        W43917   1.609  24.856   7.142 -0.0555 -0.2319 -0.0407
    1W        W43918  16.622   7.361   2.173  0.1800 -0.3096  0.2243
    1W        W43919  10.741   9.081   2.155  0.0158 -0.0472  0.1330
    1W        W43920  20.673   9.081   9.211  0.2461 -0.2168 -0.0121
    1W        W43921  24.868  25.997   0.696 -0.1088  0.0268 -0.0788
    1W        W43922   1.793  23.285   8.352  0.3550  0.0040 -0.2969
    1W        W43923  10.357  22.593   9.024  0.2083 -0.3091  0.0372
    1W        W43924  19.019   5.920   6.443  0.1646  0.1535 -0.0942
    1W        W43925   8.344  24.592   1.132 -0.1132  0.0452  0.0885
    1W        W43926  19.901   1.522   8.084  0.3921  0.0980  0.3165
    1W        W43927  24.630  27.218   7.539  0.2264  0.0770  0.0215
    1W        W43928   2.463  21.591   0.986  0.0839 -0.1586  0.1559
    1W        W43929  26.075  15.818   5.876  0.0827 -0.1964  0.0248
    1W        W43930  11.520   0.007   3.093 -0.0446 -0.1667 -0.2062
    1W        W43931   3.832  17.903   7.544 -0.2692  0.1126 -0.0100
    1W        W43932  25.968  14.000   7.152  0.2914  0.1443 -0.0104
    1W        W43933   9.568  27.598   8.627 -0.1985 -0.1284  0.2747
    1W        W43934  14.774   2.302   7.947  0.0415  0.3486  0.1179
    1W        W43935   4.403  28.131   7.039  0.0768  0.0849  0.0721
    1W        W43936   9.995   7.799   3.742  0.2432 -0.0029 -0.0299
    1W        W43937   0.034   2.048   6.499 -0.0816  0.0265  0.0019
    1W        W43938  16.752  24.948   8.549 -0.1107  0.0335 -0.2055
    1W        W43939  19.889   5.101   2.087  0.2742 -0.0273 -0.1640
    1W        W43940   4.803  28.024   6.321  0.0604  0.0866  0.1932
    1W        W43941  27.159  15.908   2.478  0.1488 -0.0809  0.3502
    1W        W43942  28.957  20.312   0.827  0.1311  0.2513 -0.4218
    1W        W43943  20.983  29.391   0.518  0.1647 -0.3055 -0.0592
    1W        W43944  10.756  12.693   7.784 -0.0710 -0.1879  0.0841
    1W        W43945  11.351   0.709   7.631  0.1097 -0.0186  0.0813
    1W        W43946  23.207  17.909   9.259 -0.1058  0.2372 -0.3217
    1W        W43947  14.118  18.928   1.416  0.2799 -0.2655 -0.0993
    1W        W43948   4.651   7.506   2.994 -0.1321  0.3067  0.1081
    1W        W43949  16.846   0.826   1.636  0.3217  0.1301 -0.0142
    1W        W43950   0.191   8.511   8.038  0.1496  0.1870  0.1159
    1W        W43951  13.106  14.761   6.731 -0.0922  0.0200 -0.0127
    1W        W43952   3.694  17.952   8.854 -0.1575  0.0157 -0.0720
    1W        W43953   5.260   2.222   0.623 -0.1227 -0.0008  0.0069
    1W        W43954  22.453  16.301   7.558  0.1177  0.0108 -0.0332
    1W        W43955   7.525   7.225   0.677  0.0056  0.0442  0.0866
    1W        W43956   9.757  25.617   3.072  0.1866  0.0368  0.0213
    1W        W43957  22.536  16.882   0.868 -0.0899 -0.2471 -0.1125
    1W        W43958  27.985  28.480   2.087  0.0674  0.1862  0.3142
    1W        W43959  16.135  17.859   7.954 -0.0113 -0.0015  0.2368
    1W        W43960  13.286  18.710   6.604 -0.2955 -0.1152  0.1427
    1W        W43961   5.406  11.820   7.982 -0.1648  0.1669 -0.1495
    1W        W43962  26.198   7.805   1.827 -0.1837  0.2589 -0.0790
    1W        W43963  27.538  21.941   9.003 -0.1116  0.2182 -0.1522
    1W        W43964   1.963   7.911   7.426  0.0231 -0.3334  0.0686
    1W        W43965  17.713  22.905   2.643  0.0063 -0.1321  0.0384
    1W        W43966   6.999   0.567   0.513 -0.0663  0.4398  0.2388
    1W        W43967  23.548   7.372   0.737 -0.3779 -0.0551  0.0241
    1W        W43968  20.552  11.986   8.749  0.2552 -0.4411 -0.2292
    1W        W43969  19.089  29.646   7.224  0.1702 -0.0969 -0.0429
    1W        W43970  23.072  11.803   1.600 -0.1275  0.0616  0.0169
    1W        W43971   5.278  25.013   1.395  0.0123 -0.0692  0.1966
    1W        W43972  19.167   7.174   0.698 -0.0834 -0.2281 -0.0508
    1W        W43973  20.142  21.095   9.146  0.1129  0.0945  0.4126
    1W        W43974   5.042   0.982   6.743 -0.0358 -0.0741  0.3861
    1W        W43975  17.929  25.437   7.432 -0.2495 -0.2579  0.1299
    1W        W43976  26.879  11.350   9.331  0.0522 -0.4424  0.2683
    1W        W43977  29.108  12.499   0.636 -0.0848  0.1258 -0.0017
    1W        W43978  12.015  22.986   9.237  0.2313  0.0556 -0.1327
    1W        W43979   8.056  20.115   0.313 -0.3388 -0.2487  0.1219
    1W        W43980  21.335  20.521   1.793  0.2057 -0.2004 -0.0491
    1W        W43981   9.131   2.773   0.275  0.0147 -0.0850 -0.0267
    1W        W43982   4.735  15.441   6.759 -0.2696 -0.1047  0.2620
    1W        W43983  20.660  23.078   2.619 -0.6059 -0.3171  0.2352
    1W        W43984   4.352  20.334   0.816 -0.2512 -0.0103 -0.1516
    1W        W43985  16.100  25.680   1.699 -0.0877  0.1424 -0.1430
    1W        W43986  27.021  14.431   5.538  0.1561 -0.3881  0.1462
    1W        W43987   7.599  18.497   0.801  0.0056 -0.0169  0.2182
    1W        W43988   2.790   3.309   0.044  0.1690 -0.0848 -0.1043
    1W        W43989  11.155  28.816   2.015 -0.1093  0.4205  0.0661
    1W        W43990   0.224   7.269   0.343  0.3043  0.1365 -0.1410
    1W        W43991  27.072   5.001   1.182  0.1400 -0.0630 -0.1723
    1W        W43992  19.740   1.612   1.199 -0.2799 -0.0886 -0.2253
    1W        W43993   9.231  15.975   7.002 -0.0629  0.3135  0.3522
    1W        W43994   4.436  11.569   6.247  0.1184  0.3500  0.1226
    1W        W43995   6.012   9.732   8.045 -0.0906  0.1231  0.0515
    1W        W43996  17.203  28.215   1.194  0.0840  0.0854  0.1427
    1W        W43997  14.905  22.460   6.349 -0.0264  0.0968  0.0908
    1W        W43998   1.569  14.857   1.428  0.0418 -0.1009  0.3681
    1W        W43999  24.930   4.670   8.405  0.2398 -0.0810  0.0391
    1W        W44000  15.674   0.506   7.668  0.0359 -0.0254  0.2483
    1W        W44001   9.872   1.431   2.932 -0.0089 -0.1540  0.1974
    1W        W44002  18.966  15.182   0.933  0.0635  0.1808  0.3998
    1W        W44003  13.616   1.963   1.189 -0.0761  0.0109  0.0467
    1W        W44004  25.561  14.932   1.805  0.0105 -0.2670  0.3693
    1W        W44005  27.796   0.951   8.347  0.0084 -0.0128  0.0720
    1W        W44006   8.220  11.980   1.000  0.1541 -0.2063  0.0931
    1W        W44007  27.636   2.199   1.835 -0.4141 -0.1607 -0.2626
    1W        W44008  20.843  18.531   8.195 -0.3939 -0.1368  0.2097
    1W        W44009  11.631  13.656   9.301 -0.1053  0.0825  0.2031
    1W        W44010  15.895  19.450   2.440  0.0338 -0.1643 -0.0109
    1W        W44011  24.633  12.781   1.081 -0.0013  0.0095 -0.0164
    1W        W44012  16.602  10.171   8.607  0.0538  0.0542 -0.1987
    1W        W44013  25.430   8.620   8.168 -0.2270 -0.0333 -0.0274
    1W        W44014   6.313   4.458   1.085 -0.4206 -0.1602  0.0254
    1W        W44015   4.568   1.557   1.999  0.3466 -0.0206 -0.2204
    1W        W44016  11.646   0.318   1.218  0.0024  0.1247  0.2248
    1W        W44017   7.255  28.490   9.279 -0.1012 -0.0951 -0.1508
    1W        W44018  28.461   4.216   2.799 -0.1260  0.1205  0.1396
    1W        W44019  12.719  21.658   9.416  0.1224  0.0455 -0.1075
    1W        W44020  20.428  23.982   8.527  0.2562 -0.1108  0.3478
    1W        W44021   6.370   9.095   0.599  0.2866  0.2049 -0.0138
    1W        W44022   2.640   2.117   7.749  0.1292  0.1765 -0.2150
    1W        W44023  28.689  21.279   1.301  0.3278  0.1761 -0.4761
    1W        W44024  27.731  12.777   2.593  0.0977 -0.2580 -0.1606
    1W        W44025  16.283  10.733   8.024 -0.1922 -0.1647  0.1355
    1W        W44026   2.506   6.679   0.052  0.0295 -0.1340  0.0530
    1W        W44027  26.257  16.737   6.123  0.0446 -0.0473  0.0408
    1W        W44028   4.275  26.207   8.617 -0.0994  0.2208 -0.1320
    1W        W44029   7.330   6.238   2.749 -0.1416 -0.1008 -0.2672
    1W        W44030   7.358   4.078   8.383  0.0036 -0.2960 -0.1107
    1W        W44031  28.170   3.061   0.058 -0.1687 -0.2087 -0.1348
    1W        W44032  18.481   9.263   7.410  0.1603  0.0106  0.0685
    1W        W44033  21.753  26.509   1.547 -0.2081 -0.0679 -0.1554
    1W        W44034  10.791  11.355   7.737  0.0285 -0.1536  0.0977
    1W        W44035   9.082   2.407   7.758 -0.3235 -0.1388 -0.2380
    1W        W44036  19.786   1.836   2.156  0.0763 -0.3426  0.2147
    1W        W44037   1.615  14.303   8.897 -0.0758 -0.3572 -0.0635
    1W        W44038   6.883  26.220   6.203  0.0870  0.0624 -0.4107
    1W        W44039   4.410   6.273   1.547 -0.0958  0.1405  0.0394
    1W        W44040   0.129   2.876   7.050 -0.1935 -0.1553  0.0789
    1W        W44041   4.695   9.082   8.899  0.0831  0.3826 -0.2147
    1W        W44042  13.517   3.912   3.215 -0.2145 -0.0340  0.2089
    1W        W44043  29.448   2.444   1.379 -0.1386 -0.1207  0.3074
    1W        W44044  19.125  24.250   1.640 -0.1325 -0.1056  0.0867
    1W        W44045  27.763  15.417   6.520 -0.3002  0.0838 -0.0122
    1W        W44046  18.296  14.479   9.051  0.1078 -0.2431 -0.0698
    1W        W44047  22.827   5.065   0.671  0.0855  0.1770  0.0093
    1W        W44048   7.996  29.544   1.949 -0.5616  0.2403 -0.1570
    1W        W44049  10.733  12.057   1.553 -0.0178  0.1589  0.1046
    1W        W44050   9.379  29.240   7.031  0.0057 -0.2108 -0.2891
    1W        W44051  28.733  14.299   8.373 -0.2476  0.3260 -0.1483
    1W        W44052  16.311  29.374   3.615 -0.0406 -0.1477  0.0353
    1W        W44053   2.552   7.198   9.431 -0.1364  0.0752 -0.2341
    1W        W44054  10.672  17.580   7.100 -0.0826 -0.1314  0.1743
    1W        W44055  29.135   5.836   8.845  0.2398  0.2454  0.1724
    1W        W44056   9.211  26.695   1.421  0.0418  0.1476  0.2366
    1W        W44057  10.548  20.525   0.338  0.1215  0.1535 -0.1390
    1W        W44058  28.912   4.350   3.477  0.0093 -0.0172 -0.2290
    1W        W44059  22.967   4.999   2.565  0.2493  0.3056  0.0796
    1W        W44060   8.738   0.112   0.367 -0.2890  0.0210  0.1111
    1W        W44061  10.751  18.007   0.262  0.1576 -0.0883 -0.0370
    1W        W44062   8.013   2.027   0.491 -0.2613  0.0408  0.0285
    1W        W44063  16.492   7.982   8.567 -0.2125 -0.1420  0.1981
    1W        W44064  19.146  14.374   1.302  0.0499  0.0130 -0.1971
    1W        W44065   8.476  24.187   2.460 -0.0782 -0.0419 -0.1994
    1W        W44066  12.966  15.811   0.443 -0.0902 -0.0645 -0.0123
    1W        W44067   0.851   4.448   1.575  0.0318 -0.1296  0.1625
    1W        W44068  13.516  13.305   9.039 -0.1261 -0.1374  0.1219
    1W        W44069  23.460  28.485   6.848 -0.0480 -0.0212 -0.5531
    1W        W44070  16.019  25.985   0.357 -0.2408  0.2695 -0.1182
    1W        W44071  16.999  25.655   8.427 -0.0675 -0.0855 -0.0297
    1W        W44072   3.969   2.646   8.916 -0.2017  0.0647  0.1850
    1W        W44073   3.378  10.345   8.600 -0.2048  0.1707 -0.0208
    1W        W44074   1.706  22.722   6.112 -0.0281 -0.0520  0.3574
    1W        W44075   0.003  10.765   7.200 -0.0779 -0.2059  0.0891
    1W        W44076  10.806  15.199   1.681 -0.2394 -0.2086  0.0052
    1W        W44077  12.435  26.728   6.449  0.1344  0.1071  0.2073
    1W        W44078   8.810  12.315   1.739 -0.0431  0.0957 -0.0898
    1W        W44079  13.425  28.104   2.740  0.2490  0.1154  0.0408
    1W        W44080  23.902  20.552   1.624  0.0714  0.0999  0.1682
    1W        W44081  12.607   1.030   8.532 -0.0057  0.0157 -0.0937
    1W        W44082  26.285  29.692   1.396 -0.0549  0.0016  0.5231
    1W        W44083   5.507   0.877   7.682 -0.1808 -0.1217  0.0888
    1W        W44084   7.568   3.234   8.955 -0.2064 -0.1822  0.2137
    1W        W44085  26.456  23.167   0.438 -0.1984  0.0024 -0.2886
    1W        W44086   1.703  12.393   8.678 -0.0307  0.0721  0.1258
    1W        W44087   3.082  24.025   5.561  0.1697  0.2562 -0.2160
    1W        W44088  21.866  24.132   3.224  0.0886  0.1815 -0.1522
    1W        W44089   8.472  10.162   0.895  0.0723  0.0166  0.1068
    1W        W44090  12.609  12.035   1.037  0.1680 -0.0227  0.3249
    1W        W44091  11.946  11.633   8.565  0.2742  0.1565 -0.1955
    1W        W44092  12.258   0.911   0.596  0.0575 -0.1666 -0.0112
    1W        W44093  21.664  28.732   8.257 -0.1465 -0.1743 -0.0242
    1W        W44094  27.297  13.933   0.614 -0.1157 -0.0467  0.3683
    1W        W44095   0.293  16.933   6.790 -0.2280  0.0462 -0.1127
    1W        W44096  28.037  28.815   2.400 -0.0534  0.2472 -0.1912
    1W        W44097   4.014  19.677   7.330  0.1021 -0.2411 -0.2202
    1W        W44098  20.370   9.819   2.217  0.0362 -0.1459  0.0456
    1W        W44099  11.680  17.327   6.716 -0.1543  0.1079 -0.1499
    1W        W44100  17.237   6.697   7.419 -0.4036  0.0163 -0.1806
    1W        W44101   7.838  28.835   0.792  0.1947 -0.0766  0.1709
    1W        W44102  26.788  21.712   0.872 -0.3294 -0.0262 -0.0360
    1W        W44103  21.626  16.461   7.313  0.0078 -0.0482  0.0908
    1W        W44104  22.058   7.065   6.781  0.0253 -0.0689  0.0686
    1W        W44105   3.334  19.536   0.527 -0.1743  0.2952 -0.2944
    1W        W44106   3.452  22.963   7.976  0.0252  0.0478  0.2024
    1W        W44107  16.202  13.791   7.390 -0.0263 -0.1290 -0.2499
    1W        W44108  22.857   2.227   9.419 -0.2914 -0.2639  0.3608
    1W        W44109  13.175  23.736   7.406 -0.0455  0.2369  0.0656
    1W        W44110  22.080  27.245   6.856 -0.0806  0.2927  0.2879
    1W        W44111  23.632  18.970   7.400 -0.2482  0.2006 -0.2103
    1W        W44112   7.059  18.232   8.503 -0.1405  0.1271  0.1195
    1W        W44113  18.403  27.829   2.528 -0.1584  0.0226  0.1075
    1W        W44114   7.208  29.725   0.913 -0.1322  0.1217 -0.0463
    1W        W44115   7.981  20.967   9.370  0.1607 -0.0641  0.1243
    1W        W44116   2.288   3.815   1.739 -0.3948 -0.2859 -0.1484
    1W        W44117   3.091  10.586   8.145  0.1126 -0.0467 -0.2457
    1W        W44118  12.795   3.025   9.297  0.2184  0.0774  0.0261
    1W        W44119  12.047   8.805   2.189  0.0308 -0.0315  0.0415
    1W        W44120  26.314  14.804   0.366  0.1506 -0.0419  0.1147
    1W        W44121  29.510  21.353   8.587  0.1794 -0.5403  0.1413
    1W        W44122  18.375  10.120   8.114  0.2239  0.0571 -0.1963
    1W        W44123  27.870  17.598   1.942 -0.1593  0.0424  0.1115
    1W        W44124  19.045  29.744   3.093  0.0717  0.1241 -0.0998
    1W        W44125   4.103  16.349   9.023  0.5245 -0.1362 -0.3742
    1W        W44126  17.877   0.671   1.208  0.2357  0.2643 -0.4029
    1W        W44127  22.922   3.127   1.040  0.2948 -0.2165 -0.1374
    1W        W44128  27.322   5.876   8.515 -0.2283  0.1650  0.1267
    1W        W44129   1.022  10.264   7.743 -0.0996  0.0935  0.0606
    1W        W44130  14.183  28.630   0.573  0.0879  0.2740  0.1500
    1W        W44131   7.098  26.199   8.567 -0.1049 -0.2130 -0.0804
    1W        W44132   2.503  21.116   8.320  0.3033  0.1654  0.1145
    1W        W44133  11.668   3.689   1.205  0.1302  0.2970 -0.2047
    1W        W44134  16.863  27.848   1.647  0.2240  0.0337  0.1270
    1W        W44135   5.488  19.889   8.201 -0.0468 -0.0373  0.3778
    1W        W44136  23.821  29.192   0.372 -0.0222  0.0654  0.3113
    1W        W44137   2.703   6.326   7.504 -0.2044 -0.0653  0.0146
    1W        W44138   4.587  17.973   9.337 -0.1757 -0.2432 -0.1026
    1W        W44139   5.000  13.613   8.210  0.0634  0.0947  0.1055
    1W        W44140   3.737  23.243   8.937 -0.1329  0.1855  0.1623
    1W        W44141  29.865  13.091   8.974 -0.0965 -0.1867  0.0316
    1W        W44142  15.990   8.967   9.086 -0.2179 -0.0159  0.1918
    1W        W44143  10.206  14.328   0.206  0.0713 -0.0096  0.0312
    1W        W44144  12.414   9.716   0.198  0.2103 -0.2275  0.1127
    1W        W44145  17.559  17.091   1.296  0.0324  0.0396 -0.2554
    1W        W44146  22.352   6.534   7.734  0.2750  0.1186  0.1333
    1W        W44147  28.990  18.487   1.521  0.2211 -0.1016 -0.2578
    1W        W44148  19.235  19.786   1.050 -0.0602 -0.1986  0.2649
    1W        W44149  19.009  15.586   9.229 -0.0550 -0.1319 -0.2676
    1W        W44150   5.463   7.156   1.039  0.3272 -0.2496  0.3925
    1W        W44151  25.795   1.764   2.408  0.0863  0.1471 -0.1218
    1W        W44152  23.400  29.017   0.505 -0.3058  0.1433 -0.0707
    1W        W44153  22.561  22.589   2.693  0.0894 -0.1175 -0.0224
    1W        W44154  27.454  25.432   8.566  0.0482  0.0936 -0.0688
    1W        W44155   7.103   0.239   2.739 -0.0771 -0.1397 -0.1147
    1W        W44156   6.397  20.472   7.190  0.4555  0.0724 -0.1680
    1W        W44157   5.311   4.367   3.436  0.1643 -0.0207  0.3110
    1W        W44158   0.793  21.197   5.478  0.0967  0.2580  0.1285
    1W        W44159   2.596   1.920   9.464  0.3536  0.2613 -0.1324
    1W        W44160  22.313   0.474   2.550 -0.0210 -0.0669  0.1982
    1W        W44161   2.127  26.230   5.808 -0.0925 -0.0957  0.0056
    1W        W44162  14.169  12.891   2.454 -0.0287  0.0704 -0.1727
    1W        W44163   3.467  15.403   7.982 -0.1289 -0.3425  0.1831
    1W        W44164   5.682  14.305   8.391  0.1505 -0.0512  0.0803
    1W        W44165  19.690  26.113   8.970  0.1503  0.1543  0.2302
    1W        W44166   8.403  19.901   8.059  0.1925 -0.3422  0.0338
    1W        W44167  16.438   1.708   0.167 -0.0415  0.2945  0.0432
    1W        W44168  16.377   5.010   1.693  0.0086 -0.1022 -0.0663
    1W        W44169  13.626  14.953   1.106  0.0795 -0.0985  0.0816
    1W        W44170   5.869   8.590   2.360  0.1554  0.1525 -0.1829
    1W        W44171  10.171  18.392   1.396  0.0638  0.1496 -0.3270
    1W        W44172  25.913  22.335   1.909 -0.4477 -0.0765  0.2527
    1W        W44173   9.794  15.847   8.613  0.2295 -0.0970  0.1395
    1W        W44174  29.749   7.135   2.643  0.0312 -0.0122 -0.2554
    1W        W44175  11.485  19.465   7.021  0.0303 -0.3464  0.0085
    1W        W44176  22.426  23.799   1.556 -0.0190  0.1627 -0.1069
    1W        W44177   8.635   2.895   1.541 -0.0286 -0.1458  0.0735
    1W        W44178  18.050   4.776   8.028  0.0293  0.5052 -0.0044
    1W        W44179  11.359   6.550   1.911  0.1176 -0.1361  0.0161
    1W        W44180  11.859   1.368   0.456  0.1372  0.4022 -0.3911
    1W        W44181   0.242   8.134   7.037 -0.0332 -0.1252 -0.2614
    1W        W44182   0.447  23.863   5.973  0.0223 -0.2766  0.2955
    1W        W44183   6.572  14.861   6.139 -0.0179  0.0684 -0.1947
    1W        W44184  27.400   8.995   9.033  0.1596  0.1786  0.6005
    1W        W44185  29.717   5.586   1.194 -0.1779  0.0930  0.2497
    1W        W44186   3.480  14.431   0.905  0.1080  0.1643  0.2597
    1W        W44187  26.764  19.232   0.624  0.1673  0.1338 -0.1885
    1W        W44188  13.756  18.073   1.871  0.0756  0.2999  0.0032
    1W        W44189   0.170   4.580   2.714 -0.1443 -0.0030 -0.1478
    1W        W44190  18.606  11.806   1.259 -0.3123  0.1790 -0.3532
    1W        W44191   3.463  14.037   8.810  0.1811  0.0636  0.1388
    1W        W44192  29.331  19.028   6.341  0.1265  0.1103  0.0647
    1W        W44193  23.378   0.299   8.397  0.0807 -0.0016  0.0774
    1W        W44194  11.727   8.628   0.165 -0.2441  0.2336 -0.0450
    1W        W44195  28.370   1.726   8.333  0.0342 -0.1100  0.5885
    1W        W44196  11.705   4.621   2.622 -0.1653  0.0035  0.0923
    1W        W44197  12.391  10.739   1.121 -0.3201  0.0238  0.2493
    1W        W44198  25.098   2.047   6.558 -0.0092  0.1193  0.0146
    1W        W44199   9.893   9.686   7.035  0.0092 -0.1384  0.0787
    1W        W44200   7.834  10.185   2.444 -0.1443 -0.0563  0.2137
    1W        W44201   1.451  15.742   1.651 -0.0991 -0.1977 -0.1229
    1W        W44202   9.355   7.566   8.548  0.1779  0.0307  0.0130
    1W        W44203   6.713   4.493   8.522  0.1749  0.2921 -0.1462
    1W        W44204  12.654  15.860   2.072  0.0589 -0.0990 -0.3005
    1W        W44205   6.910  20.542   1.219  0.0214  0.0485 -0.1346
    1W        W44206   5.568  11.106   2.781  0.3851 -0.2733  0.0722
    1W        W44207  19.010   6.164   8.982  0.1390  0.0155  0.0299
    1W        W44208  16.847  27.769   8.425 -0.0378  0.1397 -0.3825
    1W        W44209  19.776  13.678   1.593 -0.0848  0.1205 -0.4433
    1W        W44210  12.752  18.272   7.842 -0.3337  0.1326  0.1971
    1W        W44211   7.283   8.627   1.654 -0.2675  0.2529 -0.4012
    1W        W44212  15.262   5.160   1.919 -0.0510  0.3253 -0.0031
    1W        W44213  22.896   1.641   2.505 -0.1828 -0.1073  0.1343
    1W        W44214  22.757  21.826   9.157 -0.0599  0.0624 -0.0788
    1W        W44215   6.833   9.288   2.131  0.0850  0.2627  0.4605
    1W        W44216   6.099  22.382   6.810 -0.1633 -0.0809  0.0173
    1W        W44217  24.596  27.932   1.402 -0.2262  0.1580  0.3547
    1W        W44218  29.637   7.692   2.816  0.3464  0.1697 -0.3890
    1W        W44219  14.147  16.440   2.170 -0.0544 -0.0854  0.3975
    1W        W44220  19.538  14.542   1.718 -0.2049  0.2505  0.0616
    1W        W44221  22.406   4.914   1.685 -0.1498 -0.0040 -0.1471
    1W        W44222  18.238  29.449   9.057  0.0561 -0.1167  0.2172
    1W        W44223  21.312  12.607   0.716 -0.0242  0.2385 -0.2541
    1W        W44224  24.383   2.322   7.145 -0.1569 -0.1423 -0.0214
    1W        W44225   9.592  24.536   0.922 -0.2207  0.0373  0.1077
    1W        W44226  23.034  21.765   0.763  0.1339  0.0995  0.1210
    1W        W44227  14.305  18.426   6.856 -0.1436 -0.0885 -0.0814
    1W        W44228   7.954  12.399   2.071 -0.2530  0.1688  0.0470
    1W        W44229  13.976  19.658   7.476  0.2011 -0.0475  0.0740
    1W        W44230  25.218  16.322   1.671 -0.1998  0.1393  0.3197
    1W        W44231  16.760   7.758   2.509  0.3650  0.1211 -0.0076
    1W        W44232  18.613   4.528   2.973  0.2721 -0.2785  0.2041
    1W        W44233  26.199   7.996   0.833  0.0870 -0.0483  0.3727
    1W        W44234  16.177  10.971   7.589  0.1301  0.1296 -0.1555
    1W        W44235  29.637  21.691   9.414  0.2238  0.1106  0.0054
    1W        W44236  23.215  18.587   0.422 -0.0589 -0.1860 -0.0957
    1W        W44237  23.684  23.816   0.371  0.1105  0.3024  0.0269
    1W        W44238  14.195   1.725   3.377  0.3076  0.1060 -0.1665
    1W        W44239  11.232  24.233   9.327  0.4133  0.0422 -0.0300
    1W        W44240  25.511  20.592   7.870  0.0093  0.0864 -0.0140
    1W        W44241  20.452  23.629   8.988  0.6071 -0.1032 -0.0451
    1W        W44242  13.427   1.666   8.365  0.2459  0.3305 -0.2892
    1W        W44243  18.093  29.340   2.790 -0.0382 -0.0093 -0.0049
    1W        W44244   1.960  28.948   7.884  0.0311  0.0387 -0.3772
    1W        W44245  11.362  28.291   2.235  0.0319 -0.0725  0.1505
    1W        W44246   8.280  23.215   6.977  0.0452 -0.0932  0.0205
    1W        W44247  25.222   5.713   3.411 -0.0019  0.0974 -0.1590
    1W        W44248   9.780  24.812   2.415 -0.1774  0.0312 -0.1073
    1W        W44249   4.128  22.195   7.388 -0.1757 -0.0166 -0.0431
    1W        W44250  18.941  21.498   2.543  0.2462 -0.0313 -0.1036
    1W        W44251  14.599  12.139   0.086 -0.0468 -0.1883  0.0622
    1W        W44252  25.595  22.291   1.489 -0.0338 -0.0961 -0.0336
    1W        W44253   2.405   9.047   0.942  0.3167 -0.1419 -0.0506
    1W        W44254  28.224  12.422   1.207  0.4436 -0.4808 -0.1224
    1W        W44255  14.130  27.548   2.616 -0.2785  0.1665 -0.1170
    1W        W44256  27.540  26.126   0.640 -0.2431 -0.1828 -0.0921
    1W        W44257  15.515   3.892   1.670  0.2044 -0.1951 -0.0062
    1W        W44258  10.823   5.971   1.752 -0.0726 -0.0442  0.1974
    1W        W44259  28.006  17.355   6.407  0.3939  0.2639  0.0353
    1W        W44260  27.073  25.070   2.672 -0.0835 -0.1483  0.3415
    1W        W44261  21.050  27.321   7.354 -0.1896  0.2637  0.1273
    1W        W44262  19.960   2.140   8.294 -0.0384  0.1391  0.0805
    1W        W44263  15.159  11.824   7.118  0.0385 -0.0472  0.1353
    1W        W44264   1.747  17.510   2.083  0.4026  0.2543  0.0995
    1W        W44265  19.281   3.410   7.275  0.1193  0.1653 -0.1111
    1W        W44266  27.629  23.813   8.674  0.0778 -0.1988  0.2355
    1W        W44267   7.705   5.018   1.546 -0.3699 -0.5412 -0.0721
    1W        W44268   6.249  27.581   7.943 -0.1264 -0.1431  0.0067
    1W        W44269   6.528  18.552   2.122 -0.0092  0.1025  0.2213
    1W        W44270  27.451   3.113   1.100 -0.1479  0.1669  0.2611
    1W        W44271  28.248   0.744   8.363 -0.2882 -0.1540 -0.0340
    1W        W44272  26.695  21.176   7.944  0.0985 -0.1963  0.1749
    1W        W44273   8.712  28.362   0.517 -0.3079  0.1995 -0.0559
    1W        W44274   4.217  27.607   2.807  0.0866  0.3713 -0.0921
    1W        W44275   1.991  12.084   0.325 -0.1201  0.0605 -0.2437
    1W        W44276   2.729   0.734   7.433  0.1393  0.1323 -0.2046
    1W        W44277  27.348  15.569   6.245 -0.0034 -0.0757 -0.4531
    1W        W44278   0.674  25.102   7.155  0.2046  0.1599 -0.1568
    1W        W44279  15.139  15.005   1.960  0.3912 -0.2746 -0.2026
    1W        W44280   3.840   7.391   6.603  0.1658 -0.1997  0.2689
    1W        W44281  27.906   6.368   7.580  0.2774 -0.0031  0.2722
    1W        W44282  17.518  17.238   6.992  0.3408 -0.0828 -0.0579
    1W        W44283  28.157  11.956   6.900  0.2475  0.1593 -0.0158
    1W        W44284  27.548  27.312   7.220  0.0213  0.0854  0.1574
    1W        W44285   8.803   7.125   7.187 -0.3456  0.1071  0.4715
    1W        W44286   1.329  15.197   8.917 -0.1674  0.0139  0.3028
    1W        W44287   1.771  10.671   1.696 -0.0045  0.1760 -0.3323
    1W        W44288   8.536  25.258   8.232 -0.0489  0.2019  0.1505
    1W        W44289   1.764  23.631   2.831 -0.0463 -0.0202  0.1245
    1W        W44290  24.984  23.652   6.795 -0.1337  0.2283 -0.2968
    1W        W44291   1.448  26.948   7.115 -0.0345  0.1384  0.0674
    1W        W44292  25.184  18.665   8.965 -0.0753 -0.0267 -0.2145
    1W        W44293  14.501  22.456   1.706  0.2109 -0.2184  0.3763
    1W        W44294  13.939  28.834   3.183  0.1508 -0.1909  0.1820
    1W        W44295   4.296   4.473   1.165 -0.2899  0.4342 -0.1327
    1W        W44296  22.218   7.809   3.368  0.3045 -0.4288  0.3946
    1W        W44297  26.503  13.262   8.820 -0.0778  0.3512  0.3386
    1W        W44298  25.267  24.501   1.093 -0.3038  0.2023 -0.3650
    1W        W44299  21.110   4.622   1.910  0.1162 -0.2159  0.0748
    1W        W44300  10.792   0.699   7.281 -0.0017 -0.2779 -0.1620
    1W        W44301  25.038  22.794   9.257  0.0281  0.2479 -0.0265
    1W        W44302  28.198  15.873   7.800 -0.0763 -0.0861 -0.1380
    1W        W44303  18.209  17.031   0.082  0.3372  0.0733 -0.0396
    1W        W44304  17.876  28.751   7.209 -0.5370  0.2862 -0.1618
    1W        W44305   5.945  19.031   0.815 -0.1058  0.1350  0.1542
    1W        W44306   7.149  20.951   8.556 -0.1630  0.0183  0.0069
    1W        W44307  27.046   3.073   2.526  0.1399 -0.4042  0.0391
    1W        W44308   2.974   6.487   6.995 -0.0196  0.0070 -0.0484
    1W        W44309   3.994   7.763   0.030  0.2744  0.2174  0.0453
    1W        W44310  22.663  18.332   1.285 -0.3969  0.1666  0.1044
    1W        W44311   0.227  13.152   6.130 -0.3651  0.1161  0.0519
    1W        W44312   9.369   2.570   3.251 -0.1146  0.0464 -0.3231
    1W        W44313   5.776  14.343   2.432  0.0827  0.3118  0.0626
    1W        W44314  28.669  21.028   9.435  0.1159 -0.0699 -0.1173
    1W        W44315   3.185  12.376   6.286 -0.0998  0.0337 -0.1539
    1W        W44316  17.440  23.280   0.397 -0.5168 -0.0593  0.1303
    1W        W44317  18.005  20.748   0.476  0.3025  0.0251 -0.1555
    1W        W44318  18.556  27.024   9.219  0.0055  0.3786  0.2639
    1W        W44319  13.442  10.832   0.784 -0.2540  0.0780  0.4878
    1W        W44320  23.545   1.607   1.085 -0.3912 -0.0945 -0.4261
    1W        W44321  10.016   5.625   8.542 -0.2136  0.2938  0.0161
    1W        W44322   2.888  18.179   8.008  0.0027 -0.0883 -0.2624
    1W        W44323  27.914  27.670   1.113  0.2879 -0.0378  0.1598
    1W        W44324  17.361  12.158   0.972  0.3376 -0.2417  0.1302
    1W        W44325  20.522  13.704   2.074  0.0989 -0.1862 -0.2466
    1W        W44326   7.679  21.793   7.171 -0.1524 -0.0769  0.0793
    1W        W44327  10.606   5.242   0.731  0.3059 -0.1466  0.1745
    1W        W44328  12.840   1.364   2.812  0.0661  0.1738 -0.0604
    1W        W44329  20.369  12.564   1.361  0.0471  0.0275  0.0688
    1W        W44330   5.509   9.524   7.924 -0.3000 -0.1648 -0.1547
    1W        W44331   2.654  19.865   8.834  0.3491  0.1082  0.1325
    1W        W44332  13.514   5.355   7.444  0.2684  0.0604 -0.2427
    1W        W44333  17.706  16.193   0.209  0.2359 -0.2194 -0.0088
    1W        W44334  11.889  18.127   7.942 -0.0037 -0.0060  0.0239
    1W        W44335   7.036  17.321   1.440  0.0854 -0.4138 -0.2293
    1W        W44336  19.082  29.438   2.631 -0.1509  0.0566 -0.4226
    1W        W44337   9.956  24.472   7.648  0.3070 -0.0898 -0.0409
    1W        W44338  19.025  22.459   0.808 -0.2507  0.0385  0.1484
    1W        W44339  17.733  15.964   1.161 -0.2033  0.2147  0.2217
    1W        W44340   1.199   8.031   2.419 -0.5515  0.0748  0.2814
    1W        W44341   5.403   5.558   2.650  0.1076 -0.1591 -0.0890
    1W        W44342   0.444   9.603   8.752 -0.3225 -0.3076  0.2114
    1W        W44343  22.150   6.880   6.292  0.0921  0.0215 -0.3161
    1W        W44344   5.840  11.391   9.267  0.2955 -0.2938  0.2167
    1W        W44345  18.530  19.351   1.908 -0.0354  0.1643 -0.0579
    1W        W44346   4.384  29.078   9.290 -0.1389  0.1275  0.2702
    1W        W44347  22.928  10.277   9.070 -0.1282  0.1256  0.0164
    1W        W44348  25.444  13.523   1.017 -0.1067 -0.1628  0.3197
    1W        W44349  15.870  20.289   8.493  0.1558  0.1957  0.3010
    1W        W44350   9.314   2.787   7.474  0.1159  0.0893  0.1014
    1W        W44351  27.679  24.522   2.129  0.1769 -0.0548 -0.1671
    1W        W44352  29.765  29.647   3.039  0.3300  0.0491 -0.2791
    1W        W44353   9.558  24.488   9.142 -0.1785 -0.1851  0.1558
    1W        W44354  10.001  28.503   8.448  0.1837 -0.0668  0.0127
    1W        W44355  21.347  22.885   8.199  0.0806  0.2554 -0.2594
    1W        W44356   5.647  27.256   7.377 -0.2363  0.0860  0.0636
    1W        W44357   7.628  12.558   1.599 -0.1841  0.2648  0.1790
    1W        W44358  20.552  25.285   7.790  0.1324 -0.2764 -0.0417
    1W        W44359  25.673   4.650   7.253  0.1883  0.5383  0.0718
    1W        W44360   7.302   7.938   7.985  0.1213 -0.0457  0.0340
    1W        W44361   1.001  28.211   0.740  0.1115  0.2063 -0.0755
    1W        W44362   3.478   4.219   9.438 -0.0435 -0.1013  0.1123
    1W        W44363  12.633  29.708   2.289 -0.1861  0.0543 -0.0161
    1W        W44364  21.955  13.173   7.838 -0.1015 -0.1722 -0.0169
    1W        W44365  11.581  26.815   9.458 -0.0581 -0.0846 -0.1738
    1W        W44366   2.216  23.627   5.250 -0.2696  0.0564 -0.0572
    1W        W44367  11.975   6.670   7.903 -0.2976  0.1518 -0.0019
    1W        W44368  14.692  24.815   9.207 -0.0443 -0.4102  0.3444
    1W        W44369   1.559  12.533   1.626 -0.1712  0.1630 -0.0300
    1W        W44370  21.935   8.263   7.930 -0.0828  0.1256 -0.3425
    1W        W44371  19.805   4.384   6.927  0.2186  0.0473  0.1697
    1W        W44372  15.218  17.304   7.929  0.1177 -0.3328  0.4237
    1W        W44373   5.264   3.998   0.285  0.0473 -0.1943 -0.1740
    1W        W44374   4.315  19.894   6.818  0.1183  0.0206 -0.0521
    1W        W44375  20.751  19.850   7.451 -0.1074 -0.0762  0.0862
    1W        W44376  28.186   2.590   0.233  0.1097 -0.2240  0.4349
    1W        W44377   7.750   1.126   8.414 -0.0654  0.1404  0.1916
    1W        W44378   8.515   0.684   7.109 -0.0699 -0.1415  0.0254
    1W        W44379  26.469   7.148   2.508  0.0595 -0.0641  0.2580
    1W        W44380   2.879   9.693   0.349 -0.0608 -0.2211 -0.2659
    1W        W44381  16.517  14.673   7.222  0.0326 -0.3669 -0.1172
    1W        W44382  15.304  20.732   1.653 -0.0310 -0.0735  0.0716
    1W        W44383  22.920   3.285   7.217  0.0586 -0.1561 -0.2016
    1W        W44384   5.391  25.454   1.637  0.1328 -0.1106 -0.3007
    1W        W44385   2.867  13.423   7.177 -0.3064  0.0617 -0.2139
    1W        W44386   3.258  21.296   0.483  0.2259 -0.0996  0.0494
    1W        W44387   7.662  17.519   8.463  0.0462  0.2662  0.0094
    1W        W44388  24.136  16.131   6.145 -0.0844  0.0949  0.0962
    1W        W44389  13.909   9.528   2.197  0.4019 -0.0959  0.0143
    1W        W44390  21.793  27.787   7.692 -0.1487  0.1088  0.0242
    1W        W44391  23.553  10.605   7.155  0.4202 -0.0519 -0.1501
    1W        W44392  22.275   7.715   0.064 -0.0491  0.2335  0.3799
    1W        W44393   9.848  17.607   1.356  0.2878  0.6402  0.2357
    1W        W44394   2.427   3.106   3.015 -0.2042 -0.0559 -0.0362
    1W        W44395  17.462  17.505   8.140  0.1143 -0.1742 -0.1336
    1W        W44396   8.815  10.153   7.900 -0.0573  0.3431  0.1123
    1W        W44397  15.431  25.782   1.080  0.2404 -0.0188 -0.0792
    1W        W44398  11.600  21.088   1.411  0.0336 -0.0461 -0.0155
    1W        W44399  19.750   0.614   2.995 -0.0640  0.2001 -0.2851
    1W        W44400   7.792  10.023   8.836 -0.0411  0.1340  0.1731
    1W        W44401  16.240   3.454   8.991 -0.0068 -0.1804  0.1628
    1W        W44402  20.007   3.523   7.570  0.2677  0.4072  0.0407
    1W        W44403  18.047  26.560   2.118  0.4111  0.0957 -0.0174
    1W        W44404  11.836  12.830   8.051  0.0271 -0.3025 -0.0753
    1W        W44405  27.683   3.270   7.704 -0.1099  0.0200 -0.3395
    1W        W44406  20.275   5.230   9.320  0.0818 -0.0461  0.4710
    1W        W44407  14.502  14.743   7.278  0.2125  0.1317 -0.1664
    1W        W44408  22.970  20.367   1.349 -0.0026 -0.0537 -0.1049
    1W        W44409  22.690  23.539   1.897  0.1588  0.0658 -0.0321
    1W        W44410   2.042  25.515   8.703 -0.2025 -0.0993  0.1273
    1W        W44411   4.336  26.919   9.170 -0.0815 -0.0683  0.1881
    1W        W44412  20.051   0.961   2.038 -0.2771  0.2773 -0.2935
    1W        W44413  16.736   7.471   7.615 -0.1332 -0.0555 -0.3089
    1W        W44414  12.524  21.838   6.858  0.0640 -0.0028 -0.0190
    1W        W44415  17.539  20.856   8.626 -0.0673  0.1611 -0.2487
    1W        W44416  22.410  25.994   8.499  0.0045  0.1179 -0.0017
    1W        W44417  16.010   2.015   0.167  0.0973  0.2492 -0.4891
    1W        W44418   1.584  25.417   7.298 -0.3028 -0.7612 -0.2538
    1W        W44419  27.707  18.622   8.837  0.0740  0.0708  0.3429
    1W        W44420  11.644  25.690   1.925 -0.0669  0.2584 -0.0246
    1W        W44421  15.013   3.051   0.831  0.1148 -0.1096  0.3228
    1W        W44422  27.600  20.976   1.494  0.0692 -0.0550  0.1363
    1W        W44423  14.312  24.810   2.030 -0.2539 -0.2793 -0.0850
    1W        W44424  19.650   9.499   6.792  0.0778 -0.5218 -0.3702
    1W        W44425  20.211  18.765   1.954  0.0182  0.0606  0.3091
    1W        W44426  18.407  10.658   9.287  0.1686 -0.0128  0.0619
    1W        W44427  21.578  11.687   1.079 -0.1475 -0.1951 -0.0486
    1W        W44428   2.440   9.328   8.330 -0.1748 -0.1911  0.0745
    1W        W44429  12.400  16.142   1.623 -0.3634 -0.1707 -0.0925
    1W        W44430  24.074  25.264   1.731  0.1284 -0.0521 -0.2795
    1W        W44431  13.473  23.019   9.285  0.0432 -0.1589 -0.0884
    1W        W44432  16.639  27.782   2.862  0.4327  0.0765  0.1574
    1W        W44433  23.382  10.423   6.743 -0.1533  0.0618 -0.1652
    1W        W44434  29.328  13.339   7.777  0.2871  0.0654 -0.3184
    1W        W44435  24.682  17.220   7.392  0.0114  0.0389  0.1414
    1W        W44436  21.735  10.417   0.318  0.3222 -0.0018 -0.4270
    1W        W44437  16.314  15.224   8.328 -0.1922 -0.3679  0.2082
    1W        W44438  26.343   3.854   3.576  0.0496  0.1426 -0.0021
    1W        W44439   1.158  24.689   1.105  0.1511 -0.0247 -0.3107
    1W        W44440  18.938  23.909   2.436 -0.2606 -0.1225  0.1022
    1W        W44441   9.261  12.795   2.178  0.0260  0.0643  0.1996
    1W        W44442   6.851  17.124   8.255  0.2879 -0.0409  0.1514
    1W        W44443  20.095  14.361   1.879  0.1054  0.2100  0.2813
    1W        W44444  11.432   8.602   2.636 -0.0898 -0.0358  0.3288
    1W        W44445   1.991  11.093   8.279  0.2653 -0.0396 -0.0589
    1W        W44446  29.018  28.615   2.691  0.0520  0.2052  0.0156
    1W        W44447   3.768  17.553   0.477 -0.3545 -0.1374 -0.2147
    1W        W44448  25.103  20.710   0.743  0.1333 -0.3480  0.2936
    1W        W44449  14.161  28.684   7.411 -0.3291 -0.3043 -0.0095
    1W        W44450  23.881   2.460   7.204 -0.0612 -0.1371  0.0014
    1W        W44451  11.465  12.790   8.880 -0.2086 -0.1618 -0.1812
    1W        W44452  19.037  17.725   7.274  0.0802  0.4041 -0.0700
    1W        W44453  21.421   8.319   1.225  0.0938 -0.1858 -0.1193
    1W        W44454  25.854  11.571   1.096  0.1732  0.0592 -0.0117
    1W        W44455   3.693  21.075   5.873  0.1243 -0.1669 -0.3545
    1W        W44456   5.741  25.313   6.700  0.1818  0.0537  0.0440
    1W        W44457  29.446  13.288   1.869 -0.2721  0.0192 -0.2876
    1W        W44458   8.361  17.245   1.703  0.0041  0.1403 -0.1968
    1W        W44459  21.032   0.088   2.654  0.0775 -0.0834  0.1491
    1W        W44460   2.430   1.907   8.318  0.1129  0.2540 -0.1475
    1W        W44461   6.199  15.724   2.466  0.0677 -0.0299 -0.1245
    1W        W44462  21.650   2.315   7.997 -0.2774 -0.1354 -0.2000
    1W        W44463  20.631  12.864   0.192  0.0576 -0.0080  0.4308
    1W        W44464  16.593   0.554   8.537  0.0887 -0.0936 -0.1910
    1W        W44465  12.589   7.181   7.359  0.0510  0.0481 -0.4319
    1W        W44466  24.581  22.345   1.773  0.0834  0.0728  0.0960
    1W        W44467  24.421  15.490   0.974 -0.1919 -0.0394  0.1076
    1W        W44468  29.083  12.627   6.341  0.0527  0.0825  0.2521
    1W        W44469  16.019  25.943   7.930 -0.0672  0.0640  0.0682
    1W        W44470  24.673   6.654   3.220  0.3901  0.1315 -0.2102
    1W        W44471  15.257   9.655   8.984 -0.0214  0.1346  0.2953
    1W        W44472  18.900  26.598   0.084  0.2627 -0.0444 -0.5897
    1W        W44473  10.359  28.900   1.300  0.2148  0.2645  0.2717
    1W        W44474   3.593  19.618   7.697 -0.0121  0.0414 -0.0132
    1W        W44475   7.233  11.909   2.325  0.0367 -0.0518  0.1916
    1W        W44476  22.931  16.170   0.894  0.0822 -0.0666 -0.2383
    1W        W44477  12.488   6.388   6.633 -0.3325  0.3774  0.6421
    1W        W44478   7.732   9.825   8.225 -0.2183 -0.1898  0.0317
    1W        W44479  26.483   3.813   0.676 -0.4337  0.0344 -0.1320
    1W        W44480   3.064  13.679   7.545 -0.1075 -0.1514 -0.2512
    1W        W44481  21.926  24.220   1.970  0.1547 -0.0326  0.1227
    1W        W44482  27.188  10.552   6.836  0.0732  0.1943  0.2615
    1W        W44483  24.141  21.135   1.745 -0.0015  0.3535 -0.2407
    1W        W44484   7.089  27.951   7.538  0.2135  0.0457  0.0087
    1W        W44485   4.289   4.048   9.370  0.0852  0.1853 -0.2994
    1W        W44486  27.337   2.749   7.601 -0.1736 -0.3386  0.1121
    1W        W44487  22.912   5.000   3.175 -0.2637 -0.1025 -0.0989
    1W        W44488   3.052  16.664   0.544 -0.0097  0.0249 -0.1311
    1W        W44489  19.306  21.488   7.627 -0.0516 -0.0226 -0.1119
    1W        W44490   7.120  11.202   7.277 -0.0184 -0.2457 -0.0536
    1W        W44491   5.887  12.358   8.737 -0.0438  0.0129 -0.1984
    1W        W44492  12.846  17.358   7.672  0.1681  0.0276 -0.0279
    1W        W44493  14.355  27.887   2.968 -0.1903 -0.2427 -0.1406
    1W        W44494  23.017  12.886   2.492 -0.1636  0.0865  0.1636
    1W        W44495   2.299  28.641   9.339 -0.2452 -0.3190 -0.2950
    1W        W44496   0.905   5.658   3.251 -0.0822  0.1098 -0.2096
    1W        W44497   1.481   2.640   9.381 -0.1808 -0.0228  0.1248
    1W        W44498   3.412  21.699   0.234  0.1923 -0.1543 -0.0143
    1W        W44499  12.080   5.527   8.786  0.0499  0.0774  0.0751
    1W        W44500  14.093  18.054   0.315 -0.0675 -0.3374  0.2850
    1W        W44501  13.344  21.158   0.867 -0.0224 -0.2915 -0.2065
    1W        W44502  17.040   3.951   0.251  0.0043 -0.0160 -0.0874
    1W        W44503   8.350  20.997   0.538 -0.2062  0.0379  0.0877
    1W        W44504   1.883   1.092   9.343  0.3214  0.2251 -0.3027
    1W        W44505   6.012   4.414   2.599  0.4796 -0.0566 -0.0347
    1W        W44506  20.766   8.227   1.811 -0.1956 -0.1998  0.1158
    1W        W44507  23.357   6.703   2.501 -0.0098 -0.3561  0.0822
    1W        W44508  22.721  22.166   0.794  0.0412 -0.0742  0.0973
    1W        W44509  28.964  10.915   9.024 -0.0693  0.1837 -0.2900
    1W        W44510   4.430  27.843   2.389 -0.0366 -0.1879  0.1271
    1W        W44511  22.279  29.416   9.005  0.2120 -0.2327  0.0470
    1W        W44512  24.841   0.659   8.283 -0.3110  0.0522 -0.1814
    1W        W44513  14.752   7.779   7.563  0.2427 -0.1465 -0.0750
    1W        W44514   9.053  11.583   8.946 -0.2619  0.0546  0.3807
    1W        W44515  22.458   9.810   1.586 -0.0989  0.2006  0.0487
    1W        W44516   9.252  16.552   7.099  0.1112  0.0548  0.0161
    1W        W44517   6.494   0.228   1.063 -0.1011 -0.0864  0.1569
    1W        W44518  27.484   6.133   9.055  0.0551 -0.0852 -0.0014
    1W        W44519   4.555  18.648   2.374 -0.2317 -0.2709 -0.0789
    1W        W44520  28.973  13.874   1.161  0.1033  0.2717  0.0495
    1W        W44521  25.573   5.593   7.377 -0.0075  0.1647  0.1375
    1W        W44522  10.720  26.916   2.145 -0.2657 -0.0402  0.2400
    1W        W44523   9.441   8.158   2.916  0.1041  0.0983  0.1051
    1W        W44524   3.156  19.902   0.842 -0.2499  0.1154 -0.0626
    1W        W44525  15.633   8.895   0.102 -0.0649  0.0771 -0.3840
    1W        W44526  13.683   9.990   1.925 -0.0155  0.3506  0.0185
    1W        W44527   9.589   6.057   0.704 -0.2599 -0.1048 -0.2258
    1W        W44528   4.124   8.691   2.956 -0.0500  0.2200 -0.2048
    1W        W44529  27.307   8.594   1.935 -0.0804 -0.0135  0.2856
    1W        W44530  14.631  25.020   3.219 -0.1050 -0.0208  0.0342
    1W        W44531  27.715  12.726   1.041  0.2295  0.1892 -0.1016
    1W        W44532  14.144  27.081   8.793 -0.0597  0.4182  0.1541
    1W        W44533  11.801  21.167   7.852  0.1817 -0.0947 -0.0670
    1W        W44534  10.514   8.665   2.231  0.1515  0.0643 -0.1818
    1W        W44535  29.281  13.885   6.938 -0.0799 -0.0827  0.1295
    1W        W44536  18.600   3.867   8.514  0.1255 -0.2038  0.1894
    1W        W44537   3.925  18.726   1.931  0.1338 -0.2776 -0.1469
    1W        W44538  29.791  23.498   2.527  0.2454 -0.1111  0.2607
    1W        W44539  18.744   2.135   1.637 -0.0173 -0.0186  0.0702
    1W        W44540   8.332  17.246   7.912 -0.2686  0.0958 -0.0011
    1W        W44541  18.181   4.304   7.412 -0.2890  0.3836  0.0856
    1W        W44542  21.522  21.689   0.073 -0.1318  0.1245  0.0311
    1W        W44543  28.663  17.268   2.673 -0.2561 -0.1567 -0.0414
    1W        W44544  21.563  26.569   7.815 -0.2003  0.1385  0.2185
    1W        W44545  22.614   4.124   2.502 -0.0583 -0.1928 -0.0536
    1W        W44546   5.830   8.647   1.424  0.2942  0.0829  0.0320
    1W        W44547   8.977   7.504   3.231 -0.0151 -0.0389 -0.0056
    1W        W44548  21.685  17.031   6.534 -0.1127 -0.1405  0.3101
    1W        W44549   6.995  17.382   6.464 -0.3215  0.3317 -0.0003
    1W        W44550  11.640   3.599   7.177 -0.0797  0.1510 -0.2539
    1W        W44551  17.654   0.072   6.440  0.2094  0.2005 -0.2505
    1W        W44552   8.735  29.563   8.660 -0.1605  0.3265 -0.0254
    1W        W44553   7.514  23.540   7.855 -0.1244  0.1915 -0.0194
    1W        W44554   9.830  17.181   8.717 -0.2074  0.1724 -0.2205
    1W        W44555  15.559   3.251   8.232 -0.1515 -0.1654  0.0193
    1W        W44556  16.043  29.423   1.967  0.2235 -0.0654  0.1534
    1W        W44557  18.269  17.440   7.372 -0.0573  0.1733  0.1205
    1W        W44558   5.359   8.585   7.710  0.1887 -0.1042  0.0113
    1W        W44559  18.460  13.022   7.530  0.3128 -0.2801  0.0901
    1W        W44560  11.809  11.754   2.026 -0.1582 -0.0211  0.0078
    1W        W44561  17.843   6.496   8.206 -0.2581  0.0906 -0.0107
    1W        W44562   2.504   2.761   7.204 -0.0857 -0.1246  0.0946
    1W        W44563  26.089  13.904   6.706 -0.2501 -0.0163  0.1355
    1W        W44564   0.644  15.811   8.861 -0.0040  0.1215  0.2035
    1W        W44565   3.260  28.530   6.890 -0.1522  0.1904  0.1442
    1W        W44566   0.350   3.278   9.467  0.0831 -0.0433  0.0756
    1W        W44567  20.902  26.516   9.007  0.2660  0.0951  0.0740
    1W        W44568  18.580  18.748   8.763  0.5109  0.1186 -0.1213
    1W        W44569  22.685  24.319   2.359  0.0685 -0.0980  0.0124
    1W        W44570  28.712   1.194   9.122 -0.0199  0.0572  0.1250
    1W        W44571   4.522  27.034   0.221 -0.2704 -0.0912 -0.0146
    1W        W44572   5.925   9.244   7.944 -0.1075 -0.1390 -0.1773
    1W        W44573   9.857  28.431   2.366 -0.1070 -0.0364 -0.0281
    1W        W44574  21.906   7.802   7.844  0.0977  0.1680 -0.0599
    1W        W44575  20.518   9.451   8.869  0.0366 -0.2469  0.0707
    1W        W44576  14.547   8.512   2.968 -0.0727 -0.2385  0.0197
    1W        W44577   0.602  11.948   1.185 -0.0087  0.0701  0.0742
    1W        W44578  24.300   2.995   9.385  0.0936 -0.2083 -0.1801
    1W        W44579  11.798  17.657   9.112 -0.1978 -0.2580 -0.3310
    1W        W44580  18.208   5.798   2.599 -0.0746  0.2030  0.1257
    1W        W44581  27.096   4.981   1.747  0.1037 -0.1156 -0.0776
    1W        W44582  29.749   1.858   9.197 -0.1620 -0.0839 -0.0338
    1W        W44583  29.365  22.546   7.840 -0.1577 -0.0372  0.2360
    1W        W44584  13.011  11.722   1.060 -0.0998 -0.0931 -0.2260
    1W        W44585  28.242   2.808   2.255 -0.2113  0.0107  0.2837
    1W        W44586  11.005  17.282   8.053  0.0590  0.1817 -0.2040
    1W        W44587  21.837   2.843   8.920 -0.0780 -0.1876  0.0919
    1W        W44588   6.379   1.823   3.115 -0.0738  0.2690 -0.0513
    1W        W44589  27.950   3.191   2.060  0.2760 -0.1971  0.1046
    1W        W44590   9.036  15.933   1.088  0.1879  0.3710  0.0936
    1W        W44591  23.184  13.020   2.043 -0.1026  0.2769 -0.0356
    1W        W44592   5.996  21.814   5.799 -0.0299  0.0644  0.1491
    1W        W44593  17.456  19.975   1.676  0.0973  0.2570 -0.2623
    1W        W44594   2.131   7.224   3.259 -0.3212  0.5304 -0.0521
    1W        W44595  19.602   5.692   1.810 -0.0509 -0.1364  0.2655
    1W        W44596  28.349  10.068   2.366 -0.1308  0.3915  0.5706
    1W        W44597   8.027  16.302   8.436 -0.2174  0.3319  0.2309
    1W        W44598  15.485   6.348   2.295 -0.0924 -0.1366 -0.2027
    1W        W44599   0.665  28.908   2.939 -0.2421 -0.0755 -0.1489
    1W        W44600  14.891   8.723   7.490 -0.0011  0.2680  0.1586
    1W        W44601   7.957   9.566   0.219  0.0999 -0.3128  0.2562
    1W        W44602  28.567  25.046   0.068 -0.0035  0.2241  0.2051
    1W        W44603   3.121  25.901   8.048 -0.1182  0.1687 -0.1158
    1W        W44604   8.002   5.531   8.673 -0.0076 -0.2368  0.3242
    1W        W44605   4.978  22.608   2.222  0.1012 -0.2389 -0.1125
    1W        W44606  29.187   0.722   7.037  0.0775 -0.0432  0.1224
    1W        W44607  12.415  15.612   7.031 -0.0894 -0.1815  0.0748
    1W        W44608  18.520  20.910   7.369 -0.0849  0.2202 -0.0219
    1W        W44609  16.162  15.297   7.335  0.3553  0.0617 -0.1951
    1W        W44610   3.115  12.937   1.458 -0.1741  0.0018  0.1783
    1W        W44611  24.821  19.650   1.429  0.1130  0.1676 -0.1804
    1W        W44612  24.240  27.636   0.852  0.0432 -0.0598  0.4317
    1W        W44613  10.087  23.981   7.705 -0.1958  0.0943  0.0920
    1W        W44614   2.029   8.815   2.324  0.1349 -0.2192 -0.1266
    1W        W44615  29.162  29.154   2.699  0.3236 -0.0133  0.3548
    1W        W44616   2.615  24.337   8.969 -0.0916 -0.2134 -0.3061
    1W        W44617   9.115  24.597   9.318  0.1344  0.4536  0.1679
    1W        W44618  21.835  14.326   7.390 -0.0916 -0.3677  0.1398
    1W        W44619  26.050  20.107   0.316  0.0897 -0.0694  0.4711
    1W        W44620   7.499  12.525   7.656 -0.1000  0.2136 -0.0377
    1W        W44621   5.954   5.224   1.086  0.2542  0.0117  0.0608
    1W        W44622  18.184  20.975   0.865 -0.2888 -0.3177 -0.1313
    1W        W44623  17.089  27.917   2.056  0.0142  0.1756  0.0667
    1W        W44624   2.957  13.830   8.962 -0.2449  0.0738  0.2484
    1W        W44625  13.219  29.146   7.683  0.1913  0.1499 -0.1930
    1W        W44626   0.553  14.384   7.876  0.1120 -0.0265  0.1647
    1W        W44627   1.303   2.783   1.819 -0.1262  0.0081 -0.1815
    1W        W44628   9.782  23.065   1.822  0.1518  0.1078 -0.1196
    1W        W44629   6.441  18.378   7.908  0.1621  0.3250  0.2123
    1W        W44630   1.444   8.745   8.465  0.1165 -0.3365  0.1023
    1W        W44631   5.408  15.866   6.355  0.1029 -0.2379 -0.0822
    1W        W44632  23.165   3.676   9.059  0.2327  0.0118 -0.1753
    1W        W44633   8.487  27.326   1.624  0.1576  0.0061 -0.3337
    1W        W44634  23.767  19.849   1.875 -0.1995  0.3116  0.2126
    1W        W44635  24.481   4.437   1.516  0.1292 -0.0082  0.1777
    1W        W44636  10.611  15.208   0.158  0.1109  0.3620  0.0202
    1W        W44637  10.340  28.053   7.185  0.0979  0.0279  0.0258
    1W        W44638  19.460   0.358   2.025  0.2403  0.2555  0.0701
    1W        W44639  26.054   3.282   8.426  0.2652  0.3809  0.0059
    1W        W44640   5.081   6.275   0.296 -0.1594 -0.0873 -0.0612
    1W        W44641  17.853  13.618   6.885 -0.1890 -0.2667  0.1423
    1W        W44642  29.283  26.520   0.397  0.0575  0.1476  0.2037
    1W        W44643   1.935  14.426   1.684 -0.0105 -0.2288  0.0000
    1W        W44644  19.306  22.630   1.178  0.2666 -0.1298 -0.2705
    1W        W44645   3.271  12.262   0.131 -0.1227 -0.0107 -0.2630
    1W        W44646  12.650  26.531   1.039 -0.1469 -0.2394 -0.1492
    1W        W44647   9.540  23.636   7.531 -0.0496  0.1190  0.3399
    1W        W44648  26.269  11.907   2.041  0.1769  0.1331 -0.1846
    1W        W44649   7.268   2.371   1.587  0.1361  0.0821  0.1173
    1W        W44650   9.206   9.429   2.873  0.1155  0.1903 -0.1007
    1W        W44651  16.157   5.748   7.260  0.2190 -0.1566  0.2629
    1W        W44652   3.224  12.254   1.216 -0.1339  0.2421  0.1850
    1W        W44653  16.591   7.432   6.824 -0.1244  0.1915  0.0094
    1W        W44654  12.732  25.473   8.825 -0.2438  0.1893  0.0785
    1W        W44655  27.836   0.662   7.028  0.3529 -0.1950  0.1658
    1W        W44656  14.646  13.170   7.465  0.3231 -0.0513 -0.0269
    1W        W44657  10.492   3.215   0.785  0.0216 -0.1007  0.3929
    1W        W44658  23.641  14.564   7.611  0.1271 -0.0730  0.1840
    1W        W44659  29.822  19.671   0.995  0.1165  0.0180 -0.2354
    1W        W44660  22.786  19.706   9.362 -0.3406  0.1362  0.0329
    1W        W44661  19.892  27.299   0.459 -0.1823 -0.0015 -0.4128
    1W        W44662  22.785   1.856   1.600 -0.0621 -0.0560  0.0894
    1W        W44663   4.024  20.086   2.401  0.0377  0.2907  0.4253
    1W        W44664  27.823  21.511   8.822  0.0091  0.0591  0.0862
    1W        W44665  12.556  12.574   8.786 -0.0688  0.0737 -0.1796
    1W        W44666   9.446  26.264   1.345  0.0504 -0.2041 -0.1576
    1W        W44667  20.287   4.914   0.604 -0.2764  0.2047 -0.1603
    1W        W44668   0.025   0.973   6.436  0.1975 -0.0116 -0.2179
    1W        W44669  28.851  26.187   8.095  0.2208 -0.0745  0.1743
    1W        W44670   7.457   9.857   7.278 -0.0725 -0.1882 -0.0212
    1W        W44671  23.839   5.224   7.936 -0.0522 -0.0177 -0.1811
    1W        W44672  22.367  29.510   7.452  0.1161  0.2143  0.3304
    1W        W44673  12.569  12.413   7.947 -0.1030  0.1255  0.0886
    1W        W44674   0.564  25.997   0.864  0.1924  0.1796  0.0938
    1W        W44675  21.623  28.759   2.093  0.0524  0.0365  0.3307
    1W        W44676  20.898   3.070   0.591 -0.1858 -0.1052  0.0578
    1W        W44677  28.265   4.656   2.858 -0.2347 -0.2641  0.0231
    1W        W44678   3.970  16.017   8.444  0.2919  0.2042 -0.1739
    1W        W44679  16.834  12.427   8.655 -0.3139 -0.0687 -0.1549
    1W        W44680  17.657  19.936   2.230  0.0389 -0.5587 -0.1234
    1W        W44681  23.709  23.483   1.636  0.1828 -0.0240 -0.1978
    1W        W44682  14.628  16.938   0.314  0.0227 -0.2265  0.2693
    1W        W44683  21.906  21.015   3.432 -0.1471  0.0303 -0.3607
    1W        W44684   9.562  15.757   2.286  0.4578 -0.0702  0.5006
    1W        W44685   0.500  19.942   1.590 -0.0739 -0.0397  0.3958
    1W        W44686  11.372   1.547   4.039  0.1732 -0.1534 -0.2451
    1W        W44687   1.518  19.520   0.911 -0.2192 -0.1500 -0.0320
    1W        W44688  29.227  12.146   0.297 -0.0566  0.2923 -0.2181
    1W        W44689  29.175  20.900   9.392 -0.3530 -0.0895 -0.0859
    1W        W44690  11.343  10.827   2.809  0.0441  0.0012  0.1058
    1W        W44691  26.928   4.493   7.909  0.0829  0.1282  0.0119
    1W        W44692   0.401   4.779   3.089  0.2919  0.0132 -0.0420
    1W        W44693  20.647  14.973   0.543  0.2258 -0.1258  0.0752
    1W        W44694   4.032  14.939   6.860 -0.2363 -0.0958  0.0415
    1W        W44695  16.950   1.437   8.823  0.0825  0.4013  0.1033
    1W        W44696  18.439  18.093   6.483 -0.1692  0.0086 -0.1838
    1W        W44697  12.136   2.812   2.842  0.1280 -0.1271 -0.0414
    1W        W44698  12.058   4.322   2.317 -0.0782 -0.0123 -0.0129
    1W        W44699   2.753  27.568   7.707 -0.1103 -0.3280 -0.0502
    1W        W44700   0.397  15.246   8.241 -0.0231  0.2082 -0.1020
    1W        W44701  19.271   3.438   0.899 -0.1575  0.2209  0.1292
    1W        W44702  14.467  28.186   9.071  0.1534 -0.0641 -0.3446
    1W        W44703   5.807  22.789   1.424 -0.0348  0.0863  0.1746
    1W        W44704  19.252  18.772   8.300 -0.1151 -0.1354 -0.1044
    1W        W44705   4.445  19.148   0.602  0.2624 -0.0161 -0.1465
    1W        W44706   5.865  26.448   6.183 -0.1278  0.0681 -0.2992
    1W        W44707   6.266   7.262   8.277 -0.0839  0.2465  0.5242
    1W        W44708   3.890   3.730   7.769 -0.0141  0.0295  0.4365
    1W        W44709  19.919  19.939   0.917 -0.2029  0.0395  0.2093
    1W        W44710   9.745  14.617   9.113 -0.0366  0.0855  0.0847
    1W        W44711  13.172   5.415   2.605 -0.0555  0.3538 -0.1087
    1W        W44712  13.937   6.918   3.319  0.0818 -0.0290  0.1542
    1W        W44713  27.835  14.403   6.807  0.1449 -0.3027 -0.1319
    1W        W44714  25.874   1.354   9.155 -0.0476 -0.1480 -0.0079
    1W        W44715  25.611  16.383   1.980  0.0179  0.1159 -0.0575
    1W        W44716   1.270   4.528   0.690 -0.0159 -0.0049 -0.3278
    1W        W44717  19.579   5.403   6.750 -0.0344  0.3333 -0.1930
    1W        W44718  10.181   6.640   1.698  0.2661 -0.0726  0.2848
    1W        W44719  10.403  11.902   7.667 -0.1787 -0.1330  0.1981
    1W        W44720   1.756   4.272   2.530  0.0856  0.0348  0.0233
    1W        W44721   5.116   3.421   8.566 -0.3136  0.1199  0.0394
    1W        W44722   6.779   0.114   9.087  0.3183 -0.0248  0.0749
    1W        W44723  11.774  25.413   8.481 -0.0837 -0.1522 -0.2688
    1W        W44724   8.752  26.544   6.021  0.2677  0.0232 -0.0760
    1W        W44725  29.539  22.731   9.292  0.1854  0.1766 -0.1082
    1W        W44726  20.145  25.948   1.275  0.3971  0.0076  0.0400
    1W        W44727  13.220   9.764   1.907 -0.0964  0.1714 -0.0995
    1W        W44728   4.827  25.380   1.539  0.1279  0.0353 -0.2318
    1W        W44729   6.325  14.218   8.169  0.1536  0.1600  0.0665
    1W        W44730   9.231  18.627   1.841 -0.1768  0.3011  0.2396
    1W        W44731  22.750  17.503   7.829  0.1131  0.0220 -0.0988
    1W        W44732  19.449  11.250   1.113 -0.0485  0.1004 -0.2331
    1W        W44733  20.554   8.626   1.587  0.3999 -0.1860 -0.0799
    1W        W44734   0.579  29.871   8.929  0.0077 -0.1790  0.1992
    1W        W44735  20.801  18.085   1.477 -0.1058 -0.0760  0.2616
    1W        W44736  26.305   0.036   7.100  0.0795  0.0118  0.3019
    1W        W44737   6.390  14.797   7.426 -0.1397 -0.2416  0.2801
    1W        W44738  11.374   2.925   1.598  0.1281 -0.0549  0.1153
    1W        W44739   6.138   2.787   8.662  0.1905  0.0325 -0.0471
    1W        W44740   4.892   9.757   7.392  0.0815  0.1579  0.0590
    1W        W44741  10.139   0.472   0.706 -0.3120  0.2037 -0.1367
    1W        W44742  22.641  13.799   8.355 -0.2456 -0.1231 -0.1947
    1W        W44743  25.596  21.059   7.774  0.1521  0.2794 -0.1472
    1W        W44744   8.199   3.753   1.197  0.3232  0.0447 -0.3662
    1W        W44745   1.676  16.120   6.968 -0.1735 -0.1643  0.2673
    1W        W44746   2.277   8.335   7.475 -0.3608 -0.3893  0.1794
    1W        W44747   3.002  22.510   1.718 -0.1961 -0.2091  0.1874
    1W        W44748  22.076  26.071   7.240 -0.2015 -0.0139  0.1598
    1W        W44749  25.437  11.776   0.762  0.2382  0.0445 -0.0538
    1W        W44750  23.787  28.042   2.663  0.2985 -0.1513 -0.0802
    1W        W44751  17.716  27.996   2.677  0.1352  0.1176 -0.1067
    1W        W44752  15.157  24.087   1.996 -0.1885  0.1431 -0.0589
    1W        W44753  27.893   7.844   0.608 -0.1062 -0.0463 -0.1152
    1W        W44754  14.272  25.560   1.008 -0.1089 -0.0664  0.0538
    1W        W44755  24.641  22.504   1.280  0.2721  0.1946 -0.2936
    1W        W44756  24.430  20.654   2.316  0.0248 -0.1280 -0.3012
    1W        W44757  24.226  11.204   9.131  0.0929 -0.1696 -0.1143
    1W        W44758   3.402   3.159   0.653 -0.3432 -0.0007 -0.0004
    1W        W44759  13.981  27.418   3.125  0.2427 -0.0751 -0.0019
    1W        W44760   5.070  17.929   1.222 -0.3747 -0.3309 -0.0982
    1W        W44761  20.258  14.632   1.477  0.1853 -0.3140  0.2188
    1W        W44762  19.911   7.096   8.248  0.0945 -0.2072 -0.1302
    1W        W44763  16.253  12.945   7.753 -0.0776  0.1317  0.0403
    1W        W44764  10.192  22.164   7.132  0.0054  0.0978 -0.1606
    1W        W44765  26.048   3.543   7.849 -0.3728  0.2349  0.0583
    1W        W44766   9.787  17.401   7.138  0.0582  0.3739  0.1265
    1W        W44767   7.790   1.064   0.699 -0.6410 -0.0092 -0.0038
    1W        W44768   7.924  22.921   1.273  0.0351  0.1538 -0.0876
    1W        W44769  22.739   4.553   1.808 -0.1340 -0.0370 -0.1506
    1W        W44770  10.822  20.396   7.903 -0.2119  0.1656  0.0037
    1W        W44771  27.946  16.704   0.943  0.0815 -0.0485 -0.0004
    1W        W44772   3.099  16.113   1.325 -0.1380  0.0270 -0.2492
    1W        W44773   1.983   8.882   7.422  0.1207  0.3240 -0.4442
    1W        W44774  15.018  22.592   6.898 -0.1414  0.2595  0.3323
    1W        W44775  11.659  24.001   0.116 -0.2585  0.0581 -0.0595
    1W        W44776  23.072   6.738   2.956  0.2753 -0.3903 -0.2420
    1W        W44777  17.245   9.275   7.043 -0.0461 -0.1309  0.1072
    1W        W44778   6.387  21.177   0.649 -0.1498 -0.4529  0.1902
    1W        W44779   0.680  14.426   8.672 -0.1185 -0.0003  0.0840
    1W        W44780  13.224  25.472   8.514  0.4809  0.3248 -0.0286
    1W        W44781  14.556  21.458   6.266 -0.2134 -0.0996 -0.1715
    1W        W44782   0.974  25.294   1.930 -0.0418  0.1172  0.1817
    1W        W44783  28.588   8.261   0.536  0.2520 -0.1031 -0.4059
    1W        W44784  23.180  14.019   1.683  0.0807  0.0659  0.0682
    1W        W44785  14.080   6.516   0.263  0.1771  0.0668 -0.0131
    1W        W44786   7.044  26.266   1.857  0.0062  0.0222 -0.2297
    1W        W44787   5.486   1.943   1.080  0.0349  0.1396 -0.2502
    1W        W44788  15.986   0.447   1.214  0.0697  0.0787 -0.0178
    1W        W44789  15.189   3.928   7.419  0.0356  0.2687  0.0465
    1W        W44790   3.470  24.891   1.906  0.1062 -0.0993 -0.1491
    1W        W44791  27.981   1.150   0.099 -0.5511 -0.1790  0.0450
    1W        W44792   4.092  27.387   2.380 -0.3873  0.3300  0.1930
    1W        W44793  22.891  12.249   0.081 -0.1822  0.1538  0.0672
    1W        W44794  25.635   1.211   7.988 -0.0434 -0.2191 -0.0813
    1W        W44795  19.296   9.919   6.703  0.1376  0.1887  0.0889
    1W        W44796  20.803  28.864   7.351  0.0573  0.2208 -0.1479
    1W        W44797   3.428  14.910   9.225 -0.1582 -0.0524 -0.0083
    1W        W44798  18.836  16.862   7.450  0.1712 -0.0960  0.3099
    1W        W44799  16.025  21.380   7.904 -0.0332  0.1346  0.1654
    1W        W44800   6.616  23.241   7.711 -0.1767  0.3986  0.2921
    1W        W44801  12.932  16.512   7.358 -0.2678 -0.1442  0.0286
    1W        W44802  13.918  10.253   0.387  0.1352  0.0136 -0.0881
    1W        W44803  15.418  14.638   9.050  0.1106 -0.0093  0.1182
    1W        W44804  13.102   4.235   8.445  0.1477 -0.3087  0.0687
    1W        W44805  22.749  25.909   2.011  0.0432  0.0499 -0.4467
    1W        W44806  25.586   6.695   8.221  0.0901  0.1530 -0.1586
    1W        W44807   0.818  16.655   2.269  0.0741 -0.0167  0.3491
    1W        W44808   5.664   0.284   0.611 -0.4443 -0.1688 -0.2730
    1W        W44809   7.036  21.078   1.301 -0.0630  0.1813  0.1822
    1W        W44810  25.009  29.674   8.285 -0.4018  0.0182 -0.0225
    1W        W44811  28.637   7.765   7.962  0.2220 -0.2395 -0.2161
    1W        W44812   7.777   8.503   8.546  0.1193  0.1045  0.1438
    1W        W44813  25.270  28.862   7.924 -0.1776  0.0070  0.1648
    1W        W44814  26.909  17.090   1.794 -0.0921  0.0981 -0.1014
    1W        W44815  11.475   2.749   8.958  0.0563  0.1314 -0.4495
    1W        W44816  16.452   3.141   2.979 -0.3169 -0.1189 -0.0263
    1W        W44817  20.314  17.960   0.750 -0.3601  0.1974 -0.0628
    1W        W44818  24.325   2.769   2.808 -0.2563 -0.2540 -0.2509
    1W        W44819  23.840   0.509   8.553 -0.1848  0.1174 -0.3225
    1W        W44820  16.312  25.737   7.579  0.0736 -0.0635 -0.0255
    1W        W44821  25.353   3.151   0.078  0.0383  0.0036  0.1801
    1W        W44822  23.121  15.907   8.012 -0.1304 -0.0707 -0.1996
    1W        W44823  26.557   8.090   0.502 -0.0792 -0.0308  0.2287
    1W        W44824   4.302   5.046   1.749 -0.0154  0.1856 -0.0080
    1W        W44825  22.866   2.569   7.715  0.0117  0.0442  0.1269
    1W        W44826   1.439  16.033   9.326  0.1177  0.0041 -0.0880
    1W        W44827  25.770  18.033   6.724 -0.1078 -0.1382  0.2319
    1W        W44828   5.660   8.734   0.164  0.0386  0.0047  0.0942
    1W        W44829  28.554  14.267   5.990 -0.1115  0.2566  0.0434
    1W        W44830  24.759   6.500   9.134  0.0352  0.2380 -0.1444
    1W        W44831   9.197   2.258   4.108  0.0795 -0.0374  0.4713
    1W        W44832   5.637   1.898   3.773 -0.1039  0.2696  0.0275
    1W        W44833  24.109  13.335   6.357 -0.0428  0.1609  0.0367
    1W        W44834  26.142   4.712   1.130  0.2450 -0.1318 -0.0269
    1W        W44835  16.037  23.986   0.291 -0.1822  0.0855 -0.3414
    1W        W44836  10.332   3.498   8.379  0.1814  0.0304 -0.2153
    1W        W44837  13.142  20.484   8.481  0.1630 -0.0073 -0.1972
    1W        W44838  27.893  21.606   0.362 -0.0439 -0.2257  0.0605
    1W        W44839   6.216  10.001   7.033 -0.1230 -0.1652  0.0821
    1W        W44840   8.676   6.317   2.962 -0.1763 -0.0694 -0.0983
    1W        W44841   2.868  11.425   2.175  0.2144 -0.2821 -0.0496
    1W        W44842   0.082  28.455   7.104 -0.1144 -0.2732  0.0980
    1W        W44843   9.108  11.350   1.467 -0.2865 -0.1868  0.0857
    1W        W44844  16.722   1.028   8.535  0.2284 -0.0576  0.1806
    1W        W44845  24.889  17.658   7.068 -0.3578 -0.4087  0.0103
    1W        W44846  10.755  25.457   2.147 -0.0238 -0.4776 -0.2103
    1W        W44847  16.845   9.711   7.410 -0.0239 -0.0559  0.0513
    1W        W44848  23.985  13.574   8.048  0.0778 -0.2473  0.3587
    1W        W44849   7.151  21.921   7.109  0.2252  0.1969  0.2030
    1W        W44850   8.700   9.061   2.037 -0.1147 -0.2484  0.1727
    1W        W44851   3.863  25.594   7.046  0.0962 -0.1999 -0.1753
    1W        W44852  29.398   0.054   0.829 -0.2075  0.0602 -0.2523
    1W        W44853   0.498   4.611   0.211 -0.1033  0.1580  0.2157
    1W        W44854  10.271  27.433   6.822  0.0411 -0.0112 -0.1313
    1W        W44855   5.189  18.355   8.622  0.0939  0.2113  0.1802
    1W        W44856   5.504  28.971   8.684 -0.1078 -0.2247  0.0314
    1W        W44857   3.645  27.491   1.380  0.1495  0.0226  0.1163
    1W        W44858  23.842  25.085   8.504  0.2590  0.0688  0.1661
    1W        W44859  13.841  14.966   7.983  0.0429  0.0455  0.2161
    1W        W44860  14.023  25.011   7.501  0.0748 -0.0520 -0.1243
    1W        W44861  14.729  29.151   7.523  0.1270 -0.3735 -0.2633
    1W        W44862  21.596  10.414   8.437 -0.2252 -0.0113  0.1702
    1W        W44863  19.272  13.586   6.741 -0.0912  0.1740  0.0270
    1W        W44864  11.828  17.911   1.460  0.1594  0.0739  0.2736
    1W        W44865  20.430   4.806   8.449  0.1072  0.1144  0.0161
    1W        W44866  29.259  22.044   0.150  0.0791 -0.0719  0.0295
    1W        W44867  13.606  20.572   8.775 -0.0403 -0.1735 -0.0062
    1W        W44868   7.316  27.320   0.628 -0.3729  0.4147 -0.2845
    1W        W44869  12.264  25.785   0.709 -0.2342  0.0018  0.1997
    1W        W44870   9.325   7.645   8.020  0.2311  0.0714 -0.2246
    1W        W44871  29.344   7.374   8.571  0.0105 -0.0557  0.0401
    1W        W44872   5.152  11.844   1.826 -0.0098 -0.3227  0.0429
    1W        W44873  29.415  12.098   7.581  0.0766  0.1965  0.3067
    1W        W44874  26.608  15.032   8.373  0.0003 -0.2370  0.0371
    1W        W44875  13.679  24.342   5.890 -0.0940 -0.0157 -0.0181
    1W        W44876  29.346  13.463   5.605 -0.0367 -0.0339 -0.0534
    1W        W44877   1.933  28.469   6.548 -0.1683  0.1243  0.0785
    1W        W44878  24.827  24.439   0.873  0.1394  0.0954  0.0966
    1W        W44879  12.722   0.228   1.143 -0.4431  0.0857 -0.0444
    1W        W44880   5.835   4.359   8.012 -0.2211  0.0540 -0.1854
    1W        W44881  25.530  23.722   0.716 -0.1557  0.1900  0.0518
    1W        W44882  24.227   1.255   7.767 -0.1093  0.4019  0.0638
    1W        W44883  15.187  28.308   0.286 -0.0886  0.0933 -0.0455
    1W        W44884  13.280  26.814   2.418 -0.3085 -0.3065  0.0056
    1W        W44885  29.115  24.978   7.070  0.3050  0.1481 -0.1599
    1W        W44886  22.622  18.779   2.081 -0.1584  0.0792  0.0790
    1W        W44887   8.473  24.502   9.308 -0.0288 -0.0740 -0.0628
    1W        W44888  14.753  10.242   8.408 -0.0013  0.0824 -0.4070
    1W        W44889   3.400  23.086   0.370  0.0213 -0.2493 -0.1078
    1W        W44890  20.248  22.150   0.895  0.1343  0.1116  0.3232
    1W        W44891  25.101   3.972   3.125 -0.1335  0.1742 -0.5228
    1W        W44892   2.251  23.761   0.734  0.2932 -0.0858 -0.0714
    1W        W44893   9.046  19.784   0.388  0.0284 -0.0259  0.2448
    1W        W44894  17.144  10.592   7.623  0.1167  0.1041 -0.2422
    1W        W44895   7.996   2.862   2.309 -0.1954 -0.1045 -0.1720
    1W        W44896  20.417   2.795   0.658 -0.4980  0.0838  0.0964
    1W        W44897  20.845   5.563   9.312 -0.0441  0.0415  0.3840
    1W        W44898  21.587   4.435   2.070  0.2127  0.0579  0.4384
    1W        W44899  23.682  18.804   1.237 -0.0457 -0.1566  0.3012
    1W        W44900  25.045   9.095   1.679  0.2656  0.1524 -0.3241
    1W        W44901  15.190  23.245   7.294 -0.1858 -0.0749  0.1436
    1W        W44902   7.632   2.291   0.688 -0.3836  0.0062  0.0599
    1W        W44903  21.431  14.455   8.552  0.1668 -0.0753 -0.0674
    1W        W44904  14.628  19.448   1.032 -0.2226 -0.0506  0.2562
    1W        W44905  16.022  21.118   2.300 -0.1331 -0.1329  0.0133
    1W        W44906   3.876  28.987   0.972  0.0970 -0.4044  0.0822
    1W        W44907  26.233  29.118   0.154  0.0395 -0.2830 -0.1516
    1W        W44908  10.022  13.776   8.912 -0.1986  0.2268 -0.1031
    1W        W44909  24.646  20.137   1.423 -0.0090  0.0078 -0.3006
    1W        W44910  20.879  18.641   1.411  0.2240  0.1938  0.0139
    1W        W44911  29.890  16.816   9.331 -0.0502 -0.0373 -0.0021
    1W        W44912  19.246  19.975   1.649  0.0528 -0.1483  0.1534
    1W        W44913  21.296  24.832   7.333 -0.1949 -0.2763 -0.0274
    1W        W44914  14.422   5.300   2.550 -0.0876  0.1339  0.1761
    1W        W44915   4.254  14.156   8.034  0.0808 -0.0475 -0.2215
    1W        W44916  22.294   6.413   8.528 -0.0556 -0.1090 -0.5585
    1W        W44917  10.414  23.100   6.533 -0.0153 -0.1946 -0.3558
    1W        W44918  28.439  21.100   2.256 -0.0430 -0.1548 -0.0059
    1W        W44919   5.311  17.636   1.488  0.0729  0.0294 -0.2205
    1W        W44920   1.171  14.640   7.372  0.1550  0.0037 -0.2157
    1W        W44921   1.010  11.502   0.619  0.0808  0.1738 -0.3420
    1W        W44922  12.377  21.798   1.349  0.1942  0.0499  0.1361
    1W        W44923   8.868  26.342   6.803 -0.2942 -0.4624  0.1694
    1W        W44924  22.483   9.251   7.174  0.1657 -0.1644  0.0303
    1W        W44925  13.159  25.019   0.204  0.0202 -0.0931  0.1001
    1W        W44926  23.278  19.931   2.112  0.2693 -0.2034  0.3014
    1W        W44927   4.511  17.083   6.689  0.0920  0.1347  0.0229
    1W        W44928  18.209   6.565   0.581  0.2500  0.0703  0.0228
    1W        W44929  15.921  25.698   0.894  0.1747 -0.0512 -0.0285
    1W        W44930  17.077  26.842   3.089 -0.0217 -0.0584  0.3180
    1W        W44931  11.767  26.572   1.545 -0.1491  0.2542 -0.0534
    1W        W44932   1.792  14.839   2.352 -0.1281  0.2140 -0.4693
    1W        W44933   7.559  12.863   2.007 -0.1455  0.0593  0.2130
    1W        W44934  18.854  16.974   0.805 -0.2295  0.0071 -0.2657
    1W        W44935   4.328   6.541   9.166 -0.1678  0.1897  0.1061
    1W        W44936   9.202  18.158   1.107  0.0042  0.0493 -0.1505
    1W        W44937  26.016  15.449   7.714 -0.0260  0.1293  0.1265
    1W        W44938  24.845  29.676   2.894  0.0054 -0.0819  0.0180
    1W        W44939  27.946   8.880   0.951  0.1305  0.1211  0.0981
    1W        W44940   3.793  25.307   1.868  0.0673 -0.2459 -0.1176
    1W        W44941  17.784  17.604   7.267 -0.0461  0.0888  0.0328
    1W        W44942   1.599  11.127   2.338  0.1641 -0.0606  0.0507
    1W        W44943  11.945   0.040   8.866 -0.2753  0.0914 -0.0746
    1W        W44944  15.033   7.159   7.868  0.0327 -0.0034  0.2304
    1W        W44945  17.054   1.319   7.869 -0.1328 -0.1871 -0.0670
    1W        W44946  18.530  14.204   8.217 -0.2218  0.1842 -0.0037
    1W        W44947  24.720   2.772   2.007  0.2246  0.0540  0.4575
    1W        W44948  15.206   0.369   8.698 -0.1438  0.0237  0.1397
    1W        W44949   5.119  25.045   1.870  0.1314 -0.0851  0.0817
    1W        W44950  14.992   7.783   9.011 -0.2027 -0.0312  0.0586
    1W        W44951  29.271  29.081   1.261  0.1722  0.1077  0.0641
    1W        W44952  14.119   2.295   1.559  0.1015  0.0331  0.4675
    1W        W44953   9.822   1.018   2.001  0.0380  0.4376 -0.2685
    1W        W44954  21.695  21.212   1.088  0.0619  0.1025  0.1099
    1W        W44955   3.216  16.219   2.209  0.1068  0.1738  0.3542
    1W        W44956  10.137  22.885   1.547 -0.0835  0.2739 -0.1316
    1W        W44957  12.529  13.127   9.122  0.0067 -0.0406 -0.2323
    1W        W44958   8.930   7.661   2.051  0.0783  0.1714  0.3910
    1W        W44959  13.243  11.257   8.781  0.0549  0.0024  0.2332
    1W        W44960   6.559  15.181   8.075 -0.0636 -0.0653  0.0595
    1W        W44961   9.437  11.800   1.272 -0.0031 -0.1572  0.1362
    1W        W44962  18.914   4.839   1.333 -0.0559 -0.0201  0.0821
    1W        W44963   5.363   8.194   8.221 -0.0463  0.3532 -0.1725
    1W        W44964  22.138  21.458   0.908 -0.0265  0.0376  0.0217
    1W        W44965  29.434  19.404   0.927  0.0876 -0.0723  0.1283
    1W        W44966   1.622  10.458   3.391 -0.0835  0.0955 -0.0730
    1W        W44967  28.494  28.516   1.827 -0.1812 -0.1996  0.2080
    1W        W44968   3.333  22.972   6.776 -0.0382 -0.0360  0.2647
    1W        W44969   8.991  12.789   0.427  0.1843 -0.3130 -0.0984
    1W        W44970   2.455  21.404   1.564 -0.0780  0.0506  0.1462
    1W        W44971   6.664  15.295   9.163  0.2653  0.0832 -0.0655
    1W        W44972  21.452  21.195   6.897 -0.1774  0.1146 -0.0627
    1W        W44973  22.342  23.623   9.055  0.0001  0.1146  0.1166
    1W        W44974  27.030  12.341   9.192 -0.0417 -0.0437 -0.0338
    1W        W44975  29.239   5.265   0.291 -0.1880  0.0117  0.1896
    1W        W44976  25.328  28.309   8.759  0.2841 -0.1256  0.0159
    1W        W44977  27.476   3.272   1.742  0.0811 -0.2277  0.1266
    1W        W44978  23.128  29.811   2.576  0.2691  0.1057 -0.2255
    1W        W44979  22.075   1.269   1.719 -0.0257 -0.1506  0.2181
    1W        W44980  20.578   1.422   7.995 -0.0991  0.2393 -0.0901
    1W        W44981  22.422  28.136   8.718 -0.0294 -0.1666 -0.1783
    1W        W44982   5.918  13.002   9.418  0.1457 -0.0046 -0.0066
    1W        W44983   5.580  24.648   7.844  0.3226  0.0490 -0.2473
    1W        W44984   4.614  25.716   0.952  0.2170 -0.2277 -0.0910
    1W        W44985  19.118   2.353   7.629 -0.3117  0.0093 -0.0215
    1W        W44986  20.670   5.050   9.059  0.0003 -0.1253  0.0890
    1W        W44987   7.451  28.044   2.452  0.4102  0.4614  0.0520
    1W        W44988  27.113   3.825   2.368  0.1455 -0.0997  0.1304
    1W        W44989  22.626  29.684   2.186 -0.0792 -0.2660  0.2364
    1W        W44990  11.452  12.675   0.501  0.2976  0.1201  0.0678
    1W        W44991  12.216  10.427   0.152  0.1003  0.2578 -0.1786
    1W        W44992  19.388  27.324   0.864  0.0693  0.0473  0.0800
    1W        W44993   6.488  22.952   0.323 -0.0566  0.1756 -0.0314
    1W        W44994   1.409  24.443   5.779  0.1669  0.3274 -0.0985
    1W        W44995   1.827   7.493   0.075 -0.2358 -0.1997 -0.2020
    1W        W44996  29.038   7.524   7.163 -0.1956 -0.0684 -0.1314
    1W        W44997  13.030   1.102   8.851  0.1783 -0.0964 -0.2635
    1W        W44998  13.498  25.858   0.099 -0.2382 -0.0337 -0.2302
    1W        W44999  19.009  21.080   2.843  0.0124  0.1499  0.0741
    1W        W45000   0.854  25.573   0.116  0.3356  0.1195  0.1222
    1W        W45001  14.954   5.271   6.961 -0.0104 -0.1417 -0.0721
    1W        W45002  26.806  21.734   0.022  0.0005  0.2456  0.0234
    1W        W45003  26.799  21.774   2.314  0.0589  0.5105 -0.2647
    1W        W45004  17.382  16.007   2.076 -0.2742 -0.1907 -0.2918
    1W        W45005  23.374  27.358   2.039  0.0752 -0.1868 -0.0932
    1W        W45006  20.643   1.812   8.433 -0.2501 -0.3613 -0.3581
    1W        W45007  28.439  27.395   6.828  0.3564 -0.6108  0.1415
    1W        W45008   1.463   6.574   8.333 -0.0928  0.1278 -0.2676
    1W        W45009  26.757   9.369   9.389  0.1283 -0.0098 -0.1130
    1W        W45010  22.893  29.611   7.577  0.1818 -0.2424  0.2270
    1W        W45011  15.815  17.005   1.850  0.0079 -0.0540  0.0281
    1W        W45012   8.643  20.678   8.703  0.2846  0.1448  0.1365
    1W        W45013  12.725  18.198   8.339  0.1769 -0.1910  0.0359
    1W        W45014  10.002  27.078   7.421  0.1563  0.1252  0.2151
    1W        W45015  21.509  20.823   8.233 -0.2840  0.0723 -0.0277
    1W        W45016   4.454  15.507   6.353 -0.1114  0.0839 -0.0245
    1W        W45017  10.090  27.670   0.827  0.1814 -0.1211  0.1188
    1W        W45018  15.087  28.867   2.353  0.0708  0.2970 -0.1984
    1W        W45019  29.395  27.189   8.322  0.3584  0.0991 -0.0411
    1W        W45020  22.709  16.744   8.473  0.0004  0.5072  0.0723
    1W        W45021   8.501  19.162   7.892  0.0923 -0.1410 -0.1793
    1W        W45022  21.740  28.812   6.657 -0.0077  0.3295  0.1178
    1W        W45023   8.704   1.728   8.248 -0.0613 -0.0703  0.0821
    1W        W45024  23.005  27.833   8.168  0.1778 -0.0899  0.0831
    1W        W45025  20.350  28.482   7.166 -0.0447  0.1850 -0.1707
    1W        W45026   5.127   3.535   0.189  0.0112 -0.0597 -0.0961
    1W        W45027   1.980  12.646   7.541  0.1038 -0.1651 -0.2234
    1W        W45028   8.028  23.464   7.390  0.0653 -0.1811 -0.3427
    1W        W45029  21.598   0.596   0.100  0.2640  0.0151 -0.1110
    1W        W45030  19.754   4.597   9.421 -0.2367  0.0315 -0.0891
    1W        W45031  23.302  10.373   9.392  0.1416  0.2951  0.2903
    1W        W45032  22.785  27.147   7.660  0.0474 -0.1357  0.2929
    1W        W45033  10.393  22.328   1.438  0.0854 -0.2906 -0.0349
    1W        W45034   2.095  12.096   8.862 -0.1422 -0.1284  0.1036
    1W        W45035  12.040  28.192   1.918  0.1117 -0.0307  0.3241
    1W        W45036   6.180   2.602   0.856  0.1540  0.2572 -0.2919
    1W        W45037  25.834   7.612   8.557  0.1338 -0.0858 -0.2408
    1W        W45038   7.117  23.766   7.043 -0.3871  0.1695 -0.1768
    1W        W45039  26.029  27.494   2.827  0.2939 -0.1215  0.2468
    1W        W45040   9.071  20.274   6.122  0.1913 -0.0717 -0.2947
    1W        W45041   3.782  22.849   6.581 -0.2452 -0.0621 -0.0598
    1W        W45042  29.408  29.702   1.243  0.0965 -0.2936 -0.1916
    1W        W45043  27.835   9.019   6.577  0.1404 -0.0567  0.1878
    1W        W45044   4.629   7.929   6.923 -0.0397 -0.0674  0.3206
    1W        W45045   1.437  12.132   0.628 -0.2983 -0.0024 -0.1807
    1W        W45046   2.873  26.249   7.881 -0.0983 -0.1263  0.0415
    1W        W45047  24.987  26.856   7.389 -0.1919  0.4871  0.2833
    1W        W45048   9.007  26.293   1.110 -0.3585  0.0784 -0.1067
    1W        W45049   5.655  11.719   1.743  0.1252 -0.2449 -0.5057
    1W        W45050   7.775  26.766   9.003 -0.3877 -0.0156 -0.0169
    1W        W45051   3.143  24.468   1.036  0.0872 -0.0397  0.0964
    1W        W45052  22.941  14.597   0.080 -0.0816 -0.2318 -0.4772
    1W        W45053  18.920  16.509   9.156  0.2091  0.3734 -0.0120
    1W        W45054  13.684  12.362   8.282  0.0891  0.2497  0.1962
    1W        W45055  26.425   2.678   3.181  0.0288  0.1027  0.1840
    1W        W45056  13.768  16.389   7.919  0.0294 -0.0315  0.0981
    1W        W45057  12.063  27.699   6.745 -0.0215 -0.2923 -0.2329
    1W        W45058  29.174   0.460   8.357 -0.1025  0.0195 -0.2970
    1W        W45059  13.357   3.926   2.140 -0.0925 -0.1290 -0.1966
    1W        W45060  20.041  14.427   8.412  0.1190 -0.1461 -0.1294
    1W        W45061  26.133  29.260   9.078  0.0388 -0.0155  0.1143
    1W        W45062  19.206  28.963   8.793  0.1425  0.2235 -0.1182
    1W        W45063   2.852   4.549   8.203  0.0466  0.2489  0.1673
    1W        W45064  22.477  21.520   8.820 -0.2196  0.1406 -0.0650
    1W        W45065  21.785  26.489   7.343 -0.1596  0.0054  0.4841
    1W        W45066  10.943   2.790   1.458  0.1762  0.1629 -0.1300
    1W        W45067   5.393   9.368   8.582  0.0548  0.2516  0.0378
    1W        W45068  10.098  12.854   0.672  0.1041  0.0069  0.0680
    1W        W45069   1.387  13.717   2.461 -0.3158  0.2102 -0.0840
    1W        W45070  10.624   7.113   8.405  0.2040 -0.0770  0.2587
    1W        W45071   7.941   6.985   0.396  0.0213  0.1001 -0.0312
    1W        W45072  12.971  22.635   1.367  0.4226  0.2032 -0.0209
    1W        W45073  27.978  20.928   2.291  0.0346 -0.0600 -0.1269
    1W        W45074  10.579  13.534   0.129  0.1715 -0.2276  0.1425
    1W        W45075  20.125  18.146   8.700 -0.1819 -0.1154 -0.1064
    1W        W45076  13.151   9.995   9.059  0.3354  0.3686  0.1325
    1W        W45077   5.526  13.339   8.427  0.0167 -0.3229  0.1887
    1W        W45078   9.299   6.571   3.720 -0.0972 -0.1740  0.2950
    1W        W45079   7.754   7.430   0.167 -0.1194 -0.1127 -0.1704
    1W        W45080  19.342  21.831   1.033 -0.1709 -0.0714  0.0970
    1W        W45081  21.669   2.177   3.545 -0.0571 -0.1547 -0.1735
    1W        W45082  23.072  24.104   0.032 -0.0308 -0.1141 -0.0426
    1W        W45083  13.703   0.020   7.696 -0.4931  0.2900 -0.1461
    1W        W45084   0.178  23.446   0.710  0.1009 -0.1966  0.4264
    1W        W45085  11.405  22.899   7.491 -0.1893 -0.1263 -0.0664
    1W        W45086   6.448   6.233   7.595 -0.1566  0.1505 -0.3694
    1W        W45087   3.709  12.830   7.080 -0.0150  0.0632 -0.1140
    1W        W45088   0.047  21.794   1.146  0.2292 -0.2916  0.1384
    1W        W45089  20.942  11.256   9.114  0.1723  0.1532  0.2050
    1W        W45090  14.544  27.616   8.337 -0.1402 -0.1123  0.2671
    1W        W45091   3.701   4.235   7.983  0.2537 -0.0994 -0.1035
    1W        W45092  15.373   4.963   0.184  0.1232  0.0381  0.2374
    1W        W45093   4.171  23.100   0.979 -0.2148  0.1134 -0.0542
    1W        W45094  19.231  13.460   7.228  0.0897  0.2221 -0.1739
    1W        W45095  10.967   9.905   2.278 -0.1972 -0.1403 -0.0516
    1W        W45096  14.103   7.731   2.662  0.0542  0.3313  0.1634
    1W        W45097  21.854  21.549   2.592 -0.1650  0.0070  0.2379
    1W        W45098  27.883  27.121   7.978  0.0042  0.0135  0.1262
    1W        W45099  16.131  18.531   8.937 -0.2997  0.3224  0.0568
    1W        W45100  15.124  21.354   0.565  0.3399 -0.2727  0.4244
    1W        W45101  23.565  26.909   8.735 -0.0114  0.1262  0.0257
    1W        W45102   5.603   5.748   7.172 -0.0264  0.3175  0.0642
    1W        W45103  19.089  14.716   8.701 -0.2400 -0.1145 -0.1888
    1W        W45104   5.813  27.063   0.973 -0.0139 -0.0428  0.0216
    1W        W45105   4.696   2.959   6.572  0.0966 -0.1685 -0.1717
    1W        W45106  18.341   6.283   7.887  0.0844 -0.1521 -0.0676
    1W        W45107   0.448   6.885   7.480  0.0477  0.0868  0.2001
    1W        W45108  16.991  20.080   1.573  0.3187  0.2123  0.0941
    1W        W45109  26.184   0.310   1.491 -0.0007 -0.2125  0.1678
    1W        W45110   9.889  16.128   1.281  0.0728 -0.0560 -0.2527
    1W        W45111  16.766   0.415   2.032 -0.1576 -0.0229 -0.0381
    1W        W45112  21.082  22.122   0.196 -0.1255  0.3990  0.0858
    1W        W45113  27.858  22.597   2.044  0.2076 -0.0060  0.0580
    1W        W45114   1.234  10.559   8.121 -0.2972 -0.0720 -0.0720
    1W        W45115  26.398  24.768   8.619 -0.0308 -0.2462 -0.0189
    1W        W45116  16.039   0.011   8.756 -0.1815 -0.1635  0.3862
    1W        W45117  20.640   0.898   7.617 -0.0919  0.1221 -0.0913
    1W        W45118   0.051  29.764   8.758  0.1794 -0.3333 -0.0591
    1W        W45119  20.183  15.071   7.290  0.0541 -0.3825 -0.1517
    1W        W45120   0.363  23.390   6.676 -0.2267 -0.2196  0.2047
    1W        W45121   9.055   7.194   1.635  0.0131  0.0355 -0.0032
    1W        W45122  27.211  22.617   6.138 -0.2027 -0.1138  0.0318
    1W        W45123  15.764  19.225   0.543  0.1934 -0.2966 -0.0080
    1W        W45124  17.369  24.611   2.602 -0.0135  0.1228  0.0314
    1W        W45125  24.321  26.850   0.299  0.1297  0.1508  0.3628
    1W        W45126  23.006   9.690   0.888  0.1976  0.0552  0.1047
    1W        W45127  20.914   5.420   7.568  0.1086  0.1195  0.0906
    1W        W45128  13.116   3.566   2.423 -0.1368 -0.4176  0.0984
    1W        W45129   2.610   6.668   8.238 -0.2505  0.0798  0.0334
    1W        W45130   6.378   1.453   7.152 -0.1294  0.0350 -0.4120
    1W        W45131   5.460   9.496   0.441 -0.2380  0.2257 -0.0216
    1W        W45132   0.294  12.565   0.036  0.3353 -0.0063  0.0514
    1W        W45133   0.564  29.364   8.733  0.0719  0.2717  0.1554
    1W        W45134   0.298  21.669   6.669 -0.1643 -0.1722  0.0222
    1W        W45135   5.778  29.867   9.092  0.0395 -0.2528  0.1941
    1W        W45136  14.117   0.447   3.718 -0.0197  0.0978  0.1628
    1W        W45137  16.948  14.955   1.297  0.0396 -0.1323 -0.0435
    1W        W45138   0.623  23.304   0.901 -0.1186 -0.1254  0.0981
    1W        W45139  20.900   9.670   8.644  0.2134 -0.4681  0.2033
    1W        W45140  18.081  10.291   7.241 -0.0865  0.1390  0.1844
    1W        W45141   1.019   6.792   8.543 -0.1346 -0.1018  0.1036
    1W        W45142  16.069   3.772   7.164 -0.0901  0.0652 -0.2105
    1W        W45143  23.798  20.929   1.309  0.1234  0.1839 -0.1911
    1W        W45144  13.537  27.429   0.174 -0.3763 -0.0169 -0.3012
    1W        W45145  16.896  15.572   0.732  0.1265  0.0488  0.2736
    1W        W45146  26.814  28.749   1.083  0.0809  0.1558 -0.1079
    1W        W45147  14.582  26.561   2.911  0.2053 -0.1750  0.2024
    1W        W45148  25.263  22.545   0.184  0.2074  0.3147  0.2780
    1W        W45149   8.424  20.544   1.788  0.2447 -0.1505  0.1305
    1W        W45150   7.060   0.837   0.163  0.0193 -0.2715 -0.0460
    1W        W45151   9.580   6.273   7.268  0.1711 -0.1018  0.2071
    1W        W45152   5.437   9.107   8.107 -0.0638  0.3661  0.2843
    1W        W45153  10.162   0.620   2.935  0.1327  0.2219  0.0699
    1W        W45154  26.556  18.707   7.925  0.0910  0.3327  0.1506
    1W        W45155  15.813  11.963   1.925 -0.1936 -0.0917 -0.2138
    1W        W45156  20.440  20.565   1.119  0.1416 -0.0148  0.3348
    1W        W45157  21.590   7.204   1.554  0.2088 -0.2115 -0.0530
    1W        W45158   7.944  28.133   1.469 -0.1247 -0.0471  0.0954
    1W        W45159  10.140   6.637   7.803 -0.3702 -0.1220  0.1519
    1W        W45160  19.386  28.881   0.220 -0.2386 -0.2592 -0.0808
    1W        W45161   1.362   6.150   0.302  0.2570 -0.0923 -0.0772
    1W        W45162  28.105  20.256   8.358  0.1446  0.0528 -0.1663
    1W        W45163  27.018   5.664   6.191 -0.0628  0.0219  0.2941
    1W        W45164  14.310   6.406   6.821 -0.0201  0.0291 -0.1118
    1W        W45165   6.817  16.467   2.514  0.0777 -0.3489  0.2747
    1W        W45166   7.040  10.900   1.340 -0.0981 -0.0111 -0.2198
    1W        W45167   5.066  22.786   8.272  0.1580 -0.0017  0.3163
    1W        W45168  28.194  29.791   0.659 -0.1050 -0.1815  0.1720
    1W        W45169   5.730  29.041   0.111 -0.0919 -0.2759  0.0588
    1W        W45170  27.474   6.398   8.612  0.0955  0.2855  0.1494
    1W        W45171  18.054   0.175   0.204  0.1028  0.1216 -0.0448
    1W        W45172   8.783  21.099   8.463 -0.5507 -0.0143 -0.1292
    1W        W45173  29.234  25.981   6.510  0.0085  0.0978  0.1659
    1W        W45174   5.826  20.706   6.600  0.1392  0.1438 -0.2384
    1W        W45175   5.694  18.982   1.874  0.1209 -0.0426 -0.0035
    1W        W45176   7.206  23.999   9.408  0.0669  0.1208 -0.2399
    1W        W45177  19.860  28.591   1.771 -0.1230  0.0265  0.0553
    1W        W45178   6.426  26.456   3.091 -0.0172  0.1073 -0.1281
    1W        W45179  11.947  24.260   1.242 -0.0758 -0.2153 -0.0743
    1W        W45180  27.495  25.311   9.253 -0.0132  0.0218 -0.3415
    1W        W45181  17.278  11.547   0.095  0.0105 -0.1108 -0.0961
    1W        W45182  18.417   7.364   0.229 -0.0017  0.0940 -0.0520
    1W        W45183   0.591  12.629   6.182 -0.0122  0.0582 -0.0845
    1W        W45184  14.785  14.535   0.478 -0.0152  0.0932 -0.0332
    1W        W45185  12.409  12.001   2.068 -0.0991 -0.2226 -0.1055
    1W        W45186   4.796  16.726   9.105 -0.0152 -0.2217  0.0006
    1W        W45187  28.277   6.644   1.325  0.1774 -0.0621  0.3673
    1W        W45188  13.774   9.638   7.740  0.0771  0.0808 -0.2787
    1W        W45189  18.043  16.248   0.603 -0.0746  0.2554  0.1663
    1W        W45190   2.391   8.461   0.849 -0.3149  0.0814 -0.0418
    1W        W45191   8.947  23.152   0.578  0.0600  0.0417 -0.0561
    1W        W45192   8.251   7.440   0.145  0.0986  0.1439  0.1212
    1W        W45193  15.885   4.313   6.950 -0.2362 -0.2617 -0.2801
    1W        W45194   7.490  19.842   7.574  0.1479  0.0792 -0.1685
    1W        W45195  29.181  22.111   7.642 -0.0097  0.0010 -0.0828
    1W        W45196  18.726  20.684   2.727  0.1447  0.1659  0.1369
    1W        W45197   1.742  15.975   2.746 -0.0515  0.0356 -0.1129
    1W        W45198  29.500   9.641   8.938  0.2141 -0.0731  0.2462
    1W        W45199  20.902  27.744   0.812 -0.3314  0.1539  0.0643
    1W        W45200  10.629   2.781   1.019  0.0909  0.1227  0.1778
    1W        W45201  24.392   9.613   2.481 -0.0175 -0.1934  0.0418
    1W        W45202  17.059   4.496   2.224 -0.0293  0.0265 -0.0594
    1W        W45203  26.117   1.458   6.675 -0.0247  0.0792 -0.0046
    1W        W45204   2.237   7.394   6.565 -0.0250 -0.1217  0.1598
    1W        W45205  18.201  14.597   1.627  0.0113  0.0501  0.4809
    1W        W45206  29.891  26.483   6.751  0.1395 -0.0537  0.1816
    1W        W45207   8.251  16.820   9.144 -0.0457  0.1468  0.2435
    1W        W45208  22.962  23.948   1.830  0.1950  0.0178 -0.0871
    1W        W45209   2.192   7.147   1.828  0.0060 -0.0062 -0.3783
    1W        W45210   9.107  16.455   9.088 -0.2560  0.0400 -0.1368
    1W        W45211  26.775   2.660   9.371  0.4052 -0.0941 -0.3569
    1W        W45212  17.758   5.328   1.825  0.0918 -0.0486  0.1770
    1W        W45213   2.530  28.441   7.442 -0.0703 -0.0264 -0.0446
    1W        W45214  21.320   5.696   2.130 -0.1397 -0.0929  0.0183
    1W        W45215   8.631  13.647   8.509  0.2785  0.1359 -0.1370
    1W        W45216   4.402  26.134   0.127 -0.1005 -0.1293 -0.1217
    1W        W45217  28.681  13.429   7.192 -0.0197  0.0582 -0.1785
    1W        W45218   4.892  19.832   0.385  0.0732  0.1374 -0.3463
    1W        W45219  26.071  14.348   9.216  0.0166 -0.0095 -0.0931
    1W        W45220  11.405  27.257   2.842 -0.1336  0.2319 -0.2277
    1W        W45221  11.480   9.309   0.412  0.0709  0.1371 -0.4532
    1W        W45222   0.908   9.106   1.937  0.2203 -0.1623  0.0309
    1W        W45223   1.491  26.581   6.532 -0.0520  0.0422  0.1615
    1W        W45224   0.194  20.756   6.677  0.0236 -0.2949 -0.0293
    1W        W45225   9.942   1.306   7.297  0.0472  0.0584  0.1925
    1W        W45226   8.143  15.639   8.352  0.1440 -0.0056 -0.0395
    1W        W45227  20.913  15.452   6.806  0.0710  0.2223 -0.1518
    1W        W45228  27.839  20.979   0.981 -0.0398 -0.0912 -0.2241
    1W        W45229  12.294  16.165   9.060  0.3517 -0.1668 -0.1238
    1W        W45230   0.261  10.194   9.457 -0.0524 -0.0774  0.1086
    1W        W45231  24.622  21.923   8.449 -0.1829 -0.2061 -0.0334
    1W        W45232   0.020  13.872   8.443 -0.0305  0.1681  0.0497
    1W        W45233  23.517   8.582   1.864  0.0100  0.1754  0.0931
    1W        W45234   7.721  22.885   0.119  0.1345 -0.0257  0.2218
    1W        W45235   7.681   4.719   1.086  0.1561  0.2781 -0.3309
    1W        W45236  15.261  12.387   1.402  0.0938  0.1719  0.0077
    1W        W45237   1.498  23.657   1.291  0.0864  0.2948  0.0714
    1W        W45238  29.290  22.661   2.756 -0.0426  0.1891  0.0209
    1W        W45239  29.742  22.414   1.538 -0.2301 -0.0089  0.0253
    1W        W45240   3.657  21.217   8.650 -0.1199  0.0495 -0.1737
    1W        W45241  14.265  13.757   9.262 -0.3524  0.0791 -0.2043
    1W        W45242   2.769   6.377   6.476  0.3052 -0.1932  0.1589
    1W        W45243   5.588  10.051   7.886 -0.0080 -0.1936 -0.2141
    1W        W45244  28.024  28.580   8.555  0.4573  0.0410  0.3192
    1W        W45245  18.086  26.522   1.108  0.3901  0.0268 -0.0538
    1W        W45246  18.223   1.808   8.986 -0.0531 -0.1364  0.4769
    1W        W45247   7.145  26.944   7.281  0.0765  0.2018  0.1150
    1W        W45248  25.080  18.211   8.029 -0.0104 -0.1714  0.0902
    1W        W45249  29.311   2.113   7.983  0.0348 -0.0466 -0.2200
    1W        W45250  19.946  23.428   2.381  0.0279  0.0221  0.0794
    1W        W45251  20.296   1.445   1.231  0.1291 -0.1191  0.1829
    1W        W45252   2.038   0.229   8.530 -0.1641  0.1168  0.2333
    1W        W45253  14.763  24.160   7.179 -0.0222  0.3710 -0.1201
    1W        W45254  18.436  18.453   7.860 -0.0644  0.1028 -0.0814
    1W        W45255   5.404  12.736   1.656  0.2939 -0.0734 -0.1451
    1W        W45256   8.659  23.940   8.982 -0.2976  0.0184 -0.1793
    1W        W45257   8.070  18.677   0.495 -0.2746  0.0737 -0.2706
    1W        W45258  17.456   3.909   0.598  0.0670  0.1226 -0.3342
    1W        W45259  20.283  24.516   0.644  0.4273 -0.1522  0.1103
    1W        W45260  24.819   9.855   7.826 -0.1490 -0.0349  0.1532
    1W        W45261  18.251  10.818   7.011 -0.2794 -0.0639 -0.0240
    1W        W45262  29.663  25.242   6.912 -0.3068  0.0342  0.4277
    1W        W45263   1.107   6.017   0.997 -0.1652  0.0193 -0.0220
    1W        W45264  10.285  26.753   1.992  0.0727 -0.0364 -0.3063
    1W        W45265  23.964  28.070   1.691  0.0560 -0.1834  0.1758
    1W        W45266  25.264  23.031   1.434 -0.1505 -0.1239  0.0822
    1W        W45267  18.870   7.167   0.023 -0.1808 -0.0468 -0.1359
    1W        W45268   0.742   9.892   3.273  0.0275  0.0938 -0.0744
    1W        W45269  15.361  25.391   2.825 -0.0703  0.4723  0.2936
    1W        W45270  12.599   2.458   7.693  0.0387 -0.1295  0.0248
    1W        W45271   3.695  28.631   6.731  0.1449 -0.0082  0.4459
    1W        W45272   1.721   2.936   1.546  0.1268  0.1559 -0.2417
    1W        W45273   3.402  13.933   2.325  0.0323  0.1285 -0.0449
    1W        W45274   5.380   6.966   9.221  0.2657 -0.3092 -0.1963
    1W        W45275   5.149  13.162   1.909 -0.0773 -0.1425 -0.1023
    1W        W45276  13.456  20.059   0.929 -0.1015  0.1329  0.2414
    1W        W45277   2.226  12.720   5.934 -0.4094 -0.2887 -0.2762
    1W        W45278  24.015   8.696   7.298 -0.1056 -0.0366 -0.1648
    1W        W45279  17.059  27.715   3.075 -0.0484 -0.0057 -0.2171
    1W        W45280   0.047  25.683   7.440  0.1823 -0.0648 -0.0498
    1W        W45281   2.313   8.454   1.326 -0.0112  0.0524 -0.0035
    1W        W45282   9.197  29.163   2.777  0.1964  0.1328 -0.0062
    1W        W45283   7.296  19.401   0.570  0.2436 -0.2494  0.0784
    1W        W45284   7.401  14.857   0.547  0.2306 -0.0177  0.1954
    1W        W45285  28.410   7.104   8.664 -0.0779 -0.0337  0.2664
    1W        W45286  21.465  13.261   8.049 -0.0961 -0.2422 -0.0073
    1W        W45287   5.984  10.709   8.639  0.1027 -0.0566  0.3107
    1W        W45288  18.316  12.932   0.947  0.1141  0.0599 -0.0341
    1W        W45289  20.368   9.134   1.445  0.1295  0.0510 -0.3130
    1W        W45290  14.174  24.991   2.950 -0.0057  0.1662  0.4931
    1W        W45291  28.004  15.710   7.022  0.0754 -0.1379 -0.0952
    1W        W45292  26.363  20.772   2.945  0.2828  0.1158 -0.0233
    1W        W45293  17.787  12.632   0.878  0.2082  0.1771 -0.2894
    1W        W45294   3.652   2.986   7.246 -0.0966  0.0554  0.0301
    1W        W45295  24.947  17.907   2.133  0.1367 -0.0453  0.1223
    1W        W45296   4.812  17.851   8.167 -0.1135  0.0258  0.1387
    1W        W45297  14.004  17.858   8.880 -0.2762  0.0930  0.0934
    1W        W45298  27.994  12.966   8.356 -0.2609  0.2274  0.2364
    1W        W45299  17.238  17.644   1.776 -0.0391  0.1365  0.1106
    1W        W45300   2.857   8.496   2.398 -0.2761 -0.0315  0.0843
    1W        W45301  21.534  17.922   8.597  0.1172  0.0735  0.1568
    1W        W45302   5.013   9.354   9.134  0.2496  0.0742 -0.1470
    1W        W45303  16.626  24.713   7.976  0.0940  0.0241  0.2858
    1W        W45304   2.543   0.306   0.935  0.6291 -0.0691  0.1403
    1W        W45305  15.411  11.115   1.747 -0.2048  0.2427 -0.0975
    1W        W45306   0.575   8.794   7.822  0.0059  0.1388  0.0111
    1W        W45307  23.678  16.722   2.307  0.0034  0.2580  0.1252
    1W        W45308  14.461  20.405   7.567  0.1932  0.1378  0.0885
    1W        W45309  15.008  14.072   8.228 -0.2959  0.1589 -0.1904
    1W        W45310  24.716  28.236   7.166 -0.0834  0.4405  0.1595
    1W        W45311  27.493  11.306   2.673  0.3017  0.0828 -0.3013
    1W        W45312  22.955  10.558   8.628 -0.2797 -0.0651  0.4654
    1W        W45313  29.618  23.479   0.423 -0.2872 -0.6374 -0.2558
    1W        W45314  28.047  18.624   7.830  0.1644 -0.0793 -0.1623
    1W        W45315  16.709   7.592   6.238 -0.1452 -0.0172 -0.0208
    1W        W45316   0.283  12.259   2.544 -0.1874  0.0702  0.1283
    1W        W45317  11.161  20.486   9.423 -0.1170  0.0881 -0.1947
    1W        W45318  11.527   4.224   1.241 -0.1436  0.0776  0.1240
    1W        W45319  25.122   9.312   7.097  0.0533 -0.1189 -0.1721
    1W        W45320  16.044  17.597   7.528  0.2622  0.2676 -0.2019
    1W        W45321  13.367  20.122   7.237  0.1965  0.3093 -0.0906
    1W        W45322  18.056  15.380   8.166 -0.1086  0.1914 -0.2985
    1W        W45323  23.751  13.310   7.010 -0.0447  0.1461  0.0296
    1W        W45324  15.980   9.335   1.942 -0.1764  0.0012  0.0594
    1W        W45325   9.205   7.906   1.121 -0.0843  0.1287  0.1071
    1W        W45326  19.487  26.892   2.570  0.3798  0.4002  0.0547
    1W        W45327  28.132  15.157   8.669  0.2110 -0.1021 -0.2198
    1W        W45328  10.836  18.372   7.796 -0.3534  0.1038  0.3650
    1W        W45329  14.704   4.066   7.775  0.0511  0.0069 -0.1538
    1W        W45330  21.956   0.568   1.193  0.1445  0.1058  0.0315
    1W        W45331   1.867   6.644   3.086 -0.0974  0.1061 -0.1250
    1W        W45332  24.517  24.396   8.303 -0.0299 -0.1933  0.2576
    1W        W45333  28.671  26.675   7.482 -0.0162 -0.0236  0.2240
    1W        W45334  26.444  18.177   7.368  0.2285 -0.0857 -0.0417
    1W        W45335  14.601  20.595   8.589 -0.0044  0.0472  0.1554
    1W        W45336  24.810  26.206   1.162 -0.0079 -0.1019  0.0797
    1W        W45337  21.958  22.628   7.166 -0.2211 -0.0544  0.0734
    1W        W45338   0.644  13.752   6.886 -0.1194  0.2484  0.0318
    1W        W45339  15.958  17.346   0.573  0.2366 -0.0010  0.0698
    1W        W45340  29.079  20.065   6.174  0.1572 -0.1554  0.3602
    1W        W45341   1.472  28.109   0.418  0.2370  0.1594 -0.2326
    1W        W45342  23.212  23.870   1.411 -0.0569 -0.0329 -0.1776
    1W        W45343   7.762   1.443   9.378  0.0770 -0.1051 -0.0868
    1W        W45344   4.871  16.389   8.538  0.0548  0.0715  0.1971
    1W        W45345  26.931  26.554   8.838  0.0836  0.1727 -0.0821
    1W        W45346  28.618   5.879   7.842 -0.1102  0.1911  0.1602
    1W        W45347  13.142  18.985   1.833  0.2336 -0.5386  0.0106
    1W        W45348   0.415   2.340   1.625 -0.2725 -0.1188 -0.1421
    1W        W45349  27.250  28.412   0.753  0.0095  0.0111 -0.0155
    1W        W45350   2.108  28.775   0.878  0.3358  0.1524  0.3317
    1W        W45351  24.804  24.147   2.292  0.2463 -0.2114  0.3907
    1W        W45352  14.977  25.516   6.734  0.1090 -0.0985 -0.0588
    1W        W45353  21.305  14.654   9.165  0.1593 -0.2175 -0.4629
    1W        W45354  14.730  17.509   8.094 -0.2177  0.1555 -0.0253
    1W        W45355  19.883  10.317   9.229 -0.2705  0.1678 -0.1394
    1W        W45356  13.676   0.442   7.933  0.0596  0.2222  0.2135
    1W        W45357  11.692  16.714   9.304  0.3862  0.3387 -0.2055
    1W        W45358   5.785  29.642   1.458  0.2146 -0.1137 -0.1467
    1W        W45359   4.215   8.863   0.728 -0.0804  0.1972 -0.1389
    1W        W45360  27.582  18.529   8.070 -0.1294 -0.4618 -0.1192
    1W        W45361  14.498  17.038   1.356  0.2583 -0.0634 -0.2614
    1W        W45362   4.694  12.952   6.848 -0.3978  0.0922  0.2128
    1W        W45363  27.599  18.411   0.496 -0.0029  0.0749 -0.0137
    1W        W45364  27.482   3.309   6.768 -0.2589 -0.2224  0.1016
    1W        W45365  16.728  19.168   0.474  0.1711 -0.0801  0.2506
    1W        W45366  21.507  25.217   7.009  0.3832 -0.1317  0.1888
    1W        W45367   3.978  15.165   0.642 -0.1568  0.6629 -0.1107
    1W        W45368   2.674   1.020   8.857  0.2091 -0.0011  0.1002
    1W        W45369   1.978  11.166   6.341 -0.1375 -0.3368  0.1294
    1W        W45370   6.364  16.657   6.267  0.0454  0.3228  0.1720
    1W        W45371   9.124  22.239   7.782  0.3486 -0.2376  0.1212
    1W        W45372  29.270  23.096   0.385  0.0054  0.1284 -0.2946
    1W        W45373  29.087   9.075   0.857  0.0011  0.1590 -0.0687
    1W        W45374  14.389  20.226   6.960 -0.1066 -0.2144 -0.2111
    1W        W45375  10.474  16.284   1.162  0.1495 -0.2554 -0.0557
    1W        W45376   8.138  22.001   1.282  0.4595  0.0085  0.0191
    1W        W45377  14.981   1.204   2.380  0.0724  0.0630  0.0826
    1W        W45378  22.523   5.529   6.752  0.0228 -0.2853 -0.2447
    1W        W45379  12.119  24.357   6.477  0.0418 -0.1486 -0.1485
    1W        W45380  19.905  25.807   0.809 -0.0134  0.1090 -0.0706
    1W        W45381  15.854  13.335   0.031  0.1386  0.2198  0.0841
    1W        W45382  12.024   6.668   0.481  0.0275  0.0316 -0.0814
    1W        W45383   6.288  26.627   7.128  0.0597  0.0908  0.3011
    1W        W45384   6.211  25.759   6.738 -0.2353  0.2824 -0.2586
    1W        W45385  23.633  11.277   2.736 -0.3169 -0.0349  0.0789
    1W        W45386  10.175   2.614   0.953 -0.0272 -0.0736 -0.1347
    1W        W45387  16.465   2.410   8.042 -0.2221 -0.1721  0.2768
    1W        W45388   4.784  11.119   2.928 -0.1617  0.0377 -0.3564
    1W        W45389  29.596  15.672   7.165 -0.0923 -0.4363 -0.2074
    1W        W45390   2.530   6.320   9.055  0.3762  0.0582 -0.3233
    1W        W45391   7.280   3.010   2.462  0.1689 -0.0439  0.1449
    1W        W45392  22.900  14.386   7.669 -0.0135  0.3222  0.1519
    1W        W45393  18.357  28.777   8.464  0.0502 -0.0288  0.2281
    1W        W45394  17.569  18.117   9.131  0.1138 -0.1531 -0.0086
    1W        W45395   2.471  25.243   6.211  0.1440 -0.0763 -0.0220
    1W        W45396  20.376  25.964   2.778  0.1126 -0.0454 -0.2337
    1W        W45397   9.772   0.171   1.322  0.0796  0.2487 -0.0081
    1W        W45398  16.892  12.167   7.517  0.2912  0.0470 -0.2416
    1W        W45399  24.488  20.387   3.023 -0.1965  0.0528  0.0761
    1W        W45400  12.831  26.696   2.498  0.1832  0.1633 -0.1663
    1W        W45401  16.325  21.810   8.867  0.2031  0.1571 -0.1293
    1W        W45402   6.776  27.822   8.001 -0.0818  0.0302 -0.1373
    1W        W45403  12.311  10.000   7.949 -0.1900 -0.3424 -0.0543
    1W        W45404   8.790  22.293   7.389 -0.3680 -0.1976  0.1617
    1W        W45405  29.748   1.398   2.734 -0.0550  0.3914  0.0733
    1W        W45406  15.789   9.157   7.315  0.0423  0.1134 -0.0363
    1W        W45407  26.948   8.058   6.490 -0.1986 -0.0061  0.0321
    1W        W45408  14.366   1.106   0.062 -0.1053 -0.1566  0.2323
    1W        W45409  18.522  16.870   2.246  0.0657 -0.0996 -0.0301
    1W        W45410   1.614  19.944   0.717  0.1071 -0.0383 -0.1226
    1W        W45411   9.451   0.982   0.086 -0.0992 -0.1388  0.1139
    1W        W45412  12.707  27.604   8.748 -0.0940  0.0129  0.0422
    1W        W45413  20.472  24.657   7.731  0.0319 -0.1397 -0.1044
    1W        W45414  22.145  25.571   8.539 -0.0790 -0.1416  0.1027
    1W        W45415  17.622  11.577   2.180  0.0940 -0.0371  0.2719
    1W        W45416   9.155  16.580   8.251  0.0590  0.2148  0.1246
    1W        W45417  20.029   4.578   1.288 -0.2674 -0.4567  0.2692
    1W        W45418  14.888   0.972   7.657 -0.3992  0.1084  0.0537
    1W        W45419   4.207  21.876   8.401 -0.3033 -0.1045 -0.1398
    1W        W45420  24.208   5.322   3.306  0.0290 -0.0426 -0.1652
    1W        W45421   5.164   1.746   0.615  0.0562 -0.0929  0.0735
    1W        W45422   1.030  21.347   2.163 -0.1573 -0.2883 -0.0782
    1W        W45423  11.523   7.617   2.195 -0.0555  0.0121 -0.0851
    1W        W45424   2.456   3.745   1.295 -0.3316  0.1818  0.0780
    1W        W45425  15.851  25.391   1.337  0.1357  0.1763 -0.1594
    1W        W45426   6.652   7.740   2.765 -0.1364  0.0493  0.2007
    1W        W45427  27.712  29.184   2.102  0.0228 -0.1821 -0.1449
    1W        W45428  24.150   1.113   1.034 -0.3463  0.1600 -0.0226
    1W        W45429  20.356  13.975   1.695  0.1769 -0.0252  0.2425
    1W        W45430   2.367  13.454   8.146  0.1347  0.0685  0.0843
    1W        W45431   1.165   4.331   1.188 -0.0265 -0.0155 -0.2212
    1W        W45432   3.203  13.379   1.232 -0.4242 -0.0253 -0.0304
    1W        W45433   5.455  16.946   8.308 -0.0866 -0.1066  0.0236
    1W        W45434  20.166  24.640   6.695  0.0473  0.2608  0.2989
    1W        W45435  26.036   5.646   2.366 -0.1832  0.0252 -0.2156
    1W        W45436   3.041   3.954   1.317 -0.1280  0.1527  0.2771
    1W        W45437  21.574   2.135   0.820  0.0690 -0.3588  0.3599
    1W        W45438  11.736   5.375   3.265 -0.1279  0.2614  0.2004
    1W        W45439   4.928  12.140   0.836  0.1510 -0.0847  0.0826
    1W        W45440  11.937  10.288   3.016 -0.5037 -0.1506 -0.1805
    1W        W45441   8.959   7.552   0.851 -0.0266 -0.0159 -0.2674
    1W        W45442   6.082  16.554   0.311 -0.0498 -0.2494 -0.1721
    1W        W45443  10.408  11.737   1.753  0.0688  0.1048 -0.1349
    1W        W45444  25.170  14.903   9.435  0.2182 -0.0549 -0.0554
    1W        W45445   4.104   0.806   7.213 -0.1777 -0.1311 -0.2714
    1W        W45446  18.075   8.375   7.395 -0.1661  0.0875  0.1471
    1W        W45447  16.941  21.366   6.719  0.2780 -0.0118 -0.3942
    1W        W45448   5.523   5.871   7.642 -0.1163 -0.0810 -0.0758
    1W        W45449   4.865  13.790   1.581 -0.1682 -0.2518  0.1667
    1W        W45450  21.961   5.458   1.148  0.2344  0.2346 -0.1810
    1W        W45451  24.856  28.366   1.561  0.1099 -0.0951 -0.0548
    1W        W45452   6.069  11.896   6.728 -0.0485 -0.0298  0.1980
    1W        W45453  14.400  22.385   6.189 -0.2589  0.0668 -0.2942
    1W        W45454  22.976  16.347   7.824  0.0153 -0.5055 -0.1644
    1W        W45455  29.360  19.259   1.812  0.1136 -0.3870 -0.0316
    1W        W45456   9.079  15.175   7.295  0.1121  0.2447 -0.1484
    1W        W45457  12.576  15.491   0.384 -0.1429 -0.0012  0.0546
    1W        W45458   4.751  18.984   5.900 -0.1541  0.2089  0.1349
    1W        W45459  21.358   0.140   2.216 -0.1088 -0.1409 -0.0536
    1W        W45460  17.935  19.531   0.081 -0.0126  0.0201  0.0328
    1W        W45461   9.634  12.074   8.108  0.1550  0.0653 -0.1694
    1W        W45462   9.865  11.909   1.109 -0.0393 -0.0258  0.0832
    1W        W45463  18.918   8.825   1.770  0.0614  0.0946  0.0916
    1W        W45464  15.838   2.719   3.418  0.2366 -0.1243 -0.2079
    1W        W45465   6.442  10.222   1.767 -0.1142 -0.3454  0.1709
    1W        W45466  13.362  24.683   5.689  0.1384 -0.0293  0.0011
    1W        W45467  20.755  11.254   2.101 -0.0778  0.1389 -0.1134
    1W        W45468  28.234  20.865   7.010 -0.2015  0.1847  0.0059
    1W        W45469  17.535  29.758   8.061 -0.1032  0.1735 -0.1218
    1W        W45470  23.035   9.691   0.359  0.0738 -0.1771 -0.0850
    1W        W45471  15.954   3.325   0.888  0.1363 -0.2370 -0.0102
    1W        W45472   7.187   7.642   3.552 -0.3016 -0.1131 -0.0892
    1W        W45473   8.288  23.153   6.422  0.1446 -0.5133 -0.1894
    1W        W45474  27.053   2.388   7.353  0.0856  0.0222  0.1419
    1W        W45475   4.740  11.153   6.513  0.0237  0.0885 -0.0314
    1W        W45476   2.585   0.469   6.462  0.0433 -0.0115 -0.0714
    1W        W45477  16.102  28.795   2.200 -0.2664  0.1963  0.1826
    1W        W45478  18.764   8.053   8.220 -0.0791 -0.3449 -0.2700
    1W        W45479  26.632  15.042   7.864  0.0985 -0.0864  0.1537
    1W        W45480  28.153  28.957   3.014 -0.0138 -0.1156  0.3542
    1W        W45481  24.712  25.028   2.149 -0.0547 -0.0443  0.0404
    1W        W45482   5.135   5.109   0.718 -0.0126  0.0756 -0.4335
    1W        W45483  26.515  13.194   1.798  0.2199  0.1859  0.1153
    1W        W45484  25.286  20.398   2.846 -0.0628  0.1427  0.1132
    1W        W45485  25.943   2.612   6.792  0.1061  0.0144 -0.2717
    1W        W45486   0.504   5.249   8.808  0.2380  0.1856 -0.2559
    1W        W45487   1.084  27.353   6.941  0.1397 -0.0860  0.2906
    1W        W45488  21.749  10.165   0.792 -0.0411 -0.0149  0.2941
    1W        W45489  25.184  12.563   1.238 -0.2438 -0.0727  0.0629
    1W        W45490   8.484  12.427   2.102 -0.0225 -0.0523 -0.1479
    1W        W45491  22.367   6.412   0.357  0.0321  0.0234 -0.0017
    1W        W45492  15.678  28.376   2.481 -0.1357 -0.1653 -0.1471
    1W        W45493   7.291  22.795   2.034  0.0045 -0.0412 -0.0605
    1W        W45494  11.745   8.785   6.912  0.1121  0.1910  0.1804
    1W        W45495   3.667  27.736   0.623 -0.1455  0.3399  0.1181
    1W        W45496  20.649   0.243   8.187 -0.1247 -0.1201  0.1105
    1W        W45497  14.094  10.396   9.240  0.1328  0.0125 -0.2017
    1W        W45498  28.160  21.118   2.735  0.2539  0.0452 -0.2063
    1W        W45499  29.297   3.880   8.873  0.1890 -0.1440  0.2411
    1W        W45500  10.444  25.327   0.899  0.0637 -0.2377  0.0731
    1W        W45501   5.054  14.459   7.583 -0.2482  0.1848  0.2181
    1W        W45502   6.742   1.468   3.255  0.2394  0.2344 -0.0411
    1W        W45503   1.107  18.043   7.745 -0.2839 -0.0335  0.0749
    1W        W45504  10.068  20.824   7.971 -0.3128 -0.3026 -0.0433
    1W        W45505   6.050  29.776   1.816  0.0856 -0.2858  0.2070
    1W        W45506   6.847  28.662   6.962  0.2770 -0.1774  0.3549
    1W        W45507  28.984  20.554   8.563 -0.1111  0.0484 -0.1383
    1W        W45508   8.635  25.020   9.061  0.0525  0.0465 -0.2401
    1W        W45509  13.567   6.315   2.306 -0.0047 -0.1264 -0.0782
    1W        W45510  12.809  12.038   7.749  0.2104  0.2578  0.0724
    1W        W45511   6.525   2.701   8.204 -0.0441  0.0025  0.1605
    1W        W45512  19.033  25.175   1.997 -0.2739  0.1243 -0.2767
    1W        W45513  25.151  13.916   6.683  0.1673  0.2499 -0.1964
    1W        W45514  20.356   9.324   6.335  0.0311  0.1088 -0.2045
    1W        W45515   5.030   5.519   1.987 -0.1076  0.1505 -0.0405
    1W        W45516  22.896   2.988   1.603  0.0460 -0.2634  0.4011
    1W        W45517  22.680   1.635   8.695 -0.0872  0.0744 -0.1705
    1W        W45518  13.764   9.821   0.227  0.0345 -0.0956  0.2716
    1W        W45519  19.514  19.303   8.348  0.3733 -0.0141 -0.1059
    1W        W45520  28.148   3.046   7.471 -0.3327  0.0772  0.1120
    1W        W45521  19.155  19.481   1.489 -0.0267 -0.0774  0.0490
    1W        W45522  11.516  17.634   7.128  0.1934  0.2275  0.0345
    1W        W45523   5.382   9.765   7.520  0.0476 -0.0234 -0.2085
    1W        W45524  15.038   0.037   8.258 -0.3078  0.0855 -0.3108
    1W        W45525  15.026  26.619   8.315 -0.1725 -0.1454  0.0960
    1W        W45526  25.366  26.415   1.230 -0.6737 -0.0630  0.1075
    1W        W45527  29.388  10.250   8.708 -0.0456  0.0890 -0.2102
    1W        W45528   5.387   8.373   8.814 -0.0714 -0.2725  0.4061
    1W        W45529  18.958  16.081   0.739  0.1447  0.3434 -0.0158
    1W        W45530  17.293  19.874   9.220  0.0883 -0.2169  0.0314
    1W        W45531  19.059  24.439   2.105 -0.1153  0.1447  0.1017
    1W        W45532   5.873  14.129   6.050  0.2297 -0.1216  0.2931
    1W        W45533  29.770   0.778   8.239  0.1371 -0.4089  0.2076
    1W        W45534  22.416   5.394   1.578 -0.1499  0.0746 -0.2121
    1W        W45535  12.594  28.427   7.857  0.1280 -0.2614  0.1173
    1W        W45536  15.151   9.388   8.530  0.1091  0.2187  0.0733
    1W        W45537   2.251  25.898   1.217 -0.2124  0.0546 -0.1365
    1W        W45538  14.766   7.538   1.947 -0.0704 -0.2650  0.0557
    1W        W45539  21.279   3.066   7.483  0.1708  0.0263  0.2403
    1W        W45540   9.778  28.913   7.760 -0.0833  0.1756  0.4266
    1W        W45541  19.105  25.791   8.453 -0.0973  0.0222  0.1818
    1W        W45542   4.103  21.120   1.549 -0.1848 -0.0594  0.1549
    1W        W45543  14.957   1.750   8.002  0.0839  0.1119  0.1993
    1W        W45544  12.947   0.571   7.543 -0.2248 -0.0647 -0.0014
    1W        W45545   8.282  20.458   5.923 -0.0445  0.1600  0.2804
    1W        W45546   2.930   9.698   8.153  0.1661  0.0813 -0.2173
    1W        W45547  13.799  16.556   7.220  0.1685  0.1359  0.1043
    1W        W45548   8.719  10.092   2.440 -0.0671  0.2016  0.1322
    1W        W45549   5.791   4.485   8.914 -0.4895 -0.3057 -0.1732
    1W        W45550  22.005   4.001   0.809  0.3069 -0.1457 -0.1298
    1W        W45551   7.524   7.134   8.397  0.3070  0.1337 -0.3387
    1W        W45552   8.923  23.493   0.018 -0.2626 -0.0354 -0.2645
    1W        W45553  22.801  29.131   7.446 -0.1769 -0.2455 -0.0624
    1W        W45554  22.873   5.859   7.364 -0.0434 -0.0773 -0.0250
    1W        W45555   1.774   4.355   8.260 -0.0793  0.0187 -0.4952
    1W        W45556   4.786  26.090   1.800 -0.0171  0.1450  0.1236
    1W        W45557   1.962   5.566   8.558 -0.0834  0.0137  0.0324
    1W        W45558  20.015  23.838   8.735  0.2193 -0.0130 -0.1108
    1W        W45559  24.098   0.422   8.040 -0.3101  0.0637  0.0341
    1W        W45560  28.091   1.548   7.455  0.0474 -0.1240 -0.1578
    1W        W45561  11.659   7.398   8.103 -0.0897  0.0781  0.1025
    1W        W45562   4.460   7.432   7.877  0.2708 -0.1979 -0.0672
    1W        W45563  10.829   2.351   6.994 -0.2812  0.0079  0.2109
    1W        W45564   1.007   1.837   6.959 -0.0280 -0.2330  0.2933
    1W        W45565   9.415  22.063   8.142 -0.0988 -0.0091 -0.0276
    1W        W45566   1.059  25.399   1.430 -0.0912 -0.0213 -0.2779
    1W        W45567  13.701  11.229   6.617 -0.1877 -0.0415  0.0198
    1W        W45568   5.978  13.775   8.285  0.1362 -0.2518 -0.1627
    1W        W45569  18.675   4.326   7.178 -0.0535  0.2648 -0.0175
    1W        W45570  25.031  22.170   8.494  0.0681 -0.1723 -0.3810
    1W        W45571  16.663   9.526   0.913  0.0746 -0.1834  0.0989
    1W        W45572   3.530  23.315   9.391 -0.2556  0.2439 -0.0082
    1W        W45573   6.403   2.049   2.679 -0.1880  0.2093  0.1819
    1W        W45574  18.919  27.852   7.261  0.0369 -0.1685 -0.0772
    1W        W45575   8.805  12.040   7.765  0.0677 -0.3286  0.0810
    1W        W45576  15.940   3.493   1.616 -0.2969 -0.1381  0.2441
    1W        W45577  25.444   4.548   2.286 -0.0677  0.0125  0.1100
    1W        W45578  25.895   5.504   1.645 -0.0129 -0.2132  0.0435
    1W        W45579   1.954  19.472   6.859 -0.2024 -0.4703 -0.1263
    1W        W45580   6.708   7.972   7.096 -0.1206  0.4669  0.3232
    1W        W45581   9.846   6.362   1.096 -0.2147 -0.0951 -0.0420
    1W        W45582  17.250  11.725   6.202  0.0047 -0.0243  0.0625
    1W        W45583   6.718   4.704   9.006 -0.2615  0.4751  0.0611
    1W        W45584  19.397  27.623   8.065  0.2369 -0.2312  0.0583
    1W        W45585  13.807  21.714   7.326  0.0906 -0.2934  0.2357
    1W        W45586   7.211  15.124   1.025  0.0298  0.0825  0.2547
    1W        W45587  29.138   2.107   2.806  0.2900 -0.0110  0.0212
    1W        W45588   1.408  28.156   6.486 -0.5472 -0.1447 -0.2211
    1W        W45589  21.266  25.293   8.235 -0.0041  0.1151  0.1912
    1W        W45590  24.060  17.405   1.296 -0.1300 -0.3736 -0.0536
    1W        W45591   4.449   5.678   2.322  0.0495  0.0813 -0.3354
    1W        W45592   2.815   0.336   9.453 -0.1354  0.1904 -0.1369
    1W        W45593  19.546   8.359   7.506  0.0838  0.0903  0.0818
    1W        W45594   0.563  27.002   0.163  0.2557  0.2180  0.2528
    1W        W45595   2.201  20.559   0.694 -0.0520 -0.0553  0.1065
    1W        W45596   0.509   1.413   9.232 -0.1047 -0.1517 -0.2865
    1W        W45597  11.858  14.930   9.343  0.0570 -0.0571 -0.0615
    1W        W45598  20.619   0.980   1.316 -0.3986  0.2385 -0.0880
    1W        W45599  13.098  10.673   1.665  0.1042 -0.0541  0.2626
    1W        W45600  24.843   4.219   2.840 -0.0171  0.0007  0.1217
    1W        W45601   5.058  25.453   7.726 -0.0407  0.2847 -0.1432
    1W        W45602   6.461  23.893   6.940 -0.3862 -0.0091  0.1071
    1W        W45603  26.159  13.282   6.362  0.0760 -0.0497 -0.1558
    1W        W45604  23.439  10.916   1.487  0.1656  0.0178 -0.0648
    1W        W45605   1.242   6.637   8.998  0.0716 -0.1905  0.1022
    1W        W45606  18.232  27.918   0.642  0.0909  0.1255 -0.0768
    1W        W45607  26.582  12.131   6.659 -0.1132  0.0742 -0.0127
    1W        W45608   5.450  14.886   6.924  0.0280  0.0800  0.0854
    1W        W45609  13.367   1.865   2.478  0.1197  0.0525  0.0373
    1W        W45610  20.543  13.374   0.993  0.0873  0.2274 -0.0217
    1W        W45611   4.706  21.071   8.598 -0.1191  0.2065  0.1535
    1W        W45612  13.153  21.568   0.258 -0.0131  0.0911  0.1515
    1W        W45613  17.564  13.772   1.841  0.1965 -0.1457  0.0161
    1W        W45614  11.809  21.294   2.614 -0.0654  0.3578 -0.0646
    1W        W45615  20.585  25.126   1.837  0.1629 -0.1962  0.0329
    1W        W45616   4.964  27.620   8.971 -0.0261 -0.0897 -0.1143
    1W        W45617   2.686   0.957   8.341  0.1718  0.0197  0.0979
    1W        W45618  10.348   9.960   2.373  0.1293  0.1393  0.3780
    1W        W45619  19.499   2.343   8.982 -0.2827 -0.4039 -0.0073
    1W        W45620  22.710  12.037   7.426  0.2349  0.2987  0.0534
    1W        W45621  22.161   9.260   2.842 -0.1128 -0.3882  0.2913
    1W        W45622  22.752  26.130   8.926  0.1847 -0.1233  0.1893
    1W        W45623  25.661  13.766   9.123 -0.0700 -0.0042  0.1367
    1W        W45624  22.844   7.320   2.113  0.1982 -0.1777 -0.2414
    1W        W45625   4.195   3.221   1.792  0.0057  0.2405 -0.2360
    1W        W45626  11.610  23.236   7.121  0.1076  0.0542  0.0436
    1W        W45627  22.139  10.506   0.894 -0.0380 -0.2813  0.0146
    1W        W45628  15.603  29.444   7.196 -0.0308  0.0280  0.0184
    1W        W45629  16.509  19.935   1.584  0.1778  0.0067  0.1311
    1W        W45630   4.707  10.532   8.742 -0.1044 -0.0409 -0.0769
    1W        W45631  22.006   8.509   9.190  0.4985  0.0435 -0.1839
    1W        W45632  26.252   0.520   3.109 -0.1987 -0.1507 -0.0970
    1W        W45633  28.564   5.243   8.460  0.1109 -0.1457 -0.0385
    1W        W45634   8.255   0.814   8.995 -0.1361 -0.0853  0.0484
    1W        W45635  24.996  27.859   1.728  0.1246 -0.1634 -0.0739
    1W        W45636  28.525  27.244   7.354  0.1344 -0.3245 -0.2470
    1W        W45637  24.727   8.701   2.400 -0.2738 -0.1349  0.0365
    1W        W45638  23.787  15.416   7.545  0.3044 -0.5128  0.0352
    1W        W45639  17.490  10.928   8.012 -0.1501 -0.3714 -0.2520
    1W        W45640  17.603  29.137   6.524 -0.0105 -0.0805  0.0176
    1W        W45641  17.602  13.426   8.214 -0.1387 -0.1722 -0.0968
    1W        W45642  18.350  23.112   1.960  0.1674 -0.1895  0.0644
    1W        W45643   8.593  29.246   0.647  0.0587  0.1519  0.2007
    1W        W45644   9.524  23.419   7.079  0.0075 -0.1732 -0.0579
    1W        W45645  18.528   6.580   2.411  0.2560  0.0173 -0.0117
    1W        W45646   8.799  22.601   0.731 -0.0900 -0.0265  0.3249
    1W        W45647   7.181  16.009   7.835  0.0504 -0.3412 -0.1680
    1W        W45648  27.524   0.737   1.520  0.0166 -0.3505 -0.1445
    1W        W45649  25.377  27.433   9.241 -0.0033 -0.0510 -0.2449
    1W        W45650   0.419   4.918   8.422  0.3578 -0.0257 -0.2042
    1W        W45651  10.475  21.821   9.105 -0.0812  0.0158  0.1694
    1W        W45652   4.976   8.428   7.139  0.1509 -0.0155 -0.0699
    1W        W45653  21.581  13.406   7.546 -0.3912  0.1520 -0.3759
    1W        W45654  17.201  16.890   0.388  0.0694  0.0858 -0.1038
    1W        W45655  25.650   0.743   2.855 -0.0266 -0.0964  0.1986
    1W        W45656  20.073  22.209   8.699  0.0535  0.1161 -0.0434
    1W        W45657  19.650  11.452   7.093  0.2068 -0.1336  0.0494
    1W        W45658   0.572   8.833   0.306  0.0983  0.0885 -0.2714
    1W        W45659  21.148   8.986   2.642 -0.0981  0.1510 -0.2037
    1W        W45660  29.271  23.385   0.787 -0.1142 -0.0671 -0.0189
    1W        W45661  18.215  25.569   7.973 -0.0348  0.1933  0.2198
    1W        W45662  10.322  16.105   1.615  0.2421  0.0401  0.0249
    1W        W45663  28.970   3.014   2.800  0.1875 -0.0941 -0.2395
    1W        W45664   2.170  23.639   7.126  0.1918 -0.1597 -0.1509
    1W        W45665   3.766  10.783   0.414  0.2422  0.1778 -0.0384
    1W        W45666  16.329   3.731   8.507 -0.2372 -0.2075 -0.2167
    1W        W45667  15.885  20.733   1.746  0.1314 -0.1222  0.0231
    1W        W45668   4.404  29.019   0.372  0.0758 -0.0683  0.3001
    1W        W45669  22.608  18.014   7.712  0.1288  0.2221  0.0284
    1W        W45670  14.583  13.460   1.004  0.3226  0.1354  0.1497
    1W        W45671  21.453  28.053   0.792  0.0950  0.2135 -0.1153
    1W        W45672   6.840   1.428   6.833 -0.4909  0.0946  0.0745
    1W        W45673  15.740   4.771   7.017  0.0915  0.0306  0.0861
    1W        W45674  23.494  16.117   8.267 -0.0626 -0.1003 -0.1248
    1W        W45675  25.645   4.162   9.377 -0.2572  0.2390 -0.0343
    1W        W45676   8.518  16.332   8.856  0.4523  0.2359  0.4547
    1W        W45677  21.793   5.092   7.191 -0.2030 -0.3091 -0.3857
    1W        W45678   0.277  16.892   7.319 -0.0672  0.1969  0.1452
    1W        W45679   1.841   1.508   7.476 -0.0566 -0.2277  0.3810
    1W        W45680  27.940  24.951   9.296  0.4002  0.1834  0.1512
    1W        W45681   5.566  28.536   6.646  0.2095 -0.1346  0.2851
    1W        W45682  23.769  27.243   2.361 -0.0465  0.2907 -0.0099
    1W        W45683  27.303  21.399   1.493  0.2361  0.0622  0.4582
    1W        W45684   7.277  14.316   7.311 -0.2071  0.0762 -0.1372
    1W        W45685  23.760  29.012   6.286 -0.4384  0.0667 -0.3728
    1W        W45686  25.588  25.291   7.594 -0.2754  0.1096  0.2401
    1W        W45687  14.570  22.165   8.521 -0.3523  0.0538  0.2848
    1W        W45688   4.277   0.403   3.450 -0.3434  0.2948 -0.2177
    1W        W45689  27.691   9.555   0.115  0.3219 -0.0674  0.2545
    1W        W45690   7.037   0.524   7.325  0.0855  0.0452  0.0192
    1W        W45691  11.135   5.480   8.947 -0.2408 -0.1307 -0.2627
    1W        W45692   2.917  16.985   0.146 -0.2462  0.1470  0.1308
    1W        W45693  20.298   8.287   2.046  0.4852 -0.0724 -0.0382
    1W        W45694  21.586  21.501   9.053  0.2486 -0.0316  0.1013
    1W        W45695  28.762  15.306   7.349 -0.3142  0.0761 -0.0701
    1W        W45696  27.915   5.213   9.166  0.2058  0.0256 -0.0809
    1W        W45697   7.667   1.344   7.505 -0.3213  0.0330 -0.0284
    1W        W45698  25.869  20.816   8.677  0.1437  0.2760 -0.1604
    1W        W45699  27.195  26.900   2.221 -0.2899  0.2465 -0.3120
    1W        W45700  29.003  19.565   1.597  0.2681  0.0566 -0.0934
    1W        W45701  26.314  13.130   1.349 -0.2515  0.2872  0.0342
    1W        W45702   7.147   4.628   9.368 -0.0366 -0.0591  0.2594
    1W        W45703  25.387  21.891   8.311  0.0654  0.2117 -0.2166
    1W        W45704   1.960  22.180   8.003  0.0841  0.2143  0.0288
    1W        W45705  22.986  20.336   8.525 -0.1532 -0.0982 -0.1304
    1W        W45706  21.269  10.349   0.589 -0.0139 -0.1265 -0.1385
    1W        W45707  27.956  22.922   5.818  0.2017 -0.0124  0.1212
    1W        W45708  25.232  15.772   1.546 -0.0826  0.2390 -0.1246
    1W        W45709  16.141  20.039   8.949 -0.2446  0.0523 -0.1378
    1W        W45710  14.596   1.628   6.796 -0.1479  0.1623 -0.2005
    1W        W45711  29.129  18.833   9.150 -0.3266 -0.1364 -0.3111
    1W        W45712   6.825  19.057   5.713 -0.5091 -0.0834 -0.1554
    1W        W45713  11.315   1.282   8.765  0.1617  0.2026  0.2667
    1W        W45714   3.863  14.016   1.093  0.3122 -0.2370  0.1091
    1W        W45715  12.337   6.972   1.229  0.1677  0.1765  0.0214
    1W        W45716  24.804   6.918   0.087  0.3781 -0.4814 -0.3695
    1W        W45717   7.246  15.972   5.573 -0.0398  0.1808  0.1320
    1W        W45718  22.125  19.881   6.910  0.2938 -0.0818 -0.0753
    1W        W45719  24.815  21.833   0.304  0.1744  0.1213  0.2913
    1W        W45720   1.469  26.493   8.397 -0.0584  0.1153  0.0548
    1W        W45721  19.712  10.658   0.144 -0.0646  0.2572  0.1596
    1W        W45722  26.285  21.108   2.600  0.1025 -0.1429  0.1963
    1W        W45723   5.013  21.330   8.928  0.0261 -0.2950 -0.0111
    1W        W45724   5.882   7.060   1.296 -0.2053  0.0264  0.0279
    1W        W45725  18.004   1.293   7.638  0.2997 -0.0575 -0.3628
    1W        W45726   4.647  18.681   8.784  0.1293  0.4612  0.2198
    1W        W45727  22.114  27.632   1.471 -0.3380 -0.0451  0.0175
    1W        W45728   3.802  29.408   5.712 -0.1077  0.0716 -0.2561
    1W        W45729   7.209   8.239   1.208 -0.0817  0.3529 -0.1709
    1W        W45730  23.306  27.333   5.976 -0.1577  0.2411 -0.0823
    1W        W45731  11.819  18.834   1.046  0.0668 -0.0632 -0.0116
    1W        W45732  15.651   1.984   2.448  0.2124  0.0985  0.0923
    1W        W45733  24.249  28.868   7.016 -0.4144 -0.4109 -0.1131
    1W        W45734  10.244  29.453   1.369  0.1318  0.3640  0.3572
    1W        W45735   1.690  16.870   0.567 -0.0225 -0.0715  0.3882
    1W        W45736   4.304   5.488   9.423  0.0861  0.0522 -0.1489
    1W        W45737  10.152  19.768   0.019 -0.4730 -0.1953 -0.0002
    1W        W45738  27.408  26.678   6.903 -0.3094 -0.2523  0.2116
    1W        W45739   3.026   4.042   3.942  0.2102 -0.1351 -0.0509
    1W        W45740  22.330   6.599   2.357 -0.0147  0.1897 -0.1803
    1W        W45741  20.989   7.841   2.003  0.2492 -0.1141 -0.0609
    1W        W45742   6.603  18.078   8.350 -0.0893 -0.2001  0.1116
    1W        W45743  20.775   5.179   8.545 -0.0622  0.2789 -0.1124
    1W        W45744   8.747  13.648   1.034 -0.1382 -0.0743  0.2637
    1W        W45745  29.172   5.295   1.387 -0.2807 -0.0679 -0.1563
    1W        W45746  11.397  18.556   1.216 -0.3122 -0.2929  0.0880
    1W        W45747  20.578  12.692   0.687  0.0436 -0.3461  0.0142
    1W        W45748  28.897  25.142   1.679 -0.0825  0.0266 -0.0519
    1W        W45749  24.130   8.795   1.625 -0.2207 -0.1859 -0.1109
    1W        W45750  14.253   5.080   1.667 -0.2310  0.0034  0.0927
    1W        W45751  26.811  20.684   9.220 -0.0717 -0.0446  0.0093
    1W        W45752   1.574  11.359   3.069  0.2734  0.3295 -0.2479
    1W        W45753  19.426   2.531   8.106 -0.1696 -0.3830 -0.0279
    1W        W45754  26.918  26.416   1.904 -0.2256  0.2147  0.0776
    1W        W45755  16.478  23.799   0.121 -0.0116  0.1038 -0.1230
    1W        W45756  11.086  24.324   8.574 -0.3479  0.0398  0.0793
    1W        W45757  11.408   1.254   0.754 -0.2785 -0.0086  0.2435
    1W        W45758   3.788  24.877   8.500 -0.0760  0.2844  0.4065
    1W        W45759   7.422   9.988   0.198  0.0063  0.3383  0.4109
    1W        W45760  28.239  24.414   0.788 -0.0110  0.1134  0.1936
    1W        W45761   1.840  22.441   7.069  0.0334 -0.0570 -0.2213
    1W        W45762   4.595  23.756   1.768 -0.2696 -0.0452 -0.1306
    1W        W45763  11.256  11.999   7.323  0.1354 -0.2840 -0.1518
    1W        W45764   3.148   1.846   1.907  0.1911  0.2291  0.1281
    1W        W45765  19.893  23.042   8.534  0.0494  0.0290 -0.2111
    1W        W45766  22.850  17.950   1.737 -0.1275  0.1572  0.2304
    1W        W45767  25.609  22.327   2.438  0.5623  0.4520  0.2778
    1W        W45768  20.345  20.981   8.660 -0.0962  0.0070 -0.0029
    1W        W45769   2.840  18.612   9.182  0.0344  0.1395 -0.1766
    1W        W45770  18.671   1.393   1.222 -0.1262  0.0239 -0.0527
    1W        W45771   7.619   8.605   1.224  0.1984 -0.1616 -0.0387
    1W        W45772   6.305  24.260   2.000  0.2544  0.1964  0.0378
    1W        W45773   8.229  20.636   9.002 -0.2108 -0.0557  0.0733
    1W        W45774  19.737   4.727   7.322  0.2868 -0.0935 -0.3010
    1W        W45775   7.670   3.955   7.997 -0.1079  0.1151  0.0364
    1W        W45776  27.820   8.934   8.756 -0.0841 -0.0484 -0.1045
    1W        W45777  16.290   0.263   0.816  0.0667 -0.0643  0.0449
    1W        W45778  10.934   8.515   0.326 -0.0007  0.1131  0.3639
    1W        W45779   5.365  29.461   7.430  0.1460 -0.1069 -0.3305
    1W        W45780   4.361   3.457   0.721 -0.3550 -0.1923  0.2838
    1W        W45781  18.355  27.917   7.220 -0.1292  0.2268  0.2388
    1W        W45782  27.189  15.525   6.716 -0.1205 -0.0301 -0.0897
    1W        W45783   4.181   3.214   5.989 -0.1676 -0.0465 -0.3195
    1W        W45784  29.700   0.461   0.766  0.0519 -0.0087 -0.2082
    1W        W45785  18.110   0.311   7.480  0.0504 -0.2798  0.0870
    1W        W45786  11.447  18.975   7.684 -0.1774 -0.0781  0.0771
    1W        W45787  13.141   6.964   8.750 -0.0208 -0.1724 -0.3371
    1W        W45788  18.348  23.780   8.690  0.0203 -0.3839  0.1769
    1W        W45789  19.312  27.786   2.469 -0.1247  0.1842 -0.1684
    1W        W45790  16.049  11.409   8.491  0.1285 -0.3632  0.1532
    1W        W45791  10.239  26.242   7.491 -0.0022  0.2152  0.0549
    1W        W45792   6.107   7.706   3.247  0.1898  0.0627  0.0946
    1W        W45793  12.020  10.775   1.425 -0.1687 -0.0254 -0.1684
    1W        W45794  23.993  14.964   7.640  0.2274  0.2419  0.3669
    1W        W45795  11.682   9.130   1.980 -0.0059 -0.1647 -0.0722
    1W        W45796  21.240  13.877   0.883 -0.0474  0.0658  0.0385
    1W        W45797   3.087  15.268   9.048  0.1542  0.1544  0.1865
    1W        W45798  27.551   2.304   2.484  0.0956  0.1868  0.0510
    1W        W45799  16.737  28.180   2.506  0.1421 -0.0190  0.3054
    1W        W45800  24.522   8.766   9.378 -0.1908 -0.0698  0.1240
    1W        W45801  16.414   9.572   7.122 -0.2236  0.0409  0.3745
    1W        W45802  29.781  18.121   2.873  0.0881  0.1614  0.2547
    1W        W45803   2.641   9.550   1.229 -0.5380  0.0525  0.0069
    1W        W45804  13.214   0.692   7.089 -0.0505  0.0987 -0.0766
    1W        W45805   5.239  13.425   8.852  0.0127  0.0742 -0.0674
    1W        W45806   6.528   8.609   9.273 -0.0514 -0.3204  0.1816
    1W        W45807  25.109  27.376   7.249  0.3220  0.2103 -0.0176
    1W        W45808   1.883   4.004   0.949 -0.2612 -0.3523 -0.1333
    1W        W45809   3.816  23.917   1.880 -0.0408 -0.0533  0.1146
    1W        W45810  15.480  17.724   2.326 -0.1350  0.0644 -0.2242
    1W        W45811  24.054   8.404   1.007  0.0687 -0.0675 -0.0749
    1W        W45812  22.453  16.423   1.026 -0.2103 -0.0008  0.1524
    1W        W45813  17.778   5.648   6.100 -0.0574 -0.0822 -0.1711
    1W        W45814  18.647  16.520   1.844 -0.2912 -0.0526  0.0957
    1W        W45815  13.705   6.371   6.681  0.1910  0.0579 -0.0298
    1W        W45816  18.945  16.957   2.758 -0.0634 -0.0331 -0.1297
    1W        W45817  12.664  21.715   7.859  0.0212 -0.0674  0.1686
    1W        W45818   0.805  22.961   1.626  0.0030 -0.0575 -0.1151
    1W        W45819  12.744  10.476   8.647 -0.3524 -0.0647 -0.0405
    1W        W45820  21.226  26.692   1.323  0.1469 -0.0585 -0.3045
    1W        W45821  24.706  16.400   1.825 -0.0571 -0.3212 -0.0453
    1W        W45822  17.463   1.694   0.786 -0.1202  0.0275 -0.2219
    1W        W45823   4.514  26.462   2.099 -0.1315 -0.1474  0.2342
    1W        W45824  22.396   5.672   8.055 -0.1443  0.1444  0.2491
    1W        W45825  24.428  18.667   7.713  0.1396 -0.0501 -0.1704
    1W        W45826  24.317  11.237   8.003  0.2396  0.1417 -0.0988
    1W        W45827   1.821  24.511   2.616 -0.0734  0.0135  0.2318
    1W        W45828  14.951  16.218   0.772  0.1117 -0.2146  0.1523
    1W        W45829  18.601  19.727   0.296 -0.0156 -0.1699  0.1732
    1W        W45830  12.117  13.627   6.926 -0.2642  0.1472  0.4802
    1W        W45831  26.547   2.455   0.979  0.0077  0.2539 -0.0805
    1W        W45832   2.239  28.156   1.425  0.0246  0.1754  0.0120
    1W        W45833  11.595  23.448   7.644 -0.2826  0.3881 -0.3344
    1W        W45834  10.720   5.642   0.488  0.0797 -0.3554  0.0242
    1W        W45835  16.422  18.883   0.059  0.1013 -0.1180  0.0817
    1W        W45836   9.943  23.086   7.410 -0.1336  0.0287  0.0108
    1W        W45837   5.881  24.595   9.107 -0.2185 -0.0346  0.0428
    1W        W45838   5.048  19.665   1.731  0.1515  0.2417 -0.0152
    1W        W45839   2.697   2.738   2.758 -0.2108 -0.0751 -0.2957
    1W        W45840  23.814   3.425   3.337 -0.1627 -0.1153  0.0048
    1W        W45841  25.827   2.984   9.351 -0.2460  0.1151  0.0340
    1W        W45842  22.016  18.169   1.753 -0.1247 -0.2925  0.0324
    1W        W45843  15.429  28.173   7.262  0.0002  0.1891  0.0323
    1W        W45844  24.398   4.762   9.029  0.1421 -0.0658 -0.2571
    1W        W45845   5.739  14.336   6.810  0.0585  0.0879  0.0386
    1W        W45846  19.243  21.848   8.431 -0.0481 -0.0615 -0.1740
    1W        W45847   3.190   8.270   1.566  0.1019 -0.2589 -0.1402
    1W        W45848  21.318  28.875   1.113  0.1235  0.0079 -0.0190
    1W        W45849   6.146   0.232   0.150  0.0188 -0.1047 -0.0770
    1W        W45850  18.023  29.893   7.956 -0.2099  0.1133  0.0519
    1W        W45851   3.299   4.112   6.861  0.2047 -0.2938 -0.4319
    1W        W45852  28.864  13.514   7.758  0.1240  0.1610 -0.1125
    1W        W45853  18.144   0.825   0.244  0.0762 -0.0534  0.0926
    1W        W45854  13.751   9.955   2.556  0.3002  0.2821  0.0033
    1W        W45855  22.667  14.808   9.183  0.1993  0.0308  0.1414
    1W        W45856  28.086  13.564   1.404 -0.2052  0.1465  0.0815
    1W        W45857   7.942   0.951   7.468 -0.0628  0.1606  0.1183
    1W        W45858  15.652   8.493   6.740  0.0299  0.1164 -0.3494
    1W        W45859  19.733  17.872   8.563 -0.0560  0.0735 -0.4356
    1W        W45860   4.137  24.420   1.553 -0.0690 -0.0534 -0.0502
    1W        W45861   6.248  23.910   6.077  0.2283 -0.0209 -0.0557
    1W        W45862  25.194   7.816   1.823 -0.3317  0.1372 -0.1437
    1W        W45863  27.627   3.655   1.385  0.1072 -0.0940  0.2668
    1W        W45864  21.935  13.326   1.640 -0.1545 -0.1313 -0.0424
    1W        W45865  23.897  15.098   5.883 -0.1423  0.1784 -0.0532
    1W        W45866  12.143  26.484   1.877 -0.3964 -0.0576  0.2163
    1W        W45867   6.236  10.973   1.088  0.0356  0.5431 -0.0936
    1W        W45868   0.780  11.403   1.112 -0.0628 -0.0352 -0.3772
    1W        W45869  25.890  16.045   6.684  0.1017 -0.0435  0.1369
    1W        W45870   5.954   6.021   6.690 -0.1186  0.0052  0.2727
    1W        W45871   1.754  23.950   7.054 -0.0144  0.1186 -0.1504
    1W        W45872  11.017   5.282   2.351 -0.2092 -0.2687  0.0848
    1W        W45873  17.073   7.178   0.955  0.0070  0.1186  0.2349
    1W        W45874   6.589   1.068   3.043 -0.0927  0.0765  0.1174
    1W        W45875   8.118  28.423   0.351  0.1768 -0.4229  0.0255
    1W        W45876  19.267  28.037   2.933  0.2467  0.0546 -0.3915
    1W        W45877   4.427   7.630   0.298 -0.1660  0.0443 -0.0918
    1W        W45878  26.005  21.949   1.563 -0.1579  0.2370  0.0567
    1W        W45879  16.843   9.167   2.241 -0.1533  0.1513  0.0651
    1W        W45880  23.195  22.618   0.082  0.3259 -0.0295 -0.3994
    1W        W45881  28.557  11.452   0.530  0.2026  0.1393  0.0668
    1W        W45882  10.312  18.363   8.842  0.1858 -0.1129  0.1030
    1W        W45883  28.020  16.132   6.784  0.1658 -0.3482 -0.1278
    1W        W45884  14.864  18.646   1.154 -0.0184  0.1898  0.0151
    1W        W45885   7.371  23.523   0.067  0.1807  0.1503  0.1176
    1W        W45886  10.601  20.834   6.994 -0.1589 -0.1851  0.0219
    1W        W45887  16.363  15.576   9.160  0.1951  0.1288  0.1021
    1W        W45888  18.768   0.746   7.240 -0.0174  0.1586 -0.0026
    1W        W45889   1.697  29.709   1.541  0.1955  0.1240  0.1353
    1W        W45890  11.066  19.627   8.493  0.3144  0.0847  0.3258
    1W        W45891   1.374  22.890   9.008 -0.0162 -0.0905  0.0380
    1W        W45892  12.833  14.753   7.685 -0.0869 -0.1573  0.1913
    1W        W45893  14.772  14.721   1.751 -0.0502 -0.0322 -0.1641
    1W        W45894  21.340  13.596   0.415  0.0598  0.0977  0.1570
    1W        W45895  25.870   5.044   3.092 -0.0764  0.0021  0.0861
    1W        W45896  16.390  27.508   0.995 -0.3519  0.0701  0.0575
    1W        W45897  11.849   8.466   2.447 -0.3622 -0.0389 -0.3108
    1W        W45898   6.088  25.829   2.159  0.2606 -0.0696 -0.2698
    1W        W45899  17.784  23.405   2.620 -0.0360  0.2727  0.2426
    1W        W45900  17.030  22.333   7.198 -0.3467 -0.0839 -0.0113
    1W        W45901  27.634  12.252   8.551 -0.2158  0.0380  0.2216
    1W        W45902   2.870  11.450   0.198  0.1608  0.1057  0.2255
    1W        W45903  17.916  27.757   1.460 -0.0084  0.1198  0.1575
    1W        W45904   8.264  29.486   9.380 -0.0381 -0.1602  0.2370
    1W        W45905   8.542   9.643   3.235  0.0329  0.0616 -0.2027
    1W        W45906  10.913  19.365   0.462 -0.1563 -0.0670 -0.1555
    1W        W45907  26.515  22.223   0.088  0.2279 -0.0771  0.4207
    1W        W45908  24.426  26.288   1.539 -0.0589 -0.1235  0.1412
    1W        W45909   0.662  12.464   1.080  0.1738 -0.1203 -0.2604
    1W        W45910  27.137  23.282   2.225  0.1789  0.0935 -0.2587
    1W        W45911  17.797   9.809   9.248 -0.0086  0.1843 -0.2713
    1W        W45912  27.864  24.390   0.444 -0.0854  0.0284  0.1078
    1W        W45913   7.965   3.600   8.286  0.1714 -0.1137 -0.1705
    1W        W45914  21.881  16.271   8.712 -0.1052 -0.0655  0.1858
    1W        W45915   2.940  24.814   1.302 -0.1679  0.3960 -0.1074
    1W        W45916  25.148  27.177   2.146 -0.1523 -0.2533 -0.1351
    1W        W45917  11.315   6.263   8.436 -0.3333 -0.1248 -0.1999
    1W        W45918  16.266  17.165   7.592 -0.0954  0.2336  0.0321
    1W        W45919  17.246  10.231   2.273 -0.1558  0.0974 -0.0540
    1W        W45920   1.517  15.180   7.397  0.3547  0.3203 -0.1716
    1W        W45921   2.624  25.131   0.474  0.0449  0.0265  0.1743
    1W        W45922   3.715   9.261   7.969  0.0893 -0.0249  0.2598
    1W        W45923   0.428   8.374   8.696 -0.4028 -0.2172  0.0363
    1W        W45924  13.700  25.925   7.726 -0.0646 -0.4759  0.2785
    1W        W45925  19.675  22.802   2.876 -0.0992 -0.1309 -0.2823
    1W        W45926  24.449  18.098   0.701 -0.2072 -0.1185  0.0955
    1W        W45927  28.357   5.049   7.754  0.1390  0.0171  0.0488
    1W        W45928   5.806  29.228   2.669 -0.2844  0.3668  0.0559
    1W        W45929   7.503   1.690   9.014  0.0980  0.0882  0.0351
    1W        W45930  27.664  19.701   1.329  0.1480 -0.2207 -0.0321
    1W        W45931   6.819   4.035   2.328 -0.2285  0.1722 -0.1605
    1W        W45932   5.662  21.619   0.682  0.0067 -0.1167 -0.0881
    1W        W45933   4.780  27.282   9.325 -0.3191  0.0933 -0.0009
    1W        W45934  14.075  14.712   1.421 -0.1398  0.1850 -0.1470
    1W        W45935  27.671   6.957   1.852 -0.1289 -0.1729 -0.0061
    1W        W45936   1.067   0.397   1.768  0.0393 -0.2024 -0.2017
    1W        W45937  14.726  20.273   1.353  0.0173  0.0949  0.0296
    1W        W45938  27.289   0.720   9.130 -0.2292  0.1964 -0.1835
    1W        W45939  21.537   9.904   0.432 -0.0247 -0.2166  0.1032
    1W        W45940  13.096  15.314   0.487 -0.1033  0.0069  0.0324
    1W        W45941   5.379   7.283   8.711 -0.0354  0.1352  0.1563
    1W        W45942  29.119   2.857   2.317  0.2869 -0.2737  0.0866
    1W        W45943  29.161  19.591   0.094  0.5504  0.1951 -0.0440
    1W        W45944  19.247   4.149   7.438 -0.2777 -0.0938  0.2634
    1W        W45945   4.403  18.915   7.994  0.1419 -0.0385 -0.1427
    1W        W45946  14.338  13.950   1.500  0.0318  0.1822 -0.1930
    1W        W45947  10.803  28.894   1.555 -0.2391 -0.3213  0.2878
    1W        W45948   0.148  11.221   1.316 -0.2727 -0.0175  0.2339
    1W        W45949  23.511  28.701   7.761 -0.1196  0.0708  0.0184
    1W        W45950  15.193  22.945   8.624  0.1078  0.1467  0.0756
    1W        W45951  19.475  13.329   6.290 -0.0282 -0.2153  0.0303
    1W        W45952  22.126  20.238   9.046  0.2762  0.2697 -0.0474
    1W        W45953  21.618  27.361   7.192  0.0377  0.0578 -0.2325
    1W        W45954   5.449  12.177   9.208  0.1003 -0.1793 -0.1251
    1W        W45955  18.501  29.198   9.375 -0.1853  0.0201  0.1642
    1W        W45956  15.128   1.141   9.060 -0.0070  0.0576 -0.0712
    1W        W45957   1.930  23.435   1.095 -0.1053  0.0206 -0.0550
    1W        W45958  11.922   9.098   1.412  0.0383 -0.0002 -0.1831
    1W        W45959  23.348  23.488   8.983 -0.2095 -0.3081  0.0366
    1W        W45960  15.280  19.720   1.530  0.0937 -0.0045 -0.2070
    1W        W45961   5.208  11.735   7.071 -0.0523  0.0445  0.0487
    1W        W45962  21.070  13.668   8.263  0.2108 -0.1988 -0.0375
    1W        W45963  21.191   5.814   8.954 -0.3380 -0.0125  0.0439
    1W        W45964  20.345  21.243   0.544  0.0659 -0.0631  0.0605
    1W        W45965  25.691  27.276   1.356  0.1087 -0.0055 -0.1008
    1W        W45966  24.331   1.154   9.156  0.0441  0.1511  0.1217
    1W        W45967  13.549  18.651   8.369  0.0766 -0.0021 -0.3343
    1W        W45968   1.915  12.399   0.742  0.0536  0.0697 -0.0955
    1W        W45969  10.234   1.271   6.725  0.1181  0.1175 -0.2967
    1W        W45970  28.785   3.319   1.529 -0.0489  0.2379  0.0388
    1W        W45971  16.817  13.697   0.214 -0.1397 -0.3253  0.1234
    1W        W45972  13.052   1.328   6.975 -0.0170 -0.0987 -0.2361
    1W        W45973  12.639  13.283   7.087 -0.3119 -0.1596  0.0710
    1W        W45974  12.107  14.097   0.409  0.2689 -0.2744 -0.1535
    1W        W45975  25.892   9.841   7.633  0.2206 -0.3191 -0.2845
    1W        W45976   5.973   0.126   0.959 -0.1037  0.0192 -0.0829
    1W        W45977  12.148  20.599   1.892  0.1665 -0.2025 -0.0957
    1W        W45978   9.803  20.499   6.353  0.0016  0.1538  0.2504
    1W        W45979  17.272  10.772   2.373 -0.0016  0.2733 -0.0937
    1W        W45980  15.297  23.076   1.040  0.0761 -0.6058 -0.1680
    1W        W45981  12.567   6.308   7.610 -0.0996 -0.1528 -0.1334
    1W        W45982  15.481  17.373   0.586 -0.3720 -0.2239 -0.0565
    1W        W45983   6.182  13.815   6.878  0.1630  0.3183 -0.0709
    1W        W45984  19.729   3.050   8.651 -0.2617 -0.2137 -0.1216
    1W        W45985   2.323  28.000   0.921  0.2806  0.1584  0.0129
    1W        W45986   4.107   5.326   8.346  0.1345 -0.2441 -0.0142
    1W        W45987   3.254  25.800   0.582 -0.3522 -0.0443  0.2117
    1W        W45988  13.192  10.694   8.551 -0.0119 -0.0191 -0.0532
    1W        W45989   4.812  21.772   1.908 -0.0558  0.2338  0.1879
    1W        W45990  12.234  13.579   9.242 -0.1839 -0.1228  0.3102
    1W        W45991  24.650  26.561   0.679  0.1666 -0.2272  0.0510
    1W        W45992   3.214   4.899   8.389  0.2720 -0.0910  0.2161
    1W        W45993  19.804  29.119   2.285 -0.3345  0.2717  0.0439
    1W        W45994  13.730  29.651   0.865 -0.2354 -0.1063 -0.2704
    1W        W45995  24.365   3.376   7.420  0.1492  0.0837 -0.3200
    1W        W45996   6.264   5.297   2.256  0.1015  0.2148  0.0554
    1W        W45997  22.358  21.843   6.314 -0.3218  0.1069  0.0053
    1W        W45998  20.812  10.708   2.188 -0.1168  0.0100  0.0319
    1W        W45999  23.764  23.097   8.013 -0.1761 -0.0940 -0.0524
    1W        W46000  28.637  27.860   2.491  0.2172 -0.0185  0.2484
    1W        W46001   0.149  17.395   0.023  0.0124 -0.1575 -0.0180
    1W        W46002  23.734   1.903   2.087 -0.0768  0.0291  0.0589
    1W        W46003   6.586  29.690   2.982  0.1449  0.0358  0.0941
    1W        W46004   4.978  13.756   0.198  0.2524 -0.0297 -0.0883
    1W        W46005  11.884  21.405   0.429 -0.0527 -0.2159  0.1516
    1W        W46006  11.657   4.583   9.246  0.1324 -0.4241 -0.2317
    1W        W46007   0.514  25.500   8.717  0.0638 -0.4216 -0.0574
    1W        W46008   7.792   6.070   3.023  0.0347 -0.2313 -0.0202
    1W        W46009  23.427  20.840   0.768  0.3292 -0.1477  0.0152
    1W        W46010  15.063  10.158   7.569  0.0869  0.2218 -0.0303
    1W        W46011   7.274  16.473   6.824 -0.3579  0.0577  0.2100
    1W        W46012   9.932  15.505   2.059 -0.0283 -0.1707  0.0276
    1W        W46013   7.193  15.291   8.633  0.1156 -0.1991 -0.1286
    1W        W46014   5.399  24.547   1.096 -0.0706  0.2323 -0.1064
    1W        W46015   2.836  20.172   6.780 -0.1516 -0.2795  0.2762
    1W        W46016   7.737  19.780   0.455 -0.0023 -0.2428  0.2393
    1W        W46017   9.239  10.097   2.234  0.1711 -0.3258 -0.1593
    1W        W46018   0.856  24.070   8.052 -0.0326 -0.0126 -0.2167
    1W        W46019  17.113   3.144   8.193 -0.3450 -0.2736 -0.0515
    1W        W46020   7.112  21.514   7.418 -0.2853  0.1241  0.1138
    1W        W46021  14.656  22.931   7.300 -0.4361 -0.2251  0.2476
    1W        W46022   9.840  24.816   6.872 -0.0354 -0.1758  0.1266
    1W        W46023  18.680  28.583   1.766 -0.2418  0.0297  0.0555
    1W        W46024  28.135  10.916   6.914  0.0351  0.0476  0.1792
    1W        W46025  29.771  23.643   2.021 -0.1308  0.0208  0.0358
    1W        W46026   3.506  20.722   0.430 -0.0919  0.0955 -0.1121
    1W        W46027   2.110  13.082   1.262  0.0648 -0.0588 -0.0565
    1W        W46028  15.533  18.101   6.803 -0.1364 -0.2403  0.3214
    1W        W46029  13.161   0.191   2.836  0.0494 -0.0274 -0.1923
    1W        W46030  25.571  10.269   1.212 -0.1376 -0.0558  0.0684
    1W        W46031   2.270  28.395   0.335  0.1028 -0.2455 -0.0987
    1W        W46032  24.117  12.390   7.113  0.0448 -0.0359  0.1680
    1W        W46033  10.015   3.669   0.381  0.1871  0.1109  0.1819
    1W        W46034  19.607  29.104   1.019  0.1139  0.0107 -0.1372
    1W        W46035  21.960  24.838   7.909  0.0769 -0.3205 -0.1176
    1W        W46036  21.833   6.779   8.612  0.0593 -0.0411  0.1562
    1W        W46037   9.668  22.100   7.725  0.1797  0.1813 -0.0673
    1W        W46038  13.061   3.723   8.041  0.0811  0.1303  0.3212
    1W        W46039  12.275  25.770   6.708  0.2244  0.0147 -0.0171
    1W        W46040   6.091  12.701   0.920  0.1943  0.0998 -0.0726
    1W        W46041  25.521   7.536   2.721 -0.0845 -0.1007 -0.3924
    1W        W46042   7.662   1.992   8.180  0.0889 -0.1650 -0.2524
    1W        W46043  27.132  27.786   6.965 -0.1720 -0.1072  0.4259
    1W        W46044   3.649  28.945   8.601 -0.0590 -0.0782 -0.1238
    1W        W46045  26.811  10.931   1.800 -0.2872 -0.0879 -0.2008
    1W        W46046  28.189   7.691   9.391  0.0730 -0.0194  0.1532
    1W        W46047   8.632  17.927   8.111 -0.2946  0.3182  0.0916
    1W        W46048   1.414  25.276   6.848 -0.0059  0.1529  0.0755
    1W        W46049   5.306  23.182   7.389  0.0658  0.1463 -0.0691
    1W        W46050  12.226   3.283   2.660 -0.0226  0.0094  0.2926
    1W        W46051  13.297   0.543   8.782 -0.1652  0.2834 -0.1727
    1W        W46052  20.766   9.987   2.607 -0.1368  0.0452 -0.0584
    1W        W46053  16.349  21.429   1.093  0.0914  0.1475  0.1658
    1W        W46054  22.846  16.084   0.138 -0.3181  0.2290  0.2336
    1W        W46055  15.059   5.858   2.851 -0.4748 -0.1875  0.0986
    1W        W46056  29.832  27.765   7.643 -0.1172 -0.0237 -0.1936
    1W        W46057   9.575  11.286   2.306  0.0795  0.0607  0.2135
    1W        W46058  11.269  12.659   1.008 -0.2267  0.1037  0.0514
    1W        W46059   6.127  13.177   2.174 -0.0664 -0.1394  0.0862
    1W        W46060   9.682   7.131   6.650  0.3166 -0.0909  0.1145
    1W        W46061   9.233   3.652   3.129  0.2331  0.4120 -0.0322
    1W        W46062  27.095   4.662   6.869  0.2102 -0.2428 -0.1137
    1W        W46063   3.697  22.129   0.321 -0.3038 -0.0729 -0.3357
    1W        W46064  14.129  12.139   7.235 -0.2009  0.2804  0.3460
    1W        W46065   1.088  15.008   1.287 -0.0409 -0.3541  0.1256
    1W        W46066  17.857   7.295   8.435  0.0788  0.0409 -0.3034
    1W        W46067  24.649  25.146   7.724 -0.1435 -0.0522 -0.1187
    1W        W46068  28.714  15.923   0.226 -0.1409  0.0408 -0.0210
    1W        W46069  18.272  13.473   1.022  0.0481  0.1860 -0.1849
    1W        W46070   4.479  18.061   1.652  0.2622  0.1877  0.0553
    1W        W46071  29.394   2.142   0.975 -0.1226  0.1191 -0.0551
    1W        W46072  23.947   9.366   7.915 -0.1347  0.1845 -0.2993
    1W        W46073   5.327   3.820   2.207 -0.2237  0.0070 -0.0231
    1W        W46074  20.599  20.510   2.185  0.0489 -0.0486 -0.2212
    1W        W46075   7.337   2.874   8.631  0.0146 -0.1545 -0.3710
    1W        W46076  11.777   5.291   8.436 -0.2387  0.0563  0.0900
    1W        W46077  11.761   9.071   2.551  0.0308 -0.0027  0.1693
    1W        W46078  29.391  13.817   6.014 -0.0480  0.3906  0.1188
    1W        W46079  17.378  24.442   1.905 -0.0973 -0.1453 -0.2685
    1W        W46080  29.566   1.551   7.198  0.1243 -0.4624 -0.0221
    1W        W46081  25.202  17.343   7.329  0.2738 -0.0135 -0.3835
    1W        W46082  13.238  26.103   7.463 -0.3928 -0.1340  0.0976
    1W        W46083  16.639  20.118   8.952  0.2060  0.1014  0.0247
    1W        W46084   2.465  15.115   7.092  0.0549 -0.2221  0.2176
    1W        W46085  13.527  23.808   2.726  0.0201  0.2962  0.0727
    1W        W46086  16.043  17.076   8.944  0.2453 -0.1635 -0.0419
    1W        W46087  29.510  15.423   0.361 -0.2070 -0.2223  0.0843
    1W        W46088   5.936  19.040   6.149  0.1829 -0.1445  0.3131
    1W        W46089   1.469  12.241   7.013  0.1815 -0.1756 -0.2535
    1W        W46090  29.609  29.728   6.241  0.1666 -0.1277  0.0441
    1W        W46091  17.846   5.476   9.320 -0.0739 -0.2689  0.1436
    1W        W46092  24.378  18.694   1.437 -0.3730 -0.4134 -0.0180
    1W        W46093  12.811  21.073   7.685  0.1741 -0.2329 -0.0044
    1W        W46094  14.579  16.023   2.272 -0.0126  0.1072  0.1090
    1W        W46095  22.936   1.217   7.824  0.0567 -0.2650  0.2277
    1W        W46096   1.536  15.004   6.086 -0.1322  0.1923 -0.2077
    1W        W46097  19.469  25.765   7.002  0.1315 -0.1931  0.2218
    1W        W46098  22.927   0.947   9.429  0.1622  0.0639  0.0419
    1W        W46099  17.348   3.528   2.651 -0.0096  0.0877  0.1336
    1W        W46100  12.386   0.973   1.196 -0.1199  0.0207  0.0473
    1W        W46101  21.194   4.354   8.142  0.5060  0.2277 -0.1010
    1W        W46102  17.859  13.168   0.021 -0.4045  0.3634  0.2030
    1W        W46103  26.712   3.648   8.485 -0.0242 -0.1038 -0.0732
    1W        W46104  15.115   5.510   0.076 -0.0215 -0.1838  0.2974
    1W        W46105  12.438   2.337   1.597  0.4265 -0.1472 -0.2535
    1W        W46106  26.370   5.874   7.334 -0.3250  0.1416 -0.2382
    1W        W46107   0.655   2.598   8.887  0.0922 -0.3850 -0.0257
    1W        W46108   2.686   0.507   0.509 -0.1624 -0.1140  0.3794
    1W        W46109   6.081  14.545   1.397 -0.0151  0.0746 -0.2411
    1W        W46110  20.278  14.437   6.837  0.1402  0.1418 -0.0200
    1W        W46111   2.939  25.265   9.280  0.1565  0.0891  0.0215
    1W        W46112  17.371  11.154   6.872  0.0908 -0.0028  0.1424
    1W        W46113  16.170  29.447   0.637  0.0994  0.0624 -0.0194
    1W        W46114  21.419   2.551   2.073  0.0752  0.1084  0.0605
    1W        W46115  20.189  13.513   7.969  0.3049 -0.1591  0.0867
    1W        W46116  18.344  23.705   1.725  0.2972 -0.0795  0.0882
    1W        W46117  24.330  19.429   2.581 -0.0857 -0.2309  0.1854
    1W        W46118   7.102  13.914   0.912  0.2379 -0.1342  0.1424
    1W        W46119  15.184   6.725   8.054 -0.0655 -0.0884  0.0703
    1W        W46120  24.281   3.576   6.557 -0.2111  0.3372 -0.0855
    1W        W46121  21.522  27.731   0.358  0.0163 -0.0671  0.2907
    1W        W46122   3.050  27.464   0.036 -0.0339 -0.1422  0.0764
    1W        W46123  25.664  21.351   7.332 -0.3143  0.1532  0.2288
    1W        W46124   3.201  29.325   7.964  0.0100  0.1182  0.2373
    1W        W46125  13.122  28.044   6.607  0.0131 -0.1072  0.0494
    1W        W46126  17.392  25.800   8.095 -0.4506 -0.1835  0.3132
    1W        W46127  12.357  21.196   7.761  0.3959 -0.0672  0.0080
    1W        W46128  21.638  28.244   8.336 -0.0867 -0.1668  0.0777
    1W        W46129   5.849  16.804   6.851  0.0303 -0.0625 -0.2438
    1W        W46130  15.119  10.906   1.064 -0.1804 -0.3713  0.2580
    1W        W46131  26.294  23.722   8.644 -0.1883  0.0551  0.0421
    1W        W46132   1.633  28.817   3.094  0.1086 -0.1895 -0.0401
    1W        W46133  15.218   1.802   4.051 -0.2717  0.2686  0.2814
    1W        W46134  17.949  17.402   8.149 -0.2743  0.1625  0.1017
    1W        W46135  23.030  23.177   3.077 -0.1977  0.0647 -0.2480
    1W        W46136  19.602  29.861   1.148 -0.0164  0.2674 -0.0547
    1W        W46137  22.640   3.624   9.278  0.3757 -0.3298 -0.0156
    1W        W46138  22.290  21.161   8.525 -0.2201  0.0173 -0.1697
    1W        W46139  12.548  26.240   9.044 -0.0599 -0.3212 -0.2495
    1W        W46140   9.110   9.756   1.820 -0.3209 -0.0949 -0.1057
    1W        W46141   5.156  21.447   1.287  0.0346 -0.3578  0.5456
    1W        W46142  26.612  13.632   8.086  0.2295  0.0205  0.1521
    1W        W46143   0.201   0.096   1.990 -0.2798 -0.1404 -0.1209
    1W        W46144  20.337  18.423   7.318  0.2352  0.0744 -0.0183
    1W        W46145   5.906  22.500   2.032  0.1167 -0.0115  0.0616
    1W        W46146  27.718  15.707   0.475  0.2675  0.0360 -0.1344
    1W        W46147  29.630  18.231   7.334  0.1030  0.1361  0.2039
    1W        W46148  12.662  17.248   2.021 -0.2145 -0.0050  0.1487
    1W        W46149   3.251   6.148   0.004  0.1173 -0.2079 -0.0145
    1W        W46150   8.530   3.306   1.152  0.2025 -0.0210  0.0429
    1W        W46151  17.992  26.542   8.224 -0.1856 -0.1434  0.1041
    1W        W46152   1.486  20.596   2.617  0.2131  0.0430  0.1893
    1W        W46153   5.897  19.192   7.992 -0.0966 -0.0069 -0.0221
    1W        W46154  13.902   6.069   1.692 -0.2599 -0.0357  0.0872
    1W        W46155   2.771  10.194   7.372  0.2626  0.1945 -0.2585
    1W        W46156  17.053  25.036   8.959 -0.2983  0.1654  0.0724
    1W        W46157   8.286  22.300   6.454  0.0880  0.0112 -0.0942
    1W        W46158  14.073   7.922   8.830 -0.3487  0.0782  0.1119
    1W        W46159  23.358  21.148   1.374 -0.1638  0.0639  0.0119
    1W        W46160   3.591   7.426   7.815 -0.0982 -0.1546  0.2851
    1W        W46161  18.264   2.003   7.449 -0.0417 -0.0963  0.0111
    1W        W46162   2.011  24.528   0.364 -0.1882 -0.3769  0.0417
    1W        W46163  28.969   8.544   3.151  0.2636  0.0552 -0.3582
    1W        W46164  27.127   8.057   3.140 -0.1196  0.2160  0.0353
    1W        W46165  10.126   0.873   8.689  0.0920 -0.0185 -0.0657
    1W        W46166   4.375  29.641   9.215  0.3419  0.0510 -0.0067
    1W        W46167  24.384  23.791   7.711 -0.1727  0.1338  0.1554
    1W        W46168  17.519   1.059   2.562  0.0857  0.3308  0.0668
    1W        W46169   0.740   7.289   7.367 -0.2466 -0.0121  0.1834
    1W        W46170   3.073  28.855   0.196 -0.0052  0.0392  0.2452
    1W        W46171   4.073   6.145   1.966  0.0404 -0.3966  0.0600
    1W        W46172  18.215  27.401   1.635  0.1109 -0.0576 -0.2297
    1W        W46173  11.085  22.911   8.190 -0.0962 -0.0234 -0.2098
    1W        W46174  27.398   2.551   1.083 -0.0668 -0.1769  0.4382
    1W        W46175  25.055  10.897   0.657 -0.2503 -0.1998  0.0338
    1W        W46176  22.386   9.399   6.613 -0.2740  0.0903 -0.3001
    1W        W46177  25.146  26.775   0.817 -0.1784  0.0717 -0.1224
    1W        W46178   1.931   0.233   7.155 -0.0996 -0.0750  0.1090
    1W        W46179   9.163   9.061   9.433  0.1938 -0.3917  0.0428
    1W        W46180  24.983  26.361   9.369 -0.1924 -0.0174 -0.1457
    1W        W46181  21.542  25.576   2.538 -0.1995 -0.1071 -0.0816
    1W        W46182   8.114  11.594   2.189 -0.2543  0.0650 -0.3607
    1W        W46183  25.531  15.039   6.796  0.2206 -0.1868 -0.1682
    1W        W46184  14.448  13.368   0.548  0.0821 -0.2096  0.0062
    1W        W46185  11.667   4.541   1.616  0.0289 -0.0909 -0.1026
    1W        W46186  17.847  19.053   0.328 -0.2233 -0.0645 -0.0206
    1W        W46187  28.333  13.881   6.172 -0.1225  0.0449 -0.0618
    1W        W46188  24.464  22.559   9.291 -0.0538  0.1070  0.1184
    1W        W46189   2.354  26.785   7.160 -0.1080 -0.1763 -0.1862
    1W        W46190  23.278  13.589   2.071 -0.0643  0.0182  0.0588
    1W        W46191  11.429   2.270   8.855 -0.1532  0.0988  0.0954
    1W        W46192   2.773  16.901   7.322  0.1757 -0.0199  0.0775
    1W        W46193  25.278  17.961   1.649 -0.2076 -0.1059 -0.1506
    1W        W46194  29.157   9.268   7.765 -0.0375 -0.0717  0.0110
    1W        W46195   6.719  15.105   1.133  0.3204 -0.2362 -0.2338
    1W        W46196  11.491  29.624   6.874 -0.1156  0.1334 -0.3357
    1W        W46197  18.203  19.311   2.914  0.0446 -0.0304  0.0475
    1W        W46198  18.708  14.387   1.608 -0.0922  0.1301  0.0508
    1W        W46199  10.188  19.208   6.899  0.1791  0.3181 -0.1472
    1W        W46200   7.865  19.870   8.462 -0.2116 -0.2710  0.3034
    1W        W46201  13.252  29.634   2.604  0.1348  0.1746  0.0738
    1W        W46202  20.618  12.145   7.167  0.0788 -0.0610 -0.3134
    1W        W46203  18.245   3.232   2.688  0.0908 -0.1965 -0.0619
    1W        W46204   5.568  25.977   9.447 -0.2279 -0.1302 -0.0195
    1W        W46205   1.406  12.033   1.578  0.1389  0.1761 -0.1550
    1W        W46206   9.838   3.247   3.820 -0.0995 -0.0324  0.4487
    1W        W46207   7.490  17.369   6.658  0.0636  0.0777  0.2058
    1W        W46208  17.214  10.994   8.814  0.0614  0.0001  0.1244
    1W        W46209   9.033  29.767   8.220 -0.2437  0.1868 -0.1745
    1W        W46210  24.114   6.421   8.547  0.2937  0.1175  0.0805
    1W        W46211   3.196   6.114   2.020 -0.0943 -0.3069  0.1867
    1W        W46212   0.424  13.230   9.222 -0.1815  0.1430 -0.1126
    1W        W46213   6.006   2.177   7.426  0.2114 -0.0428  0.0708
    1W        W46214  17.937  16.484   1.050  0.0350  0.0841  0.0885
    1W        W46215  15.837  29.797   8.261 -0.1646 -0.0409 -0.0030
    1W        W46216  19.215  23.103   2.750 -0.4348  0.0251  0.1058
    1W        W46217  17.575   0.348   0.730 -0.0349 -0.1420 -0.0515
    1W        W46218   4.785   9.268   6.562 -0.1063 -0.0633  0.2289
    1W        W46219   9.966   6.356   2.082  0.0080 -0.2818 -0.0834
    1W        W46220   9.764   7.214   0.440 -0.2242  0.0779  0.2209
    1W        W46221  19.948  29.315   0.676 -0.0182 -0.0468  0.1127
    1W        W46222  20.716   2.594   8.058 -0.1679 -0.2423 -0.1933
    1W        W46223  27.514  18.741   6.744 -0.1247 -0.0936  0.0567
    1W        W46224   0.437  17.003   0.057  0.2523 -0.1996 -0.3855
    1W        W46225  27.543   5.753   1.149  0.1697 -0.0174  0.3003
    1W        W46226  17.856  15.060   7.740 -0.2304 -0.0574 -0.5782
    1W        W46227   6.253  16.203   0.028 -0.3639  0.1761  0.1892
    1W        W46228   0.656  23.559   1.873  0.2455 -0.0722  0.0726
    1W        W46229  17.739   1.851   6.840 -0.1039 -0.0962  0.0187
    1W        W46230  20.971   8.345   6.897  0.4618  0.3379 -0.3127
    1W        W46231  23.945  29.080   2.523  0.1025 -0.0371  0.2797
    1W        W46232   9.571  16.043   7.350 -0.0259 -0.0720 -0.2666
    1W        W46233   0.412  14.391   6.445 -0.1758 -0.0247  0.3514
    1W        W46234  28.851  21.212   5.811 -0.0217 -0.3618 -0.5240
    1W        W46235   2.909  17.407   1.024  0.2075  0.0645  0.0203
    1W        W46236  23.253   7.270   8.544  0.2878  0.1356 -0.4807
    1W        W46237  20.928   7.366   7.351 -0.3532  0.0043  0.0945
    1W        W46238   6.987   9.862   7.595 -0.1557  0.0523 -0.0184
    1W        W46239   0.398  27.391   0.372  0.1133 -0.0575 -0.0139
    1W        W46240  20.420  17.541   0.055 -0.1558  0.0475  0.1634
    1W        W46241  10.305  22.933   0.045  0.0997  0.0797 -0.1114
    1W        W46242  15.292   0.452   1.737  0.0379 -0.3587  0.0611
    1W        W46243  24.293   7.756   2.715  0.0940 -0.1091 -0.2187
    1W        W46244  17.881   7.493   6.453  0.2567  0.4165  0.0376
    1W        W46245  22.983  16.351   8.378  0.1878  0.0351 -0.2254
    1W        W46246  24.230  15.766   8.287  0.0424 -0.0977 -0.0613
    1W        W46247  18.292   1.844   1.670  0.2518 -0.0802  0.0764
    1W        W46248   1.890  19.019   1.150 -0.1222 -0.0541  0.2494
    1W        W46249  23.435   6.142   0.493 -0.0322 -0.2619  0.2006
    1W        W46250  10.518   4.872   2.525  0.0939 -0.1277  0.0257
    1W        W46251  16.039  11.116   0.997 -0.1164 -0.0717 -0.1703
    1W        W46252  16.637   0.382   0.474 -0.2080 -0.3310  0.1175
    1W        W46253  24.443  21.097   0.080 -0.0105  0.4305  0.1723
    1W        W46254   4.446  10.434   0.050 -0.0882  0.2519  0.3951
    1W        W46255  26.697   9.133   0.352  0.1367  0.0147 -0.2898
    1W        W46256  19.049  27.108   0.013  0.0766 -0.1367 -0.1601
    1W        W46257   8.526  26.010   9.234 -0.1421 -0.0140 -0.2197
    1W        W46258  26.014  21.225   0.022  0.1642  0.1066 -0.1979
    1W        W46259   1.361  21.904   7.667 -0.0818  0.0061 -0.0788
    1W        W46260  17.150   1.971   3.493 -0.0633  0.3587  0.2445
    1W        W46261  27.498   1.133   0.893  0.1951 -0.2638 -0.0093
    1W        W46262  14.295  16.095   6.785 -0.1156 -0.1172 -0.1556
    1W        W46263  28.704  10.401   1.527  0.0627 -0.1878  0.3258
    1W        W46264  17.509  10.696   9.092  0.1224 -0.0814  0.3452
    1W        W46265  26.462  21.279   0.968 -0.1255  0.3249  0.1616
    1W        W46266  15.523   9.991   2.111  0.2441  0.2957 -0.1016
    1W        W46267  24.857   9.975   9.365 -0.3795  0.0178  0.0774
    1W        W46268  17.552  12.098   2.218 -0.2687 -0.1231  0.3112
    1W        W46269  22.815  13.260   2.251  0.0038 -0.2457  0.0210
    1W        W46270  24.873  28.773   0.870  0.1361 -0.3489  0.0517
    1W        W46271  20.571  26.795   0.648 -0.0242  0.1426 -0.0907
    1W        W46272  24.114  18.721   7.222  0.0402 -0.1953 -0.0123
    1W        W46273  22.246  26.429   8.543 -0.0766 -0.0074 -0.2637
    1W        W46274  23.064  12.000   2.053  0.2242  0.0602 -0.0422
    1W        W46275  12.796  26.093   7.704 -0.0663 -0.1236  0.0726
    1W        W46276  19.297  21.970   7.843 -0.1620 -0.0683 -0.1579
    1W        W46277  15.065  18.083   6.466  0.2349  0.0480  0.1444
    1W        W46278  12.414   0.590   7.234  0.0498 -0.1003 -0.1912
    1W        W46279   8.691  13.455   0.543  0.0435  0.2058  0.1530
    1W        W46280  22.904  19.244   7.698  0.3446 -0.0160 -0.0423
    1W        W46281   1.649  16.021   2.233 -0.5958 -0.0864  0.1990
    1W        W46282   4.790   2.496   7.847 -0.3092  0.0578 -0.2201
    1W        W46283  15.446   1.856   0.187  0.0159 -0.0710  0.1355
    1W        W46284  24.223  23.883   8.185 -0.3498 -0.0018 -0.1311
    1W        W46285  20.735  21.510   0.699 -0.3610 -0.1783 -0.1389
    1W        W46286   1.057  22.168   6.449  0.0709 -0.3320  0.2875
    1W        W46287   2.605  15.433   6.275 -0.0290 -0.1954 -0.2169
    1W        W46288  17.258  29.038   8.575  0.1537  0.2427 -0.1823
    1W        W46289   9.347  26.373   7.111  0.2188 -0.2423  0.0075
    1W        W46290   1.804   6.288   8.082 -0.2330  0.1238  0.2065
    1W        W46291  22.998  19.122   0.576 -0.1149  0.1633 -0.1210
    1W        W46292   4.116  22.464   5.585  0.2660  0.2126 -0.0198
    1W        W46293  15.719  21.084   7.188 -0.5305  0.1117  0.0260
    1W        W46294   8.377  15.758   9.323  0.0179 -0.1246 -0.3019
    1W        W46295   9.159   4.326   8.490  0.0796 -0.1766 -0.0748
    1W        W46296  26.304   6.494   0.336 -0.4240 -0.0564  0.0036
    1W        W46297   4.061   6.732   0.144 -0.1112  0.2836 -0.2865
    1W        W46298   9.777   9.859   9.237 -0.1080  0.0486 -0.0652
    1W        W46299  26.060  20.549   2.365  0.0140  0.0762 -0.0820
    1W        W46300  20.731   4.942   1.932 -0.0641 -0.0362 -0.0611
    1W        W46301   4.725   0.116   0.042 -0.0922 -0.0927  0.0567
    1W        W46302   8.405  19.273   0.942  0.3406 -0.1762  0.0170
    1W        W46303  11.779   9.414   1.031 -0.2306  0.0595 -0.1961
    1W        W46304  14.635  25.977   0.843 -0.1565  0.0370 -0.1694
    1W        W46305  10.399   2.447   2.799 -0.2331 -0.1585  0.1081
    1W        W46306  26.388   4.147   9.009 -0.0262  0.0516  0.1191
    1W        W46307   1.463  10.216   0.283 -0.1832 -0.0005  0.1793
    1W        W46308  27.332  20.731   6.830  0.1677 -0.0070  0.4118
    1W        W46309  10.774  11.615   1.184  0.2240 -0.1499 -0.0474
    1W        W46310  23.053   1.579   6.858 -0.0175 -0.0641 -0.0138
    1W        W46311  19.548  28.980   1.875  0.2320  0.0416  0.0097
    1W        W46312  21.701   3.580   0.593  0.3537  0.0967 -0.2837
    1W        W46313  25.481   7.769   8.250 -0.1232  0.1462  0.3260
    1W        W46314  11.958   3.113   7.658 -0.0483 -0.1668  0.2065
    1W        W46315  16.947  17.922   7.614  0.0722 -0.0589  0.0338
    1W        W46316  13.243  16.102   1.640 -0.2270 -0.2622  0.1000
    1W        W46317   6.159  15.640   6.981  0.2384 -0.2308 -0.1924
    1W        W46318  12.355   1.870   8.075  0.2808  0.1232  0.1710
    1W        W46319  22.760  16.387   5.925 -0.1148  0.0056  0.2153
    1W        W46320   4.404  16.952   7.232  0.1241 -0.0377  0.1302
    1W        W46321   8.551   3.035   3.069  0.1535 -0.1421  0.1053
    1W        W46322  10.482  22.064   1.050  0.5234 -0.4191 -0.0206
    1W        W46323  10.007  11.366   1.835 -0.0256  0.0188  0.0467
    1W        W46324  23.146  23.379   7.098 -0.3200  0.1188 -0.0829
    1W        W46325   6.715   0.114   7.350  0.4443 -0.1622 -0.3673
    1W        W46326   4.609  13.856   6.715 -0.1844 -0.0230 -0.1800
    1W        W46327  12.541   3.685   6.835  0.1321  0.0507  0.0317
    1W        W46328  19.942   1.294   7.259  0.1492 -0.1149 -0.0274
    1W        W46329  26.761  11.571   0.775 -0.0132  0.1999 -0.1485
    1W        W46330   0.613  12.477   1.968 -0.2833 -0.2165  0.0251
    1W        W46331  21.479  12.358   6.765  0.1457  0.3157  0.1125
    1W        W46332  11.135  22.374   1.721  0.0342  0.2184 -0.0777
    1W        W46333   5.795   1.185   1.607  0.0955  0.2059  0.0604
    1W        W46334   8.283  23.770   6.995  0.0476 -0.0387 -0.2152
    1W        W46335  13.682   1.697   3.497 -0.3534 -0.2525 -0.2040
    1W        W46336  10.828   7.200   8.872  0.0678 -0.1596 -0.0455
    1W        W46337  14.978   5.444   1.598 -0.1690 -0.2128  0.0935
    1W        W46338  18.045   4.226   8.197  0.0835  0.2071 -0.1562
    1W        W46339  13.747  26.572   0.565  0.0417 -0.4753  0.0309
    1W        W46340  24.196  10.963   2.930  0.1111 -0.0408 -0.0166
    1W        W46341   6.167  15.275   9.393  0.1523  0.0343 -0.2728
    1W        W46342  13.862  10.255   1.337  0.2491 -0.0775 -0.1022
    1W        W46343  26.181  17.052   2.246 -0.1402 -0.1056 -0.1881
    1W        W46344  17.587  26.693   2.353 -0.0234 -0.0710 -0.2722
    1W        W46345  26.795  22.927   0.740  0.1601  0.1832  0.1783
    1W        W46346  28.368   1.631   8.784  0.3882 -0.0355  0.1507
    1W        W46347  12.386  25.845   8.777 -0.1064 -0.0130  0.1667
    1W        W46348  25.449   3.626   3.412 -0.0056 -0.2461 -0.1904
    1W        W46349  18.600  13.836   0.106 -0.2541 -0.3014 -0.1173
    1W        W46350  27.463  20.762   2.729 -0.3541  0.0214  0.0911
    1W        W46351   7.505  11.080   2.435 -0.0808 -0.1393  0.0977
    1W        W46352  12.914  26.971   2.878  0.3461  0.3079  0.2750
    1W        W46353   1.757   9.372   7.147  0.0771  0.0859 -0.2079
    1W        W46354  15.655   7.182   9.296  0.0897 -0.0321 -0.0636
    1W        W46355   0.289  14.717   2.019  0.0425  0.3838 -0.0371
    1W        W46356  24.527   4.541   3.024  0.2329  0.1030  0.1716
    1W        W46357  11.284  19.574   8.913  0.0995 -0.0887 -0.0549
    1W        W46358   7.735  14.307   2.416  0.2321 -0.2121  0.1060
    1W        W46359  29.320  23.672   7.491  0.1887 -0.0446  0.1147
    1W        W46360  16.108  15.599   1.462 -0.3511  0.2231 -0.0169
    1W        W46361  20.447  16.328   8.613 -0.1274  0.2416 -0.1994
    1W        W46362   3.530  29.189   2.520 -0.2004  0.0702 -0.1495
    1W        W46363  28.826  16.904   7.653 -0.2338 -0.1507  0.1738
    1W        W46364  22.172  27.164   8.894 -0.1669  0.0688 -0.1687
    1W        W46365  24.253   0.152   0.638 -0.0756  0.1966  0.1426
    1W        W46366   4.915  19.738   6.222  0.1842  0.1047  0.2752
    1W        W46367   6.946  13.763   9.040  0.1942  0.0911  0.0916
    1W        W46368  28.396  10.925   8.037  0.1756 -0.0779 -0.4207
    1W        W46369   5.455   8.662   2.715 -0.2178  0.0874 -0.3903
    1W        W46370  23.167  17.549   0.206 -0.2833 -0.3692 -0.1419
    1W        W46371  24.912  25.053   8.356  0.1442  0.0066  0.1690
    1W        W46372   0.279  10.920   7.998 -0.0269  0.0700  0.0778
    1W        W46373   0.496   2.051   1.152  0.1730  0.3389  0.3610
    1W        W46374   3.927  12.367   7.774  0.0795 -0.2199 -0.1480
    1W        W46375  12.482   6.273   9.434  0.2762  0.0886  0.2713
    1W        W46376  11.322  29.492   0.050  0.1602 -0.1335 -0.1383
    1W        W46377  15.026  23.247   8.293  0.1551 -0.4449 -0.1066
    1W        W46378  10.280  21.710   6.940  0.1314  0.2118 -0.2374
    1W        W46379   1.542   1.643   7.035  0.2019  0.1043  0.0436
    1W        W46380   9.715  14.532   6.578 -0.1328  0.1857 -0.2266
    1W        W46381  11.696  26.589   2.355 -0.1519 -0.0334  0.4346
    1W        W46382  20.215  26.519   1.374  0.0525  0.2548 -0.2979
    1W        W46383   4.122   4.181   1.547 -0.5114 -0.1326  0.0306
    1W        W46384  19.116   3.745   0.442 -0.1702  0.1392  0.1884
    1W        W46385  26.516  13.743   8.656 -0.0574 -0.2415 -0.0787
    1W        W46386  15.744  15.161   6.975  0.2016 -0.4577 -0.0285
    1W        W46387  27.690  27.239   1.240 -0.3034  0.2601 -0.0167
    1W        W46388  21.384   3.039   7.998  0.0488 -0.1109 -0.1273
    1W        W46389  19.418  22.496   3.121 -0.1061  0.0139  0.3518
    1W        W46390  20.148   5.295   7.066  0.1115 -0.0344 -0.1433
    1W        W46391   0.816  28.862   0.722  0.2837 -0.1116  0.2966
    1W        W46392  18.528  21.172   7.940 -0.1509  0.0934 -0.0005
    1W        W46393  10.794  14.092   6.698 -0.1585  0.1728  0.0682
    1W        W46394   6.581  17.120   1.763 -0.1866 -0.1804 -0.0065
    1W        W46395  17.282  12.083   1.797  0.0172  0.3160  0.2105
    1W        W46396   9.340  20.435   6.629 -0.0557  0.0129  0.0343
    1W        W46397  28.675  24.177   2.462  0.1863 -0.0601 -0.1713
    1W        W46398  20.198  26.305   0.827  0.1350  0.1385  0.1543
    1W        W46399  28.245  13.669   7.088 -0.3391  0.0368  0.2499
    1W        W46400  11.086   1.605   1.213 -0.1246  0.1859  0.1689
    1W        W46401  15.397  11.388   2.617  0.2666  0.0298  0.1881
    1W        W46402  25.100  25.485   1.624 -0.4081  0.1443  0.0977
    1W        W46403  14.782   0.780   7.189  0.2043  0.2536 -0.1781
    1W        W46404  13.175   4.983   1.157 -0.0991 -0.0760 -0.1564
    1W        W46405  21.207  21.139   7.555  0.2778  0.0812  0.3282
    1W        W46406   0.043   6.277   0.456  0.2232  0.0643 -0.1171
    1W        W46407  25.230   7.655   2.303  0.0408  0.0516  0.0040
    1W        W46408   1.865   4.657   2.919 -0.1755  0.0278 -0.0771
    1W        W46409  28.477   7.672   1.237 -0.3834 -0.0202  0.0652
    1W        W46410  18.509  11.029   0.818  0.1604 -0.3431  0.2977
    1W        W46411  23.837   3.260   0.083 -0.0236  0.2840  0.2386
    1W        W46412   1.455  14.271   7.403  0.2122 -0.3225 -0.0421
    1W        W46413  18.958   2.038   6.355 -0.0367  0.0130 -0.2270
    1W        W46414  29.193  29.227   8.973 -0.2367  0.0927  0.0079
    1W        W46415  13.927  18.127   0.817 -0.1216 -0.1628 -0.2722
    1W        W46416  13.616  13.735   7.367  0.0381 -0.2575 -0.1167
    1W        W46417  18.439  25.001   1.041  0.0308 -0.0360  0.0119
    1W        W46418   6.547   7.094   3.140  0.0473  0.0466 -0.4019
    1W        W46419  10.038  24.856   0.825 -0.1315 -0.1476 -0.0300
    1W        W46420  28.023  29.696   7.038 -0.1480 -0.0153  0.1311
    1W        W46421  28.380   7.844   0.455  0.1568  0.0346  0.0754
    1W        W46422  23.647   5.520   7.148 -0.1153  0.0121  0.2341
    1W        W46423  13.976  11.410   0.050 -0.3263  0.1803  0.0820
    1W        W46424   9.882  18.721   7.802  0.0513  0.1226 -0.0034
    1W        W46425   4.647   7.842   3.812 -0.0528  0.0128  0.1759
    1W        W46426   1.697  23.782   7.951 -0.1943  0.0669  0.0357
    1W        W46427  13.096   6.871   7.796  0.0828 -0.0727 -0.1350
    1W        W46428   7.924  27.703   1.180 -0.0898 -0.4341  0.4351
    1W        W46429   7.931  17.130   6.426 -0.2519  0.1161 -0.0899
    1W        W46430  16.637  10.558   8.982 -0.3825 -0.0446  0.1939
    1W        W46431  20.844   9.064   2.283  0.5031 -0.4243 -0.1493
    1W        W46432  28.919   8.164   6.724  0.2036 -0.1938  0.2894
    1W        W46433  19.556  22.292   0.925  0.0061  0.0830 -0.1381
    1W        W46434   4.070  26.539   1.498 -0.0439 -0.2932  0.1990
    1W        W46435   2.143  14.277   9.333  0.3689 -0.0066  0.3019
    1W        W46436  14.571  10.178   9.337  0.0724  0.0515  0.0183
    1W        W46437   2.102   8.290   2.188 -0.0462  0.1715  0.2034
    1W        W46438  26.519  11.276   1.571  0.0789 -0.2151  0.0183
    1W        W46439  25.519  23.876   0.189  0.1961 -0.1071  0.3839
    1W        W46440  10.281   6.114   8.008  0.2228  0.0144  0.1429
    1W        W46441  25.210   1.963   0.708 -0.0211 -0.0331 -0.1191
    1W        W46442   3.891  11.694   0.200 -0.0557  0.2105 -0.1089
    1W        W46443   2.393  22.260   8.879  0.3436 -0.1389  0.1691
    1W        W46444   4.155  10.723   2.303 -0.0820  0.0901  0.0662
    1W        W46445  28.255  25.240   1.456  0.0199 -0.1192  0.1111
    1W        W46446  19.115   3.742   8.739  0.1474  0.0909 -0.2146
    1W        W46447  13.789  18.081   9.333 -0.4157 -0.1182 -0.0205
    1W        W46448  14.302   1.318   2.849 -0.3383 -0.0419  0.1590
    1W        W46449  13.031  15.154   7.580  0.1115  0.1239 -0.2792
    1W        W46450  10.018  27.134   6.485  0.2796  0.1168 -0.0407
    1W        W46451  24.387  25.629   8.623  0.0308 -0.1928  0.0320
    1W        W46452  21.124  19.432   8.357 -0.0799 -0.2180  0.1183
    1W        W46453   1.662  27.650   2.032  0.0811  0.6602 -0.2881
    1W        W46454  22.999  27.503   7.282  0.1973 -0.1206  0.1689
    1W        W46455   7.182  14.526   6.527  0.2968  0.0811  0.0983
    1W        W46456   8.671  28.314   9.078 -0.3766 -0.0966 -0.1052
    1W        W46457   1.497   2.048   3.048  0.0888  0.0311  0.0197
    1W        W46458   5.935  19.402   6.552 -0.0464  0.3841  0.0557
    1W        W46459   8.947  14.196   7.519  0.2269 -0.1083 -0.0261
    1W        W46460  17.094   5.755   2.856 -0.0148  0.1644  0.1187
    1W        W46461  16.111   3.403   2.080  0.2070  0.0524 -0.0826
    1W        W46462  29.763   8.582   7.144 -0.2591 -0.0284  0.3548
    1W        W46463   7.402   8.679   8.930 -0.1446 -0.0363  0.1394
    1W        W46464   1.833  17.920   0.084  0.2221  0.5524  0.1011
    1W        W46465  22.189  20.653   7.284 -0.1741 -0.2324 -0.4186
    1W        W46466   9.896  21.597   0.856  0.0410  0.1229  0.1534
    1W        W46467  12.392  10.931   0.163  0.0946 -0.2426  0.1924
    1W        W46468  19.271   7.680   0.602 -0.0526  0.3420  0.0595
    1W        W46469   4.031   4.215   7.612  0.0473  0.0931  0.1104
    1W        W46470  11.402  10.327   1.947 -0.2944 -0.0262 -0.1251
    1W        W46471  25.630   9.492   7.855 -0.1042 -0.1550  0.5793
    1W        W46472  27.766  13.713   7.004 -0.2078  0.2047 -0.1354
    1W        W46473  22.088   4.510   2.242 -0.0684 -0.0938  0.3744
    1W        W46474  21.914  15.203   0.948  0.1967 -0.1136 -0.1893
    1W        W46475   8.916   4.836   1.774 -0.0776  0.0053  0.1650
    1W        W46476  22.015  17.877   8.813  0.0784 -0.1224 -0.3737
    1W        W46477   0.162  21.565   7.808  0.0637 -0.3579 -0.2436
    1W        W46478   6.063   9.769   6.621 -0.1648 -0.2107  0.1724
    1W        W46479  24.799  26.686   1.263  0.0676  0.0541  0.0533
    1W        W46480  24.963  18.175   7.149 -0.0347  0.1485  0.0533
    1W        W46481   4.771  27.898   6.804  0.0071  0.1375 -0.0129
    1W        W46482  14.383  10.833   0.506  0.1192  0.0351 -0.0023
    1W        W46483   5.790   4.515   2.176 -0.1529  0.0116  0.2474
    1W        W46484  26.727  18.908   2.148  0.0106 -0.3373  0.1181
    1W        W46485   0.389  22.586   9.402  0.2388 -0.2652 -0.0455
    1W        W46486   6.984  11.068   8.461 -0.0815 -0.1605  0.0214
    1W        W46487  13.268   1.410   3.085 -0.1504  0.1092  0.1343
    1W        W46488   9.065  18.161   0.488  0.0060 -0.0309 -0.0104
    1W        W46489  10.944  21.280   9.387 -0.2521 -0.1646 -0.1778
    1W        W46490  23.433  24.820   8.416  0.1062 -0.1532  0.1654
    1W        W46491   7.365  23.233   9.046 -0.2027  0.0154 -0.2716
    1W        W46492  27.879  18.148   0.017 -0.0399  0.3142 -0.0084
    1W        W46493  11.600  23.039   1.219 -0.1252  0.1315  0.1019
    1W        W46494  23.937  24.423   7.568  0.2993  0.1298  0.1387
    1W        W46495   5.442   3.337   9.241 -0.3017 -0.0104 -0.0985
    1W        W46496   9.954  22.252   8.962  0.3065 -0.1941 -0.0440
    1W        W46497  18.847   0.939   9.302 -0.1949 -0.0774  0.1632
    1W        W46498  20.936  22.966   2.988  0.2850  0.3445  0.0039
    1W        W46499   3.374   9.720   1.762  0.3253 -0.0093 -0.2990
    1W        W46500  26.899   4.518   1.672  0.1491 -0.0211 -0.3389
    1W        W46501  22.369  11.693   1.725  0.1734 -0.2994 -0.2202
    1W        W46502  19.907  27.992   8.819  0.0497 -0.2104  0.0328
    1W        W46503  23.975   8.512   7.867  0.1629 -0.2830 -0.1387
    1W        W46504   5.944  18.561   7.874 -0.0494 -0.2086 -0.0175
    1W        W46505   8.831  12.319   0.595  0.0228  0.0565 -0.0020
    1W        W46506  22.193   1.210   6.850  0.1587  0.1135 -0.0416
    1W        W46507  27.538  21.881   1.440 -0.0061 -0.1083 -0.1350
    1W        W46508   1.632   0.372   1.623 -0.1422 -0.0591 -0.1913
    1W        W46509   2.228  27.339   2.681 -0.0624 -0.0137  0.1150
    1W        W46510  19.938   4.002   1.335  0.0932 -0.1813 -0.0457
    1W        W46511  21.183  10.903   0.692  0.0900 -0.1667 -0.1929
    1W        W46512  25.940   4.653   6.282 -0.1041  0.1229  0.0971
    1W        W46513  28.421  19.246   8.564 -0.0533  0.2837  0.0163
    1W        W46514  22.301  11.378   2.489  0.2684 -0.1462  0.0551
    1W        W46515   0.844   2.629   3.002  0.0550  0.0243 -0.0030
    1W        W46516   9.129  11.170   0.256  0.3352  0.0711  0.2188
    1W        W46517  27.229  12.624   5.962  0.2808  0.1186  0.1979
    1W        W46518   4.543   5.636   7.384  0.0071  0.0067  0.1487
    1W        W46519   9.574  29.878   0.028 -0.3119  0.1251 -0.1664
    1W        W46520  23.858  16.697   1.836  0.1022 -0.0545 -0.1486
    1W        W46521   4.102  14.804   1.488  0.2812  0.0228  0.0869
    1W        W46522  28.911  12.236   8.250  0.1366  0.2185 -0.0920
    1W        W46523  20.215  25.912   0.464 -0.0918 -0.0433  0.1622
    1W        W46524  15.264  11.791   7.575 -0.1147  0.0891  0.2006
    1W        W46525   5.311  25.461   8.322  0.0790  0.1316  0.2012
    1W        W46526  17.842   1.083   1.493  0.1672 -0.0108 -0.0027
    1W        W46527   0.103  14.558   3.000 -0.2674  0.1030 -0.1044
    1W        W46528  10.405   4.046   8.347  0.0458 -0.0221 -0.4713
    1W        W46529  11.244   6.470   2.848  0.2043 -0.0640  0.0604
    1W        W46530  18.491  16.080   8.216 -0.1098 -0.1421  0.0277
    1W        W46531  27.759  16.737   2.244  0.1891  0.0069 -0.0035
    1W        W46532   8.579  16.775   7.887 -0.0915  0.2551  0.0057
    1W        W46533  20.779   2.091   8.014  0.1332 -0.1981  0.3477
    1W        W46534  13.666  15.192   7.571  0.2979 -0.0166 -0.0398
    1W        W46535   9.605  21.174   1.439  0.1762 -0.2322 -0.0456
    1W        W46536   0.314  20.358   7.214  0.1365  0.0155  0.2054
    1W        W46537   8.790   7.324   3.694 -0.4077  0.3078  0.1131
    1W        W46538  11.587  10.000   2.242  0.1922  0.2774  0.0103
    1W        W46539  12.884  25.333   2.079 -0.3234  0.1984  0.3599
    1W        W46540   5.422  25.920   1.878 -0.1541  0.4638  0.1645
    1W        W46541   5.109  14.104   6.825  0.1019  0.4048 -0.0359
    1W        W46542  23.191   9.412   1.658 -0.1760  0.1894  0.2489
    1W        W46543  16.820   3.747   1.349  0.0310 -0.0602  0.0635
    1W        W46544  29.623   2.952   7.888  0.2588  0.0528 -0.1470
    1W        W46545   4.144   8.575   0.340  0.1707  0.0518 -0.1423
    1W        W46546   5.299  12.351   7.038  0.2151 -0.2104 -0.3033
    1W        W46547   5.108   0.905   0.116  0.2954 -0.0152  0.3254
    1W        W46548   1.497  20.335   1.540 -0.0081 -0.4309  0.0693
    1W        W46549  11.354   2.992   7.617 -0.1984 -0.1182 -0.1466
    1W        W46550  10.530  25.810   8.382  0.0733 -0.0624  0.1914
    1W        W46551  28.804   9.728   3.058  0.0751 -0.0088 -0.0281
    1W        W46552   9.154   8.393   0.222  0.2610  0.0331  0.1181
    1W        W46553  18.986  21.133   7.678 -0.1827 -0.2242 -0.1756
    1W        W46554   0.572  18.009   6.848 -0.0502 -0.2758 -0.1549
    1W        W46555  15.814  27.966   3.219 -0.0929 -0.2683  0.3611
    1W        W46556  23.952   9.421   0.406 -0.0394  0.3285 -0.0291
    1W        W46557  13.581  12.218   9.163  0.1830  0.2288 -0.0681
    1W        W46558  21.144   7.568   0.170  0.2192  0.0831 -0.0807
    1W        W46559  20.058  12.246   0.421 -0.0385 -0.0128 -0.1499
    1W        W46560  21.059   7.161   8.654  0.0526  0.0710 -0.4360
    1W        W46561  15.948  21.099   6.689 -0.0632 -0.1111  0.0491
    1W        W46562   6.829   0.427   2.366  0.2117 -0.2306  0.0168
    1W        W46563  25.512   2.729   0.338 -0.2236  0.3593  0.1265
    1W        W46564  24.277  26.865   0.864  0.0622 -0.0791  0.1782
    1W        W46565  21.748  29.715   6.669  0.1964  0.2397 -0.0924
    1W        W46566  13.636  11.931   8.082 -0.4954  0.0210 -0.4671
    1W        W46567  24.013   3.980   9.122  0.2400 -0.1279 -0.2992
    1W        W46568  18.125  21.963   2.673  0.1561  0.0165 -0.1727
    1W        W46569  13.246  28.023   7.959 -0.0359 -0.0763 -0.0063
    1W        W46570  23.520  13.368   8.584  0.0191 -0.0262 -0.0098
    1W        W46571  28.402  23.759   1.704 -0.0632 -0.1393  0.1725
    1W        W46572  16.787  17.964   7.124  0.0312  0.0584 -0.1729
    1W        W46573  28.070  11.261   0.608  0.0263 -0.1928  0.0876
    1W        W46574   4.351   6.204   0.985 -0.0640 -0.1446  0.0101
    1W        W46575  25.965  12.603   6.425 -0.2170  0.2605  0.0615
    1W        W46576  13.537   3.702   9.304 -0.2116 -0.1766  0.0204
    1W        W46577   0.638  17.648   5.777 -0.1847 -0.1078  0.0298
    1W        W46578  23.776  29.769   6.788 -0.1402 -0.0503 -0.0836
    1W        W46579  13.128   9.004   1.408 -0.1859  0.0284  0.0364
    1W        W46580   5.958   9.858   9.091 -0.0654  0.0997 -0.2183
    1W        W46581   7.345   5.016   1.204 -0.1386  0.0710 -0.0650
    1W        W46582   2.498  26.998   2.351  0.0412 -0.0843  0.1926
    1W        W46583   3.794  15.108   8.277  0.0262 -0.0285 -0.1213
    1W        W46584  10.525  11.730   9.389 -0.1039  0.0103 -0.1328
    1W        W46585  20.343   6.248   1.892  0.2046  0.1686  0.3191
    1W        W46586   7.857   2.789   8.175 -0.2001 -0.2234  0.0752
    1W        W46587   4.737   2.663   0.740 -0.0322  0.0156  0.0397
    1W        W46588   5.969  28.610   1.375  0.3404  0.1527  0.2766
    1W        W46589  11.086  10.648   0.806 -0.0245 -0.0424  0.0603
    1W        W46590  28.663   6.891   9.325 -0.0612 -0.1793  0.2942
    1W        W46591  16.793  19.881   9.411 -0.1215 -0.0499  0.0337
    1W        W46592  10.492  21.746   2.087  0.1978 -0.0743  0.0743
    1W        W46593  29.490   3.047   8.379 -0.3621 -0.5198 -0.5104
    1W        W46594  16.878   6.952   7.695  0.2056 -0.2419 -0.1410
    1W        W46595  10.178   3.182   1.137  0.1385 -0.0057 -0.0081
    1W        W46596   2.230  14.575   0.335  0.0907 -0.4069  0.0770
    1W        W46597   5.036  22.946   1.823 -0.2474 -0.0139 -0.1300
    1W        W46598  24.125  18.370   2.200 -0.1503 -0.1457 -0.0473
    1W        W46599  28.378  26.018   0.704 -0.0862  0.2051 -0.1282
    1W        W46600  22.613   9.741   6.372  0.0006  0.1379 -0.1854
    1W        W46601   7.680   1.824   0.905 -0.1240  0.1134  0.2007
    1W        W46602  17.720   4.765   1.004  0.0970  0.0145 -0.0662
    1W        W46603   4.967  24.651   9.456 -0.2644  0.1137  0.0670
    1W        W46604  18.488   1.611   3.492  0.0020  0.1421 -0.2908
    1W        W46605  15.774  17.721   7.064 -0.0070  0.0865 -0.1780
    1W        W46606  19.638  12.517   8.536  0.0680  0.1237 -0.1086
    1W        W46607   7.802  25.850   9.260  0.1963  0.1632 -0.2498
    1W        W46608  17.310  11.874   0.579  0.0493  0.0509 -0.2672
    1W        W46609   7.509  18.160   7.850 -0.1330 -0.0581  0.3682
    1W        W46610  15.726   2.755   2.447 -0.2479  0.0223  0.0461
    1W        W46611  23.291  19.466   1.919 -0.1274  0.0730  0.4756
    1W        W46612  11.584   8.452   8.157  0.1811  0.2331  0.0513
    1W        W46613   6.840   2.491   7.810  0.1797 -0.1254  0.1398
    1W        W46614  20.009  20.761   2.889  0.1625  0.1183  0.0206
    1W        W46615  20.867  11.015   1.098  0.0621 -0.0099 -0.2742
    1W        W46616  24.408   3.685   7.936  0.0496  0.2286 -0.2590
    1W        W46617  15.580   4.943   6.215  0.3768  0.0819 -0.1583
    1W        W46618  24.777  23.218   1.947 -0.1496  0.1263 -0.0903
    1W        W46619   6.281  10.645   8.211 -0.0283  0.0486  0.3274
    1W        W46620  27.276  29.512   1.451  0.0860  0.2917  0.1869
    1W        W46621  27.464  24.291   8.242  0.0634 -0.2898  0.1137
    1W        W46622  29.723  24.166   1.511  0.0387  0.1649 -0.2144
    1W        W46623  27.182   2.301   0.380 -0.1295  0.1131 -0.0785
    1W        W46624  28.319   5.579   1.857  0.2319 -0.4362  0.0110
    1W        W46625   2.621  18.954   8.015  0.2048 -0.1940 -0.2417
    1W        W46626   6.078   4.907   2.594  0.2228  0.1455 -0.2694
    1W        W46627  19.933   2.524   6.638 -0.0445 -0.2634  0.1357
    1W        W46628  26.306  23.385   9.413 -0.1276  0.0337 -0.0216
    1W        W46629   7.965  17.622   6.668 -0.1465  0.4034  0.1705
    1W        W46630   0.164   9.165   0.393  0.2315  0.2359 -0.2346
    1W        W46631  19.443  17.693   1.611  0.0514 -0.1412  0.1190
    1W        W46632   1.242  12.653   8.041 -0.0856  0.1120  0.0510
    1W        W46633  12.895  21.832   7.217 -0.1297  0.0800  0.0860
    1W        W46634  21.295  11.408   6.837  0.1634 -0.0251 -0.0156
    1W        W46635   6.716  29.407   8.725  0.2608  0.2307 -0.1123
    1W        W46636  29.632  29.831   2.239 -0.1623 -0.2866 -0.0649
    1W        W46637   9.456  10.853   9.218 -0.0068 -0.0292 -0.0940
    1W        W46638  20.819  11.157   6.784  0.0873  0.4549 -0.1036
    1W        W46639  28.942  17.444   8.332  0.1030 -0.2038 -0.3627
    1W        W46640  27.917  15.801   9.177 -0.0357  0.1741  0.1992
    1W        W46641   8.043   3.505   0.712 -0.1359  0.0139  0.0334
    1W        W46642   3.647   6.413   2.002 -0.1103 -0.0802 -0.4545
    1W        W46643  16.784  27.265   3.221 -0.1973 -0.1639  0.1806
    1W        W46644  24.430  13.716   5.675 -0.1072  0.2877 -0.0787
    1W        W46645  10.486  14.976   9.053 -0.3740 -0.0287  0.0011
    1W        W46646  19.480   0.476   8.188 -0.1560 -0.1644 -0.3654
    1W        W46647  15.444  18.135   8.323  0.2099  0.0203 -0.0021
    1W        W46648  14.866  24.620   8.030  0.1104  0.0198 -0.3064
    1W        W46649  18.079  14.097   7.367 -0.0357  0.3907  0.1663
    1W        W46650   0.214  22.593   2.336  0.0787 -0.2721  0.0674
    1W        W46651  27.763  12.334   2.227 -0.0894  0.0197  0.0754
    1W        W46652   1.726  17.908   8.893 -0.1710 -0.0032  0.1203
    1W        W46653  11.210   3.468   9.178  0.1624 -0.0373 -0.0385
    1W        W46654  28.951   2.933   6.964 -0.3298 -0.1201  0.1271
    1W        W46655  14.757   5.218   2.117 -0.2102 -0.0873 -0.0828
    1W        W46656  21.151  27.781   8.482  0.1718  0.0580  0.0151
    1W        W46657  29.379  18.842   8.699 -0.1764 -0.0963 -0.1802
    1W        W46658   9.434  20.264   8.298 -0.0706  0.0111  0.3814
    1W        W46659   1.145  24.465   1.590 -0.1684  0.2531 -0.0234
    1W        W46660   8.649   9.550   0.772  0.0556  0.1401  0.0925
    1W        W46661   4.119  28.637   8.255  0.3564 -0.1087 -0.1472
    1W        W46662  20.613  13.210   6.514  0.0826  0.4908  0.2107
    1W        W46663  11.816  12.736   0.907 -0.1925  0.0179 -0.1512
    1W        W46664  20.312  19.219   7.943  0.1546 -0.0721  0.1852
    1W        W46665   3.615   3.421   1.149 -0.3993 -0.2707  0.0388
    1W        W46666   8.360  18.480   1.830 -0.0753 -0.0529  0.0303
    1W        W46667  10.882   1.107   3.303 -0.3375  0.1050  0.4064
    1W        W46668   3.837  10.152   8.407 -0.3212 -0.0138  0.1062
    1W        W46669   8.747  23.774   7.137 -0.1991 -0.0866  0.2182
    1W        W46670   1.232  11.568   5.948  0.0435  0.2597 -0.2183
    1W        W46671  20.470  19.038   2.701  0.0032 -0.0766 -0.3706
    1W        W46672  16.933   8.650   7.437  0.2157  0.1158 -0.0794
    1W        W46673  15.171   8.558   0.512 -0.2130 -0.2535  0.0578
    1W        W46674   1.217  12.293   8.555  0.1799 -0.2426  0.0609
    1W        W46675  24.807  19.968   7.485 -0.0853  0.0430  0.0986
    1W        W46676   7.924  24.164   8.612 -0.0350 -0.2222  0.0602
    1W        W46677   9.762   5.804   7.426  0.2196 -0.0510 -0.0266
    1W        W46678   5.195   4.250   1.984  0.2612  0.1420  0.0406
    1W        W46679   0.164   7.205   2.227 -0.1694 -0.2749  0.2442
    1W        W46680  22.421   1.751   8.187 -0.1126  0.0490 -0.1894
    1W        W46681   9.023  17.097   8.285  0.1328  0.0642 -0.1951
    1W        W46682  17.347   3.167   0.141 -0.1881  0.1078 -0.0350
    1W        W46683  20.371  15.888   7.180  0.0393 -0.0094 -0.0251
    1W        W46684   7.670  28.405   6.932  0.3125  0.2642 -0.1703
    1W        W46685  28.810  29.050   1.060 -0.2815 -0.2476  0.1341
    1W        W46686   2.741  25.484   7.280 -0.2206  0.2977 -0.0554
    1W        W46687  23.494   8.046   1.450 -0.0355 -0.1734  0.0614
    1W        W46688   6.164  25.104   0.920 -0.0168  0.0537  0.2877
    1W        W46689   4.025  14.715   0.316  0.4664  0.1244 -0.0865
    1W        W46690  18.232  28.283   6.883  0.1915  0.0188  0.3810
    1W        W46691   5.013  27.818   9.458 -0.3443 -0.1984  0.2013
    1W        W46692  26.530   0.795   1.083 -0.0832 -0.1173  0.0150
    1W        W46693  28.649  16.722   7.194  0.0707 -0.1815 -0.1479
    1W        W46694  17.121  29.284   9.121 -0.2996 -0.1205  0.2487
    1W        W46695  11.111   2.677   1.045  0.1687  0.1047 -0.4344
    1W        W46696  15.993  24.577   6.582 -0.0644  0.2832 -0.1744
    1W        W46697  28.244   1.312   1.620 -0.1094 -0.3157 -0.1808
    1W        W46698  22.559  28.898   1.008  0.0468  0.2513  0.0935
    1W        W46699  26.436  20.079   8.744  0.0356  0.0536  0.0943
    1W        W46700  16.666   9.715   1.583 -0.0028  0.0338  0.0883
    1W        W46701   5.266   8.663   1.476 -0.2142 -0.1420 -0.5140
    1W        W46702   3.798  22.339   7.029 -0.0297  0.0394 -0.1181
    1W        W46703  13.799  18.605   1.655 -0.0782  0.2626  0.2368
    1W        W46704  11.666   2.615   3.030  0.0317  0.2011 -0.3051
    1W        W46705  17.717  21.201   0.441 -0.0976  0.3129  0.0865
    1W        W46706  20.172  13.428   1.854  0.1053 -0.1368 -0.4181
    1W        W46707   0.655  20.361   0.671  0.0805  0.0605 -0.0679
    1W        W46708  26.185   2.378   9.249 -0.0503 -0.0416  0.0202
    1W        W46709  10.569  13.519   0.722 -0.2789  0.1356  0.0273
    1W        W46710  10.637  29.826   0.169  0.0875 -0.1579  0.1380
    1W        W46711  18.156  10.022   7.684  0.0413  0.2672 -0.0446
    1W        W46712  24.822   1.902   2.459  0.2784  0.2651 -0.0483
    1W        W46713  13.607  15.416   8.033  0.1463 -0.1674 -0.0533
    1W        W46714  28.137   1.115   8.028  0.0564  0.1238 -0.0038
    1W        W46715  25.883   2.504   1.619  0.3733 -0.0880 -0.0624
    1W        W46716   5.836  18.322   0.894 -0.2802 -0.0529 -0.0704
    1W        W46717  23.990  12.400   8.665 -0.1154 -0.1609  0.2243
    1W        W46718   6.346   4.035   0.627 -0.0597  0.0042  0.1152
    1W        W46719  27.240  28.571   0.285 -0.2060  0.3227 -0.1900
    1W        W46720   0.612  25.552   1.629 -0.0431  0.2510  0.0795
    1W        W46721   6.306   9.031   9.099 -0.1126  0.0896 -0.1337
    1W        W46722  22.845   2.015   2.108  0.1527  0.0719  0.3104
    1W        W46723   6.517   6.096   6.891  0.0805  0.3235 -0.1851
    1W        W46724   9.004  17.780   0.788 -0.0208 -0.0261  0.1099
    1W        W46725  11.485  12.047   9.163  0.0767 -0.1921  0.1125
    1W        W46726   8.929   7.361   8.092  0.4443  0.1694 -0.0213
    1W        W46727   0.643   1.538   1.177  0.0809 -0.0394 -0.2532
    1W        W46728  15.957  29.742   3.086  0.1704  0.0999  0.3055
    1W        W46729   7.169   3.851   7.914 -0.1363  0.0803  0.1444
    1W        W46730  22.970  26.679   1.367 -0.0082 -0.0910 -0.0155
    1W        W46731  21.925  11.785   8.648 -0.2063  0.0028 -0.2420
    1W        W46732  28.817  14.153   2.056  0.0444  0.1574 -0.2284
    1W        W46733   0.825  21.503   1.747  0.2121  0.0694 -0.0637
    1W        W46734  16.832  23.683   1.208 -0.3200 -0.0744  0.2217
    1W        W46735  25.417  12.771   0.242 -0.1239 -0.0267  0.0098
    1W        W46736  29.864  15.330   6.043  0.1665  0.2644  0.1709
    1W        W46737  11.555   8.113   2.242  0.1803 -0.1224  0.1999
    1W        W46738  14.773   6.111   7.485 -0.1469 -0.0279 -0.0662
    1W        W46739  16.069   7.458   7.485  0.2125 -0.1983 -0.0645
    1W        W46740   9.159  19.258   7.226 -0.0485 -0.1686 -0.0427
    1W        W46741  25.833  25.615   8.693  0.1307 -0.1292  0.2798
    1W        W46742  28.228   5.473   3.504 -0.0290  0.1334 -0.1782
    1W        W46743  12.872   0.914   6.725 -0.2232  0.0526 -0.0455
    1W        W46744  19.259  21.474   0.653  0.0259 -0.2757  0.2843
    1W        W46745  10.046   0.367   9.079  0.1285  0.1816 -0.1128
    1W        W46746  29.246  13.839   7.845 -0.0815  0.3782 -0.1688
    1W        W46747  26.080  21.649   9.126  0.4308  0.1619  0.0993
    1W        W46748  18.970  13.648   9.337  0.3557  0.1023  0.0388
    1W        W46749  14.801  23.142   7.830  0.2899 -0.2058 -0.1456
    1W        W46750   8.357   2.274   0.240 -0.2530 -0.0210  0.0602
    1W        W46751  11.165  24.304   6.601  0.0698  0.1185  0.0966
    1W        W46752  29.570  26.745   7.660 -0.0549 -0.0149  0.1588
    1W        W46753   2.171  25.795   6.621  0.3398  0.3144  0.0729
    1W        W46754   6.232  15.072   1.354  0.0177  0.1139  0.0928
    1W        W46755   7.580  18.276   9.372 -0.1275  0.0918  0.2434
    1W        W46756   1.074   5.171   6.445 -0.1688 -0.0481 -0.3145
    1W        W46757  10.964  24.098   7.192  0.2939  0.1477 -0.1867
    1W        W46758  28.846  28.322   0.105 -0.1368  0.0199  0.0959
    1W        W46759  29.010  28.124   0.590 -0.4619 -0.2325 -0.1792
    1W        W46760  28.874   4.385   8.643  0.2933  0.0525 -0.1600
    1W        W46761  28.666  25.521   7.185 -0.0005  0.2976  0.1404
    1W        W46762  18.788  19.121   7.256 -0.0621  0.0514 -0.2329
    1W        W46763   8.613   5.345   2.721  0.1025 -0.4062 -0.1189
    1W        W46764  15.470  26.217   2.110 -0.3613  0.0260 -0.0561
    1W        W46765  23.485  14.587   1.101 -0.0004  0.2786  0.1421
    1W        W46766  25.383  13.994   5.702 -0.4504  0.0127 -0.2066
    1W        W46767   6.342  29.439   7.822  0.1227  0.0127 -0.1360
    1W        W46768  19.959  22.598   8.312 -0.0724  0.0643 -0.0463
    1W        W46769  12.464   8.129   2.066  0.1237 -0.0148 -0.0731
    1W        W46770  16.711  20.636   8.974 -0.1301 -0.2191  0.1645
    1W        W46771  25.812  22.232   0.688 -0.2409 -0.1745  0.0607
    1W        W46772  11.022  25.063   1.706  0.1392 -0.1203 -0.2361
    1W        W46773  27.355  21.236   0.227 -0.0011  0.2168  0.0608
    1W        W46774  24.580  26.934   6.636 -0.0469 -0.2267  0.1341
    1W        W46775   0.664  25.682   2.089  0.1650 -0.3113 -0.1063
    1W        W46776  21.549  16.051   7.024  0.2506  0.0027  0.0239
    1W        W46777   7.186  28.183   8.858  0.1125 -0.2501 -0.1948
    1W        W46778  17.205  14.037   7.284  0.0716  0.1014 -0.2645
    1W        W46779   9.918  22.367   1.596 -0.0487 -0.1325  0.1054
    1W        W46780   6.035  19.444   1.953  0.0174  0.1960 -0.1512
    1W        W46781  25.152   8.128   1.109  0.1839 -0.0680  0.1114
    1W        W46782  17.519   3.481   1.446 -0.1677  0.1173 -0.2905
    1W        W46783   0.091   4.265   0.001 -0.0667 -0.4844  0.0209
    1W        W46784  15.571  28.655   0.460  0.1466 -0.4507  0.2733
    1W        W46785  11.368   8.750   1.543  0.1283  0.0248  0.2101
    1W        W46786   7.978   6.327   1.351  0.1748  0.1945 -0.3046
    1W        W46787   7.915   0.163   0.548 -0.2187 -0.0701  0.1317
    1W        W46788  16.002  24.519   0.514  0.4025  0.1471  0.2023
    1W        W46789  15.249  29.414   0.140 -0.0545  0.2432 -0.0477
    1W        W46790  18.162  22.644   0.252 -0.3143 -0.3134 -0.1259
    1W        W46791   8.877   4.069   2.200 -0.0560 -0.2169  0.1931
    1W        W46792  22.865   4.458   7.599  0.0956 -0.0583  0.2857
    1W        W46793   2.791   4.591   2.993 -0.0415 -0.0229 -0.1924
    1W        W46794  25.151  16.929   7.678  0.4377  0.2273 -0.0139
    1W        W46795   4.375   7.057   0.571 -0.1270 -0.3941 -0.2038
    1W        W46796  21.675   5.397   1.896  0.0872 -0.0418  0.0842
    1W        W46797  18.753  22.119   8.653 -0.0430 -0.0804  0.0791
    1W        W46798  14.811   1.125   2.864 -0.0077  0.1581 -0.1604
    1W        W46799  28.578  13.520   1.537  0.1585 -0.1033 -0.3146
    1W        W46800  29.644  17.296   9.231 -0.2003  0.0808 -0.3639
    1W        W46801   5.586   1.182   2.314  0.1137  0.0300  0.2924
    1W        W46802   2.921  10.483   8.658  0.0653  0.2168  0.0068
    1W        W46803  20.994  15.948   1.906  0.0172 -0.2104  0.2619
    1W        W46804  28.389  23.356   7.456 -0.1801  0.0531  0.3791
    1W        W46805  27.255  28.256   1.601 -0.2233 -0.1454 -0.1191
    1W        W46806  28.636   8.624   7.609  0.1051 -0.4817 -0.1037
    1W        W46807  10.232   5.978   2.341  0.0450 -0.1052  0.0333
    1W        W46808  29.567  14.829   6.802  0.1497  0.2303 -0.1528
    1W        W46809  10.393   7.491   3.565 -0.0692 -0.1809  0.1168
    1W        W46810  25.962  18.117   7.273  0.2165 -0.2507 -0.1356
    1W        W46811  23.296  26.161   9.169  0.0155  0.4468  0.0434
    1W        W46812  25.026  21.050   7.635 -0.1821  0.1386 -0.0644
    1W        W46813  14.993  27.099   1.191 -0.0521 -0.0802 -0.2892
    1W        W46814  18.172  27.077   0.636 -0.1495 -0.0240 -0.0885
    1W        W46815   1.564   7.869   7.821  0.0548 -0.0659  0.1271
    1W        W46816   5.555  25.949   7.234 -0.2323  0.3241  0.1777
    1W        W46817  24.807  21.345   0.449 -0.3001  0.1312 -0.2127
    1W        W46818  14.969  12.366   7.221 -0.1951 -0.0859  0.0288
    1W        W46819  27.563  11.719   1.863 -0.1292  0.2154  0.1256
    1W        W46820  20.112  17.190   7.011  0.1315  0.0831 -0.0108
    1W        W46821  24.929  18.068   0.533  0.0922 -0.1378  0.1929
    1W        W46822  11.274   5.528   3.184 -0.0541 -0.0054 -0.0736
    1W        W46823   8.462  27.805   8.045  0.0170 -0.2091 -0.1086
    1W        W46824  12.672  26.047   6.668  0.1024  0.2045  0.2008
    1W        W46825  27.101  25.040   8.428  0.0048  0.0656  0.0483
    1W        W46826   8.016  26.526   6.260  0.0028  0.0740  0.0720
    1W        W46827   3.452  13.682   1.617 -0.0786 -0.3238  0.0140
    1W        W46828  23.002  18.477   1.716  0.0205 -0.0111 -0.1512
    1W        W46829  27.558  29.039   1.063 -0.0734  0.1200  0.2921
    1W        W46830  15.261   8.061   0.811  0.3911  0.0256 -0.1817
    1W        W46831  11.848  13.241   2.059  0.1784 -0.1790 -0.1398
    1W        W46832  14.267   0.335   0.907  0.0306 -0.1411  0.1900
    1W        W46833  12.844  16.806   1.936 -0.0631 -0.2644 -0.2631
    1W        W46834  12.374  17.362   8.020 -0.0152 -0.1134 -0.1275
    1W        W46835   8.859  15.197   6.779  0.0543 -0.2495 -0.2884
    1W        W46836  17.816  12.215   1.206 -0.0244 -0.0106 -0.0298
    1W        W46837  19.349  23.525   1.341 -0.0293 -0.1919  0.2294
    1W        W46838  15.246   3.978   8.792 -0.1859 -0.0426  0.2869
    1W        W46839   1.370  10.137   8.610 -0.2667  0.0733  0.1718
    1W        W46840  20.670   1.479   0.247 -0.0474 -0.2124  0.2801
    1W        W46841  15.721   3.972   6.579  0.0718  0.0747 -0.3287
    1W        W46842   0.087  18.769   7.098  0.0379  0.1048 -0.2370
    1W        W46843   7.443   5.664   0.563  0.1180  0.0402  0.3294
    1W        W46844   7.685  25.675   0.304  0.1246 -0.2860 -0.1844
    1W        W46845  13.083  18.284   7.412  0.0595 -0.3453 -0.0100
    1W        W46846   5.786  15.896   6.065 -0.0724  0.1791  0.1498
    1W        W46847  22.762  27.039   9.333  0.1164  0.1366 -0.1125
    1W        W46848   0.625   7.331   0.796  0.1866  0.0046 -0.0309
    1W        W46849   8.054   2.559   0.586 -0.0501 -0.1904  0.1968
    1W        W46850   0.437  18.248   1.184 -0.0297 -0.0638 -0.1907
    1W        W46851   0.126   9.807   3.264 -0.0320 -0.0485 -0.1029
    1W        W46852  26.761   1.838   7.543 -0.2712  0.0802 -0.0939
    1W        W46853  10.407  28.087   1.869 -0.4807 -0.0871  0.0952
    1W        W46854  21.427   2.607   0.744  0.1260 -0.2076 -0.2247
    1W        W46855   1.234  11.415   2.278  0.2573  0.0405 -0.2689
    1W        W46856   9.484  23.836   8.762 -0.0623 -0.0202 -0.1988
    1W        W46857  10.676   3.169   1.333  0.0598 -0.0154 -0.2649
    1W        W46858   6.550  14.781   1.599 -0.0992 -0.1472 -0.3316
    1W        W46859  11.489  19.068   9.208  0.3759 -0.1356  0.0141
    1W        W46860  20.215   6.230   2.614 -0.1724 -0.1037 -0.0693
    1W        W46861  23.464   0.484   8.860  0.1322  0.4032 -0.0588
    1W        W46862   4.242  17.442   7.415 -0.0264  0.0763 -0.0211
    1W        W46863  13.783  27.790   2.836 -0.0546 -0.3175 -0.2022
    1W        W46864  15.131  26.591   9.332 -0.0301  0.2262  0.0891
    1W        W46865  20.396  29.414   1.543  0.2899 -0.0267  0.4562
    1W        W46866  25.625  10.872   8.963  0.2260  0.2920  0.1560
    1W        W46867   4.596   3.585   9.341 -0.3419  0.2581  0.1042
    1W        W46868  25.210  18.063   6.687 -0.0521 -0.0246 -0.0702
    1W        W46869  21.661   3.614   0.041 -0.2392 -0.1412  0.0966
    1W        W46870  15.694  13.637   0.371  0.0079 -0.0134 -0.1010
    1W        W46871   9.629   4.258   2.094 -0.1349  0.1438 -0.0352
    1W        W46872  26.210  24.193   7.865 -0.0060 -0.1828 -0.2654
    1W        W46873  11.390  28.646   0.101 -0.2527  0.0112 -0.0010
    1W        W46874  27.409   1.450   7.174  0.1728 -0.0530 -0.0031
    1W        W46875  22.396   4.176   6.355  0.0299  0.0695  0.1911
    1W        W46876  15.270  21.483   1.129  0.0864  0.2187 -0.3036
    1W        W46877   8.981   8.960   1.578  0.3444 -0.0133  0.0908
    1W        W46878  15.510  10.740   8.201  0.1613 -0.0637  0.0717
    1W        W46879  10.636   0.317   0.945 -0.0046  0.0186 -0.1831
    1W        W46880  17.989  29.444   7.885  0.1789 -0.0020 -0.2323
    1W        W46881   4.323   0.217   2.139  0.0400 -0.1387 -0.2320
    1W        W46882  27.786   5.478   2.214  0.0286 -0.1440 -0.1117
    1W        W46883  25.987  23.088   1.843  0.2784 -0.0512 -0.0652
    1W        W46884   0.991  17.629   8.331 -0.1422 -0.2887 -0.3138
    1W        W46885  25.987  22.549   7.533  0.2433  0.2211 -0.1327
    1W        W46886  18.951  19.042   8.670  0.0439 -0.1501 -0.0640
    1W        W46887   1.829   4.185   1.766 -0.0354 -0.1606 -0.3611
    1W        W46888  13.020   5.704   1.833  0.0729 -0.1230  0.0750
    1W        W46889   3.229   0.735   7.667  0.0095  0.4355  0.0245
    1W        W46890  28.216  23.091   0.805  0.0195  0.2451 -0.0868
    1W        W46891   3.104  26.098   6.459 -0.0523 -0.1171 -0.0749
    1W        W46892  10.782  16.727   8.828  0.1605 -0.0653 -0.3011
    1W        W46893   7.018  14.914   7.207  0.0402  0.0659 -0.0259
    1W        W46894   2.244  13.812   1.728  0.0772  0.2295  0.2847
    1W        W46895  12.345   4.829   8.039 -0.0790 -0.0111  0.1196
    1W        W46896  10.357  11.987   1.067  0.0312 -0.0301  0.4056
    1W        W46897  16.026   6.965   7.335 -0.0979 -0.3372  0.1831
    1W        W46898  14.506   6.259   0.262 -0.0229 -0.1147  0.0643
    1W        W46899  19.261   3.022   0.022 -0.2002 -0.0257  0.1773
    1W        W46900   3.177  13.872   2.769  0.2587  0.1108 -0.0377
    1W        W46901  11.239   6.853   1.235 -0.4440  0.1186 -0.2173
    1W        W46902  19.105  17.942   1.288  0.1027 -0.0437  0.4951
    1W        W46903   3.412  23.899   2.218  0.2008 -0.2067  0.2561
    1W        W46904   7.746   2.007   2.768  0.1696 -0.1621  0.1904
    1W        W46905  14.879   2.543   3.194 -0.2636  0.0123 -0.0887
    1W        W46906  19.306  24.515   1.265  0.4479  0.0675 -0.1024
    1W        W46907   0.819  27.931   1.703  0.0135 -0.1116  0.0916
    1W        W46908  25.923  29.555   7.904  0.0913 -0.0510 -0.2249
    1W        W46909  17.840  20.585   9.155  0.3254  0.0459  0.1150
    1W        W46910  14.129  13.475   8.268  0.0818  0.1460 -0.0522
    1W        W46911   9.441  27.950   7.635  0.0413 -0.0381 -0.1718
    1W        W46912  12.817   8.737   7.903  0.0687  0.0553 -0.1027
    1W        W46913  24.385   6.716   3.707  0.3976  0.0268  0.0974
    1W        W46914  12.186  24.010   8.478 -0.1603  0.3856 -0.1032
    1W        W46915  24.043  28.572   1.882 -0.2126 -0.2353  0.0737
    1W        W46916  12.192  16.050   7.721  0.0376  0.0829  0.0942
    1W        W46917   2.915  17.908   0.965 -0.0637  0.2388  0.0628
    1W        W46918   5.820   5.834   2.894  0.2767  0.2115 -0.0139
    1W        W46919  12.651  25.614   1.773 -0.1417 -0.4951 -0.1168
    1W        W46920   1.075  12.310   7.706  0.0935  0.1332 -0.2066
    1W        W46921  24.436   4.162   1.912  0.1148  0.2494 -0.0685
    1W        W46922  23.953  22.890   0.477 -0.0198  0.1261 -0.0359
    1W        W46923  17.044  12.881   8.388  0.1116  0.2347  0.4008
    1W        W46924  12.805  18.965   2.507  0.1848  0.1211 -0.3246
    1W        W46925   6.205   1.116   8.681 -0.2663  0.0390  0.1247
    1W        W46926  16.896  25.224   2.862 -0.2240 -0.1904 -0.0951
    1W        W46927   8.352   4.652   3.371  0.4687 -0.1149 -0.0992
    1W        W46928   2.053   1.700   0.613  0.1266 -0.0056  0.0580
    1W        W46929  26.472  12.070   7.206 -0.0870 -0.0781  0.0614
    1W        W46930  11.734  26.410   3.276 -0.1305 -0.0724  0.0651
    1W        W46931  24.737  15.238   7.246 -0.1512 -0.1644  0.2718
    1W        W46932  16.697  27.100   8.651  0.3245 -0.1559 -0.1670
    1W        W46933   4.742  12.843   6.315 -0.0435 -0.0293 -0.0069
    1W        W46934   6.605   9.186   1.082 -0.1843 -0.4194  0.1178
    1W        W46935  26.593  23.803   7.649 -0.2081 -0.3977  0.2730
    1W        W46936  22.864   1.894   9.082 -0.1380 -0.3903 -0.0788
    1W        W46937  19.577  26.849   0.754 -0.1229  0.1920 -0.2024
    1W        W46938  11.558  27.969   1.452  0.0244  0.1890 -0.1979
    1W        W46939  21.290  28.417   8.019  0.0584 -0.0820  0.1052
    1W        W46940  28.006   0.226   2.911  0.2052 -0.4296 -0.2060
    1W        W46941  16.081   5.024   0.305  0.0709  0.0770  0.1209
    1W        W46942  25.654   1.351   2.169  0.2290  0.0721  0.1480
    1W        W46943  13.926  22.414   1.606 -0.1939  0.0583  0.2499
    1W        W46944   1.761  17.321   0.307 -0.0769  0.1942  0.0950
    1W        W46945  25.469  23.837   2.364 -0.5028  0.0028  0.2426
    1W        W46946  19.299  16.698   6.588 -0.0116 -0.0353  0.3421
    1W        W46947  18.028   0.575   0.705 -0.1845 -0.1067 -0.2180
    1W        W46948   6.032  11.301   2.050 -0.0265  0.0151 -0.0200
    1W        W46949   0.646  20.209   1.191 -0.3383  0.1278  0.0107
    1W        W46950   6.510   2.147   8.014  0.2977 -0.2049  0.0935
    1W        W46951  18.875  11.411   1.762  0.3342  0.0659 -0.2400
    1W        W46952   1.896  18.134   6.315  0.0058 -0.2648  0.5709
    1W        W46953   2.362  21.001   0.488  0.1066 -0.4078 -0.0221
    1W        W46954   4.695   8.724   8.481 -0.1134  0.0474  0.1564
    1W        W46955  15.533  27.337   7.247 -0.1292 -0.0230  0.2681
    1W        W46956  29.009   4.608   8.232  0.0147 -0.0231  0.4357
    1W        W46957   5.448  15.241   0.910 -0.0002 -0.4571  0.1360
    1W        W46958  24.419   7.246   8.049 -0.1173  0.0661  0.0577
    1W        W46959  12.845   8.625   1.284 -0.2125  0.1245  0.4935
    1W        W46960   3.133   5.560   3.157  0.0802  0.5175  0.1036
    1W        W46961  10.833  19.892   0.512  0.1725 -0.0650  0.0676
    1W        W46962  21.689  21.846   2.194 -0.2989 -0.0218 -0.0922
    1W        W46963  23.151  25.943   0.218 -0.2944  0.1146  0.1418
    1W        W46964  24.220  23.492   2.738 -0.2472 -0.0400 -0.1383
    1W        W46965   6.740   8.840   8.236  0.3359  0.0541 -0.1964
    1W        W46966   5.550   1.517   0.837 -0.1059  0.0279  0.0005
    1W        W46967  27.063  14.169   0.154 -0.2397 -0.1866  0.0701
    1W        W46968  13.643  22.518   6.425  0.2453  0.0573  0.0789
    1W        W46969  23.395   3.918   6.768  0.1115 -0.1188 -0.3103
    1W        W46970  18.144  10.685   1.676 -0.1486 -0.0580  0.2891
    1W        W46971   7.028  19.252   7.422 -0.1370  0.2724  0.0126
    1W        W46972   2.859  26.184   0.578  0.0352 -0.0416 -0.0650
    1W        W46973  13.692  14.573   7.518 -0.0248  0.3068 -0.1575
    1W        W46974   9.908   5.762   8.058 -0.0716  0.1322 -0.0381
    1W        W46975  15.616  10.550   6.555  0.1447  0.2247  0.2515
    1W        W46976  12.257  11.869   7.044 -0.1856 -0.0727  0.1512
    1W        W46977  25.406  18.180   8.875  0.0446 -0.0729 -0.0811
    1W        W46978   3.287  25.908   1.136 -0.2184 -0.1940  0.0482
    1W        W46979  25.372   6.927   6.882 -0.3014 -0.2017 -0.3621
    1W        W46980  27.250  15.440   7.974 -0.4473 -0.1915  0.3307
    1W        W46981   4.863  21.987   0.766 -0.0057  0.0151 -0.1970
    1W        W46982   2.018  19.584   1.070 -0.4121 -0.1190  0.0295
    1W        W46983  28.890  12.011   9.374  0.1813 -0.0219 -0.0445
    1W        W46984  11.638  22.109   1.769 -0.1001 -0.1821 -0.3540
    1W        W46985  17.996   7.184   7.159  0.0397  0.1533 -0.2605
    1W        W46986  20.870  23.354   1.252  0.0548  0.0060 -0.0229
    1W        W46987  22.099  12.747   9.261  0.0568  0.3730  0.1523
    1W        W46988  27.664  19.568   8.527 -0.1224  0.0432 -0.1072
    1W        W46989   1.860   4.951   7.601  0.0622  0.2703  0.0608
    1W        W46990   3.515  12.092   2.594  0.0564  0.2595 -0.1470
    1W        W46991  20.074   3.804   7.147 -0.0871  0.1226 -0.4902
    1W        W46992   8.670   4.379   8.695 -0.1668 -0.0398  0.0496
    1W        W46993   3.705  20.516   2.562 -0.1129  0.0347  0.0956
    1W        W46994  11.130  23.556   5.889  0.2859 -0.0011  0.0381
    1W        W46995   8.758  25.569   7.613  0.1164  0.1394  0.1089
    1W        W46996  16.829   3.213   7.792 -0.1222 -0.1517  0.3477
    1W        W46997   4.894   3.022   8.800 -0.1843  0.0170  0.3419
    1W        W46998  28.944  13.867   7.457  0.2584 -0.0641 -0.1515
    1W        W46999   6.923  10.730   0.457  0.2765 -0.4962 -0.0644
    1W        W47000  20.588  23.223   8.760  0.0720 -0.0024  0.0513
    1W        W47001  25.600  17.073   7.927 -0.1530  0.0020 -0.2202
    1W        W47002  26.387   2.581   1.513 -0.2967  0.2387  0.0815
    1W        W47003   5.625   0.005   0.132  0.2862 -0.2802 -0.2316
    1W        W47004  25.210  29.091   7.443  0.0872  0.1037 -0.3862
    1W        W47005   2.806   3.570   1.601 -0.0796  0.3250  0.1067
    1W        W47006  24.507   6.214   2.958  0.0061 -0.1825 -0.1541
    1W        W47007   3.182   2.279   8.694  0.0410 -0.0747  0.0396
    1W        W47008  27.486  24.154   2.828 -0.3381  0.2714 -0.1559
    1W        W47009  17.142  16.699   8.092  0.1485 -0.2036  0.1789
    1W        W47010  29.124   9.722   8.026  0.1117  0.1518  0.0222
    1W        W47011  14.458  24.390   8.859 -0.0996  0.2397 -0.1458
    1W        W47012  22.000  13.823   1.562 -0.0107  0.0593  0.0272
    1W        W47013   2.335  12.547   0.411  0.1725  0.0604  0.2506
    1W        W47014  15.808   3.361   6.598 -0.0127 -0.0275  0.2376
    1W        W47015  18.004  17.566   0.163 -0.2161  0.1546  0.3238
    1W        W47016  27.523  23.303   1.340  0.1072  0.1724  0.0232
    1W        W47017   9.791  22.812   0.102  0.0643  0.0660 -0.1740
    1W        W47018   9.405  23.336   1.513 -0.0457 -0.2642 -0.0694
    1W        W47019   4.524   4.403   2.866  0.2445  0.0334  0.0943
    1W        W47020  14.387  17.810   1.017 -0.0974  0.0657 -0.2411
    1W        W47021   6.726   0.976   8.382 -0.0702  0.1896  0.2148
    1W        W47022   5.613   6.853   0.645  0.2933 -0.1072 -0.2715
    1W        W47023   1.228  17.570   0.228 -0.2887 -0.0062  0.2116
    1W        W47024  19.443  20.088   8.016 -0.0467 -0.1872  0.0843
    1W        W47025  23.788   3.118   3.986 -0.0760  0.0551  0.1420
    1W        W47026  27.665  29.735   2.990 -0.0286 -0.0565  0.2769
    1W        W47027  26.254   6.951   2.943  0.0396 -0.0185 -0.1251
    1W        W47028  27.383  14.504   6.946 -0.1301  0.1454 -0.0783
    1W        W47029  13.729   5.441   9.204  0.0595  0.0794 -0.0579
    1W        W47030  19.891   2.263   0.974  0.0952 -0.2246 -0.1193
    1W        W47031  21.230  13.867   6.349  0.2986 -0.2880 -0.1014
    1W        W47032  29.246  16.605   8.632  0.0092  0.3478 -0.0152
    1W        W47033  16.606  21.491   1.519  0.1363 -0.3897  0.0728
    1W        W47034  11.197   9.014   1.932  0.0246  0.1558  0.1289
    1W        W47035  23.044  22.082   1.160  0.2242 -0.1471  0.1193
    1W        W47036   4.952  21.297   5.902  0.3214 -0.2254 -0.1334
    1W        W47037  25.799  28.077   2.156 -0.1423  0.1325 -0.1807
    1W        W47038  20.402  10.575   1.800  0.2558  0.0930 -0.2221
    1W        W47039  28.379  21.757   0.591  0.1803  0.1379 -0.1498
    1W        W47040  21.906   2.346   2.112 -0.0302 -0.1790  0.0802
    1W        W47041  24.982   3.786   7.882  0.2865  0.0431  0.0557
    1W        W47042  19.136   2.862   8.465  0.0208 -0.0465 -0.0823
    1W        W47043  20.030   3.691   2.204 -0.1395  0.1134 -0.3607
    1W        W47044  11.354  22.194   0.704  0.1030 -0.0335  0.1528
    1W        W47045  20.238   2.000   2.417 -0.1282  0.0464  0.1308
    1W        W47046   3.077  29.832   0.136 -0.5326 -0.0587 -0.1331
    1W        W47047  18.051  11.078   7.918 -0.0360  0.0338  0.1639
    1W        W47048  24.597   3.809   1.131 -0.1008 -0.3592 -0.0144
    1W        W47049   2.402  21.939   0.060 -0.3283 -0.0607  0.2394
    1W        W47050  14.491  26.747   7.531  0.0513  0.1036  0.0453
    1W        W47051  24.621   8.682   0.924  0.1825  0.0931  0.1301
    1W        W47052  14.823  18.969   6.464 -0.1369 -0.2094  0.1372
    1W        W47053  29.201   5.381   9.249  0.0487  0.2186 -0.0821
    1W        W47054  20.467  19.087   9.106 -0.0514  0.1092 -0.1150
    1W        W47055   8.975  10.532   9.244 -0.2049  0.1373  0.4688
    1W        W47056   5.886  24.243   2.974 -0.3794 -0.2702  0.2628
    1W        W47057  10.684  20.844   9.390  0.0840 -0.1605  0.2068
    1W        W47058  18.456   5.087   9.048 -0.1706  0.0971  0.1396
    1W        W47059  15.798  25.169   3.157 -0.0225  0.0763  0.2425
    1W        W47060  23.691   9.667   2.028 -0.3286  0.0596 -0.1306
    1W        W47061   1.524   9.655   8.128 -0.0691  0.0006 -0.3088
    1W        W47062  17.938   1.375   8.895  0.0639 -0.2457 -0.1632
    1W        W47063  23.565  29.379   7.100 -0.1940  0.0522  0.1103
    1W        W47064   4.319  10.876   0.527 -0.3736 -0.0018  0.0048
    1W        W47065  11.992  13.105   1.610 -0.0494  0.2908  0.1064
    1W        W47066   1.131  26.864   0.336 -0.1033 -0.1578  0.3339
    1W        W47067  17.079   8.262   1.106 -0.0218 -0.1310 -0.2272
    1W        W47068  27.193  23.774   0.361 -0.1016 -0.0536 -0.0165
    1W        W47069  26.889  11.122   2.307  0.1017  0.1111  0.0960
    1W        W47070  29.648  11.964   0.133 -0.0733 -0.1508  0.0323
    1W        W47071  19.552   3.963   7.077 -0.1173 -0.1750 -0.0647
    1W        W47072   2.469   5.323   2.635  0.0725  0.1333 -0.2035
    1W        W47073   1.840   2.836   2.232  0.2656 -0.1056 -0.0124
    1W        W47074   2.951  29.283   0.392 -0.0605  0.2254  0.0321
    1W        W47075   9.063   9.465   7.171  0.0660 -0.1562  0.2808
    1W        W47076  26.008   0.980   7.777 -0.2306  0.1000 -0.3886
    1W        W47077  19.397   4.829   0.181 -0.1633  0.1948  0.1164
    1W        W47078   7.788  24.377   9.111 -0.0983 -0.0210 -0.0107
    1W        W47079  16.296   3.894   2.230  0.3870 -0.0331  0.0316
    1W        W47080   4.504   5.318   8.705 -0.1591 -0.1640  0.0884
    1W        W47081  26.152  13.889   7.706 -0.1831 -0.1364  0.3320
    1W        W47082   0.523   5.027   6.821  0.1332  0.0664  0.2204
    1W        W47083  23.584  15.825   8.877  0.1516 -0.0069 -0.2744
    1W        W47084  17.210  19.654   8.714  0.1728  0.0442  0.3217
    1W        W47085  12.996   4.039   2.528  0.0006  0.0949 -0.1778
    1W        W47086   0.554  11.345   6.515 -0.0660  0.0128  0.0478
    1W        W47087   9.656   1.673   0.687 -0.0211  0.2689 -0.0786
    1W        W47088  21.882   0.917   7.814  0.0733  0.0815  0.2000
    1W        W47089  11.915   1.150   0.955  0.0239  0.0672  0.0703
    1W        W47090  15.183  29.036   7.669 -0.0576 -0.0216 -0.0404
    1W        W47091  11.008  13.400   7.266 -0.0477  0.1567  0.1818
    1W        W47092  25.688  14.994   8.571  0.1372  0.0462  0.0581
    1W        W47093   6.532   2.608   3.651 -0.2966 -0.0949 -0.4631
    1W        W47094  10.655   6.227   2.191 -0.0313  0.1617  0.1049
    1W        W47095   2.816  24.695   6.136 -0.3723  0.0980 -0.0358
    1W        W47096  14.720  10.845   8.681  0.1093  0.5571  0.2356
    1W        W47097  11.051  25.636   0.355 -0.1425 -0.1745 -0.1810
    1W        W47098   3.039   2.657   3.176 -0.2722  0.0658  0.2081
    1W        W47099  29.154   5.170   7.723  0.2475 -0.1325  0.1469
    1W        W47100  13.721  26.160   2.843  0.2376  0.1309 -0.2266
    1W        W47101   5.564  10.478   8.392  0.0311 -0.0254 -0.1871
    1W        W47102  24.755  10.538   8.961 -0.0175 -0.1963 -0.0675
    1W        W47103  20.444   3.188   0.299  0.1911 -0.1474 -0.2427
    1W        W47104  27.265  24.264   2.308 -0.3238 -0.1476  0.1085
    1W        W47105  28.609  22.496   0.740 -0.5072 -0.1155 -0.1866
    1W        W47106   3.638   9.794   8.745 -0.3967  0.0964 -0.1911
    1W        W47107  18.729  20.686   7.880  0.2027 -0.0571 -0.3506
    1W        W47108  18.551  25.779   1.069 -0.0575 -0.5326 -0.2093
    1W        W47109   5.597  23.043   6.970 -0.0660 -0.0501 -0.0846
    1W        W47110  17.383   9.425   8.668 -0.0086 -0.1544 -0.1441
    1W        W47111  18.214   5.902   9.190 -0.2049 -0.1101  0.2960
    1W        W47112  10.133  27.892   1.476  0.0075  0.0469 -0.2299
    1W        W47113  28.179   0.125   8.387 -0.1090  0.0007 -0.1968
    1W        W47114  13.472  11.665   0.097  0.0045 -0.1799  0.2862
    1W        W47115  17.536   9.380   9.161 -0.0702  0.1255  0.2015
    1W        W47116  27.219  20.103   6.588 -0.2973 -0.0542 -0.4171
    1W        W47117  19.634   5.378   0.289 -0.0714 -0.2465 -0.1704
    1W        W47118   8.885   5.229   8.295  0.2717  0.3128  0.0878
    1W        W47119   6.398   4.034   8.383 -0.0501  0.2069 -0.3188
    1W        W47120   1.617  15.551   5.393  0.1465 -0.3257 -0.2393
    1W        W47121   8.497   1.012   7.481  0.0859  0.2562 -0.1610
    1W        W47122  28.411  19.205   7.806  0.3898 -0.1505  0.0652
    1W        W47123  12.918   9.989   0.858 -0.1076 -0.1543 -0.1770
    1W        W47124  25.633   6.788   8.803  0.1890 -0.2773  0.2300
    1W        W47125   4.787   7.286   2.585 -0.2846 -0.0112 -0.2183
    1W        W47126   2.202   2.269   8.651 -0.3511  0.4052 -0.0193
    1W        W47127  11.284  12.245   0.716 -0.0513  0.1522 -0.2164
    1W        W47128   6.467  18.578   6.486 -0.0245  0.0647 -0.1133
    1W        W47129  20.983   0.976   7.281  0.1225  0.1262 -0.1902
    1W        W47130   8.611  21.211   0.982 -0.1012 -0.1980 -0.1845
    1W        W47131   9.256  27.378   9.040  0.3985 -0.3108  0.2169
    1W        W47132   1.654   0.126   0.355  0.2764 -0.4194 -0.4297
    1W        W47133  15.800  10.352   6.943  0.0852  0.1375  0.1051
    1W        W47134  21.337  24.668   6.886  0.0501 -0.1779  0.0451
    1W        W47135  15.953  11.906   7.339  0.1644  0.0454 -0.0538
    1W        W47136  24.174  28.193   2.290  0.2509 -0.0065 -0.2125
    1W        W47137  15.834  12.484   2.134 -0.1765 -0.0045  0.1865
    1W        W47138  11.305   7.261   0.888  0.1627 -0.0562  0.2650
    1W        W47139  22.542  11.948   0.494 -0.2151 -0.1306  0.2923
    1W        W47140  12.874   9.244   0.704  0.2549  0.3568 -0.1707
    1W        W47141  10.962   9.208   0.042 -0.0018  0.1959  0.4005
    1W        W47142  10.174  11.532   7.797  0.0854  0.0259  0.0009
    1W        W47143  11.048  23.096   1.237  0.0156 -0.4975 -0.1217
    1W        W47144  17.682  17.957   0.125  0.0398 -0.0933 -0.0646
    1W        W47145  24.387  13.015   1.430  0.0302 -0.1532 -0.0039
    1W        W47146  21.402   1.246   0.645 -0.1242 -0.1513 -0.1294
    1W        W47147  23.360  26.375   1.315 -0.0564 -0.1190  0.1451
    1W        W47148  21.022   6.629   2.387 -0.2293  0.1266  0.1947
    1W        W47149  29.517  19.785   1.853 -0.1300  0.0892  0.1378
    1W        W47150  29.429   1.517   7.786 -0.0620  0.2062 -0.3848
    1W        W47151  27.911  24.974   8.346 -0.3053  0.1264  0.0945
    1W        W47152   7.242   1.431   3.332 -0.0376 -0.1191 -0.1665
    1W        W47153  27.239  19.532   8.698  0.2888 -0.0107  0.0760
    1W        W47154   8.806   5.408   0.643  0.4509 -0.3575  0.0695
    1W        W47155  28.224  22.945   2.566 -0.2684 -0.4332  0.0706
    1W        W47156   6.068  26.797   8.751 -0.1923 -0.0466  0.0265
    1W        W47157   1.619   8.432   1.143 -0.0350  0.0634 -0.1248
    1W        W47158   6.626  14.171   0.868  0.1182  0.1459 -0.2133
    1W        W47159  11.195   9.641   0.081  0.1415 -0.1858  0.1964
    1W        W47160   6.182  22.871   1.729  0.0955 -0.1156  0.0114
    1W        W47161  29.765   4.579   7.717  0.2649  0.2646  0.1151
    1W        W47162  14.097  24.810   8.006  0.2350  0.2573 -0.1541
    1W        W47163  15.251  17.109   1.815 -0.1660  0.2867  0.0749
    1W        W47164  12.149   7.640   0.063 -0.2189 -0.1996 -0.2159
    1W        W47165   7.384   7.770   1.063  0.4906  0.0526 -0.0665
    1W        W47166  24.567  14.888   6.441 -0.1617 -0.1370  0.2837
    1W        W47167   4.833   9.087   0.704  0.1088 -0.2199 -0.0488
    1W        W47168  27.966  15.030   7.533  0.0285  0.1017  0.1111
    1W        W47169  26.928   7.470   6.425 -0.1862 -0.3937 -0.2092
    1W        W47170  17.676   5.416   8.639  0.1111  0.0072  0.1001
    1W        W47171  12.653  16.954   7.975 -0.2372 -0.0501  0.2993
    1W        W47172  20.839  20.564   0.366  0.1238 -0.1479 -0.3019
    1W        W47173  24.588  16.484   0.093 -0.2198  0.1465 -0.0542
    1W        W47174  12.752  28.077   8.210 -0.2290  0.6145 -0.3965
    1W        W47175  27.278  22.500   2.035 -0.1635  0.0685 -0.0409
    1W        W47176  11.064   9.893   7.344  0.0740 -0.4198  0.1139
    1W        W47177  17.914  29.596   1.715  0.1643  0.2578 -0.1196
    1W        W47178  10.936   2.075   9.019  0.0567  0.3245 -0.1658
    1W        W47179   9.939  14.255   8.786  0.2115 -0.4580 -0.1362
    1W        W47180  14.380   4.065   1.797 -0.0727  0.1075 -0.1095
    1W        W47181  25.004  21.066   8.637 -0.0518  0.3487  0.1923
    1W        W47182  18.874   4.203   8.796 -0.0375 -0.0460  0.1330
    1W        W47183  24.119  27.701   8.928  0.0515  0.0593  0.2254
    1W        W47184  29.124   8.811   7.460  0.1791  0.0187  0.2935
    1W        W47185   1.306   7.395   7.712  0.1668  0.0608 -0.1993
    1W        W47186  23.067  15.412   6.725 -0.3929  0.0429 -0.1060
    1W        W47187   9.686   9.335   9.308 -0.0887  0.2590  0.2661
    1W        W47188  14.582  24.169   6.134  0.2283 -0.0843 -0.0361
    1W        W47189  22.589   7.167   2.686 -0.0169 -0.1159  0.1351
    1W        W47190  26.922  10.554   9.265 -0.0454 -0.1280 -0.0808
    1W        W47191  26.945  16.909   2.241  0.0933  0.1077  0.0029
    1W        W47192  25.085  14.455   1.808 -0.0134  0.0715 -0.2839
    1W        W47193  23.221  16.279   7.384 -0.1248 -0.0404 -0.1041
    1W        W47194  21.793  19.868   2.133 -0.0612 -0.0813  0.3113
    1W        W47195   8.557  27.373   7.694 -0.2944  0.3237  0.3015
    1W        W47196   9.151  11.940   8.084  0.2078 -0.2157 -0.3800
    1W        W47197  27.589  29.834   1.244  0.2142  0.2846  0.0332
    1W        W47198   5.779   6.316   0.915 -0.0208  0.2158  0.1526
    1W        W47199  27.753  28.192   8.730  0.2047 -0.0160 -0.1199
    1W        W47200  18.470   1.557   7.375  0.0752  0.2688 -0.2089
    1W        W47201  18.851  10.569   9.022  0.2199 -0.2976  0.1797
    1W        W47202  17.663  20.906   8.125 -0.0275 -0.1492  0.2126
    1W        W47203  24.299  21.314   2.928  0.0653  0.0644  0.2057
    1W        W47204  15.453  21.185   8.640  0.1907  0.0075 -0.2315
    1W        W47205  26.400   1.373   7.629 -0.0651 -0.0699  0.0857
    1W        W47206  23.702  25.180   8.975  0.0924 -0.3751 -0.1850
    1W        W47207  29.650  23.856   2.903  0.1994  0.1610  0.3295
    1W        W47208  19.758  19.552   8.732  0.0901  0.1781 -0.2631
    1W        W47209  28.183  26.433   0.951 -0.3091 -0.0913 -0.1564
    1W        W47210  20.399  20.480   8.711 -0.1916 -0.2685 -0.0495
    1W        W47211  17.533   7.170   1.225  0.4262  0.3526 -0.2302
    1W        W47212  19.148  24.028   1.180  0.0403 -0.0434 -0.1824
    1W        W47213   1.894  15.935   1.476 -0.0039 -0.1370 -0.5331
    1W        W47214  25.209   9.894   2.778 -0.3026 -0.2283 -0.0211
    1W        W47215  26.611   2.314   1.932  0.1404 -0.3024 -0.4124
    1W        W47216   2.205  18.612   7.239 -0.3738 -0.2498  0.0333
    1W        W47217   1.830  23.080   8.808 -0.0585  0.0498 -0.2313
    1W        W47218   8.332  10.084   8.674  0.1243  0.1684 -0.0961
    1W        W47219  24.921  24.832   7.386 -0.2996  0.0643  0.3919
    1W        W47220  23.939  10.951   7.087 -0.0535 -0.2153  0.2209
    1W        W47221   8.846  18.265   1.700  0.1016  0.1280  0.0430
    1W        W47222  17.437  19.405   2.169  0.0791 -0.0475 -0.0385
    1W        W47223  14.042  12.427   1.309  0.3149 -0.0649 -0.0394
    1W        W47224  29.695   0.955   7.041  0.1483  0.0073 -0.1456
    1W        W47225   3.711   8.462   7.785 -0.1932  0.0456  0.0725
    1W        W47226  25.549  21.403   2.448  0.2671  0.2985  0.4009
    1W        W47227  25.948  18.035   1.170 -0.0572  0.2718 -0.4259
    1W        W47228  10.542   5.995   7.005  0.0854 -0.0582 -0.0498
    1W        W47229  22.063  22.336   8.218  0.1705  0.2888 -0.2643
    1W        W47230  27.932  10.633   6.482  0.3099  0.2128  0.1137
    1W        W47231  16.747  27.401   9.119  0.0481 -0.0073  0.0934
    1W        W47232   3.821   6.815   0.659 -0.2430  0.0622  0.1855
    1W        W47233   2.536   6.786   7.128  0.0042  0.0048  0.0588
    1W        W47234  14.686   4.869   0.796  0.0404 -0.1033 -0.1307
    1W        W47235  25.136   5.406   2.506  0.1954 -0.0138  0.0336
    1W        W47236   2.387  22.529   9.322 -0.1166 -0.0861 -0.0414
    1W        W47237   7.939  15.720   6.585  0.0976 -0.0206  0.2056
    1W        W47238  26.845  17.745   1.953 -0.2388 -0.0340  0.1864
    1W        W47239  13.601   6.159   8.867  0.3490 -0.3104 -0.1293
    1W        W47240  11.679  28.020   0.799  0.0774 -0.1366  0.1210
    1W        W47241  23.006   2.957   2.545 -0.0381 -0.1162 -0.1657
    1W        W47242   5.640  10.344   7.506 -0.1842  0.1281  0.1123
    1W        W47243   8.665  28.464   2.284 -0.0729  0.0444 -0.0119
    1W        W47244  21.546  18.250   2.477 -0.0995  0.0057  0.1157
    1W        W47245  26.040   3.851   9.317  0.3400  0.1068 -0.1923
    1W        W47246  27.180  26.245   1.495 -0.0151  0.1951  0.1983
    1W        W47247   5.471  22.131   7.569 -0.3769  0.3805 -0.1657
    1W        W47248  19.451   9.377   7.616  0.1392  0.2086 -0.0280
    1W        W47249  29.318  22.760   6.950  0.2555 -0.1427 -0.0284
    1W        W47250  26.154   8.000   0.225 -0.1645  0.1394 -0.0568
    1W        W47251  14.309  26.732   0.361  0.2024 -0.0407 -0.0546
    1W        W47252   2.639  13.892   7.288  0.0602  0.1178  0.0713
    1W        W47253  28.783   6.594   2.428  0.0385 -0.0630  0.0170
    1W        W47254   5.296   2.451   8.212 -0.0288 -0.0145 -0.1339
    1W        W47255  21.847  29.622   8.176  0.0004  0.4570  0.2027
    1W        W47256  25.631  21.313   3.280  0.1532  0.3573 -0.1429
    1W        W47257  15.176  27.818   7.401  0.2737  0.0389  0.0722
    1W        W47258   7.688  28.894   7.144 -0.2293  0.0293 -0.0108
    1W        W47259  20.173   5.991   3.057 -0.0666  0.3971  0.1045
    1W        W47260  23.734   9.146   1.730  0.0501 -0.1451 -0.2205
    1W        W47261  24.106   7.474   3.092 -0.0843 -0.0876 -0.0208
    1W        W47262  17.559  23.634   0.800  0.0888  0.3537 -0.0715
    1W        W47263  22.106   8.786   8.759  0.1772 -0.0403 -0.1281
    1W        W47264  26.385  19.486   2.593 -0.0371 -0.1643 -0.0555
    1W        W47265   0.891  23.122   6.480  0.0579 -0.1136 -0.0123
    1W        W47266   1.548   6.911   7.562  0.1856 -0.1493 -0.1332
    1W        W47267   0.052  20.923   0.097 -0.3224  0.0158  0.3991
    1W        W47268  29.038   5.126   7.202  0.0993  0.0925  0.0462
    1W        W47269  10.889   1.208   0.858 -0.1386 -0.0023 -0.0230
    1W        W47270  28.290  29.523   9.192 -0.0901  0.0341  0.0529
    1W        W47271   7.571  29.123   0.374  0.0087 -0.0667 -0.1629
    1W        W47272  11.276   1.410   3.188 -0.1077  0.1065  0.1535
    1W        W47273  21.978   5.162   1.548 -0.1463  0.1799 -0.0432
    1W        W47274  11.378  23.883   7.537 -0.0575 -0.3599  0.3526
    1W        W47275  14.034   7.303   7.785 -0.2691  0.4187 -0.3259
    1W        W47276   6.015   8.191   3.209  0.1857  0.1758 -0.2438
    1W        W47277  20.259  25.540   9.424 -0.1711  0.1159  0.1414
    1W        W47278   7.035  20.368   0.298 -0.1399 -0.0066 -0.1050
    1W        W47279  25.274  14.401   2.320  0.1188  0.2061 -0.0329
    1W        W47280  25.184   1.583   2.320 -0.1195  0.2152  0.0202
    1W        W47281   1.205   7.356   1.991  0.3496 -0.1325 -0.1031
    1W        W47282  28.182   8.038   8.107  0.4313  0.1444 -0.4188
    1W        W47283  26.603   3.895   2.230  0.1696 -0.1409 -0.3649
    1W        W47284  23.377  29.025   2.467 -0.4836 -0.3214  0.2447
    1W        W47285  25.851   4.355   1.817 -0.2002 -0.0255 -0.2392
    1W        W47286  28.528  25.690   8.834  0.2116  0.1403 -0.2299
    1W        W47287   6.889   3.210   1.053  0.2692  0.2222  0.2995
    1W        W47288  22.119   5.810   0.652 -0.1375  0.0672 -0.0954
    1W        W47289  27.636  27.960   0.787 -0.0102  0.1102 -0.1218
    1W        W47290  25.908   1.522   7.622 -0.1625  0.2349  0.4063
    1W        W47291  29.365   4.223   7.504 -0.0209 -0.0159 -0.2084
    1W        W47292  18.665  27.695   1.430  0.1565 -0.0152 -0.4008
    1W        W47293  23.017  21.038   8.073 -0.1443  0.0526  0.3183
    1W        W47294   3.109  13.811   1.957 -0.4579 -0.1905 -0.2800
    1W        W47295  20.387  29.876   8.678 -0.1216 -0.2186 -0.0858
    1W        W47296   0.363   9.302   8.267  0.0376 -0.0772 -0.0038
    1W        W47297  17.267   3.235   1.794 -0.2177  0.1987 -0.0734
    1W        W47298  26.458  11.359   8.154  0.1320 -0.2307  0.2073
    1W        W47299  12.832   2.268   1.907 -0.3206 -0.1204  0.0335
    1W        W47300  18.399  24.463   1.101 -0.3276  0.2076  0.2705
    1W        W47301  12.070   9.703   8.391  0.1494 -0.0670  0.1967
    1W        W47302   1.756  19.089   7.155  0.0200 -0.1728 -0.0920
    1W        W47303  21.722  10.817   0.624 -0.0450  0.2109  0.0393
    1W        W47304  19.708  20.129   2.269 -0.0491 -0.2428 -0.0048
    1W        W47305   2.680  10.275   8.278 -0.2367 -0.1044  0.2623
    1W        W47306   6.651  16.944   2.231  0.1754  0.3203  0.3888
    1W        W47307   7.354   8.327   2.948  0.0168  0.2327  0.0663
    1W        W47308  18.996  23.012   7.999 -0.0434  0.2236 -0.0233
    1W        W47309  11.605   2.213   2.758 -0.1647 -0.3858 -0.0001
    1W        W47310  21.120  20.982   3.055 -0.2069 -0.3216 -0.0294
    1W        W47311  26.198  21.259   7.277 -0.0069 -0.0367  0.2856
    1W        W47312   3.319  26.589   8.665 -0.0156 -0.3609 -0.0111
    1W        W47313  28.773  15.792   5.853  0.1598  0.1410 -0.2977
    1W        W47314  23.871  19.305   1.431 -0.0557  0.0732 -0.0876
    1W        W47315  16.132  18.707   1.058 -0.1038  0.2405  0.2008
    1W        W47316  25.472  24.289   9.357 -0.2092 -0.0242  0.1798
    1W        W47317  13.050  14.583   2.399  0.1360 -0.1284 -0.2490
    1W        W47318  13.167  17.812   1.294  0.0871  0.0870 -0.1131
    1W        W47319  23.255   3.976   1.280  0.2334 -0.4617  0.0317
    1W        W47320  19.492  28.370   0.179 -0.0565 -0.3329  0.3151
    1W        W47321  26.495  27.217   7.924  0.1267 -0.1443 -0.1879
    1W        W47322  21.083   9.105   1.363 -0.1681 -0.1271 -0.1328
    1W        W47323  25.930   8.285   2.389 -0.2078 -0.4897  0.1610
    1W        W47324  15.283  24.220   6.985 -0.1786 -0.2075 -0.0869
    1W        W47325  25.446  18.293   1.309  0.0763 -0.1953 -0.2763
    1W        W47326  22.496  18.366   1.791 -0.0904 -0.2322  0.2522
    1W        W47327   4.052  24.508   9.294  0.1990 -0.1006 -0.0211
    1W        W47328  22.281   5.863   9.032 -0.1280  0.1822 -0.1120
    1W        W47329   9.808   9.198   7.753  0.0828  0.2151  0.1155
    1W        W47330  21.403  15.285   0.998  0.2011  0.1145 -0.2919
    1W        W47331   6.038  24.203   6.443  0.2982 -0.1587 -0.0558
    1W        W47332  23.388  10.031   0.719  0.0653 -0.0072  0.1280
    1W        W47333  11.042  20.356   0.470  0.0139  0.0609  0.0044
    1W        W47334  26.113   6.783   1.223 -0.1105 -0.3175  0.0615
    1W        W47335   8.027  17.972   8.650 -0.0259 -0.2261  0.2483
    1W        W47336   4.545  15.951   6.666 -0.2102 -0.0788  0.0735
    1W        W47337  20.592  26.400   1.112 -0.2376 -0.0954 -0.0813
    1W        W47338   6.436  11.230   8.075 -0.0840 -0.0722  0.1520
    1W        W47339   8.388   9.762   7.173 -0.1259  0.0031 -0.0914
    1W        W47340  16.930   9.579   2.045  0.3212 -0.0774 -0.0426
    1W        W47341  23.247   4.597   1.905  0.1475  0.2544  0.0149
    1W        W47342  17.312  26.079   3.088  0.1064 -0.3951 -0.0753
    1W        W47343  26.621  25.061   1.764 -0.2584  0.6056 -0.1522
    1W        W47344  15.685  28.324   0.109  0.3193  0.2854 -0.1369
    1W        W47345  18.272  19.559   8.564 -0.1176  0.0424  0.0693
    1W        W47346  29.432  11.418   2.452 -0.2411  0.3902 -0.1836
    1W        W47347   7.707   5.304   0.939  0.3064 -0.3213 -0.3818
    1W        W47348  28.820  11.396   6.574 -0.1326 -0.1695 -0.0185
    1W        W47349  17.246  18.167   7.151 -0.0253 -0.2720 -0.0057
    1W        W47350  15.315   0.516   8.224 -0.1345  0.1062  0.1365
    1W        W47351  21.581  28.209   7.605  0.2786  0.1822  0.0544
    1W        W47352  12.304   9.516   0.836 -0.1383 -0.2618 -0.2619
    1W        W47353  25.937   5.096   7.154 -0.3362 -0.0237 -0.3528
    1W        W47354  17.464  16.550   9.439  0.1512  0.0390 -0.0869
    1W        W47355   8.348  16.238   1.870  0.2277 -0.2528 -0.1156
    1W        W47356  12.025  19.580   8.546  0.0982  0.1040  0.1886
    1W        W47357   2.272  26.706   1.532 -0.0427 -0.0627  0.2060
    1W        W47358  15.022  25.340   0.122 -0.2780  0.1005  0.0671
    1W        W47359   7.440  17.811   0.591 -0.3905 -0.2405 -0.0476
    1W        W47360  21.503  28.693   8.723 -0.2506 -0.1255  0.4238
    1W        W47361  20.735  10.413   8.381  0.0427 -0.0993 -0.0055
    1W        W47362  19.754  14.887   0.753  0.2760 -0.0609  0.0011
    1W        W47363   4.238   0.862   0.869  0.2555 -0.1200  0.0887
    1W        W47364  22.227   3.723   7.991 -0.2526 -0.3915  0.4527
    1W        W47365  18.314  19.455   0.665 -0.1605  0.2010  0.1912
    1W        W47366   2.923   0.263   6.831  0.1247 -0.0486 -0.0172
    1W        W47367  29.279  26.880   0.897  0.3106 -0.0342 -0.1215
    1W        W47368   6.813  27.108   6.505  0.1084  0.0999  0.0778
    1W        W47369  29.500  14.987   6.233  0.3432  0.1128  0.1034
    1W        W47370  25.153   0.036   1.643  0.3324 -0.0384 -0.1048
    1W        W47371  14.249   0.802   1.167 -0.2779  0.0550 -0.2153
    1W        W47372   6.501  19.947   7.067 -0.5349  0.0754 -0.1523
    1W        W47373  29.724  18.913   7.513 -0.0310  0.2172 -0.2743
    1W        W47374  25.589  11.134   1.248  0.1280 -0.1742 -0.1067
    1W        W47375   2.373   4.974   2.284 -0.2889  0.1247  0.0975
    1W        W47376  21.400  24.804   7.828 -0.1950 -0.0644 -0.2673
    1W        W47377  19.867  18.411   7.477 -0.0553 -0.1728 -0.1796
    1W        W47378  17.406   5.829   7.029  0.0276  0.0766 -0.2885
    1W        W47379  28.800   4.893   1.728 -0.0648 -0.1977  0.0179
    1W        W47380  24.290  16.339   6.606  0.4917  0.2187 -0.1049
    1W        W47381  28.561  11.436   8.372 -0.0594 -0.1747 -0.0380
    1W        W47382  15.506  25.063   7.370  0.2151 -0.1652 -0.0888
    1W        W47383   4.588  14.005   7.685  0.0977  0.0033 -0.0023
    1W        W47384  28.683  26.610   7.972  0.1037  0.3042 -0.1591
    1W        W47385  21.622  27.638   1.478  0.0542 -0.0511 -0.0066
    1W        W47386   6.655   9.195   2.718 -0.0777  0.0156  0.0783
    1W        W47387   4.846   3.144   2.579  0.2910  0.1415 -0.1197
    1W        W47388   2.874  28.240   6.949 -0.0334 -0.1493  0.2544
    1W        W47389   2.091  10.188   1.615 -0.2682 -0.1136  0.2276
    1W        W47390   2.498  26.278   8.627 -0.0640  0.0290 -0.1171
    1W        W47391   4.597   3.798   0.322  0.1009 -0.0631 -0.2518
    1W        W47392  19.378  12.827   9.257  0.3900 -0.2089 -0.1276
    1W        W47393   2.717  13.340   3.087 -0.0028  0.0812  0.0790
    1W        W47394  15.811   0.502   8.926  0.0596 -0.1469  0.0520
    1W        W47395   2.866   7.057   1.172  0.2311 -0.0357  0.1931
    1W        W47396  14.327  25.224   8.160  0.0518  0.1032 -0.3869
    1W        W47397  21.102  14.823   8.639  0.1524  0.1120 -0.1619
    1W        W47398  24.245  29.298   8.633 -0.1325 -0.0146 -0.0986
    1W        W47399  15.096  12.885   7.005 -0.1871 -0.0856 -0.0908
    1W        W47400  14.395   0.067   0.452 -0.1751 -0.0467 -0.0367
    1W        W47401  24.252  20.178   0.954  0.2949  0.0735  0.1423
    1W        W47402  29.487  18.373   9.432  0.2131  0.0119  0.1544
    1W        W47403   6.445  10.828   2.458 -0.2383  0.2834 -0.0320
    1W        W47404  14.303   3.799   9.178 -0.0285 -0.1167  0.2859
    1W        W47405  23.663   1.340   1.938 -0.0867 -0.1494  0.0847
    1W        W47406   1.844   7.597   3.196  0.0105  0.3721 -0.2158
    1W        W47407  28.530  13.824   8.593  0.0252  0.0178 -0.2788
    1W        W47408   4.595  18.441   7.960  0.0687 -0.0893  0.0859
    1W        W47409  12.280   8.617   3.205 -0.2280  0.4638 -0.0393
    1W        W47410   6.333   7.987   6.727  0.0511  0.2577 -0.0805
    1W        W47411  13.840  19.161   2.665  0.0407  0.0801  0.0097
    1W        W47412  26.046  14.435   7.338 -0.1640  0.1109  0.1195
    1W        W47413  10.089  20.095   2.511 -0.2427 -0.1834  0.2796
    1W        W47414   0.566  20.003   6.023  0.1810  0.1396  0.2320
    1W        W47415   1.015   2.211   2.871 -0.0405 -0.0993  0.0385
    1W        W47416  17.183  29.900   1.234 -0.2788  0.0715  0.0082
    1W        W47417  11.366   5.947   1.023 -0.2931 -0.1890  0.0166
    1W        W47418   7.893  18.905   0.050  0.1937 -0.2763 -0.0122
    1W        W47419  13.006  18.202   0.200 -0.0573  0.0030 -0.3838
    1W        W47420   2.327  27.242   0.331 -0.1747 -0.1047  0.0511
    1W        W47421  13.854  21.792   8.944 -0.1002  0.0969 -0.0394
    1W        W47422  29.249   8.891   8.068  0.0248  0.0902 -0.2407
    1W        W47423   8.054   8.410   2.776  0.0945 -0.1629 -0.0194
    1W        W47424  17.696  14.542   6.635  0.3136 -0.1259  0.2999
    1W        W47425   0.495  20.910   0.424 -0.2283 -0.1518 -0.4165
    1W        W47426  22.693  25.376   6.864  0.2788 -0.2187 -0.0588
    1W        W47427  18.546  23.856   9.171  0.0566  0.2948 -0.1697
    1W        W47428   3.197  16.238   6.309  0.2929 -0.1074  0.3837
    1W        W47429  25.827   3.631   2.652  0.0358 -0.2439  0.0820
    1W        W47430  24.392   5.598   9.122 -0.0245 -0.1789  0.2506
    1W        W47431   6.171  22.118   8.012  0.1008 -0.0531 -0.0049
    1W        W47432   0.728   8.099   0.599  0.1331 -0.0002 -0.3816
    1W        W47433  20.594  12.205   2.225 -0.3261 -0.0417  0.1790
    1W        W47434   1.684   9.268   0.095 -0.0690  0.1451 -0.0594
    1W        W47435  20.911   9.054   0.730  0.0634  0.2767  0.0635
    1W        W47436  22.268  13.469   6.548  0.0830  0.1829  0.1521
    1W        W47437   8.492  18.035   8.585  0.2268 -0.3643 -0.0358
    1W        W47438  28.784   1.688   9.098  0.0357 -0.1362  0.1876
    1W        W47439  20.854  26.668   7.679 -0.0631  0.2490  0.2570
    1W        W47440  20.118   7.691   7.585 -0.3175  0.1763  0.0738
    1W        W47441  28.741   1.060   7.077 -0.0843 -0.3034 -0.0612
    1W        W47442   4.363  16.456   5.418 -0.0629 -0.0367 -0.1255
    1W        W47443  16.331   6.473   0.615  0.2701 -0.1064  0.0960
    1W        W47444  12.987   3.752   8.549 -0.3494 -0.2748  0.0660
    1W        W47445   4.730  17.371   7.981  0.0374  0.0227 -0.5056
    1W        W47446  16.186   2.502   9.201 -0.0617 -0.1503  0.1710
    1W        W47447  12.840  13.242   8.700 -0.1978  0.0450  0.1738
    1W        W47448   9.996   2.436   8.317  0.1579  0.1748  0.1301
    1W        W47449  21.784  21.684   1.203  0.0458  0.0685 -0.2155
    1W        W47450   2.796  21.787   1.343 -0.4216 -0.1593 -0.1752
    1W        W47451  27.897  29.901   9.324  0.0505 -0.1676 -0.3126
    1W        W47452  25.252  25.030   9.432  0.3474  0.0546 -0.2325
    1W        W47453  19.460   8.976   1.631  0.0948  0.0243 -0.1233
    1W        W47454  15.018   4.459   8.732 -0.2814  0.2284  0.2001
    1W        W47455   7.442   9.560   6.286  0.2031 -0.2034 -0.0921
    1W        W47456  11.501  26.312   2.793  0.0913 -0.1883 -0.0966
    1W        W47457   0.515  14.489   1.597 -0.0966  0.1182 -0.0681
    1W        W47458   8.030  15.399   0.163 -0.2110  0.0387  0.1891
    1W        W47459  16.570  12.892   7.129  0.0688  0.0154 -0.1014
    1W        W47460  28.441   5.012   8.894  0.1288  0.0646 -0.3037
    1W        W47461   8.733   8.142   9.194 -0.3035  0.0265  0.1099
    1W        W47462  19.498  19.003   8.757  0.2204 -0.0983 -0.1627
    1W        W47463   2.266  23.235   0.614 -0.3659 -0.1188 -0.1505
    1W        W47464  20.958  27.314   8.618  0.0366  0.2334  0.0864
    1W        W47465  28.512   2.136   8.077 -0.0593 -0.0519 -0.3446
    1W        W47466  27.939   4.834   8.853  0.1341  0.2207  0.1105
    1W        W47467   0.229  29.148   7.926 -0.1000  0.0421 -0.3683
    1W        W47468   2.284  16.850   1.518  0.3017  0.0665 -0.5154
    1W        W47469  21.380  20.874   9.179 -0.1783 -0.0521 -0.0118
    1W        W47470  26.663   1.979   8.429  0.2934  0.0346 -0.0393
    1W        W47471   6.718  20.835   0.900  0.2197  0.1364 -0.1186
    1W        W47472  26.511   5.607   2.712  0.3020  0.1539  0.0959
    1W        W47473   3.141   6.664   2.034  0.1528  0.3311  0.2475
    1W        W47474   1.984   9.668   0.298  0.1410  0.1419 -0.0224
    1W        W47475  28.227  27.669   8.638 -0.1430  0.0037  0.5225
    1W        W47476  22.597   3.322   1.881  0.0670 -0.2186  0.0181
    1W        W47477  27.129   9.829   2.448  0.1279  0.0209  0.1485
    1W        W47478  18.765  11.553   7.333  0.2453  0.1794 -0.3318
    1W        W47479   7.269  10.157   8.322  0.2403  0.4845  0.0759
    1W        W47480   4.258   9.831   3.792  0.0359  0.2609 -0.1455
    1W        W47481   6.250  14.777   5.740 -0.1799  0.0619  0.1485
    1W        W47482  17.446  27.044   2.684  0.3310 -0.0436  0.4266
    1W        W47483   0.566  20.942   9.346 -0.0040 -0.0353 -0.1204
    1W        W47484  24.851  28.864   8.236  0.0299  0.0033  0.1909
    1W        W47485  11.626  12.099   8.297 -0.0337 -0.1546 -0.1612
    1W        W47486  26.456  29.814   8.763 -0.2308 -0.0862 -0.2398
    1W        W47487   4.340  20.867   8.337  0.2567 -0.0874 -0.0513
    1W        W47488   2.121  15.737   2.487  0.2039  0.1513 -0.0043
    1W        W47489  13.168  17.500   0.879 -0.0817 -0.0345 -0.3219
    1W        W47490  15.402  13.657   2.524 -0.3570 -0.1069 -0.1414
    1W        W47491  17.938   3.817   9.143  0.1113  0.0124  0.0168
    1W        W47492  23.850  13.601   2.848 -0.2204 -0.0377 -0.3059
    1W        W47493   5.477  18.637   9.046 -0.0530  0.2747 -0.0129
    1W        W47494   5.885   9.414   0.996 -0.3217  0.1307  0.1702
    1W        W47495  28.402  29.830   7.444  0.1016 -0.1166 -0.2567
    1W        W47496   9.669  15.846   1.690  0.0926 -0.1117 -0.0876
    1W        W47497   2.140  18.456   6.732  0.2468  0.2798  0.0733
    1W        W47498  13.189  23.467   8.858  0.0619  0.1362 -0.0039
    1W        W47499   3.350   3.397   8.433 -0.2854  0.1390 -0.1029
    1W        W47500  15.532  19.232   8.535  0.3099 -0.1370 -0.0207
    1W        W47501   2.266   5.846   0.813 -0.0792  0.0650 -0.0585
    1W        W47502   9.774  25.051   7.867 -0.4443 -0.0706  0.0233
    1W        W47503  13.275   9.550   7.553 -0.0107  0.2493 -0.0193
    1W        W47504  11.851  19.073   0.574 -0.0254 -0.2057 -0.0485
    1W        W47505   5.893  25.613   1.757 -0.0439 -0.1029  0.0104
    1W        W47506  12.578  24.934   8.926  0.0045 -0.3491  0.0082
    1W        W47507  11.405   5.099   0.767  0.0791  0.0269  0.1694
    1W        W47508  28.069  26.326   0.086  0.0091 -0.1705  0.0828
    1W        W47509  27.801   9.326   7.172 -0.1137  0.3880  0.0432
    1W        W47510   6.165   3.315   2.330 -0.0450 -0.1248  0.2582
    1W        W47511   8.067   2.177   1.590 -0.0876  0.3240  0.0590
    1W        W47512   5.459  29.502   9.247 -0.0955  0.0241 -0.1398
    1W        W47513  11.990  29.132   7.916  0.3569  0.0274 -0.1054
    1W        W47514  12.679  23.605   1.704 -0.0768 -0.0317  0.0678
    1W        W47515  13.312  13.809   2.348 -0.4110  0.1246 -0.0288
    1W        W47516   1.108  26.113   8.284 -0.1456  0.0494  0.1741
    1W        W47517   1.431  25.875   0.356  0.1299  0.1927 -0.0361
    1W        W47518  19.610  17.941   2.049 -0.1162  0.2625 -0.1620
    1W        W47519   7.305  18.565   8.114  0.2146  0.0643 -0.1692
    1W        W47520   6.770  14.955   5.628 -0.1686  0.0719  0.2215
    1W        W47521  25.616  14.644   8.132 -0.3070 -0.2092  0.1748
    1W        W47522   6.389   4.409   0.146  0.1639  0.2688 -0.1150
    1W        W47523  10.311  29.238   8.345  0.1736 -0.0612  0.0628
    1W        W47524   9.465  22.149   9.091 -0.1884 -0.3162 -0.2455
    1W        W47525  26.829  24.628   2.535  0.1340 -0.0023 -0.1191
    1W        W47526  17.986  22.520   2.669 -0.0999 -0.0521 -0.0205
    1W        W47527  28.819  19.076   1.561  0.1489 -0.2583 -0.1340
    1W        W47528  15.443   9.394   7.567 -0.0783 -0.0920 -0.2508
    1W        W47529  14.516  27.389   2.879 -0.1377  0.2090 -0.0856
    1W        W47530   2.792  11.948   0.983  0.2117  0.0047 -0.1854
    1W        W47531   4.704   3.418   3.016  0.0668  0.1211  0.0555
    1W        W47532   5.360   3.225   3.873  0.1610  0.3243  0.0684
    1W        W47533  13.778  29.424   7.522  0.2770  0.0385  0.3027
    1W        W47534  14.627  21.443   8.642  0.1422  0.1241 -0.0772
    1W        W47535   8.051  11.396   7.174  0.2058 -0.0183  0.1395
    1W        W47536  11.442  10.469   0.293  0.3723 -0.0127 -0.2993
    1W        W47537  28.142  24.374   1.508  0.2572  0.1964 -0.1707
    1W        W47538  15.015  25.800   8.209 -0.2100  0.0424  0.3387
    1W        W47539   4.429  26.928   6.642 -0.3480  0.1260 -0.0464
    1W        W47540   8.909  12.738   8.097 -0.0324  0.0916  0.0879
    1W        W47541  15.616   3.886   7.109  0.3011 -0.1340  0.2441
    1W        W47542   5.680  15.324   6.845 -0.0412  0.0407  0.0289
    1W        W47543   7.054  25.118   7.364 -0.1368  0.1032  0.0395
    1W        W47544  18.304   9.946   8.637  0.1130  0.1008 -0.3409
    1W        W47545  20.421  28.899   0.105  0.0030  0.2445  0.0258
    1W        W47546  10.709  23.961   6.697  0.1924  0.1548 -0.0028
    1W        W47547  23.772   5.657   8.214  0.2413 -0.1370 -0.0458
    1W        W47548  14.548  16.746   8.217  0.1123  0.0884 -0.1766
    1W        W47549   7.248   2.968   0.782 -0.4442  0.1209  0.0563
    1W        W47550   6.607  22.489   0.503 -0.1192 -0.0137 -0.1017
    1W        W47551  25.189  21.464   0.111  0.2967  0.1891  0.1115
    1W        W47552  21.273   9.105   2.011  0.1473 -0.1480 -0.3631
    1W        W47553  10.979   9.563   7.668 -0.0488  0.0898  0.0391
    1W        W47554  27.312   2.712   2.686  0.0287 -0.2058 -0.0393
    1W        W47555   9.239   1.496   7.786 -0.0579  0.0689  0.3484
    1W        W47556   6.626  12.602   1.816 -0.1417 -0.1484 -0.0706
    1W        W47557   8.361   4.029   7.538 -0.1614  0.1195 -0.0962
    1W        W47558  26.117   9.922   0.116  0.0396 -0.1340  0.1179
    1W        W47559  20.978  23.215   0.681  0.0014  0.3904 -0.2120
    1W        W47560   9.209  21.180   7.132  0.2310 -0.1244  0.0001
    1W        W47561   4.301  21.898   6.507 -0.2869  0.0662  0.0448
    1W        W47562   4.049   0.871   9.218  0.0002 -0.3168 -0.0836
    1W        W47563  13.184   6.561   2.059 -0.1006  0.0631  0.0652
    1W        W47564  27.045  21.014   7.545  0.0082 -0.2102 -0.3177
    1W        W47565   3.068   2.438   0.438 -0.3069  0.1300 -0.3341
    1W        W47566   1.641   0.585   9.120 -0.0618 -0.0136  0.0753
    1W        W47567  29.012  14.923   7.579 -0.1080  0.0389 -0.2736
    1W        W47568   8.781   6.700   0.826 -0.0948  0.0917 -0.0210
    1W        W47569   0.279  23.717   5.482  0.1205 -0.0355  0.0840
    1W        W47570  28.328  22.624   6.901  0.2482 -0.0198  0.0784
    1W        W47571  29.836  24.806   5.848 -0.0645  0.2786  0.1338
    1W        W47572  18.000  27.821   7.627 -0.0525  0.1526 -0.0020
    1W        W47573  11.944  20.800   6.524  0.0010 -0.2051 -0.1623
    1W        W47574   2.199  17.145   6.943  0.0532 -0.2705  0.0435
    1W        W47575   9.607  25.632   2.105 -0.2039  0.3197  0.0256
    1W        W47576   0.806  17.835   6.453  0.1417  0.2226 -0.3752
    1W        W47577  27.826  21.105   8.153 -0.2077 -0.3002 -0.1302
    1W        W47578   8.284   5.476   3.076 -0.1115 -0.0016 -0.0620
    1W        W47579   2.201   1.194   8.009 -0.1324 -0.1655  0.5207
    1W        W47580  18.232   2.916   7.449 -0.1429  0.1478 -0.0032
    1W        W47581  12.382   3.845   1.371  0.0683 -0.1245 -0.0240
    1W        W47582   6.481   6.215   2.265 -0.0043  0.2405 -0.2081
    1W        W47583  24.828  18.856   1.689  0.0337 -0.0107 -0.0435
    1W        W47584  25.852   8.683   7.307 -0.0244 -0.0680 -0.1060
    1W        W47585  16.245  12.234   0.386 -0.0284 -0.1796  0.0911
    1W        W47586  25.299  11.260   1.683  0.0689  0.0526 -0.0613
    1W        W47587   4.326   7.816   0.878 -0.4261 -0.0669 -0.0064
    1W        W47588   1.007  13.461   6.496  0.2062  0.1117  0.0794
    1W        W47589   1.805  12.097   8.295  0.3170  0.0895 -0.4785
    1W        W47590   7.419  10.837   8.704 -0.0016  0.0558  0.1838
    1W        W47591   9.335   5.109   1.797 -0.2136 -0.2706  0.0371
    1W        W47592   6.395  25.818   6.188 -0.2750 -0.1583 -0.1141
    1W        W47593   6.539  10.523   7.736 -0.1387 -0.0542  0.0824
    1W        W47594  18.743   9.335   0.138  0.0149 -0.2676  0.3986
    1W        W47595  15.125  19.957   0.380 -0.1497 -0.2605  0.1030
    1W        W47596  28.781  11.863   7.345 -0.1443  0.0677 -0.0383
    1W        W47597   1.544  21.414   2.105  0.0603 -0.2073 -0.1818
    1W        W47598  14.493  11.225   8.172  0.2571  0.0748 -0.0677
    1W        W47599   9.626  19.736   8.544  0.0733 -0.0004 -0.0047
    1W        W47600  24.988   7.611   6.792  0.1051  0.0888  0.0211
    1W        W47601   2.558  16.920   8.950 -0.0950 -0.0071 -0.0122
    1W        W47602   9.666   4.103   8.303 -0.2389  0.3758  0.1002
    1W        W47603  19.386  15.567   0.066 -0.1563  0.0148 -0.3658
    1W        W47604  10.569  20.279   1.303 -0.0635  0.1396 -0.3338
    1W        W47605   7.590  14.540   7.813  0.0576 -0.0269 -0.1825
    1W        W47606   5.842  14.975   0.648  0.0260 -0.1251 -0.1386
    1W        W47607  22.230  28.033   0.028  0.0243  0.1681 -0.1603
    1W        W47608  19.727  13.732   1.084  0.0443  0.0461  0.2124
    1W        W47609  25.488  27.817   1.554  0.3697  0.2614 -0.1889
    1W        W47610   0.014  21.359   2.314  0.1699 -0.0279  0.1277
    1W        W47611  17.940  17.048   7.180 -0.0598  0.0133  0.0633
    1W        W47612  23.432  15.468   7.954  0.1519 -0.1203  0.2234
    1W        W47613  15.601   1.007   7.651  0.0845 -0.1998 -0.4635
    1W        W47614   8.694  28.490   1.715  0.5424  0.0750  0.0482
    1W        W47615   5.041  28.715   1.802  0.2536  0.0621 -0.1107
    1W        W47616  29.584  23.843   7.958  0.1269 -0.0429  0.0547
    1W        W47617   3.881   2.462   9.455  0.0030 -0.1469 -0.0833
    1W        W47618   5.845  29.330   8.051 -0.0073  0.2171  0.1454
    1W        W47619  13.762   4.431   1.088  0.0726 -0.2437 -0.4597
    1W        W47620  12.956  21.352   7.194  0.1667  0.0879  0.0508
    1W        W47621   6.074  12.774   1.810  0.0146  0.1835  0.0650
    1W        W47622  22.077   0.556   0.352  0.0247  0.0194  0.1377
    1W        W47623  27.845   1.944   8.329 -0.3378  0.1872  0.2586
    1W        W47624  27.989   4.000   7.837  0.0785  0.0949  0.1790
    1W        W47625   1.921  22.120   1.175 -0.1469 -0.0226 -0.0105
    1W        W47626   1.382  23.368   0.881  0.0227  0.0716 -0.0493
    1W        W47627   1.307  25.677   8.146  0.0014 -0.0987  0.1490
    1W        W47628  29.477  25.853   1.170  0.2002  0.0379 -0.0410
    1W        W47629  12.093  18.390   2.036 -0.2970  0.1957  0.0982
    1W        W47630  15.302  17.129   8.613 -0.1916 -0.1197  0.0298
    1W        W47631   8.922  18.471   7.300 -0.1333  0.0220  0.1891
    1W        W47632   2.838   3.257   3.362 -0.1363  0.0825  0.1078
    1W        W47633  27.528  10.259   8.826  0.3026 -0.0357 -0.1017
    1W        W47634   5.708  10.438   1.319  0.2071 -0.4753  0.3767
    1W        W47635   0.079  28.450   6.558 -0.1466 -0.3538 -0.0095
    1W        W47636  13.766   4.058   7.378 -0.1402 -0.3259  0.2183
    1W        W47637  26.796   1.444   1.995 -0.2263  0.0874 -0.0444
    1W        W47638  25.210   3.175   0.920 -0.0899  0.2176 -0.0374
    1W        W47639   6.061   5.965   2.109  0.2406  0.3357 -0.2161
    1W        W47640  15.492  14.611   2.060 -0.3300  0.1746  0.1274
    1W        W47641  15.357  24.011   6.491  0.2575 -0.2855  0.0977
    1W        W47642  21.979  21.576   7.061  0.1082 -0.1227  0.3139
    1W        W47643  14.498   0.627   1.741 -0.3932  0.1333  0.0898
    1W        W47644   6.053  23.768   0.906  0.0278 -0.0961  0.1856
    1W        W47645   2.949   1.803   8.610 -0.3628  0.1893 -0.3744
    1W        W47646  14.900  23.881   0.282  0.2260  0.1311  0.0915
    1W        W47647  13.545   9.056   2.248 -0.1783 -0.1802  0.2764
    1W        W47648  19.383   6.666   8.099 -0.3523 -0.3262  0.0753
    1W        W47649   8.002  10.893   7.189  0.2398 -0.0280 -0.3048
    1W        W47650  17.641  12.874   7.436 -0.0763  0.2187  0.2379
    1W        W47651  26.637  15.667   9.413 -0.1012  0.3652  0.2363
    1W        W47652  29.769  16.719   8.537  0.1828  0.3805 -0.0772
    1W        W47653  15.626   4.819   9.153 -0.0602  0.0625  0.0439
    1W        W47654  10.958  22.136   2.576 -0.0656 -0.1144  0.1174
    1W        W47655   9.876   9.637   0.196 -0.3499  0.0844  0.1820
    1W        W47656  20.426  26.952   1.583 -0.1219  0.0738 -0.2099
    1W        W47657   4.834  10.100   2.786  0.0606 -0.0071  0.0882
    1W        W47658   6.082  14.162   6.524  0.1095  0.3860  0.1332
    1W        W47659  26.129   5.272   8.024 -0.1654 -0.1727  0.0115
    1W        W47660  27.112  14.871   6.845  0.1108 -0.1027  0.0492
    1W        W47661  27.697  24.514   0.951 -0.0701 -0.2427  0.2198
    1W        W47662   2.279  15.705   1.929  0.2107  0.1423 -0.0120
    1W        W47663  24.498  19.008   7.157 -0.1028  0.1651  0.1776
    1W        W47664  22.991  15.591   0.096 -0.1290  0.0717  0.1984
    1W        W47665   6.388  14.344   0.438 -0.0378 -0.0155  0.1394
    1W        W47666   1.762  21.002   1.762  0.1316 -0.0809 -0.1580
    1W        W47667  25.175  23.961   3.285 -0.0875 -0.1364  0.0928
    1W        W47668  25.855   9.522   8.316 -0.0494 -0.2504 -0.1116
    1W        W47669  10.200  26.904   6.909  0.2495 -0.1504  0.1709
    1W        W47670  15.297   0.717   1.309 -0.1789 -0.0076 -0.1770
    1W        W47671  16.978  29.526   2.425 -0.0111 -0.0402 -0.2517
    1W        W47672   3.615  13.162   1.626 -0.2366 -0.5201  0.0849
    1W        W47673  25.853  11.423   0.553  0.0355  0.1322  0.0145
    1W        W47674  19.244  22.472   7.977  0.0067  0.0426 -0.1808
    1W        W47675   0.061  24.822   7.738 -0.1366  0.1311 -0.4445
    1W        W47676  10.649   9.352   8.360 -0.1326 -0.1151  0.0891
    1W        W47677   3.492  23.205   7.533 -0.0693  0.5518  0.0776
    1W        W47678  19.867  23.842   2.084  0.0255 -0.1866 -0.1267
    1W        W47679  29.513   9.898   1.554  0.2188 -0.4288  0.0798
    1W        W47680  29.366  29.338   3.143 -0.3104  0.1445 -0.1005
    1W        W47681   6.945  16.317   1.392 -0.1106 -0.0428 -0.1130
    1W        W47682  13.576  26.646   1.965 -0.0944  0.2007  0.0180
    1W        W47683   3.553   8.979   7.075 -0.0602  0.1739  0.1597
    1W        W47684  25.848  12.714   2.369 -0.0317 -0.1955  0.2312
    1W        W47685  22.263  13.934   0.469  0.2051  0.2579 -0.0437
    1W        W47686  12.488   0.604   2.367 -0.3274  0.3252  0.1282
    1W        W47687   6.992  15.472   6.401  0.1752 -0.0837  0.0466
    1W        W47688  19.530  14.009   7.098 -0.3640  0.0883  0.0838
    1W        W47689  14.804   4.119   9.079 -0.0757  0.1571  0.1372
    1W        W47690  24.796  10.617   7.232  0.2032 -0.1269 -0.2489
    1W        W47691  22.639  28.326   1.547  0.1299 -0.1533  0.3962
    1W        W47692   2.460  23.053   5.857 -0.0301 -0.0546 -0.1154
    1W        W47693  15.124  14.195   8.822  0.2169 -0.2422 -0.1436
    1W        W47694  12.817  17.861   8.681  0.0800  0.1294 -0.1111
    1W        W47695  21.382  26.751   1.899  0.0925  0.0615 -0.2185
    1W        W47696  21.706  18.641   8.294  0.1051  0.0538  0.2939
    1W        W47697   7.238   5.823   8.125  0.0081 -0.0699 -0.1765
    1W        W47698   8.596  10.950   2.137 -0.1920  0.0018 -0.2462
    1W        W47699  12.290  20.307   7.439  0.1507 -0.0870  0.0994
    1W        W47700   9.751  20.414   7.836  0.2987 -0.0430 -0.0731
    1W        W47701   7.588  23.192   0.984  0.3610  0.0772  0.0421
    1W        W47702  14.238  25.727   2.267  0.0645  0.1223  0.0940
    1W        W47703  26.049  23.378   8.948 -0.1956 -0.0028  0.0787
    1W        W47704  15.277  24.836   7.790 -0.2075 -0.1421  0.0302
    1W        W47705  19.707   7.680   2.704  0.0574 -0.3419  0.2398
    1W        W47706  26.892   6.898   1.543 -0.2133 -0.0522 -0.0168
    1W        W47707  29.418   7.853   7.535  0.1695 -0.2698 -0.2943
    1W        W47708   3.499  20.700   2.103  0.1763 -0.0195  0.1186
    1W        W47709  12.892  23.782   0.785  0.1859  0.2532  0.0502
    1W        W47710   9.211   2.388   1.687 -0.4043  0.1236  0.1444
    1W        W47711  27.941  24.313   8.504  0.0694  0.2568 -0.2289
    1W        W47712   6.455  26.823   0.098  0.1239  0.0817 -0.1829
    1W        W47713   0.348   2.390   0.866 -0.2963 -0.0941 -0.0346
    1W        W47714  19.810   9.224   6.391 -0.5810  0.1676  0.2413
    1W        W47715  29.720  22.946   7.209 -0.1254 -0.3375 -0.2796
    1W        W47716   1.576  24.926   1.250  0.3737  0.0421  0.0971
    1W        W47717  26.401  18.591   2.258  0.0200  0.1162  0.1116
    1W        W47718  27.188   4.379   1.198  0.2920  0.3422 -0.5566
    1W        W47719  15.459  25.926   0.568 -0.0151 -0.0316 -0.1388
    1W        W47720  10.960  27.503   7.368  0.1088 -0.0039  0.0280
    1W        W47721   1.003  27.184   5.709 -0.0066  0.0870  0.0476
    1W        W47722  17.135   4.031   7.544 -0.3457 -0.1252 -0.1687
    1W        W47723  14.986  21.769   0.833  0.0912 -0.2500  0.0605
    1W        W47724   5.522   3.957   1.713 -0.2339  0.1230  0.0741
    1W        W47725  25.333   7.426   7.242  0.0781 -0.0835  0.0329
    1W        W47726   9.917  17.843   9.417  0.0220 -0.1629  0.0012
    1W        W47727  28.635   3.555   9.397  0.5007 -0.1178 -0.1741
    1W        W47728   1.286  24.619   6.759  0.0415  0.0720 -0.4931
    1W        W47729  14.755  28.190   7.532 -0.0322  0.2701 -0.4302
    1W        W47730  19.439  12.046   0.326 -0.1874 -0.0350  0.0485
    1W        W47731  13.559   2.296   1.587  0.2277  0.0471 -0.1213
    1W        W47732  13.088  10.828   6.995  0.1344 -0.3092 -0.0734
    1W        W47733   2.316   4.804   0.168 -0.1916 -0.0717  0.1138
    1W        W47734   5.262  10.213   2.492 -0.0933  0.0170  0.4195
    1W        W47735  18.024  27.519   0.778 -0.0708  0.0376  0.2108
    1W        W47736  10.776   4.664   6.817  0.0403 -0.0800 -0.1439
    1W        W47737  23.930  15.394   8.028  0.0659  0.0239 -0.0453
    1W        W47738   5.049   5.822   0.141 -0.0145  0.3380  0.3120
    1W        W47739   9.666  15.577   0.097  0.0404  0.1060  0.2753
    1W        W47740  28.209  12.486   8.303  0.3025  0.2256 -0.0619
    1W        W47741   9.783   4.497   7.879 -0.0518 -0.1756  0.2448
    1W        W47742  27.612   5.488   7.076  0.0858  0.0361  0.2394
    1W        W47743   8.711  27.676   6.714  0.0020 -0.0498  0.0859
    1W        W47744  13.184   1.494   7.712 -0.0366 -0.2326 -0.2670
    1W        W47745   6.653  29.481   9.182 -0.1212  0.0022 -0.0128
    1W        W47746   1.363  28.358   1.980 -0.0688  0.0481 -0.1668
    1W        W47747  25.426  18.118   2.180  0.0794 -0.0215  0.1065
    1W        W47748  28.536  17.817   8.138 -0.1629  0.3886 -0.0622
    1W        W47749  13.918  16.316   0.616 -0.3015 -0.0954 -0.2494
    1W        W47750  26.463   3.227   8.719 -0.0560  0.2473 -0.1003
    1W        W47751   7.183   3.890   6.981 -0.4775 -0.3874 -0.2601
    1W        W47752   2.012   5.314   9.174  0.4863  0.1462  0.0170
    1W        W47753   6.564  27.663   2.640  0.0575  0.0491  0.1806
    1W        W47754  25.036  25.747   7.224 -0.0124 -0.3505  0.0626
    1W        W47755   7.894  27.497   0.223 -0.0116  0.3134  0.2737
    1W        W47756  14.216  18.294   7.874  0.2223 -0.0158  0.1283
    1W        W47757  25.075  16.587   6.625  0.3547 -0.0903  0.0228
    1W        W47758  18.123  22.461   8.042 -0.3381 -0.1577 -0.1925
    1W        W47759  26.367  11.099   2.344 -0.0521  0.1756 -0.1048
    1W        W47760  29.772  11.591   7.630 -0.0793  0.0153 -0.2494
    1W        W47761  18.887   5.324   7.415 -0.2653 -0.2032  0.2289
    1W        W47762   6.776  18.604   7.131 -0.2512  0.0666  0.1078
    1W        W47763  28.499   9.033   0.861  0.0696 -0.0486  0.0024
    1W        W47764  28.970  24.682   1.975  0.0698 -0.2940 -0.0254
    1W        W47765   1.651  26.954   8.317  0.1075  0.2250  0.0553
    1W        W47766  24.058   2.720   0.892  0.0818 -0.0268  0.1258
    1W        W47767  28.632  24.390   7.225 -0.2535  0.0021  0.1174
    1W        W47768   3.378  17.548   0.827 -0.1558  0.1757 -0.0180
    1W        W47769   2.247  18.475   1.666 -0.0110 -0.1091 -0.0852
    1W        W47770   2.024  26.435   0.069 -0.3965 -0.0432  0.0962
    1W        W47771  13.114  26.313   2.165  0.1356  0.1604  0.0237
    1W        W47772   8.031   7.858   0.084 -0.3687  0.0425 -0.0854
    1W        W47773   8.509   0.532   3.187 -0.0565  0.0399 -0.1021
    1W        W47774  26.839  16.305   8.789 -0.0912  0.0130  0.2073
    1W        W47775  23.015   5.962   3.480  0.0071  0.0970 -0.0705
    1W        W47776  12.877   2.225   0.775  0.2232 -0.1485  0.1211
    1W        W47777   1.275  27.062   6.523 -0.1741  0.1823 -0.0110
    1W        W47778  11.632  29.305   1.446 -0.0230 -0.2589  0.0156
    1W        W47779   8.283  25.541   6.531  0.0941 -0.1555 -0.1232
    1W        W47780  22.518  15.529   6.702  0.0489  0.0430 -0.1132
    1W        W47781  23.923  21.409   1.285 -0.0886 -0.0834  0.1344
    1W        W47782  13.832  26.375   3.332 -0.0851 -0.0305 -0.2669
    1W        W47783  23.178  26.336   8.635 -0.1818 -0.3779 -0.3548
    1W        W47784  21.545   5.211   6.812 -0.2069 -0.1305 -0.0235
    1W        W47785  13.965  17.609   1.792 -0.0193  0.4119 -0.1187
    1W        W47786  16.339   5.064   6.824  0.0215  0.0450  0.0566
    1W        W47787   5.329  28.242   2.948 -0.1773 -0.2175 -0.0135
    1W        W47788  11.576   2.032   0.432 -0.0603 -0.0058  0.1412
    1W        W47789  22.239  24.457   3.246  0.1495  0.2404 -0.1989
    1W        W47790   4.196  11.939   1.316  0.0587 -0.1827 -0.2128
    1W        W47791  29.596  10.495   2.393  0.1219  0.1961  0.2046
    1W        W47792   7.778  16.412   7.102  0.0305 -0.2098  0.3794
    1W        W47793  22.111  23.714   0.102 -0.1876 -0.4800 -0.3562
    1W        W47794   2.940  21.513   7.110  0.1436  0.1321  0.3266
    1W        W47795  29.611  17.933   1.854  0.1688 -0.0332  0.2367
    1W        W47796   7.159  25.520   7.698  0.1992  0.4850  0.3057
    1W        W47797   9.396   5.610   9.388 -0.0334  0.1374 -0.1448
    1W        W47798   2.224   1.371   6.441  0.0301 -0.0427 -0.1337
    1W        W47799   0.198  17.349   1.122  0.0586  0.1012  0.2570
    1W        W47800  28.501  27.510   9.448 -0.1231 -0.0853 -0.0640
    1W        W47801   0.058   5.545   0.382  0.0458  0.5137 -0.0101
    1W        W47802  28.242  29.664   1.796  0.0760  0.0352 -0.0357
    1W        W47803  11.987   2.555   3.399 -0.0207  0.2516 -0.0005
    1W        W47804  29.867  16.235   9.453 -0.1049  0.1478  0.2862
    1W        W47805   1.108   9.869   2.548 -0.1982 -0.0081 -0.0731
    1W        W47806  15.999  10.809   0.603 -0.0817  0.1494 -0.1138
    1W        W47807   5.238  27.399   0.018  0.2365  0.1747  0.0383
    1W        W47808  19.494  16.289   1.510 -0.0190  0.3316  0.2047
    1W        W47809  26.531   5.046   7.737  0.1448  0.0442 -0.0696
    1W        W47810   8.458   4.886   0.658  0.0783  0.0107  0.2321
    1W        W47811   0.572  19.838   0.391 -0.1082 -0.0322  0.0760
    1W        W47812   7.251  20.016   7.137  0.0083  0.4201 -0.0067
    1W        W47813   0.740  13.283   1.620 -0.0512 -0.1650 -0.2785
    1W        W47814   7.380  23.278   6.795 -0.0770 -0.0520 -0.3854
    1W        W47815  12.748  26.795   9.423  0.0611  0.1689  0.0335
    1W        W47816  29.287  12.256   3.012  0.2095 -0.2604 -0.3496
    1W        W47817  19.099  29.154   7.498  0.2320 -0.1444 -0.3326
    1W        W47818   2.960  11.042   9.371 -0.2398 -0.2494 -0.4553
    1W        W47819  16.488  18.635   1.938  0.1082  0.1409  0.2653
    1W        W47820   1.600   2.166   6.351 -0.1794 -0.3875  0.0240
    1W        W47821  12.189  29.380   1.355 -0.2058 -0.0227 -0.1038
    1W        W47822  25.943   6.675   7.504  0.0020  0.2219  0.3996
    1W        W47823  18.296  11.357   7.118  0.0066 -0.2329 -0.1508
    1W        W47824   7.584  25.747   7.302 -0.0207  0.0602  0.1642
    1W        W47825  10.557   0.892   1.676 -0.0736  0.1397  0.0528
    1W        W47826  12.397  13.114   8.589 -0.0043  0.0947 -0.2694
    1W        W47827   6.607  14.193   1.467 -0.0435 -0.0527 -0.1043
    1W        W47828  21.082  21.621   0.373 -0.0579 -0.0235 -0.2407
    1W        W47829  27.348   1.595   0.698  0.1537 -0.3337  0.1338
    1W        W47830  27.951   4.247   2.971 -0.0803  0.2703  0.1808
    1W        W47831   8.145   4.939   9.203  0.1671  0.0730 -0.1534
    1W        W47832   0.401   8.092   1.070  0.0598 -0.0167  0.2495
    1W        W47833  15.940  26.907   7.550 -0.1472 -0.0341 -0.1312
    1W        W47834  26.933  29.689   8.980  0.0995 -0.0832 -0.3393
    1W        W47835  27.189  25.000   0.081 -0.1234 -0.1050 -0.3529
    1W        W47836  19.256  21.636   8.952 -0.3516  0.1502 -0.1844
    1W        W47837  13.279  28.834   7.003 -0.1405  0.0713 -0.1127
    1W        W47838  24.840  18.895   7.552  0.1337 -0.0688  0.3293
    1W        W47839  24.976   5.433   8.671 -0.1829  0.0216  0.1818
    1W        W47840  16.406  26.755   7.761  0.3264  0.0780  0.0402
    1W        W47841   0.474   3.243   2.061  0.1130 -0.1718  0.1351
    1W        W47842   8.040  18.448   0.995  0.0945 -0.1165  0.1026
    1W        W47843   8.963  20.984   8.950  0.0272  0.3228 -0.0482
    1W        W47844  19.468  29.832   1.829  0.1346 -0.0172 -0.0118
    1W        W47845  24.547  26.541   3.146 -0.1133  0.0506  0.2370
    1W        W47846   0.326   0.797   1.490  0.1703  0.0903  0.3598
    1W        W47847  10.847  15.102   6.442  0.1072 -0.3575  0.0368
    1W        W47848  19.942  16.317   7.752  0.0428 -0.0584 -0.1624
    1W        W47849  29.781   6.814   0.608 -0.0497  0.0743  0.2267
    1W        W47850   1.253  24.980   1.589 -0.1005  0.0064 -0.1118
    1W        W47851  11.339  19.143   0.818  0.0982  0.2036 -0.0753
    1W        W47852  18.183   9.290   0.845 -0.0384  0.1600 -0.1045
    1W        W47853   0.087  21.960   9.081  0.1843 -0.0912  0.0210
    1W        W47854  25.675  14.520   2.020 -0.0870 -0.1162  0.4054
    1W        W47855  11.070  21.577   0.265  0.2938  0.2476 -0.0599
    1W        W47856   7.851  15.518   1.579 -0.1283  0.0641  0.2665
    1W        W47857  18.576   8.414   0.063  0.0853  0.1478 -0.1028
    1W        W47858   1.830  12.077   1.834 -0.0968 -0.0423  0.1858
    1W        W47859   3.781  13.483   1.117 -0.2016  0.2231  0.0151
    1W        W47860  17.880   8.814   7.421 -0.0601 -0.1651 -0.0005
    1W        W47861   1.027  12.474   9.090  0.1207 -0.0363 -0.4092
    1W        W47862  11.072   6.437   0.452 -0.0028 -0.3688  0.1922
    1W        W47863   8.396  24.089   1.139 -0.0121 -0.2614 -0.2136
    1W        W47864   9.142  27.817   2.067  0.2555  0.0137  0.1535
    1W        W47865  19.806  12.579   0.081  0.0828  0.3112 -0.0613
    1W        W47866   8.669   3.061   8.250 -0.1286  0.3744 -0.0445
    1W        W47867  18.421  21.772   0.562 -0.2536  0.0357 -0.3007
    1W        W47868  27.121  23.004   8.393 -0.1194  0.0240 -0.0422
    1W        W47869  14.690  27.650   2.514 -0.1106 -0.0917 -0.2885
    1W        W47870  14.541  23.723   5.876  0.1142  0.1154 -0.3481
    1W        W47871   2.098   3.973   8.367 -0.1939 -0.0147  0.1756
    1W        W47872  10.063  24.892   1.701  0.3899  0.1088 -0.2135
    1W        W47873   1.398   9.536   3.490  0.3371  0.2701  0.3923
    1W        W47874  16.100   1.235   0.215 -0.2266 -0.1284 -0.1531
    1W        W47875  14.480  21.716   0.891  0.0260 -0.0980 -0.2903
    1W        W47876   3.032  23.311   7.059 -0.0614  0.0915  0.2054
    1W        W47877   5.681  22.502   5.988 -0.2271 -0.1378 -0.1051
    1W        W47878  15.931   7.635   7.935 -0.0900 -0.1465 -0.0966
    1W        W47879   2.759   9.390   0.765 -0.2029  0.3350 -0.1004
    1W        W47880  13.011   7.517   7.433 -0.1062 -0.0909 -0.0144
    1W        W47881   7.339   4.372   6.926  0.1246  0.1033 -0.3149
    1W        W47882  24.451  24.841   0.966  0.1315  0.2513 -0.4111
    1W        W47883  14.444  12.523   7.174 -0.0181 -0.0595  0.1084
    1W        W47884  18.320  13.279   2.077  0.1112  0.2626  0.0845
    1W        W47885   9.916  18.283   7.584 -0.1949  0.0553  0.1330
    1W        W47886  16.641  18.820   8.292  0.3126 -0.2153 -0.0838
    1W        W47887  20.144  18.790   7.675  0.1638 -0.0933  0.0897
    1W        W47888   0.787  13.535   0.861  0.2744 -0.1696  0.1176
    1W        W47889  28.392  20.373   1.721 -0.2836  0.1662  0.1429
    1W        W47890  18.616   1.126   7.697 -0.0034  0.1383 -0.2292
    1W        W47891  18.772  13.894   0.677  0.1521 -0.2118  0.1928
    1W        W47892  27.028  21.199   0.686  0.2179 -0.1733  0.0341
    1W        W47893  12.110  22.090   8.828 -0.0992  0.0792  0.0691
    1W        W47894  12.727  23.052   1.188  0.1708 -0.0347  0.0645
    1W        W47895  21.195  28.415   2.120 -0.0359 -0.1094  0.0874
    1W        W47896   3.779  12.129   2.103 -0.1897  0.0121  0.0364
    1W        W47897  19.974   2.616   1.392 -0.0531 -0.0032 -0.2846
    1W        W47898  12.774   6.978   8.185 -0.1488 -0.0616  0.0404
    1W        W47899   6.156   6.693   7.482 -0.0813 -0.1860  0.2366
    1W        W47900   0.680   6.476   9.028  0.1737  0.3198 -0.0242
    1W        W47901   5.709   3.057   1.556 -0.2982 -0.2702  0.1161
    1W        W47902  18.900  22.702   7.604 -0.0352 -0.0166  0.1442
    1W        W47903   5.902   3.766   3.313  0.0320  0.0699  0.0982
    1W        W47904  25.160  28.202   6.839  0.2835  0.1229  0.0939
    1W        W47905  11.158  15.844   8.583 -0.4779 -0.0747  0.1217
    1W        W47906   7.950  22.834   6.236  0.1051 -0.1716  0.1479
    1W        W47907  15.154   1.137   1.892  0.2240 -0.2189 -0.1801
    1W        W47908   0.430   6.550   1.222  0.0045 -0.0612  0.1497
    1W        W47909  17.032  25.365   1.390 -0.1518  0.2000 -0.1471
    1W        W47910   9.631  21.257   7.425  0.0069 -0.2032 -0.0339
    1W        W47911  14.534  28.610   2.569  0.1296 -0.0966 -0.0949
    1W        W47912   8.256  17.840   7.774 -0.1820  0.0367  0.0089
    1W        W47913  28.664  14.811   7.213  0.0051  0.2727  0.0799
    1W        W47914  24.868  12.380   2.156 -0.1387 -0.0742  0.1812
    1W        W47915  22.021  24.132   0.472 -0.1487  0.1029  0.1367
    1W        W47916  18.130  11.224   8.697 -0.0788  0.1832 -0.0671
    1W        W47917  22.116  19.028   7.415 -0.1522  0.3040  0.2090
    1W        W47918  11.197  11.844   8.108  0.2285 -0.0875 -0.0179
    1W        W47919   0.400   0.251   8.510 -0.0450  0.0086 -0.2039
    1W        W47920  21.345  23.629   0.450  0.0746  0.2945 -0.0728
    1W        W47921   7.852  25.196   7.992  0.0393 -0.0047 -0.1486
    1W        W47922  14.140   3.438   2.801 -0.2691 -0.0756  0.0738
    1W        W47923  15.850  16.539   0.103  0.4391  0.0867  0.2114
    1W        W47924   6.476  15.641   7.896 -0.0463 -0.1237  0.0163
    1W        W47925  16.793  25.591   7.830 -0.1334  0.2135 -0.2727
    1W        W47926  18.204  22.741   9.202 -0.0232 -0.1823 -0.1957
    1W        W47927  12.327  15.485   0.794  0.0593 -0.1617 -0.3396
    1W        W47928   9.382  12.901   7.893 -0.1904  0.4398  0.0304
    1W        W47929  13.246   5.949   0.344 -0.2468 -0.3322  0.0037
    1W        W47930   8.472   2.485   0.892  0.2639 -0.3816  0.0684
    1W        W47931  14.247   0.093   7.721  0.1356  0.0714 -0.1160
    1W        W47932  11.709  11.718   1.139  0.1496  0.0045  0.3107
    1W        W47933  19.927   1.155   0.430  0.1431 -0.1644  0.0115
    1W        W47934  27.155   3.182   7.792  0.1834  0.4378 -0.0617
    1W        W47935  10.099  29.245   8.849  0.4151 -0.1695 -0.0392
    1W        W47936   8.494   7.633   7.969 -0.1243 -0.0569 -0.3191
    1W        W47937   4.673   5.586   8.326  0.3074 -0.0835  0.3797
    1W        W47938   5.266   1.000   8.136 -0.1060  0.1761 -0.2793
    1W        W47939  28.664  29.754   0.527 -0.1781 -0.0458  0.0339
    1W        W47940  19.333  11.694   1.378 -0.0490 -0.1574 -0.0957
    1W        W47941  25.376  28.810   0.802 -0.1485  0.3302 -0.1991
    1W        W47942  29.208  13.275   8.981  0.0198  0.0379  0.1923
    1W        W47943  29.515  23.302   1.243  0.2344 -0.3407  0.1919
    1W        W47944   8.086   4.361   0.006  0.1515 -0.0131 -0.1231
    1W        W47945  14.432  27.135   1.238 -0.0175 -0.1385  0.1567
    1W        W47946  17.292  23.626   7.702 -0.0757  0.0658 -0.2990
    1W        W47947  21.062  15.052   1.220 -0.2660 -0.2061 -0.0903
    1W        W47948  23.484  23.895   9.328  0.0991 -0.2933  0.1333
    1W        W47949  20.675  10.115   8.761  0.3379  0.2407  0.1953
    1W        W47950   2.150  22.480   7.443  0.2027  0.0126 -0.1297
    1W        W47951   0.951  26.009   2.269  0.1579  0.2874 -0.2698
    1W        W47952  16.412  22.019   8.413  0.1673  0.1248  0.3613
    1W        W47953  18.820   9.772   9.273 -0.3205  0.1645  0.1587
    1W        W47954   3.127   7.089   7.741 -0.3327  0.1489 -0.0673
    1W        W47955  12.472  24.737   7.432  0.1454 -0.2287  0.1886
    1W        W47956  27.832  29.032   1.554  0.0690  0.0704 -0.0798
    1W        W47957  18.942   7.214   6.765 -0.3465  0.1086 -0.0865
    1W        W47958  23.577   1.547   6.959  0.2755  0.0632 -0.2627
    1W        W47959   1.975  26.585   8.448 -0.4156 -0.0967  0.0146
    1W        W47960  10.478  12.393   1.295 -0.0071  0.0195 -0.1007
    1W        W47961  26.586  14.695   2.430 -0.1571  0.0884  0.3395
    1W        W47962  15.895  21.388   8.704 -0.0972  0.0365  0.4390
    1W        W47963  12.393   8.466   2.417 -0.0727  0.1356  0.0697
    1W        W47964   8.351  28.809   0.545  0.1667  0.0242 -0.0343
    1W        W47965  22.327  18.587   7.112  0.0067 -0.0516 -0.2710
    1W        W47966   2.996  23.881   8.196 -0.3636  0.0814 -0.0534
    1W        W47967  18.528  20.313   1.522  0.0709  0.1411 -0.0617
    1W        W47968  13.804  14.986   0.171 -0.4494 -0.0160  0.0456
    1W        W47969   3.556  19.548   1.648 -0.0930  0.2678  0.0077
    1W        W47970  22.264  29.189   1.315 -0.2492 -0.0834 -0.2073
    1W        W47971  29.890  25.034   9.327 -0.3048 -0.1817 -0.3391
    1W        W47972  28.190  21.136   8.642  0.1146  0.1449  0.0620
    1W        W47973   8.808   4.847   2.777  0.4248 -0.0206 -0.1962
    1W        W47974  17.201  29.405   0.321 -0.0083  0.1512  0.1097
    1W        W47975   5.256  11.341   1.425  0.0367 -0.0915  0.0410
    1W        W47976   2.604  14.413   9.091 -0.0500 -0.0336 -0.4012
    1W        W47977   1.966  11.099   1.933  0.0125  0.0542  0.0311
    1W        W47978  29.413  29.613   2.659  0.4463 -0.0231  0.0177
    1W        W47979  11.225  29.860   8.354  0.1334  0.3315 -0.0282
    1W        W47980  29.789  26.222   1.294  0.1345 -0.2642  0.2556
    1W        W47981   5.960   0.760   7.523 -0.2017 -0.1702  0.2454
    1W        W47982   1.863  12.971   1.721  0.0460  0.2408 -0.1267
    1W        W47983  11.810  20.597   0.036 -0.1363  0.2371 -0.1883
    1W        W47984   1.839  18.131   0.894  0.0449 -0.1838 -0.1746
    1W        W47985  26.554  29.123   7.722 -0.0412  0.0045  0.1069
    1W        W47986  17.340  29.733   9.203  0.0864  0.0313  0.1824
    1W        W47987   5.923   8.646   3.061  0.3208  0.1287  0.2761
    1W        W47988  27.858   1.471   8.255 -0.4059 -0.0749  0.0709
    1W        W47989   3.909  26.734   0.032 -0.1216  0.1241  0.2154
    1W        W47990  21.856   4.324   1.260  0.0289  0.1665  0.2440
    1W        W47991  16.164   5.590   9.312 -0.3183 -0.2575 -0.0558
    1W        W47992   0.269   3.473   6.997 -0.0930 -0.0824 -0.1087
    1W        W47993  25.597  10.980   7.375 -0.0978 -0.2437 -0.1113
    1W        W47994  17.513  18.629   9.005  0.0334 -0.0894 -0.2493
    1W        W47995   3.903  11.480   6.993  0.3063  0.3954 -0.0866
    1W        W47996   0.376  16.713   1.432  0.2637 -0.0519  0.1570
    1W        W47997  16.731  13.935   9.183  0.0654  0.0537 -0.1352
    1W        W47998   9.926  24.476   0.526 -0.0735  0.0672  0.0488
    1W        W47999  18.087  21.335   7.821  0.1614  0.0984 -0.1316
    1W        W48000   3.074  18.963   2.466  0.3022  0.0165  0.0372
    1W        W48001  20.998   4.320   1.448 -0.1994 -0.0112  0.1159
    1W        W48002   7.255  19.450   7.794 -0.0783  0.3699 -0.0269
    1W        W48003  23.971   1.460   0.793 -0.0301 -0.2936  0.0204
    1W        W48004  24.594   6.015   8.854  0.1264 -0.1532 -0.0255
    1W        W48005  23.531  22.686   8.197 -0.1965 -0.0325  0.0198
    1W        W48006  21.795  12.772   1.631  0.0769 -0.1558 -0.0533
    1W        W48007  12.609  16.546   1.498  0.1131 -0.1688 -0.2118
    1W        W48008   4.827  27.287   8.477 -0.0150 -0.2418 -0.0292
    1W        W48009   7.103   7.293   8.719 -0.1194  0.0546 -0.0977
    1W        W48010   8.837  27.862   9.320 -0.0800 -0.1902  0.1367
    1W        W48011   1.803  24.399   7.425  0.2343 -0.1445 -0.0052
    1W        W48012   6.121  15.216   2.821 -0.3807  0.1168  0.3139
    1W        W48013  27.222  27.531   5.936 -0.0590 -0.2266 -0.0786
    1W        W48014   9.087  25.331   8.481 -0.1176  0.1531  0.2355
    1W        W48015  15.914   5.361   8.027 -0.0501 -0.1775  0.2488
    1W        W48016  23.234  21.507   1.773  0.4007 -0.2313  0.0667
    1W        W48017   6.822  20.892   0.408  0.0016 -0.0650 -0.1081
    1W        W48018  12.962  28.248   7.570  0.1212 -0.0455 -0.4227
    1W        W48019   2.825  24.378   0.446 -0.1342  0.1058 -0.2159
    1W        W48020  28.527  17.132   8.946 -0.0310 -0.1072  0.0966
    1W        W48021   5.784   0.892   8.204 -0.0032  0.3292  0.2328
    1W        W48022  15.439  25.209   0.462 -0.1083  0.0889  0.2061
    1W        W48023  27.208  13.089   5.752  0.0937  0.1383  0.1132
    1W        W48024  24.856   2.855   8.589  0.1763  0.0064  0.0936
    1W        W48025   5.939  18.874   8.370  0.0869  0.1601 -0.1957
    1W        W48026   8.350  22.401   0.663  0.0295 -0.2097 -0.2005
    1W        W48027   5.842   6.778   2.119  0.0445  0.0370  0.3215
    1W        W48028  27.973   8.117   7.115  0.0869  0.1293  0.1174
    1W        W48029  29.222  23.076   1.577  0.1202 -0.2468 -0.1056
    1W        W48030  23.616  10.865   6.671 -0.0455  0.1506  0.0974
    1W        W48031   2.333   9.318   8.828 -0.4405 -0.3073  0.1965
    1W        W48032  22.011   8.907   2.508  0.0466  0.1158 -0.0954
    1W        W48033  14.544  18.117   2.383 -0.0194  0.0804  0.3377
    1W        W48034  19.636  15.966   8.525 -0.0267  0.3810  0.0574
    1W        W48035  21.202  23.063   2.553 -0.1578  0.1456 -0.2586
    1W        W48036  17.007  14.071   0.809  0.2696 -0.1612  0.0277
    1W        W48037  24.703  20.793   0.416 -0.0906  0.1176 -0.1378
    1W        W48038  14.042   0.762   9.152  0.0116 -0.0900  0.1008
    1W        W48039  10.540  27.518   8.652 -0.5025  0.0238  0.1193
    1W        W48040   9.484   9.154   0.808 -0.3241  0.1421  0.0950
    1W        W48041  26.010   0.017   0.548 -0.0009  0.0127  0.2246
    1W        W48042  13.943  10.723   0.231 -0.1712  0.0488 -0.0458
    1W        W48043   7.946  16.989   0.532 -0.3860  0.3260 -0.2831
    1W        W48044   5.281  14.029   8.711 -0.1540 -0.0660  0.2807
    1W        W48045   7.432   5.593   0.049  0.0525  0.0317  0.3445
    1W        W48046   8.106   6.940   9.239 -0.1800 -0.3126  0.0848
    1W        W48047  19.148   3.411   2.368  0.0169 -0.1848 -0.1120
    1W        W48048  15.438  21.581   8.340  0.0932  0.2204 -0.1957
    1W        W48049  21.274  19.045   0.706  0.3998 -0.0199  0.2164
    1W        W48050   0.267  13.224   0.306 -0.1318 -0.3122  0.1149
    1W        W48051  24.148   5.578   2.327 -0.1843 -0.0119 -0.0291
    1W        W48052  17.527   0.859   3.076 -0.1349 -0.0092  0.0574
    1W        W48053   7.215  28.608   0.808 -0.0297 -0.0844  0.0441
    1W        W48054   5.236  17.070   0.776  0.0472  0.0189  0.0390
    1W        W48055  26.777   8.604   2.055  0.0517  0.1683 -0.0153
    1W        W48056  25.153   6.865   8.445 -0.0144 -0.3709 -0.2069
    1W        W48057  15.914   5.269   8.483 -0.0067  0.0049  0.1448
    1W        W48058   7.747   7.778   1.754 -0.1138 -0.2480 -0.1804
    1W        W48059  24.036  16.406   0.185  0.0891 -0.1576 -0.0096
    1W        W48060  17.096  22.449   0.121 -0.1298  0.1025 -0.1247
    1W        W48061  26.424  18.296   8.972 -0.2860  0.1073  0.2086
    1W        W48062   2.448   0.261   2.667  0.0782 -0.3862  0.0583
    1W        W48063  24.282  16.603   1.599  0.1702 -0.0066 -0.0554
    1W        W48064  20.326   8.972   0.089 -0.0662  0.1319  0.0915
    1W        W48065   7.957   4.604   1.528  0.1969  0.0020 -0.0652
    1W        W48066  26.234  26.412   6.216 -0.0416 -0.1039  0.0296
    1W        W48067  16.747   3.731   6.655  0.3196 -0.0272  0.1341
    1W        W48068   7.258   1.879   1.462 -0.2711 -0.1591  0.2125
    1W        W48069  16.737   4.057   9.362  0.1690 -0.0070 -0.1848
    1W        W48070  25.396   1.116   2.499  0.1909  0.1312 -0.0037
    1W        W48071  18.819   1.653   7.834  0.1201  0.2485  0.0125
    1W        W48072  16.941  26.028   8.080 -0.1425 -0.1921 -0.0570
    1W        W48073  18.403   0.808   9.231  0.1198  0.0822 -0.0063
    1W        W48074   8.657  24.961   0.891  0.1474 -0.2334 -0.2600
    1W        W48075  17.255  17.268   2.425  0.1471  0.0193  0.0061
    1W        W48076   2.810  16.433   7.848  0.0425 -0.0141 -0.1064
    1W        W48077  28.991  27.801   1.781 -0.2055 -0.0488 -0.0527
    1W        W48078  11.649  24.024   6.693 -0.0437 -0.2096 -0.2447
    1W        W48079   3.443  10.900   8.466  0.1610 -0.0157  0.2027
    1W        W48080   0.682  28.999   7.659  0.1015 -0.1236 -0.2602
    1W        W48081  10.668  26.422   6.372  0.6416 -0.0723  0.1272
    1W        W48082  20.722  10.698   5.958 -0.1113 -0.0114 -0.3063
    1W        W48083  11.881  15.578   2.436  0.1297  0.0519  0.2514
    1W        W48084  13.687   9.294   0.158  0.1480 -0.1428  0.2680
    1W        W48085   8.708   4.082   8.290 -0.0477 -0.0135  0.1940
    1W        W48086   7.065  29.502   2.932  0.1330 -0.1721 -0.2425
    1W        W48087  23.553  20.093   3.011  0.1685  0.1045 -0.0786
    1W        W48088   4.291   1.247   3.466  0.2142  0.0592 -0.1110
    1W        W48089   8.113   7.905   2.611 -0.1401  0.3654 -0.0140
    1W        W48090   0.632  12.700   6.906  0.2823 -0.0635  0.2173
    1W        W48091  11.630  10.090   7.416 -0.1251 -0.0124  0.1130
    1W        W48092  14.978  14.775   7.536  0.3211 -0.1113  0.1837
    1W        W48093  26.378   6.996   1.612 -0.0943 -0.0766  0.2666
    1W        W48094  14.807   3.642   9.211  0.0395  0.4344  0.0396
    1W        W48095  19.529  29.830   0.661 -0.2948 -0.1003 -0.4219
    1W        W48096  24.650   7.848   7.399  0.0675  0.1156  0.1874
    1W        W48097  26.176   4.073   7.770 -0.0909 -0.1634  0.3263
    1W        W48098  26.190  29.236   2.057  0.1911  0.4033  0.1780
    1W        W48099   0.722  28.945   1.429  0.0521 -0.2016 -0.1472
    1W        W48100  16.357  14.765   8.236  0.0643  0.2417 -0.1452
    1W        W48101  23.755   5.710   2.639 -0.0684 -0.0658 -0.0910
    1W        W48102   4.932  25.114   9.201  0.2530  0.4191 -0.2877
    1W        W48103  12.037  16.457   7.203 -0.0573 -0.1649 -0.0195
    1W        W48104  23.788  17.438   6.509 -0.1296  0.0706  0.0206
    1W        W48105  23.016   0.221   8.768  0.2082 -0.1401  0.0666
    1W        W48106  28.892  15.385   9.334 -0.3474  0.0358  0.0890
    1W        W48107   7.596  27.573   1.891 -0.0105  0.0765  0.1809
    1W        W48108  27.481   9.880   1.013 -0.1833 -0.2748 -0.2952
    1W        W48109  25.213  27.578   1.134 -0.1950  0.1292  0.1331
    1W        W48110  17.406   6.386   6.975  0.1701  0.3762  0.2820
    1W        W48111  17.926   3.211   6.126 -0.2371  0.0927  0.2209
    1W        W48112  23.410   4.037   1.794  0.2014 -0.1017 -0.0959
    1W        W48113  20.159  28.840   9.030 -0.1209 -0.2030 -0.1554
    1W        W48114   4.063  14.668   2.254 -0.2016  0.1931  0.0165
    1W        W48115   6.836  16.018   0.073 -0.0556  0.3072 -0.1513
    1W        W48116   9.741   6.948   9.430  0.0315  0.1750  0.2697
    1W        W48117   3.918   2.786   8.414 -0.0078  0.0849 -0.2157
    1W        W48118  15.315  24.589   2.358  0.2870 -0.2005 -0.2985
    1W        W48119  24.142  26.673   8.598  0.0936 -0.2358 -0.0073
    1W        W48120   4.331   6.001   3.170 -0.0681 -0.1744 -0.1172
    1W        W48121  23.316   2.065   9.261 -0.2294  0.0251 -0.0681
    1W        W48122  16.491   1.121   3.118  0.0746 -0.1182  0.1795
    1W        W48123   6.521  23.051   6.026  0.0389  0.0384  0.1966
    1W        W48124  19.323   2.539   0.015  0.0450  0.2366 -0.0292
    1W        W48125  15.001  28.817   8.077 -0.2193 -0.2128  0.1120
    1W        W48126   3.670  20.065   0.904 -0.0036  0.0257 -0.3073
    1W        W48127   4.697   3.334   0.316 -0.1475 -0.2825  0.0517
    1W        W48128  26.857  28.243   7.864 -0.1593 -0.1778  0.0121
    1W        W48129  15.178  24.988   9.031 -0.0355  0.1323 -0.0565
    1W        W48130  23.988  29.703   2.666  0.2186  0.0316 -0.0142
    1W        W48131   2.794  17.182   6.885  0.0134  0.1378 -0.0703
    1W        W48132  22.625  19.942   1.433 -0.0190 -0.0195 -0.1276
    1W        W48133  20.459   9.655   8.397  0.2065  0.2562 -0.1497
    1W        W48134  19.463  15.150   8.418 -0.0041  0.0009 -0.3265
    1W        W48135  21.543   4.906   8.047 -0.1389 -0.1960  0.1887
    1W        W48136  24.652   9.102   7.924  0.0953 -0.5623  0.2695
    1W        W48137  17.213  20.316   2.094  0.4120  0.1194  0.0253
    1W        W48138  11.038   7.458   2.417  0.1713  0.0903  0.1560
    1W        W48139   3.810   5.986   8.053 -0.0684 -0.0447 -0.0854
    1W        W48140  16.207  29.002   8.963 -0.1667  0.1888  0.2407
    1W        W48141  27.384  23.389   8.469  0.0162 -0.1345 -0.1789
    1W        W48142  16.308  27.866   2.438  0.1825 -0.3743  0.2116
    1W        W48143  16.059   4.054   8.315 -0.2277  0.1706  0.0813
    1W        W48144  27.189   3.592   3.831 -0.0019 -0.0002 -0.1443
    1W        W48145   6.014  28.756   2.855  0.1772 -0.1237  0.0014
    1W        W48146   8.484  26.573   9.083  0.2746 -0.1743 -0.0285
    1W        W48147   8.475  12.527   0.278  0.1518 -0.1802 -0.0386
    1W        W48148  22.193  17.228   8.682  0.1268  0.0752 -0.2024
    1W        W48149   9.440   6.070   1.866 -0.1139 -0.2132  0.2163
    1W        W48150  13.262  24.197   1.907 -0.0207 -0.0758  0.0511
    1W        W48151  23.991  23.489   7.585  0.2007  0.2891  0.0206
    1W        W48152  20.067  26.791   0.622  0.2142  0.0728 -0.0283
    1W        W48153  12.475  22.149   7.738 -0.0368  0.1211  0.1545
    1W        W48154  20.232   9.554   1.680  0.0505  0.2924  0.1330
    1W        W48155  11.134   0.913   8.113 -0.1923  0.2633 -0.0963
    1W        W48156  11.833  15.419   0.729  0.1117  0.0869 -0.2973
    1W        W48157  28.984   6.226   2.145 -0.0426  0.2554  0.0279
    1W        W48158  15.848  27.244   9.443 -0.0249  0.0805  0.1200
    1W        W48159  23.381  29.465   1.921 -0.0952  0.2885  0.2786
    1W        W48160   1.546   8.755   7.105 -0.0244  0.1926 -0.2678
    1W        W48161   4.019  21.041   7.433 -0.1805  0.0167 -0.2165
    1W        W48162  19.346  12.275   9.224  0.1232  0.0549  0.1740
    1W        W48163  13.500  17.902   0.870  0.4305  0.0086  0.2060
    1W        W48164   9.782  25.536   7.858 -0.0682  0.0913  0.1462
    1W        W48165  28.213  11.087   1.289  0.3060  0.0664  0.1658
    1W        W48166  26.084  19.492   8.275  0.2099 -0.1918  0.2047
    1W        W48167  21.534   9.700   6.448 -0.1096  0.0383 -0.2184
    1W        W48168  11.673  22.768   5.643 -0.3751  0.0936 -0.3055
    1W        W48169   2.160  16.912   6.294 -0.1015  0.0132  0.0219
    1W        W48170  11.166  18.498   2.028  0.0579 -0.1471 -0.0956
    1W        W48171  18.751   3.802   6.474 -0.1384 -0.1587 -0.0015
    1W        W48172  12.798  13.868   2.097  0.0478 -0.0080  0.1920
    1W        W48173   9.902  26.573   7.873 -0.2474 -0.2211  0.0380
    1W        W48174  19.041  18.728   0.070 -0.2742  0.0239  0.2091
    1W        W48175  18.539   0.126   3.211  0.0284  0.1467  0.1984
    1W        W48176  15.276  19.893   7.887  0.1219 -0.0375  0.1993
    1W        W48177  29.412  25.347   3.069  0.1442  0.1247  0.1283
    1W        W48178  16.463  12.563   8.031 -0.1951 -0.1285  0.0095
    1W        W48179  20.240  21.029   6.659 -0.0095  0.3151  0.3076
    1W        W48180  29.885  16.014   8.174 -0.3047 -0.0015 -0.0023
    1W        W48181  10.933   4.922   7.701 -0.4009  0.0752 -0.1081
    1W        W48182  14.446  27.742   1.693 -0.0231  0.2688  0.1146
    1W        W48183  20.642  18.084   8.952  0.0674 -0.2218  0.1349
    1W        W48184  28.944  15.832   9.217 -0.1179  0.4189 -0.1289
    1W        W48185   7.273   1.100   6.757  0.0755 -0.0860 -0.0059
    1W        W48186  11.269  14.243   7.559 -0.0206 -0.4068 -0.0815
    1W        W48187  21.877  13.026   7.323 -0.0115  0.0835  0.0043
    1W        W48188  13.864   3.609   2.412 -0.0513 -0.2836 -0.0209
    1W        W48189  17.727   7.793   2.395  0.2197  0.0340  0.3720
    1W        W48190  22.936  11.176   2.287 -0.0067  0.1813 -0.2439
    1W        W48191  14.470   2.717   7.445 -0.0867 -0.0402  0.0257
    1W        W48192  12.095  21.986   2.072 -0.0349 -0.2740 -0.0166
    1W        W48193  13.095  12.266   9.222  0.5449  0.2241  0.0252
    1W        W48194  23.981  24.604   0.783 -0.0836 -0.0066  0.0618
    1W        W48195  16.760  15.473   8.775 -0.2231  0.1321 -0.0741
    1W        W48196  19.616  23.410   1.971 -0.0884  0.2472 -0.0695
    1W        W48197   9.842  28.323   0.562  0.1925  0.1341 -0.1844
    1W        W48198   2.991  29.870   1.181 -0.1181 -0.1106  0.0485
    1W        W48199  18.846  20.280   1.933  0.0822 -0.0149  0.0216
    1W        W48200  16.722  20.161   1.152 -0.1652 -0.0072  0.2013
    1W        W48201   8.297  20.106   6.956  0.1085 -0.0267 -0.1349
    1W        W48202  25.046  21.722   1.150  0.0749  0.2356 -0.3040
    1W        W48203   4.128   7.393   1.456 -0.1707  0.1838 -0.3014
    1W        W48204  21.534   2.438   6.397 -0.0954 -0.0711 -0.0813
    1W        W48205  21.123   7.308   9.188 -0.0377 -0.2050 -0.0810
    1W        W48206  14.798  20.705   9.386  0.0156 -0.1862  0.2418
    1W        W48207  29.196  27.539   0.516  0.0540 -0.0368 -0.0896
    1W        W48208  19.080  24.731   2.563 -0.0726 -0.0181  0.2513
    1W        W48209   9.458  20.134   1.084  0.1424 -0.1778  0.2435
    1W        W48210  24.364  26.382   7.806  0.6369 -0.2499  0.0151
    1W        W48211   8.815  19.330   1.738  0.0938  0.1612  0.0568
    1W        W48212  16.386  17.945   8.539  0.0714 -0.3132  0.0329
    1W        W48213   3.140  19.785   8.600 -0.1602  0.2685 -0.1208
    1W        W48214  21.799  19.324   0.895  0.2476  0.0798  0.1399
    1W        W48215   6.547  10.457   3.275 -0.0777  0.1618  0.4963
    1W        W48216  22.750   1.110   6.927  0.1894  0.0463 -0.2248
    1W        W48217  21.293  22.228   0.816  0.0849  0.1282  0.0321
    1W        W48218   8.530  18.854   8.315  0.0241  0.3910  0.1313
    1W        W48219   1.192   8.063   0.400  0.4056 -0.1305  0.1074
    1W        W48220   4.833  24.081   2.194 -0.0950  0.0361 -0.3808
    1W        W48221  22.162  20.685   8.702  0.1883  0.0033 -0.0223
    1W        W48222  21.928  25.993   3.244  0.2591  0.0525 -0.1664
    1W        W48223  19.404  10.763   0.655  0.0782  0.1742 -0.1468
    1W        W48224  15.205   1.407   7.730 -0.0716 -0.0493 -0.1048
    1W        W48225   3.120  17.902   2.436 -0.1000  0.3049 -0.1026
    1W        W48226  27.918   6.332   2.413  0.0963  0.2026 -0.0117
    1W        W48227  20.658   6.123   0.330 -0.2252 -0.1708  0.0009
    1W        W48228   4.780  25.990   8.798 -0.1385 -0.0069 -0.2632
    1W        W48229  29.239   6.953   8.830  0.1046 -0.1331 -0.1639
    1W        W48230  13.022  17.801   0.517 -0.3106  0.0391 -0.0723
    1W        W48231   9.195   1.970   0.553  0.3816  0.1993 -0.0153
    1W        W48232  26.799  24.609   1.638 -0.0530  0.0238 -0.2604
    1W        W48233   0.255  29.634   9.285  0.0842 -0.1590 -0.0994
    1W        W48234   6.075  17.236   7.104  0.1914 -0.3287 -0.0884
    1W        W48235  18.584   8.407   0.555  0.0147  0.1854  0.1736
    1W        W48236  16.934  26.986   0.012  0.2911  0.0249  0.0541
    1W        W48237  19.792  21.717   7.584 -0.0904 -0.1113 -0.3755
    1W        W48238   6.794   1.929   6.591 -0.2254 -0.5583  0.5356
    1W        W48239  23.270   5.193   6.577 -0.0773  0.2031 -0.2647
    1W        W48240  20.600   7.867   7.400  0.1400  0.1643  0.0646
    1W        W48241  10.838  23.958   6.173 -0.1595 -0.0627  0.2284
    1W        W48242  20.240  17.817   8.287 -0.0119 -0.4740 -0.1113
    1W        W48243  18.881  21.252   0.422 -0.0975  0.2125 -0.0219
    1W        W48244  12.483   6.687   0.327  0.2236 -0.0765 -0.0457
    1W        W48245  11.747  28.788   6.843 -0.0173  0.1365  0.3954
    1W        W48246  12.839  10.748   8.180  0.2459  0.0705 -0.2180
    1W        W48247  23.251  16.804   7.616 -0.1562 -0.2090 -0.3575
    1W        W48248   9.392  17.764   1.452  0.0011 -0.0821  0.1110
    1W        W48249  26.342   6.422   6.294 -0.0745  0.1601 -0.1052
    1W        W48250   1.131  26.937   2.289  0.0230  0.1415 -0.1163
    1W        W48251   6.519  12.843   6.821 -0.0621 -0.0425 -0.1634
    1W        W48252  17.751   6.612   7.325  0.0780  0.0031 -0.1223
    1W        W48253   2.109  16.391   7.231  0.0464  0.1428  0.0001
    1W        W48254  21.715   1.392   7.691  0.1514 -0.5018  0.1866
    1W        W48255  28.609  27.055   6.026 -0.0981 -0.6382 -0.0465
    1W        W48256   5.881  27.310   8.864  0.0398  0.0042 -0.1224
    1W        W48257  27.269   3.538   3.244 -0.0364  0.1382 -0.2144
    1W        W48258   2.115  26.507   9.028 -0.3014 -0.0402 -0.0489
    1W        W48259  20.398   8.364   6.272  0.1694 -0.0870 -0.2195
    1W        W48260   2.672   0.876   0.936  0.0087 -0.0307  0.0411
    1W        W48261  19.067  23.681   1.905  0.1529 -0.4776 -0.0572
    1W        W48262  18.540  16.262   0.478 -0.2444  0.0386  0.0571
    1W        W48263   8.352  10.034   0.094  0.1265 -0.2428  0.2673
    1W        W48264  17.686  11.019   7.186 -0.0250  0.1146 -0.0891
    1W        W48265  23.148   3.444   7.869 -0.1213  0.0454 -0.2884
    1W        W48266  17.907  22.821   8.377 -0.4348  0.0672 -0.1195
    1W        W48267   3.271  29.740   8.458  0.0102  0.1170  0.2027
    1W        W48268  13.454   0.406   2.155  0.1372 -0.2594 -0.2671
    1W        W48269  23.894  28.591   1.387 -0.0827  0.0605  0.3105
    1W        W48270  18.549  17.876   7.424  0.1941  0.3508  0.0698
    1W        W48271  15.596  12.272   1.055  0.0970  0.2682  0.1163
    1W        W48272  11.388  25.558   8.225  0.0387 -0.1956  0.0771
    1W        W48273  20.790  24.907   3.015 -0.3435 -0.1078 -0.4141
    1W        W48274   0.779   1.921   1.609 -0.1110 -0.1823  0.0681
    1W        W48275   0.975  25.014   6.841 -0.0968  0.0903 -0.2287
    1W        W48276  22.205  18.223   9.138  0.1642 -0.1437  0.3065
    1W        W48277  25.625  13.923   1.398  0.1367 -0.0043  0.0726
    1W        W48278  15.005  10.987   1.509  0.0756 -0.1045  0.0165
    1W        W48279  19.245  25.239   8.672 -0.3770 -0.0172  0.2056
    1W        W48280  10.267  24.055   0.709 -0.0359 -0.0354 -0.4017
    1W        W48281  10.923   4.668   2.829 -0.2640 -0.0362 -0.0937
    1W        W48282  17.093  27.028   0.506  0.0483 -0.2315 -0.2789
    1W        W48283  21.464  15.366   0.232  0.0538 -0.0403 -0.2263
    1W        W48284   0.933   0.703   2.162 -0.1588 -0.3388 -0.0704
    1W        W48285   5.655   9.892   2.391 -0.1782 -0.1486  0.1295
    1W        W48286  18.027  11.361   1.487  0.1833 -0.3974 -0.1526
    1W        W48287   7.713   0.270   0.124  0.1416  0.2610 -0.1409
    1W        W48288   7.797  22.592   1.916  0.1873 -0.0859  0.1040
    1W        W48289  20.711  26.047   8.014 -0.0201 -0.1431  0.2070
    1W        W48290   7.062  22.278   6.781  0.3436  0.2741  0.1141
    1W        W48291  12.180  13.233   7.308 -0.3006  0.0045  0.2850
    1W        W48292  14.686  22.889   8.224 -0.0331  0.0514 -0.3149
    1W        W48293  20.491  19.521   1.875 -0.2614 -0.1278 -0.0768
    1W        W48294  13.964   6.951   7.429  0.0544 -0.0898  0.1972
    1W        W48295  23.772   3.834   1.565 -0.1411  0.1294 -0.3047
    1W        W48296  18.835  23.135   0.748  0.1560  0.0858 -0.2567
    1W        W48297   4.607   8.131   7.371  0.1295  0.2345 -0.4628
    1W        W48298   3.191  16.758   6.463  0.0318 -0.1009  0.0202
    1W        W48299  14.519   4.093   0.066 -0.3911 -0.1309  0.0769
    1W        W48300  24.003   0.714   1.369  0.2277 -0.0964 -0.0005
    1W        W48301  13.860  22.248   7.426 -0.1003 -0.1800 -0.0695
    1W        W48302   6.076  26.975   9.270  0.2633 -0.0826  0.0705
    1W        W48303   7.702  17.166   5.953  0.1344 -0.3418  0.1459
    1W        W48304  18.892  26.483   8.609 -0.0868  0.0016 -0.2099
    1W        W48305   6.539  13.149   6.308  0.2296 -0.1425 -0.0490
    1W        W48306   9.898   5.861   1.952 -0.4016  0.0001  0.0996
    1W        W48307  11.369  14.037   0.915  0.1451  0.0601  0.4098
    1W        W48308  12.968  22.148   7.628  0.1805  0.2241  0.2075
    1W        W48309  18.925   3.566   8.280  0.0474 -0.0754 -0.2464
    1W        W48310   6.742   0.723   0.872  0.0871  0.1040  0.0991
    1W        W48311  13.082   2.818   4.169 -0.1608 -0.0864 -0.1793
    1W        W48312   6.548  19.582   7.369 -0.0896  0.1821 -0.1041
    1W        W48313  10.426  25.857   1.161  0.1699 -0.1470 -0.0012
    1W        W48314  28.125  19.313   7.279 -0.1315  0.0036  0.1500
    1W        W48315  22.927   8.965   7.986 -0.1067 -0.0150 -0.1601
    1W        W48316   2.212   2.406   0.621 -0.1325  0.4248 -0.1663
    1W        W48317  10.437   3.287   1.729 -0.0126 -0.1631 -0.0705
    1W        W48318   8.697  14.836   7.347 -0.2449 -0.1012 -0.1134
    1W        W48319  11.815  28.177   6.667  0.0925 -0.1998  0.0464
    1W        W48320  19.658  19.318   9.321  0.3213 -0.1813 -0.2816
    1W        W48321  18.215  11.614   8.298 -0.0182  0.1737 -0.1181
    1W        W48322  27.767  25.075   8.814  0.0298 -0.0597 -0.0421
    1W        W48323  18.310   4.367   0.386  0.2227 -0.2206  0.0356
    1W        W48324  18.620   9.187   1.082  0.0675 -0.0106  0.2980
    1W        W48325   9.595   9.206   2.657 -0.0193  0.1248 -0.1278
    1W        W48326  16.826  20.797   2.880 -0.2697 -0.0886  0.2277
    1W        W48327  16.513   7.066   1.737 -0.1235  0.0731  0.3721
    1W        W48328  26.501  28.500   1.524  0.1228 -0.0305 -0.2091
    1W        W48329  16.454  27.567   8.731 -0.1645 -0.1455 -0.1481
    1W        W48330  13.430  10.474   0.397 -0.2905 -0.2355 -0.1095
    1W        W48331  15.532   9.502   2.180  0.3086  0.1439  0.0991
    1W        W48332  12.069  20.262   9.142 -0.0112  0.2821  0.1776
    1W        W48333  19.948  28.702   8.105  0.3203  0.0408 -0.1390
    1W        W48334   5.836   4.389   7.209 -0.3268  0.0145 -0.4480
    1W        W48335  28.137  21.261   9.320  0.3917 -0.0886  0.0113
    1W        W48336  24.829  19.401   7.418  0.2016 -0.0423  0.0216
    1W        W48337  17.807   0.812   7.660  0.1077 -0.0833 -0.0817
    1W        W48338  10.933  22.998   0.487  0.0339 -0.0407  0.1606
    1W        W48339  28.956   5.478   1.853  0.1777 -0.1912 -0.1742
    1W        W48340  14.049   8.952   1.908 -0.0699  0.2668 -0.1426
    1W        W48341   2.088   5.583   7.704  0.0249  0.1531  0.2459
    1W        W48342   1.316  25.786   5.885  0.1056  0.0596 -0.2169
    1W        W48343  20.833  13.836   7.488  0.5143 -0.3810 -0.0255
    1W        W48344  28.387  13.435   9.008  0.0615  0.0141 -0.2683
    1W        W48345   0.428   4.411   9.175  0.0403  0.0781  0.1996
    1W        W48346  28.055   0.816   7.509 -0.1026  0.4049  0.2031
    1W        W48347  17.049   9.918   8.601 -0.0869 -0.1497  0.0147
    1W        W48348   0.564  11.142   6.990  0.4501 -0.0524 -0.0812
    1W        W48349  13.843  21.650   1.956  0.2633 -0.0447 -0.2218
    1W        W48350   5.715  12.638   7.215  0.0096 -0.1953  0.1235
    1W        W48351  26.639  19.223   7.616  0.1253 -0.0118  0.0751
    1W        W48352  19.345  20.057   9.358 -0.3513 -0.0202 -0.2009
    1W        W48353   2.161  14.794   8.476 -0.1081  0.3707  0.0390
    1W        W48354  27.121  27.891   8.189 -0.0721  0.0776  0.0666
    1W        W48355  26.930   9.320   1.523  0.0346  0.1329 -0.0268
    1W        W48356  17.655  16.991   0.099  0.1098  0.1187  0.1123
    1W        W48357  17.683  17.781   7.760 -0.0709 -0.2164  0.2856
    1W        W48358   2.681   6.228   0.103 -0.2776 -0.3028  0.1637
    1W        W48359   0.360  14.154   6.892 -0.1187  0.1969 -0.0310
    1W        W48360  25.664  19.790   1.105 -0.1249  0.0674  0.1791
    1W        W48361  10.973  19.492   6.916  0.0794  0.0512 -0.3459
    1W        W48362  24.351  20.661   1.845  0.1856 -0.0996 -0.1441
    1W        W48363  14.562  25.230   2.162  0.0088  0.4364 -0.0883
    1W        W48364   1.626   3.533   0.077  0.0005 -0.1208  0.2377
    1W        W48365  28.588  22.131   6.708  0.0281 -0.1762  0.1961
    1W        W48366  21.785  20.629   0.762 -0.5798  0.1294  0.3125
    1W        W48367   1.053  23.653   7.761  0.0212  0.0183  0.1696
    1W        W48368   0.348  29.360   7.455 -0.0027 -0.0905  0.0435
    1W        W48369  12.801  11.211   2.208  0.1081 -0.2753  0.1821
    1W        W48370  13.698   1.721   2.138 -0.0702  0.2645  0.1702
    1W        W48371  13.667   9.190   8.980 -0.2150 -0.0408 -0.1308
    1W        W48372  27.516   5.226   7.920 -0.0352 -0.1199 -0.0074
    1W        W48373  15.582   6.800   8.736  0.2382  0.1222  0.0339
    1W        W48374  16.012  28.416   3.382  0.2250 -0.1643 -0.0226
    1W        W48375  14.934  12.076   2.041 -0.0004 -0.1309 -0.2278
    1W        W48376  17.949   4.878   2.593  0.0535 -0.1729  0.0770
    1W        W48377   8.627  15.821   8.924 -0.2369  0.0725 -0.1825
    1W        W48378  29.896  21.037   8.468  0.1208 -0.0432  0.0067
    1W        W48379  11.945  20.802   9.055 -0.1486  0.1168  0.1091
    1W        W48380   0.780  13.956   6.281  0.0214 -0.0507 -0.2927
    1W        W48381  28.087  10.338   6.945  0.1187 -0.0555 -0.3396
    1W        W48382  28.106  22.072   6.359  0.0212  0.0518  0.0934
    1W        W48383   1.957   5.638   0.501  0.3620 -0.0930  0.1756
    1W        W48384   4.635  22.242   2.125  0.0313 -0.3059  0.0448
    1W        W48385  22.652  14.203   0.263  0.0477  0.2046 -0.0348
    1W        W48386  19.088  28.930   2.804 -0.2203 -0.1130  0.1143
    1W        W48387  21.513  23.116   0.481 -0.1153  0.2445 -0.1752
    1W        W48388   2.571  19.476   7.311 -0.0879 -0.1011 -0.1684
    1W        W48389  29.605  15.807   1.203  0.3596 -0.1879  0.2492
    1W        W48390   9.238  17.546   8.298  0.0327  0.0323  0.0108
    1W        W48391  11.018  19.679   1.778  0.5774 -0.1581  0.4133
    1W        W48392  14.185  16.848   8.621  0.1981 -0.0437 -0.0012
    1W        W48393   8.538   4.356   9.174  0.4714  0.0342  0.0814
    1W        W48394  15.780  15.548   9.365 -0.0243 -0.0335  0.0425
    1W        W48395  15.935   2.384   7.758  0.1553 -0.1329 -0.2510
    1W        W48396  14.315   9.179   2.302 -0.2798 -0.1023 -0.1922
    1W        W48397  22.385   8.112   2.099  0.0970  0.2841  0.0001
    1W        W48398  12.793   3.831   2.091  0.0879 -0.0424 -0.1268
    1W        W48399  12.763  29.012   2.076 -0.3189  0.0346 -0.0431
    1W        W48400  29.530  27.401   0.154  0.1091 -0.2168 -0.0063
    1W        W48401   5.178  25.892   0.891  0.0742  0.0821  0.3449
    1W        W48402  16.039  20.264   7.242 -0.0284  0.0730  0.1821
    1W        W48403   8.280  18.030   1.128 -0.1347  0.1264  0.0061
    1W        W48404   2.747   1.033   7.834 -0.1196  0.1087  0.0676
    1W        W48405  21.269   5.390   6.336 -0.0359 -0.2621 -0.0598
    1W        W48406  10.963  20.850   0.325 -0.0626  0.0944  0.0557
    1W        W48407   2.460  12.109   7.476 -0.0585  0.1898  0.3033
    1W        W48408  17.299  13.831   8.424  0.0654 -0.1946  0.0235
    1W        W48409   6.555  17.960   7.602  0.1338 -0.2158  0.3622
    1W        W48410  16.070  27.429   1.466 -0.1468  0.0488 -0.1744
    1W        W48411   4.532  20.658   8.957  0.0203  0.3571  0.1621
    1W        W48412   4.491   4.348   7.602 -0.1155 -0.0452 -0.0015
    1W        W48413  17.290  14.814   1.705  0.0629  0.0744  0.0862
    1W        W48414  12.507  19.302   8.623  0.2513 -0.0665  0.0371
    1W        W48415  26.859  14.514   8.444 -0.2032 -0.0550  0.1767
    1W        W48416  18.527  21.628   8.219  0.0893  0.1926 -0.0786
    1W        W48417  24.987  24.575   8.247 -0.2235  0.1582  0.1386
    1W        W48418   1.119  26.016   7.022 -0.1581 -0.0065  0.1727
    1W        W48419   5.122  21.698   8.503 -0.0692  0.2069  0.0899
    1W        W48420   6.393   8.477   1.570  0.3855 -0.0755  0.7842
    1W        W48421  17.178   6.940   0.498 -0.0859  0.0076  0.0379
    1W        W48422   7.811  18.565   8.102  0.1881 -0.1011  0.5223
    1W        W48423  23.981  16.336   7.607 -0.0821  0.0906  0.2296
    1W        W48424   9.638  11.201   0.243 -0.0568 -0.5050  0.1276
    1W        W48425  13.554   8.136   1.511 -0.2596 -0.1595 -0.2083
    1W        W48426   5.196  28.111   7.739  0.0557  0.1161  0.0034
    1W        W48427  11.193   2.511   1.771  0.1434  0.2557 -0.4117
    1W        W48428   2.193  24.001   6.322 -0.2596 -0.2010 -0.1618
    1W        W48429  25.916  23.021   6.808  0.0418  0.2101  0.0333
    1W        W48430   7.798  29.589   0.598  0.4267  0.1457  0.0422
    1W        W48431  15.518   2.525   7.531 -0.0618  0.2821  0.0263
    1W        W48432  29.325  19.466   6.170  0.2647 -0.0614  0.0562
    1W        W48433   3.700  18.302   0.580 -0.1719  0.0968 -0.2694
    1W        W48434  12.790  24.636   9.325  0.0951  0.1217 -0.2982
    1W        W48435  12.771   2.096   1.286  0.2161  0.1938 -0.0809
    1W        W48436  19.160   5.610   6.925  0.0046 -0.3023  0.2806
    1W        W48437  24.075   9.702   1.023  0.2289  0.0859 -0.0603
    1W        W48438  11.559   6.218   2.385 -0.2657  0.1771 -0.1531
    1W        W48439  16.252   4.086   7.884  0.0779  0.3018  0.0091
    1W        W48440  27.143  22.710   7.436 -0.0887 -0.3881  0.0329
    1W        W48441  27.239   6.912   2.882 -0.0134  0.1263  0.1743
    1W        W48442   5.463  12.012   2.166  0.1192 -0.0504  0.1186
    1W        W48443  27.826  19.851   7.468 -0.2219  0.2027  0.0685
    1W        W48444  26.775   4.107   9.356 -0.0059 -0.3332  0.0722
    1W        W48445  21.799  12.161   7.151  0.1689 -0.0473 -0.2260
    1W        W48446   4.375  11.614   7.629 -0.0168 -0.0176  0.0214
    1W        W48447  26.059  17.008   7.755  0.2508 -0.1938  0.2425
    1W        W48448  25.293  17.187   1.656  0.2185 -0.2999  0.1293
    1W        W48449  24.603  11.910   7.286  0.5151  0.1448  0.0135
    1W        W48450   4.645  28.736   7.188  0.0362 -0.0078 -0.0376
    1W        W48451  18.299   9.478   2.047 -0.1694 -0.0639 -0.0524
    1W        W48452  13.457  10.573   1.212  0.1865  0.2028  0.0571
    1W        W48453  27.098  27.915   1.933  0.0637  0.1144 -0.1351
    1W        W48454  26.100  27.564   6.992  0.1422  0.0449  0.3624
    1W        W48455   3.915   3.533   1.536 -0.0646 -0.0372 -0.3626
    1W        W48456  14.996  23.126   6.816  0.1393  0.0672 -0.0303
    1W        W48457  19.779  19.793   9.197  0.0696 -0.0149 -0.0940
    1W        W48458   6.227   3.957   2.477 -0.0090 -0.2302 -0.0136
    1W        W48459   7.330  15.074   7.578  0.1077  0.2522 -0.1713
    1W        W48460  17.300   3.616   2.161 -0.0342  0.1460 -0.0012
    1W        W48461  24.124  15.929   6.924 -0.0334  0.0052  0.1446
    1W        W48462   7.240   0.972   1.444 -0.0456 -0.0140 -0.0402
    1W        W48463  25.160  25.946   1.915 -0.0670 -0.0177  0.1314
    1W        W48464   5.330  22.979   7.856  0.3750  0.2104  0.2082
    1W        W48465  24.977  13.470   0.783 -0.0905  0.0500 -0.0670
    1W        W48466  11.780  14.950   1.828 -0.3487 -0.0239  0.1932
    1W        W48467  28.146  23.489   0.577  0.5734  0.0669  0.4318
    1W        W48468  22.331   4.876   2.408 -0.1877 -0.1438  0.1261
    1W        W48469   5.948   1.626   1.171 -0.3469 -0.0570 -0.1068
    1W        W48470  26.618  17.582   7.255  0.0790 -0.3402  0.1608
    1W        W48471  27.937  13.547   7.452 -0.0672  0.0171  0.2498
    1W        W48472  20.657   2.088   1.677 -0.3904  0.0414 -0.2289
    1W        W48473  12.955   2.221   0.209 -0.2967 -0.0441 -0.3119
    1W        W48474  22.830  28.347   2.845 -0.2254  0.1261 -0.2624
    1W        W48475   1.699  14.900   0.832 -0.0683  0.3658  0.3378
    1W        W48476  14.561  27.329   9.058 -0.0907  0.0679  0.3290
    1W        W48477  22.537  29.315   7.890  0.0381  0.2363  0.0296
    1W        W48478   9.465  23.114   7.569 -0.2084 -0.0180 -0.2917
    1W        W48479  23.173   1.315   8.601 -0.3737 -0.1492 -0.0214
    1W        W48480   9.063  21.769   9.044 -0.1441  0.0575  0.0504
    1W        W48481   2.052  18.368   0.125  0.1014 -0.0762 -0.0762
    1W        W48482  14.321  17.244   8.363 -0.0301  0.1150  0.1042
    1W        W48483  18.859   2.677   8.861 -0.2363 -0.2952 -0.1089
    1W        W48484  16.846  25.954   2.057 -0.2613  0.1609 -0.1216
    1W        W48485  29.465  14.062   7.398 -0.2239  0.2517 -0.6844
    1W        W48486   2.643  23.503   6.850 -0.1106 -0.1335  0.1430
    1W        W48487   1.009   5.866   0.403  0.1284  0.1099  0.2163
    1W        W48488  14.501  29.468   0.520 -0.0526  0.3330 -0.3010
    1W        W48489  15.383  15.857   0.577 -0.0971  0.0330  0.0248
    1W        W48490  19.040  29.533   1.731  0.1195 -0.0499 -0.2671
    1W        W48491   9.961  23.245   6.820 -0.2127  0.0344 -0.2632
    1W        W48492  13.700  22.525   9.367 -0.0108 -0.0829 -0.1177
    1W        W48493  11.489  21.158   2.003 -0.1402 -0.1310 -0.2700
    1W        W48494  19.898   0.821   3.506 -0.2444 -0.1130  0.0592
    1W        W48495  15.729   6.695   1.399  0.0795  0.0505  0.2965
    1W        W48496   0.581  14.847   6.500  0.3011  0.0027 -0.0673
    1W        W48497   0.071   7.121   9.239  0.0384 -0.1292  0.0822
    1W        W48498   8.911  29.265   7.932  0.6385 -0.0166  0.4541
    1W        W48499  22.358  24.126   0.046  0.0918  0.1449  0.1925
    1W        W48500   8.677  10.165   1.908  0.0830  0.0326 -0.0580
    1W        W48501  24.048  22.402   0.687 -0.1340 -0.1105 -0.1549
    1W        W48502  21.861   7.896   7.020  0.1270 -0.3430  0.0345
    1W        W48503  14.298   3.262   6.856  0.3063 -0.0051 -0.0503
    1W        W48504  11.646   8.392   7.374 -0.3130  0.1577  0.0141
    1W        W48505   1.278   4.635   2.464  0.2141 -0.0658  0.2533
    1W        W48506   8.891   2.622   8.436 -0.0285 -0.1802  0.1318
    1W        W48507  20.298  16.765   7.740  0.2652  0.0539  0.1358
    1W        W48508   6.260  15.205   7.679  0.0439 -0.0904 -0.0233
    1W        W48509   3.100  17.864   6.015 -0.0534 -0.4533  0.3234
    1W        W48510  21.167  18.991   7.714  0.0122 -0.2916  0.0114
    1W        W48511  25.196   6.876   1.295 -0.1494  0.0468 -0.1142
    1W        W48512  27.194  17.107   9.221 -0.0193 -0.0919 -0.0354
    1W        W48513   7.633  18.193   8.408 -0.0004  0.0470  0.0936
    1W        W48514  20.794   5.430   2.783  0.1031 -0.1480 -0.1264
    1W        W48515   3.487  19.619   1.035 -0.2346  0.3109 -0.0647
    1W        W48516   8.218   6.573   3.906 -0.0877 -0.0127 -0.2653
    1W        W48517  19.831  12.092   8.304  0.1917 -0.1539 -0.0166
    1W        W48518  14.719   4.867   7.132 -0.1002  0.2755 -0.2159
    1W        W48519  23.514  22.063   0.773  0.0803 -0.0773 -0.0782
    1W        W48520  14.396   7.965   0.561 -0.0090 -0.0020  0.1212
    1W        W48521  15.236   1.020   8.060 -0.1520  0.2365 -0.0896
    1W        W48522  11.985  12.335   7.315  0.0224  0.2508  0.1029
    1W        W48523   1.441   8.014   0.792  0.0884  0.0227 -0.1040
    1W        W48524  27.008   3.147   1.612 -0.1245 -0.4665  0.0816
    1W        W48525   7.540  23.852   8.909 -0.1952 -0.0468  0.1061
    1W        W48526   3.609   0.889   0.018  0.0092  0.0042 -0.0606
    1W        W48527   0.064   6.970   7.150 -0.0650 -0.1635  0.0943
    1W        W48528  27.359   2.805   7.091  0.2862  0.0149 -0.3111
    1W        W48529  27.769  23.071   8.671 -0.0344  0.2181  0.0559
    1W        W48530   9.239  27.950   1.532  0.2850  0.3558 -0.1093
    1W        W48531  20.417  20.078   0.969 -0.1052 -0.0531  0.3416
    1W        W48532   9.645  16.498   8.297  0.0753 -0.2188  0.0148
    1W        W48533   7.352  19.831   6.620  0.1067  0.1812 -0.0627
    1W        W48534  26.191  20.816   1.874  0.2517  0.0242  0.1614
    1W        W48535  22.803  18.709   6.919 -0.0255  0.1488  0.0161
    1W        W48536  13.659   3.474   8.004 -0.1243  0.2556  0.1124
    1W        W48537  19.283  21.102   7.270  0.4234  0.1161 -0.0027
    1W        W48538  22.399  23.385   2.336 -0.0995  0.0495  0.1769
    1W        W48539  11.963   6.624   8.656 -0.1652 -0.0459 -0.0511
    1W        W48540  22.061  12.028   6.741  0.0269  0.0465  0.0449
    1W        W48541  25.091  22.610   1.502  0.1836  0.1880  0.1319
    1W        W48542  21.425  28.109   1.659 -0.0505 -0.1850  0.0998
    1W        W48543   0.842   4.457   8.455  0.0549  0.0278  0.3404
    1W        W48544   3.127   1.181   8.737 -0.1465  0.0476  0.1217
    1W        W48545  20.625  16.302   7.018 -0.0709  0.0603  0.2346
    1W        W48546  25.679   2.840   2.920  0.0611  0.0587  0.0889
    1W        W48547   5.885   5.339   7.298 -0.1131  0.0859  0.1176
    1W        W48548  18.885  19.193   0.238 -0.1315 -0.1368  0.1054
    1W        W48549  21.150   9.862   6.987 -0.1713  0.1794 -0.1978
    1W        W48550   1.386  28.441   7.157 -0.1144 -0.2638  0.1247
    1W        W48551  13.589  15.566   1.848  0.3243 -0.1275  0.0794
    1W        W48552  16.868  26.491   7.738 -0.1170  0.0351  0.0115
    1W        W48553  17.618  11.633   1.208 -0.2106  0.2156 -0.0855
    1W        W48554   6.600  12.372   8.388 -0.1159  0.2435  0.0704
    1W        W48555   3.860  16.043   7.776 -0.1197 -0.1716  0.0639
    1W        W48556  11.093   5.493   7.096 -0.0136  0.1450 -0.3471
    1W        W48557   7.428  23.797   8.415  0.3017  0.0444  0.0796
    1W        W48558  15.055  24.362   6.177 -0.0268  0.0056  0.0038
    1W        W48559  23.479  14.539   0.073 -0.1123  0.2673 -0.1216
    1W        W48560  13.751   0.736   3.416  0.1327  0.0031 -0.2473
    1W        W48561   6.563  19.024   0.949 -0.1272 -0.0732  0.0284
    1W        W48562  29.327  12.303   2.489 -0.1645  0.0559  0.2841
    1W        W48563  16.696  28.833   9.329  0.0828  0.1398  0.0754
    1W        W48564   7.343  28.744   6.767  0.0613 -0.0447 -0.3231
    1W        W48565   0.522  18.103   6.241 -0.1545  0.1066  0.0740
    1W        W48566  28.479  23.979   1.042 -0.2438  0.0761  0.1981
    1W        W48567   5.612   9.158   7.127  0.1022  0.2497 -0.4219
    1W        W48568  13.340  14.914   0.289 -0.2640  0.2973 -0.1931
    1W        W48569   7.435   7.344   9.184  0.0234  0.0531 -0.0085
    1W        W48570   2.639  11.156   7.054 -0.2337 -0.0115 -0.0761
    1W        W48571  20.879   5.028   3.125  0.1914  0.0418 -0.1043
    1W        W48572   2.314  26.049   0.031  0.0842  0.1478 -0.0761
    1W        W48573   0.421  13.842   5.543  0.1736 -0.2068 -0.3436
    1W        W48574  15.724   0.635   2.653  0.3581  0.2125 -0.0150
    1W        W48575   0.214  23.505   0.199 -0.1342  0.0771  0.0085
    1W        W48576   3.156  13.886   7.107  0.5213 -0.1547 -0.0065
    1W        W48577  26.073  28.861   1.566 -0.2348 -0.1130  0.0722
    1W        W48578  26.665  26.320   2.987 -0.0807  0.1199  0.0602
    1W        W48579  11.770  17.347   2.023 -0.3690 -0.4110  0.2300
    1W        W48580   2.947  17.727   8.279 -0.0233 -0.1389 -0.0807
    1W        W48581  22.397  13.866   9.437 -0.4645 -0.0425 -0.0494
    1W        W48582   0.288   7.968   0.073 -0.1662  0.2005  0.0578
    1W        W48583  14.599  22.137   2.075  0.1451 -0.2453 -0.1174
    1W        W48584   4.956  29.237   1.568 -0.0571  0.2947 -0.1007
    1W        W48585  12.478  21.458   7.330 -0.0352 -0.0960 -0.1933
    1W        W48586   1.503  17.363   1.119 -0.0753 -0.0657  0.1664
    1W        W48587  17.922  22.396   1.515  0.1360  0.1484 -0.1795
    1W        W48588  22.414   7.231   9.288 -0.2599  0.1438 -0.0494
    1W        W48589   6.488   2.593   1.889 -0.1746 -0.2718  0.3806
    1W        W48590   0.999  29.661   2.650 -0.1426 -0.0407  0.1375
    1W        W48591  14.459   2.606   1.698 -0.0512 -0.2230 -0.0940
    1W        W48592  28.332  26.287   7.717 -0.1668 -0.3162  0.3144
    1W        W48593   0.655  11.976   1.749  0.3939 -0.0352  0.1119
    1W        W48594  27.469  24.032   7.340  0.0223  0.1299  0.1173
    1W        W48595  11.693  27.433   7.095  0.1559 -0.2700  0.1627
    1W        W48596  12.921  26.953   7.990  0.2630  0.1309 -0.0884
    1W        W48597  27.474  29.730   7.926  0.0922  0.0604  0.2553
    1W        W48598   7.184  22.701   0.108 -0.2288 -0.0928  0.0289
    1W        W48599   9.919  16.673   2.291  0.2435  0.0650  0.0236
    1W        W48600  14.481   5.531   3.443  0.2236  0.0442  0.0194
    1W        W48601  25.930   2.525   8.876  0.0111 -0.0835  0.5166
    1W        W48602  29.016  18.078   1.217  0.0130  0.2317 -0.1565
    1W        W48603   0.100  10.266   2.304 -0.1005  0.1238 -0.1300
    1W        W48604   1.067  13.389   2.039  0.1284  0.2366 -0.3057
    1W        W48605   3.214  17.020   0.907 -0.0994 -0.2472  0.0763
    1W        W48606  17.879   2.305   0.153 -0.1009 -0.3263 -0.2069
    1W        W48607  20.293  27.890   9.115 -0.1309 -0.2210 -0.1566
    1W        W48608  21.150  18.110   0.696  0.3223 -0.1110  0.0199
    1W        W48609  10.788  12.795   1.194 -0.1441 -0.0262  0.2386
    1W        W48610  21.296  24.678   8.323 -0.2229  0.0327  0.0666
    1W        W48611  22.905   0.407   8.268  0.2697 -0.0555  0.0985
    1W        W48612   6.436   9.505   6.916 -0.2907  0.3675 -0.0854
    1W        W48613   7.957  27.208   9.329  0.1838 -0.1139 -0.0621
    1W        W48614  25.899  17.432   8.053 -0.0646 -0.0722 -0.1424
    1W        W48615  26.881   4.035   8.166 -0.3252  0.1422  0.1723
    1W        W48616  22.376   1.668   6.807 -0.1828 -0.2788 -0.0273
    1W        W48617  18.569   8.425   7.521  0.1872  0.2727 -0.1269
    1W        W48618  14.102  14.867   7.550 -0.0208  0.0574  0.0941
    1W        W48619   1.486  23.914   7.493 -0.1253  0.0487 -0.1490
    1W        W48620   9.382  19.570   6.910  0.0988 -0.3096 -0.0340
    1W        W48621  20.467  14.288   0.634  0.4824  0.0552  0.0540
    1W        W48622  22.078   1.194   2.707 -0.4201  0.0828  0.1345
    1W        W48623   5.385  26.486   7.280 -0.3643  0.2084 -0.0843
    1W        W48624  16.650  27.934   9.066 -0.2566 -0.1305  0.1122
    1W        W48625  26.446   4.092   8.477 -0.0590 -0.0092 -0.1707
    1W        W48626   1.539   1.061   0.244  0.1460 -0.1296  0.1687
    1W        W48627  27.105  15.901   7.797 -0.0355  0.1506 -0.2510
    1W        W48628  14.139  15.308   7.745  0.0822  0.0747  0.0707
    1W        W48629  16.634  18.925   0.898 -0.3394 -0.1389  0.2716
    1W        W48630  19.055  22.514   8.432  0.0255  0.0164  0.2504
    1W        W48631  16.815  24.986   1.660 -0.0166  0.0425  0.0665
    1W        W48632  19.538  25.358   1.912  0.1030  0.0490 -0.0730
    1W        W48633  16.608  13.155   8.981 -0.2415 -0.1964 -0.1189
    1W        W48634   0.001   7.539   6.977  0.1052 -0.2144  0.1472
    1W        W48635  13.679  20.328   0.597 -0.1289  0.0131  0.0129
    1W        W48636   3.535  22.434   2.158  0.1463 -0.0685 -0.1752
    1W        W48637  11.551   0.643   8.086  0.1373  0.0566 -0.0410
    1W        W48638  25.761  11.960   7.717 -0.1533 -0.0657 -0.1643
    1W        W48639   2.461   5.529   9.342  0.0554  0.0197 -0.1660
    1W        W48640   3.084  19.224   8.068  0.0099  0.1248  0.1621
    1W        W48641   2.048  11.776   7.388 -0.0720 -0.0178 -0.1931
    1W        W48642   8.835  27.688   1.564  0.0253  0.2345 -0.1944
    1W        W48643  13.292  22.957   1.226  0.0321 -0.0555  0.0949
    1W        W48644  18.133   2.460   7.637  0.2448 -0.2325  0.0817
    1W        W48645  14.201  17.489   9.182 -0.2781 -0.0866  0.1334
    1W        W48646  11.696  15.810   1.139 -0.0083 -0.1163 -0.3344
    1W        W48647  15.406  26.641   8.755  0.1316  0.0171  0.1705
    1W        W48648  26.258  16.497   0.848 -0.1893 -0.1697  0.0201
    1W        W48649  29.006  19.414   0.562 -0.1059 -0.0196 -0.2782
    1W        W48650  12.529   7.001   2.734  0.0745  0.0666  0.2282
    1W        W48651  18.179  22.022   2.179  0.1225 -0.0386 -0.0158
    1W        W48652  13.784  24.414   1.779 -0.0344  0.0637  0.2928
    1W        W48653   7.745  17.375   1.311  0.1493  0.0857  0.0834
    1W        W48654  11.996   7.594   8.945  0.1803 -0.0883 -0.1722
    1W        W48655  11.094  19.812   7.301 -0.2280  0.2859  0.1417
    1W        W48656   8.298   2.628   8.924  0.0017 -0.0447  0.0147
    1W        W48657  23.364   9.280   7.978  0.1342 -0.0701  0.0508
    1W        W48658   9.942  12.742   2.640  0.2400 -0.1411  0.1075
    1W        W48659   2.216  25.276   1.885 -0.3314 -0.2741  0.1959
    1W        W48660  26.996  28.829   7.442 -0.0081  0.0120 -0.1373
    1W        W48661  25.460  11.850   7.310  0.2444  0.1828 -0.0548
    1W        W48662  10.580   2.729   0.016 -0.1392 -0.2718 -0.2151
    1W        W48663  19.969  28.120   7.042 -0.3120  0.2375  0.2641
    1W        W48664   5.468  14.665   0.352 -0.0105 -0.4780 -0.3036
    1W        W48665  23.491   4.290   2.233  0.1986 -0.0171  0.1627
    1W        W48666  17.855   0.639   7.145  0.3455  0.3353 -0.2046
    1W        W48667  19.846  10.401   8.773  0.2876  0.2757 -0.1321
    1W        W48668  25.773   2.289   2.058 -0.0025  0.0821 -0.1720
    1W        W48669  10.050   4.789   9.251 -0.1138  0.1950  0.5408
    1W        W48670  18.667  20.871   1.092  0.3825  0.1983 -0.2521
    1W        W48671   5.152  24.331   6.741  0.1283  0.0331 -0.0565
    1W        W48672   4.107  17.199   9.215 -0.2234 -0.0221 -0.1268
    1W        W48673  20.981  11.918   8.492 -0.2194  0.0102 -0.1552
    1W        W48674  23.854  29.537   3.326  0.2625  0.2092 -0.0044
    1W        W48675  16.091  18.572   1.581 -0.0708 -0.0480  0.2683
    1W        W48676  21.070  11.680   1.093 -0.0246 -0.0567 -0.3569
    1W        W48677  17.719  17.885   1.728 -0.1595 -0.0595 -0.2962
    1W        W48678  27.017  22.696   0.080  0.1221 -0.1301 -0.1023
    1W        W48679  18.823  20.285   8.884  0.0427 -0.2762 -0.0859
    1W        W48680   4.763  20.671   7.209 -0.0547  0.0471  0.3367
    1W        W48681  10.672  17.445   6.585 -0.1474 -0.0560 -0.3928
    1W        W48682  16.728  22.473   6.627  0.0306 -0.0063  0.0049
    1W        W48683   2.698   4.250   1.583  0.4218  0.3432 -0.1462
    1W        W48684  27.377   7.011   0.160 -0.0073  0.0044  0.1027
    1W        W48685  14.703  14.689   9.447 -0.0230  0.0465  0.0659
    1W        W48686  29.173   1.849   7.537  0.0375 -0.1362 -0.3018
    1W        W48687  27.286   0.240   2.308 -0.1534  0.0178  0.3424
    1W        W48688  23.837  13.094   8.169 -0.0069  0.1311  0.0392
    1W        W48689  10.068   8.178   0.344  0.0681  0.0659 -0.3249
    1W        W48690  22.826  17.231   1.036 -0.0224 -0.1662 -0.2058
    1W        W48691  29.496  10.369   6.994 -0.0799  0.1422  0.0419
    1W        W48692   1.720  14.011   1.599 -0.2606 -0.1463 -0.0003
    1W        W48693  25.548  25.240   2.729 -0.1297 -0.0618  0.1040
    1W        W48694   8.699  25.906   0.945  0.2605 -0.0062 -0.0266
    1W        W48695  16.179  28.704   0.281 -0.2259 -0.0352  0.1570
    1W        W48696  29.821  28.952   1.112 -0.2117 -0.1703 -0.2181
    1W        W48697   6.765  29.227   7.951 -0.1727  0.1127 -0.2956
    1W        W48698  19.426  11.835   6.815  0.0217  0.0890  0.1330
    1W        W48699  29.332  10.063   6.223  0.0731  0.0216  0.0117
    1W        W48700  15.580  27.088   1.877 -0.0542 -0.0587 -0.2081
    1W        W48701  13.626  10.482   9.370  0.4074 -0.0719 -0.1638
    1W        W48702  18.741   1.011   6.799 -0.3606  0.0320  0.5750
    1W        W48703  18.774  29.241   8.856  0.2122  0.3829 -0.1721
    1W        W48704  11.182  17.408   7.430 -0.3123  0.1208  0.2177
    1W        W48705  17.722   2.190   7.276  0.0600 -0.2123 -0.0904
    1W        W48706   6.088  26.232   8.938 -0.0621  0.1045 -0.0818
    1W        W48707   8.495  14.385   7.178 -0.4157 -0.0498 -0.3002
    1W        W48708   0.204  18.700   1.051 -0.1318  0.0429  0.1251
    1W        W48709  16.269  27.690   1.841 -0.0894 -0.1125  0.1437
    1W        W48710   9.547  25.726   1.459  0.0528 -0.1423  0.0512
    1W        W48711   3.200  16.249   0.869 -0.0081  0.3000 -0.0331
    1W        W48712  15.074   5.977   0.261 -0.3329  0.1334  0.2964
    1W        W48713  20.838   5.577   1.237 -0.0173 -0.1903 -0.2577
    1W        W48714   8.463   9.229   3.596  0.4089  0.0798 -0.0787
    1W        W48715   9.049  13.852   8.375 -0.1090  0.2301 -0.1953
    1W        W48716  24.037   4.201   2.356 -0.0201  0.1136 -0.5387
    1W        W48717   1.000  20.662   7.370 -0.1074 -0.0879 -0.3240
    1W        W48718   8.841   7.457   7.585  0.0301  0.2503 -0.0793
    1W        W48719   7.540  25.241   7.507  0.1023  0.0395  0.0572
    1W        W48720   2.958   2.123   9.095  0.1317  0.3445  0.1824
    1W        W48721  12.406  18.636   8.402  0.2961  0.0196 -0.2482
    1W        W48722  15.386  13.251   0.134 -0.1313  0.0122  0.1107
    1W        W48723  11.830  10.058   8.044  0.1541 -0.0004 -0.1173
    1W        W48724  18.549   2.716   2.052  0.4624  0.0281 -0.0399
    1W        W48725  27.346  23.595   7.078 -0.1554 -0.0700  0.0317
    1W        W48726   7.010  19.463   0.185 -0.0664  0.1853  0.2707
    1W        W48727  23.639   8.782   0.953 -0.3239  0.1861  0.0878
    1W        W48728  10.876   3.075   1.867 -0.0409 -0.1911  0.1689
    1W        W48729  13.494   1.513   1.703 -0.0323  0.0338 -0.0788
    1W        W48730   5.796  14.544   5.777 -0.2012 -0.2934 -0.0282
    1W        W48731  24.034  27.317   1.936  0.2785 -0.2404  0.0367
    1W        W48732  27.111  29.635   8.450 -0.0183 -0.0200  0.0758
    1W        W48733   5.639   8.125   7.759 -0.1383  0.1336 -0.0945
    1W        W48734  28.232  25.553   0.911  0.0126 -0.0668 -0.0624
    1W        W48735   7.890   1.386   1.030  0.1526 -0.1882  0.0920
    1W        W48736   6.256  27.205   2.603  0.0113 -0.3070  0.1163
    1W        W48737   7.672   5.492   2.335  0.2944  0.0475  0.3575
    1W        W48738   2.573  17.783   9.332  0.3305 -0.0967 -0.4547
    1W        W48739  24.423   2.521   3.693 -0.0942 -0.0567 -0.0519
    1W        W48740  25.564  10.182   7.255  0.0244  0.0968 -0.0858
    1W        W48741  10.465   1.337   0.016 -0.1467  0.0544 -0.0115
    1W        W48742   4.550  10.185   6.634 -0.0685 -0.0674 -0.0276
    1W        W48743   3.232  26.857   8.280 -0.0561 -0.2868 -0.2671
    1W        W48744  23.799  22.192   2.175  0.1022  0.2792  0.0726
    1W        W48745  29.440   3.705   0.930 -0.3298 -0.2681  0.0479
    1W        W48746   8.572  11.681   1.168  0.1152  0.3253  0.1117
    1W        W48747  24.901   8.254   0.618 -0.0726 -0.0059 -0.1630
    1W        W48748  14.634  25.402   2.674 -0.5151  0.0612  0.1002
    1W        W48749  24.021  21.016   9.306  0.0771  0.0575 -0.2473
    1W        W48750  10.467  29.675   8.195 -0.2099  0.0020  0.1482
    1W        W48751  15.880  22.545   1.981 -0.1610 -0.3085 -0.0733
    1W        W48752  13.848  19.420   7.004  0.2619  0.1087 -0.2441
    1W        W48753  11.444  15.237   8.858 -0.2127  0.2691 -0.2253
    1W        W48754   2.918  15.777   0.888 -0.0396  0.0791 -0.3461
    1W        W48755  11.177   4.965   1.996  0.0914  0.1259 -0.2628
    1W        W48756  24.504  17.737   1.974 -0.0707  0.3224  0.1445
    1W        W48757   5.266   5.334   1.489 -0.1338 -0.0861  0.1505
    1W        W48758   2.105  13.726   7.728  0.0929  0.3423 -0.1643
    1W        W48759  29.723   1.699   8.254 -0.0571 -0.0452 -0.0184
    1W        W48760  22.983   0.105   1.246  0.1164 -0.2319 -0.0854
    1W        W48761  12.956   9.932   1.551  0.3065  0.2312 -0.0575
    1W        W48762   1.440  21.191   8.267  0.2632  0.2848 -0.2717
    1W        W48763  17.761  28.672   1.644 -0.0898 -0.1233  0.2554
    1W        W48764   4.875  11.042   8.597 -0.0864  0.3227  0.1951
    1W        W48765  22.460  19.380   7.589 -0.0613 -0.0850 -0.0647
    1W        W48766  18.778  23.822   1.479 -0.2658  0.0691 -0.0556
    1W        W48767  19.162  19.621   0.129 -0.1928  0.1721 -0.0895
    1W        W48768  18.156  13.786   1.941  0.5323  0.2219  0.0515
    1W        W48769  19.750  17.446   1.938  0.1342 -0.0709  0.0778
    1W        W48770  25.665  19.696   0.146 -0.1433 -0.1104 -0.2751
    1W        W48771  29.066   2.747   9.255  0.0255 -0.1904 -0.1472
    1W        W48772  10.850   8.155   7.021 -0.0430  0.1455 -0.3052
    1W        W48773  13.638  23.393   0.232  0.0357  0.0162  0.2652
    1W        W48774  14.226   4.048   8.760 -0.2109 -0.0452  0.1960
    1W        W48775  26.831   6.082   2.640  0.0608 -0.0103 -0.0312
    1W        W48776   1.549   8.874   1.774 -0.2483  0.0919 -0.0207
    1W        W48777  12.127   4.552   1.852  0.2711  0.1544  0.6606
    1W        W48778  26.874   4.191   7.085  0.1014 -0.0926  0.0310
    1W        W48779  11.385  17.286   9.153  0.1457 -0.0067  0.0080
    1W        W48780  22.334  15.465   8.634  0.3437 -0.3429 -0.4021
    1W        W48781  12.136  28.187   3.523 -0.4972  0.0341  0.1729
    1W        W48782  25.686   2.339   2.858 -0.0232 -0.0628  0.0976
    1W        W48783   2.200  14.091   1.276  0.0425 -0.3407  0.1401
    1W        W48784  20.700   5.010   2.447 -0.2202  0.0074  0.3310
    1W        W48785  19.891   5.250   0.706 -0.1363  0.2402  0.2630
    1W        W48786   5.675   5.374   8.550 -0.0234  0.0767 -0.1498
    1W        W48787  13.432  17.572   0.388  0.1808 -0.1651  0.3102
    1W        W48788   9.053  29.770   2.627 -0.2030 -0.0633  0.0098
    1W        W48789   0.040   4.667   0.409  0.1898 -0.1373 -0.0710
    1W        W48790   6.728  29.775   8.127  0.1959  0.1713 -0.0469
    1W        W48791  25.490  11.001   0.412  0.1770 -0.2230  0.2127
    1W        W48792  11.697  14.488   1.563 -0.1357 -0.0791  0.2947
    1W        W48793  24.103  17.977   7.836 -0.0836  0.0597  0.2278
    1W        W48794  29.279   7.729   9.412  0.1230 -0.2269  0.0104
    1W        W48795   8.724   3.116   0.197 -0.2415 -0.0264 -0.0985
    1W        W48796   8.142  26.837   0.911 -0.0002 -0.2564  0.2574
    1W        W48797  12.043  21.200   7.346 -0.5426 -0.2763  0.0962
    1W        W48798   8.338  15.198   8.065 -0.2235  0.3235  0.1052
    1W        W48799  18.309  28.377   0.463 -0.2483 -0.1213  0.0962
    1W        W48800  25.463   8.164   2.105  0.1335  0.1218  0.0032
    1W        W48801  12.125   7.207   3.058  0.1412  0.2314  0.1403
    1W        W48802  20.768   4.452   7.895  0.3093  0.0680 -0.0495
    1W        W48803  29.124   4.663   7.350 -0.2797 -0.1641  0.1566
    1W        W48804  29.715  15.501   7.659  0.1609  0.1260  0.1069
    1W        W48805   2.574  13.445   7.621  0.2110 -0.1887 -0.0643
    1W        W48806  22.605  16.893   0.345 -0.1673 -0.0253  0.1603
    1W        W48807  26.862  20.218   0.644  0.0346 -0.0581  0.1076
    1W        W48808  13.906  20.427   9.109 -0.2019 -0.0972 -0.0345
    1W        W48809   3.602  14.785   0.617 -0.1677 -0.0553 -0.0650
    1W        W48810  18.823  27.381   7.305 -0.0495 -0.1654 -0.3694
    1W        W48811  27.371   8.683   1.437  0.1273  0.0759 -0.2065
    1W        W48812  20.332   9.437   7.975 -0.1910  0.0170  0.0735
    1W        W48813  13.006  13.029   7.383  0.4234  0.0303  0.0492
    1W        W48814  15.391  27.544   2.835  0.0489  0.1359  0.0662
    1W        W48815  17.842   3.987   6.946  0.5590  0.0613 -0.2144
    1W        W48816   3.626  17.877   1.506  0.3461  0.0029  0.1162
    1W        W48817  11.198   3.135   2.489 -0.0835 -0.1128  0.1985
    1W        W48818   2.879   7.922   7.615  0.0095  0.3016 -0.1930
    1W        W48819  23.727   8.045   0.015  0.2438 -0.0276 -0.1645
    1W        W48820   9.907   3.483   1.748  0.0486  0.0487  0.2793
    1W        W48821  11.401   1.096   9.193 -0.2236 -0.0167  0.5438
    1W        W48822  10.070   9.135   0.189 -0.1503  0.0833  0.0776
    1W        W48823   7.786   5.130   8.192 -0.2178  0.0328 -0.1891
    1W        W48824  12.051  16.720   8.186  0.0705  0.4737 -0.1477
    1W        W48825   9.841   0.286   0.279  0.1332 -0.1558  0.0237
    1W        W48826  12.897  22.591   8.947 -0.0318 -0.1654 -0.2584
    1W        W48827  24.980  15.041   6.743 -0.1857  0.2409  0.0119
    1W        W48828  21.511   9.484   6.918  0.3462  0.4579  0.4409
    1W        W48829  26.889   9.743   7.176  0.1529 -0.0374  0.0438
    1W        W48830   6.026  25.052   7.838 -0.2474  0.1202 -0.2758
    1W        W48831  16.914   7.652   8.466 -0.0697  0.1814 -0.1743
    1W        W48832   6.784  18.544   8.220  0.4256  0.1350 -0.4155
    1W        W48833  16.975  28.303   9.375  0.1023 -0.1733 -0.0735
    1W        W48834   1.617  12.855   9.240  0.1052 -0.1653 -0.0083
    1W        W48835   9.690   9.245   8.688 -0.0947  0.2787  0.2942
    1W        W48836   1.771   6.569   0.350 -0.0683  0.0117  0.0495
    1W        W48837  11.464   7.588   8.483 -0.0226  0.1615  0.1853
    1W        W48838   5.519  15.624   8.497  0.1363 -0.0562  0.3293
    1W        W48839  17.290   8.284   7.368  0.1350 -0.3063 -0.2661
    1W        W48840  27.696  21.050   8.806 -0.1068 -0.2490  0.4122
    1W        W48841  29.056   6.579   7.110 -0.1545  0.0524 -0.2546
    1W        W48842   4.217  11.213   7.360 -0.1507  0.1975 -0.0036
    1W        W48843  26.322  20.570   6.822 -0.0247  0.2087 -0.1533
    1W        W48844  18.330   1.631   2.190  0.2656  0.0482 -0.2896
    1W        W48845  12.666  16.246   0.595 -0.0121 -0.2034  0.0553
    1W        W48846  26.763  23.291   0.015  0.0409 -0.0412 -0.2331
    1W        W48847   6.507  17.599   8.962 -0.2308  0.1660 -0.1709
    1W        W48848  27.796   9.372   9.067  0.0728  0.2783 -0.2071
    1W        W48849  12.881  17.611   1.717 -0.0315 -0.1279  0.1641
    1W        W48850   9.520   4.933   8.993  0.2690  0.2966 -0.1950
    1W        W48851  27.524  16.685   6.840  0.2534 -0.0503 -0.0878
    1W        W48852  14.991   9.220   7.613  0.3354 -0.2631  0.0093
    1W        W48853  22.603  11.035   0.182 -0.0661  0.0313  0.0702
    1W        W48854   9.632   0.052   8.984 -0.0123 -0.1294  0.4482
    1W        W48855  16.202   4.433   2.017  0.1532  0.1940 -0.1110
    1W        W48856   0.774   9.956   7.378 -0.1209  0.0117 -0.0172
    1W        W48857  16.651   9.734   9.377 -0.0985 -0.3323 -0.1519
    1W        W48858  18.253   3.646   2.336  0.1818  0.0808  0.3375
    1W        W48859   3.381  16.321   5.828  0.1677 -0.2113  0.1728
    1W        W48860  21.907  11.495   8.205  0.1012  0.0410 -0.2215
    1W        W48861  24.279   7.168   7.301  0.2633  0.0406  0.0348
    1W        W48862  13.143   8.582   1.679  0.4304  0.0879  0.0059
    1W        W48863   6.866  10.495   1.741  0.1406  0.0123  0.0256
    1W        W48864  29.834   2.004   1.535 -0.1639 -0.2472 -0.0049
    1W        W48865  22.325  28.435   0.341 -0.0360  0.0452  0.2422
    1W        W48866  14.639  27.826   8.782 -0.0018  0.1837 -0.2639
    1W        W48867  16.403   5.510   2.473 -0.1735  0.2671  0.0643
    1W        W48868   3.442  15.091   7.201  0.3444  0.2065  0.1335
    1W        W48869   7.102   7.302   8.141  0.0053 -0.1550 -0.1334
    1W        W48870  16.641  17.919   8.021 -0.3285  0.0516 -0.0169
    1W        W48871  24.444   6.716   2.611 -0.2799  0.1171 -0.2196
    1W        W48872   6.032   0.222   1.446 -0.1550  0.2103 -0.2203
    1W        W48873  16.025  28.626   7.728 -0.3049 -0.3615  0.1513
    1W        W48874   6.172  15.892   0.955 -0.0520  0.0848  0.0803
    1W        W48875  13.424  27.697   1.706 -0.1159  0.1426 -0.0593
    1W        W48876  27.565   6.622   9.067  0.0159  0.1688 -0.2718
    1W        W48877   7.739  24.178   8.148 -0.1497 -0.0303  0.1336
    1W        W48878  29.770  22.839   7.696 -0.3365  0.1935 -0.1100
    1W        W48879  29.304  27.669   9.176 -0.3106  0.0581 -0.0239
    1W        W48880  26.947   9.228   8.972 -0.3443  0.1083 -0.0806
    1W        W48881  18.133  25.395   0.389 -0.6054 -0.1110  0.3322
    1W        W48882   5.683  25.063   1.651  0.1951 -0.0420  0.3998
    1W        W48883  15.762  19.271   7.379 -0.1060  0.2328 -0.1153
    1W        W48884  26.258  22.213   0.507  0.0902 -0.4888 -0.1010
    1W        W48885  27.718  10.374   9.288 -0.1405 -0.0188 -0.2091
    1W        W48886  17.970  12.295   0.578 -0.2035 -0.0615 -0.0864
    1W        W48887  20.866  21.414   2.915  0.0472  0.0858  0.1637
    1W        W48888  23.484  11.100   8.641  0.0524 -0.2604 -0.1289
    1W        W48889   4.489   9.999   2.471  0.0463 -0.2112  0.2120
    1W        W48890  14.882   3.421   3.520 -0.0641 -0.3157  0.2816
    1W        W48891  23.532  12.525   1.332  0.1276 -0.0322 -0.0402
    1W        W48892  21.721  22.347   8.571  0.0667 -0.2515  0.1668
    1W        W48893  14.162   5.735   2.500  0.1221  0.1850  0.1637
    1W        W48894  17.103  19.187   8.329  0.0293 -0.0139 -0.0579
    1W        W48895  14.869  28.321   8.052 -0.1824  0.0597 -0.0468
    1W        W48896   7.173  18.209   0.330  0.0171  0.0628  0.0680
    1W        W48897  11.508  21.896   9.216  0.0020 -0.3443  0.0157
    1W        W48898  13.794  11.572   7.612  0.0323 -0.1693 -0.2317
    1W        W48899   5.292  12.952   8.650  0.4616 -0.1482 -0.1609
    1W        W48900  21.364  20.336   1.291 -0.1560  0.2476 -0.2071
    1W        W48901   5.049   1.574   2.224 -0.4940  0.1952 -0.1235
    1W        W48902  12.419  15.144   7.263  0.2788 -0.2045 -0.0194
    1W        W48903  26.727   1.487   0.187 -0.0584  0.2762  0.0378
    1W        W48904   9.489   2.527   8.298 -0.1597  0.0658 -0.1111
    1W        W48905  25.875   7.487   3.063  0.2550  0.3389 -0.1752
    1W        W48906  12.721  18.774   2.047  0.0859  0.1512  0.1461
    1W        W48907  28.553  22.490   6.324 -0.0311  0.0339 -0.0063
    1W        W48908   9.981   0.104   7.057 -0.0711  0.1411 -0.1384
    1W        W48909  24.516   6.077   0.522 -0.3296  0.1798  0.0260
    1W        W48910  21.710   3.684   8.965 -0.0459 -0.0244 -0.0632
    1W        W48911  19.447   2.953   0.826  0.3032 -0.0685 -0.2090
    1W        W48912   0.111  21.477   0.792  0.2572 -0.0189  0.1645
    1W        W48913  28.412  28.395   7.603  0.1000 -0.0019 -0.2648
    1W        W48914  23.424   5.479   7.879 -0.0584 -0.0290  0.2654
    1W        W48915  29.685  17.069   7.911 -0.1478  0.2463  0.0098
    1W        W48916  16.259  17.345   6.726 -0.0347  0.0704 -0.0115
    1W        W48917   5.925  24.256   0.990  0.2855 -0.0213  0.0883
    1W        W48918  24.218  15.065   1.269  0.0747 -0.0130 -0.1464
    1W        W48919  23.856  10.227   2.724 -0.1861 -0.0584  0.0880
    1W        W48920   6.796   4.080   1.795  0.0742 -0.0210 -0.2698
    1W        W48921  24.693  21.647   7.415 -0.1012 -0.1552  0.0643
    1W        W48922  19.197  25.057   1.099 -0.1308 -0.2827  0.0925
    1W        W48923  11.242  26.930   2.022  0.1589  0.3748  0.2068
    1W        W48924  17.651  14.144   6.914  0.1021  0.2617 -0.3174
    1W        W48925  13.263   5.017   0.304  0.0756  0.1885  0.0259
    1W        W48926  28.321  11.027   0.178 -0.1143  0.0302  0.5439
    1W        W48927  20.282  15.362   8.758 -0.0019  0.1821  0.1184
    1W        W48928   9.683  21.020   1.915 -0.0973  0.2849  0.0955
    1W        W48929  25.218   5.760   6.437  0.1426 -0.1773  0.2013
    1W        W48930   7.552  26.528   2.183  0.0511 -0.1373 -0.0272
    1W        W48931  26.290  17.329   6.798 -0.2099  0.1136 -0.2118
    1W        W48932   6.566  11.759   1.464  0.0499 -0.0402 -0.0326
    1W        W48933  15.240  16.329   0.333  0.1347  0.2220  0.0145
    1W        W48934  26.556   0.528   2.552  0.4372 -0.1093  0.3381
    1W        W48935  12.708   8.246   1.613  0.0341  0.0815  0.2877
    1W        W48936  26.256  22.780   8.272  0.2259  0.0147  0.4494
    1W        W48937  28.513   0.256   6.489  0.1946 -0.0450 -0.1987
    1W        W48938  15.188   4.162   6.513  0.0225 -0.1072 -0.0128
    1W        W48939  21.359   6.763   7.960  0.0710 -0.0188 -0.0408
    1W        W48940  28.900   1.888   8.628  0.0788 -0.1540  0.2779
    1W        W48941  17.446  10.986   0.101 -0.0218 -0.2803  0.0845
    1W        W48942  29.631   3.756   8.311 -0.0739  0.0041  0.0221
    1W        W48943  15.394  28.124   1.068  0.1051 -0.2261 -0.1174
    1W        W48944   8.312  25.071   5.965 -0.1525  0.2117 -0.0426
    1W        W48945  14.789  11.127   9.221  0.0755 -0.0764 -0.0027
    1W        W48946   7.522  10.363   7.327  0.0860 -0.1491 -0.4164
    1W        W48947  25.044   9.390   7.690  0.0097 -0.1493 -0.1859
    1W        W48948  27.989  25.810   6.574 -0.0545 -0.2991  0.1107
    1W        W48949  14.876  13.771   1.595 -0.0360 -0.1712  0.0942
    1W        W48950  25.955  10.765   7.050  0.2152 -0.0263 -0.0934
    1W        W48951  26.570  25.840   3.065 -0.0284  0.1074  0.0570
    1W        W48952  28.292  27.105   0.189 -0.2914  0.0460 -0.0218
    1W        W48953  20.941  25.442   8.630  0.1106  0.0133 -0.0998
    1W        W48954  11.225   0.275   7.987  0.2855 -0.2581  0.1129
    1W        W48955  23.675  27.691   7.200 -0.0406 -0.1147  0.1402
    1W        W48956   3.017   4.273   2.576 -0.0533 -0.0678  0.1869
    1W        W48957  22.477   0.892   7.820 -0.1216 -0.0597  0.4134
    1W        W48958  27.496  10.287   8.111 -0.0438 -0.1645  0.2398
    1W        W48959   9.501   8.909   9.044  0.2592 -0.0007  0.4038
    1W        W48960  21.846  16.840   8.787  0.2429  0.0263  0.2396
    1W        W48961  20.877  13.325   9.192  0.2346 -0.2881 -0.0875
    1W        W48962   9.798   7.431   1.706 -0.1185 -0.0024 -0.2687
    1W        W48963  21.445  11.389   8.056 -0.0392  0.3869 -0.1688
    1W        W48964  12.619  29.727   3.501  0.0089 -0.0862  0.3565
    1W        W48965  27.618  21.287   9.275  0.0937  0.2181 -0.0340
    1W        W48966  14.453   1.229   9.055  0.0515  0.0407 -0.1299
    1W        W48967  29.363  25.011   9.165 -0.2185  0.4163 -0.1915
    1W        W48968   9.842  19.755   7.631  0.1035 -0.3640 -0.0194
    1W        W48969  27.697  15.385   1.997 -0.0347 -0.0659  0.3756
    1W        W48970  11.535   6.269   7.448 -0.2144 -0.1167  0.0450
    1W        W48971  20.783  22.351   1.968 -0.0151 -0.1602 -0.0167
    1W        W48972  12.121   4.508   8.419 -0.2011 -0.2112 -0.1420
    1W        W48973   1.086  18.332   1.331 -0.0372 -0.0918  0.1510
    1W        W48974   9.275  15.206   0.570  0.1792  0.3324 -0.1825
    1W        W48975  10.130  23.644   2.284 -0.0969  0.0176  0.0539
    1W        W48976  28.087  27.443   9.091 -0.1110  0.0401 -0.0591
    1W        W48977  14.755  21.110   6.799  0.0707  0.1276  0.2050
    1W        W48978   4.731  21.543   7.757  0.3562  0.0398 -0.2204
    1W        W48979  29.205   2.692   8.711 -0.3074 -0.0458 -0.0550
    1W        W48980  10.265   4.124   0.985  0.0117  0.5136 -0.0824
    1W        W48981   4.781   6.443   1.100  0.1196  0.4830 -0.0677
    1W        W48982  28.176  27.013   1.939 -0.0696  0.1975  0.0297
    1W        W48983  18.970  26.603   3.291 -0.2305 -0.5471  0.0554
    1W        W48984  22.787  27.276   0.402  0.0431 -0.0817 -0.1262
    1W        W48985   4.005  11.060   9.018  0.0986 -0.1213 -0.2604
    1W        W48986  26.120  26.423   2.391  0.0004 -0.2642 -0.2678
    1W        W48987  15.022  24.951   6.468 -0.3080  0.0516  0.0855
    1W        W48988  22.996  28.633   1.799 -0.1294 -0.0518 -0.1604
    1W        W48989   0.726  21.886   7.443 -0.0132  0.0218  0.2127
    1W        W48990   4.586  22.512   9.334  0.2115  0.3561  0.0985
    1W        W48991  16.475  19.334   8.334  0.3188 -0.0057  0.0391
    1W        W48992  27.554   7.786   7.391 -0.0927  0.1615  0.1266
    1W        W48993  17.223  12.546   2.145 -0.1413  0.1485  0.1597
    1W        W48994  23.641   6.575   2.096  0.2975  0.0014  0.0215
    1W        W48995  17.215  27.521   7.163 -0.0335 -0.1245  0.1234
    1W        W48996   7.396  10.304   8.766 -0.0688 -0.4148  0.0258
    1W        W48997  22.455  23.014   1.019 -0.0636  0.2136 -0.3027
    1W        W48998   3.620  15.040   8.789  0.0289 -0.0758 -0.2096
    1W        W48999  26.989   3.652   9.383  0.0122 -0.0814 -0.0118
    1W        W49000  10.881  16.521   6.958  0.0619 -0.0069  0.1972
    1W        W49001  26.691   0.811   2.940  0.0935  0.3148  0.0355
    1W        W49002   2.402  12.055   0.620 -0.0641 -0.3142 -0.0096
    1W        W49003  27.332   1.338   2.155 -0.2893  0.0501  0.1713
    1W        W49004  20.853  28.961   0.249  0.0065  0.1956  0.1640
    1W        W49005  20.821  10.715   7.037  0.0627  0.0272  0.1577
    1W        W49006   3.990  22.675   6.105  0.2468 -0.0191 -0.0385
    1W        W49007   3.960  23.821   5.666  0.1413 -0.1791  0.0345
    1W        W49008  13.478   5.562   3.154 -0.0899  0.0468  0.2150
    1W        W49009  26.747   3.490   6.600  0.0644 -0.2396  0.1109
    1W        W49010  12.896   8.231   0.430  0.3721  0.0969  0.0544
    1W        W49011   6.935   1.462   2.115 -0.0562 -0.0551  0.0561
    1W        W49012  21.592  23.427   2.591  0.0725  0.0777 -0.3996
    1W        W49013  13.647   6.481   1.829  0.1216  0.6647 -0.1055
    1W        W49014  22.834   8.878   9.312  0.0573 -0.1777 -0.1282
    1W        W49015  21.318   9.927   2.519  0.1182 -0.0538 -0.0769
    1W        W49016   9.207  28.463   1.567 -0.0937 -0.1571  0.3504
    1W        W49017  22.423   7.530   2.328  0.2396  0.1124  0.2355
    1W        W49018  26.026   0.375   2.683  0.0090  0.1306  0.0157
    1W        W49019   1.482  11.999   7.495 -0.2462  0.0369  0.2434
    1W        W49020  20.044  19.162   0.229 -0.0850 -0.0118 -0.0391
    1W        W49021  11.214  13.230   1.139  0.1222 -0.0374  0.3422
    1W        W49022  24.961   0.742   7.667  0.0817  0.2247 -0.0829
    1W        W49023  13.541   0.141   8.313  0.0616 -0.3554 -0.1796
    1W        W49024  24.674   6.501   0.339 -0.0322  0.0186 -0.2540
    1W        W49025  28.468  24.786   7.667  0.2692 -0.1188 -0.2263
    1W        W49026  11.985   2.252   8.835 -0.1032 -0.0492  0.1098
    1W        W49027  25.191   2.819   7.342  0.0829  0.0511  0.0091
    1W        W49028  16.731   8.095   0.796 -0.2166  0.0215 -0.2071
    1W        W49029  26.837   0.928   7.331  0.0456  0.1068 -0.1917
    1W        W49030   8.154  16.757   7.055 -0.1072  0.0702  0.2042
    1W        W49031  15.206   8.679   0.982  0.3179 -0.0088  0.3369
    1W        W49032   4.648  13.981   0.766 -0.1677 -0.0457 -0.1478
    1W        W49033  18.236   7.897   2.358  0.1285  0.0474  0.4039
    1W        W49034   8.744  18.866   7.123  0.2453 -0.4505  0.4743
    1W        W49035  19.744  11.148   0.316 -0.1698  0.0803 -0.0195
    1W        W49036  17.293   2.861   7.797 -0.2134 -0.3527  0.0655
    1W        W49037   9.045  25.968   9.181 -0.0555 -0.0970  0.1434
    1W        W49038  26.997  24.643   2.070  0.1029  0.0923 -0.1162
    1W        W49039  22.211  13.929   8.149  0.0078  0.0882  0.0300
    1W        W49040  22.350   6.431   1.237  0.5678  0.2985  0.1087
    1W        W49041   7.172   0.381   9.434  0.1584 -0.0869 -0.1709
    1W        W49042  10.738   1.969   2.817  0.1066 -0.0393  0.1051
    1W        W49043  24.342  14.294   7.179  0.1268 -0.0555 -0.0700
    1W        W49044  24.124  18.719   8.289  0.0599  0.1237  0.1816
    1W        W49045  21.061  17.351   0.358  0.0002  0.2856  0.1230
    1W        W49046  13.239  29.264   8.764 -0.1582 -0.1067  0.3927
    1W        W49047  17.429   6.743   0.867  0.5177 -0.2848  0.1756
    1W        W49048  20.785   0.623   0.817 -0.0463  0.0312 -0.1478
    1W        W49049   5.856   4.139   1.250  0.1596 -0.0044 -0.2163
    1W        W49050  27.841  18.929   7.382 -0.2092  0.2048 -0.0217
    1W        W49051  21.173  24.185   6.710 -0.2433  0.1625  0.2576
    1W        W49052   1.432  22.980   8.080  0.4002  0.1438  0.1433
    1W        W49053  15.812  19.783   8.631 -0.3969 -0.0700  0.1442
    1W        W49054  28.471  13.969   9.107  0.1921  0.0022  0.0149
    1W        W49055   0.438  13.975   0.990  0.3755 -0.0072 -0.0489
    1W        W49056   8.094  18.445   8.522  0.2213 -0.0726 -0.0530
    1W        W49057   1.405  12.373   1.128  0.0475  0.0713 -0.1754
    1W        W49058  11.815   5.717   1.044 -0.0770 -0.1522 -0.4983
    1W        W49059   4.247  15.373   9.214  0.2107  0.0135  0.1911
    1W        W49060  13.198  10.394   0.821 -0.2208 -0.0172 -0.2896
    1W        W49061  13.384  20.083   2.659  0.3434  0.1373  0.1927
    1W        W49062  22.010  15.081   0.391 -0.3037  0.1956  0.0255
    1W        W49063   3.999   3.162   0.898 -0.1667  0.1370  0.2269
    1W        W49064  29.612  21.154   9.337 -0.1778  0.4647  0.0093
    1W        W49065  25.183   3.175   7.685 -0.1135  0.0311  0.2642
    1W        W49066  11.416  28.687   8.811  0.3402 -0.1349  0.0692
    1W        W49067   6.955  22.524   1.629  0.1592 -0.1249 -0.1697
    1W        W49068   7.397  12.964   1.332 -0.0487 -0.1729  0.4520
    1W        W49069   5.539  28.795   1.159 -0.1759  0.1435  0.0363
    1W        W49070  25.075   0.222   2.760  0.0762 -0.1285  0.0493
    1W        W49071   9.261  18.799   7.762 -0.0841 -0.1551 -0.0811
    1W        W49072   8.070  14.060   2.170 -0.1426 -0.0950  0.1752
    1W        W49073   6.317  26.300   7.498  0.0357  0.1546 -0.0395
    1W        W49074  17.627  23.915   2.441 -0.2117 -0.1747 -0.0651
    1W        W49075   4.419  27.225   7.616 -0.2436 -0.0833 -0.4222
    1W        W49076  13.140  26.242   6.846  0.0094 -0.1377  0.1883
    1W        W49077  10.451  19.221   7.744  0.1660  0.2610  0.4325
    1W        W49078  25.919  21.215   8.197 -0.3817 -0.1836 -0.2443
    1W        W49079   9.263  18.216   6.528 -0.1402  0.0233  0.0685
    1W        W49080  26.209   5.396   7.403 -0.1259 -0.0441  0.0081
    1W        W49081  12.157   3.757   7.186 -0.2503 -0.1388  0.3068
    1W        W49082  10.923  15.541   7.770  0.0807  0.0842 -0.2149
    1W        W49083   7.196  22.494   6.356  0.1626 -0.1267  0.2637
    1W        W49084  29.492  21.794   0.988 -0.0423 -0.0105  0.0340
    1W        W49085  25.861   3.981   3.458 -0.0646 -0.1465  0.0097
    1W        W49086  13.687   1.998   8.719  0.0504  0.3960 -0.1757
    1W        W49087   3.194  21.637   1.143 -0.2265  0.1281  0.3197
    1W        W49088   9.398  20.022   0.081 -0.1043  0.0166 -0.4441
    1W        W49089  23.770  27.840   9.347 -0.0738 -0.1199 -0.2028
    1W        W49090  28.419   3.490   3.407 -0.2327  0.1047 -0.1668
    1W        W49091  24.386  19.169   7.652  0.0015  0.0324  0.0674
    1W        W49092   6.553  24.946   6.669 -0.1595 -0.0278  0.1335
    1W        W49093  27.306  12.996   2.545  0.0102  0.0797 -0.1997
    1W        W49094  29.565   9.046   8.590  0.0479  0.2569  0.2294
    1W        W49095  29.829  28.478   2.453  0.1178 -0.0008 -0.0513
    1W        W49096  24.018  20.776   6.771 -0.0790  0.2016  0.0386
    1W        W49097  12.764   6.134   9.045 -0.0082  0.1303 -0.0377
    1W        W49098  17.750  28.983   2.000 -0.2224  0.0645  0.1804
    1W        W49099   5.382  27.191   6.913  0.0066  0.1580 -0.1144
    1W        W49100  27.373   7.466   0.416  0.1573  0.1289 -0.1638
    1W        W49101  26.803  22.809   7.037 -0.3613 -0.0947 -0.2973
    1W        W49102  21.407  15.241   6.891  0.1860  0.0682  0.1040
    1W        W49103   7.599  11.385   2.874  0.3576 -0.1465  0.1897
    1W        W49104  25.903  21.733   8.145 -0.0654  0.0596 -0.2276
    1W        W49105  11.671   2.658   7.445  0.3587  0.0842 -0.2159
    1W        W49106   4.675   3.669   7.969  0.0423 -0.0584  0.1729
    1W        W49107   1.782  18.488   5.888 -0.0147  0.0924  0.0157
    1W        W49108  29.897   1.063   2.335 -0.0300  0.1867  0.2636
    1W        W49109   5.686   8.220   2.840 -0.1974 -0.2352  0.0006
    1W        W49110   9.662  25.326   8.275 -0.4191 -0.1519  0.0706
    1W        W49111  18.182   5.421   2.134 -0.0944 -0.3533  0.0361
    1W        W49112   9.676  21.292   8.008 -0.0818  0.1733 -0.1503
    1W        W49113  20.448  20.411   1.675  0.1138 -0.0734 -0.0288
    1W        W49114   0.469  26.320   1.297 -0.1103 -0.0145  0.0525
    1W        W49115  24.641  11.066   8.838 -0.1545  0.0805 -0.1000
    1W        W49116  21.988  13.202   5.788  0.1268 -0.4951  0.3234
    1W        W49117   9.835   9.549   0.729 -0.0438 -0.1844 -0.0305
    1W        W49118   9.609  28.754   2.104 -0.0013 -0.1548  0.0463
    1W        W49119  25.095  20.159   0.930  0.1178  0.0151 -0.1990
    1W        W49120   2.019   8.802   0.714 -0.0499  0.1047 -0.0356
    1W        W49121   5.299   4.177   7.945  0.0159  0.0608  0.0815
    1W        W49122   6.091   9.893   2.703  0.0091 -0.0629 -0.0056
    1W        W49123  11.497  11.818   8.672 -0.1775  0.2768 -0.0904
    1W        W49124   7.807  13.367   6.923  0.3093  0.1597  0.3390
    1W        W49125  20.181   9.908   8.767 -0.2561  0.1178 -0.1350
    1W        W49126  15.234   7.734   7.847  0.0329  0.1570  0.1246
    1W        W49127   0.680  13.606   8.900 -0.0574 -0.2468  0.0562
    1W        W49128  29.260  27.102   2.342  0.0338  0.1388 -0.0654
    1W        W49129  13.235   5.579   1.365 -0.1377  0.2292 -0.2778
    1W        W49130  15.056   3.216   8.048 -0.0508 -0.2934  0.1252
    1W        W49131   6.424  16.597   9.257 -0.0573 -0.0579 -0.2619
    1W        W49132  22.312  11.779   8.144  0.1303 -0.3392  0.0811
    1W        W49133  13.188  12.153   0.256  0.0494  0.1907 -0.2126
    1W        W49134  23.639   1.639   8.656  0.1261 -0.1557 -0.1992
    1W        W49135  18.561  18.824   1.757 -0.1034 -0.0535 -0.0686
    1W        W49136  27.209   3.390   0.298 -0.2239 -0.2848 -0.0037
    1W        W49137  10.740   0.717   8.385 -0.4916  0.0561 -0.0377
    1W        W49138  26.338  26.039   2.668  0.4241 -0.1239 -0.0814
    1W        W49139  12.011  12.543   1.413  0.1814  0.2234  0.1224
    1W        W49140  16.939   7.837   1.927 -0.2474  0.2329  0.1133
    1W        W49141   8.469  28.661   8.311  0.0192 -0.2651  0.1832
    1W        W49142  19.060  25.784   1.152 -0.1060  0.0253 -0.0425
    1W        W49143  11.107   7.241   7.953  0.1026  0.1438 -0.2421
    1W        W49144  16.528   7.797   0.458 -0.1441  0.0625 -0.0888
    1W        W49145  29.726  18.500   0.618 -0.2689  0.3120 -0.0732
    1W        W49146  16.808   3.445   7.283  0.6741  0.1380 -0.1053
    1W        W49147  21.574  22.496   8.054 -0.2288  0.1168  0.0614
    1W        W49148  10.297  28.158   0.562 -0.0574  0.0852  0.2577
    1W        W49149  23.065  22.644   8.132  0.0080 -0.2014  0.0895
    1W        W49150  19.041  10.959   0.945 -0.0596 -0.2799  0.0408
    1W        W49151  11.667  12.300   1.162  0.1241 -0.2307 -0.0738
    1W        W49152  19.427  11.401   8.010 -0.3061 -0.1112 -0.1888
    1W        W49153  27.507  12.336   9.080  0.0504 -0.0371  0.2878
    1W        W49154  22.605   4.971   7.525  0.2092 -0.1355  0.2598
    1W        W49155  26.838   7.225   0.877  0.0263  0.0265  0.3116
    1W        W49156   1.826   0.036   6.545  0.0270  0.0200  0.0927
    1W        W49157   0.423  23.031   6.334  0.0712 -0.2003  0.0393
    1W        W49158  10.945   7.560   8.376 -0.1169 -0.0272 -0.0827
    1W        W49159   3.215  26.450   9.121  0.0205 -0.1421 -0.0666
    1W        W49160  19.279   1.485   1.037 -0.2788  0.3521 -0.1916
    1W        W49161  27.456  19.172   0.025 -0.0852 -0.2574 -0.1450
    1W        W49162   1.975  28.466   8.651 -0.1909 -0.0185  0.2139
    1W        W49163  20.003  16.198   8.767  0.0067  0.1028 -0.1259
    1W        W49164   0.750  27.334   1.038 -0.0278  0.1320 -0.0460
    1W        W49165   5.393  17.531   0.805  0.1296 -0.0757 -0.2474
    1W        W49166  26.501   9.285   2.815 -0.0025 -0.0276  0.1086
    1W        W49167   3.374  20.896   2.547 -0.0975 -0.2028 -0.0036
    1W        W49168  16.500  24.309   2.192  0.1334  0.0197 -0.0036
    1W        W49169   8.907  10.943   1.635 -0.0423 -0.1489  0.1284
    1W        W49170  25.894  17.537   7.035  0.2605  0.1858  0.2030
    1W        W49171  28.585  15.714   2.175  0.0028 -0.0937 -0.2170
    1W        W49172   8.540  24.910   6.432  0.0324  0.0343 -0.2639
    1W        W49173  26.702  22.031   8.154  0.1474 -0.1464 -0.1267
    1W        W49174  25.182  13.098   8.403  0.0612  0.2587  0.1732
    1W        W49175  25.714   9.673   1.872  0.2370  0.0364 -0.3416
    1W        W49176   8.086  23.007   1.877  0.0559  0.0225  0.1788
    1W        W49177  11.619  25.934   7.309 -0.2346 -0.0578 -0.0807
    1W        W49178   8.258   1.369   8.189 -0.5195 -0.0325 -0.1434
    1W        W49179  13.003  24.362   6.848  0.0694 -0.2297 -0.2156
    1W        W49180   6.064  20.924   1.032  0.0450  0.2312 -0.2977
    1W        W49181  21.150   7.912   1.123  0.1251 -0.1149 -0.2190
    1W        W49182  27.452  19.268   2.480  0.2348 -0.0993  0.1615
    1W        W49183  14.465  23.234   1.840  0.1099  0.3303 -0.2904
    1W        W49184  11.927   4.087   0.474  0.0151 -0.1817  0.2995
    1W        W49185   5.666   2.581   1.654  0.1440  0.0306 -0.1665
    1W        W49186  13.223  21.543   7.540  0.2243 -0.1136  0.1093
    1W        W49187   5.483  15.546   0.048  0.1524  0.0440  0.0672
    1W        W49188  17.963   2.475   0.989 -0.6459 -0.0288  0.1053
    1W        W49189   9.467   9.571   6.856  0.3086  0.0452  0.3208
    1W        W49190  29.091  18.227   7.527 -0.0209  0.3380  0.1300
    1W        W49191  18.751   2.939   9.260 -0.0351  0.0493  0.0042
    1W        W49192  17.183  19.829   2.326  0.0323  0.0647 -0.0465
    1W        W49193  28.823   3.826   3.299  0.0188  0.2565  0.1616
    1W        W49194  20.390  10.129   8.328 -0.0945  0.0384 -0.0606
    1W        W49195  20.513   5.341   1.586  0.1352 -0.2461 -0.0268
    1W        W49196  20.027   6.687   7.934  0.2503  0.0875  0.1603
    1W        W49197  18.168  20.071   2.063 -0.3354 -0.2953 -0.4154
    1W        W49198  22.102   4.024   7.608 -0.0058 -0.0667  0.0172
    1W        W49199   7.028   0.757   7.859 -0.0531 -0.0811 -0.1865
    1W        W49200   6.255  12.335   6.645 -0.1283 -0.1526 -0.2389
    1W        W49201   4.131  18.277   6.759 -0.0255  0.0632 -0.1551
    1W        W49202   1.738  13.983   9.284 -0.1549  0.1033  0.1063
    1W        W49203  27.045   6.226   8.476 -0.3235 -0.3099  0.0334
    1W        W49204  24.635   7.529   8.402 -0.1216 -0.0603 -0.1437
    1W        W49205   9.950  12.415   0.424  0.1728  0.1039  0.1382
    1W        W49206  26.174   5.152   2.638  0.1360 -0.1041 -0.0009
    1W        W49207  24.380  29.380   2.696  0.2077 -0.3010 -0.1419
    1W        W49208  14.842  21.699   1.993  0.3172 -0.0445 -0.2275
    1W        W49209  18.524  12.085   8.521 -0.0447 -0.1840 -0.1068
    1W        W49210  23.598  22.482   1.793 -0.1431  0.1120  0.0026
    1W        W49211  29.735  27.637   8.136 -0.3268 -0.2377  0.0647
    1W        W49212  10.323  26.897   7.779  0.1928  0.0470 -0.1341
    1W        W49213  22.175  22.879   2.493 -0.1055 -0.2690  0.2411
    1W        W49214   8.777  16.130   9.266  0.0457  0.1448 -0.0465
    1W        W49215   7.232   6.993   1.563 -0.0183 -0.0884  0.0244
    1W        W49216   5.642  17.274   6.091 -0.1322  0.1119  0.1037
    1W        W49217  21.003   0.529   2.212 -0.1042  0.0717  0.1048
    1W        W49218  22.524  26.785   8.994 -0.1120 -0.1261 -0.0736
    1W        W49219   2.866  24.194   8.546 -0.1147  0.0663 -0.0049
    1W        W49220   9.575   5.220   2.337 -0.1764  0.3343  0.5113
    1W        W49221   1.072   2.084   0.017 -0.2625  0.3519 -0.0257
    1W        W49222  14.317  15.697   7.305  0.4247  0.0977 -0.1639
    1W        W49223   2.986   7.035   0.103 -0.1359 -0.0128 -0.2923
    1W        W49224  16.852   7.257   8.090  0.0399  0.0511  0.1017
    1W        W49225  13.438  15.566   0.192  0.0135 -0.0952  0.1128
    1W        W49226  13.435   4.196   0.726 -0.2541 -0.0526 -0.0705
    1W        W49227  23.222  25.209   0.485  0.0238  0.1071  0.3157
    1W        W49228  27.773  28.146   8.223  0.2009 -0.2890 -0.1947
    1W        W49229   0.373  18.933   7.461 -0.0479 -0.0299  0.1542
    1W        W49230   6.990   7.057   0.640 -0.0892  0.0008 -0.0203
    1W        W49231   1.006  14.848   0.403 -0.1875  0.3236 -0.0711
    1W        W49232   5.788   3.679   2.460 -0.0794  0.1785 -0.0152
    1W        W49233  28.202  19.970   2.029  0.3078  0.0492  0.1509
    1W        W49234  27.813  17.687   1.172  0.1260  0.4317 -0.1389
    1W        W49235   4.565   6.472   3.026 -0.2383 -0.1320 -0.2607
    1W        W49236  15.113  13.762   1.029 -0.2780 -0.2914  0.1050
    1W        W49237  29.092  17.171   7.952  0.2822 -0.1504 -0.1131
    1W        W49238  28.273   5.398   0.538 -0.1084  0.0743 -0.0886
    1W        W49239  12.049  23.116   6.365  0.2270 -0.0404  0.2496
    1W        W49240   1.737  10.187   2.017  0.0526  0.1438  0.0662
    1W        W49241   7.198   7.174   2.343 -0.2813 -0.2169 -0.1999
    1W        W49242  11.920  14.703   8.931 -0.1484 -0.0150  0.0390
    1W        W49243  17.497   4.103   9.045 -0.1150 -0.0179 -0.0977
    1W        W49244  11.243  20.367   6.538  0.0636 -0.6300 -0.0580
    1W        W49245  25.678  26.805   8.742  0.1636 -0.0471  0.3000
    1W        W49246  22.163   4.000   6.875 -0.1611  0.1225  0.3300
    1W        W49247  24.828   4.249   8.102  0.0835  0.2574 -0.4580
    1W        W49248  23.634  18.366   6.424  0.0323 -0.1154 -0.3589
    1W        W49249  13.102   1.151   1.627  0.3295 -0.0448  0.0626
    1W        W49250   7.198  26.663   2.478 -0.1176  0.1206 -0.0864
    1W        W49251  28.176  27.801   1.521 -0.1643 -0.2110  0.0058
    1W        W49252  29.144   3.782   9.308  0.0725 -0.1100 -0.2951
    1W        W49253   0.832  13.053   8.941  0.0432  0.1683 -0.4360
    1W        W49254  15.083  12.228   0.964  0.0100  0.1439  0.1903
    1W        W49255  28.625  16.701   6.291  0.0227  0.1460  0.1738
    1W        W49256  14.199  23.846   1.334 -0.1635  0.0556 -0.2324
    1W        W49257  28.512  17.362   0.620  0.0431 -0.0961  0.1317
    1W        W49258  25.460   1.486   7.346 -0.0218  0.1862  0.2187
    1W        W49259  14.487  28.624   8.825  0.0585 -0.0892  0.0742
    1W        W49260  19.651  14.243   8.127  0.0531  0.0177  0.0106
    1W        W49261   4.114  27.581   7.373 -0.1329 -0.1518 -0.1317
    1W        W49262  10.361  17.909   7.751 -0.3296 -0.3087  0.3193
    1W        W49263  29.687  21.719   6.825 -0.2446  0.4835 -0.1926
    1W        W49264  20.891  21.860   1.059  0.0077 -0.0431  0.2294
    1W        W49265  27.971  14.973   6.570 -0.0792  0.0581 -0.2171
    1W        W49266  25.454  19.558   0.581  0.0235  0.0719 -0.0516
    1W        W49267  13.152  24.509   6.194 -0.0001 -0.2917 -0.1105
    1W        W49268   3.526  16.887   1.672  0.1375 -0.0247 -0.2183
    1W        W49269  19.821   9.064   7.168  0.1210 -0.2387 -0.1383
    1W        W49270  14.065  11.664   1.667 -0.3168  0.0211 -0.0614
    1W        W49271  12.791   6.449   8.015  0.1165  0.0069 -0.3427
    1W        W49272   8.708   9.603   2.810  0.0972  0.1997 -0.2232
    1W        W49273   9.641   2.964   0.296 -0.0531 -0.0268 -0.1266
    1W        W49274   5.887   3.472   7.844  0.2076  0.1099 -0.1246
    1W        W49275  16.010  25.212   0.817 -0.2219 -0.4834 -0.3801
    1W        W49276   2.499  11.483   1.397  0.0164 -0.1172 -0.1405
    1W        W49277  26.274   8.493   7.617 -0.0512 -0.0745  0.0028
    1W        W49278  28.267  15.951   0.542 -0.0024  0.4835 -0.2964
    1W        W49279   0.822   1.245   0.648 -0.1501 -0.0922  0.0020
    1W        W49280  28.289   6.076   7.481 -0.2190  0.0762  0.1334
    1W        W49281   7.804   0.095   1.566 -0.0409 -0.0348 -0.0051
    1W        W49282  22.994   5.263   8.835  0.0060 -0.0931  0.2456
    1W        W49283   2.529  11.153   2.358 -0.1936 -0.0828 -0.0744
    1W        W49284  24.913  10.383   0.570 -0.1347 -0.3791  0.0128
    1W        W49285  11.956  19.833   1.368  0.0536  0.0478 -0.0445
    1W        W49286  24.681   9.159   2.726  0.1958  0.1828  0.0391
    1W        W49287   6.895  25.204   2.090 -0.1658 -0.0081 -0.1929
    1W        W49288   9.737  26.246   8.847  0.0776  0.0250 -0.2578
    1W        W49289  18.093  25.765   8.734 -0.0415 -0.1450  0.2087
    1W        W49290   4.082  11.647   8.407  0.1222 -0.1001 -0.0583
    1W        W49291   6.472  25.857   0.596  0.1310  0.3051 -0.0510
    1W        W49292   1.613  28.605   1.364 -0.0353 -0.0100 -0.5036
    1W        W49293  26.443  10.696   7.376 -0.0846  0.3418 -0.3362
    1W        W49294   4.143  26.972   1.802  0.0207 -0.0333  0.1297
    1W        W49295  28.374  13.562   7.620 -0.0714 -0.2234  0.0807
    1W        W49296   5.836   7.744   6.809  0.1325 -0.2307 -0.3230
    1W        W49297  11.562  25.438   6.301  0.5047  0.0345  0.0607
    1W        W49298  14.897  24.323   8.438  0.4382  0.1887 -0.0938
    1W        W49299  13.281   1.124   2.645  0.1959 -0.0320  0.0636
    1W        W49300   6.408  18.075   6.738  0.2682  0.1259 -0.0463
    1W        W49301  24.886  13.678   1.957  0.2268  0.1993 -0.1533
    1W        W49302  24.233  27.102   8.019 -0.2073 -0.1481 -0.2727
    1W        W49303  12.182  26.428   1.261 -0.0667 -0.0159 -0.1543
    1W        W49304   2.404  18.099   2.431 -0.0247 -0.1274 -0.2420
    1W        W49305   3.255   4.527   7.277  0.1179 -0.0969 -0.2048
    1W        W49306  21.709   3.869   7.902  0.2817  0.0433  0.3338
    1W        W49307  29.056  29.201   7.578 -0.1785  0.2838  0.3226
    1W        W49308  28.256   9.062   8.203 -0.2316 -0.1265  0.1079
    1W        W49309   2.687  11.020   1.408  0.0987  0.0006  0.0311
    1W        W49310   0.914   3.029   0.181  0.3311 -0.1185 -0.2156
    1W        W49311  26.612   0.033   1.645  0.1357  0.0989 -0.0510
    1W        W49312  24.397  10.301   8.642 -0.1350 -0.1021 -0.1011
    1W        W49313  16.636   9.306   6.464 -0.0650  0.2992  0.4384
    1W        W49314   5.396   0.433   7.436 -0.4008  0.2490 -0.0638
    1W        W49315  11.888   4.529   1.135 -0.1371  0.1597 -0.1485
    1W        W49316  23.564  24.409   2.009 -0.0637 -0.0696  0.0795
    1W        W49317  17.248  25.736   7.577  0.2148 -0.0902  0.1672
    1W        W49318  19.206  24.315   8.949  0.0935  0.0209 -0.3098
    1W        W49319   1.397   6.030   8.400  0.0778  0.2067 -0.3636
    1W        W49320  19.166  21.914   7.317 -0.2118  0.1566 -0.0895
    1W        W49321  12.753   7.208   2.071 -0.3297 -0.0236  0.0632
    1W        W49322   6.734  19.361   0.629 -0.1840  0.3058  0.1715
    1W        W49323   0.871  16.570   1.466  0.0432  0.2251  0.1181
    1W        W49324  17.629  27.367   6.775  0.1717 -0.1301  0.0242
    1W        W49325   6.636  14.767   0.629  0.5951 -0.3252  0.0673
    1W        W49326   4.731  16.115   7.717 -0.1363 -0.2255  0.0985
    1W        W49327  17.150  23.695   8.987 -0.3275  0.4355 -0.1133
    1W        W49328  10.987  24.588   9.005  0.0285  0.0848  0.0914
    1W        W49329  24.333  25.906   8.136  0.1713 -0.0704  0.1060
    1W        W49330  26.799   2.076   3.094  0.0730 -0.0754  0.2714
    1W        W49331  14.534   0.035   8.208 -0.1644 -0.1225  0.0725
    1W        W49332  23.674   3.526   8.210 -0.3798  0.0214 -0.0931
    1W        W49333  24.264  13.328   8.431  0.0446 -0.1167  0.0217
    1W        W49334   1.753  11.005   7.453 -0.0290 -0.2191 -0.0490
    1W        W49335   7.002  29.832   0.060 -0.1900 -0.2586 -0.0877
    1W        W49336   2.312   6.743   9.025 -0.1220  0.0551  0.0470
    1W        W49337  29.464  20.333   7.419 -0.1547  0.0601  0.2958
    1W        W49338  14.937  20.650   8.937  0.1455  0.2613  0.0649
    1W        W49339  18.000  14.317   8.064  0.0082 -0.1589  0.1322
    1W        W49340  20.946  22.655   2.488  0.1253  0.0347  0.1684
    1W        W49341  14.948   5.079   1.210  0.0895  0.1410  0.1120
    1W        W49342  10.596  22.264   8.174 -0.0015  0.0354 -0.1137
    1W        W49343  22.991  20.024   8.925 -0.1187 -0.0571 -0.3347
    1W        W49344  20.302  16.030   9.136 -0.2153  0.0965 -0.1714
    1W        W49345  17.170  15.989   0.848 -0.2827  0.1402  0.2696
    1W        W49346  20.196  16.526   1.953 -0.0985  0.1035 -0.1108
    1W        W49347   5.960   9.553   0.495 -0.1451  0.0598  0.0490
    1W        W49348  18.254   2.714   8.062  0.1295 -0.0267 -0.0689
    1W        W49349   8.015   2.793   3.820  0.1708  0.1509 -0.2041
    1W        W49350  25.860  10.704   1.308 -0.0664 -0.0767 -0.2076
    1W        W49351  15.899   6.094   7.879 -0.0380 -0.0306 -0.1838
    1W        W49352  26.409  16.858   1.819  0.0107 -0.3381 -0.2163
    1W        W49353  17.169   9.426   7.575  0.2977  0.1290  0.2339
    1W        W49354  10.735  12.265   7.527  0.0816 -0.2170  0.2123
    1W        W49355  19.107  28.575   0.568  0.0307  0.2753 -0.0566
    1W        W49356  15.379   1.866   1.522 -0.2055  0.0095  0.0680
    1W        W49357  21.064  11.321   1.444 -0.2803 -0.2157 -0.4339
    1W        W49358   0.603  16.641   1.019  0.1217 -0.1356  0.0457
    1W        W49359   8.644  10.629   7.881 -0.1316 -0.1153  0.1771
    1W        W49360  17.521   3.295   7.915  0.0063  0.4009 -0.0341
    1W        W49361   2.035  29.213   6.921  0.0513  0.1808  0.1024
    1W        W49362   4.875  17.398   8.519  0.0938 -0.0945  0.3540
    1W        W49363  26.645   9.520   0.709  0.3945  0.2026 -0.3386
    1W        W49364  19.558  12.205   1.262  0.0095  0.2989 -0.1281
    1W        W49365  18.039  19.461   7.450 -0.0103 -0.1301 -0.0477
    1W        W49366  14.831  23.338   2.446  0.1308 -0.0731 -0.2266
    1W        W49367   6.824  15.128   7.601  0.1839 -0.0040 -0.1890
    1W        W49368   7.040  12.235   9.050 -0.0382  0.1262  0.2929
    1W        W49369  27.740   7.745   6.846 -0.0668  0.1756 -0.0098
    1W        W49370  21.983  12.363   6.001 -0.3081  0.0864  0.2075
    1W        W49371  24.699  19.024   2.762  0.0211 -0.0925  0.0492
    1W        W49372  29.336   1.948   1.429 -0.2117  0.3213 -0.2284
    1W        W49373  16.934   2.146   7.234  0.1580 -0.1088  0.0056
    1W        W49374  15.722   4.576   0.657  0.0162 -0.0751 -0.4041
    1W        W49375  20.976  20.313   7.364 -0.0988 -0.0417  0.6452
    1W        W49376  27.106   9.811   0.690 -0.0286  0.0313  0.2459
    1W        W49377  24.777  12.189   7.767 -0.1086 -0.1976  0.1074
    1W        W49378  13.903   0.420   8.618  0.0114  0.1162  0.0959
    1W        W49379   7.710  28.360   0.635  0.1611 -0.2380  0.2028
    1W        W49380  11.311  19.273   8.068 -0.3400  0.2802 -0.1500
    1W        W49381  27.667  24.259   7.717  0.0483  0.0512 -0.0469
    1W        W49382  19.433   2.002   9.350  0.0587  0.0843 -0.0415
    1W        W49383  29.477  15.225   8.581  0.2753  0.0767  0.0016
    1W        W49384   2.313  29.451   1.523 -0.2107 -0.4157 -0.2288
    1W        W49385  25.780   4.383   3.060  0.2477  0.4294 -0.2264
    1W        W49386  10.717   3.190   3.051  0.1187 -0.0134 -0.3194
    1W        W49387   1.609  20.445   7.700 -0.0023 -0.0105  0.1860
    1W        W49388   0.190   4.856   7.497 -0.1116 -0.3032  0.1488
    1W        W49389  29.072  18.803   1.903  0.1009 -0.2028  0.0459
    1W        W49390   5.035   0.509   9.287  0.2536  0.0604  0.4080
    1W        W49391  20.965   4.322   9.235 -0.0683 -0.0248  0.0281
    1W        W49392   9.984   6.578   7.292 -0.2122  0.1716 -0.0882
    1W        W49393   4.322   6.823   7.718 -0.2393  0.0787  0.0704
    1W        W49394   0.088   8.554   9.090 -0.0565 -0.0144 -0.1316
    1W        W49395   0.585   9.103   2.902 -0.0055 -0.0350  0.0395
    1W        W49396   8.368   1.792   1.608  0.2754  0.0424  0.1045
    1W        W49397  24.447   3.205   8.792 -0.0657 -0.1733  0.1614
    1W        W49398  20.398   9.926   7.846  0.1369  0.0638 -0.3081
    1W        W49399  28.140   7.692   7.357  0.0693 -0.2378  0.2150
    1W        W49400  26.444  16.202   9.314 -0.1979  0.0558  0.3134
    1W        W49401   7.145  15.963   9.158 -0.0143 -0.0135 -0.2739
    1W        W49402   6.645  12.485   0.942  0.2022  0.1525  0.1420
    1W        W49403  26.060  21.763   7.298 -0.0049  0.1401  0.4840
    1W        W49404   7.039  16.039   6.396  0.2026  0.1763  0.0267
    1W        W49405   4.308  13.107   2.321  0.0964 -0.0567 -0.2654
    1W        W49406  21.781   1.096   0.879 -0.1806  0.1487 -0.3070
    1W        W49407   9.595  27.587   7.935 -0.0543 -0.0524 -0.4955
    1W        W49408  24.240  21.664   7.751  0.4221  0.1640  0.1297
    1W        W49409   4.460   4.028   2.585 -0.2501 -0.0421  0.0832
    1W        W49410  23.311  17.213   7.884 -0.0856  0.1155 -0.3002
    1W        W49411  20.544  23.503   7.305 -0.2453  0.4997  0.0017
    1W        W49412   3.866  20.659   1.567 -0.1030  0.2918 -0.0957
    1W        W49413   3.112  16.652   1.852  0.0855  0.0028  0.1847
    1W        W49414  27.617  11.190   6.643 -0.0456 -0.1238 -0.0951
    1W        W49415   3.048  28.109   2.373 -0.0383  0.0880 -0.2108
    1W        W49416  19.393   3.484   3.366  0.2933  0.1833  0.0117
    1W        W49417   1.629   8.963   2.702  0.1356 -0.0333 -0.1764
    1W        W49418  15.910  28.724   7.125  0.2657 -0.0389 -0.0472
    1W        W49419   8.925  29.703   0.682  0.1207  0.3149 -0.1954
    1W        W49420   4.248   8.320   2.419  0.2375  0.1019 -0.0593
    1W        W49421  16.431  28.977   0.598  0.1156 -0.0074 -0.1629
    1W        W49422  23.113   6.048   9.465 -0.0444 -0.0260  0.1573
    1W        W49423   5.960  11.576   2.757  0.2460 -0.1106  0.1359
    1W        W49424  21.508  25.008   0.524 -0.0362 -0.2001 -0.1757
    1W        W49425  14.180   5.916   9.298 -0.0732  0.2749  0.0326
    1W        W49426   5.599   5.730   8.177 -0.3106  0.1706 -0.2190
    1W        W49427  12.459  16.215   1.084 -0.1218 -0.2265  0.0859
    1W        W49428  17.341  10.415   1.804  0.0414 -0.2145  0.0188
    1W        W49429  15.572  14.575   1.182 -0.0768  0.1314 -0.2103
    1W        W49430  22.047  10.593   6.895  0.1931 -0.0429  0.3552
    1W        W49431  10.640  12.976   8.746 -0.2116  0.0137  0.0901
    1W        W49432   6.001   1.733   2.541 -0.2423 -0.0224 -0.0482
    1W        W49433  24.272  19.095   8.632 -0.1893 -0.0047 -0.0630
    1W        W49434  12.091   5.992   1.416 -0.0262  0.0434 -0.3676
    1W        W49435  25.414   1.067   0.526  0.0935 -0.0523 -0.1457
    1W        W49436  12.990  29.058   9.251  0.2154 -0.2151 -0.0261
    1W        W49437  16.573   5.232   6.080  0.2417  0.0922 -0.0018
    1W        W49438   4.929   5.384   7.093 -0.0233 -0.3621 -0.1097
    1W        W49439  26.028   7.004   8.323  0.0373  0.1078 -0.0433
    1W        W49440  11.974  19.529   7.145 -0.3566 -0.2277 -0.0432
    1W        W49441  10.528  24.257   2.557 -0.1345  0.1440  0.1470
    1W        W49442  23.032  15.713   1.153  0.0502  0.1276  0.2239
    1W        W49443  29.849   5.532   1.961  0.3285  0.1462 -0.1085
    1W        W49444   6.009   1.691   7.523 -0.1479 -0.1928 -0.2145
    1W        W49445  15.537  21.399   2.326 -0.2703  0.1282  0.0920
    1W        W49446  27.360   7.410   6.916  0.2638 -0.2942  0.2853
    1W        W49447  11.971   7.780   7.399  0.1254 -0.3408  0.1084
    1W        W49448  25.590   3.923   3.023 -0.0792 -0.0954 -0.0543
    1W        W49449  15.634   5.672   8.516 -0.1787 -0.1791  0.0874
    1W        W49450   0.605   0.654   6.965  0.0217 -0.2749 -0.1270
    1W        W49451  13.102   9.510   8.440 -0.0448  0.2105 -0.2600
    1W        W49452  12.305  22.513   9.266 -0.0826 -0.2149  0.0411
    1W        W49453  29.074   3.253   9.394 -0.0258  0.0399 -0.0671
    1W        W49454  28.899  17.522   2.260 -0.0003 -0.2267 -0.2491
    1W        W49455  28.602  20.580   7.239 -0.1966  0.1179 -0.0472
    1W        W49456  16.165   1.330   9.092  0.0355 -0.0801  0.0756
    1W        W49457   9.454   6.398   8.628 -0.1779  0.3497  0.0331
    1W        W49458   4.872   4.641   2.039  0.1729 -0.1912 -0.0775
    1W        W49459  23.846  29.600   1.280  0.2037 -0.0302  0.0276
    1W        W49460  13.910  20.328   1.728 -0.2050 -0.1128 -0.0332
    1W        W49461  10.768   8.838   0.707  0.1338  0.2297 -0.0856
    1W        W49462  12.304  22.008   9.318 -0.3013 -0.2426 -0.1400
    1W        W49463   3.143   0.828   0.281  0.0114 -0.0169 -0.2189
    1W        W49464  24.556  23.862   2.621 -0.0957 -0.1012 -0.1182
    1W        W49465   6.853   1.181   8.974  0.0061 -0.2989  0.2451
    1W        W49466  10.140   4.198   0.393 -0.2431  0.0200 -0.1305
    1W        W49467  19.467  22.792   8.301 -0.3033 -0.0474  0.0462
    1W        W49468  27.291   2.086   9.366 -0.1782  0.1663 -0.1418
    1W        W49469  19.961  14.940   8.546  0.2317  0.2088  0.1536
    1W        W49470   1.204  18.352   8.147  0.0531  0.1720  0.1334
    1W        W49471   8.481   6.522   2.003 -0.0900 -0.1081 -0.2108
    1W        W49472  18.722  27.442   9.448  0.0655  0.1289 -0.2659
    1W        W49473  20.506  13.686   9.157 -0.0085 -0.0294 -0.0512
    1W        W49474   4.419   2.745   8.080 -0.2055  0.2601 -0.2652
    1W        W49475   1.210  18.747   1.585 -0.0536  0.0298  0.2035
    1W        W49476  27.789  17.215   0.967 -0.0897  0.1041 -0.1909
    1W        W49477   6.221   1.724   7.992  0.2477 -0.2254  0.1303
    1W        W49478  13.183  27.214   1.712 -0.0468  0.1055  0.0665
    1W        W49479   9.139   0.904   8.552  0.0713  0.2774 -0.0937
    1W        W49480   0.208   5.401   1.488  0.0153  0.1277 -0.1549
    1W        W49481  15.550   8.842   0.662  0.0756  0.1221 -0.1032
    1W        W49482  10.609  23.668   8.876 -0.1668  0.0882  0.0590
    1W        W49483  13.591  11.079   2.745  0.3097  0.0373 -0.0328
    1W        W49484   9.769  10.782   8.004  0.0276 -0.0107 -0.1501
    1W        W49485  10.096  27.767   7.876  0.0951 -0.0304 -0.0363
    1W        W49486   5.578   3.236   0.228 -0.0568  0.0218  0.0943
    1W        W49487  15.751  24.853   6.893  0.0059 -0.2441 -0.1619
    1W        W49488   0.857   0.010   6.481 -0.0644  0.0689 -0.2499
    1W        W49489   5.495   1.132   0.411  0.0805  0.2981 -0.0247
    1W        W49490  29.487  29.319   2.196  0.4003 -0.2312  0.1174
    1W        W49491  17.781  14.632   1.838  0.2419  0.2576 -0.1080
    1W        W49492  13.813   0.873   3.864 -0.0467 -0.0077  0.3210
    1W        W49493  11.072   6.958   2.655 -0.1950  0.0375 -0.0851
    1W        W49494  25.101  16.131   9.411 -0.4821  0.1246  0.0550
    1W        W49495  23.937   3.036   8.963 -0.2985 -0.2500  0.0014
    1W        W49496  12.951  13.443   7.848  0.1529 -0.0982  0.1073
    1W        W49497  19.912  18.377   9.414 -0.0587 -0.1143  0.0149
    1W        W49498   7.184  25.821   0.277  0.0262 -0.2539  0.0472
    1W        W49499   4.102  12.129   8.847  0.1111  0.0328  0.0237
    1W        W49500   7.338  12.675   0.445 -0.2032 -0.2964  0.0804
    1W        W49501  22.216   0.054   9.137 -0.0821  0.2806  0.0865
    1W        W49502  14.126  13.926   8.440  0.1264 -0.0108  0.0528
    1W        W49503  13.921  11.686   0.836  0.1241 -0.0580  0.0949
    1W        W49504  29.061  28.048   2.242  0.0733  0.0960 -0.1302
    1W        W49505  16.294  25.750   0.025 -0.2474 -0.4724  0.0518
    1W        W49506  29.220  23.189   7.131  0.3367 -0.0551  0.1051
    1W        W49507  28.487   1.563   7.175 -0.0583  0.4721  0.2175
    1W        W49508  20.872   3.515   6.916  0.0315  0.1562 -0.2680
    1W        W49509  21.018   9.466   1.017 -0.0701  0.2631  0.1448
    1W        W49510   9.416   0.156   8.468  0.2656  0.0581 -0.0443
    1W        W49511   8.125  15.382   2.840 -0.0145 -0.1690  0.0751
    1W        W49512  21.033   9.531   7.356 -0.0928 -0.0234  0.0077
    1W        W49513   8.942  22.288   8.986 -0.0491 -0.0873  0.1338
    1W        W49514  15.478  12.522   7.008 -0.0875 -0.2246 -0.0655
    1W        W49515  18.728   0.962   6.290  0.2254 -0.0492 -0.2093
    1W        W49516   8.248  26.239   0.634 -0.0993 -0.2493  0.2619
    1W        W49517  14.118  23.439   6.714  0.0746 -0.2174 -0.2025
    1W        W49518  24.297  17.368   6.716  0.0784  0.2603 -0.1621
    1W        W49519   5.786  19.018   5.647 -0.1099 -0.0012  0.0996
    1W        W49520   6.313  16.701   1.915  0.0382 -0.0704  0.3266
    1W        W49521  29.040   2.164   1.796  0.0354 -0.1278 -0.0313
    1W        W49522  21.982  17.251   2.137  0.1736 -0.3520  0.3798
    1W        W49523  13.231  29.836   1.124 -0.1255  0.2157 -0.0200
    1W        W49524  27.100  22.335   1.488  0.1416  0.1530 -0.2324
    1W        W49525  27.712   7.524   1.849  0.0954  0.1053 -0.1528
    1W        W49526  12.714  23.438   8.770  0.0078  0.1258  0.1912
    1W        W49527  29.339  23.662   2.260 -0.0151  0.2267  0.1988
    1W        W49528   5.910  12.429   0.549 -0.3931  0.1841 -0.2457
    1W        W49529  23.145  21.163   2.643  0.2661  0.2110 -0.2339
    1W        W49530  23.572  26.052   8.721 -0.1409 -0.3485 -0.1972
    1W        W49531  28.878  18.073   2.292  0.2516 -0.2426  0.0719
    1W        W49532  14.284   3.116   0.522 -0.0005  0.1279 -0.1565
    1W        W49533   6.077   1.675   1.658 -0.1194  0.1833  0.0839
    1W        W49534   9.360   9.176   8.027 -0.0704  0.4460 -0.0360
    1W        W49535  26.528  14.335   0.147  0.1097  0.2442  0.1882
    1W        W49536  25.192   7.096   7.656  0.1055 -0.0174  0.3174
    1W        W49537   1.441  11.084   1.853  0.0592  0.2718 -0.3222
    1W        W49538  15.675   3.436   7.220 -0.0547 -0.2379 -0.1401
    1W        W49539  12.642  17.735   0.136  0.0485 -0.4226  0.1341
    1W        W49540  12.221   5.994   2.851  0.2996  0.3207 -0.1980
    1W        W49541  12.740  27.721   4.067  0.0232 -0.3621  0.0356
    1W        W49542  16.405  12.766   8.777 -0.2923  0.1715 -0.0153
    1W        W49543   4.234  12.942   0.887 -0.1653 -0.0753  0.0350
    1W        W49544  15.905  18.807   8.538  0.1012  0.0817  0.0450
    1W        W49545   2.797  18.329   0.650  0.0371 -0.0677 -0.0814
    1W        W49546  26.817  24.893   9.183 -0.0658 -0.2228  0.0083
    1W        W49547  15.375  18.317   1.874 -0.1099 -0.1847  0.0165
    1W        W49548  25.758  24.276   0.387 -0.2396  0.2095  0.0327
    1W        W49549  16.576  13.451   8.080  0.2231  0.3473 -0.0475
    1W        W49550   1.735  13.875   7.373  0.0792 -0.0720  0.1586
    1W        W49551  16.597   0.648   0.024 -0.2409  0.1704 -0.0785
    1W        W49552  12.242  20.157   2.117  0.0175 -0.0420 -0.1746
    1W        W49553  27.881   8.099   7.634 -0.0928 -0.0831  0.2242
    1W        W49554   1.764  23.574   9.365  0.1506  0.0578 -0.0613
    1W        W49555   4.119  21.483   6.635 -0.0555  0.0852 -0.2812
    1W        W49556   6.229   8.426   0.579  0.1540  0.2689  0.1405
    1W        W49557   3.239  26.652   7.798 -0.3228 -0.1812 -0.1633
    1W        W49558  28.401  24.939   8.343  0.2163 -0.1765  0.0693
    1W        W49559  16.114  26.888   2.800  0.2053 -0.1364 -0.1907
    1W        W49560  18.978  27.983   8.648  0.1344 -0.0302 -0.0798
    1W        W49561  14.830  20.017   0.742  0.1310  0.0904 -0.0045
    1W        W49562   2.481   7.138   2.791 -0.3227  0.0581 -0.2460
    1W        W49563  28.733  26.682   8.992 -0.0891 -0.2600  0.0714
    1W        W49564   3.450   2.206   0.153 -0.5521  0.3374  0.2949
    1W        W49565   5.720   9.702   0.041 -0.1494 -0.1828  0.0569
    1W        W49566  18.138   6.272   7.389 -0.2395  0.0496  0.0233
    1W        W49567  29.571   5.266   8.350 -0.1645 -0.1680  0.1070
    1W        W49568  19.989  29.189   7.080 -0.1477 -0.0516 -0.1511
    1W        W49569  25.893  19.743   0.665 -0.0999 -0.0379  0.3995
    1W        W49570  12.731  23.201   2.029  0.2373 -0.0253 -0.0624
    1W        W49571   7.545  26.377   9.136 -0.1682  0.0171  0.1073
    1W        W49572  15.317  14.976   7.249 -0.2336 -0.2075 -0.1402
    1W        W49573  11.120   8.392   7.920  0.1987 -0.1551 -0.2752
    1W        W49574   0.403  15.161   6.884  0.1923 -0.1247 -0.2028
    1W        W49575  26.549   3.719   7.946  0.1680 -0.1713  0.0331
    1W        W49576  16.423  18.464   8.544  0.0377  0.1247 -0.1695
    1W        W49577   8.335  21.723   2.260 -0.1378 -0.1212  0.1092
    1W        W49578   7.825   7.907   7.871  0.0290  0.0052 -0.4216
    1W        W49579  11.508   3.977   0.743 -0.3830  0.1736 -0.4071
    1W        W49580   4.796  28.940   0.068  0.0626  0.2471 -0.1478
    1W        W49581  29.049  24.064   7.357 -0.1351 -0.0721 -0.0732
    1W        W49582  13.023  28.386   3.012 -0.2862 -0.1618  0.0622
    1W        W49583   4.556  20.046   2.514 -0.1098 -0.1283  0.0170
    1W        W49584   4.650   7.585   9.211 -0.2348  0.0045  0.0162
    1W        W49585  27.229   8.243   8.308  0.1689  0.4290 -0.0710
    1W        W49586  13.804   6.649   1.397  0.0498  0.0404 -0.0227
    1W        W49587  10.518  29.723   7.606 -0.2252 -0.0013  0.1271
    1W        W49588  15.295  13.965   6.557  0.0401 -0.0193  0.2308
    1W        W49589  25.467  16.637   0.555  0.1461  0.0486 -0.2576
    1W        W49590   7.098   3.725   1.823 -0.1296  0.1048 -0.0899
    1W        W49591  28.185  23.769   0.116  0.0533 -0.0284  0.0829
    1W        W49592  24.558  22.561   8.349 -0.2256 -0.1188  0.0419
    1W        W49593   9.107   2.909   1.805  0.0025  0.0994  0.1223
    1W        W49594   3.477  19.558   5.833  0.0402 -0.0188 -0.0225
    1W        W49595  10.485  26.299   2.905 -0.0628 -0.1426  0.2891
    1W        W49596   0.834  11.538   6.949  0.0073 -0.0293 -0.0774
    1W        W49597  25.385  27.988   2.570  0.1056 -0.2800 -0.3085
    1W        W49598  13.263  14.872   0.755  0.2555  0.1715  0.0077
    1W        W49599  27.252   9.210   7.273  0.0033  0.2086 -0.1622
    1W        W49600   9.023   2.570   3.738  0.2464  0.1947  0.0331
    1W        W49601   9.735   7.730   2.641 -0.0392 -0.1589 -0.2291
    1W        W49602  21.866  11.024   0.128 -0.0201 -0.2771 -0.0853
    1W        W49603   1.548   3.252   7.506 -0.0825  0.1239  0.1272
    1W        W49604  11.465  20.104   0.376  0.0479 -0.2932 -0.2886
    1W        W49605  22.530  21.655   0.589 -0.2197 -0.0240 -0.0357
    1W        W49606  21.249  17.273   7.362  0.0880 -0.0284  0.0188
    1W        W49607   2.657  18.710   6.539 -0.0855 -0.2283 -0.2023
    1W        W49608   8.751  20.806   1.445  0.0785 -0.1993 -0.0417
    1W        W49609   9.849  21.223   0.536 -0.0082  0.1001 -0.1156
    1W        W49610  16.028  11.765   6.892  0.0318  0.1249  0.1207
    1W        W49611  21.932   7.566   1.561  0.2516 -0.1636  0.1630
    1W        W49612  28.832   5.320   8.850 -0.0560  0.0670  0.2663
    1W        W49613  25.484  22.668   6.976 -0.0484 -0.3077  0.1746
    1W        W49614   3.846  19.233   7.093 -0.1289  0.1381 -0.0257
    1W        W49615  18.285  22.975   2.481  0.0199 -0.0161 -0.1391
    1W        W49616  15.865   8.893   1.098  0.3238  0.2539  0.3556
    1W        W49617  11.938   0.746   3.557 -0.1033 -0.0537 -0.0860
    1W        W49618  17.038  13.003   1.921  0.1723 -0.2951 -0.0450
    1W        W49619   6.442  23.325   9.362  0.1709  0.2109 -0.2288
    1W        W49620  17.721  24.397   2.286 -0.0149 -0.3322 -0.0745
    1W        W49621  12.821  28.840   2.575  0.3048 -0.0317  0.0604
    1W        W49622  27.142  16.325   6.896 -0.4653 -0.1351 -0.1210
    1W        W49623  11.864  28.206   9.368  0.5007 -0.2826  0.0183
    1W        W49624   5.575  17.193   9.266  0.0310 -0.1937  0.0950
    1W        W49625  23.643  21.695   3.488  0.0379  0.2129 -0.3825
    1W        W49626   3.444  10.086   2.604  0.1013 -0.1091  0.0787
    1W        W49627  24.467   7.436   8.960  0.0812  0.0548 -0.0503
    1W        W49628  23.469  25.999   6.514  0.2502  0.2524  0.0907
    1W        W49629  28.934  18.175   0.212  0.0810 -0.1305 -0.2876
    1W        W49630  24.909   1.687   1.949  0.2020 -0.0599  0.1883
    1W        W49631  20.461   0.393   7.211  0.0518  0.0614  0.0333
    1W        W49632   6.733  27.073   2.460  0.2826  0.0048  0.0609
    1W        W49633  18.968  15.168   8.514  0.0370 -0.2466  0.1288
    1W        W49634  14.973   8.110   2.882  0.1387  0.1894 -0.3475
    1W        W49635  24.439   4.206   9.080  0.1613 -0.1588  0.0457
    1W        W49636  21.257   7.392   0.624  0.2519 -0.0746 -0.0012
    1W        W49637  26.033  28.768   2.315  0.3801 -0.0887  0.1705
    1W        W49638  11.792  29.225   7.066  0.1633 -0.6150  0.1708
    1W        W49639  29.664  25.781   8.646  0.0608  0.0686  0.0441
    1W        W49640   5.707  11.793   5.849 -0.1804  0.4191 -0.0551
    1W        W49641  16.591   3.994   0.780  0.1079 -0.1239  0.1056
    1W        W49642   7.563  16.837   0.208  0.0824  0.2197 -0.1356
    1W        W49643  16.888  11.012   0.268  0.2329  0.4079 -0.1052
    1W        W49644  13.571  15.460   1.263 -0.1714  0.0983 -0.1117
    1W        W49645  24.589  12.525   8.783 -0.1271  0.2665  0.3050
    1W        W49646   3.429  29.167   6.726 -0.1124  0.2201  0.3213
    1W        W49647   4.577  22.356   7.172 -0.2638  0.1040  0.1239
    1W        W49648  17.835   2.687   7.291 -0.0147 -0.0948  0.0986
    1W        W49649  22.585  28.709   8.294 -0.3147  0.1231 -0.1328
    1W        W49650  10.308   0.040   0.555  0.0306 -0.4035  0.1014
    1W        W49651   9.353   7.592   2.946 -0.1269 -0.0321  0.2010
    1W        W49652   9.389   1.303   2.044 -0.0354 -0.0270 -0.0892
    1W        W49653  22.156   4.339   0.279 -0.0370 -0.0272 -0.1237
    1W        W49654  17.430  18.951   8.620 -0.2701 -0.0071  0.2362
    1W        W49655  23.300   3.953   3.679 -0.0998  0.1700 -0.0256
    1W        W49656  16.583  24.839   9.056 -0.1809 -0.1747  0.4505
    1W        W49657  24.788   2.155   0.937 -0.1312  0.0451  0.2065
    1W        W49658  20.388  29.127   0.977  0.0475 -0.3065  0.1194
    1W        W49659  16.621  10.753   0.680  0.0738 -0.0457  0.0914
    1W        W49660  25.040  13.094   6.647  0.0497  0.0105  0.1719
    1W        W49661  14.722  22.034   7.642  0.0255 -0.2426 -0.3453
    1W        W49662  25.090  15.703   2.272 -0.1248  0.0295  0.2031
    1W        W49663  29.622  14.822   2.831 -0.2307 -0.3809  0.0267
    1W        W49664  25.906  19.590   6.316  0.2207  0.0293  0.3164
    1W        W49665  29.652   1.540   1.601  0.0109  0.1119  0.1674
    1W        W49666  11.808  12.035   0.733 -0.3116 -0.3098  0.1209
    1W        W49667  22.038   9.535   1.657  0.0494 -0.1592 -0.0945
    1W        W49668   7.602  28.182   7.349  0.0841  0.0364 -0.0279
    1W        W49669  28.114  11.507   8.121  0.1137  0.1628 -0.0529
    1W        W49670  26.603  20.740   7.714  0.2261  0.0054  0.1100
    1W        W49671   9.492  26.735   8.174 -0.3455  0.0791 -0.2919
    1W        W49672  28.969  13.905   0.066  0.1067  0.3507 -0.2037
    1W        W49673  10.314  15.474   8.912 -0.2274 -0.0062  0.0032
    1W        W49674  16.353   2.376   0.210  0.1574  0.1531  0.2828
    1W        W49675  12.386  29.723   7.501 -0.0396 -0.4115  0.0326
    1W        W49676   4.986  22.480   0.101  0.2003 -0.1562  0.2015
    1W        W49677  14.150  16.968   7.109  0.2805  0.0549 -0.0793
    1W        W49678  19.735  18.641   8.458  0.1175  0.0606 -0.0090
    1W        W49679  19.554  23.284   7.340 -0.0662 -0.0081  0.1117
    1W        W49680   4.584  29.213   2.493  0.1513  0.0017 -0.4972
    1W        W49681   7.946   5.289   7.697 -0.2695  0.0983  0.1180
    1W        W49682   1.337  10.491   1.913  0.1349  0.0987  0.1770
    1W        W49683  28.643   8.422   1.995 -0.1563 -0.0854  0.0985
    1W        W49684  19.899  13.823   8.262 -0.1530  0.2154 -0.2322
    1W        W49685  19.084  11.023   8.223 -0.0330  0.2403 -0.2594
    1W        W49686   6.612  22.217   7.012  0.2057  0.0451 -0.0906
    1W        W49687  21.110  23.217   0.190  0.1532  0.2502  0.0420
    1W        W49688  23.600  19.488   2.352 -0.1375 -0.1396  0.0044
    1W        W49689   1.260  24.287   8.894  0.0375  0.2880  0.1836
    1W        W49690   2.790  18.546   1.795  0.0510 -0.1721  0.1203
    1W        W49691  25.978   3.152   1.288 -0.0201 -0.0185  0.1294
    1W        W49692   9.181   9.199   2.020 -0.0213 -0.1172 -0.3388
    1W        W49693   5.895  28.155   3.465 -0.3838  0.0111  0.0607
    1W        W49694   5.446  17.929   7.927  0.1895  0.0397  0.1228
    1W        W49695   2.923  25.777   9.192 -0.2709 -0.0787  0.1755
    1W        W49696  24.304   5.084   2.439 -0.1776 -0.2190 -0.0805
    1W        W49697  24.734  14.005   5.931 -0.2975  0.0547 -0.1346
    1W        W49698  20.124  23.267   8.014 -0.0632  0.2420  0.2552
    1W        W49699  21.961  20.676   2.440 -0.2575  0.2349  0.0966
    1W        W49700  12.745  15.823   1.444  0.1285 -0.0929 -0.1334
    1W        W49701  28.523  16.642   1.820 -0.2686  0.2453 -0.2183
    1W        W49702   9.834  16.569   7.807  0.0818 -0.3539  0.0353
    1W        W49703  24.807   9.679   7.341 -0.0583  0.0455 -0.1855
    1W        W49704  25.398  24.378   1.548 -0.1640 -0.0519 -0.0269
    1W        W49705  19.949  10.233   2.222 -0.0479  0.0514 -0.0945
    1W        W49706  17.827  12.711   1.405 -0.0451 -0.1769 -0.1233
    1W        W49707   5.682   0.254   2.412 -0.1669 -0.2059 -0.2772
    1W        W49708  15.686   2.575   1.975 -0.0264 -0.1251 -0.0910
    1W        W49709   7.869  27.272   1.425 -0.1947  0.0628  0.0333
    1W        W49710  29.705  18.833   0.256  0.1854  0.0065 -0.1495
    1W        W49711  20.053   3.135   7.849  0.0041  0.2651 -0.3050
    1W        W49712   5.968   1.413   2.967  0.0885 -0.2810 -0.2947
    1W        W49713  14.708  16.869   6.796  0.1339 -0.0184  0.1748
    1W        W49714  18.839  28.710   0.962  0.1101  0.1846  0.1135
    1W        W49715   9.342   1.434   9.302 -0.3017 -0.0674 -0.0639
    1W        W49716  21.034  29.319   7.447 -0.1610  0.0798  0.3080
    1W        W49717  21.506   3.419   6.619 -0.4929  0.0643  0.2275
    1W        W49718  11.870  19.817   8.921  0.1783  0.1900 -0.1507
    1W        W49719  16.830   7.489   0.625 -0.1816 -0.0200  0.0952
    1W        W49720  21.359  28.740   0.362 -0.0354  0.0400  0.0488
    1W        W49721  17.219  23.327   1.190 -0.0384  0.1506  0.0225
    1W        W49722  23.253   9.209   0.968  0.0635  0.0721 -0.2101
    1W        W49723   8.464  24.908   1.846  0.1704  0.1297  0.1082
    1W        W49724   8.268  19.914   5.648 -0.0228  0.2723  0.0590
    1W        W49725   4.176  29.398   8.619 -0.2337 -0.0246  0.3889
    1W        W49726  18.151  20.982   8.294  0.0577  0.1891 -0.1517
    1W        W49727   8.920   2.728   3.205  0.2620  0.0303  0.3048
    1W        W49728  23.451  21.259   7.903  0.1078 -0.1041  0.0694
    1W        W49729   2.557   5.034   1.151  0.2716  0.0760  0.1747
    1W        W49730  14.494  27.186   1.831 -0.2328 -0.1644  0.1294
    1W        W49731  22.189   1.525   7.266  0.0968  0.2160 -0.0312
    1W        W49732  18.470  27.406   8.041  0.2474  0.1350 -0.0305
    1W        W49733  27.301  22.000   3.150  0.0175  0.1755  0.1243
    1W        W49734  27.124  14.979   7.693 -0.0503  0.1277 -0.1045
    1W        W49735  11.690   5.095   8.964  0.2012 -0.3818  0.3684
    1W        W49736  11.533   6.433   8.818 -0.2427 -0.0190 -0.3240
    1W        W49737  26.771  14.745   1.372 -0.3391  0.2365  0.0053
    1W        W49738  29.224  20.241   2.160  0.3247 -0.0518  0.0743
    1W        W49739   0.975   1.275   1.972 -0.0172  0.2701  0.1402
    1W        W49740  16.385  22.597   1.687 -0.3824 -0.0209  0.0227
    1W        W49741  11.332   8.710   8.914 -0.0560 -0.0945  0.2662
    1W        W49742   4.007  18.174   1.582  0.2524 -0.2571  0.0041
    1W        W49743  20.713   3.619   8.041  0.1441 -0.1063 -0.0049
    1W        W49744   9.587  12.977   8.576 -0.2767 -0.1688  0.1211
    1W        W49745   8.745  24.280   7.374 -0.0672  0.3802  0.1425
    1W        W49746  29.864  17.182   8.323  0.0601 -0.0941  0.0470
    1W        W49747  27.857   5.972   8.452  0.1462 -0.1842  0.1438
    1W        W49748  28.818  12.086   7.768  0.1475  0.0947 -0.1210
    1W        W49749  22.097  22.024   2.400 -0.0060 -0.0369  0.0225
    1W        W49750  10.172   4.756   8.220 -0.3066  0.1875 -0.0710
    1W        W49751  23.296  22.796   7.421 -0.2871  0.0917 -0.1348
    1W        W49752  27.572  19.463   8.042 -0.1380  0.0691 -0.3207
    1W        W49753  29.016   4.893   9.174  0.0495 -0.2977  0.3469
    1W        W49754  11.410  10.432   8.465 -0.0908 -0.1757  0.0738
    1W        W49755  12.989  25.622   2.932  0.0497 -0.0795  0.0291
    1W        W49756   6.349   6.033   0.162  0.0476 -0.0403 -0.2252
    1W        W49757  13.834  11.779   8.988  0.0744  0.0637 -0.0781
    1W        W49758  23.521   3.949   9.301  0.0004  0.0956  0.0574
    1W        W49759   5.272   2.153   8.666  0.0602 -0.1053 -0.1645
    1W        W49760  28.968   2.079   6.533  0.2642  0.0638 -0.0919
    1W        W49761  14.525  23.671   6.531 -0.0736  0.0073  0.0132
    1W        W49762  14.301  26.628   8.368 -0.1799 -0.0492  0.0235
    1W        W49763  15.116  25.584   0.659  0.0339  0.2282 -0.0618
    1W        W49764  17.805  14.552   9.346  0.2760 -0.1768 -0.0641
    1W        W49765  14.655   5.669   2.341  0.4434 -0.3705 -0.1166
    1W        W49766  26.741  21.190   2.462  0.0701 -0.1617  0.2517
    1W        W49767  29.786  17.912   9.460  0.1423 -0.1243  0.0678
    1W        W49768  28.386   6.240   2.282  0.0227 -0.2708 -0.2259
    1W        W49769  15.223   5.897   7.610 -0.5299 -0.1331  0.1182
    1W        W49770  24.508   3.898   7.437  0.1047  0.3846 -0.0093
    1W        W49771  22.090  21.339   7.493 -0.1449  0.2034  0.0198
    1W        W49772  25.599  25.400   9.054  0.0531  0.4352 -0.1336
    1W        W49773  29.381  11.075   7.326 -0.0431 -0.0293  0.1255
    1W        W49774   9.894   4.351   1.561 -0.1612  0.0181 -0.1147
    1W        W49775  17.375  12.614   8.729 -0.0849  0.1661  0.1364
    1W        W49776   4.819   7.420   3.456 -0.1033  0.1461 -0.0805
    1W        W49777   7.970  13.744   1.686  0.3071 -0.1628  0.1386
    1W        W49778   9.232   3.105   3.068 -0.4663  0.0083  0.1699
    1W        W49779  27.183   2.651   8.056 -0.0539  0.1965 -0.2689
    1W        W49780  17.661   7.455   1.911  0.0384  0.1994 -0.1078
    1W        W49781   5.756   1.468   8.381 -0.0907  0.1361 -0.3168
    1W        W49782   0.658   3.470   0.357  0.3606  0.0191 -0.2520
    1W        W49783  15.765  28.238   8.577  0.0492  0.0155  0.0315
    1W        W49784  18.807  13.964   8.946  0.0104 -0.2271 -0.1422
    1W        W49785  15.376  17.701   9.279  0.0368  0.1581  0.1731
    1W        W49786   6.322   0.550   3.496  0.0603 -0.0425 -0.1480
    1W        W49787   1.445  15.387   9.402 -0.2205 -0.0722  0.1925
    1W        W49788  22.642  23.085   2.667 -0.0678  0.0364 -0.1894
    1W        W49789  16.443   1.444   8.701 -0.1012 -0.0654 -0.0852
    1W        W49790   5.001   9.120   8.423 -0.1760 -0.0126 -0.0560
    1W        W49791  29.066   7.018   2.056 -0.0232 -0.2616  0.2313
    1W        W49792  12.623  17.523   0.659  0.0008  0.3983 -0.1687
    1W        W49793  26.378  23.658   1.229  0.3329 -0.3342  0.1474
    1W        W49794   8.516  17.141   9.346 -0.1702 -0.1067  0.1244
    1W        W49795   8.651  20.256   8.357 -0.1807  0.0737 -0.2116
    1W        W49796  22.359  11.629   6.640  0.1454  0.1603  0.1236
    1W        W49797  15.300  24.106   8.736 -0.1525 -0.0880 -0.4123
    1W        W49798  10.224  28.024   2.377  0.2746 -0.2635  0.2831
    1W        W49799  11.084  20.870   9.106 -0.0948 -0.0324  0.0621
    1W        W49800  16.685  21.103   7.104 -0.2548  0.1280  0.1932
    1W        W49801  28.635  21.376   2.635  0.0417 -0.0621 -0.1503
    1W        W49802  23.996  23.563   2.133 -0.3164 -0.0013  0.3775
    1W        W49803  28.088  20.137   2.931  0.0599 -0.0714  0.2674
    1W        W49804  13.076  17.301   1.307 -0.2166 -0.2602  0.1610
    1W        W49805  24.527  18.983   8.125  0.2973 -0.0772 -0.0796
    1W        W49806  14.585  27.103   8.490 -0.1333  0.2262  0.0312
    1W        W49807   3.896  14.198   8.464  0.1145  0.2322  0.3645
    1W        W49808  11.118  15.920   1.879 -0.1450 -0.0564  0.1985
    1W        W49809   6.618  22.883   0.880  0.0617  0.1454  0.1382
    1W        W49810  18.093  15.884   7.328 -0.3128 -0.1230  0.0724
    1W        W49811  26.100  27.887   3.218  0.3182  0.0759  0.0768
    1W        W49812   0.906  17.595   7.134  0.2267  0.0654 -0.2010
    1W        W49813  25.208  17.197   0.545  0.2762  0.4248 -0.3480
    1W        W49814  14.520  13.361   1.490  0.0623  0.0883  0.1721
    1W        W49815  14.749  29.215   6.745 -0.0768  0.1892 -0.2316
    1W        W49816  16.001   7.864   0.532  0.0590  0.2143 -0.3735
    1W        W49817   3.344  12.705   0.959  0.3181  0.1963  0.4146
    1W        W49818   7.378  21.109   6.662 -0.2464  0.1967 -0.1325
    1W        W49819   7.611   9.343   9.438  0.0949  0.2383 -0.0287
    1W        W49820  18.237  29.016   1.800 -0.0562  0.0252  0.1707
    1W        W49821   0.927  17.035   0.386 -0.0331  0.2058 -0.4146
    1W        W49822  12.340  19.626   8.173 -0.0614  0.0845 -0.2011
    1W        W49823   9.334  21.340   9.113  0.0813  0.1143  0.0379
    1W        W49824  19.323   9.706   7.225  0.0134  0.1313 -0.1889
    1W        W49825  23.082  10.184   0.348 -0.0397 -0.1437 -0.0670
    1W        W49826   3.223   5.762   2.333  0.2748 -0.1399 -0.3632
    1W        W49827   4.310  19.567   7.764  0.1253  0.0529 -0.1437
    1W        W49828  25.314  10.517   2.063 -0.0043  0.0440  0.3516
    1W        W49829  18.692   9.635   6.806 -0.1909 -0.0575  0.0087
    1W        W49830  20.774  25.324   9.445 -0.0967 -0.1350 -0.0812
    1W        W49831  20.881   8.382   7.405  0.1365 -0.0861 -0.0685
    1W        W49832  17.433  18.988   6.849 -0.1492 -0.3825 -0.4166
    1W        W49833  28.537  10.979   2.642 -0.1164  0.1141 -0.0643
    1W        W49834  19.279   5.092   7.173  0.0598  0.1844 -0.0152
    1W        W49835  29.191  24.418   6.678 -0.5066 -0.0669  0.2442
    1W        W49836   8.043   5.227   1.844 -0.1466  0.7232 -0.2213
    1W        W49837  22.197   9.208   0.602  0.2283  0.0890  0.1407
    1W        W49838   0.547  10.131   2.474 -0.1651 -0.0939 -0.1430
    1W        W49839  22.844  17.183   7.400  0.1813 -0.0725  0.0671
    1W        W49840  22.292   8.217   6.959  0.2008 -0.1310  0.3339
    1W        W49841   9.698  25.885   0.893  0.1213  0.2483  0.0009
    1W        W49842  16.756   1.937   7.728  0.1223 -0.1383 -0.0835
    1W        W49843  10.676  18.660   0.222  0.1021 -0.0430 -0.0615
    1W        W49844  11.096   0.756   0.744  0.1495 -0.0908 -0.0714
    1W        W49845  22.126  29.101   0.790 -0.0081  0.0395  0.0892
    1W        W49846   9.776  24.862   7.365 -0.0666 -0.3776  0.1545
    1W        W49847  23.374  27.349   6.963 -0.4777 -0.3082 -0.0286
    1W        W49848  11.138  26.018   8.258 -0.1041  0.0384 -0.1136
    1W        W49849  19.821  21.439   9.000  0.0113 -0.1045 -0.0472
    1W        W49850   5.149  15.321   7.631  0.1819 -0.0292 -0.0074
    1W        W49851  21.916  10.039   8.246  0.0345 -0.0633 -0.0883
    1W        W49852  29.581  17.730   2.664  0.2913  0.0199  0.0588
    1W        W49853  27.375  20.941   8.347 -0.0830  0.1764  0.0971
    1W        W49854  13.107  26.220   1.234 -0.0863  0.2062  0.1751
    1W        W49855  19.486   7.490   2.180 -0.2001 -0.0087 -0.1269
    1W        W49856   9.460   9.672   7.808 -0.3677  0.0217 -0.2179
    1W        W49857   9.464   7.883   0.311  0.0708  0.0549  0.1323
    1W        W49858  23.550  29.581   2.377  0.0878 -0.2281 -0.0095
    1W        W49859   2.503  20.566   8.360  0.1891  0.2587  0.1812
    1W        W49860  28.217  14.769   6.075  0.0028 -0.2138  0.0950
    1W        W49861   6.027  10.353   7.838  0.3684  0.4794 -0.1038
    1W        W49862  23.358  24.465   7.027 -0.2606  0.2387  0.0853
    1W        W49863   0.877  24.243   6.874 -0.0318  0.3129 -0.1523
    1W        W49864   3.229   3.603   7.713 -0.3131  0.3344  0.4011
    1W        W49865  20.028   8.450   8.608  0.1440  0.0538  0.1718
    1W        W49866  29.871  25.308   5.770  0.1883  0.0205 -0.2361
    1W        W49867  14.019  17.551   7.052 -0.0312 -0.0692  0.0468
    1W        W49868  24.248  11.394   6.023  0.1434 -0.2704  0.5334
    1W        W49869  20.739  11.794   1.473  0.0882 -0.2587 -0.0001
    1W        W49870   7.417   0.541   1.942  0.1135 -0.0065  0.0934
    1W        W49871  28.279   1.388   0.443 -0.0409 -0.0698 -0.0076
    1W        W49872  26.017  25.294   1.841 -0.1136  0.1473  0.2245
    1W        W49873   8.633   0.753   0.915 -0.4279 -0.1226  0.0378
    1W        W49874  28.488  17.173   7.047  0.1151  0.0940  0.1458
    1W        W49875  25.119  18.592   6.692 -0.1033 -0.3415 -0.2696
    1W        W49876  24.982  22.310   9.060 -0.0118  0.1203 -0.3518
    1W        W49877   6.099  19.810   0.193 -0.3686  0.2125 -0.2607
    1W        W49878  18.132   8.970   1.218  0.1439 -0.0952  0.1270
    1W        W49879  11.890  12.625   8.542  0.0708 -0.0264 -0.2676
    1W        W49880  29.428   1.129   8.456  0.0929 -0.0060  0.1024
    1W        W49881  13.480   6.018   8.392 -0.2823 -0.1803  0.2746
    1W        W49882   4.459  10.179   9.035  0.0266  0.2057 -0.0833
    1W        W49883  13.219  26.620   3.351  0.1400  0.2729 -0.1742
    1W        W49884   9.160  24.317   1.845  0.6459 -0.2943 -0.0417
    1W        W49885  25.747  29.566   2.885 -0.2615  0.1587  0.2635
    1W        W49886   3.863  23.891   0.953  0.1158  0.2923 -0.0313
    1W        W49887  20.568   2.105   7.307  0.0585 -0.0115  0.0919
    1W        W49888   9.092  25.179   0.780  0.0009 -0.1036  0.0752
    1W        W49889   5.596   9.101   2.296 -0.2466 -0.5124  0.1161
    1W        W49890  12.286   5.886   7.816 -0.1508  0.1963 -0.1831
    1W        W49891  10.291  19.496   0.593  0.0140 -0.2400 -0.1233
    1W        W49892  15.223  13.563   8.114  0.1884 -0.3933  0.0851
    1W        W49893  22.176   3.451   9.299  0.0812  0.1717  0.0812
    1W        W49894  14.373  17.933   6.998 -0.0211  0.0547  0.1731
    1W        W49895   0.143  24.104   2.112  0.0960  0.1856 -0.1772
    1W        W49896   4.843  23.244   7.838  0.0639  0.2507  0.1998
    1W        W49897  13.856  11.733   2.561 -0.2738  0.0654  0.0137
    1W        W49898  20.287  29.338   8.847  0.1396  0.3067  0.0550
    1W        W49899  25.196  12.644   9.212  0.1128 -0.4412  0.0048
    1W        W49900  12.442   5.073   9.428 -0.2939  0.0346  0.1376
    1W        W49901  14.067  19.675   2.561  0.2749 -0.0008 -0.0171
    1W        W49902  15.137  28.530   3.216 -0.2746 -0.3060  0.1613
    1W        W49903  24.447  11.933   6.083  0.1530  0.3304 -0.0852
    1W        W49904  11.292   2.993   0.405  0.1884  0.0215 -0.0706
    1W        W49905  10.428  29.363   7.283  0.0138  0.2258 -0.0154
    1W        W49906  13.628   6.747   0.458  0.0182 -0.2231 -0.0702
    1W        W49907  20.391   9.195   7.143 -0.0934 -0.0935  0.1368
    1W        W49908  23.015  19.734   8.570  0.1320  0.2804  0.3056
    1W        W49909   8.277  20.085   8.710 -0.0513  0.1260 -0.2944
    1W        W49910  26.663  12.850   0.083  0.2912 -0.0101  0.0220
    1W        W49911   0.655   1.306   1.635  0.3091 -0.0495  0.2240
    1W        W49912  16.582  23.934   1.752  0.0548  0.0912  0.0414
    1W        W49913  23.233  16.566   1.600 -0.0054 -0.2703  0.0773
    1W        W49914   1.138   9.079   2.395  0.1724 -0.2922 -0.3243
    1W        W49915  28.091  23.017   8.230 -0.1591 -0.0298  0.5162
    1W        W49916  15.711  27.087   0.496  0.1471  0.2123 -0.1350
    1W        W49917  19.006   5.160   5.945 -0.0419 -0.5694 -0.2274
    1W        W49918   4.417  18.089   7.642  0.1557  0.0457 -0.0088
    1W        W49919  11.446   9.528   2.829 -0.3826  0.2096  0.1904
    1W        W49920  23.167  27.401   7.929 -0.1241 -0.1937 -0.1718
    1W        W49921   0.242  24.855   7.224 -0.1752  0.1254  0.0048
    1W        W49922  18.379   7.145   0.763 -0.0116 -0.1333  0.3900
    1W        W49923  11.818  29.675   7.272 -0.0909  0.1260  0.1003
    1W        W49924   9.235   9.381   9.002  0.0640  0.1574 -0.2203
    1W        W49925  25.526  25.558   3.226 -0.3498  0.0000  0.1988
    1W        W49926  23.787   5.233   2.281 -0.0788 -0.1974 -0.0787
    1W        W49927   2.530   9.431   7.839  0.2560  0.3521 -0.1786
    1W        W49928   9.504  18.654   1.068  0.1890  0.1182  0.2449
    1W        W49929  15.662  21.821   1.184  0.1737 -0.0019 -0.0495
    1W        W49930  25.006  13.067   0.106  0.0520 -0.2050  0.1058
    1W        W49931  19.679  11.068   9.279  0.0271  0.0347 -0.1317
    1W        W49932  24.268   5.870   7.433  0.2175  0.1001 -0.1039
    1W        W49933   6.854  12.830   1.371 -0.0448 -0.2902  0.1047
    1W        W49934   8.139  24.825   9.102 -0.2164 -0.1484  0.0214
    1W        W49935  16.745  17.757   1.782  0.0058  0.1329 -0.0920
    1W        W49936   2.698  19.099   9.009  0.0302 -0.1895  0.1908
    1W        W49937   3.720  12.070   8.338 -0.1824  0.4439 -0.0557
    1W        W49938  20.579  29.801   2.503 -0.2112 -0.1000 -0.1718
    1W        W49939  28.890  29.455   8.597 -0.0927  0.1223  0.1032
    1W        W49940  22.823  16.731   1.833  0.1807  0.0183  0.0435
    1W        W49941  19.571  16.092   2.000  0.1363  0.1599 -0.1287
    1W        W49942  17.508  28.104   9.124 -0.3198  0.0421 -0.2698
    1W        W49943   4.197   3.934   6.596 -0.0656 -0.0123 -0.1312
    1W        W49944  21.962  20.722   9.261  0.1239 -0.0903  0.0202
    1W        W49945  14.409  13.558   8.691 -0.0055  0.2171 -0.3110
    1W        W49946   9.965  10.763   0.814 -0.1611 -0.1789  0.1160
    1W        W49947   9.617  11.332   1.451  0.1228 -0.0631 -0.1726
    1W        W49948  10.730  28.233   2.387 -0.1260  0.3704 -0.0476
    1W        W49949  13.465  27.662   8.648 -0.1205 -0.1752  0.4041
    1W        W49950   4.266   9.358   8.751  0.0271 -0.1847  0.3869
    1W        W49951  12.011  15.383   7.151 -0.2141 -0.3285  0.1252
    1W        W49952   1.558   3.288   2.800 -0.1079  0.1327  0.1843
    1W        W49953   9.244  14.929   6.856 -0.0440 -0.0477  0.1250
    1W        W49954   0.436  16.327   7.506 -0.2015  0.0663  0.2300
    1W        W49955  27.259  13.569   7.064  0.0198 -0.1816  0.1233
    1W        W49956  23.721  23.240   6.478  0.2038  0.3867  0.2584
    1W        W49957   2.401   1.542   2.048 -0.0003  0.2818  0.4865
    1W        W49958   6.199  25.856   7.301  0.2785  0.0902  0.3018
    1W        W49959  27.519  29.514   7.146 -0.0470 -0.0200  0.1046
    1W        W49960   4.627   1.114   1.017 -0.2426  0.1024  0.0335
    1W        W49961   2.123  28.491   7.720  0.0602 -0.0879  0.1026
    1W        W49962   4.855  24.764   6.771  0.0820 -0.2546 -0.3058
    1W        W49963   9.749  12.541   7.746  0.0472  0.0564 -0.2404
    1W        W49964  10.608  22.458   6.962  0.0587 -0.1068 -0.2331
    1W        W49965  17.709  10.696   1.478 -0.1350  0.1409  0.1040
    1W        W49966  22.914  18.631   2.613  0.0833  0.0703 -0.0990
    1W        W49967   5.550  24.213   8.265 -0.2967  0.2051 -0.2375
    1W        W49968  18.210   0.560   2.267  0.1354  0.0686 -0.3229
    1W        W49969   8.125  22.491   1.520 -0.1835  0.0632  0.2139
    1W        W49970  22.224  29.399   0.418 -0.4774  0.1802  0.1594
    1W        W49971  15.411  18.986   9.407  0.0587 -0.0461 -0.1515
    1W        W49972  10.771   3.831   7.441 -0.0290  0.2173  0.0833
    1W        W49973  20.955  12.000   1.863  0.0760  0.0696 -0.2999
    1W        W49974   7.405  23.495   0.562  0.0051  0.2084  0.1896
    1W        W49975  18.150   1.049   8.582 -0.1409 -0.1121 -0.0227
    1W        W49976  24.904   7.238   8.044 -0.1439  0.1036  0.0673
    1W        W49977  11.097   7.974   2.324 -0.3342  0.0454  0.2020
    1W        W49978  26.420  25.222   0.042 -0.1910 -0.0043 -0.1759
    1W        W49979   1.442   1.166   7.293 -0.2137  0.0127  0.0138
    1W        W49980  11.006   5.957   0.719  0.0634 -0.0113  0.3421
    1W        W49981   4.273   0.406   0.544  0.2480  0.1401 -0.1846
    1W        W49982  27.490  11.164   0.424  0.2639  0.0359 -0.2963
    1W        W49983   0.075  20.156   6.035  0.2001  0.1337 -0.2076
    1W        W49984  22.445  27.035   7.335 -0.3900  0.1707  0.3865
    1W        W49985  16.478   3.511   1.716  0.2757  0.3897 -0.2105
    1W        W49986   6.538  25.007   1.306  0.0368  0.3044  0.1704
    1W        W49987   1.391  19.668   7.811 -0.1735  0.3005 -0.0738
    1W        W49988   5.662  13.250   1.761 -0.0572  0.2098  0.1754
    1W        W49989   8.912   1.837   8.715  0.0461  0.2222  0.1339
    1W        W49990  22.242   5.415   6.344  0.2073  0.1827  0.0705
    1W        W49991  13.812  26.802   8.501 -0.3531 -0.0063  0.0040
    1W        W49992  19.903   0.106   7.165 -0.0836  0.2840 -0.0256
    1W        W49993   0.872  28.370   2.012  0.3058  0.0007  0.2938
    1W        W49994  21.394   9.580   1.342 -0.1488  0.3394  0.0775
    1W        W49995  23.833  18.062   1.836  0.0109 -0.2263  0.0361
    1W        W49996  13.092   8.185   1.341 -0.0146 -0.0257  0.1312
    1W        W49997  17.203  28.258   1.717 -0.0072  0.2714 -0.3419
    1W        W49998  22.038  24.690   1.807 -0.1786 -0.0754  0.1348
    1W        W49999   2.606   8.106   9.041 -0.3013  0.1311  0.0934
    1W        W50000  18.957   1.000   8.057  0.0985  0.2355 -0.2415
    1W        W50001  21.614  13.002   9.323  0.0686 -0.0500  0.1055
    1W        W50002   1.640  11.149   8.688  0.0270 -0.0243  0.1288
    1W        W50003   0.824  23.553   2.823  0.1050 -0.0576  0.1270
    1W        W50004  20.180  18.679   8.755  0.2146  0.3340  0.0425
    1W        W50005  11.489  17.560   0.139 -0.0978  0.3437  0.0083
    1W        W50006   0.010   4.657   2.176  0.0926 -0.0416  0.1491
    1W        W50007  15.257  19.219   1.758  0.0938  0.1885  0.0981
    1W        W50008  29.455  28.173   8.990 -0.0615 -0.2657 -0.1536
    1W        W50009   5.444   3.531   0.654  0.0679 -0.1667  0.0622
    1W        W50010  22.796  24.228   3.309 -0.0624 -0.3809 -0.2572
    1W        W50011   9.698  28.193   1.443 -0.1064  0.2463 -0.0490
    1W        W50012  11.598  16.471   6.479 -0.1841  0.1082  0.0585
    1W        W50013  16.962   2.985   2.884  0.2382 -0.0156  0.1595
    1W        W50014   2.121  16.181   8.572 -0.0398 -0.1288  0.1160
    1W        W50015  27.395  27.407   7.732  0.0957  0.2528 -0.0188
    1W        W50016  20.386   3.642   8.510  0.0252 -0.0311  0.1539
    1W        W50017  14.289   5.797   7.366  0.2305 -0.0472 -0.1792
    1W        W50018   6.487   5.215   7.778  0.0782 -0.1968 -0.0628
    1W        W50019   3.993  17.673   6.090  0.0936  0.2255  0.0754
    1W        W50020  18.224  15.800   1.420 -0.1169  0.0866  0.0490
    1W        W50021  15.648   8.535   9.157 -0.0793 -0.0678  0.2308
    1W        W50022   5.466  27.963   2.249  0.0182 -0.2359  0.3512
    1W        W50023  28.325  26.206   8.630  0.0533 -0.0775 -0.2468
    1W        W50024   3.191   8.879   8.660  0.3434 -0.4624 -0.0251
    1W        W50025   8.055  21.424   6.215 -0.0451 -0.1473 -0.3164
    1W        W50026   4.019  25.784   0.373 -0.4777  0.0311 -0.1108
    1W        W50027  16.828  27.803   1.127  0.0217  0.2003 -0.2983
    1W        W50028  22.082   5.085   2.054  0.1146 -0.0226 -0.1680
    1W        W50029  21.849  14.497   8.860  0.0704 -0.0485  0.0757
    1W        W50030  15.341  25.970   9.040  0.0613  0.1596  0.1319
    1W        W50031   9.873  14.420   1.744  0.0090  0.1120 -0.5087
    1W        W50032   1.134   8.726   8.012 -0.1183 -0.0452 -0.0264
    1W        W50033  22.409  27.954   7.388 -0.1062  0.0004  0.1057
    1W        W50034   7.184   2.451   8.770 -0.1841 -0.1871 -0.1168
    1W        W50035  29.905  15.919   2.605  0.0832  0.0691 -0.0298
    1W        W50036  29.747  16.342   2.356  0.0208 -0.2553  0.0649
    1W        W50037  26.825  19.905   8.483 -0.1774 -0.0853 -0.3103
    1W        W50038   7.244  12.486   1.211 -0.2719 -0.1085 -0.0231
    1W        W50039  10.490   3.917   3.821 -0.1169  0.1481 -0.0192
    1W        W50040   4.044  26.963   8.040  0.0723 -0.0256  0.0535
    1W        W50041  14.057  23.408   1.482 -0.2116  0.5257 -0.1340
    1W        W50042  23.635  26.612   2.114  0.1820 -0.2068  0.1772
    1W        W50043  29.405  13.022   6.459  0.0982  0.0357  0.1428
    1W        W50044   3.989  13.239   7.202 -0.1555 -0.3328  0.2205
    1W        W50045  18.725  19.374   9.274 -0.1513 -0.0597  0.4643
    1W        W50046  11.122   4.667   1.545 -0.2499  0.1583 -0.1542
    1W        W50047   9.488  17.667   0.917 -0.1177 -0.0662  0.1822
    1W        W50048   2.664  13.516   2.008  0.0499  0.0734 -0.2766
    1W        W50049  18.842  19.351   2.278  0.0971  0.1400 -0.1144
    1W        W50050  25.747  14.448   8.803 -0.0771  0.1357 -0.1712
    1W        W50051  21.130  25.333   7.579 -0.2447 -0.0668  0.1675
    1W        W50052  10.202   1.549   8.072  0.0104 -0.1955 -0.0857
    1W        W50053  29.673  20.755   1.485  0.1811 -0.0023  0.1713
    1W        W50054   4.670  19.347   8.082 -0.0372  0.0226  0.2277
    1W        W50055  23.222  20.953   9.085  0.0002 -0.1663  0.0321
    1W        W50056  13.588  27.354   6.822  0.0742 -0.0331 -0.1549
    1W        W50057   1.298   9.321   9.280  0.1089  0.0147 -0.1923
    1W        W50058  23.133   0.410   0.956  0.1758 -0.0225  0.2059
    1W        W50059   8.132  28.453   1.815  0.1137 -0.2728  0.0251
    1W        W50060  15.721  12.910   1.891  0.1332  0.2004  0.1794
    1W        W50061   5.462  18.234   1.447  0.1286 -0.0120  0.2340
    1W        W50062   9.599  17.183   9.246  0.2170 -0.1864  0.0770
    1W        W50063   9.466   1.590   2.719  0.1749  0.3921  0.2298
    1W        W50064  29.446  24.949   2.173 -0.0297 -0.0859  0.0208
    1W        W50065   6.262   2.686   9.465 -0.0715 -0.0609  0.0328
    1W        W50066  14.105   8.175   0.924 -0.2924 -0.0133  0.2049
    1W        W50067   2.725   2.233   8.552 -0.1524  0.2595  0.0295
    1W        W50068  13.225   6.256   9.276  0.2664 -0.1407  0.3199
    1W        W50069   2.142  29.691   7.022  0.1481  0.1553  0.1471
    1W        W50070   9.961  26.152   1.222 -0.0675  0.2305  0.4555
    1W        W50071   6.862  29.587   7.613 -0.2066  0.1032  0.1451
    1W        W50072  29.363  28.175   3.056  0.1294 -0.0522  0.1780
    1W        W50073  14.829  28.042   1.921  0.1313  0.0853  0.2780
    1W        W50074  16.020  19.715   7.254  0.0176 -0.0069 -0.0613
    1W        W50075  11.815  13.001   0.373 -0.1449 -0.1609 -0.1466
    1W        W50076   5.228  16.021   8.477  0.1100  0.2314  0.1777
    1W        W50077   5.162  27.612   6.658  0.1189  0.1218  0.0980
    1W        W50078  21.685   6.206   3.408 -0.2292 -0.1985 -0.0681
    1W        W50079  17.731   7.544   7.505 -0.1083  0.3172 -0.2735
    1W        W50080   4.116   3.911   2.967  0.3211  0.2545  0.0995
    1W        W50081  26.273   8.367   7.016 -0.3014 -0.0177 -0.1117
    1W        W50082   8.602  23.182   2.085  0.1863  0.0161 -0.0215
    1W        W50083  17.007  16.230   1.387 -0.0497  0.0566  0.0736
    1W        W50084   9.176  14.350   1.040  0.2433  0.0288 -0.0295
    1W        W50085   3.337   9.982   7.281 -0.1166  0.3214 -0.0349
    1W        W50086  24.640  28.743   7.264  0.0887 -0.0510  0.1789
    1W        W50087  29.044  24.110   2.169  0.0123 -0.0727  0.1896
    1W        W50088  24.094  26.675   6.521 -0.0377 -0.0671 -0.3587
    1W        W50089  26.628   9.833   1.582  0.0277  0.0711 -0.2445
    1W        W50090   7.357  17.854   0.071  0.2114 -0.1003 -0.1410
    1W        W50091   3.634  15.023   1.542 -0.3413  0.2739  0.2252
    1W        W50092  18.852   4.807   7.350  0.0399 -0.1625  0.1271
    1W        W50093  20.899  15.474   7.848  0.0221  0.0114  0.0421
    1W        W50094  27.185  21.950   2.617 -0.0629 -0.1199  0.1278
    1W        W50095   0.988  20.998   7.848 -0.1874  0.0063  0.1426
    1W        W50096  17.484  21.061   1.632  0.0127  0.0250 -0.0330
    1W        W50097   5.913   8.253   0.257 -0.2716 -0.0844  0.0496
    1W        W50098   1.264   6.602   7.861  0.1894  0.1972 -0.0927
    1W        W50099  14.801   7.543   8.073  0.2256  0.1442  0.1930
    1W        W50100  22.661  20.597   2.082 -0.2530  0.1454  0.3396
    1W        W50101  10.289   3.221   3.364 -0.3335 -0.1978  0.0449
    1W        W50102  11.659  11.537   0.409 -0.4222  0.0748 -0.1345
    1W        W50103  15.577  17.705   7.886  0.1797  0.0158 -0.0879
    1W        W50104   8.823  29.835   2.140  0.0542 -0.0480 -0.2326
    1W        W50105   0.531   0.505   8.951  0.1134  0.1543  0.2046
    1W        W50106  16.477  28.251   9.423 -0.2450 -0.0127  0.3741
    1W        W50107  26.043   4.997   1.530 -0.0123 -0.2742 -0.4326
    1W        W50108  10.742  18.143   8.680 -0.0383 -0.0646 -0.1706
    1W        W50109  13.490  16.091   0.393  0.0362 -0.0470  0.0460
    1W        W50110  22.059  11.646   7.121  0.2971  0.2106  0.0796
    1W        W50111   9.234   0.938   3.436  0.1100 -0.1131  0.0627
    1W        W50112  21.804  20.614   7.811  0.2478  0.0999  0.3855
    1W        W50113  16.463  13.123   0.172 -0.2363  0.2276  0.2879
    1W        W50114   0.740  12.501   8.032 -0.3244  0.1808 -0.0678
    1W        W50115  18.037  17.485   1.335 -0.6119  0.1241 -0.0863
    1W        W50116  27.522  12.325   1.273 -0.0161 -0.1636  0.0316
    1W        W50117  16.200  11.600   1.731 -0.0480 -0.1612  0.3406
    1W        W50118  27.228  15.944   8.952  0.0728  0.1586 -0.0088
    1W        W50119   1.172  27.305   0.692 -0.0968  0.0313 -0.0928
    1W        W50120  28.336  27.014   9.079  0.1778  0.0707  0.2891
    1W        W50121  23.140  28.200   1.553  0.0230 -0.0671 -0.2780
    1W        W50122   7.545  18.655   0.318 -0.0078 -0.2897  0.3223
    1W        W50123  14.990  28.638   7.320 -0.0098  0.1289  0.2958
    1W        W50124  24.293   3.592   0.776 -0.1471  0.0819  0.3500
    1W        W50125   0.414   3.593   8.203 -0.2714 -0.3630  0.1560
    1W        W50126   6.396  22.142   0.196  0.0895 -0.0319 -0.2701
    1W        W50127  16.196  19.637   0.703 -0.3366  0.2640 -0.2323
    1W        W50128  24.687  13.950   0.639 -0.0168  0.0976  0.0398
    1W        W50129   1.989   1.173   0.405  0.2299  0.0410  0.1770
    1W        W50130  27.482  27.514   8.225 -0.4014 -0.0230 -0.0055
    1W        W50131  28.655  14.350   9.423  0.0991 -0.0968  0.0371
    1W        W50132  28.597   2.152   0.137 -0.0107 -0.3272 -0.1698
    1W        W50133  25.664   1.105   0.105  0.0442  0.3637  0.0251
    1W        W50134  18.919   8.798   0.210  0.1068  0.1030  0.0210
    1W        W50135  14.160  12.245   0.348  0.1471  0.2589  0.1445
    1W        W50136   9.214  28.810   7.697 -0.1754  0.4242 -0.1993
    1W        W50137  22.017  10.676   9.013 -0.1035  0.0653 -0.0559
    1W        W50138   9.801   9.458   8.140 -0.2234 -0.5943  0.0488
    1W        W50139  17.079  24.929   7.230  0.0842 -0.0471 -0.1453
    1W        W50140  24.844   7.502   1.592 -0.0387 -0.0669 -0.0847
    1W        W50141   6.038  22.504   9.419 -0.3134 -0.0060 -0.1096
    1W        W50142  20.513  23.837   2.989 -0.0401 -0.0994 -0.1690
    1W        W50143  15.822   0.921   0.525 -0.3593  0.0931  0.1555
    1W        W50144   2.987  13.187   6.220 -0.0325 -0.1628  0.1193
    1W        W50145   8.596   4.920   7.439  0.3827  0.0959 -0.1881
    1W        W50146  13.251   9.498   1.430  0.3036  0.4687 -0.2263
    1W        W50147   1.478  20.785   7.256  0.0066 -0.1364 -0.4244
    1W        W50148  27.206  15.273   7.161  0.2113 -0.0919 -0.2649
    1W        W50149   5.278  23.838   8.647  0.1024  0.0485 -0.0448
    1W        W50150   2.416  11.739   0.148  0.0565 -0.1037  0.3306
    1W        W50151  23.340   5.792   7.404  0.0600  0.0172 -0.0730
    1W        W50152   3.510  13.749   5.783 -0.0452 -0.1187 -0.2831
    1W        W50153  14.310  28.308   7.874  0.0383  0.0347  0.3153
    1W        W50154   7.514   9.197   3.221  0.0632 -0.1463  0.0729
    1W        W50155  16.847   9.504   6.861  0.3661 -0.3556  0.1772
    1W        W50156  14.737  23.148   6.413 -0.1943 -0.3283 -0.1074
    1W        W50157   0.591   2.127   8.001 -0.0456  0.0550  0.2560
    1W        W50158  20.208  18.706   2.454 -0.0535 -0.1676 -0.0303
    1W        W50159   7.600  29.509   7.691  0.2234 -0.0698 -0.1251
    1W        W50160   2.887  13.963   6.071 -0.0585 -0.0577 -0.1481
    1W        W50161  26.764  16.067   1.786  0.4116  0.1578 -0.1264
    1W        W50162  12.237   5.818   0.144  0.0875 -0.0586 -0.0712
    1W        W50163  25.811   6.262   1.623 -0.2721 -0.1553  0.2282
    1W        W50164   7.380  20.630   6.458 -0.1040  0.0856 -0.2186
    1W        W50165  14.481   7.126   0.863 -0.0379  0.0368  0.2647
    1W        W50166  13.719  15.341   8.584 -0.2926 -0.1783  0.0993
    1W        W50167   5.894  28.208   8.498 -0.3494 -0.0948 -0.0467
    1W        W50168   4.505  25.743   1.517  0.1296  0.3139  0.3250
    1W        W50169   0.925  21.910   1.373  0.2912 -0.1478 -0.2695
    1W        W50170  26.248  28.648   7.787 -0.0848 -0.2280 -0.0291
    1W        W50171  27.391  18.507   2.785 -0.3501  0.0581 -0.0118
    1W        W50172   9.540  27.064   8.652 -0.1955 -0.1525  0.1409
    1W        W50173  16.284   6.565   1.496  0.1063  0.1876  0.0216
    1W        W50174  22.701  10.943   7.626 -0.0230 -0.3048 -0.1920
    1W        W50175  19.572  10.462   6.914  0.0286 -0.0352 -0.2539
    1W        W50176  12.246  19.898   0.456  0.0820 -0.2547 -0.1220
    1W        W50177  22.717  20.971   2.785  0.2160 -0.0821 -0.2072
    1W        W50178  27.842   7.401   1.296 -0.1606 -0.2218 -0.0837
    1W        W50179  28.500   0.164   6.942  0.0753  0.1710  0.2233
    1W        W50180  24.849  16.117   1.418 -0.2334  0.0530  0.2696
    1W        W50181  10.460  27.263   7.239 -0.0157  0.0679 -0.2821
    1W        W50182  27.238  18.830   1.327 -0.2788  0.0234 -0.0945
    1W        W50183  15.620   3.538   1.243 -0.1573  0.0168 -0.1326
    1W        W50184  20.227  23.831   2.548  0.1450  0.0792 -0.4316
    1W        W50185  18.149   8.157   0.512  0.2100  0.1411  0.1163
    1W        W50186  13.922  15.994   7.106 -0.0641  0.2190  0.1360
    1W        W50187   0.412  28.372   2.824  0.1999 -0.3003  0.1738
    1W        W50188   5.277   0.110   9.209 -0.0417  0.1541 -0.0505
    1W        W50189  27.742  28.539   1.610 -0.1836 -0.0921 -0.1710
    1W        W50190  19.931   4.004   8.619  0.1627  0.4203 -0.3052
    1W        W50191   5.903  29.015   0.927  0.1523  0.0029  0.2785
    1W        W50192  17.187  11.252   2.318  0.0454 -0.1907 -0.0384
    1W        W50193  21.403  21.396   2.872 -0.0607  0.2161  0.2868
    1W        W50194   1.792   7.845   2.287 -0.1434  0.3438 -0.2165
    1W        W50195   8.047  28.343   8.784 -0.0896  0.1182 -0.0509
    1W        W50196  10.285  15.843   1.114 -0.3226  0.2048  0.1015
    1W        W50197  29.686   8.764   7.861 -0.2519 -0.0969  0.2369
    1W        W50198   7.548   4.951   6.553 -0.0132  0.3123 -0.0973
    1W        W50199  11.777   4.855   8.199  0.0595  0.0839 -0.0307
    1W        W50200   3.793  16.003   1.202 -0.0170 -0.0881  0.1801
    1W        W50201   2.382  29.343   7.362 -0.0779  0.1910  0.1020
    1W        W50202  17.179  17.894   8.890 -0.4730  0.1607  0.3325
    1W        W50203  27.037  19.534   1.984 -0.0437  0.0729  0.1808
    1W        W50204   3.045  21.187   7.487  0.1998  0.1569  0.2997
    1W        W50205  17.508  15.847   7.139  0.1315  0.0052 -0.2648
    1W        W50206  17.437  22.771   0.362  0.0203  0.1033 -0.0376
    1W        W50207  26.197  19.900   2.267 -0.0627 -0.3424  0.2349
    1W        W50208   0.732  29.560   0.057 -0.2219  0.0939 -0.4711
    1W        W50209  17.608  23.435   9.305  0.0113  0.0620  0.0780
    1W        W50210   6.247   8.783   0.216  0.0769 -0.0575 -0.2268
    1W        W50211   1.324   3.438   8.010  0.0439  0.2971  0.0592
    1W        W50212   6.383  18.878   7.980 -0.0035 -0.1289  0.1352
    1W        W50213   8.865  25.096   7.762  0.4350 -0.4267  0.1209
    1W        W50214  29.218  22.308   9.192  0.1344  0.1441 -0.3133
    1W        W50215  28.445  20.414   0.954  0.3630 -0.0068 -0.1369
    1W        W50216  24.466  11.458   7.222 -0.3342 -0.3203  0.1429
    1W        W50217  24.142   3.555   1.348 -0.0861 -0.1661  0.3128
    1W        W50218  26.323   9.621   6.833  0.1951  0.1089  0.0802
    1W        W50219   0.743  10.443   3.173 -0.0653  0.1884 -0.3233
    1W        W50220  18.356   1.937   2.570  0.1400  0.2009 -0.3828
    1W        W50221   1.885  28.542   8.185 -0.1572  0.0845  0.2415
    1W        W50222  26.467  13.230   0.893 -0.2161  0.0156  0.2064
    1W        W50223  25.487  19.268   1.090 -0.0723 -0.2187 -0.1177
    1W        W50224  17.855   1.369   2.280  0.1238 -0.0647 -0.0206
    1W        W50225   3.903   4.245   0.191 -0.1712 -0.1361 -0.2382
    1W        W50226  18.206   7.935   8.915 -0.0423 -0.0888  0.1666
    1W        W50227   7.859   8.182   0.446  0.1040 -0.1327 -0.0128
    1W        W50228  16.699   6.002   0.517  0.0415 -0.0760  0.2428
    1W        W50229  28.018  23.304   1.725 -0.0421 -0.0884 -0.2647
    1W        W50230   8.233   3.942   8.105  0.2148 -0.0561  0.1993
    1W        W50231  21.345  19.584   2.821  0.2107  0.0453  0.0636
    1W        W50232   4.123  29.672   1.674 -0.0095 -0.0652  0.2823
    1W        W50233  22.213  10.608   9.449  0.2703  0.1042  0.0811
    1W        W50234  27.899   8.455   1.898  0.1061 -0.1749  0.0525
    1W        W50235   3.136  19.050   6.650  0.2068  0.1435  0.0439
    1W        W50236  26.389   4.038   6.940 -0.0781  0.0002  0.1969
    1W        W50237  24.993  10.506   9.433 -0.2038  0.2409 -0.2227
    1W        W50238   5.931   7.824   1.211 -0.0820  0.1772 -0.1801
    1W        W50239  11.246  13.566   0.757  0.0436 -0.1541 -0.1024
    1W        W50240  25.814  10.445   0.549  0.1138 -0.2445  0.1562
    1W        W50241  15.626  21.941   1.693 -0.1617 -0.1033 -0.3565
    1W        W50242   9.393  29.177   8.019 -0.1863  0.1782 -0.1745
    1W        W50243   1.576  22.242   0.508  0.1949  0.0027 -0.0907
    1W        W50244   2.194   4.191   1.399 -0.0557  0.0989 -0.4190
    1W        W50245   9.244  28.450   2.504  0.0611  0.0650 -0.1713
    1W        W50246  28.290  17.634   7.733  0.0075 -0.0960  0.3462
    1W        W50247   9.003  27.002   8.723 -0.2864 -0.4379  0.0358
    1W        W50248   4.777   2.902   1.986 -0.1508  0.2485  0.0869
    1W        W50249  14.258   9.973   8.987 -0.1985  0.1777 -0.0971
    1W        W50250   1.844   2.842   6.090 -0.1280  0.1025 -0.1846
    1W        W50251  10.441   7.018   3.660  0.1620  0.4557  0.2404
    1W        W50252  18.537  19.828   8.850  0.1914  0.2625  0.3308
    1W        W50253   0.109  26.629   1.510  0.0112 -0.0406 -0.0032
    1W        W50254  11.251   3.479   0.786 -0.0949 -0.1858  0.1432
    1W        W50255  24.444  21.093   2.107  0.3094 -0.1920 -0.4126
    1W        W50256  21.733  15.747   7.443  0.2017 -0.3032  0.1184
    1W        W50257  19.853  13.614   9.298 -0.0936  0.1173  0.0434
    1W        W50258  20.415   8.748   2.113 -0.0063  0.0670  0.1493
    1W        W50259  16.983   5.953   9.083  0.2232 -0.1410  0.2905
    1W        W50260  17.244   7.507   1.622  0.0865 -0.1336 -0.2335
    1W        W50261  16.077   8.668   0.019 -0.0113  0.3011 -0.2072
    1W        W50262  29.454   9.490   9.391  0.0265 -0.0969  0.2592
    1W        W50263  12.616   6.435   2.134  0.0959 -0.3890  0.0262
    1W        W50264  16.148  28.310   2.240 -0.3487  0.0223 -0.0264
    1W        W50265  10.625   6.155   2.685  0.0339  0.2406  0.0708
    1W        W50266   4.031  17.345   8.709  0.1912 -0.1957  0.1477
    1W        W50267  18.057  25.107   3.339  0.4075  0.0745  0.0979
    1W        W50268  23.819  16.258   2.682  0.1693  0.1874  0.0766
    1W        W50269  10.963  29.890   7.724  0.0486 -0.0293  0.0482
    1W        W50270   6.542   0.138   1.561 -0.1068  0.2298  0.0444
    1W        W50271  22.143   2.544   8.094 -0.0546 -0.0523  0.0619
    1W        W50272  29.100   5.517   8.373 -0.0837  0.0592  0.0777
    1W        W50273  20.353  24.457   8.700  0.2595  0.0528 -0.1608
    1W        W50274  26.367  24.191   0.492 -0.0529  0.0418  0.1083
    1W        W50275  21.761   8.921   9.434 -0.0316  0.0636  0.0594
    1W        W50276   4.242  26.470   6.700  0.4147  0.0191 -0.1591
    1W        W50277   1.674  23.514   6.779  0.0521 -0.0493  0.0987
    1W        W50278  10.670   6.477   1.636  0.1586 -0.0114 -0.5341
    1W        W50279  25.687  18.592   7.271 -0.1183  0.0548  0.0412
    1W        W50280  19.695  15.214   8.875  0.2871 -0.2380 -0.0975
    1W        W50281  21.689   4.205   8.909  0.0942  0.0705  0.1710
    1W        W50282   9.576  17.245   0.561  0.2211 -0.2631 -0.0381
    1W        W50283   5.664   4.036   9.127  0.0889  0.0004  0.0556
    1W        W50284  20.720  17.497   1.459 -0.1071 -0.2550  0.2071
    1W        W50285  22.268  29.750   1.228 -0.0658  0.2060 -0.1894
    1W        W50286  28.752   5.366   7.976 -0.0793  0.1072  0.1434
    1W        W50287  25.371   9.106   7.465  0.0303 -0.1133 -0.2804
    1W        W50288   1.330   9.781   9.033 -0.1185  0.0837  0.1322
    1W        W50289   8.180  12.886   8.716 -0.1382  0.1968 -0.0479
    1W        W50290   8.730  13.847   2.640 -0.2315  0.0635  0.1727
    1W        W50291  25.452   1.649   1.866 -0.1735 -0.2705  0.0764
    1W        W50292  10.976  27.390   8.871  0.1412  0.1528 -0.5095
    1W        W50293   0.287  11.071   7.530  0.0915 -0.0492  0.1583
    1W        W50294  19.698  20.828   9.334 -0.0952  0.0168  0.3013
    1W        W50295   4.324   6.367   0.527 -0.0395  0.2198 -0.0779
    1W        W50296  10.500  12.322   0.698  0.0910 -0.0836 -0.0468
    1W        W50297   0.232  20.116   7.959  0.0271  0.2751  0.0645
    1W        W50298   7.931  10.269   0.145  0.1771 -0.3811  0.0134
    1W        W50299   1.540  17.736   0.746  0.0830 -0.0207 -0.0056
    1W        W50300  27.966  26.766   6.868  0.0746 -0.0445  0.2778
    1W        W50301   3.896   6.937   2.988 -0.1342  0.0081 -0.2501
    1W        W50302  20.707   3.998   8.743 -0.0556  0.0992  0.3186
    1W        W50303   3.448  24.666   6.749 -0.0985  0.1150  0.0613
    1W        W50304   2.888   1.898   8.111  0.1846 -0.0331 -0.0280
    1W        W50305  10.794  13.142   7.667 -0.1348 -0.0139  0.1377
    1W        W50306  26.783  16.625   1.675  0.0209 -0.0403 -0.1284
    1W        W50307  11.846  10.946   2.307 -0.1129  0.0625  0.2566
    1W        W50308   2.833  22.087   1.960  0.0884 -0.2086  0.1350
    1W        W50309   6.850  22.406   1.039  0.4301 -0.2284  0.0034
    1W        W50310   0.678  22.395   1.424 -0.0686 -0.1314 -0.1015
    1W        W50311   0.295  22.642   1.737 -0.1420 -0.1244  0.3783
    1W        W50312   8.606  16.677   7.306  0.4861  0.2275 -0.0364
    1W        W50313  22.032  27.547   1.962  0.1634 -0.0526  0.0077
    1W        W50314   0.560   2.632   1.231  0.2153  0.2352 -0.2020
    1W        W50315  25.483  22.311   7.272 -0.1447  0.1004  0.3267
    1W        W50316  19.347  23.009   0.816 -0.3813 -0.1617  0.2051
    1W        W50317   2.038  29.674   8.743  0.0167 -0.2039 -0.2234
    1W        W50318  16.393   1.559   1.732  0.0626  0.2388 -0.0836
    1W        W50319   0.911  23.657   8.862  0.1118 -0.0052  0.0751
    1W        W50320   5.306  15.370   7.136  0.2643 -0.2196 -0.0965
    1W        W50321  21.227  13.005   9.023  0.0003  0.1536  0.3795
    1W        W50322  27.599  23.443   0.450 -0.2212 -0.0827 -0.0715
    1W        W50323   1.066  23.012   2.816 -0.5422 -0.2566  0.2702
    1W        W50324  19.070   9.902   1.793  0.1953  0.1468 -0.2996
    1W        W50325   5.356  13.443   0.962 -0.2531 -0.0600 -0.0069
    1W        W50326  29.196   4.013   0.281 -0.1700  0.0794  0.0542
    1W        W50327  27.804  23.593   7.386 -0.1231 -0.0333  0.1694
    1W        W50328   7.053  26.020   1.317 -0.1196  0.0880 -0.0700
    1W        W50329  17.616  29.298   8.981  0.1642 -0.1241 -0.3827
    1W        W50330  19.862   6.442   1.868  0.2231  0.0297 -0.1587
    1W        W50331  26.621  13.339   0.158  0.1174  0.1890  0.0164
    1W        W50332  13.019  18.760   0.899 -0.3066  0.2964  0.2111
    1W        W50333  22.182  13.478   0.307  0.1243 -0.1698  0.4101
    1W        W50334   4.255  19.193   6.220  0.1382 -0.0907  0.1503
    1W        W50335   1.227  14.002   1.468  0.1107 -0.2638 -0.4471
    1W        W50336  22.247  23.279   1.826  0.0279  0.2747 -0.2252
    1W        W50337  10.804  17.722   7.610 -0.2127  0.0487  0.2146
    1W        W50338  26.529  12.292   9.234 -0.1364  0.1053  0.0170
    1W        W50339   0.240   2.214   7.569 -0.4347 -0.4347 -0.0297
    1W        W50340   6.231   2.113   6.638 -0.1993  0.1022  0.1756
    1W        W50341  28.481  28.889   0.587 -0.2834 -0.2341  0.0323
    1W        W50342  17.497  24.885   7.986 -0.1910 -0.1134 -0.0169
    1W        W50343  17.033  13.094   2.432  0.1922  0.0213  0.1631
    1W        W50344  25.907   4.125   1.381  0.2324 -0.0416  0.0842
    1W        W50345   2.089  18.868   5.658 -0.0651 -0.0482  0.0704
    1W        W50346   9.799  21.762   7.405 -0.1449  0.0634 -0.1379
    1W        W50347   4.101   1.617   1.873 -0.0383 -0.1761 -0.1195
    1W        W50348  27.852  23.477   8.271  0.1280 -0.1634  0.1196
    1W        W50349  26.864   5.869   0.866  0.0497 -0.1014  0.3023
    1W        W50350  20.299  11.392   6.607 -0.0219 -0.0734  0.1298
    1W        W50351  21.841  26.663   0.298 -0.1797 -0.2924  0.0680
    1W        W50352   7.108  12.904   0.912  0.1563 -0.1707 -0.1008
    1W        W50353  23.671  21.233   0.918  0.0849  0.0317  0.2668
    1W        W50354   3.975  16.499   8.513 -0.1010  0.2562 -0.2470
    1W        W50355  11.784  13.272   6.974  0.0375 -0.1044  0.0168
    1W        W50356  28.749  27.150   1.901  0.0179  0.1840  0.1530
    1W        W50357  13.033  13.188   9.165 -0.2011  0.2339 -0.0368
    1W        W50358  21.451  12.895   7.642 -0.3541  0.2144 -0.3152
    1W        W50359  12.076  19.555   2.796 -0.0124  0.1774 -0.0829
    1W        W50360  10.138   2.351   1.785  0.0168 -0.0607 -0.0988
    1W        W50361  19.904   0.677   0.855  0.1047  0.0894  0.1088
    1W        W50362   3.777  25.052   0.522  0.0170  0.1101  0.0544
    1W        W50363  16.855   0.149   8.606 -0.2882 -0.0635 -0.0512
    1W        W50364  11.106   0.625   2.524  0.0862  0.1636 -0.0394
    1W        W50365   3.692   2.094   6.877  0.2213  0.0852  0.2699
    1W        W50366   7.718   9.525   1.110 -0.0438  0.0301 -0.2424
    1W        W50367  28.754  10.028   2.666 -0.1772  0.3334 -0.2453
    1W        W50368  19.283  25.856   7.866  0.0283  0.1280  0.3441
    1W        W50369   2.155  11.326   7.569  0.2802 -0.2757 -0.1184
    1W        W50370   7.995  20.504   7.191 -0.0813 -0.0129  0.1062
    1W        W50371  15.269  19.348   9.099 -0.0008  0.2735 -0.0141
    1W        W50372   2.989  27.639   2.202 -0.3778 -0.0745 -0.1898
    1W        W50373   6.440  19.565   6.801  0.2755  0.0040 -0.2378
    1W        W50374  13.376   7.742   8.482 -0.0096  0.0284  0.0463
    1W        W50375  18.185  24.336   2.808 -0.3032  0.0510  0.0334
    1W        W50376  16.896  22.704   8.263 -0.1220 -0.1084  0.2674
    1W        W50377  26.273   6.769   6.663  0.0910  0.1665 -0.0384
    1W        W50378   6.975  12.459   0.206  0.0838 -0.2214  0.2821
    1W        W50379   6.505   9.949   0.607  0.1240 -0.1115  0.0933
    1W        W50380  11.100  16.229   1.130 -0.1867 -0.2017  0.0495
    1W        W50381  28.085  24.640   7.963  0.2808 -0.2504  0.1881
    1W        W50382  24.381  24.884   8.325 -0.0423 -0.1004  0.0301
    1W        W50383  21.311   1.641   9.057  0.0333 -0.0357  0.1946
    1W        W50384  13.438   8.562   8.392  0.2018 -0.1404 -0.1612
    1W        W50385  19.472   2.549   1.185  0.2078 -0.1487 -0.1274
    1W        W50386  19.435  19.355   7.853  0.1347  0.1042 -0.0680
    1W        W50387   7.100  13.330   1.594  0.0015  0.1495 -0.0021
    1W        W50388  17.689   3.803   1.850  0.1646  0.1093  0.3416
    1W        W50389  26.633  14.164   6.501 -0.0041  0.0482  0.0238
    1W        W50390  17.716  12.631   0.327  0.2188 -0.0006 -0.0638
    1W        W50391  21.650   5.793   0.189  0.2809 -0.0133 -0.0023
    1W        W50392  27.540   4.386   3.372  0.1386  0.0389 -0.0448
    1W        W50393   5.173  13.481   6.299 -0.1148  0.2059  0.2529
    1W        W50394   2.082  21.835   9.064  0.1846 -0.1452 -0.0351
    1W        W50395   9.994  20.952   6.823  0.4967  0.1064  0.0096
    1W        W50396  18.808   2.033   8.199  0.1493  0.0965 -0.1528
    1W        W50397  20.807  16.339   8.969 -0.0305  0.1120  0.1589
    1W        W50398  18.923  22.520   8.916 -0.1852  0.0219 -0.0859
    1W        W50399   6.069  17.647   6.770 -0.0736  0.1783 -0.0217
    1W        W50400   5.910   0.692   2.336 -0.2673  0.0989  0.1791
    1W        W50401  19.514  23.072   1.304  0.0343 -0.1073 -0.0386
    1W        W50402   1.562  17.518   8.143 -0.1447  0.0511 -0.0767
    1W        W50403  28.869  15.900   7.683 -0.0405 -0.3091 -0.1026
    1W        W50404   8.836   8.543   0.662  0.2744 -0.1666  0.1025
    1W        W50405   3.064  11.197   1.789  0.3093 -0.0483  0.4096
    1W        W50406  22.374  14.151   8.552 -0.0515  0.2325  0.0538
    1W        W50407  12.117  19.518   0.886  0.3006 -0.0560 -0.2532
    1W        W50408  21.119  29.327   9.300  0.1930  0.1110 -0.1472
    1W        W50409  20.486  23.816   9.443  0.2595  0.0531  0.1314
    1W        W50410   7.176  18.746   7.308 -0.4656 -0.0365  0.0706
    1W        W50411  12.569   5.699   0.643  0.0940 -0.0990  0.0068
    1W        W50412  14.073   8.117   0.173 -0.1136 -0.0805  0.1639
    1W        W50413  17.545   3.513   7.052 -0.1073 -0.2824 -0.0110
    1W        W50414  28.225   7.523   1.671 -0.0067 -0.3341 -0.1023
    1W        W50415  18.241   0.971   1.123 -0.0397 -0.0644  0.3910
    1W        W50416  16.478   2.158   7.086  0.3269 -0.1456  0.3182
    1W        W50417  25.256   3.401   9.092 -0.2232  0.1540  0.1679
    1W        W50418  25.804  29.125   3.137  0.1240 -0.2368  0.0806
    1W        W50419  16.440  23.171   2.863 -0.5134 -0.0141 -0.1717
    1W        W50420  13.540  18.153   1.424 -0.2108 -0.0552  0.1467
    1W        W50421   5.019   7.166   8.350  0.0452 -0.0648  0.1254
    1W        W50422   8.531  26.840   7.464 -0.2539 -0.0405  0.0306
    1W        W50423   3.724  25.650   5.965  0.2015 -0.0014  0.1461
    1W        W50424   5.014  16.322   6.844 -0.0049 -0.2060  0.2663
    1W        W50425  23.616  16.587   7.360 -0.1333 -0.0446 -0.0329
    1W        W50426  25.267  27.732   0.578 -0.2933  0.0567 -0.4736
    1W        W50427   8.278  15.480   0.613 -0.0885 -0.0822  0.2869
    1W        W50428   9.955  28.084   7.505  0.0710 -0.1498 -0.2330
    1W        W50429   8.074  22.022   7.931 -0.0458 -0.2001  0.2184
    1W        W50430   3.529   0.832   2.451 -0.0882  0.1392  0.0151
    1W        W50431  13.152  21.041   0.402  0.0589  0.0613  0.1606
    1W        W50432  11.967  20.026   0.093  0.1599 -0.0163  0.2214
    1W        W50433  18.684  28.780   7.455 -0.0369  0.0132 -0.1656
    1W        W50434  26.405  20.826   0.055  0.1619 -0.4243 -0.1294
    1W        W50435   3.808   3.846   2.508  0.0964  0.2404 -0.1497
    1W        W50436   5.493  21.582   8.857 -0.3299 -0.0943 -0.0665
    1W        W50437   4.890  11.013   0.559  0.0379 -0.2282  0.0265
    1W        W50438  17.728  14.995   1.282 -0.0502  0.0223 -0.2621
    1W        W50439  20.747  14.607   6.792 -0.0488  0.1231  0.3556
    1W        W50440  19.532  14.706   8.963  0.3553 -0.0647 -0.0153
    1W        W50441   9.093  29.188   8.895  0.0713  0.0675 -0.4589
    1W        W50442   9.872   6.079   8.810  0.7379  0.0493 -0.0990
    1W        W50443   9.196  12.409   7.869 -0.0106  0.0353 -0.0084
    1W        W50444  14.293  22.208   0.775  0.2094 -0.0002  0.1242
    1W        W50445   1.598  27.590   7.000  0.0171 -0.2690  0.1370
    1W        W50446   2.532  18.955   7.506 -0.3548  0.0486  0.0576
    1W        W50447  18.777  25.830   2.836  0.2656 -0.0814  0.2509
    1W        W50448   6.628   9.157   1.693 -0.0285  0.3238 -0.0836
    1W        W50449  14.341  29.477   7.645  0.2112  0.0591 -0.0072
    1W        W50450   1.949  20.098   6.269  0.0269 -0.1860  0.2329
    1W        W50451  24.817  14.477   1.374 -0.0852  0.0502  0.0942
    1W        W50452  12.617  21.257   8.160 -0.0110  0.1598 -0.1150
    1W        W50453   7.933   5.909   1.677  0.0590 -0.0044  0.1323
    1W        W50454  20.030  24.202   7.832  0.1593 -0.2469  0.0294
    1W        W50455  28.670  12.713   8.114  0.1677  0.1476 -0.0239
    1W        W50456  15.005   7.314   2.382  0.0163 -0.0616  0.3817
    1W        W50457  20.268  25.860   6.508 -0.0318 -0.1457 -0.4303
    1W        W50458   4.799   7.431   8.731 -0.0597 -0.5143  0.1760
    1W        W50459   3.485  10.464   7.241 -0.0108  0.1034 -0.0608
    1W        W50460  29.835   8.142   8.443  0.0634 -0.0086 -0.0938
    1W        W50461  24.841  12.473   6.417  0.1714 -0.1700  0.4192
    1W        W50462  10.801  18.191   0.723  0.0079  0.1800  0.0145
    1W        W50463  18.816  12.781   7.804  0.2833  0.1198 -0.1620
    1W        W50464  25.575  12.321   2.504 -0.1457 -0.1888  0.1139
    1W        W50465  15.300  12.751   8.890 -0.0786  0.1097 -0.4398
    1W        W50466  16.695   1.574   2.767  0.0950  0.1123 -0.0221
    1W        W50467   2.796  26.812   8.093  0.1282  0.2326 -0.1650
    1W        W50468   9.018  23.665   1.757  0.0309 -0.0829  0.0094
    1W        W50469  22.186  23.788   2.008  0.2417 -0.1959  0.0480
    1W        W50470  18.563  29.897   6.640 -0.3890 -0.0438  0.1312
    1W        W50471  11.258   1.395   2.574  0.1243  0.4047 -0.0273
    1W        W50472  15.297   3.505   0.779 -0.2634 -0.0724 -0.1137
    1W        W50473  29.113   9.756   2.258 -0.0203 -0.0425 -0.2868
    1W        W50474   6.734  29.108   2.180 -0.4804  0.0983 -0.0001
    1W        W50475   9.327  17.333   8.830  0.0680 -0.0019  0.0466
    1W        W50476   9.500  16.079   0.981 -0.2706  0.0618  0.0414
    1W        W50477  23.365  29.340   6.637  0.2273 -0.1697 -0.1825
    1W        W50478   3.550  28.261   2.344  0.0153  0.0451 -0.2207
    1W        W50479   5.081  21.869   6.183 -0.0914  0.2125  0.0660
    1W        W50480  17.920   8.265   8.666 -0.3119  0.0445  0.0647
    1W        W50481  26.321  22.822   7.238 -0.2473  0.3377  0.3950
    1W        W50482  22.715  10.058   3.021 -0.1066  0.0709 -0.3127
    1W        W50483  27.154   7.409   2.096 -0.1784 -0.2385  0.4275
    1W        W50484  14.401  22.704   0.696 -0.0656  0.0102  0.0659
    1W        W50485  16.561  29.456   2.631  0.1193 -0.0890 -0.0484
    1W        W50486   3.782  21.867   7.258  0.0900  0.0693  0.0120
    1W        W50487   6.671  13.304   1.321  0.0133  0.2340 -0.1161
    1W        W50488   9.213   7.887   2.576  0.1952  0.2105  0.0752
    1W        W50489   2.505  13.129   6.229  0.2741  0.1673 -0.0535
    1W        W50490  24.133  12.792   9.041 -0.3695  0.0202 -0.1147
    1W        W50491  22.747  25.582   8.411 -0.2852 -0.1571  0.1211
    1W        W50492   7.075  14.324   1.302  0.0219 -0.3358  0.2710
    1W        W50493  11.260  14.128   2.178  0.0333 -0.0026  0.0348
    1W        W50494  12.562   5.798   8.756 -0.0377  0.0499  0.1590
    1W        W50495  11.176  12.474   7.332 -0.0053  0.0330  0.0745
    1W        W50496  18.679   4.676   8.900  0.0196  0.5022  0.3364
    1W        W50497  21.745   6.600   9.119 -0.0564 -0.3418  0.0667
    1W        W50498   7.512   7.786   0.464 -0.0036 -0.1057  0.1312
    1W        W50499  15.729   7.088   3.082 -0.1085 -0.3440  0.0270
    1W        W50500  16.965   5.969   7.144 -0.1044  0.2498 -0.1754
    1W        W50501  21.289   9.589   8.394  0.1706  0.0989  0.0342
    1W        W50502  20.180   4.607   0.259 -0.1204  0.0500 -0.2176
    1W        W50503  10.567  29.323   0.326 -0.3000  0.1611  0.0078
    1W        W50504  25.619   7.455   1.866  0.0864  0.2222 -0.1815
    1W        W50505   6.941   3.445   2.177 -0.1754  0.2848 -0.6842
    1W        W50506  27.353  11.718   0.160 -0.0403  0.1716  0.1775
    1W        W50507   1.380  25.309   8.971 -0.1359  0.0601  0.3287
    1W        W50508  20.258  27.899   2.143 -0.0232  0.1605 -0.2227
    1W        W50509  27.002  22.788   2.325  0.0655  0.0251 -0.1473
    1W        W50510   2.564  27.770   7.210 -0.0986 -0.1395  0.0312
    1W        W50511  12.338  22.052   8.245 -0.0691  0.1191 -0.0386
    1W        W50512   4.775  25.264   8.265  0.1462  0.1401 -0.0934
    1W        W50513   7.998   5.533   8.150  0.2154 -0.2059  0.0825
    1W        W50514  14.388  11.778   0.518 -0.0278  0.2478 -0.1604
    1W        W50515   5.209  10.296   2.991 -0.0346  0.0782 -0.2137
    1W        W50516   8.937  16.224   8.591  0.3140 -0.1329 -0.3585
    1W        W50517  29.201   9.275   1.584 -0.0633  0.2646  0.1077
    1W        W50518  18.052  13.631   9.364 -0.1938  0.0624  0.1375
    1W        W50519   5.078  27.610   7.136 -0.1582 -0.1239 -0.0512
    1W        W50520   4.047   2.666   0.690  0.3052 -0.2545  0.0578
    1W        W50521  26.341   5.684   8.971  0.0552  0.0947  0.1682
    1W        W50522  27.487  21.429   8.311  0.2099  0.1400 -0.0582
    1W        W50523  26.808  16.416   1.157 -0.0256  0.0882  0.1722
    1W        W50524   0.325  23.901   6.581 -0.1550 -0.1500 -0.0582
    1W        W50525   3.941   0.456   0.899 -0.2487 -0.0310  0.1861
    1W        W50526  15.422  22.582   1.223  0.1096  0.1213  0.0355
    1W        W50527  25.396  22.029   0.916 -0.0558 -0.1127 -0.1169
    1W        W50528  25.098   2.080   1.724 -0.0349 -0.0720  0.2713
    1W        W50529  11.160  24.096   0.303  0.1481  0.2183  0.1266
    1W        W50530  17.599  16.119   0.673  0.1510 -0.2508 -0.2890
    1W        W50531  24.264  16.471   1.077 -0.1391 -0.0350  0.1167
    1W        W50532  19.047  12.565   7.368  0.0534  0.0874 -0.0507
    1W        W50533  17.234   2.144   0.780 -0.0923  0.1706 -0.2621
    1W        W50534  17.937  25.237   8.895 -0.1016  0.2821 -0.1882
    1W        W50535  13.642   4.702   1.504  0.2922  0.1718 -0.1538
    1W        W50536   6.520  13.305   6.962  0.0689 -0.0872  0.4511
    1W        W50537  29.717   0.972   9.449  0.2951 -0.1751 -0.2516
    1W        W50538  12.249  24.687   1.853  0.1647  0.0932 -0.0539
    1W        W50539   1.864  12.261   7.315 -0.2609  0.1818  0.0768
    1W        W50540  11.896  11.764   8.017 -0.0013 -0.1430 -0.4442
    1W        W50541  18.512  23.509   3.642  0.1301  0.0550  0.0461
    1W        W50542  10.897   3.120   0.136 -0.0501 -0.1992 -0.0369
    1W        W50543   1.504  12.324   6.435 -0.3404  0.3815 -0.3129
    1W        W50544  27.263  10.747   2.226 -0.0719  0.0478  0.1446
    1W        W50545  29.663  23.706   9.426  0.0504  0.1572 -0.3938
    1W        W50546  21.292  12.829   1.868 -0.0218 -0.3656 -0.0198
    1W        W50547  19.077  28.743   6.590  0.3731 -0.2410 -0.2809
    1W        W50548   4.633   8.072   2.210  0.1086  0.2199 -0.1770
    1W        W50549  28.402  10.485   7.707  0.1516  0.1817  0.0997
    1W        W50550   1.428   9.307   7.507 -0.0057  0.0698 -0.0882
    1W        W50551   6.616   6.569   6.671  0.3343 -0.1317 -0.0323
    1W        W50552   5.439  21.190   0.687 -0.1306 -0.2520 -0.2098
    1W        W50553  26.862  17.485   6.199 -0.4836 -0.5213  0.1375
    1W        W50554  25.089   1.379   0.301 -0.0400  0.0053  0.0154
    1W        W50555  11.934  29.707   7.763 -0.0394  0.1159 -0.3777
    1W        W50556   8.776   9.411   7.975 -0.1630 -0.3211 -0.0488
    1W        W50557   6.742  21.482   9.185  0.0209 -0.1671  0.2006
    1W        W50558  19.299  10.847   6.674 -0.1250  0.0108  0.0592
    1W        W50559   2.336  29.093   8.798  0.0849  0.3046  0.0556
    1W        W50560  17.094  16.794   6.835  0.0343 -0.0819  0.0791
    1W        W50561  16.741  20.833   8.443 -0.2906  0.3193 -0.1962
    1W        W50562   9.439  25.590   0.564  0.0569  0.1226  0.1076
    1W        W50563  15.925  22.936   7.241  0.0625 -0.2332  0.0437
    1W        W50564  14.457   0.360   2.223  0.1330 -0.3670 -0.1393
    1W        W50565  22.112  25.367   6.553  0.4214  0.0485  0.0514
    1W        W50566  29.127  25.538   1.402 -0.2047 -0.0245  0.2824
    1W        W50567  11.318  11.440   1.220 -0.0951  0.2146  0.2233
    1W        W50568  27.724  12.431   5.875 -0.0662 -0.0355  0.0725
    1W        W50569   1.785  13.879   1.128  0.0214  0.2673 -0.0164
    1W        W50570   0.292   0.429   1.112 -0.2698  0.0520 -0.0949
    1W        W50571  22.235   3.609   1.600  0.1875 -0.0067 -0.2779
    1W        W50572  24.478  18.246   1.784  0.1347  0.1554 -0.1787
    1W        W50573  11.341  22.979   0.812  0.0888 -0.0209 -0.0203
    1W        W50574  19.310  17.846   8.156 -0.1063 -0.0098  0.0111
    1W        W50575   0.463  25.707   6.269  0.0166 -0.1993  0.1871
    1W        W50576  13.554  20.542   7.363 -0.1132 -0.0737 -0.0076
    1W        W50577   5.523   8.930   3.083 -0.3877 -0.1836 -0.1225
    1W        W50578   5.644   7.656   0.478  0.1152 -0.0391  0.0627
    1W        W50579  16.791   0.026   8.040  0.1779  0.2083 -0.2967
    1W        W50580   9.369   3.872   2.243 -0.0321 -0.1187  0.2694
    1W        W50581  21.269  23.275   6.555 -0.3215 -0.6009  0.2019
    1W        W50582  16.358  26.559   6.421 -0.3907 -0.2117 -0.0989
    1W        W50583   4.602  27.598   7.303  0.1477  0.2023  0.1247
    1W        W50584  15.054   4.192   2.525  0.5522 -0.2864  0.1225
    1W        W50585  15.707   3.225   9.029  0.1844 -0.0930  0.3624
    1W        W50586   4.374   0.253   9.121 -0.0579  0.0837 -0.0908
    1W        W50587  10.251  22.633   8.010 -0.2173  0.2495  0.1767
    1W        W50588  26.548  23.853   8.246  0.2543  0.0931  0.2236
    1W        W50589   8.611  14.143   8.655  0.1673  0.2830 -0.0047
    1W        W50590  11.422   4.840   0.150  0.1669  0.1475  0.2843
    1W        W50591  28.855  23.719   2.560 -0.2239 -0.1607 -0.0768
    1W        W50592   8.244   7.555   7.564  0.2510  0.1469  0.0354
    1W        W50593   2.496  27.358   0.807 -0.3540 -0.2355  0.1042
    1W        W50594  28.704  15.566   6.308  0.1493  0.0282 -0.1121
    1W        W50595  12.833   0.762   0.955  0.0791 -0.0249  0.2478
    1W        W50596   5.993  24.805   1.340 -0.0020  0.2133 -0.1109
    1W        W50597  24.822  23.200   1.403  0.1846 -0.0663 -0.0193
    1W        W50598  26.217  23.209   2.251 -0.1311  0.0103  0.0345
    1W        W50599  24.920  17.766   8.129  0.0044  0.1244  0.2258
    1W        W50600  22.754   1.687   7.839  0.2039 -0.1227  0.0368
    1W        W50601  12.109  23.031   8.684 -0.0112 -0.2327  0.0483
    1W        W50602  11.039  10.273   8.109 -0.0743  0.1149 -0.2266
    1W        W50603  19.155  26.235   1.541  0.2496  0.2511 -0.2543
    1W        W50604  13.536   2.553   8.515 -0.0087  0.1532  0.0146
    1W        W50605  15.316  29.584   0.826 -0.0920 -0.0432  0.5064
    1W        W50606  26.134  28.309   2.404  0.0456  0.3061  0.0065
    1W        W50607  16.928  27.348   0.942 -0.0642 -0.1101 -0.1577
    1W        W50608  12.552  14.697   8.097  0.2530 -0.2906  0.1288
    1W        W50609  16.970  23.524   1.691 -0.0887 -0.2973  0.1900
    1W        W50610   1.057   6.593   2.781  0.0601  0.1222  0.2247
    1W        W50611  17.914  28.518   8.343  0.1299  0.2337  0.0530
    1W        W50612  16.897  25.040   9.463  0.0430  0.0692 -0.1656
    1W        W50613  16.782  20.537   1.518 -0.1746 -0.1268  0.1854
    1W        W50614  24.107   5.807   3.383  0.2704 -0.3703  0.3281
    1W        W50615  23.301   4.916   1.027  0.2340  0.1562  0.2255
    1W        W50616  22.394  12.906   8.104 -0.4132  0.0365  0.0509
    1W        W50617  14.678   9.604   7.216 -0.4565 -0.0501 -0.0608
    1W        W50618   9.714   2.664   9.368  0.3212 -0.0044  0.0520
    1W        W50619  12.844  14.359   7.341  0.0155 -0.1857 -0.0087
    1W        W50620   4.719   3.782   8.492 -0.1288  0.1515 -0.2183
    1W        W50621  11.643  15.079   7.039 -0.1676  0.0252 -0.1207
    1W        W50622  24.521  28.342   7.682  0.1879 -0.2236  0.1449
    1W        W50623  27.569   6.247   1.278  0.3330 -0.0158 -0.1640
    1W        W50624   1.564   1.530   0.560 -0.2679  0.3233  0.2995
    1W        W50625  11.346  15.463   0.397 -0.3383 -0.1427  0.1952
    1W        W50626   4.519   0.783   6.905 -0.0412  0.1987  0.0029
    1W        W50627  10.544  15.146   8.575 -0.2225  0.0943  0.0704
    1W        W50628  27.530   0.335   7.867 -0.0987 -0.0588  0.2632
    1W        W50629  29.113  29.322   0.010 -0.0216  0.0056 -0.1190
    1W        W50630  12.733  26.470   1.535  0.1594  0.2305 -0.0765
    1W        W50631  15.860  16.329   1.220 -0.0311 -0.0643  0.2283
    1W        W50632  25.759  28.573   7.916  0.2412  0.2064 -0.0293
    1W        W50633   6.016  18.793   6.678 -0.1238 -0.2716  0.1182
    1W        W50634  24.759   7.734   2.085 -0.0748  0.0288 -0.1301
    1W        W50635   9.360  19.881   7.894  0.1956 -0.1484 -0.0694
    1W        W50636   8.239  26.404   5.833  0.4436 -0.1746  0.0971
    1W        W50637   6.952  23.182   0.374 -0.1774  0.0657  0.1309
    1W        W50638  10.873  12.169   1.030  0.3391 -0.0198  0.0876
    1W        W50639  29.270   1.291   6.954  0.0005  0.0279  0.0118
    1W        W50640  26.642  17.252   0.860  0.1004  0.2098  0.0052
    1W        W50641  28.621  19.532   0.274 -0.3027  0.1408  0.2896
    1W        W50642   3.231  16.008   0.006  0.1994  0.0076  0.0038
    1W        W50643  21.982  21.997   0.091 -0.0261 -0.0463  0.0015
    1W        W50644  11.472   3.857   1.618 -0.3098  0.0134  0.3340
    1W        W50645   9.859  27.968   6.988  0.0737 -0.0955 -0.0856
    1W        W50646   9.798   9.654   1.546  0.0313  0.1814 -0.0489
    1W        W50647  13.133  26.453   8.228  0.2778  0.1838 -0.0331
    1W        W50648  27.548   3.624   9.407 -0.2052 -0.1464  0.0449
    1W        W50649  10.498  13.869   8.185 -0.1219  0.0231 -0.0047
    1W        W50650  20.403   0.460   1.203 -0.0446 -0.0715 -0.0612
    1W        W50651  27.420  18.322   8.569 -0.1046 -0.0870  0.0486
    1W        W50652  14.728  23.595   8.701  0.2078 -0.1566  0.1222
    1W        W50653  26.034   0.052   1.078 -0.5465  0.1152  0.1956
    1W        W50654  18.806  28.356   0.219 -0.2942 -0.3333  0.1926
    1W        W50655  29.270  25.436   2.401  0.0907  0.0914 -0.0973
    1W        W50656  27.502   2.005   8.695 -0.0514  0.0329 -0.3213
    1W        W50657  24.317   2.545   2.255 -0.0108 -0.1650 -0.1386
    1W        W50658  10.046  25.360   8.660 -0.0329 -0.1356 -0.0547
    1W        W50659  23.075  21.453   8.975 -0.0173  0.3626  0.3021
    1W        W50660  26.130  19.630   1.710  0.0218 -0.2380 -0.0955
    1W        W50661  16.352  24.852   2.006  0.0194 -0.2279 -0.2017
    1W        W50662   2.837  18.111   8.996  0.2110  0.2773  0.1129
    1W        W50663  17.912   1.366   3.318  0.0915 -0.4636  0.0220
    1W        W50664  25.369   2.037   2.161 -0.2537 -0.2041  0.1380
    1W        W50665   8.289  15.141   2.388 -0.1810 -0.1845  0.0223
    1W        W50666  20.544  25.782   8.504 -0.1634 -0.2185 -0.1545
    1W        W50667  22.459  14.658   6.717  0.0651 -0.1571  0.1475
    1W        W50668   2.947  15.285   2.673 -0.0171  0.1851 -0.0143
    1W        W50669  23.128  19.063   2.449  0.0828  0.3628 -0.0380
    1W        W50670  25.751  15.624   2.799 -0.2391  0.1092  0.1074
    1W        W50671  26.298   4.188   0.923  0.1509  0.0045  0.1407
    1W        W50672  24.579  29.620   8.829  0.2398  0.1013  0.2792
    1W        W50673   8.298  16.320   7.965 -0.1515  0.0081 -0.1528
    1W        W50674   3.154  25.043   2.229  0.1464  0.0310 -0.3278
    1W        W50675   7.158  26.771   1.362  0.3494 -0.2615  0.1976
    1W        W50676  24.487  10.535   7.590 -0.0005  0.1664  0.0913
    1W        W50677   9.384  23.718   9.443  0.0083 -0.3072 -0.0555
    1W        W50678  28.013  21.592   2.509 -0.1900  0.1068  0.1436
    1W        W50679   3.524  22.704   8.638  0.2930 -0.0402 -0.2388
    1W        W50680  12.919  29.216   0.712  0.0107  0.1992  0.1024
    1W        W50681  12.219  25.531   5.553  0.1603  0.1778 -0.3087
    1W        W50682   7.346  22.935   8.599 -0.3150 -0.2097 -0.0449
    1W        W50683  23.984   0.642   3.057  0.0583  0.1919 -0.1169
    1W        W50684  12.845  13.008   2.642  0.0498 -0.1699 -0.2892
    1W        W50685  22.201  21.692   7.794 -0.2192 -0.1646 -0.0054
    1W        W50686   1.637   5.809   0.152 -0.0731 -0.0459  0.1808
    1W        W50687  11.031  27.678   7.943 -0.0689 -0.0572  0.1131
    1W        W50688   8.857   2.478   1.240  0.1611  0.1748 -0.2656
    1W        W50689   1.687   3.756   2.633 -0.3794  0.3153 -0.2705
    1W        W50690  19.492  15.754   9.084  0.1195 -0.0531 -0.1324
    1W        W50691  18.440  25.201   8.747 -0.0553  0.1277  0.2019
    1W        W50692  11.962  11.243   8.259 -0.0057  0.1367  0.1645
    1W        W50693  13.262  13.207   0.943 -0.0814 -0.4328  0.3838
    1W        W50694  16.925  27.946   0.259  0.0795  0.1650 -0.1369
    1W        W50695   1.996  12.855   0.612 -0.2814 -0.2067 -0.0677
    1W        W50696  17.470  27.929   7.580  0.2445  0.1599 -0.0646
    1W        W50697  18.637   8.434   1.595 -0.0539  0.1187  0.0123
    1W        W50698  14.611  23.597   1.410  0.3291  0.0054 -0.0669
    1W        W50699   2.953  18.541   8.668 -0.3492 -0.1621  0.1968
    1W        W50700   5.538  22.436   0.075 -0.0047 -0.1686 -0.1462
    1W        W50701  26.250  18.246   1.760 -0.1290  0.1303  0.0242
    1W        W50702   6.821  18.912   0.090 -0.0426  0.0458 -0.0076
    1W        W50703  17.400  23.890   7.315 -0.1340  0.3297 -0.0185
    1W        W50704  14.284  25.221   9.107 -0.0952  0.0716 -0.1657
    1W        W50705  13.986  10.986   8.243 -0.1459  0.0662  0.2016
    1W        W50706  16.061  29.210   7.233 -0.2673 -0.1068  0.1088
    1W        W50707  10.007   8.304   0.884  0.1453 -0.2025 -0.4454
    1W        W50708  22.424  10.188   7.396 -0.0203  0.2284  0.2741
    1W        W50709   6.043  24.406   0.482  0.1645 -0.0382  0.1587
    1W        W50710   4.165  23.060   6.773 -0.4313 -0.1613  0.0398
    1W        W50711   7.323  11.504   0.625 -0.1742  0.0289 -0.3428
    1W        W50712   2.758   5.078   7.910 -0.0936 -0.1921  0.1049
    1W        W50713   6.138  16.625   7.179  0.1049  0.2266  0.3660
    1W        W50714  25.732   8.980   9.366  0.0860 -0.2380 -0.0510
    1W        W50715  21.485  18.078   8.119  0.1221  0.0429  0.0195
    1W        W50716   2.016  12.665   8.976  0.2541  0.2543 -0.0308
    1W        W50717  28.383  14.388   1.941 -0.0276 -0.0636  0.1866
    1W        W50718  27.830   7.042   8.862  0.2029  0.0280 -0.1078
    1W        W50719  24.566  25.817   2.511 -0.0788 -0.0935  0.0177
    1W        W50720  27.301  21.689   1.014  0.1911  0.1695 -0.1392
    1W        W50721  14.980  29.362   7.151 -0.0188 -0.3865  0.3565
    1W        W50722  16.030  14.036   0.374 -0.0744 -0.2239 -0.2833
    1W        W50723   0.738  11.568   6.030 -0.1158  0.2074 -0.0761
    1W        W50724  29.892  29.280   3.688  0.2744  0.0825  0.2345
    1W        W50725  23.916  24.346   2.884 -0.1096  0.1822  0.0358
    1W        W50726  10.693  24.048   1.647 -0.0662  0.0843  0.1785
    1W        W50727  25.578   4.959   6.885  0.1726  0.3423  0.1043
    1W        W50728  25.195   2.951   2.833  0.0236 -0.3730  0.0756
    1W        W50729   2.516  12.649   6.921  0.2392  0.0772  0.0968
    1W        W50730  11.512  24.987   1.481  0.1443  0.1847 -0.2056
    1W        W50731   3.957  22.269   8.612  0.1847 -0.1774 -0.1229
    1W        W50732  28.708  19.305   8.188  0.2022  0.1858 -0.0928
    1W        W50733   5.536   3.432   8.278 -0.1072  0.0697 -0.3103
    1W        W50734  12.400  29.383   7.912  0.2370 -0.2298 -0.0816
    1W        W50735  16.137   2.681   2.840  0.0816 -0.3729  0.2263
    1W        W50736  21.941  22.242   9.110  0.1186  0.0724 -0.0061
    1W        W50737   6.453   8.968   8.612  0.0306 -0.0462  0.3215
    1W        W50738  27.879   3.663   1.964  0.0249 -0.2567 -0.2961
    1W        W50739  12.359  28.162   1.428  0.0436 -0.1843  0.0701
    1W        W50740  13.154  12.050   8.190 -0.0115 -0.0697  0.0208
    1W        W50741  13.602   7.731   8.937  0.1945 -0.1685  0.4181
    1W        W50742  15.252  11.745   6.571 -0.1462 -0.2422 -0.0637
    1W        W50743  22.882  23.796   7.172 -0.0468 -0.1178  0.0767
    1W        W50744  12.604  11.195   7.995 -0.0628  0.0343  0.1724
    1W        W50745   8.169   6.218   2.331  0.0674  0.1794  0.3166
    1W        W50746   1.785   1.998   7.342 -0.1175  0.1221  0.2276
    1W        W50747  19.117  19.715   8.042  0.0420 -0.2162 -0.0771
    1W        W50748  11.773   3.296   1.677  0.2607 -0.2472  0.3078
    1W        W50749   5.504   5.255   8.131 -0.1226 -0.2023  0.1003
    1W        W50750   1.691  21.786   8.020 -0.0910  0.1209  0.1821
    1W        W50751  17.106  12.960   7.023  0.2509  0.1587 -0.0795
    1W        W50752   3.077  12.515   1.784  0.0422  0.3403 -0.0137
    1W        W50753   8.462   9.118   8.242  0.1608  0.0298  0.0900
    1W        W50754  13.114  15.617   7.975  0.1036 -0.1849  0.1533
    1W        W50755  29.623   2.290   0.142 -0.0542  0.4014  0.2782
    1W        W50756   2.744  27.387   6.614 -0.3531  0.3133  0.1741
    1W        W50757   6.686  24.929   0.726 -0.1337 -0.0036  0.0217
    1W        W50758  13.016   7.148   2.775 -0.3447  0.2078 -0.1769
    1W        W50759   3.480   8.561   9.428  0.0229 -0.2474  0.2919
    1W        W50760  13.768  19.655   0.204  0.1078 -0.0493 -0.3828
    1W        W50761  20.980  13.583   6.750  0.0960 -0.0678 -0.0261
    1W        W50762  17.409  28.191   2.242  0.2705 -0.1585 -0.0111
    1W        W50763  27.512  16.280   9.218  0.2681  0.0315 -0.0596
    1W        W50764  13.703  21.240   7.238  0.3051 -0.4072  0.0282
    1W        W50765  16.242  27.943   3.722 -0.1553 -0.0622  0.2871
    1W        W50766  12.076   6.794   9.400  0.0375  0.1050 -0.0027
    1W        W50767  14.579  28.533   0.881  0.2796  0.1103 -0.1237
    1W        W50768  15.321   4.702   7.689  0.2206  0.0159 -0.0021
    1W        W50769   9.700   8.008   7.510 -0.2845 -0.2159 -0.3775
    1W        W50770   2.568   3.923   8.726 -0.0876  0.3234  0.2306
    1W        W50771   3.858  24.601   1.947  0.1347 -0.3298  0.0871
    1W        W50772   1.577  27.066   2.108 -0.0018 -0.1109  0.0027
    1W        W50773  22.744  28.213   8.366 -0.1349  0.3054 -0.1632
    1W        W50774  27.886  17.660   0.096  0.1886 -0.3618  0.1944
    1W        W50775  18.051  23.455   2.176 -0.0903  0.0426  0.3251
    1W        W50776   5.446  22.541   8.605  0.2585  0.3113  0.0683
    1W        W50777   2.043   6.132   1.391 -0.0678 -0.0867  0.3129
    1W        W50778   7.541  14.746   9.203  0.0670 -0.1379 -0.2045
    1W        W50779   9.631  16.249   6.851  0.2565 -0.0222  0.1083
    1W        W50780   2.079  14.473   8.875 -0.4608  0.1368  0.0901
    1W        W50781   3.633  24.782   0.174 -0.2025 -0.0187 -0.0505
    1W        W50782  27.759  21.856   8.486 -0.1897 -0.1998 -0.0156
    1W        W50783   5.585  14.597   9.353  0.1357  0.0424  0.1428
    1W        W50784   0.212  22.908   0.299 -0.0908 -0.2590  0.3940
    1W        W50785  25.439   0.813   2.002 -0.2655 -0.0853  0.0268
    1W        W50786   7.142  15.047   1.850 -0.0229  0.0203  0.2037
    1W        W50787   7.275   1.652   8.056  0.1173 -0.2948 -0.0635
    1W        W50788  21.314  11.312   7.601 -0.1745  0.1241 -0.1430
    1W        W50789   2.358  15.212   5.872  0.2655  0.1001  0.0719
    1W        W50790   5.671  17.215   1.756  0.1262 -0.3186  0.0309
    1W        W50791   7.467   6.458   7.260  0.3590 -0.3571  0.3434
    1W        W50792   5.633   1.935   0.599 -0.0716 -0.0528 -0.2903
    1W        W50793   0.973  15.776   7.044  0.1088 -0.0646  0.0212
    1W        W50794   6.839  28.587   2.098  0.2264  0.0133 -0.3290
    1W        W50795   1.646  24.499   9.302  0.0632 -0.0447  0.0454
    1W        W50796  14.393   8.862   8.365 -0.1490 -0.1902 -0.2016
    1W        W50797  21.994   3.510   6.345 -0.3131  0.1654  0.3833
    1W        W50798  21.180  16.835   1.353 -0.3277  0.0958 -0.1336
    1W        W50799  16.699  19.018   1.774  0.0096  0.2275 -0.2654
    1W        W50800   4.709  10.112   1.155 -0.0599  0.1827  0.0005
    1W        W50801  11.993   5.847   2.407  0.1911 -0.0762 -0.2005
    1W        W50802  14.702   3.040   7.803 -0.4465 -0.1680 -0.0550
    1W        W50803   8.188   8.578   3.618 -0.1125  0.1296 -0.0170
    1W        W50804   9.420  11.131   2.730  0.1538 -0.1265  0.0447
    1W        W50805   8.116  10.410   0.630  0.0941 -0.1610  0.1595
    1W        W50806  12.771   6.555   8.651 -0.0665  0.0430  0.0469
    1W        W50807   0.975  23.066   0.595  0.0187 -0.1889  0.0308
    1W        W50808   8.600  21.980   9.147  0.1229  0.0759  0.1573
    1W        W50809  26.019   7.561   1.039 -0.1451 -0.3190  0.1130
    1W        W50810  18.770  15.745   1.386  0.0833 -0.1266 -0.0009
    1W        W50811   3.750   5.262   2.629  0.2059 -0.0889 -0.1330
    1W        W50812  25.699  29.199   0.011  0.0715  0.0024  0.2368
    1W        W50813  22.930   2.168   8.099 -0.1102 -0.0983 -0.0509
    1W        W50814  29.480  12.007   1.657  0.1574 -0.0717  0.1521
    1W        W50815  20.033  15.685   1.683 -0.1795  0.0925 -0.1927
    1W        W50816  28.037  28.565   8.061 -0.0088 -0.2095  0.1181
    1W        W50817  20.039  20.474   0.860 -0.1856 -0.3930  0.2542
    1W        W50818  23.159  27.432   8.460 -0.0930  0.4159 -0.2698
    1W        W50819  17.306   4.846   6.050  0.2354 -0.7497 -0.2668
    1W        W50820  18.560   9.484   8.803  0.0397 -0.2742 -0.0718
    1W        W50821  17.615  17.047   8.073  0.4505  0.2719 -0.0430
    1W        W50822   7.986  28.509   2.361  0.1153  0.1259 -0.1246
    1W        W50823  14.891   3.037   7.316  0.1651  0.0320 -0.1540
    1W        W50824  29.354  12.368   2.011  0.0522  0.2054 -0.1237
    1W        W50825  14.732  26.990   3.087 -0.0024  0.0667 -0.1303
    1W        W50826  10.881   2.785   7.747 -0.0536 -0.0320  0.0638
    1W        W50827  20.011  28.968   3.237  0.2543 -0.0608  0.0937
    1W        W50828  23.272  21.759   7.639  0.2314 -0.1001  0.1146
    1W        W50829  12.656  12.593   9.294 -0.0774 -0.1467 -0.0537
    1W        W50830   2.004   3.420   1.922 -0.2529 -0.0360  0.0903
    1W        W50831  15.312   2.228   7.108  0.1322 -0.1598  0.0020
    1W        W50832  29.269  26.185   9.434 -0.0425  0.2278 -0.1152
    1W        W50833  17.710  28.313   0.565  0.0477 -0.2461  0.2034
    1W        W50834  29.127  12.150   6.520 -0.0831 -0.0275  0.0950
    1W        W50835   7.082  27.171   2.092 -0.0147 -0.1316  0.2693
    1W        W50836  16.345  19.136   1.376 -0.0830  0.0894  0.0878
    1W        W50837  25.740   5.418   2.706 -0.0370  0.1043  0.0034
    1W        W50838  12.643  22.141   8.619  0.2227 -0.0339  0.0045
    1W        W50839  19.874  14.395   0.573 -0.0587 -0.6312  0.0146
    1W        W50840  28.024  12.512   9.181 -0.0285  0.0134  0.2141
    1W        W50841  26.998  21.843   1.465 -0.0515  0.2347  0.1298
    1W        W50842   3.512  11.228   8.909 -0.2124  0.0602 -0.0685
    1W        W50843  25.572  25.255   1.545 -0.1124  0.1686  0.0615
    1W        W50844  25.201  22.629   2.439 -0.2100 -0.2358  0.1610
    1W        W50845   6.654  17.622   1.504 -0.1464 -0.1024 -0.1317
    1W        W50846   6.161   2.227   1.694 -0.0230 -0.0514 -0.1066
    1W        W50847  27.658   8.934   7.402 -0.0612 -0.2107 -0.2114
    1W        W50848  14.789   8.607   8.010  0.1542 -0.0110 -0.1635
    1W        W50849  24.158   8.865   1.107  0.3950 -0.1459 -0.1884
    1W        W50850   0.502   0.419   1.760  0.1142  0.2002  0.1577
    1W        W50851  15.409  13.707   1.996 -0.3484  0.2079  0.0569
    1W        W50852   6.335  24.739   1.693  0.2232 -0.0312  0.0468
    1W        W50853  11.911   2.468   2.468 -0.2381  0.1029  0.1700
    1W        W50854  13.024  12.825   0.578  0.0737  0.3256  0.0555
    1W        W50855  23.683   6.808   7.894 -0.0389 -0.0521 -0.1501
    1W        W50856  15.266  27.648   1.066  0.0890 -0.0273 -0.3787
    1W        W50857  28.001  16.760   8.828  0.2642 -0.2213  0.1453
    1W        W50858  12.963  25.524   0.250 -0.1575 -0.3503  0.2707
    1W        W50859  18.613  29.176   2.694  0.0523 -0.1928  0.0817
    1W        W50860   6.453  28.064   7.578  0.0987 -0.2328 -0.1109
    1W        W50861   5.227  14.788   9.060  0.2684  0.0165 -0.1078
    1W        W50862   1.018  15.426   7.453  0.3334 -0.2538  0.0687
    1W        W50863  19.905  26.554   8.677  0.0977  0.1238 -0.0991
    1W        W50864  23.823  19.260   8.637  0.1323  0.0670  0.0725
    1W        W50865  28.986  17.076   3.033 -0.1564  0.1861 -0.0656
    1W        W50866  18.501  12.445   7.506  0.1127  0.4869 -0.2557
    1W        W50867  27.784  29.259   7.764  0.1928 -0.4914 -0.0728
    1W        W50868  25.181  16.482   7.865 -0.0603  0.3010 -0.0061
    1W        W50869   6.694   9.804   8.959  0.1392  0.1106  0.1695
    1W        W50870   4.900  27.306   3.071 -0.3348 -0.2016 -0.0964
    1W        W50871  14.094  21.981   7.797 -0.0669  0.1414 -0.1833
    1W        W50872   5.182   2.617   8.810  0.2027 -0.1743  0.2370
    1W        W50873  29.301  19.305   8.820 -0.0760 -0.1109 -0.2448
    1W        W50874   3.606   1.475   8.063 -0.0733  0.1925 -0.1242
    1W        W50875  24.101  16.636   8.750 -0.1129 -0.0918  0.0355
    1W        W50876  28.153  19.061   1.694  0.1509  0.2169  0.2429
    1W        W50877  18.903   2.053   2.801 -0.4866 -0.1412 -0.1257
    1W        W50878  27.512   7.441   8.820  0.2471 -0.0320 -0.1320
    1W        W50879  10.637  19.659   0.116  0.0392 -0.3625 -0.0541
    1W        W50880   7.625   9.501   8.998  0.0226  0.1526 -0.3525
    1W        W50881  20.985   2.198   8.587  0.1367  0.3117 -0.0982
    1W        W50882  26.767  10.108   8.202  0.1054  0.1522 -0.0379
    1W        W50883  28.372   8.140   7.589  0.0035 -0.0609  0.0217
    1W        W50884   0.934  14.021   9.007  0.0341  0.1777  0.2075
    1W        W50885   9.448   4.905   6.987  0.1758 -0.1578  0.2705
    1W        W50886  24.140   6.616   3.119 -0.0068  0.1689 -0.2111
    1W        W50887  19.704  18.005   0.186 -0.0132 -0.2154  0.0034
    1W        W50888   0.002  13.590   6.271  0.0228  0.1167  0.3498
    1W        W50889   3.284  22.267   7.240 -0.1918 -0.1139  0.0572
    1W        W50890  25.144  12.078   6.347  0.2061 -0.1252 -0.0500
    1W        W50891  17.255  24.184   0.066  0.0888 -0.1774 -0.0142
    1W        W50892  25.119   7.439   8.451  0.2129 -0.0270 -0.0403
    1W        W50893  14.380   4.344   9.119  0.2258  0.2974  0.2002
    1W        W50894   9.156   1.296   2.956  0.2590  0.1191 -0.0857
    1W        W50895  21.149  27.333   0.342 -0.6316  0.2774 -0.6453
    1W        W50896   8.466  28.329   3.150 -0.2057  0.0232  0.1698
    1W        W50897  25.119  25.295   3.092  0.0825 -0.1852 -0.1720
    1W        W50898   0.908   7.338   1.174  0.5378  0.1902  0.0295
    1W        W50899  21.923  28.019   0.424 -0.1340 -0.2126  0.1429
    1W        W50900  20.378   2.315   9.457 -0.0942  0.1400  0.0990
    1W        W50901  12.683   4.445   0.681  0.1684 -0.2009  0.1122
    1W        W50902   3.790  14.150   2.548  0.0998  0.3264 -0.2946
    1W        W50903  23.058  23.536   8.084 -0.4413 -0.0996 -0.2639
    1W        W50904  28.252   0.185   2.396 -0.1312  0.1283  0.0368
    1W        W50905  15.751   1.127   2.366 -0.0131  0.0439 -0.0489
    1W        W50906   9.061  14.588   7.191 -0.2839 -0.0250  0.1356
    1W        W50907  26.999  10.209   8.784 -0.2578  0.0033  0.0031
    1W        W50908   7.280   6.358   8.210  0.0129 -0.0234 -0.2500
    1W        W50909  24.029   4.399   2.862  0.1899 -0.2397  0.1339
    1W        W50910   3.201  18.270   1.636  0.0943 -0.0621  0.0121
    1W        W50911  26.597  22.992   1.497  0.0548  0.2857 -0.0762
    1W        W50912  11.827   1.599   9.175  0.0639 -0.0491  0.1159
    1W        W50913   6.471   3.932   1.183 -0.2496  0.0210 -0.1244
    1W        W50914   8.127  29.902   7.942 -0.1236  0.4001  0.0898
    1W        W50915   7.618  17.858   7.469  0.0824  0.0073  0.0719
    1W        W50916  10.320  28.527   2.229 -0.2372  0.0132 -0.1467
    1W        W50917  29.077   0.377   8.896 -0.1876  0.1442  0.0973
    1W        W50918  28.126  16.861   6.168 -0.2109 -0.0687 -0.2150
    1W        W50919  14.137  20.333   0.863  0.2342  0.0405 -0.0255
    1W        W50920  27.771   5.274   0.571  0.0610 -0.1459 -0.2665
    1W        W50921  12.805  14.621   2.877 -0.0683 -0.1936  0.0095
    1W        W50922  29.344  11.006   8.317  0.1761 -0.2326  0.0159
    1W        W50923  22.092   9.901   2.026 -0.2048  0.1176 -0.0562
    1W        W50924  12.412  24.380   1.447 -0.1156  0.0807 -0.3078
    1W        W50925   4.397  26.608   0.053 -0.1356 -0.1602 -0.3101
    1W        W50926  28.884   3.577   6.875 -0.0545 -0.0357  0.2153
    1W        W50927  18.651   7.858   8.686  0.1190  0.2079  0.0006
    1W        W50928  27.191   5.853   6.681  0.3151 -0.0115  0.1996
    1W        W50929  11.492   2.468   0.189  0.2838 -0.0381  0.0607
    1W        W50930  14.801  26.827   1.601 -0.3517 -0.0360  0.0729
    1W        W50931  18.609  22.673   0.488 -0.0387  0.0412 -0.0201
    1W        W50932  14.961   4.469   7.422 -0.0797  0.1574  0.0598
    1W        W50933  21.825  15.783   2.115 -0.2380 -0.2241  0.2864
    1W        W50934   7.389   4.850   7.991  0.2558  0.1273  0.1285
    1W        W50935  11.266   1.656   9.101 -0.0193 -0.0699  0.2104
    1W        W50936  17.870  11.688   7.928  0.1017 -0.0079 -0.0562
    1W        W50937  10.274  22.206   1.969  0.1942  0.0856 -0.3255
    1W        W50938  13.575   6.577   3.477  0.1057  0.2602  0.2477
    1W        W50939  21.501  26.812   0.952 -0.1408  0.3117 -0.1727
    1W        W50940  23.142  22.576   2.010  0.1623 -0.1602  0.1117
    1W        W50941  24.813  14.126   6.405  0.0979  0.0609  0.2375
    1W        W50942  22.294  19.607   2.352 -0.1783 -0.0960 -0.0350
    1W        W50943   2.496  14.340   7.371 -0.0596  0.2145  0.1743
    1W        W50944   8.408  13.520   8.049  0.1286  0.2423 -0.0075
    1W        W50945   2.252  17.175   0.434 -0.0256 -0.0655 -0.0745
    1W        W50946  22.656   0.835   8.330  0.2754  0.0206 -0.1710
    1W        W50947   9.477   4.836   0.972  0.1299 -0.0214  0.0848
    1W        W50948   3.796   0.997   0.562 -0.0102 -0.1362 -0.0958
    1W        W50949  21.220  18.926   1.685  0.0063  0.0193 -0.0350
    1W        W50950  15.351   7.593   2.539 -0.3250 -0.1565 -0.0627
    1W        W50951   1.051   0.139   2.328  0.2374 -0.1342 -0.0732
    1W        W50952  19.314   1.571   2.144 -0.1431 -0.2422  0.3452
    1W        W50953   8.730  25.198   6.811  0.1058 -0.1833  0.1097
    1W        W50954   2.055   1.726   3.327  0.4347 -0.2000 -0.0615
    1W        W50955   8.974  23.492   6.389  0.2704 -0.0551 -0.2422
    1W        W50956  21.267   9.183   9.238 -0.2737  0.0369  0.2530
    1W        W50957   4.922  18.788   9.225 -0.0479  0.1190  0.0515
    1W        W50958  16.939  11.052   1.429 -0.0183 -0.0947 -0.0182
    1W        W50959  10.719  25.845   9.378 -0.2624 -0.1257  0.0204
    1W        W50960  17.277  22.754   1.733 -0.3183  0.0664  0.4309
    1W        W50961   2.105  11.076   1.415  0.0843  0.0855  0.0476
    1W        W50962   1.627   4.524   7.266  0.1464  0.1515 -0.0168
    1W        W50963   3.043   6.988   0.696 -0.3451 -0.1284  0.3759
    1W        W50964   0.568   9.800   0.611  0.2950  0.0658 -0.2820
    1W        W50965   7.301   5.450   7.090  0.0607  0.2268 -0.0771
    1W        W50966   0.240  20.466   1.441 -0.1336  0.2032 -0.1681
    1W        W50967  26.798   9.723   6.640  0.1656 -0.1982  0.0460
    1W        W50968  27.172   9.353   0.297  0.0178 -0.0870  0.0841
    1W        W50969  10.750  28.482   1.909  0.1666 -0.0245 -0.4324
    1W        W50970  25.606  27.376   7.216 -0.2140 -0.0385 -0.1287
    1W        W50971  22.676  28.707   0.032 -0.0845  0.3675 -0.1799
    1W        W50972   3.581  23.221   8.432 -0.2092  0.0926  0.0624
    1W        W50973   9.385   8.308   2.046  0.3557 -0.4381 -0.2079
    1W        W50974  11.496   6.745   0.788  0.3608 -0.1655  0.0609
    1W        W50975  18.289  29.650   8.275 -0.1673  0.1641 -0.1216
    1W        W50976   3.988  11.850   7.950 -0.0081  0.1921  0.0294
    1W        W50977  17.778   9.409   2.110  0.0048 -0.2314 -0.3238
    1W        W50978   7.746   3.172   2.612 -0.0887  0.0114  0.1096
    1W        W50979  17.324   1.741   7.110  0.0543  0.3721 -0.3530
    1W        W50980  27.820  14.617   8.386  0.0287 -0.0176  0.1096
    1W        W50981  28.036   2.469   2.656  0.0006 -0.0711 -0.4648
    1W        W50982  25.289  19.939   7.293  0.0694  0.0936 -0.1921
    1W        W50983  17.081   4.085   6.572 -0.3675 -0.1126  0.0593
    1W        W50984  13.466  12.363   1.971  0.1239 -0.0048  0.1143
    1W        W50985   4.801  20.520   1.718 -0.2046  0.1620 -0.2294
    1W        W50986  27.169  11.338   7.459  0.1882 -0.1946  0.1621
    1W        W50987   5.208   1.916   0.119 -0.2982  0.0242 -0.0429
    1W        W50988   5.094  18.655   0.951  0.1612 -0.0926 -0.0370
    1W        W50989   3.847  23.037   0.149  0.2764  0.0144 -0.0184
    1W        W50990  23.105  17.037   1.476  0.2488 -0.0796  0.0266
    1W        W50991  18.485  13.639   9.142 -0.0503 -0.0903 -0.1213
    1W        W50992  19.165   0.815   6.456 -0.1659 -0.1624 -0.0047
    1W        W50993   6.269  20.931   0.162 -0.0284  0.0282  0.2659
    1W        W50994  18.303  15.714   2.245 -0.2871  0.0607  0.1242
    1W        W50995  17.417  13.532   6.262 -0.0543  0.6103  0.1526
    1W        W50996  16.742   6.598   0.805  0.1892  0.0198 -0.2341
    1W        W50997  20.041  27.271   1.473 -0.1107  0.0042  0.0236
    1W        W50998  16.478  10.951   9.214  0.5024 -0.1723 -0.0626
    1W        W50999   2.075   2.066   1.887 -0.2222  0.1501  0.0756
    1W        W51000   0.674  16.550   0.522  0.2894 -0.2144  0.2242
    1W        W51001  12.323   8.460   7.319 -0.2958 -0.3604  0.0885
    1W        W51002   2.887  18.641   7.026  0.4415 -0.3030 -0.3055
    1W        W51003  25.391  23.423   1.160 -0.2152 -0.1175 -0.1929
    1W        W51004   1.519  29.341   8.611 -0.1963 -0.3504  0.3620
    1W        W51005  21.351  19.999   2.029 -0.0085  0.3522 -0.2593
    1W        W51006   4.647  21.612   6.281 -0.2310 -0.1340 -0.0147
    1W        W51007  27.931  13.109   1.838  0.0593  0.1033  0.0662
    1W        W51008   0.495  19.607   8.129  0.2039 -0.1334  0.0945
    1W        W51009   9.698  12.982   2.243 -0.0102 -0.0605 -0.0633
    1W        W51010  12.824  15.684   2.538  0.2579  0.1067 -0.0045
    1W        W51011  12.983  11.676   7.459 -0.0342 -0.0000 -0.1094
    1W        W51012  19.379   6.658   1.669 -0.0876 -0.0612 -0.1101
    1W        W51013   9.669   0.652   9.232  0.0590  0.0593  0.0242
    1W        W51014  27.867  16.142   0.182 -0.0104 -0.1043 -0.1515
    1W        W51015  19.643  22.992   9.014 -0.1151  0.0729  0.0684
    1W        W51016   4.891  22.689   1.015  0.0690 -0.2088  0.0249
    1W        W51017  18.404  19.985   8.114  0.1360 -0.1325 -0.1221
    1W        W51018   3.963  22.775   8.753  0.1604  0.1111 -0.1798
    1W        W51019  28.824  29.438   7.229 -0.1232  0.0613 -0.0079
    1W        W51020  17.084  24.596   9.151  0.0465  0.1861 -0.0634
    1W        W51021  20.675  26.039   1.406 -0.1074  0.1266 -0.0872
    1W        W51022  28.687  24.916   2.860 -0.1733 -0.3565  0.0205
    1W        W51023   3.089  16.463   0.073  0.2130  0.2286  0.2911
    1W        W51024   7.545   0.671   8.211 -0.0815 -0.1706  0.1128
    1W        W51025  27.662  19.994   9.080 -0.0757  0.1311 -0.2240
    1W        W51026  18.674  16.939   7.907 -0.2353 -0.0541  0.3464
    1W        W51027  20.393   5.319   3.032 -0.0086 -0.1101 -0.3134
    1W        W51028   8.116   0.905   6.834 -0.0134  0.2408 -0.2506
    1W        W51029   7.835   8.251   3.574 -0.0926  0.0973  0.0385
    1W        W51030  12.410   1.368   2.497  0.0071 -0.1351  0.1074
    1W        W51031  21.376  19.074   2.139 -0.3270 -0.0459 -0.0446
    1W        W51032  14.817  17.740   8.982  0.3184  0.0766  0.3947
    1W        W51033   8.006   0.027   9.290 -0.1584 -0.0756 -0.0193
    1W        W51034  14.687  19.134   7.587 -0.1968 -0.0577  0.1218
    1W        W51035  22.974  17.772   2.200 -0.0540  0.1948  0.1420
    1W        W51036  21.909  25.892   0.417 -0.1565  0.1004  0.4025
    1W        W51037  26.227  13.626   1.953 -0.1591  0.0311  0.0732
    1W        W51038   6.482  26.643   8.996 -0.0102  0.0843 -0.1494
    1W        W51039   7.761  15.040   1.094 -0.0501 -0.0755  0.0196
    1W        W51040   5.139  11.243   7.019  0.3327  0.0407 -0.0131
    1W        W51041  22.889  19.546   6.418  0.0126  0.2802  0.0487
    1W        W51042   3.258  23.561   8.625  0.0865 -0.3806  0.1553
    1W        W51043   9.512   3.991   2.718 -0.3538  0.0146  0.0623
    1W        W51044   0.391  28.064   1.917 -0.2311  0.1693 -0.2458
    1W        W51045   0.997  10.158   2.145  0.0824 -0.1049  0.0825
    1W        W51046  26.021  13.608   1.449 -0.1810  0.2668 -0.1360
    1W        W51047  28.069   8.493   6.670 -0.3662  0.2536  0.1552
    1W        W51048  11.915  24.250   1.760 -0.2998 -0.1963 -0.0013
    1W        W51049  15.889  12.536   0.771 -0.0104  0.1017  0.0381
    1W        W51050   1.685  28.060   6.880 -0.1436  0.0001  0.0994
    1W        W51051  13.894   5.086   8.905  0.0182  0.0712 -0.2737
    1W        W51052   1.398  24.071   6.174 -0.3148 -0.1192 -0.0215
    1W        W51053  25.850   1.400   8.406  0.1345  0.3273  0.0511
    1W        W51054  24.237  25.643   9.118  0.0243  0.0202  0.3573
    1W        W51055  28.574  12.585   6.499 -0.1156  0.0557  0.1134
    1W        W51056  10.533   7.734   8.604 -0.0668  0.1309 -0.2435
    1W        W51057   7.219  19.689   6.147 -0.1321 -0.2106  0.3286
    1W        W51058  29.366  13.688   0.814 -0.0684  0.1980 -0.0888
    1W        W51059   6.233   8.718   8.151  0.2526 -0.0384 -0.4324
    1W        W51060   4.817  11.507   1.478 -0.1760  0.0915 -0.2061
    1W        W51061  19.341   5.263   9.363  0.2444 -0.1252 -0.0113
    1W        W51062  12.860  18.883   8.649  0.0191 -0.2256  0.3600
    1W        W51063  14.344  27.693   9.332 -0.2938 -0.0653 -0.5382
    1W        W51064  19.057   9.038   0.932 -0.0100  0.2805 -0.0038
    1W        W51065   3.632   5.322   0.745  0.3137 -0.0264  0.0837
    1W        W51066  21.566   2.819   0.275 -0.1812  0.1479 -0.1147
    1W        W51067  12.715   8.709   0.816  0.2043 -0.2425 -0.1204
    1W        W51068  10.370   7.285   3.067 -0.4227  0.2311 -0.1256
    1W        W51069  14.145  26.025   1.753 -0.1606 -0.1995  0.0596
    1W        W51070  24.861  27.855   9.160 -0.0447  0.0545 -0.0257
    1W        W51071  17.700  11.443   0.389  0.0442  0.0749  0.0022
    1W        W51072  16.726   6.770   1.385  0.4448  0.1672 -0.0419
    1W        W51073   6.259  14.353   7.584  0.1417  0.3179 -0.1978
    1W        W51074  24.588   9.055   1.325  0.2486 -0.0586 -0.0436
    1W        W51075  23.675  19.015   8.203 -0.1370  0.2963 -0.0574
    1W        W51076  10.456  16.673   0.365  0.0406 -0.0670 -0.1866
    1W        W51077  21.451   2.313   6.902 -0.2307  0.2369  0.2007
    1W        W51078   4.290  25.249   1.700 -0.0578  0.0857 -0.1083
    1W        W51079  14.937  23.528   9.143  0.0800  0.2642 -0.1266
    1W        W51080   6.036   9.236   9.439  0.2194  0.0577  0.2319
    1W        W51081   2.466  11.681   2.316  0.0265 -0.1897  0.2860
    1W        W51082  24.641  18.063   8.460 -0.1614 -0.0632  0.1159
    1W        W51083  10.038  12.874   0.162  0.1313 -0.1358  0.0551
    1W        W51084  23.493   9.645   1.136  0.2978  0.0463 -0.1224
    1W        W51085  27.115   0.558   7.188  0.0372  0.0821  0.2319
    1W        W51086  23.856  11.011   1.272 -0.0888 -0.2114 -0.4204
    1W        W51087  11.394  25.935   7.815 -0.2078  0.0212 -0.2428
    1W        W51088   9.991  23.491   7.771  0.1340  0.1505 -0.3840
    1W        W51089  15.320  14.243   7.085  0.1292 -0.2968  0.0348
    1W        W51090  19.777  29.208   0.166  0.0134 -0.1281  0.1530
    1W        W51091  11.883  25.260   8.015  0.1499 -0.1266  0.3271
    1W        W51092   2.101   6.701   3.559 -0.0066  0.1579  0.0241
    1W        W51093   7.759  17.828   1.414 -0.1087  0.0528 -0.2382
    1W        W51094  13.367  21.963   7.222 -0.0890  0.0371 -0.0331
    1W        W51095  20.975   9.904   8.154  0.0097  0.3216  0.2900
    1W        W51096  21.007   6.503   7.090  0.2649  0.0840 -0.0415
    1W        W51097   9.648   7.568   9.408 -0.3056  0.2276 -0.1975
    1W        W51098  28.013  27.932   1.933 -0.1310  0.0451  0.0922
    1W        W51099  22.031  19.282   7.827 -0.0393 -0.0712  0.0068
    1W        W51100   1.901  15.201   8.280 -0.2697  0.0673  0.2588
    1W        W51101   5.517   6.372   0.511 -0.2075  0.0289 -0.1773
    1W        W51102  16.110  26.835   0.507 -0.0562 -0.1917  0.2301
    1W        W51103  21.039  25.643   2.825 -0.2825  0.3345 -0.2024
    1W        W51104  24.100  11.492   1.838  0.3316  0.2845  0.2786
    1W        W51105   0.437  18.362   7.612 -0.1087 -0.0668  0.1428
    1W        W51106  12.943   3.190   2.733 -0.1754 -0.3903 -0.0220
    1W        W51107  29.818  20.491   8.772  0.1717 -0.0237 -0.3801
    1W        W51108  24.588   3.672   2.193  0.2164 -0.0130  0.1595
    1W        W51109   6.449   3.162   3.033 -0.0664  0.3912  0.1709
    1W        W51110  26.331  10.843   1.887  0.0074 -0.2343  0.1360
    1W        W51111  17.549   1.375   9.320 -0.3004  0.0539  0.0440
    1W        W51112  18.462   7.052   9.187  0.2212 -0.1046 -0.0622
    1W        W51113   5.010  13.862   9.094 -0.0844 -0.1738  0.1667
    1W        W51114  15.989  29.431   8.591  0.1097 -0.0001 -0.0860
    1W        W51115  23.871  25.625   8.725 -0.1773 -0.2080 -0.0423
    1W        W51116   2.323  20.197   8.641 -0.4010 -0.2343 -0.1993
    1W        W51117  21.702  22.378   2.167 -0.0692  0.2270 -0.1532
    1W        W51118  21.842   7.125   9.167  0.2906  0.1553  0.1339
    1W        W51119  23.579   7.216   1.255  0.1607 -0.0474  0.2313
    1W        W51120   0.385  15.395   8.762 -0.0844 -0.0609  0.0246
    1W        W51121   5.515  20.887   0.289 -0.0993  0.1424 -0.1147
    1W        W51122  24.874  21.082   9.196  0.0229  0.1057 -0.1183
    1W        W51123  24.630  10.782   6.748  0.0634 -0.0005 -0.1766
    1W        W51124  10.383  21.242   6.715  0.2014 -0.2473  0.1054
    1W        W51125   6.650   1.413   8.114  0.1494 -0.3821 -0.0414
    1W        W51126  14.668   3.387   0.737  0.3702  0.0894  0.0676
    1W        W51127  13.555   0.611   8.364  0.4940 -0.2273  0.2400
    1W        W51128   9.292  14.371   6.754 -0.0286 -0.0982 -0.1195
    1W        W51129  19.442   1.850   2.539  0.2790  0.0318 -0.1472
    1W        W51130  28.403   3.351   0.526 -0.0194 -0.1016  0.0333
    1W        W51131  22.805  15.122   0.151  0.0953 -0.1663 -0.2639
    1W        W51132  25.344  19.789   6.341 -0.1726 -0.2689  0.2781
    1W        W51133  24.713  13.476   7.567  0.2202  0.2391 -0.2441
    1W        W51134  17.692   0.945   6.245 -0.3985 -0.0932 -0.1636
    1W        W51135  18.773   9.239   8.129  0.0605 -0.1142  0.6354
    1W        W51136  14.452   2.224   7.463  0.0582 -0.0617 -0.0450
    1W        W51137  25.901  20.871   6.937  0.0872 -0.0642 -0.0061
    1W        W51138   4.333  16.724   9.232  0.0235  0.0033  0.2718
    1W        W51139  27.861  22.660   7.909 -0.1819  0.0502 -0.0503
    1W        W51140  18.386  14.615   7.221 -0.0315  0.1202  0.1502
    1W        W51141   8.924  26.869   9.179 -0.2737 -0.2313 -0.0709
    1W        W51142   5.429   5.946   3.168  0.3373 -0.0776  0.1136
    1W        W51143  25.199  14.388   6.935  0.1196 -0.5324 -0.1641
    1W        W51144   5.251  21.998   7.043 -0.0646  0.1683 -0.2464
    1W        W51145  28.475  12.685   7.117 -0.2110  0.0154  0.0023
    1W        W51146   4.664  24.215   6.443  0.1713  0.1133 -0.1390
    1W        W51147  15.127  23.985   0.690 -0.0640 -0.0340 -0.3493
    1W        W51148   9.257  26.433   9.219 -0.1321  0.2395 -0.0651
    1W        W51149  18.886  25.874   0.655 -0.3739  0.2272  0.1658
    1W        W51150   0.941  22.134   0.511  0.0412 -0.2086 -0.1095
    1W        W51151  16.119   6.890   9.256  0.1698 -0.0589 -0.0157
    1W        W51152  23.136  22.191   0.437  0.3598 -0.4866 -0.1604
    1W        W51153  29.548  28.289   6.801  0.1043  0.0510 -0.2525
    1W        W51154  23.541  28.159   1.911  0.0813  0.6036 -0.0051
    1W        W51155  13.999   6.721   6.545 -0.2125 -0.2490 -0.0748
    1W        W51156   0.077   9.686   8.187 -0.0188 -0.2242  0.3360
    1W        W51157   2.911  14.580   6.401 -0.0142  0.3487 -0.1037
    1W        W51158  18.227   9.432   1.347  0.0036 -0.2460 -0.0133
    1W        W51159  10.087  27.128   8.719 -0.0835 -0.0299 -0.1281
    1W        W51160   4.067  20.046   0.508 -0.3133 -0.1031  0.1103
    1W        W51161  14.865  20.782   7.979  0.0247 -0.3211  0.0433
    1W        W51162   0.746   4.647   0.592  0.0215  0.2279  0.0764
    1W        W51163  18.527  29.352   2.089  0.0490  0.2046  0.1493
    1W        W51164   9.879   5.708   1.419  0.0773 -0.1631  0.2566
    1W        W51165   2.964  11.875   6.413  0.3800  0.0058 -0.1283
    1W        W51166  22.240  27.623   7.883  0.0544  0.1134 -0.3108
    1W        W51167   3.439  19.558   8.257  0.1575  0.0116 -0.2344
    1W        W51168  17.990  24.053   8.471 -0.1285  0.4154 -0.0506
    1W        W51169  11.674  21.856   6.667  0.1606 -0.0141 -0.3537
    1W        W51170   1.106   8.142   6.014  0.4731 -0.2432 -0.0295
    1W        W51171   1.079  21.716   8.050 -0.1848  0.1905 -0.0591
    1W        W51172  16.062  12.460   1.246  0.2134 -0.2199 -0.1046
    1W        W51173   3.273   2.652   1.320 -0.2128  0.1577  0.2015
    1W        W51174  12.557   6.413   1.363  0.0051 -0.2709 -0.1604
    1W        W51175  28.010  20.692   6.266  0.3059  0.0106 -0.0335
    1W        W51176  11.796  29.573   2.794 -0.4284 -0.3990  0.0229
    1W        W51177   1.160  12.841   9.371  0.2990 -0.0790  0.2040
    1W        W51178  19.373  16.763   2.539  0.2299 -0.0470  0.1984
    1W        W51179   7.939   9.043   2.943  0.1208  0.2417 -0.1010
    1W        W51180   1.208  15.583   1.289  0.0218 -0.0769 -0.1077
    1W        W51181  23.770  22.209   8.149 -0.0988 -0.0862 -0.1255
    1W        W51182  28.482  16.605   8.861  0.2297 -0.1787  0.3058
    1W        W51183  24.624  17.665   0.636 -0.1586  0.0225 -0.1693
    1W        W51184  20.269   1.249   1.651  0.1209 -0.0923  0.1307
    1W        W51185  10.927  18.685   6.803 -0.2056 -0.3191 -0.0729
    1W        W51186  13.409  21.508   6.900 -0.1783  0.0242 -0.0479
    1W        W51187  23.654  21.226   1.912  0.0548  0.0283 -0.0622
    1W        W51188  27.498   5.735   6.024  0.1290  0.6111 -0.2112
    1W        W51189  27.641   0.939   7.836 -0.0091 -0.0335  0.0060
    1W        W51190  14.345  14.860   0.304 -0.0548  0.1469  0.1001
    1W        W51191  16.645   9.821   8.305 -0.1273 -0.2495  0.0998
    1W        W51192  19.872   2.325   2.284  0.0846 -0.2488 -0.0716
    1W        W51193   2.740  15.214   0.602  0.2947 -0.0855  0.0471
    1W        W51194   4.139   2.049   0.143  0.3316 -0.0869  0.2779
    1W        W51195   2.939  15.518   1.386  0.1179 -0.1933 -0.2232
    1W        W51196   5.512   1.568   2.999 -0.0904 -0.0239  0.0570
    1W        W51197  26.159  21.308   0.484 -0.1072 -0.2371 -0.1346
    1W        W51198  12.356  15.013   0.010  0.2453  0.2455  0.0666
    1W        W51199  28.811  26.338   9.424  0.2995  0.0020 -0.1026
    1W        W51200  11.658   3.185   1.132 -0.0353 -0.0432  0.0964
    1W        W51201   4.276  25.208   6.547 -0.0372 -0.3003  0.1191
    1W        W51202  10.825  16.244   8.521  0.1548 -0.2728  0.3654
    1W        W51203  24.048  26.282   1.900  0.1264 -0.5968  0.0694
    1W        W51204  21.781  10.360   1.278  0.0603 -0.0917  0.0284
    1W        W51205   8.410   2.686   8.372 -0.0158  0.2729 -0.2637
    1W        W51206   5.097   1.234   7.620  0.0613  0.0158 -0.0650
    1W        W51207  21.288   2.735   1.524 -0.1724  0.0816 -0.0591
    1W        W51208   3.137  23.611   7.543 -0.3461  0.0425  0.1369
    1W        W51209  23.198  25.150   1.431 -0.1007  0.2559 -0.3287
    1W        W51210  28.670  24.548   0.146  0.0348  0.2583  0.0967
    1W        W51211  26.282  25.938   7.522  0.0030  0.1488 -0.1313
    1W        W51212  17.819  24.763   2.657  0.3113 -0.1168  0.4307
    1W        W51213  23.974  24.000   0.846 -0.4005 -0.4093  0.3614
    1W        W51214  23.319   2.840   1.207 -0.1545  0.2244 -0.1574
    1W        W51215   2.535  26.764   8.535  0.0346 -0.2853 -0.0876
    1W        W51216  21.111   3.577   7.526 -0.0009 -0.0052  0.1759
    1W        W51217  15.640  24.295   1.529  0.0374  0.1868 -0.1976
    1W        W51218   3.968  27.479   0.956  0.1817 -0.1523  0.2406
    1W        W51219  15.117   3.944   1.215  0.2007 -0.1165 -0.5160
    1W        W51220   7.886  19.662   9.078  0.1247 -0.0453  0.0172
    1W        W51221  24.665  13.282   1.112 -0.3062 -0.1550  0.1005
    1W        W51222  23.573  16.971   6.385 -0.1254  0.0660 -0.1284
    1W        W51223  18.673  27.764   0.904  0.0342 -0.2562 -0.0788
    1W        W51224   3.641   3.600   7.340 -0.0014  0.0941 -0.2480
    1W        W51225  11.347  24.588   1.181  0.2832  0.0202 -0.2971
    1W        W51226  28.897  22.742   1.501 -0.0618 -0.1013  0.1292
    1W        W51227  22.645  23.833   2.261 -0.0869 -0.3063  0.3463
    1W        W51228  25.068  25.488   0.656 -0.2292 -0.1202  0.0096
    1W        W51229   8.516  17.697   0.771  0.2475 -0.0530 -0.0597
    1W        W51230  28.313   3.153   8.730 -0.0447  0.1302  0.3721
    1W        W51231  24.171   8.565   6.765  0.1593 -0.2208 -0.1443
    1W        W51232  23.405   0.754   0.011  0.0843 -0.1495  0.0226
    1W        W51233   0.769  28.221   8.982  0.1400  0.1925 -0.0281
    1W        W51234  15.551  28.770   7.891  0.1826  0.1161  0.1691
    1W        W51235  14.139  24.434   6.218 -0.3257  0.2100  0.0631
    1W        W51236  24.437  24.915   1.479 -0.0546 -0.1064 -0.0478
    1W        W51237  26.783  11.704   7.425 -0.2094 -0.1311 -0.0235
    1W        W51238  29.558   2.840   9.039  0.0118 -0.1009  0.1501
    1W        W51239   7.486  13.148   0.840 -0.2579 -0.1639 -0.3917
    1W        W51240  24.392   6.178   1.592 -0.0125  0.1406  0.1525
    1W        W51241  24.405  15.624   2.149  0.2144 -0.0693  0.0862
    1W        W51242  15.093   1.984   2.414 -0.1611  0.0557 -0.1937
    1W        W51243  20.420   4.877   2.818  0.1860  0.0138  0.5288
    1W        W51244  29.695  10.420   7.856 -0.0552 -0.0074 -0.1558
    1W        W51245   2.258   7.966   2.550  0.0629 -0.1034 -0.0410
    1W        W51246  11.033  13.302   0.099  0.2793  0.0306 -0.0919
    1W        W51247  27.299  26.226   8.895 -0.1486 -0.4098  0.0414
    1W        W51248  26.775  18.376   0.252  0.0732 -0.1677  0.1222
    1W        W51249  28.562  11.979   9.009  0.2875  0.3030  0.0666
    1W        W51250  16.440  25.814   2.341 -0.0126 -0.1007 -0.0309
    1W        W51251  26.576   4.878   9.264 -0.1840 -0.0624  0.0677
    1W        W51252  25.255  10.750   7.041  0.2449  0.3720  0.1000
    1W        W51253   0.602   9.812   1.595 -0.0874  0.0004  0.0525
    1W        W51254  19.862  29.666   8.051  0.0756  0.0001 -0.1498
    1W        W51255  28.505  28.698   7.977  0.1982  0.2255  0.1772
    1W        W51256   0.966   6.721   7.412  0.1226 -0.2939  0.0057
    1W        W51257  12.167  26.931   1.663  0.1026 -0.1687  0.0231
    1W        W51258  11.062  23.239   0.037 -0.3166  0.2880  0.0856
    1W        W51259  20.328   5.051   1.113 -0.1415 -0.0932  0.0424
    1W        W51260   4.888  13.035   8.983 -0.2377 -0.1083 -0.1218
    1W        W51261   4.557  24.325   9.429 -0.1781  0.1849 -0.0594
    1W        W51262  22.766  13.548   6.289 -0.0426  0.0751  0.0196
    1W        W51263  13.606  25.136   7.177 -0.0198  0.1525 -0.0770
    1W        W51264   6.890  20.529   7.238 -0.0384 -0.0038  0.0554
    1W        W51265  10.286  26.770   0.685 -0.3667 -0.0516 -0.3124
    1W        W51266   2.991  10.787   3.153  0.0411  0.0410 -0.1936
    1W        W51267   5.089  15.309   9.045 -0.0871  0.0401  0.1382
    1W        W51268   4.590  16.508   1.014 -0.0861  0.0901  0.1986
    1W        W51269  19.962   6.005   1.595  0.0690  0.2007  0.0141
    1W        W51270   0.268  12.611   7.803  0.0699 -0.1775  0.2264
    1W        W51271  15.915  19.904   1.613 -0.1390 -0.0641  0.1998
    1W        W51272   3.416  29.578   1.443  0.1617 -0.3070 -0.2187
    1W        W51273  16.614  11.469   1.236  0.1149 -0.0093  0.0372
    1W        W51274  26.570  26.824   3.088 -0.2086 -0.1788  0.2267
    1W        W51275  25.031  13.095   7.465  0.1294 -0.1163 -0.1949
    1W        W51276  18.504  19.544   7.181  0.1790 -0.0916  0.0487
    1W        W51277  15.006  27.537   8.550  0.2498 -0.2093 -0.2569
    1W        W51278   2.341   0.341   7.464  0.2268  0.3465  0.0287
    1W        W51279  20.522  16.921   1.920  0.1075  0.3772 -0.0631
    1W        W51280  15.972   7.826   7.116 -0.1419 -0.0316  0.1822
    1W        W51281  14.301  15.939   9.462 -0.1825  0.1838 -0.1441
    1W        W51282  19.761  28.935   7.693 -0.1082  0.0830 -0.0995
    1W        W51283   0.881  28.120   7.758  0.1141 -0.0005  0.1614
    1W        W51284  19.454   1.839   1.683  0.1573  0.1893  0.3685
    1W        W51285  11.736  14.128   7.378 -0.3888 -0.1253  0.0156
    1W        W51286  22.313   7.055   2.215  0.1250  0.0302 -0.1446
    1W        W51287  19.626  29.567   7.245 -0.1647  0.0826 -0.0116
    1W        W51288  26.915  27.380   9.343 -0.0245 -0.3410  0.1214
    1W        W51289  22.753   2.951   6.853 -0.1233 -0.2063 -0.2355
    1W        W51290   3.237  18.090   8.677 -0.0010  0.1167  0.0751
    1W        W51291  19.341  21.301   8.533 -0.1616  0.2427  0.0212
    1W        W51292   9.047  10.713   1.166  0.1921  0.3366  0.1628
    1W        W51293  10.738   4.243   0.186 -0.2965  0.2264  0.0310
    1W        W51294  10.759  22.791   9.276 -0.1545 -0.0816 -0.3548
    1W        W51295  15.509  28.624   0.964  0.3195  0.0752 -0.0354
    1W        W51296   2.006  16.333   0.499 -0.0263 -0.0208 -0.1979
    1W        W51297  10.459  25.002   6.294 -0.1976  0.1887  0.2318
    1W        W51298  10.787  12.537   2.295 -0.0433 -0.1617  0.0133
    1W        W51299  24.597  10.731   8.449  0.3362  0.0149 -0.2800
    1W        W51300   6.631  18.983   7.474  0.0029  0.1733 -0.2808
    1W        W51301  15.772  29.271   2.890 -0.2315 -0.1264  0.3739
    1W        W51302  14.813  28.244   2.924 -0.2365 -0.3712 -0.1249
    1W        W51303  21.242   9.584   1.816 -0.0075  0.1450  0.1830
    1W        W51304   2.187  19.889   1.445  0.1738  0.1570  0.1036
    1W        W51305  24.528   5.041   8.553 -0.0759  0.2358 -0.0847
    1W        W51306   9.502  13.420   8.311 -0.0210 -0.1675 -0.1497
    1W        W51307  10.302   2.915   2.937 -0.0934 -0.0301 -0.3378
    1W        W51308   3.583  23.927   6.695 -0.4249 -0.1150  0.2720
    1W        W51309  26.501  24.674   2.102  0.2185 -0.3784  0.0008
    1W        W51310  13.130   3.094   3.205  0.0308 -0.0260  0.0847
    1W        W51311   7.422  25.144   8.876  0.0829  0.0282 -0.2382
    1W        W51312  20.884  27.190   0.695 -0.1949 -0.2153 -0.1698
    1W        W51313  27.966  13.217   8.789  0.2011  0.1358  0.1152
    1W        W51314   7.433   5.217   8.547 -0.0477 -0.0247  0.0078
    1W        W51315  23.673  20.783   3.193  0.2836 -0.1140  0.0721
    1W        W51316  27.768  11.389   0.104  0.2030  0.1730 -0.0967
    1W        W51317   5.292  14.056   7.346  0.1579 -0.0298  0.4037
    1W        W51318  25.688   6.505   1.998  0.2017 -0.0673  0.0920
    1W        W51319  22.217  13.751   0.964  0.0509  0.1253 -0.2429
    1W        W51320   3.239  26.192   1.574 -0.2448  0.2583 -0.0999
    1W        W51321   3.169  14.987   8.073 -0.2007  0.3147  0.2879
    1W        W51322  21.510   9.331   7.410  0.1024 -0.0151  0.2232
    1W        W51323  29.335  15.164   7.305 -0.1821 -0.0266 -0.0851
    1W        W51324  20.193  27.205   1.943 -0.1768  0.3147 -0.2134
    1W        W51325  25.414  21.931   8.836 -0.2542 -0.0812  0.1663
    1W        W51326   3.870   2.146   0.523 -0.3678  0.0847 -0.1515
    1W        W51327  25.546  20.943   1.533 -0.1870 -0.1533  0.1204
    1W        W51328  20.562  17.136   0.386 -0.1454 -0.0761 -0.2793
    1W        W51329  19.874  28.384   7.597 -0.0103 -0.0298  0.0809
    1W        W51330  10.241   8.304   2.527 -0.2642 -0.1960  0.1641
    1W        W51331  21.698   3.412   1.754 -0.0025 -0.0828  0.2533
    1W        W51332  11.196  20.126   7.653  0.2265 -0.2381 -0.4210
    1W        W51333  10.388  10.681   0.647 -0.3074  0.4634 -0.2449
    1W        W51334   2.494   1.266   9.246 -0.2053  0.2671  0.4288
    1W        W51335  16.990  10.822   9.265 -0.0466 -0.0965 -0.2944
    1W        W51336   0.538   8.273   6.589  0.1961 -0.1272 -0.0809
    1W        W51337   0.230  10.183   0.469  0.0270  0.0038  0.4202
    1W        W51338  26.716   2.180   7.882  0.1446 -0.3177 -0.0983
    1W        W51339   7.613  16.890   6.961  0.0187 -0.3665 -0.2424
    1W        W51340  14.922  27.635   9.199 -0.1272  0.0386 -0.1535
    1W        W51341  23.660  17.747   9.413 -0.0619 -0.2831  0.0056
    1W        W51342  22.564  23.621   6.740 -0.0890 -0.1387 -0.5021
    1W        W51343  27.265   4.263   6.625  0.0157  0.1790  0.0159
    1W        W51344  29.430  14.890   8.214  0.0778 -0.2106 -0.0298
    1W        W51345   6.886   2.092   0.213  0.0120  0.2601 -0.0577
    1W        W51346  28.523  15.566   3.108 -0.0379 -0.0898  0.1852
    1W        W51347   3.253   5.136   7.040  0.1218 -0.1415 -0.1648
    1W        W51348  26.376  16.185   6.629 -0.0218 -0.0890 -0.3417
    1W        W51349   6.187  11.423   3.516 -0.1293 -0.0427 -0.1952
    1W        W51350  19.447   8.664   7.188 -0.1393 -0.0503  0.3284
    1W        W51351  11.024  22.116   0.259 -0.0059 -0.3947  0.3181
    1W        W51352  22.698  23.294   7.749 -0.1228 -0.0275  0.2137
    1W        W51353  19.447   0.926   7.971  0.1150  0.1698  0.3579
    1W        W51354  12.343  15.525   8.718  0.0222 -0.1362 -0.5242
    1W        W51355  23.936   2.294   0.493  0.1226 -0.0377  0.1200
    1W        W51356  26.361   1.298   9.215 -0.1650 -0.2617  0.0451
    1W        W51357  21.012  16.702   9.198 -0.0865 -0.0004 -0.2514
    1W        W51358  10.491  28.953   0.677  0.3358  0.1675  0.1217
    1W        W51359  18.600  17.066   8.990  0.1570 -0.3923 -0.2282
    1W        W51360  29.068  18.557   8.426  0.0575 -0.0299  0.3489
    1W        W51361   1.692   2.428   8.102 -0.0674 -0.2025 -0.0496
    1W        W51362   6.827  25.422   8.943  0.1036 -0.1576  0.2099
    1W        W51363  16.232  18.818   0.528 -0.2243 -0.3095 -0.0934
    1W        W51364  14.028  29.814   1.341  0.2439 -0.1662 -0.0380
    1W        W51365   2.140   1.992   6.925 -0.4475  0.0955 -0.3498
    1W        W51366   6.272  19.502   6.168  0.3598 -0.0884 -0.1006
    1W        W51367   3.362  17.059   7.584  0.0535 -0.1802  0.1340
    1W        W51368  11.164  20.816   1.748  0.0302 -0.1090 -0.0788
    1W        W51369  26.333  14.363   0.670 -0.1118 -0.2224 -0.0726
    1W        W51370  19.464  15.875   0.728  0.2422  0.3117 -0.3009
    1W        W51371  16.229  27.646   9.161  0.3330 -0.0291 -0.1086
    1W        W51372   9.180  21.109   8.112 -0.0562  0.0740 -0.2287
    1W        W51373  14.847   8.761   0.072  0.2040  0.0696 -0.1814
    1W        W51374   0.797  11.994   8.800  0.2434  0.0510  0.0835
    1W        W51375  11.675  21.606   8.720 -0.3821  0.0407  0.0864
    1W        W51376  26.521  14.155   7.380  0.3293  0.0159  0.1394
    1W        W51377   5.085   7.203   3.007 -0.0883  0.0924  0.1457
    1W        W51378  24.276  29.310   1.434 -0.1342 -0.2469  0.0591
    1W        W51379  15.885  17.855   0.664  0.0705  0.0155  0.1369
    1W        W51380  24.789  27.853   8.242 -0.1575  0.4459  0.0029
    1W        W51381  20.565   3.417   1.546  0.1239  0.1212 -0.0293
    1W        W51382  27.525  27.104   9.316 -0.2858  0.2486  0.1391
    1W        W51383  16.158  12.829   1.561  0.2180  0.1409  0.0530
    1W        W51384  12.439  27.684   3.684 -0.1334 -0.1848 -0.0595
    1W        W51385  15.183   4.763   0.625 -0.2984  0.1174  0.1912
    1W        W51386   7.925  16.082   9.343  0.0264 -0.0495 -0.3625
    1W        W51387  24.714  24.614   7.852  0.1316 -0.2090  0.1845
    1W        W51388   5.694   4.616   6.710  0.0117  0.0157 -0.1237
    1W        W51389  27.220  24.483   7.790  0.1313 -0.1052 -0.0778
    1W        W51390   3.402  20.376   1.345 -0.1755  0.0155  0.3666
    1W        W51391  18.868   5.413   6.527  0.0823  0.4207  0.1927
    1W        W51392  20.483  21.431   6.930 -0.1803 -0.2099 -0.0591
    1W        W51393   9.417   0.626   7.605  0.0003  0.2298  0.1022
    1W        W51394  24.384  20.331   7.472  0.0375 -0.1308  0.0199
    1W        W51395  18.983   1.973   2.076  0.1592  0.1994 -0.1250
    1W        W51396  17.822  28.452   3.866 -0.0141  0.3359 -0.2566
    1W        W51397   4.823  27.203   1.083 -0.0447 -0.3049 -0.0193
    1W        W51398  16.839  26.477   1.869 -0.1672  0.0605  0.0800
    1W        W51399   1.191  19.773   6.761  0.2234 -0.0345 -0.0220
    1W        W51400  21.032  11.719   8.029  0.0610  0.1825  0.0029
    1W        W51401  16.969  15.702   1.228 -0.1108 -0.3009 -0.4107
    1W        W51402   5.860  22.454   7.656  0.4979 -0.4157 -0.0658
    1W        W51403  21.300   3.272   0.300 -0.0781 -0.1216 -0.1652
    1W        W51404   5.106   3.566   7.478 -0.1362 -0.0782 -0.2359
    1W        W51405  10.221   0.725   1.954  0.2303 -0.2361 -0.1177
    1W        W51406   7.284   9.875   1.221  0.0700  0.2096 -0.3300
    1W        W51407  16.167  19.019   1.848  0.0689 -0.3256 -0.2811
    1W        W51408  18.574  28.279   0.838 -0.1472  0.1248 -0.0115
    1W        W51409  22.680  15.362   9.165 -0.2319 -0.0467 -0.0712
    1W        W51410  12.866  10.426   7.196  0.1202  0.1074  0.4140
    1W        W51411  18.353  14.781   8.573  0.3509 -0.2328 -0.0111
    1W        W51412  24.732   8.366   3.240 -0.1979  0.0966 -0.0172
    1W        W51413   3.119  27.458   7.425 -0.0214 -0.3448 -0.0616
    1W        W51414  16.344  27.844   1.419 -0.2012 -0.2080  0.1239
    1W        W51415  25.692  28.304   8.345  0.1895 -0.1567  0.1491
    1W        W51416  27.615   6.187   0.309 -0.1952 -0.1383  0.1718
    1W        W51417  11.643   4.668   2.140 -0.0635  0.0483  0.0420
    1W        W51418   1.879  26.253   7.627  0.2464  0.1461  0.2020
    1W        W51419  23.413  12.838   7.392  0.0663 -0.0634  0.1944
    1W        W51420   5.007  28.335   6.936 -0.0013  0.2035  0.2758
    1W        W51421   6.852   1.648   0.441  0.0301 -0.0071 -0.1138
    1W        W51422   1.630  12.409   7.796 -0.0369  0.0173  0.1829
    1W        W51423  23.222  26.903   0.181  0.2866 -0.1461 -0.0475
    1W        W51424  28.913  25.851   0.098 -0.1129  0.2602 -0.0608
    1W        W51425   2.008   3.902   8.862  0.0543  0.1905 -0.0073
    1W        W51426  16.302  11.273   2.578 -0.3307  0.0971  0.2270
    1W        W51427  14.178  25.348   2.585 -0.0107 -0.2356  0.1471
    1W        W51428   8.432  21.996   7.009 -0.2160  0.1107 -0.0066
    1W        W51429   1.459  22.374   2.017  0.0605  0.0299  0.1540
    1W        W51430  22.343  13.434   7.981 -0.0047  0.0672  0.1560
    1W        W51431   8.147  22.208   1.908 -0.2369 -0.1689  0.2299
    1W        W51432  17.890   1.823   9.392 -0.0931  0.1660  0.1463
    1W        W51433  28.339   0.535   8.842 -0.0222 -0.0573  0.2070
    1W        W51434   2.185  23.541   6.553 -0.0331 -0.0806 -0.2012
    1W        W51435  10.931  14.642   7.515 -0.1023  0.0884 -0.0472
    1W        W51436   3.654  15.083   0.141 -0.1154  0.1928 -0.0188
    1W        W51437  15.207   5.980   9.262  0.2844 -0.2116  0.0790
    1W        W51438   6.425  29.541   2.368  0.1767 -0.2348 -0.1561
    1W        W51439  11.867  28.852   7.450  0.2633 -0.0940 -0.1747
    1W        W51440   2.782  25.420   5.361  0.2187 -0.0920 -0.0562
    1W        W51441  26.153  20.859   6.453 -0.5275 -0.0297  0.0647
    1W        W51442   0.393   8.466   0.041  0.3845 -0.1301 -0.1010
    1W        W51443  18.000  10.835   8.324 -0.1704  0.2086 -0.0432
    1W        W51444  22.503  20.207   8.710 -0.1097 -0.0890 -0.2280
    1W        W51445  22.285  11.371   0.286  0.0135  0.1310 -0.0939
    1W        W51446   9.108  13.950   1.579 -0.0410 -0.2391  0.1559
    1W        W51447  11.847  16.409   8.910  0.1707 -0.2419 -0.1689
    1W        W51448  19.357   5.801   0.933 -0.1913  0.0893 -0.0792
    1W        W51449  24.510  18.231   1.260 -0.0265  0.0192 -0.0451
    1W        W51450  21.420   1.537   2.307  0.0601  0.0163 -0.1488
    1W        W51451  29.727  14.396   8.378  0.0509  0.1282  0.1333
    1W        W51452  18.648   8.218   9.077 -0.1565 -0.0926 -0.1433
    1W        W51453   0.945  20.912   6.133 -0.0635  0.0990 -0.0259
    1W        W51454  17.022  23.008   0.128 -0.0648  0.0699 -0.0300
    1W        W51455  12.620   6.744   1.740  0.3886  0.0609 -0.2240
    1W        W51456   4.770  13.408   2.011  0.2337 -0.3147  0.1198
    1W        W51457   1.649   5.254   0.053  0.1101 -0.2086 -0.1282
    1W        W51458  17.681   4.687   2.068  0.1754  0.2913  0.3087
    1W        W51459   6.299  17.521   8.555 -0.1418 -0.4466  0.2070
    1W        W51460  11.476   6.112   0.544 -0.3008  0.2385 -0.0597
    1W        W51461  21.789  25.972   2.292  0.0351  0.0918 -0.1658
    1W        W51462  27.162  19.692   2.773 -0.1473 -0.0715  0.0915
    1W        W51463   6.475   0.962   7.887 -0.1834  0.2329 -0.0752
    1W        W51464  12.857  29.303   2.569  0.3303  0.1032 -0.0796
    1W        W51465   5.388  24.068   7.710 -0.0501  0.1546  0.1008
    1W        W51466   7.843   8.081   3.114  0.0126 -0.0467  0.0893
    1W        W51467   2.365  23.190   0.125 -0.1613 -0.0236  0.1230
    1W        W51468  29.721  12.160   1.259  0.1409 -0.2324  0.1671
    1W        W51469  22.786  23.347   9.024  0.1761  0.3856  0.0059
    1W        W51470  13.404   6.528   2.752  0.1826  0.0780  0.1478
    1W        W51471  28.384  17.134   1.598  0.1482 -0.1491  0.2265
    1W        W51472  13.646  23.570   6.469  0.0268 -0.1952  0.0187
    1W        W51473  24.572  22.619   7.284  0.1533 -0.0876  0.5767
    1W        W51474  18.886  28.297   7.437  0.3162  0.0202  0.1806
    1W        W51475  25.617  29.803   0.816 -0.2077 -0.0582 -0.0008
    1W        W51476   4.729   1.562   7.432 -0.1835 -0.0778  0.2647
    1W        W51477  18.349   0.694   8.348  0.2192  0.1146 -0.1056
    1W        W51478   0.125  21.067   1.211  0.1186 -0.0918  0.0581
    1W        W51479  18.014  10.317   9.013  0.2990  0.3783 -0.2109
    1W        W51480  14.400  22.710   9.164  0.1189  0.1357  0.0996
    1W        W51481  29.412  18.562   7.797  0.3412  0.0597 -0.0407
    1W        W51482  10.732  14.351   8.332  0.0782 -0.2652  0.1997
    1W        W51483   9.381  24.997   7.056 -0.2670 -0.2083  0.2317
    1W        W51484   3.662   2.837   0.939 -0.0458  0.0374 -0.3519
    1W        W51485  28.491   4.735   6.409 -0.1922  0.0090 -0.2498
    1W        W51486  12.044   4.518   3.536 -0.0151  0.0956 -0.2454
    1W        W51487   7.398  26.360   7.231  0.0027 -0.1568 -0.1817
    1W        W51488  24.587  25.377   1.731 -0.1063  0.0592  0.3396
    1W        W51489  16.181  13.267   1.820 -0.1045 -0.0623  0.0256
    1W        W51490  14.446  24.930   7.214  0.1479  0.2855 -0.3272
    1W        W51491   4.472   1.615   8.278  0.1438 -0.0473  0.0538
    1W        W51492  21.564  15.017   0.583  0.2252  0.0314  0.0236
    1W        W51493  10.733   2.183   3.290 -0.1545 -0.1243  0.1397
    1W        W51494   6.321   6.799   8.372 -0.1209 -0.0531  0.0645
    1W        W51495  26.916   1.838   7.094 -0.2607  0.0628 -0.1105
    1W        W51496   8.195  29.766   3.813  0.2925  0.0955 -0.1197
    1W        W51497   3.997   3.269   6.982 -0.0834 -0.0887  0.0456
    1W        W51498  19.617  14.885   0.248 -0.1625 -0.3741 -0.2300
    1W        W51499   6.289  13.358   7.928 -0.2781  0.1065 -0.3344
    1W        W51500  14.982   7.934   1.216  0.1468 -0.2155 -0.1302
    1W        W51501  15.116  18.770   2.092 -0.2768  0.2235 -0.0753
    1W        W51502   7.061  17.264   2.419  0.3709  0.0050 -0.1752
    1W        W51503   4.970  18.197   1.684  0.1707 -0.0096 -0.1409
    1W        W51504   8.789   6.889   3.253 -0.2550  0.1338  0.1297
    1W        W51505  12.451  18.849   8.894 -0.4105  0.0351 -0.0969
    1W        W51506   9.876   9.626   2.439 -0.0579  0.0498  0.0665
    1W        W51507  10.067  23.665   0.974 -0.0084  0.1932 -0.0341
    1W        W51508  28.321  20.428   8.759 -0.0214  0.1512  0.0003
    1W        W51509  21.596  26.481   2.442 -0.1980 -0.0097 -0.0860
    1W        W51510   3.203  10.796   0.629 -0.0146  0.0946  0.3434
    1W        W51511  13.175   5.942   0.977 -0.1314 -0.1196 -0.0075
    1W        W51512  11.133   9.184   8.446 -0.0593  0.2030 -0.1842
    1W        W51513  27.615  13.708   0.234 -0.2199 -0.2608  0.1140
    1W        W51514  12.370   3.267   8.033 -0.4016  0.0281  0.2168
    1W        W51515   4.459   6.537   8.406 -0.0435 -0.0724 -0.0266
    1W        W51516  14.737   6.263   3.649  0.0530  0.2338 -0.1341
    1W        W51517  25.110  23.553   0.074 -0.0320  0.0993  0.0173
    1W        W51518   3.760  16.580   6.019  0.1274 -0.0339 -0.1069
    1W        W51519   4.863   2.682   9.172  0.1392  0.0682  0.2892
    1W        W51520   4.206   9.216   6.378 -0.0934  0.0363  0.1773
    1W        W51521  19.801  14.409   6.952 -0.1702  0.0452 -0.1748
    1W        W51522  28.850  28.686   1.412 -0.0347  0.0880 -0.0941
    1W        W51523  26.531  16.947   6.994 -0.0932  0.0242  0.1919
    1W        W51524   1.251  11.068   0.639  0.3066 -0.0135  0.1065
    1W        W51525  16.207  21.218   1.756 -0.5131 -0.2147  0.2279
    1W        W51526   5.389  21.839   1.019  0.0157  0.1890 -0.0144
    1W        W51527  20.481  11.394   0.144 -0.2195 -0.0497 -0.2083
    1W        W51528   0.499   2.549   7.185  0.0208 -0.1525  0.2368
    1W        W51529  23.238   6.477   8.020  0.2060  0.0403 -0.1455
    1W        W51530  22.392  21.948   3.217  0.0262 -0.0965  0.3181
    1W        W51531  12.196   1.077   7.121 -0.0344  0.2857  0.2710
    1W        W51532  13.762  15.801   6.695  0.1085 -0.1073  0.0867
    1W        W51533  10.550   7.152   7.846 -0.0035 -0.0973  0.1309
    1W        W51534  25.593   2.316   6.996 -0.1467  0.0194 -0.0963
    1W        W51535  18.830  23.915   0.117  0.0572 -0.2547 -0.0635
    1W        W51536   5.231  28.759   6.950  0.1431 -0.0692 -0.4429
    1W        W51537  12.782  15.606   8.335  0.2607 -0.4433  0.5165
    1W        W51538  22.779  22.300   0.007  0.0351 -0.0579 -0.2367
    1W        W51539  20.087  16.713   8.621  0.0974 -0.0108  0.1997
    1W        W51540  13.863  20.825   7.034  0.2198  0.0186 -0.0132
    1W        W51541  19.444   2.337   6.668 -0.0802  0.5401  0.1758
    1W        W51542  20.504   6.696   2.601  0.2943 -0.1728  0.1430
    1W        W51543   0.981   3.543   3.048  0.1500 -0.1439  0.1990
    1W        W51544   0.142   2.153   3.257 -0.2283  0.0537 -0.2073
    1W        W51545  29.472  27.881   1.972 -0.0508  0.0967 -0.0813
    1W        W51546  18.075  20.009   3.068 -0.1742  0.2399  0.1742
    1W        W51547  22.917   7.024   7.066 -0.1112 -0.2028 -0.1654
    1W        W51548  22.536  19.856   7.355 -0.1000 -0.2184 -0.0227
    1W        W51549  20.220   5.447   0.412 -0.2996  0.3343  0.0830
    1W        W51550  25.574  27.668   7.699  0.0699  0.0519  0.0815
    1W        W51551  23.248  27.986   2.762 -0.0136 -0.1862  0.0170
    1W        W51552   5.453   2.458   1.193 -0.2001  0.1494 -0.2852
    1W        W51553  14.080  27.375   6.941 -0.4396 -0.0249 -0.4137
    1W        W51554  24.425  12.704   5.682 -0.0898  0.0494 -0.2004
    1W        W51555   0.265   2.595   0.437 -0.1387 -0.0431 -0.1480
    1W        W51556  23.949  20.801   2.147 -0.3500 -0.2513 -0.0758
    1W        W51557  24.312  20.519   1.353  0.2024 -0.0910 -0.2902
    1W        W51558  22.355  15.307   1.331  0.0586  0.1533  0.1050
    1W        W51559  21.455  13.408   6.646 -0.1145 -0.5129  0.0016
    1W        W51560   8.055   5.429   9.205 -0.1403  0.0323 -0.0145
    1W        W51561  12.367  25.400   2.234  0.1672 -0.2053 -0.0655
    1W        W51562  21.942  25.952   1.637  0.0716 -0.2141 -0.2983
    1W        W51563  25.663  16.075   9.005 -0.0999  0.2209 -0.2004
    1W        W51564   0.033  12.537   8.747 -0.2719  0.1923  0.2678
    1W        W51565   9.139  15.251   0.032  0.0427  0.0550 -0.1167
    1W        W51566  21.631  26.309   1.141  0.1417  0.0536 -0.1478
    1W        W51567   6.461  11.296   1.762 -0.0691 -0.1554  0.3203
    1W        W51568  13.467  12.930   1.432 -0.0111 -0.0525 -0.1943
    1W        W51569  16.784  25.187   3.380  0.0340 -0.0076  0.0926
    1W        W51570  27.996   0.548   7.996  0.0116  0.1953  0.1999
    1W        W51571  11.880   6.217   0.212 -0.2295 -0.1841  0.0141
    1W        W51572  27.973  19.711   7.009 -0.2103 -0.0709  0.0776
    1W        W51573   7.286  16.161   0.190 -0.0858  0.0393 -0.1955
    1W        W51574   9.487   5.828   8.444  0.0293 -0.0011 -0.2470
    1W        W51575   9.686  27.023   7.762  0.4512 -0.0258 -0.1331
    1W        W51576   4.712   1.976   0.059  0.0135 -0.2185 -0.0312
    1W        W51577   0.849   9.136   8.273  0.0660  0.1436 -0.1630
    1W        W51578  28.068  25.045   7.342  0.2850 -0.1883 -0.3169
    1W        W51579  24.193  26.038   8.798  0.3656  0.0191  0.2839
    1W        W51580  22.347  22.974   7.513 -0.2986 -0.3705 -0.1349
    1W        W51581  14.391  23.887   9.037  0.1054  0.0317  0.1958
    1W        W51582  23.282  11.038   0.706  0.1258 -0.4816 -0.2406
    1W        W51583  12.729   2.663   0.221  0.0727 -0.1304 -0.1288
    1W        W51584   5.235  26.354   1.097  0.0708 -0.1974  0.0169
    1W        W51585   3.728  21.569   0.572 -0.3940 -0.0449  0.0624
    1W        W51586  27.481   5.111   7.387 -0.2300  0.4192  0.3950
    1W        W51587  15.594  26.356   1.464  0.2192  0.2035 -0.5807
    1W        W51588  18.242   3.312   0.546  0.0686 -0.3139 -0.0841
    1W        W51589  23.968  23.044   0.973  0.0189  0.0533 -0.0740
    1W        W51590  14.706  16.577   1.458 -0.0254 -0.1366 -0.1379
    1W        W51591  17.282  10.245   1.088 -0.1404  0.2661 -0.0104
    1W        W51592  29.356   0.098   6.685  0.0176 -0.0901  0.1452
    1W        W51593  13.169   2.114   8.601 -0.1870  0.0293  0.1786
    1W        W51594  16.390   3.467   8.094  0.1038 -0.0982  0.2389
    1W        W51595  11.147   1.866   8.660 -0.1130  0.1115  0.0696
    1W        W51596  20.916  13.873   8.964 -0.0995  0.4405  0.0071
    1W        W51597   4.939   0.833   7.324 -0.1339  0.2452  0.2811
    1W        W51598  27.331   5.086   9.127 -0.1079 -0.0831 -0.1740
    1W        W51599   6.733  23.206   5.519 -0.1180 -0.1118 -0.0009
    1W        W51600   8.479   5.260   7.906  0.3278  0.1273 -0.2943
    1W        W51601  11.893  25.708   7.680  0.0958  0.3190  0.2405
    1W        W51602  25.736  11.703   1.598 -0.1246  0.1195  0.0838
    1W        W51603  13.885  24.463   8.517 -0.2453  0.0204 -0.1299
    1W        W51604   1.532  18.867   6.056 -0.1370  0.1670 -0.0851
    1W        W51605  29.708  22.237   1.101  0.1024  0.1038  0.2498
    1W        W51606   1.082  11.548   6.478 -0.2631  0.1389 -0.2476
    1W        W51607  12.193  14.419   0.772  0.0514  0.0303  0.0969
    1W        W51608   7.333  11.238   7.765  0.1565  0.2561  0.4160
    1W        W51609  29.647  24.005   2.413 -0.0164  0.0002 -0.1547
    1W        W51610  18.972  10.721   8.548 -0.0482  0.1834 -0.0350
    1W        W51611   0.030   8.443   1.081  0.1176  0.0584 -0.0137
    1W        W51612  11.373  25.228   5.898 -0.1785  0.4812 -0.0977
    1W        W51613   2.213  15.856   6.938  0.0654  0.1625  0.0413
    1W        W51614  26.289   8.849   1.214 -0.2383  0.0396 -0.1771
    1W        W51615   7.879  26.567   0.568  0.0408 -0.0670 -0.3197
    1W        W51616  17.684   4.381   2.498  0.0443  0.0962  0.0275
    1W        W51617  23.027  14.008   7.138 -0.2088 -0.1414 -0.0234
    1W        W51618   6.322  12.525   2.193  0.3187 -0.0882  0.2018
    1W        W51619   2.400  18.120   8.043  0.0406  0.0811 -0.0691
    1W        W51620   5.226  24.575   8.988  0.3717 -0.2095  0.0450
    1W        W51621  11.963  26.199   2.445  0.1209  0.2435 -0.0495
    1W        W51622   8.789  16.085   1.519 -0.1158 -0.1363 -0.0424
    1W        W51623  28.992  16.444   1.470 -0.0886  0.0768 -0.1045
    1W        W51624  28.556  22.419   1.303 -0.0932  0.2488 -0.2299
    1W        W51625  27.054  18.645   1.842 -0.0829 -0.3771 -0.0986
    1W        W51626   1.724   5.251   0.803 -0.1447  0.0268  0.2228
    1W        W51627  28.733  25.703   8.371 -0.2476 -0.1360 -0.0688
    1W        W51628   4.831   6.151   7.482  0.0192 -0.0813  0.3031
    1W        W51629  16.636  17.267   1.556  0.0467  0.1922 -0.1702
    1W        W51630  28.339  26.110   2.091  0.0379  0.1329  0.0425
    1W        W51631   4.803  21.822   7.211 -0.0899 -0.0450  0.1428
    1W        W51632  10.081  15.511   8.439 -0.0326  0.3702 -0.1397
    1W        W51633   5.647  12.020   0.211 -0.0700 -0.1497 -0.1723
    1W        W51634   2.903  21.026   2.626  0.0794  0.0793 -0.0041
    1W        W51635   9.744  14.182   8.056 -0.0748  0.0457  0.0215
    1W        W51636  14.212  12.959   7.277  0.1999  0.2711  0.0240
    1W        W51637   5.879  23.441   8.678  0.1210  0.3020 -0.0605
    1W        W51638  13.816  17.156   8.358  0.1696  0.0250  0.2663
    1W        W51639  29.521   1.360   2.061 -0.1626  0.1376 -0.0294
    1W        W51640   1.322  20.951   2.071  0.4696 -0.1161  0.1953
    1W        W51641   8.385  20.377   7.929  0.0464  0.1344 -0.2464
    1W        W51642  11.117   1.852   8.117  0.0611  0.1145  0.2229
    1W        W51643  19.686  29.025   2.750 -0.0294 -0.0449  0.1582
    1W        W51644  14.584   7.525   2.505 -0.1572  0.1395 -0.0708
    1W        W51645   3.300  24.740   6.234 -0.0027 -0.1135 -0.0968
    1W        W51646   9.073   8.697   2.120 -0.1533 -0.0295  0.0372
    1W        W51647   7.380  20.110   0.703  0.1277  0.0764 -0.2394
    1W        W51648   9.578  21.643   6.493 -0.1979  0.0925  0.0951
    1W        W51649  28.520  12.386   9.304 -0.2360 -0.1345  0.0529
    1W        W51650  13.940   1.977   2.483  0.0027 -0.1360 -0.1053
    1W        W51651   3.395   8.859   1.083 -0.2206 -0.1825  0.0296
    1W        W51652   5.630   4.362   8.447 -0.1538  0.5003  0.0105
    1W        W51653  13.362  26.298   0.253  0.1576  0.1627 -0.1168
    1W        W51654   7.700  24.879   9.223  0.2939  0.2880 -0.0945
    1W        W51655  17.309  25.738   2.775 -0.1399  0.0357 -0.0511
    1W        W51656  26.685  13.842   0.112  0.1542  0.2431 -0.0036
    1W        W51657  15.492  19.671   2.085 -0.0676 -0.1444 -0.1776
    1W        W51658  23.452  11.371   1.231 -0.4909 -0.2028  0.1125
    1W        W51659  15.556  21.003   1.359 -0.2165 -0.1667  0.0587
    1W        W51660  26.731  14.627   0.477 -0.3523 -0.0718 -0.1870
    1W        W51661  15.288  22.917   1.656  0.0621 -0.1468  0.4009
    1W        W51662  24.633  10.825   0.858  0.0470  0.1206  0.0045
    1W        W51663  12.657  22.507   6.800  0.1396  0.1399  0.0132
    1W        W51664   8.721  17.502   8.639 -0.0386  0.1715  0.0378
    1W        W51665   8.276   5.808   0.615  0.3067 -0.3005 -0.2578
    1W        W51666  10.276   1.840   6.642  0.1637 -0.0908  0.0189
    1W        W51667  13.982   3.945   2.051  0.0084 -0.1620  0.0344
    1W        W51668   3.917  12.804   8.041 -0.1950  0.0850 -0.3047
    1W        W51669   9.882  16.422   7.235 -0.0240 -0.1243 -0.0722
    1W        W51670   3.743  14.148   7.979 -0.0422  0.0616 -0.0645
    1W        W51671  10.973   3.081   0.777  0.0477  0.1951  0.1515
    1W        W51672   4.332  25.587   8.440  0.0103  0.2493  0.0313
    1W        W51673   9.893   8.762   8.724 -0.0100 -0.3172  0.0288
    1W        W51674   3.210  18.248   6.834  0.1017  0.1059 -0.3130
    1W        W51675   1.999  17.761   0.562  0.1855  0.1354 -0.1136
    1W        W51676  22.918   9.217   2.101 -0.0757  0.2445 -0.0810
    1W        W51677   7.856  19.943   7.959  0.1774 -0.2408 -0.1831
    1W        W51678   0.782  14.715   6.942  0.4703  0.4160 -0.1627
    1W        W51679   9.952   1.734   9.022  0.0386 -0.0180 -0.3243
    1W        W51680  12.706  16.874   8.760 -0.0071  0.1659 -0.3503
    1W        W51681  22.758  18.396   7.478  0.0113 -0.1038  0.2061
    1W        W51682   3.865  17.350   8.221 -0.0636 -0.2327  0.0203
    1W        W51683  14.771   4.294   6.900  0.2159  0.1814  0.0293
    1W        W51684  14.921  28.869   9.040  0.0733 -0.0243  0.2452
    1W        W51685  24.346   7.496   7.645 -0.0493  0.1837 -0.0002
    1W        W51686  28.999  20.945   7.295  0.0709 -0.1564 -0.1226
    1W        W51687  26.054   2.237   1.204 -0.1423 -0.0627 -0.1086
    1W        W51688  15.072  28.446   1.201 -0.3884  0.2518 -0.0824
    1W        W51689  16.426  20.333   9.349  0.1371  0.0784  0.1827
    1W        W51690  24.539   8.137   8.253 -0.1277  0.1543  0.1537
    1W        W51691   7.312   6.433   1.832  0.2431  0.0786 -0.0589
    1W        W51692  29.477  22.977   8.064 -0.0905 -0.3106  0.1980
    1W        W51693  24.966  23.309   5.947  0.1807  0.1245 -0.1318
    1W        W51694  27.507  22.742   9.439 -0.1749  0.1076  0.2365
    1W        W51695  19.026  16.318   6.785  0.0109  0.2273  0.3329
    1W        W51696  28.500  14.322   6.962  0.1639 -0.1913 -0.2284
    1W        W51697  16.844   6.179   1.655  0.0962  0.3781 -0.0137
    1W        W51698  13.471  25.584   8.069 -0.0665 -0.0314  0.1479
    1W        W51699   3.553  21.540   5.976  0.0508  0.2161  0.4382
    1W        W51700  27.619  28.899   6.443 -0.2049 -0.4314  0.1169
    1W        W51701  23.948   9.690   2.699  0.2140  0.0597 -0.1853
    1W        W51702  28.056  11.420   2.041 -0.0374 -0.1580  0.1082
    1W        W51703   7.739   5.814   8.973  0.5268 -0.2225 -0.2794
    1W        W51704  24.988  12.974   8.811 -0.2827  0.0024  0.0163
    1W        W51705  12.217   8.937   0.125  0.0760  0.1001  0.0536
    1W        W51706   4.689  11.019   0.106 -0.1439 -0.0397  0.0247
    1W        W51707  17.743   7.983   6.466  0.1146  0.2432  0.0545
    1W        W51708  20.730  18.755   9.447 -0.1478 -0.1001  0.0747
    1W        W51709   3.322   7.931   8.719  0.0149 -0.0326  0.1443
    1W        W51710  29.716   9.267   1.595 -0.0899 -0.1735 -0.0546
    1W        W51711  17.816  20.394   7.820 -0.2302 -0.1676  0.0716
    1W        W51712  23.128  22.476   1.420 -0.1194  0.2094  0.0042
    1W        W51713   2.562  15.751   5.880  0.1746  0.0169  0.0683
    1W        W51714  24.969  13.472   5.749 -0.1252  0.0503 -0.0596
    1W        W51715  11.377   5.699   2.315 -0.0694  0.2224 -0.0257
    1W        W51716  16.191   0.319   0.198 -0.0250  0.1661 -0.0332
    1W        W51717  22.114   3.166   1.715 -0.0016  0.1402  0.2382
    1W        W51718   4.965   8.907   2.740 -0.1383 -0.0543  0.1209
    1W        W51719  15.779   4.462   7.448 -0.2660 -0.1665 -0.0434
    1W        W51720  17.828  21.268   8.538  0.0023 -0.0586  0.2242
    1W        W51721  23.162  10.968   2.712 -0.2362  0.2404  0.3991
    1W        W51722   3.353  10.619   0.174  0.2725 -0.0465  0.0141
    1W        W51723  19.349   0.010   2.352  0.1253 -0.2544  0.0176
    1W        W51724  18.146   5.280   1.531 -0.1292  0.0116 -0.2545
    1W        W51725  14.657  22.629   8.659  0.1634  0.2201 -0.3472
    1W        W51726  15.876  10.052   1.661 -0.0879  0.2410 -0.1225
    1W        W51727   2.572   2.224   7.269  0.0340 -0.2540  0.0585
    1W        W51728  27.016  10.240   0.348  0.2069  0.0865  0.0851
    1W        W51729  28.711   6.468   2.943  0.3399 -0.2302  0.0235
    1W        W51730   5.882  17.373   0.229  0.1204  0.1127  0.0686
    1W        W51731  18.542  11.556   8.703 -0.0534  0.1674 -0.0644
    1W        W51732   9.464  21.529   0.581  0.0606  0.2032 -0.2593
    1W        W51733  28.556  23.439   0.915  0.1387 -0.1220  0.1001
    1W        W51734  27.863   0.866   8.876  0.2753 -0.2859  0.1272
    1W        W51735  27.704  10.249   7.645  0.4745 -0.1292  0.1034
    1W        W51736  22.996  14.123   8.104  0.3714  0.0853 -0.0664
    1W        W51737   4.965  26.583   1.839 -0.0226  0.2129 -0.3769
    1W        W51738   3.001   3.215   2.882 -0.5332 -0.1676  0.2911
    1W        W51739   3.732   8.673   1.464 -0.0731 -0.0683  0.4233
    1W        W51740  15.341  13.660   7.659 -0.0496 -0.2773 -0.0051
    1W        W51741  15.988   5.555   0.433 -0.0307  0.0209 -0.0601
    1W        W51742  27.521  11.673   9.155  0.0419  0.0219 -0.0594
    1W        W51743   6.277  15.074   0.849  0.2621  0.0831  0.1182
    1W        W51744   4.519  20.047   7.495 -0.1267 -0.0776 -0.0223
    1W        W51745  23.485   8.563   7.436  0.1131  0.1855  0.0396
    1W        W51746   2.303  12.234   6.092 -0.5900  0.1214  0.2184
    1W        W51747  10.006  16.935   9.155  0.1111  0.2149  0.1365
    1W        W51748  29.653   5.055   2.043  0.1438 -0.1853  0.0290
    1W        W51749   2.600  14.432   2.165 -0.3028  0.0280 -0.2728
    1W        W51750  29.128  14.081   1.681 -0.0843 -0.0179  0.0549
    1W        W51751   0.316   2.009   0.417  0.0129  0.0721 -0.1601
    1W        W51752   1.197  19.028   2.256 -0.1292  0.0834 -0.0394
    1W        W51753  23.936   1.110   3.048  0.1673  0.0518  0.2598
    1W        W51754  27.962  18.721   8.386  0.3508  0.1560  0.0979
    1W        W51755  12.626  21.423   1.093 -0.1557 -0.0489  0.1333
    1W        W51756  13.159  20.475   7.654 -0.0287  0.0065  0.1567
    1W        W51757  13.287  22.938   7.203 -0.2985 -0.3511 -0.0372
    1W        W51758  11.860   6.067   8.749  0.0017 -0.0797  0.0310
    1W        W51759  23.151  22.483   0.892  0.1471 -0.1108  0.2469
    1W        W51760   5.199   6.525   0.833  0.1973  0.2931  0.1684
    1W        W51761  18.948  18.427   1.589 -0.2107  0.1149  0.1313
    1W        W51762  17.096   0.760   2.372  0.1164  0.4917  0.1809
    1W        W51763   3.199   0.481   7.201 -0.1665 -0.2485 -0.1629
    1W        W51764  22.911  26.640   7.567  0.0178 -0.1745  0.3485
    1W        W51765  27.912  15.846   1.790 -0.3636 -0.0827  0.0134
    1W        W51766  25.978  13.242   1.776 -0.0519 -0.0568 -0.2081
    1W        W51767  16.848  18.358   8.224 -0.1376  0.0596  0.0868
    1W        W51768   2.587   7.037   0.437  0.3254 -0.2663  0.2894
    1W        W51769   2.479  11.319   6.278  0.0757  0.0552 -0.0529
    1W        W51770  23.224  10.828   9.060 -0.1585  0.1295  0.3527
    1W        W51771  16.458   5.659   8.535 -0.2614  0.0004  0.0081
    1W        W51772  15.100   5.208   6.305  0.3481 -0.1515 -0.1694
    1W        W51773   7.462  20.513   7.458  0.4140 -0.0046 -0.2033
    1W        W51774  12.993   2.162   6.829  0.1542  0.2476 -0.0261
    1W        W51775   1.089  28.945   6.964 -0.0389 -0.0197 -0.0909
    1W        W51776   0.498   7.723   7.211  0.0843  0.2156 -0.1515
    1W        W51777   7.331  21.347   8.832  0.0350  0.2634  0.0694
    1W        W51778  26.553   7.559   7.003 -0.0298  0.0143 -0.0675
    1W        W51779  24.263  21.454   9.253  0.0704  0.0434  0.0947
    1W        W51780  26.327  27.133   0.800 -0.2700 -0.3263 -0.1719
    1W        W51781   5.662   6.670   7.776 -0.1778  0.1945 -0.0662
    1W        W51782   8.684  12.756   0.826 -0.0600  0.0322 -0.1451
    1W        W51783   9.424   4.961   3.179  0.1056 -0.1378  0.0948
    1W        W51784  17.956  26.145   0.788 -0.1469 -0.1469  0.1725
    1W        W51785  12.970   6.359   2.497  0.3811  0.1109 -0.0135
    1W        W51786  22.041  18.420   2.215  0.0135 -0.0777 -0.1397
    1W        W51787  12.478   1.365   3.211  0.0345 -0.1542  0.4518
    1W        W51788   8.985  20.232   8.716 -0.2742  0.2513  0.0755
    1W        W51789   4.120  10.343   0.442  0.3346 -0.2571  0.2896
    1W        W51790  17.546  25.496   8.600 -0.2062 -0.0254 -0.1558
    1W        W51791   6.855  28.524   1.263  0.0113  0.2645 -0.1930
    1W        W51792   6.131   0.517   7.946 -0.3891 -0.0096 -0.1619
    1W        W51793  25.757  20.706   9.427 -0.0160 -0.4875  0.1194
    1W        W51794  19.699  27.720   9.252  0.1131 -0.2625  0.0244
    1W        W51795   8.470   3.602   1.608 -0.0212  0.0079 -0.0658
    1W        W51796   4.774  21.197   6.481 -0.1687  0.1535  0.2104
    1W        W51797  29.144   8.323   6.342  0.1807  0.2613  0.1545
    1W        W51798  19.924   5.755   7.271 -0.0215 -0.0449  0.1960
    1W        W51799  26.349  18.238   8.009 -0.0073  0.0136 -0.3987
    1W        W51800  19.323  26.158   3.374  0.0782 -0.2199  0.2223
    1W        W51801  28.368  13.351   0.033  0.2607  0.0832  0.0947
    1W        W51802  29.577   9.393   0.698  0.0456 -0.1166  0.0232
    1W        W51803  14.563  29.636   0.094  0.1118 -0.1611 -0.0505
    1W        W51804   6.375  18.035   1.735  0.2474  0.2073  0.1471
    1W        W51805  17.413  14.506   7.168 -0.3788  0.0333  0.1657
    1W        W51806  26.830   1.735   9.184 -0.2672 -0.2460  0.2549
    1W        W51807  15.922   9.785   6.904 -0.1875 -0.0776  0.1174
    1W        W51808  22.901  29.214   0.495 -0.2219  0.0986  0.1862
    1W        W51809   0.386  11.724   8.389 -0.2426  0.1714 -0.0402
    1W        W51810  26.714  26.830   2.144  0.3373  0.0950 -0.0365
    1W        W51811  25.122  23.938   1.986  0.1032  0.1257 -0.3578
    1W        W51812  19.456  17.544   1.075  0.1746 -0.0165 -0.1432
    1W        W51813  27.185  16.885   0.202  0.1946  0.0337 -0.0960
    1W        W51814   1.552  12.005   2.764 -0.0240 -0.0551  0.2251
    1W        W51815  24.076  22.955   7.649  0.1508 -0.0822 -0.1311
    1W        W51816  25.862  23.114   0.377  0.1984  0.0427 -0.0766
    1W        W51817  27.344  20.555   9.130 -0.2249  0.2082  0.1115
    1W        W51818  10.159   5.536   0.632 -0.1284 -0.1323 -0.0400
    1W        W51819  24.010  23.486   0.731  0.0588  0.0873  0.1428
    1W        W51820   1.710  24.500   7.939 -0.0454 -0.0689  0.1536
    1W        W51821   1.605  29.143   7.562  0.0392 -0.0926  0.0933
    1W        W51822  25.833   7.769   2.280  0.0980 -0.0648  0.0440
    1W        W51823   2.676  16.121   0.043  0.0316  0.0515 -0.0571
    1W        W51824   8.699   6.789   1.571 -0.2697  0.0459 -0.0062
    1W        W51825  27.329  21.012   1.054  0.1086 -0.0362 -0.1406
    1W        W51826   4.968  26.124   6.994 -0.0732  0.1172 -0.1757
    1W        W51827   8.177   1.035   8.580 -0.1171 -0.0782 -0.1837
    1W        W51828  29.443  20.874   8.811  0.2931  0.1933 -0.1642
    1W        W51829  20.905  25.320   1.513  0.2414 -0.0357 -0.0011
    1W        W51830  26.847   9.051   1.970  0.1344 -0.0579 -0.1135
    1W        W51831  22.641  21.390   7.790 -0.1073  0.1649  0.2182
    1W        W51832   2.850   6.538   8.679  0.2975 -0.0277  0.3283
    1W        W51833  20.016  23.502   7.279 -0.1062 -0.6124  0.0097
    1W        W51834   7.581  15.237   9.374 -0.3323 -0.1861  0.1405
    1W        W51835  13.249  12.834   1.866  0.1452  0.3094 -0.0826
    1W        W51836   5.428   1.461   7.999 -0.0289  0.3491 -0.0542
    1W        W51837   0.283  12.081   8.742 -0.2759 -0.1020  0.1849
    1W        W51838  23.995  15.358   9.226  0.0911 -0.0018  0.1325
    1W        W51839   3.244  12.880   2.028  0.0453 -0.0487 -0.0912
    1W        W51840  18.280   8.021   1.491 -0.2006 -0.0768  0.0875
    1W        W51841  11.777  27.768   7.905 -0.2080 -0.0856 -0.0916
    1W        W51842  15.832  22.825   1.511 -0.1441 -0.1201  0.3169
    1W        W51843  29.399  22.390   7.315 -0.0440 -0.1823  0.2687
    1W        W51844  12.547   4.591   7.643  0.0272 -0.0588  0.0909
    1W        W51845   0.624  26.790   2.188  0.1065  0.2752 -0.3496
    1W        W51846   6.349   4.760   2.191  0.1668  0.3383 -0.0477
    1W        W51847   2.777  25.933   1.289  0.2250 -0.0949  0.1739
    1W        W51848  21.239   2.369   1.135  0.0927 -0.1268 -0.0345
    1W        W51849  22.252  22.013   0.806  0.2300 -0.3204  0.2934
    1W        W51850  28.501   3.806   0.866  0.1905 -0.2791 -0.2226
    1W        W51851  18.477  27.361   8.569 -0.1827  0.2045 -0.1379
    1W        W51852  11.174  13.079   0.543  0.4193 -0.0978 -0.0117
    1W        W51853  12.661  20.919   9.060 -0.0708  0.1597 -0.0579
    1W        W51854   7.450  27.755   8.953  0.1301 -0.1463  0.3753
    1W        W51855  15.699  11.355   7.659  0.0301  0.3439  0.0364
    1W        W51856   8.718  25.410   1.769 -0.0316 -0.1673 -0.0346
    1W        W51857  28.123  12.360   6.653 -0.0075 -0.2590  0.0759
    1W        W51858  16.660   2.164   6.086  0.2294 -0.1981  0.1931
    1W        W51859  20.534  14.190   7.215 -0.0884  0.0319  0.0681
    1W        W51860  24.237  11.933   0.348 -0.0511  0.0967  0.1715
    1W        W51861   6.192  10.493   1.386  0.2855 -0.1565 -0.0933
    1W        W51862  17.818   4.329   7.776  0.2021 -0.0943  0.2075
    1W        W51863  22.943  12.722   0.279  0.0732 -0.1519 -0.0797
    1W        W51864  13.934  10.332   2.240  0.0017 -0.2269 -0.4101
    1W        W51865  25.527  20.037   0.646 -0.0753 -0.4082  0.5047
    1W        W51866  14.185  18.584   0.613  0.3940  0.1502 -0.1603
    1W        W51867   6.171   0.939   3.227 -0.0070 -0.1897  0.2744
    1W        W51868  22.892  27.046   0.953  0.1340  0.3418  0.3709
    1W        W51869  27.368   6.652   1.582  0.0600  0.1543  0.1330
    1W        W51870  23.201  16.251   6.824  0.1396  0.0060 -0.0566
    1W        W51871   8.955  29.518   1.669 -0.2266  0.0132 -0.0842
    1W        W51872  10.147  18.699   0.023 -0.1057  0.1831  0.2401
    1W        W51873  16.223   9.526   1.154 -0.1308  0.1733 -0.0888
    1W        W51874  17.930   6.963   0.911 -0.0187 -0.3608  0.0712
    1W        W51875  23.803  25.246   2.536 -0.1291 -0.0229 -0.0345
    1W        W51876  15.277   5.559   6.690  0.3809  0.0812  0.0072
    1W        W51877  12.104  10.749   9.198 -0.1103 -0.3188 -0.0882
    1W        W51878   5.030  13.502   7.620 -0.1950  0.1106  0.1536
    1W        W51879  26.911  28.309   8.911 -0.1142 -0.0269 -0.1006
    1W        W51880  17.440  23.537   6.962 -0.0197  0.2332 -0.0955
    1W        W51881  23.517   3.748   7.267 -0.0251 -0.0015 -0.0157
    1W        W51882   6.480  28.401   1.633 -0.2130 -0.0763  0.2189
    1W        W51883  10.789  16.605   7.423 -0.3601  0.2913  0.1154
    1W        W51884   5.132  25.376   2.308  0.2681  0.1486  0.1892
    1W        W51885  15.219  27.048   8.026  0.2938  0.1977  0.0458
    1W        W51886  14.633  10.727   1.807  0.2096 -0.0198 -0.2355
    1W        W51887  19.941  29.645   8.602  0.1223  0.0234 -0.0079
    1W        W51888   6.696   7.485   8.323 -0.2458 -0.1444 -0.0025
    1W        W51889  10.205  28.598   0.372  0.3650  0.3232 -0.0766
    1W        W51890  24.523   3.703   8.913 -0.2005  0.0472  0.1778
    1W        W51891   7.637  28.967   1.619  0.0681  0.1053 -0.1928
    1W        W51892  11.581   0.009   9.249  0.0907 -0.0959 -0.2524
    1W        W51893   6.591   8.800   7.171  0.0273  0.0967  0.3187
    1W        W51894   2.932  11.818   2.469  0.2853  0.2406  0.0908
    1W        W51895  15.584  26.675   2.861  0.0886  0.1177 -0.0894
    1W        W51896  15.571   0.579   0.934  0.1100  0.0600 -0.1549
    1W        W51897  20.420  29.271   3.645 -0.1513  0.1220  0.1194
    1W        W51898   0.941  15.259   2.218 -0.0753 -0.0647 -0.0168
    1W        W51899  21.277   9.598   8.955  0.2253 -0.0808  0.0651
    1W        W51900   1.612   9.167   2.209  0.2694 -0.1593 -0.0097
    1W        W51901  15.072  18.111   7.420 -0.2103  0.0112  0.1958
    1W        W51902  13.005  10.238   1.996 -0.3313  0.2041  0.0626
    1W        W51903  18.114  18.872   0.702 -0.1291 -0.1836  0.1379
    1W        W51904  13.903  21.687   6.198 -0.1622 -0.1693  0.1631
    1W        W51905   4.563  11.867   9.076  0.0787  0.0754  0.3697
    1W        W51906  12.297   5.625   1.067  0.3316  0.1164  0.2102
    1W        W51907  13.649   3.283   1.133  0.1243  0.1609  0.2251
    1W        W51908   9.862   3.112   9.031 -0.1367 -0.0994  0.0735
    1W        W51909  17.845   0.487   9.287  0.1886  0.0422 -0.2041
    1W        W51910   3.856  12.999   2.519  0.5657 -0.0664 -0.0918
    1W        W51911   5.496   9.427   1.837  0.2037 -0.0202 -0.0979
    1W        W51912   2.076  10.044   6.735  0.1429 -0.2118 -0.1753
    1W        W51913  25.992  15.132   8.933  0.1090  0.0658 -0.2633
    1W        W51914   2.265   2.823   0.207  0.4652  0.0234 -0.2428
    1W        W51915   9.770   3.625   8.995  0.0765  0.1352  0.1302
    1W        W51916   1.021  23.382   0.060  0.2470 -0.4580 -0.3339
    1W        W51917   5.723   5.801   1.740  0.0302 -0.0886  0.0718
    1W        W51918  24.717  20.898   0.976 -0.3201 -0.1197  0.3979
    1W        W51919  15.931  15.753   2.081  0.1031 -0.2190  0.3459
    1W        W51920  16.518  18.424   0.924  0.1046  0.1330 -0.1815
    1W        W51921  14.356  19.709   6.939  0.1105  0.1447  0.3295
    1W        W51922  24.879   6.909   1.742  0.1741  0.1968 -0.1108
    1W        W51923  23.976   9.883   0.461  0.2461  0.1503 -0.0504
    1W        W51924  18.047  12.138   7.625  0.0307  0.0999 -0.2202
    1W        W51925  16.104   3.381   0.244 -0.1812  0.2027 -0.0690
    1W        W51926   0.317   9.636   0.197 -0.1704 -0.1464  0.1399
    1W        W51927  16.108   0.306   7.493 -0.2033 -0.1603 -0.3221
    1W        W51928   1.151   1.474   1.511  0.2926 -0.1785 -0.0754
    1W        W51929   3.900  29.796   8.989 -0.0763 -0.1097 -0.0554
    1W        W51930   7.447   9.757   8.620  0.2232 -0.1218 -0.1468
    1W        W51931  24.551  22.194   2.687  0.2394 -0.0803 -0.0682
    1W        W51932   1.580  29.064   7.067  0.0234  0.0260  0.1797
    1W        W51933   1.117  14.131   0.964  0.1442  0.3018 -0.1311
    1W        W51934   6.713  23.262   2.839 -0.2955  0.0255  0.2294
    1W        W51935  22.558  12.802   9.419 -0.3309 -0.2230  0.0076
    1W        W51936  24.206   9.066   8.186 -0.1605 -0.1818 -0.1746
    1W        W51937   3.706  23.076   7.118  0.1882  0.1737 -0.1377
    1W        W51938  15.515  25.281   0.962 -0.4124 -0.1865 -0.0072
    1W        W51939   7.388  13.066   9.180 -0.3859  0.0365 -0.0524
    1W        W51940  12.570  10.089   6.701  0.1056 -0.0294  0.1125
    1W        W51941   3.328   3.923   3.388 -0.4052  0.0512 -0.0886
    1W        W51942  17.152  14.536   0.559 -0.0852  0.1382 -0.0992
    1W        W51943  21.700  17.184   7.022 -0.1982 -0.0058 -0.2166
    1W        W51944  20.614   1.586   1.592 -0.2208 -0.0742  0.0044
    1W        W51945   5.640   7.964   7.290  0.2458  0.0248  0.0416
    1W        W51946   3.796  15.974   8.924  0.0991  0.0473 -0.1873
    1W        W51947  20.318  28.447   2.078  0.1036  0.1781  0.0357
    1W        W51948  20.367  10.928   6.742 -0.0849  0.2031 -0.2883
    1W        W51949  16.266   2.730   1.195  0.0812  0.1775 -0.0362
    1W        W51950   3.992   1.233   1.654 -0.2237  0.3090 -0.0493
    1W        W51951  19.966   5.042   0.212 -0.4977 -0.1061  0.0356
    1W        W51952  17.500  15.602   0.830  0.0711  0.0473  0.3825
    1W        W51953   5.229  12.641   6.239  0.3630 -0.3406  0.0787
    1W        W51954  27.738  10.263   6.108 -0.1817 -0.0241 -0.0178
    1W        W51955  14.169   7.104   2.548 -0.0494 -0.5189  0.0710
    1W        W51956  21.975  19.335   0.150  0.0265 -0.1191  0.0396
    1W        W51957   6.591  22.326   8.027  0.3049  0.1731 -0.1134
    1W        W51958   3.474  11.291   0.414 -0.1130  0.0012  0.0086
    1W        W51959   7.072   1.708   0.986 -0.2949 -0.1684 -0.0472
    1W        W51960  22.803   1.497   7.318  0.1195  0.1534  0.1346
    1W        W51961  27.601   9.850   9.146 -0.2125  0.0684 -0.0515
    1W        W51962   4.124  14.680   7.341 -0.0367  0.1841 -0.1636
    1W        W51963  16.261  14.908   7.749 -0.1687 -0.1308  0.0792
    1W        W51964   5.402  22.650   7.476 -0.1662  0.1704  0.0423
    1W        W51965  10.812  12.194   0.298  0.0327 -0.2561 -0.0384
    1W        W51966  27.157  28.909   0.743  0.1114 -0.2502 -0.1613
    1W        W51967  24.322  22.065   7.463 -0.0151 -0.2190 -0.0917
    1W        W51968  18.568  24.682   3.945 -0.2253 -0.4555 -0.1003
    1W        W51969  13.751  29.742   9.277 -0.2252  0.4107  0.2175
    1W        W51970  21.050  13.097   6.711  0.0830  0.0294  0.3018
    1W        W51971   8.323  12.449   0.837  0.4077  0.1484 -0.0150
    1W        W51972   9.872  12.111   2.041 -0.0793  0.1334  0.0529
    1W        W51973   0.490  21.056   6.375  0.1911 -0.0988  0.0171
    1W        W51974  25.056   0.525   9.301 -0.0952 -0.1001 -0.1690
    1W        W51975  24.965  19.314   7.898  0.2173 -0.2545 -0.1243
    1W        W51976   6.868  28.396   7.409  0.3254  0.0283 -0.0423
    1W        W51977   6.799   6.616   3.434 -0.1234 -0.1240 -0.1868
    1W        W51978  13.604  13.420   1.240 -0.2160  0.1257 -0.0716
    1W        W51979   4.690  21.946   8.208  0.1915  0.1986  0.1630
    1W        W51980  19.360   6.351   8.521  0.0718 -0.2274  0.0705
    1W        W51981   1.242  13.792   0.558  0.0901  0.4924  0.0853
    1W        W51982  19.767   4.201   7.488 -0.1605 -0.1221 -0.2618
    1W        W51983  17.748  25.786   2.543 -0.3251 -0.0727  0.0689
    1W        W51984  19.265   4.520   7.085 -0.0670  0.1982  0.1203
    1W        W51985   1.143  21.337   5.771 -0.0306  0.0522 -0.6387
    1W        W51986   0.112  26.562   1.014 -0.0259  0.1750  0.2261
    1W        W51987  15.902   2.583   0.435  0.0579 -0.2315  0.3506
    1W        W51988  12.273  13.978   1.863  0.1479 -0.0364 -0.2879
    1W        W51989  26.477  13.687   6.362  0.3861  0.0817 -0.1586
    1W        W51990  29.436  15.145   1.962 -0.3153 -0.1280  0.4260
    1W        W51991   8.219  28.964   7.413 -0.3238  0.0322  0.0650
    1W        W51992  21.678  14.668   8.070  0.2436 -0.0373  0.0789
    1W        W51993  19.637  17.144   0.179  0.1877 -0.0582 -0.1543
    1W        W51994   4.126   0.743   6.619  0.0026 -0.0040 -0.1423
    1W        W51995  22.859  15.294   0.652  0.1835 -0.2891  0.1942
    1W        W51996  27.300   0.064   7.449  0.1434  0.0920  0.1012
    1W        W51997   8.919  11.922   8.582 -0.1053  0.1872 -0.2745
    1W        W51998  13.800  15.114   2.102 -0.1261  0.3152 -0.1270
    1W        W51999   1.062  29.730   7.893  0.4644 -0.0296 -0.1519
    1W        W52000  19.543  20.099   7.223 -0.2130  0.1091 -0.0984
    1W        W52001  26.294  24.347   2.414  0.1949  0.0712 -0.0009
    1W        W52002   0.036  16.201   7.762  0.1043  0.0617 -0.2242
    1W        W52003  28.011  25.137   7.823 -0.3685  0.0883 -0.1634
    1W        W52004   7.567  29.330   1.931 -0.0065  0.0078 -0.1220
    1W        W52005  20.998  27.977   3.395  0.2608 -0.1031  0.3309
    1W        W52006   2.013   1.425   6.962  0.0944 -0.0032  0.0905
    1W        W52007  27.024   2.499   2.238 -0.0547 -0.1496 -0.1191
    1W        W52008   6.545  29.121   8.378  0.0371  0.4065 -0.0837
    1W        W52009   3.136  21.116   5.799 -0.0091  0.1700  0.0859
    1W        W52010  20.704  27.667   2.358 -0.2438 -0.2178 -0.2117
    1W        W52011  21.665   3.891   7.041 -0.0251  0.1113 -0.0168
    1W        W52012   1.336  10.276   0.958  0.1153 -0.2002 -0.0743
    1W        W52013  12.515  28.345   7.404 -0.0107  0.2045 -0.3562
    1W        W52014  11.313   7.339   3.024  0.0343 -0.2844  0.0368
    1W        W52015  23.752   5.733   2.129 -0.5067  0.0646 -0.0300
    1W        W52016  28.061  14.254   9.078 -0.1816  0.0297  0.1633
    1W        W52017  14.899  24.295   2.507  0.2180 -0.1366 -0.0143
    1W        W52018  28.108  12.311   8.759 -0.0408  0.1812  0.1478
    1W        W52019  24.322   2.103   9.087  0.1222  0.0662 -0.0693
    1W        W52020  13.619   5.649   2.564  0.0895 -0.4570  0.0683
    1W        W52021   1.914  16.266   1.842 -0.2576  0.2369  0.3858
    1W        W52022   3.980  21.986   0.701  0.0290  0.0198 -0.3401
    1W        W52023   1.679  24.620   5.371 -0.4065  0.0114 -0.1800
    1W        W52024   8.061  15.423   1.119 -0.0535  0.2803  0.1089
    1W        W52025  13.309  22.607   1.745  0.2497  0.3041 -0.0316
    1W        W52026   2.794  11.836   8.197  0.3664 -0.0152 -0.1879
    1W        W52027   7.410  10.979   0.630  0.0096  0.2482 -0.1857
    1W        W52028   2.089  21.141   8.711 -0.0421  0.0712  0.3470
    1W        W52029   5.107  19.292   6.053 -0.1739  0.1838  0.1417
    1W        W52030  12.735   4.915   9.074  0.1987 -0.3318  0.3609
    1W        W52031  29.692   4.197   2.257 -0.0269  0.0257  0.1042
    1W        W52032  23.125  28.616   8.226 -0.1032  0.0429 -0.0314
    1W        W52033  14.945  23.195   1.969  0.2279  0.5292  0.0346
    1W        W52034   2.779  17.268   8.101  0.1830  0.1195 -0.0242
    1W        W52035   6.572  23.672   7.370 -0.4270 -0.2460 -0.1127
    1W        W52036   6.767   9.062   8.994  0.1489 -0.1267 -0.0130
    1W        W52037   7.923  16.618   9.416  0.2070  0.0478  0.0442
    1W        W52038  13.799  12.253   0.719 -0.0766  0.1785 -0.1113
    1W        W52039  20.687  29.613   9.034 -0.2979  0.0569 -0.2148
    1W        W52040  25.847  15.506   8.357  0.1360 -0.0392  0.0938
    1W        W52041  20.826  21.264   8.544 -0.0754 -0.0304 -0.1358
    1W        W52042  25.422   8.671   1.798 -0.2882  0.1385 -0.0628
    1W        W52043  19.139  25.243   1.556  0.2141 -0.1927  0.1115
    1W        W52044   2.161   1.695   1.090  0.2113  0.3379  0.0714
    1W        W52045  24.560   6.323   7.237  0.0964 -0.0505  0.0598
    1W        W52046   4.525   5.996   7.069  0.2829  0.2031  0.0872
    1W        W52047  13.942   4.249   0.654  0.3710 -0.0180 -0.3274
    1W        W52048  10.264  11.020   7.175 -0.1385  0.1924  0.0432
    1W        W52049   4.284  12.539   0.418  0.0154  0.0562  0.0798
    1W        W52050   8.078   4.487   8.954  0.2397  0.5116 -0.0445
    1W        W52051  13.458  27.687   2.408  0.2209 -0.0380  0.0718
    1W        W52052   1.198  22.710   1.378 -0.0136  0.0281  0.1809
    1W        W52053  29.405  27.493   1.382  0.0778  0.1059  0.1559
    1W        W52054   7.082  24.291   7.621  0.1547 -0.1104  0.0891
    1W        W52055   4.861   5.064   1.723  0.1126  0.0212 -0.4028
    1W        W52056  19.632  20.394   7.620 -0.1158  0.0892  0.0676
    1W        W52057  18.524  16.275   6.875 -0.1237 -0.1441 -0.0307
    1W        W52058   9.051  28.772   8.150 -0.0427 -0.3521 -0.1873
    1W        W52059  28.817  21.535   0.064 -0.0610 -0.0780  0.1503
    1W        W52060  16.808  12.612   1.026  0.0046 -0.2975 -0.0601
    1W        W52061  14.268  15.790   7.829  0.2537 -0.0237  0.0954
    1W        W52062   2.522  15.226   9.238  0.0201  0.2943  0.1696
    1W        W52063  26.348   7.350   3.223  0.0483 -0.0522  0.3968
    1W        W52064  20.157  14.428   7.366  0.0136  0.1399  0.4132
    1W        W52065  20.064   5.519   1.781  0.2424  0.0749  0.0791
    1W        W52066  26.567   5.033   1.357  0.0330 -0.0888  0.2614
    1W        W52067  18.475   0.164   7.104 -0.0442  0.1140 -0.2047
    1W        W52068   6.296   0.229   7.009  0.0044 -0.0922  0.0679
    1W        W52069   7.792  27.114   7.542  0.2678 -0.2286  0.0771
    1W        W52070  13.452  14.077   9.405  0.1055 -0.0369  0.0521
    1W        W52071   3.940  13.880   2.045 -0.2532 -0.6706  0.3461
    1W        W52072   3.036  25.735   1.646  0.0205  0.0703 -0.0592
    1W        W52073  13.735   5.866   2.119 -0.0831  0.3760 -0.0232
    1W        W52074  26.039  18.048   2.573  0.0486 -0.1765 -0.1538
    1W        W52075  12.029   2.779   8.858 -0.0160  0.0083  0.0944
    1W        W52076  25.632   6.649   1.267 -0.0472 -0.1114  0.0248
    1W        W52077  17.718  11.210   1.848  0.0536  0.2997 -0.1278
    1W        W52078  13.506  14.118   1.192 -0.1303 -0.2694  0.1920
    1W        W52079  24.197  12.756   8.271  0.0278  0.0863 -0.0882
    1W        W52080  17.579  17.575   1.311  0.1364  0.0943  0.0868
    1W        W52081  28.063   5.830   2.414 -0.4512 -0.0251  0.2224
    1W        W52082   4.525  23.867   0.211  0.1964 -0.2992  0.0012
    1W        W52083  25.754  23.181   8.171 -0.1048  0.2109  0.2936
    1W        W52084   1.615   0.380   6.851  0.2268  0.0325 -0.1221
    1W        W52085  20.963   1.045   8.061  0.0762 -0.0901 -0.1317
    1W        W52086   6.580   6.203   1.249 -0.1093  0.2395  0.2394
    1W        W52087  26.357  21.594   2.461 -0.5307 -0.0742 -0.0717
    1W        W52088   0.289  29.681   2.814  0.0299  0.0822  0.3076
    1W        W52089   3.793  13.901   6.177 -0.2877  0.0635  0.1586
    1W        W52090  10.991  13.840   6.268  0.0918  0.3282 -0.0944
    1W        W52091   1.404   7.915   1.999  0.3066  0.2510  0.0027
    1W        W52092  24.393   1.497   8.784  0.2837  0.1601 -0.0069
    1W        W52093  22.026  15.753   0.957 -0.1069  0.2660  0.1333
    1W        W52094  14.488  24.984   7.736  0.1674 -0.0007 -0.0242
    1W        W52095  17.364  16.328   7.014 -0.1153  0.2041  0.1781
    1W        W52096   5.375   4.411   9.272 -0.1984 -0.0382 -0.0118
    1W        W52097   9.239   9.569   2.389  0.1456  0.1438 -0.2511
    1W        W52098  29.545   0.676   6.626  0.2137 -0.0698 -0.1300
    1W        W52099  18.043  28.987   8.105  0.1634  0.2417 -0.0726
    1W        W52100  19.639  21.844   9.257 -0.0099 -0.2258 -0.0770
    1W        W52101  17.441   5.779   1.931 -0.1652 -0.2955 -0.0127
    1W        W52102  25.130  20.058   1.377 -0.0831  0.1286 -0.0393
    1W        W52103  28.361   7.671   8.403  0.0756  0.1829  0.2281
    1W        W52104  20.362  23.352   1.423  0.2856 -0.0360  0.1259
    1W        W52105  16.604  27.468   1.494 -0.0576 -0.0315  0.2759
    1W        W52106  20.320  10.384   9.015 -0.3384 -0.1457  0.3329
    1W        W52107  14.765  12.951   1.532 -0.3024  0.0962  0.1840
    1W        W52108  14.321  23.105   8.478 -0.0557  0.1554  0.2685
    1W        W52109  21.804  25.451   1.592  0.1391 -0.0245  0.1627
    1W        W52110  13.973   9.010   0.516  0.1336  0.1386 -0.1273
    1W        W52111  29.639   6.417   8.875  0.0058  0.0236  0.0506
    1W        W52112  19.114  14.445   8.283  0.2184  0.2387  0.1234
    1W        W52113  18.769  10.800   6.755 -0.1831 -0.0985 -0.0260
    1W        W52114   9.179  26.740   7.754  0.1348  0.1579 -0.0784
    1W        W52115  23.923  14.617   8.030  0.1328  0.3348 -0.0860
    1W        W52116   7.834  25.699   6.629  0.2272  0.0418 -0.2196
    1W        W52117  15.743  18.693   0.675 -0.1052 -0.2185  0.1947
    1W        W52118  10.590  12.293   7.999 -0.0473 -0.1196 -0.1207
    1W        W52119  23.457  20.418   8.944  0.0534  0.0694  0.0710
    1W        W52120  25.146  26.031   9.028  0.0090  0.3657  0.1277
    1W        W52121  20.260   4.657   7.153  0.3136 -0.1046 -0.1692
    1W        W52122   7.859   1.691   7.177  0.2589 -0.2002 -0.0219
    1W        W52123  13.176  11.546   2.006 -0.0582  0.1234 -0.1802
    1W        W52124   4.106   6.233   7.221  0.2602 -0.1628  0.0370
    1W        W52125  22.407  24.664   2.103 -0.3945 -0.1864  0.2745
    1W        W52126   6.978  16.143   7.289 -0.2586  0.0452 -0.1763
    1W        W52127  27.442   1.662   9.074 -0.1554  0.3204 -0.2237
    1W        W52128  16.949   0.349   0.956  0.3882  0.0432  0.1221
    1W        W52129  13.926   4.083   7.875 -0.2230 -0.0407  0.0300
    1W        W52130  15.263  18.158   9.463  0.1258  0.1072  0.2172
    1W        W52131  22.530  24.152   7.396  0.2724  0.0876 -0.1044
    1W        W52132  12.675  18.981   8.205 -0.2002  0.4176 -0.1928
    1W        W52133  26.421  13.872   0.853 -0.0465  0.2842  0.0529
    1W        W52134  17.542  22.445   7.176  0.0625 -0.1458  0.1210
    1W        W52135  16.176  12.353   1.757  0.0161  0.0457 -0.0807
    1W        W52136   9.411  25.817   7.115  0.1363 -0.0465  0.5762
    1W        W52137  21.472  24.204   2.209 -0.0072  0.0925 -0.0774
    1W        W52138  14.617   9.955   1.869 -0.2761  0.0944  0.0564
    1W        W52139  29.208   2.494   6.888 -0.0156  0.1209  0.0367
    1W        W52140  26.865  19.072   1.677  0.1646 -0.0983 -0.2636
    1W        W52141   2.445   6.427   0.456 -0.3585  0.0392  0.0329
    1W        W52142  28.190   2.988   7.954  0.1654 -0.5440  0.2222
    1W        W52143  21.602  17.589   9.105 -0.0298 -0.1177  0.4319
    1W        W52144   4.796  13.590   1.072  0.0073  0.2495  0.0657
    1W        W52145   1.193  28.992   2.151  0.1621  0.1957 -0.1712
    1W        W52146  11.845  21.907   0.631 -0.0799  0.1842  0.2796
    1W        W52147  25.183  15.757   0.514 -0.2553 -0.1310 -0.0410
    1W        W52148   7.661  28.850   9.250  0.0842  0.1772  0.0166
    1W        W52149  23.600   1.320   0.516  0.0351  0.1106 -0.0531
    1W        W52150   8.428  23.509   1.725  0.1182 -0.2073 -0.1090
    1W        W52151  11.520   0.035   0.414  0.2976  0.3149  0.0660
    1W        W52152   7.066  23.031   1.671  0.4545  0.0578  0.2044
    1W        W52153   4.760  23.791   7.871  0.0789 -0.1585  0.1586
    1W        W52154  17.079  27.388   6.707  0.0453 -0.3560  0.0818
    1W        W52155  26.248  23.898   0.100 -0.0182  0.1515  0.1354
    1W        W52156  14.376  29.064   9.053  0.2329  0.0863 -0.3191
    1W        W52157  13.550   6.250   1.243  0.1959 -0.4985  0.0869
    1W        W52158  27.537  17.350   0.241  0.2436  0.0842 -0.3097
    1W        W52159  11.376   7.255   9.072  0.0733 -0.3292 -0.2082
    1W        W52160  16.369  26.208   7.676 -0.3080  0.0620 -0.0562
    1W        W52161  28.338  21.198   8.090 -0.5731  0.1223 -0.0377
    1W        W52162  27.082  19.666   8.162  0.0368  0.1557  0.0527
    1W        W52163   5.823  14.237   0.590  0.1183 -0.4137 -0.0705
    1W        W52164   6.001  23.182   0.187 -0.3048 -0.0484 -0.1500
    1W        W52165  13.056  16.043   7.175  0.1442  0.2522  0.2093
    1W        W52166  25.912  16.774   0.365 -0.0356 -0.1992 -0.3040
    1W        W52167   2.255   9.783   9.074 -0.0159  0.0871 -0.2699
    1W        W52168   3.239  21.122   8.939 -0.1880  0.0418 -0.0241
    1W        W52169  18.860  27.122   1.013 -0.0857  0.1089 -0.0842
    1W        W52170  20.328  13.875   2.531 -0.2346  0.1623  0.0269
    1W        W52171  13.420  16.465   1.325  0.0582 -0.1577 -0.1981
    1W        W52172   9.417  27.424   1.516  0.1723 -0.4183 -0.0811
    1W        W52173  16.506   5.599   1.969  0.0106  0.0626  0.2342
    1W        W52174  27.852  26.525   0.567 -0.2592  0.0113  0.0513
    1W        W52175   9.613  17.396   8.013 -0.1462  0.0760  0.0634
    1W        W52176  17.649  14.662   7.986  0.1424 -0.0193  0.2295
    1W        W52177  17.516  11.265   7.575 -0.1606 -0.2110  0.0421
    1W        W52178  14.965  26.225   7.378  0.1574  0.1114  0.1774
    1W        W52179  22.817  29.737   6.835  0.1228 -0.0355  0.1282
    1W        W52180   8.225  20.516   8.468 -0.0120 -0.2414  0.1718
    1W        W52181   4.631  29.775   1.842  0.1591  0.1123 -0.4727
    1W        W52182  29.909  27.698   0.128 -0.0098  0.3863 -0.0358
    1W        W52183  28.532   4.258   1.595  0.2867 -0.1853  0.4183
    1W        W52184  28.693   2.477   6.749  0.2216  0.1423  0.2547
    1W        W52185  16.259  16.694   2.077  0.1246 -0.2246  0.0646
    1W        W52186  12.068   1.979   2.591  0.0854 -0.3409 -0.0933
    1W        W52187   6.472  21.681   0.501 -0.1467 -0.0221 -0.1174
    1W        W52188   4.416  23.610   6.923 -0.0495  0.2381  0.1388
    1W        W52189   9.279   4.695   2.768  0.1747 -0.2212  0.1319
    1W        W52190  15.695  22.764   8.551  0.0467 -0.0735 -0.0629
    1W        W52191  15.723  25.150   8.921 -0.1981  0.0752 -0.0955
    1W        W52192   4.591  25.109   0.154  0.0525  0.2261 -0.0769
    1W        W52193  13.003  20.318   0.120  0.0380  0.0231 -0.1891
    1W        W52194  13.334  12.075   7.688 -0.0834 -0.0930 -0.4376
    1W        W52195  24.351  18.172   6.364 -0.4501 -0.0800 -0.1937
    1W        W52196  15.711  13.744   8.137  0.3706 -0.0802  0.0940
    1W        W52197   3.253  16.751   7.971  0.1490 -0.1486 -0.0811
    1W        W52198   2.339  16.184   9.026 -0.0790  0.0242 -0.2617
    1W        W52199  10.587   8.630   7.772 -0.1168  0.0347 -0.0656
    1W        W52200  25.427   9.044   0.290  0.1276 -0.5030 -0.1552
    1W        W52201  25.128  19.651   0.969 -0.0946 -0.1575  0.0340
    1W        W52202   3.459   3.820   9.155  0.2031 -0.1168  0.0728
    1W        W52203  14.507   0.881   8.480 -0.0206  0.5056  0.2780
    1W        W52204  22.771  26.195   0.505 -0.1873 -0.1687 -0.0469
    1W        W52205   3.892  26.134   7.663  0.0996 -0.1233 -0.1792
    1W        W52206   3.959  25.813   8.694  0.0226  0.3411  0.1512
    1W        W52207   7.847  25.897   0.719 -0.1305 -0.3068 -0.0529
    1W        W52208  23.294  14.615   7.970  0.1329 -0.2832  0.0383
    1W        W52209  19.887  19.554   6.713 -0.0680 -0.3184 -0.3637
    1W        W52210  17.207  18.065   1.532  0.1856  0.2703 -0.0574
    1W        W52211   0.526  22.385   7.327 -0.0632 -0.2252 -0.4960
    1W        W52212  29.858   7.665   9.284  0.1390  0.1295 -0.1591
    1W        W52213  10.174  17.888   1.516  0.2154  0.0091 -0.1774
    1W        W52214  15.763  11.896   7.813 -0.1452 -0.0366  0.2331
    1W        W52215  12.901   3.974   0.739 -0.1486  0.0069 -0.0279
    1W        W52216   4.081   5.146   7.761 -0.0195  0.2261  0.2091
    1W        W52217  23.645  28.458   8.214 -0.4341  0.1469 -0.2648
    1W        W52218  24.593  14.734   8.493 -0.1895 -0.0988 -0.1642
    1W        W52219   8.964  10.834   0.703  0.2165 -0.0737 -0.0328
    1W        W52220  16.322  27.815   8.298  0.0908  0.2398 -0.0238
    1W        W52221  13.306   0.215   7.366  0.1481  0.0346  0.0033
    1W        W52222   1.373  15.504   6.879 -0.0846  0.1281 -0.1350
    1W        W52223  20.519  12.242   0.511 -0.2402  0.2039 -0.0728
    1W        W52224  20.201  27.412   9.218 -0.3514 -0.0675  0.1035
    1W        W52225   3.114  27.193   7.847 -0.0765 -0.1483  0.0102
    1W        W52226   8.437  26.404   7.137  0.0181 -0.3137 -0.1293
    1W        W52227   7.577   9.036   0.807  0.1138 -0.1180  0.1972
    1W        W52228   6.043  21.347   6.809 -0.1099 -0.1774 -0.2031
    1W        W52229  13.426   3.919   3.709  0.2456  0.1229  0.0003
    1W        W52230   2.493  24.096   8.148  0.0945 -0.0763 -0.0392
    1W        W52231   8.759  23.132   1.023 -0.2475 -0.0986 -0.1472
    1W        W52232  23.059  15.773   2.153  0.1747 -0.0177  0.0151
    1W        W52233  14.717   0.100   2.621  0.1637  0.1429  0.1919
    1W        W52234   9.363  27.048   1.893 -0.0549 -0.0679 -0.2092
    1W        W52235  27.541   7.732   2.280 -0.0918 -0.1974 -0.3152
    1W        W52236  20.758   7.496   8.948  0.0459  0.2483  0.2621
    1W        W52237   9.373  24.674   1.562 -0.3135  0.0910  0.1954
    1W        W52238  12.766  22.610   8.309  0.0132  0.3113  0.1070
    1W        W52239   4.089  23.860   0.472 -0.1333 -0.1028  0.0752
    1W        W52240  16.057   5.755   8.253 -0.2125  0.0507 -0.1771
    1W        W52241  28.856  12.388   7.362 -0.0479  0.0194 -0.3896
    1W        W52242  10.094  28.944   7.273 -0.0762 -0.0939 -0.0653
    1W        W52243   2.464  12.514   8.929 -0.0169 -0.0764 -0.0228
    1W        W52244   4.591  12.048   1.590 -0.3952 -0.1798 -0.0872
    1W        W52245  20.335  14.760   2.068 -0.1378  0.1055 -0.0586
    1W        W52246  10.354  24.312   7.342  0.1041  0.2833  0.0454
    1W        W52247  28.326  16.201   0.953  0.1665 -0.0254  0.1238
    1W        W52248  24.070  22.464   1.221  0.2273 -0.2490  0.1521
    1W        W52249  19.407  12.609   1.601 -0.1808 -0.1370 -0.1410
    1W        W52250  20.182  21.897   2.376 -0.1712  0.2741  0.0488
    1W        W52251  23.910  18.839   1.763 -0.0808  0.1823 -0.0827
    1W        W52252   3.428   8.832   7.931 -0.0287  0.1336  0.1586
    1W        W52253  21.809   7.757   8.689 -0.0186  0.3199 -0.0855
    1W        W52254  22.260   0.988   8.655  0.0087 -0.1492 -0.1905
    1W        W52255   3.385   1.305   0.339  0.2206 -0.2262  0.2515
    1W        W52256  29.751  22.872   1.308  0.0195 -0.3208 -0.2068
    1W        W52257   6.733   8.830   2.346 -0.0766  0.0816 -0.0375
    1W        W52258  20.451  26.711   7.437  0.4490  0.1362  0.3680
    1W        W52259   2.395  13.054   0.369 -0.2570  0.0294 -0.0208
    1W        W52260   3.049   7.899   9.137  0.1049 -0.1550 -0.2486
    1W        W52261   7.751   6.023   2.501  0.2053  0.1149 -0.0992
    1W        W52262  10.828  26.772   8.187  0.1300 -0.0834 -0.1099
    1W        W52263  19.590  11.637   9.201  0.2619  0.1248 -0.1138
    1W        W52264   9.516   2.301   7.506 -0.2143 -0.0515 -0.2647
    1W        W52265  13.433   2.159   0.020  0.1945 -0.0989 -0.0791
    1W        W52266  24.057  19.115   0.537  0.1143 -0.0702  0.0248
    1W        W52267  12.435  15.468   9.302  0.2580 -0.2464 -0.0908
    1W        W52268   8.186  23.858   1.500 -0.1841  0.0013 -0.1646
    1W        W52269  21.407  10.596   1.039 -0.0270  0.0463  0.1059
    1W        W52270  27.763  28.990   3.361  0.0402  0.2019  0.2420
    1W        W52271  22.174  20.304   0.065  0.1128 -0.0780 -0.0319
    1W        W52272  18.175   3.922   6.579  0.1183  0.1479 -0.0220
    1W        W52273  17.353  11.924   9.190  0.1481  0.1363 -0.1312
    1W        W52274   4.748  17.795   7.420  0.2297 -0.0044  0.2006
    1W        W52275  23.511  22.307   8.757  0.2774  0.3222  0.0450
    1W        W52276  19.976  23.021   1.319 -0.0315  0.0926 -0.0323
    1W        W52277   0.883   2.978   7.965 -0.1701 -0.1273 -0.2033
    1W        W52278   1.777   1.932   1.524 -0.1995  0.1586  0.0899
    1W        W52279  11.340   8.820   0.477  0.0078  0.0514  0.1143
    1W        W52280  27.677   3.822   3.057 -0.2980 -0.0051  0.3502
    1W        W52281   0.927  26.057   0.519  0.2579 -0.3003  0.1178
    1W        W52282   0.269  25.733   5.796 -0.1626 -0.0955 -0.1214
    1W        W52283  23.887   5.112   0.583  0.2125 -0.1691 -0.3436
    1W        W52284  14.635  28.322   0.413 -0.2475 -0.4927 -0.1630
    1W        W52285   4.653  23.628   2.263  0.1026  0.2274 -0.2067
    1W        W52286  21.156   5.256   7.981 -0.2112 -0.0895 -0.0160
    1W        W52287   8.738  26.232   0.553  0.2763 -0.0344 -0.0049
    1W        W52288  21.603  15.970   1.169 -0.3202 -0.1642  0.2379
    1W        W52289  11.507  11.457   8.294 -0.1782 -0.6207  0.0186
    1W        W52290   1.295  17.029   8.226  0.3805 -0.1448  0.2447
    1W        W52291   6.491   1.515   2.738 -0.0117  0.0208 -0.2224
    1W        W52292   5.928  29.131   1.402 -0.0849  0.2048 -0.2941
    1W        W52293  16.083  16.843   0.521 -0.1041  0.0569  0.2146
    1W        W52294  10.989  29.254   2.168 -0.0899 -0.1068 -0.0314
    1W        W52295   7.730   3.194   8.458 -0.1870  0.4131  0.2605
    1W        W52296   3.028  17.258   2.307 -0.2455  0.1555  0.0245
    1W        W52297   6.961  10.559   8.511  0.0831  0.1807  0.0621
    1W        W52298  10.916  22.204   1.197  0.3669 -0.0987  0.4619
    1W        W52299   0.309  18.947   6.542  0.0882 -0.0801  0.1408
    1W        W52300   9.273   7.216   7.643 -0.2525 -0.0363  0.0188
    1W        W52301   0.105  18.044   1.542 -0.0571  0.0176 -0.0379
    1W        W52302  25.062  13.988   1.647 -0.0397 -0.0257 -0.0553
    1W        W52303   8.654   2.704   7.934 -0.1461  0.0574  0.2145
    1W        W52304  22.374  16.509   6.587 -0.3342  0.2176  0.0361
    1W        W52305   8.658  10.405   1.468 -0.0036  0.0157 -0.1352
    1W        W52306   5.587  20.527   8.866 -0.2293 -0.1504  0.0998
    1W        W52307  25.167   6.777   8.905  0.0027  0.0869  0.0065
    1W        W52308  20.181  27.790   1.294  0.0990 -0.1477 -0.1494
    1W        W52309  25.163  29.895   3.204  0.2948  0.3218 -0.0841
    1W        W52310  27.097  17.636   7.522  0.0658 -0.1417 -0.0199
    1W        W52311   0.588  26.536   1.711  0.1960 -0.0589  0.3287
    1W        W52312  17.053  20.684   2.426  0.3051 -0.3337  0.0591
    1W        W52313   0.383  24.700   2.056  0.0170  0.2399 -0.1106
    1W        W52314  24.209  23.827   7.242 -0.1202 -0.3331 -0.1043
    1W        W52315   2.178  16.369   0.039  0.1177  0.1931  0.0465
    1W        W52316  15.012  19.137   8.704  0.3775 -0.0995  0.0560
    1W        W52317  10.015  26.256   8.389 -0.1734 -0.2260 -0.2822
    1W        W52318  14.278  24.244   1.606  0.1156 -0.0503  0.4027
    1W        W52319   0.713   5.403   1.469  0.3130  0.0553  0.3820
    1W        W52320  10.103  28.790   1.825  0.0684  0.2226  0.3120
    1W        W52321   8.067  28.877   0.083 -0.2117 -0.3298 -0.0997
    1W        W52322   7.986  21.990   6.824  0.3165 -0.0484  0.2317
    1W        W52323  10.816  28.697   2.371 -0.2716  0.1321 -0.1862
    1W        W52324  18.344  18.977   7.971 -0.3030  0.3581  0.1423
    1W        W52325  26.998  29.176   7.887 -0.1130  0.2856 -0.3453
    1W        W52326  26.866   2.667   6.879  0.0184 -0.2035  0.0210
    1W        W52327   3.356  28.118   1.387 -0.1383  0.0850  0.1126
    1W        W52328  13.139  18.830   7.078  0.2789 -0.0843 -0.3529
    1W        W52329  19.657  20.614   2.196 -0.1316  0.0869  0.1689
    1W        W52330   2.392  21.536   2.355  0.0492  0.0379 -0.2967
    1W        W52331   8.372   5.691   0.020  0.1575 -0.0495 -0.2377
    1W        W52332  24.579  21.416   1.751 -0.0111  0.0856  0.0276
    1W        W52333   8.944  22.027   6.986 -0.3299 -0.0023 -0.4142
    1W        W52334   5.339  16.521   8.611  0.2727 -0.1484 -0.3355
    1W        W52335   2.723   0.538   8.031  0.2733  0.0666  0.4009
    1W        W52336   0.798   8.055   8.911 -0.1528 -0.1918 -0.1129
    1W        W52337   9.567  14.563   1.210  0.0482 -0.0140  0.1528
    1W        W52338   5.903  18.284   2.718 -0.0230  0.2781  0.0237
    1W        W52339   1.719   7.402   6.535  0.0786  0.3646 -0.0584
    1W        W52340   5.472   7.666   1.996 -0.0094  0.0892 -0.5202
    1W        W52341   6.184   3.897   7.965  0.2206  0.2027 -0.0821
    1W        W52342  11.757   4.770   7.021  0.1058 -0.0533  0.0807
    1W        W52343  17.655  24.727   1.621  0.4463  0.0557 -0.0011
    1W        W52344  29.511  23.497   8.288  0.1285  0.0898 -0.2262
    1W        W52345  12.427  27.565   9.144  0.0881 -0.2503  0.0897
    1W        W52346  26.076  12.541   8.651 -0.1367  0.3058 -0.1399
    1W        W52347  12.075   7.259   0.839  0.0774  0.3744 -0.0721
    1W        W52348   2.111   0.705   9.109 -0.0586 -0.0603 -0.3777
    1W        W52349   0.831   0.895   1.696 -0.1396  0.0938  0.1237
    1W        W52350  14.132   1.972   1.188 -0.0987  0.2751  0.2182
    1W        W52351   2.280   1.699   1.560  0.2060  0.2936  0.0451
    1W        W52352  26.084  10.268   1.122  0.2794  0.0755  0.0129
    1W        W52353  17.066  25.553   1.865  0.0990  0.1957 -0.0043
    1W        W52354   1.997   6.656   2.139  0.2189 -0.0059  0.0814
    1W        W52355   1.008  16.095   1.513  0.1812  0.0575  0.0572
    1W        W52356   3.912  13.660   7.483  0.1938 -0.1372 -0.1357
    1W        W52357  27.763  10.915   9.463 -0.0853  0.1203 -0.1729
    1W        W52358  24.961  15.501   1.212  0.0143 -0.2290 -0.0186
    1W        W52359   9.836  19.966   8.098 -0.2340  0.1000  0.1282
    1W        W52360  27.786  19.153   1.283  0.0831 -0.1511  0.1552
    1W        W52361  26.954  28.807   1.696  0.0658 -0.3122 -0.1363
    1W        W52362   7.082  22.069   2.078 -0.0615 -0.1943  0.0903
    1W        W52363   2.776  20.491   8.891 -0.1047 -0.2931  0.1590
    1W        W52364  17.226  12.012   8.687 -0.0814 -0.4145 -0.0344
    1W        W52365  26.344  15.052   2.116 -0.3064 -0.2096 -0.2035
    1W        W52366  19.611  14.040   9.028  0.0535 -0.1584  0.0726
    1W        W52367  13.904  11.136   0.807 -0.1713 -0.1652  0.0638
    1W        W52368  12.854  29.872   8.147 -0.4747 -0.0703 -0.1119
    1W        W52369  24.298  24.469   8.789 -0.1370  0.1255  0.2567
    1W        W52370  14.814   8.887   0.571  0.1381  0.1014 -0.2487
    1W        W52371  27.657  29.886   8.410 -0.2737 -0.1879 -0.2204
    1W        W52372  15.656  15.078   9.308  0.0600  0.0511  0.1979
    1W        W52373   1.430  28.856   7.936 -0.2248 -0.0062 -0.3729
    1W        W52374   3.208  14.045   7.915 -0.1471  0.0931 -0.2813
    1W        W52375   4.478  11.319   2.043 -0.0479  0.0542  0.0844
    1W        W52376  29.138  11.083   1.641 -0.0125 -0.1357  0.0273
    1W        W52377   0.114  25.332   8.447  0.2525 -0.2123 -0.1392
    1W        W52378   8.738  21.833   8.645 -0.1968  0.1821 -0.0499
    1W        W52379   8.162   9.450   6.819  0.1321 -0.3984 -0.1028
    1W        W52380  29.008  17.845   7.928  0.0834 -0.2214 -0.2765
    1W        W52381  21.340   8.347   6.587 -0.1717 -0.2772 -0.1863
    1W        W52382  19.257  17.444   2.077  0.0073  0.1482  0.1434
    1W        W52383  27.983  19.198   8.172  0.2146  0.2123 -0.1013
    1W        W52384  24.668   5.025   2.148 -0.1118 -0.0730  0.1273
    1W        W52385  22.207   8.560   1.920 -0.0910 -0.1743  0.0434
    1W        W52386  29.422   1.201   0.792  0.0988  0.0405 -0.1323
    1W        W52387  15.976  20.223   0.051  0.0596 -0.0227  0.1755
    1W        W52388  27.830  11.183   7.870  0.2036 -0.2786  0.4035
    1W        W52389   0.615  27.534   1.471 -0.2125 -0.0439  0.0569
    1W        W52390   3.203  26.372   0.248 -0.0020  0.0442  0.0249
    1W        W52391   3.995  22.275   1.229  0.0873  0.0749  0.0308
    1W        W52392  21.860  11.507   0.031 -0.2072 -0.1541 -0.0009
    1W        W52393  21.138  29.352   1.041  0.1417 -0.2464  0.0130
    1W        W52394   5.987   3.067   2.780 -0.0288  0.2292  0.0180
    1W        W52395  15.298  16.367   7.695 -0.1005  0.3510 -0.0631
    1W        W52396  26.030  14.867   9.444 -0.1385  0.3671  0.1448
    1W        W52397  22.930   5.604   7.889  0.1222  0.0260 -0.2154
    1W        W52398   3.721   5.284   7.490 -0.0044 -0.1224 -0.1179
    1W        W52399  14.354  28.811   1.691  0.0938 -0.2361  0.0916
    1W        W52400  22.053   6.072   3.040  0.0033 -0.1447 -0.0179
    1W        W52401   9.493   0.116   2.426  0.1019  0.1242 -0.1403
    1W        W52402  26.684  17.520   8.997 -0.0262 -0.2784  0.2133
    1W        W52403  21.588   1.988   9.324 -0.0569  0.2402 -0.1290
    1W        W52404  27.152  24.998   7.897  0.0058  0.1710 -0.0814
    1W        W52405   5.788   5.490   7.756 -0.0936 -0.0398  0.1597
    1W        W52406  28.787   0.990   1.505 -0.1098  0.0820  0.0714
    1W        W52407  10.452  29.355   2.267 -0.3265  0.1952 -0.2157
    1W        W52408  10.970  21.856   9.198 -0.0027 -0.1288 -0.1919
    1W        W52409   4.176   2.581   1.702 -0.0522  0.2191  0.0542
    1W        W52410  15.442   3.430   1.738  0.0972  0.0209 -0.1353
    1W        W52411  15.205  13.789   7.183  0.0875  0.0701  0.1615
    1W        W52412  13.914  11.163   1.715 -0.3346 -0.0583  0.2788
    1W        W52413  22.189  10.733   1.895  0.0216 -0.1744 -0.0462
    1W        W52414  12.146  13.384   7.782 -0.0204  0.0828 -0.0586
    1W        W52415  16.650  23.039   7.528  0.0527 -0.0346 -0.1370
    1W        W52416  18.492   1.429   6.810 -0.0333 -0.2169 -0.3050
    1W        W52417   4.268  24.821   1.877  0.1643 -0.1558 -0.0210
    1W        W52418  26.031  14.410   6.423 -0.0302  0.0221  0.1196
    1W        W52419  17.930  10.662   9.429 -0.2153  0.2521 -0.0856
    1W        W52420  27.368   5.401   1.513  0.1563 -0.0667 -0.0676
    1W        W52421  19.568   3.729   7.579 -0.2415 -0.1416 -0.1861
    1W        W52422  26.643   2.061   2.644 -0.1802 -0.0019  0.3784
    1W        W52423  29.407  24.560   1.741  0.1909  0.3156 -0.1878
    1W        W52424   0.037  16.532   1.798  0.0585 -0.3791 -0.2742
    1W        W52425  11.096   6.680   8.133  0.1692  0.6537 -0.1724
    1W        W52426  27.431  14.935   8.671  0.4388  0.1604  0.1389
    1W        W52427   9.171   0.882   9.138 -0.1414 -0.0482  0.1140
    1W        W52428  11.061   4.420   1.077 -0.1383 -0.0537 -0.1429
    1W        W52429  17.650  26.704   7.728  0.2059 -0.0151 -0.0002
    1W        W52430  17.690  12.431   8.384 -0.1034  0.0412  0.0654
    1W        W52431   6.616  15.895   6.609 -0.0561  0.2423 -0.1969
    1W        W52432  26.776  25.614   0.285  0.1620  0.1528 -0.3183
    1W        W52433  14.343  17.060   0.733 -0.2205 -0.0969 -0.0448
    1W        W52434  16.714  26.034   1.075 -0.2643 -0.0777  0.3072
    1W        W52435   0.444  15.760   8.384 -0.1321  0.1671 -0.1479
    1W        W52436  25.737  24.923   2.353  0.2450  0.0364  0.1467
    1W        W52437  17.325  12.358   0.209 -0.1522  0.0813  0.0760
    1W        W52438   2.356  28.329   8.334 -0.2580  0.1051 -0.1524
    1W        W52439   2.974  19.555   6.963 -0.1199 -0.1072 -0.0296
    1W        W52440   2.455  26.576   0.429 -0.0462 -0.0775  0.1612
    1W        W52441  15.347  26.297   2.661  0.0700 -0.5547  0.0092
    1W        W52442  27.145  25.226   8.891  0.1378  0.4754 -0.2728
    1W        W52443  15.213   0.713   2.901 -0.0310 -0.2247 -0.1285
    1W        W52444  29.677  29.132   7.557 -0.3655 -0.2251  0.0628
    1W        W52445   3.392  23.805   7.937 -0.0097 -0.0558  0.0457
    1W        W52446  26.927   9.742   1.182 -0.1920  0.1599  0.1303
    1W        W52447   4.365  11.647   7.120  0.0178 -0.0787  0.0240
    1W        W52448   7.746  13.122   7.743 -0.2127 -0.0920 -0.1221
    1W        W52449  19.514   5.606   8.329  0.0624  0.1092 -0.1189
    1W        W52450  20.807  13.402   0.209  0.2797  0.0407 -0.0086
    1W        W52451   1.816  23.055   0.825  0.1223  0.1517  0.2158
    1W        W52452   6.041  17.089   7.625  0.0420 -0.2626  0.0067
    1W        W52453   6.309  29.554   8.318 -0.2226  0.0244  0.0492
    1W        W52454  29.650  20.025   8.796 -0.0195  0.4956  0.1709
    1W        W52455   8.756  18.655   7.837 -0.0505  0.1966  0.0672
    1W        W52456   9.433  21.709   9.398  0.0036  0.2173  0.1322
    1W        W52457   7.613   7.977   2.682  0.1791  0.1633 -0.0367
    1W        W52458  10.330  24.432   1.722 -0.0318 -0.0424 -0.0395
    1W        W52459   5.424   8.600   2.203 -0.1206 -0.1426  0.0108
    1W        W52460  23.076  26.419   0.142  0.0837  0.1092  0.1860
    1W        W52461  15.916  25.346   9.414  0.0765 -0.0181  0.0055
    1W        W52462  13.590  21.133   0.239 -0.0251  0.0257  0.3369
    1W        W52463  26.200  21.025   7.848 -0.2322 -0.0459  0.1353
    1W        W52464  19.712  13.362   2.069  0.1216 -0.0235  0.1218
    1W        W52465  15.951   2.352   7.273 -0.1699  0.1596  0.1516
    1W        W52466  27.605   3.527   8.189 -0.0259 -0.0295 -0.0807
    1W        W52467  18.719   4.449   1.525  0.1188  0.2093 -0.0424
    1W        W52468  21.616  22.853   2.324 -0.2261  0.0621 -0.1010
    1W        W52469  11.846  16.196   6.814  0.2184 -0.1781 -0.0532
    1W        W52470   9.277   1.902   0.026 -0.6154  0.1487 -0.1113
    1W        W52471  25.521   1.348   8.817  0.0878  0.0841 -0.0081
    1W        W52472   1.446   9.734   7.210 -0.2628 -0.3057 -0.1366
    1W        W52473  26.897   1.939   2.280  0.2683 -0.1657 -0.2576
    1W        W52474  20.197   2.111   1.920  0.1550 -0.2092 -0.2719
    1W        W52475  26.405  18.423   0.634 -0.1593  0.0935 -0.1473
    1W        W52476  21.733   4.023   0.375 -0.0056 -0.4571  0.2622
    1W        W52477   1.847  19.748   9.196  0.0027  0.2097 -0.2869
    1W        W52478   0.245  14.632   8.277  0.1433 -0.2787 -0.0723
    1W        W52479  27.900   2.104   9.167  0.2940  0.2916 -0.0354
    1W        W52480  15.021  14.537   2.159  0.0005  0.0107 -0.0623
    1W        W52481   6.069  13.746   9.066 -0.0865 -0.0649 -0.0226
    1W        W52482  23.349   2.690   1.726 -0.0865 -0.0862  0.3917
    1W        W52483  29.109  25.825   7.220  0.3714  0.2615  0.2286
    1W        W52484  15.910   4.393   9.204  0.1337  0.0122 -0.0469
    1W        W52485  16.697  29.404   7.842 -0.2863  0.2128 -0.1528
    1W        W52486   0.060   0.330   1.569  0.0366  0.4802 -0.2439
    1W        W52487   9.004  19.878   8.361 -0.2051  0.5699 -0.1574
    1W        W52488  25.512   8.505   1.228  0.3204 -0.2537  0.2367
    1W        W52489  12.345   8.006   7.701 -0.0384 -0.0464 -0.1209
    1W        W52490  27.005  28.426   7.102  0.1926  0.1165 -0.1532
    1W        W52491  25.320  23.967   1.288 -0.1773 -0.3480  0.1779
    1W        W52492   7.588  27.099   2.145  0.0294 -0.2236 -0.1306
    1W        W52493  19.737  18.645   2.512 -0.1916 -0.0973 -0.0341
    1W        W52494   6.128  25.316   1.342 -0.0726  0.2247 -0.4240
    1W        W52495  21.858  24.601   0.533 -0.0877  0.0311  0.1776
    1W        W52496  20.789  13.563   2.465 -0.1576  0.1676 -0.0019
    1W        W52497  17.682  29.000   3.090  0.2016 -0.0325  0.1038
    1W        W52498   4.995  14.975   7.303  0.1107  0.0883 -0.0428
    1W        W52499   7.766  21.630   8.732  0.0087  0.2871 -0.0214
    1W        W52500  10.598  16.020   7.332  0.2524  0.0189 -0.2407
    1W        W52501   3.560  25.708   1.602 -0.0691  0.0626  0.2913
    1W        W52502  19.023   6.960   6.351  0.0424 -0.0496  0.1110
    1W        W52503   8.437  28.053   1.639 -0.2430 -0.0954  0.1978
    1W        W52504  14.202  15.001   1.808  0.0194  0.1211 -0.3065
    1W        W52505  24.629  22.815   1.672 -0.1178 -0.3135 -0.0515
    1W        W52506   5.120  11.930   1.337  0.2794  0.0954  0.1034
    1W        W52507   8.123  24.145   0.678 -0.1206 -0.1557 -0.0551
    1W        W52508  13.365  20.081   8.762  0.1810  0.1302  0.0385
    1W        W52509  26.340  21.109   6.829  0.0681  0.1975 -0.1398
    1W        W52510  26.612   8.745   8.087  0.2997 -0.1179  0.0653
    1W        W52511   4.614  17.569   9.051 -0.0381 -0.1379  0.2454
    1W        W52512  28.390  23.392   8.665  0.2598  0.2810  0.2838
    1W        W52513   7.485   2.479   8.331  0.0721  0.2857  0.0627
    1W        W52514  27.863  27.048   8.890  0.1743  0.4053  0.0714
    1W        W52515  26.516  11.422   8.653 -0.0678 -0.4053 -0.1660
    1W        W52516  23.402   0.081   2.106 -0.0882 -0.2235 -0.1247
    1W        W52517   0.189   8.207   0.540 -0.1298  0.1720  0.0108
    1W        W52518  15.121  17.379   1.086 -0.1089  0.3238  0.2739
    1W        W52519  16.409  28.941   1.174 -0.0070 -0.0019  0.0926
    1W        W52520  20.151  15.267   0.677 -0.2393  0.2670 -0.1759
    1W        W52521  12.989  10.353   1.274 -0.0899  0.1282 -0.1930
    1W        W52522   3.057  22.749   7.676 -0.1360 -0.0089 -0.0817
    1W        W52523   0.204  26.558   8.382 -0.1066  0.0292 -0.4099
    1W        W52524  24.227  10.766   7.968 -0.0214  0.1492  0.0743
    1W        W52525   2.081   7.631   1.302 -0.2822  0.1827 -0.1167
    1W        W52526  25.557   7.626   1.372  0.0044 -0.0367 -0.0080
    1W        W52527  13.181   2.439   2.291 -0.1926  0.2762  0.0337
    1W        W52528  22.870   0.617   2.821  0.2719  0.1823 -0.0627
    1W        W52529   0.102  26.718   7.909  0.1361 -0.1759  0.1683
    1W        W52530  29.595   0.379   1.951  0.1413 -0.2194 -0.1164
    1W        W52531  24.648  19.111   2.275 -0.0962 -0.0890  0.0253
    1W        W52532  19.849  17.306   8.351 -0.1535  0.2209 -0.1115
    1W        W52533  21.795  13.451   6.245 -0.0650  0.0741 -0.3227
    1W        W52534  18.167   8.092   9.429  0.0665 -0.0034 -0.1147
    1W        W52535  11.181   0.115   3.467  0.0041 -0.0059 -0.2370
    1W        W52536  25.924  11.625   7.365 -0.0543 -0.0255 -0.2929
    1W        W52537  26.638   0.086   8.279  0.0407  0.1360 -0.1702
    1W        W52538   3.920   8.299   0.016 -0.5211 -0.0388 -0.2403
    1W        W52539   1.374  15.253   8.403  0.0308 -0.1325  0.1460
    1W        W52540  23.063  10.265   2.038 -0.1019 -0.1736  0.0496
    1W        W52541  24.695  27.256   0.136 -0.2314  0.1855  0.0334
    1W        W52542   7.826  19.356   8.631 -0.2038 -0.0513  0.1144
    1W        W52543   0.696  23.561   8.057 -0.3523 -0.0377  0.2220
    1W        W52544  23.447  24.292   2.618  0.2299 -0.2082 -0.2097
    1W        W52545   4.150  15.917   2.089  0.1770  0.0792  0.1860
    1W        W52546  11.405  25.122   8.974  0.0379  0.3562 -0.1953
    1W        W52547  26.643  20.866   0.549  0.4173  0.0506  0.1963
    1W        W52548  26.907  15.227   6.159 -0.2074  0.1751 -0.2216
    1W        W52549  11.707  24.976   0.987  0.1687 -0.0526  0.0088
    1W        W52550  18.834  25.537   8.786 -0.1158  0.1131  0.1889
    1W        W52551  19.477  29.416   7.716 -0.0794  0.2789  0.3188
    1W        W52552   2.808  24.794   9.112  0.1377 -0.3273 -0.0464
    1W        W52553  24.205  20.274   2.455  0.3935 -0.0403 -0.0292
    1W        W52554   5.039   8.910   1.111 -0.0583  0.1689 -0.3241
    1W        W52555   0.043  19.157   0.540  0.1970 -0.0270 -0.1080
    1W        W52556  24.694  29.553   2.367 -0.1982 -0.2114 -0.0174
    1W        W52557   0.281  23.389   7.190 -0.0209  0.0425  0.1225
    1W        W52558  24.756   9.926   8.313 -0.1686 -0.3356  0.2671
    1W        W52559  15.562   2.038   9.219 -0.1278  0.0123 -0.2622
    1W        W52560  21.951   9.754   3.039 -0.0812  0.3044 -0.2969
    1W        W52561  11.327  20.076   2.234 -0.0574 -0.1553 -0.0293
    1W        W52562   1.021  15.442   0.482 -0.2564  0.1331  0.1393
    1W        W52563   6.916   0.194   7.811 -0.5020  0.1997 -0.1113
    1W        W52564  16.955  24.177   1.407 -0.1068  0.0909 -0.0767
    1W        W52565  11.327  15.954   0.046 -0.1965  0.2144  0.0314
    1W        W52566   3.973  13.637   1.622 -0.0931  0.0933 -0.1237
    1W        W52567   2.748  20.986   1.624  0.2305 -0.3028 -0.1274
    1W        W52568  17.502  28.976   1.146  0.0043 -0.3893 -0.1504
    1W        W52569  16.374  26.905   8.270  0.1248 -0.1058  0.0793
    1W        W52570  26.782  27.879   2.334  0.0393 -0.1517  0.1657
    1W        W52571  10.958  23.607   0.394  0.1599  0.3782  0.0261
    1W        W52572  19.852   3.769   6.706  0.1044  0.1261 -0.0302
    1W        W52573   7.825  15.091   1.815  0.1824 -0.2733 -0.3132
    1W        W52574   5.810  21.184   6.435  0.0620 -0.0554  0.0395
    1W        W52575  15.319   1.238   2.753  0.0770 -0.2626 -0.0357
    1W        W52576  18.195  15.765   8.459  0.5025 -0.2148 -0.1285
    1W        W52577  23.531   4.442   2.786 -0.0233 -0.0911 -0.1402
    1W        W52578   0.196  24.764   6.269  0.1047  0.1843  0.2064
    1W        W52579  26.170  27.347   0.385  0.2312  0.0849 -0.1285
    1W        W52580  29.152   0.469   1.113  0.1125 -0.0643 -0.1678
    1W        W52581   3.279  19.971   9.113 -0.2067  0.3513  0.3501
    1W        W52582  26.810  14.052   7.773 -0.3067  0.1812 -0.4181
    1W        W52583  20.703  22.356   0.831 -0.1111  0.1611 -0.0553
    1W        W52584  16.203   8.477   2.483 -0.0541  0.6281 -0.2789
    1W        W52585   7.050  21.324   6.985 -0.0805 -0.1164  0.2182
    1W        W52586  14.285  11.088   8.621 -0.1642  0.0940 -0.1329
    1W        W52587   0.002  20.984   8.960 -0.1861 -0.2646  0.1552
    1W        W52588  10.341  27.464   1.250 -0.1906 -0.2389  0.4479
    1W        W52589  20.285   0.488   7.760 -0.1996 -0.0522 -0.0843
    1W        W52590  24.541  17.895   7.355 -0.1091  0.0189  0.1769
    1W        W52591  27.921  24.959   2.327  0.0848 -0.1627 -0.2268
    1W        W52592  29.102  15.619   7.168  0.0823 -0.2338  0.1105
    1W        W52593  21.830  11.522   6.691  0.0624  0.0108 -0.0281
    1W        W52594  14.964   7.826   2.314  0.1089 -0.0944 -0.2801
    1W        W52595  24.594  11.256   0.445 -0.0497  0.0812  0.1478
    1W        W52596  16.153   2.366   2.226  0.0454  0.0946  0.1933
    1W        W52597  17.887   6.711   9.254  0.3160 -0.1286  0.1200
    1W        W52598   7.677  17.992   6.977  0.2323 -0.0705  0.2597
    1W        W52599  17.714   7.656   1.486 -0.0418 -0.0495  0.1840
    1W        W52600   8.980  14.895   9.201 -0.0913  0.1760  0.1589
    1W        W52601  13.215  24.661   0.524 -0.3434  0.1496  0.0585
    1W        W52602  28.486  10.416   8.993 -0.2274  0.0170 -0.0495
    1W        W52603  12.755  18.392   8.815 -0.0996  0.0554  0.1324
    1W        W52604   3.629   7.443   1.621  0.0725 -0.1167 -0.0716
    1W        W52605  14.530  15.509   8.563 -0.0722  0.1437  0.3103
    1W        W52606  10.001   7.198   3.366  0.0517 -0.4272  0.0548
    1W        W52607   2.192   6.539   6.851  0.0644 -0.2753  0.2013
    1W        W52608  13.823  11.466   2.081  0.0966 -0.0929  0.1476
    1W        W52609  20.728  25.593   9.021  0.1284  0.0232 -0.2400
    1W        W52610  13.920  24.723   2.473 -0.0184  0.0539 -0.0247
    1W        W52611   5.708  13.051   6.953 -0.3463 -0.0122 -0.2294
    1W        W52612  21.267  20.538   0.039  0.2758 -0.0952 -0.1558
    1W        W52613  18.610  18.361   1.973  0.2395 -0.0212 -0.1365
    1W        W52614  10.822   4.769   9.413 -0.2948  0.0791  0.0016
    1W        W52615  22.449  10.493   7.822 -0.0320  0.3687  0.1653
    1W        W52616   7.072  15.442   5.567  0.0541  0.2734  0.0738
    1W        W52617  16.497   4.729   2.403  0.1351  0.0963  0.1622
    1W        W52618   8.681  29.559   2.854  0.1711  0.0624 -0.2585
    1W        W52619  23.150  23.725   0.520 -0.4707  0.1911 -0.0490
    1W        W52620   6.534  17.438   6.809 -0.0045 -0.0169  0.0050
    1W        W52621  29.820  26.040   0.792 -0.1646 -0.1708  0.1277
    1W        W52622  11.493   0.942   2.354  0.1340  0.1162 -0.1218
    1W        W52623  15.236  28.540   2.693  0.0029 -0.0186 -0.0566
    1W        W52624  26.893  17.168   7.389 -0.0490  0.1981  0.1034
    1W        W52625  29.123   6.620   9.185 -0.5354  0.2398 -0.0880
    1W        W52626  16.769  25.656   9.298 -0.0639  0.1895  0.2005
    1W        W52627  11.796   3.334   8.087  0.0841  0.1556  0.2341
    1W        W52628  25.972   3.614   3.116  0.2516 -0.1564  0.2178
    1W        W52629  22.896  29.302   1.792  0.0764  0.2213  0.3214
    1W        W52630  15.705  18.616   9.236  0.0182 -0.1271  0.1098
    1W        W52631   2.771  26.955   0.331 -0.0457  0.2779  0.5236
    1W        W52632  25.780  25.843   6.943  0.0228  0.0878  0.2747
    1W        W52633  27.267  11.219   5.890 -0.0445 -0.2026 -0.0432
    1W        W52634   3.892  11.509   7.588  0.0941 -0.0370 -0.0107
    1W        W52635  26.333  26.206   1.126 -0.4838  0.1277  0.1320
    1W        W52636  16.451  12.120   7.136  0.0675  0.1038 -0.1050
    1W        W52637   0.565  25.996   0.195 -0.1202  0.0206  0.1411
    1W        W52638  12.443  25.135   1.864  0.2172 -0.0496  0.3343
    1W        W52639  27.808  25.841   7.047 -0.0351  0.0231 -0.2170
    1W        W52640  24.335   1.713   2.607  0.0631 -0.5311 -0.2756
    1W        W52641   2.348  13.950   8.619  0.4518  0.1655  0.1377
    1W        W52642   1.193  13.546   1.583 -0.0112  0.0967 -0.0569
    1W        W52643   9.454   2.435   1.237  0.1070 -0.3491 -0.2618
    1W        W52644  12.345  23.536   8.263  0.2456  0.1333 -0.0422
    1W        W52645  26.328  15.897   0.739 -0.0934  0.0198  0.1376
    1W        W52646  23.201  11.375   8.288 -0.0974  0.1735  0.0787
    1W        W52647  26.746   0.795   6.574  0.2721 -0.0755 -0.2035
    1W        W52648  16.103  12.005   0.976 -0.2046 -0.4726  0.1575
    1W        W52649   4.597  29.893   7.171  0.2658 -0.2403 -0.2121
    1W        W52650  24.031  26.653   8.111 -0.1945  0.0420 -0.1593
    1W        W52651   8.619  25.191   7.280  0.1802  0.3058 -0.0940
    1W        W52652   6.861  29.739   2.514 -0.1377  0.4251  0.2846
    1W        W52653  21.250   9.073   0.249  0.1102 -0.0406  0.0134
    1W        W52654   7.590   4.914   2.069  0.0260  0.2087  0.1569
    1W        W52655  26.047   2.211   7.153 -0.3179 -0.0765 -0.3104
    1W        W52656   4.664  17.272   2.256 -0.1898 -0.1790  0.2046
    1W        W52657  20.124   8.827   6.230  0.1532 -0.2099  0.1725
    1W        W52658   1.483  15.998   0.435  0.2035 -0.0143  0.3064
    1W        W52659   4.927   0.468   2.595 -0.2464  0.2107  0.0407
    1W        W52660  17.707  12.541   6.411 -0.2211  0.0944  0.1478
    1W        W52661  22.574   5.548   8.645  0.0800  0.2376 -0.1343
    1W        W52662  14.847  19.056   0.850 -0.2287  0.0974  0.1426
    1W        W52663  20.665   1.228   1.952 -0.2708 -0.2098  0.0324
    1W        W52664   8.889  25.890   2.846  0.1138  0.2864 -0.1026
    1W        W52665  29.013  24.712   6.345  0.0981  0.5369  0.2099
    1W        W52666  13.797   7.322   9.123  0.1011 -0.2225  0.1992
    1W        W52667   2.674  14.307   1.086  0.0007  0.0295 -0.2579
    1W        W52668  25.210   5.234   7.782  0.2068 -0.1260 -0.1305
    1W        W52669   2.286  16.862   7.379  0.1752  0.0456 -0.1560
    1W        W52670  21.872  14.691   0.873  0.1523  0.0082  0.3935
    1W        W52671   4.056  12.997   8.578  0.1750 -0.0560 -0.1033
    1W        W52672  24.169  11.974   1.798 -0.1982 -0.4218  0.1177
    1W        W52673  14.504  28.689   8.251  0.0339  0.0691  0.1166
    1W        W52674  19.753   7.967   8.683  0.3063 -0.1539 -0.3450
    1W        W52675   9.109  16.988   1.096  0.0648 -0.1173  0.0873
    1W        W52676   3.538  13.986   7.511  0.0489  0.3227 -0.0708
    1W        W52677  19.808  13.108   0.080 -0.2871 -0.3788 -0.0995
    1W        W52678  20.273  28.082   3.039  0.3196 -0.0146  0.2267
    1W        W52679  24.509  23.460   6.951 -0.1277 -0.0494  0.1856
    1W        W52680   5.225  17.166   7.885  0.1755 -0.3386 -0.1648
    1W        W52681  16.017  15.761   7.542  0.0070  0.1604 -0.2253
    1W        W52682  21.359  19.546   2.312  0.0313 -0.0855  0.0669
    1W        W52683  12.473   9.674   7.551 -0.3709 -0.3232 -0.1005
    1W        W52684   3.285  25.647   6.395  0.2293  0.0654  0.0118
    1W        W52685   8.370  10.927   0.548 -0.0780 -0.1484  0.1053
    1W        W52686   0.475  14.830   8.727 -0.3310 -0.0381  0.0086
    1W        W52687  14.470  29.480   8.790  0.1914 -0.0217  0.1001
    1W        W52688  20.309  13.354   0.071 -0.0808  0.0480 -0.2773
    1W        W52689  16.184   9.204   0.120 -0.3212  0.1813 -0.1354
    1W        W52690   7.865  23.322   0.465  0.0544  0.0137  0.2544
    1W        W52691  29.577   6.170   2.306  0.1014  0.1786  0.1854
    1W        W52692  26.590   9.877   0.222 -0.1141  0.0222  0.1990
    1W        W52693  28.886  16.109   2.035 -0.2241 -0.1978 -0.1254
    1W        W52694   2.903   4.339   6.866  0.0237  0.0773 -0.0566
    1W        W52695  12.954   3.771   7.060 -0.0499 -0.1597  0.1083
    1W        W52696  19.333  14.844   1.108 -0.3743 -0.1672  0.1385
    1W        W52697   3.544  27.799   7.218 -0.2464 -0.2003  0.2170
    1W        W52698  26.876  20.968   1.967  0.1200 -0.1249 -0.4532
    1W        W52699  13.619  14.670   1.524  0.0880  0.1862 -0.2896
    1W        W52700  24.058  25.753   2.355 -0.0276 -0.1798  0.0070
    1W        W52701  26.654   9.991   2.264 -0.0002  0.1189 -0.1786
    1W        W52702  25.120  16.757   8.766  0.2372 -0.2004 -0.2350
    1W        W52703  10.093  21.264   7.235  0.0510 -0.1979  0.1451
    1W        W52704   2.473  25.091   9.459 -0.0999  0.0228 -0.0685
    1W        W52705  24.402  16.510   0.569  0.4013  0.0487  0.0294
    1W        W52706   5.226  17.162   7.301 -0.0531  0.0233 -0.0241
    1W        W52707  29.151   7.082   0.974  0.2034  0.0749 -0.0544
    1W        W52708  24.838  24.151   1.579  0.2288 -0.1167 -0.0507
    1W        W52709  28.583  25.002   7.224  0.0663 -0.1797  0.0038
    1W        W52710   7.989   9.367   0.759  0.1087 -0.2538 -0.1858
    1W        W52711  27.914   6.121   0.758 -0.2664  0.1831  0.1974
    1W        W52712  11.884  25.574   0.226 -0.1837  0.0980 -0.3870
    1W        W52713  18.826  24.574   7.390  0.0554  0.0648 -0.1679
    1W        W52714  12.958   3.788   1.202 -0.1522 -0.1280 -0.0878
    1W        W52715  13.983  23.477   1.003 -0.0843 -0.2337  0.0416
    1W        W52716  29.389  24.330   7.616  0.0550  0.3643 -0.1257
    1W        W52717   3.047   6.642   7.435  0.1176 -0.4581  0.1441
    1W        W52718   3.267   4.714   6.711  0.0044 -0.2433 -0.0815
    1W        W52719   8.173   1.836   8.021  0.1330 -0.0736  0.1244
    1W        W52720  20.726  26.758   8.572 -0.0521 -0.1020 -0.1250
    1W        W52721  14.774   9.888   7.928  0.0586 -0.0167 -0.0932
    1W        W52722   7.775  13.593   2.188  0.3084 -0.1806 -0.1919
    1W        W52723  18.380   1.506   8.663 -0.2467 -0.0455 -0.0005
    1W        W52724  12.866   9.294   7.711 -0.1411  0.0557  0.0537
    1W        W52725  22.230  10.253   0.350  0.1413  0.0167  0.2909
    1W        W52726  25.589   5.968   8.076 -0.1467  0.1659  0.0155
    1W        W52727   5.654  29.529   6.217 -0.0318  0.2219  0.2156
    1W        W52728   0.120  18.131   8.973  0.1202  0.2040  0.1822
    1W        W52729  19.290   2.181   3.077  0.2752  0.1793 -0.1492
    1W        W52730   1.383  23.447   8.120  0.1332  0.2416 -0.1265
    1W        W52731  27.259  28.189   7.526  0.0896  0.2998 -0.2653
    1W        W52732  29.183  16.150   8.881  0.0809  0.2664 -0.1735
    1W        W52733  26.105  22.411   8.524  0.0501 -0.0284  0.0064
    1W        W52734   6.704  28.762   0.228 -0.1038  0.0501  0.3825
    1W        W52735  21.022  13.448   8.752 -0.2009 -0.1283  0.0409
    1W        W52736   6.019   8.023   3.730 -0.2181 -0.2749 -0.3294
    1W        W52737  27.624  18.750   0.886  0.0511  0.0264  0.2777
    1W        W52738   4.095   5.258   2.289  0.1318 -0.0833  0.0450
    1W        W52739   1.256  28.296   2.451  0.1689  0.1782 -0.0435
    1W        W52740  12.088  25.824   7.242 -0.0888  0.0601 -0.1106
    1W        W52741   2.135  29.733   7.543  0.1653 -0.1425  0.2411
    1W        W52742  27.587  20.540   0.931 -0.2096 -0.0593 -0.1998
    1W        W52743  16.473  20.028   0.699 -0.0879 -0.0541 -0.1746
    1W        W52744   5.193  15.843   9.226 -0.0798  0.0146  0.0462
    1W        W52745   2.900   1.502   0.198 -0.1713  0.0394  0.1981
    1W        W52746   3.741  17.878   0.857 -0.1215 -0.4735 -0.2107
    1W        W52747  12.744  26.532   6.838  0.0598 -0.0598  0.1671
    1W        W52748   6.327  26.941   6.533  0.3457  0.2431 -0.0766
    1W        W52749  25.357  20.725   8.815 -0.0882  0.0371 -0.2180
    1W        W52750   4.185   2.360   3.929 -0.3220 -0.0727 -0.3713
    1W        W52751   4.492  10.972   7.856  0.0124  0.0397  0.0866
    1W        W52752  19.016  14.919   2.207  0.1935 -0.1885 -0.0104
    1W        W52753  25.804   9.948   6.245 -0.1325 -0.2279  0.1946
    1W        W52754  21.892  15.238   1.812 -0.0141 -0.1987  0.2403
    1W        W52755  27.064  23.263   1.118  0.0594 -0.0675 -0.0953
    1W        W52756   9.862  21.267   9.069  0.0473 -0.1021 -0.1440
    1W        W52757  20.887   2.474   9.016  0.0846 -0.0114  0.1579
    1W        W52758  29.052  13.440   6.857 -0.0351  0.0203  0.1812
    1W        W52759  17.591  27.349   1.519 -0.1867  0.2841  0.0648
    1W        W52760  18.306  21.351   8.571  0.2749  0.1136  0.1154
    1W        W52761  19.586  24.428   1.999 -0.2472  0.0195 -0.2772
    1W        W52762   6.921   8.530   8.859  0.0172  0.3219 -0.2159
    1W        W52763   7.114   9.731   0.481 -0.0459  0.3157  0.0428
    1W        W52764  22.866  26.056   8.376 -0.1725 -0.0430 -0.0114
    1W        W52765  24.331  13.865   6.629 -0.3031  0.0548  0.0851
    1W        W52766   0.661   3.432   1.582 -0.2772  0.0928 -0.2005
    1W        W52767   8.437  25.970   6.811 -0.0143 -0.0344 -0.1360
    1W        W52768  24.001   5.966   9.117  0.0712  0.2317 -0.1522
    1W        W52769  17.973  13.422   7.370  0.0844  0.3784  0.1398
    1W        W52770  15.833   8.219   1.686  0.3295  0.0972  0.1812
    1W        W52771  11.894  10.785   0.230  0.0206  0.2103 -0.4464
    1W        W52772   7.575   0.928   3.338 -0.3402 -0.0431 -0.0880
    1W        W52773  23.052  28.068   0.875 -0.0040 -0.0710  0.0874
    1W        W52774   4.612  26.851   3.163 -0.0546  0.2540  0.0861
    1W        W52775  11.527  19.432   6.541  0.2350 -0.0473 -0.3332
    1W        W52776  28.401  16.748   7.914 -0.1934 -0.2619  0.2405
    1W        W52777  23.464  27.241   7.494  0.2864  0.1907 -0.1782
    1W        W52778   8.962   9.784   7.517 -0.2720 -0.2698  0.1876
    1W        W52779  11.340   8.986   8.019 -0.1157 -0.3484 -0.2227
    1W        W52780  11.872  22.192   6.265  0.1469 -0.0330 -0.3062
    1W        W52781  29.330  23.058   8.548 -0.0102 -0.0650 -0.0713
    1W        W52782   2.098   6.405   9.431 -0.1063 -0.2068  0.0215
    1W        W52783  23.199  20.163   7.664 -0.2130  0.1612  0.1393
    1W        W52784   3.913   4.861   1.134 -0.0960 -0.2500  0.1871
    1W        W52785   3.062  14.003   0.143 -0.0503 -0.1779 -0.0035
    1W        W52786   0.953  25.563   9.021 -0.1346 -0.3191 -0.0991
    1W        W52787   8.227  10.399   3.235  0.1741 -0.2546  0.0885
    1W        W52788   7.101  22.889   8.099  0.0844 -0.1277  0.0158
    1W        W52789   2.563  14.719   0.637 -0.0280  0.0693 -0.0936
    1W        W52790  24.577  27.190   7.065  0.3668  0.0679 -0.1537
    1W        W52791  18.929   5.707   0.344 -0.1242  0.1789  0.2042
    1W        W52792  12.410  25.572   0.237  0.0067 -0.0272 -0.0890
    1W        W52793  13.011   9.484   8.938 -0.2861 -0.3123  0.0648
    1W        W52794  28.276  14.522   7.425 -0.0872  0.1106 -0.2286
    1W        W52795  10.635   1.788   8.036 -0.1989  0.0754  0.0970
    1W        W52796  18.712   1.723   9.084 -0.0633 -0.2624  0.2159
    1W        W52797   7.929  26.166   6.644 -0.0022  0.0313 -0.2291
    1W        W52798  24.418   1.466   7.380  0.0662  0.0971 -0.0358
    1W        W52799  16.479   6.652   7.408  0.1101  0.4368  0.1025
    1W        W52800   0.789  25.642   8.292 -0.0504 -0.2511  0.0082
    1W        W52801  10.662   1.032   8.020 -0.3874 -0.0974 -0.0740
    1W        W52802  20.905  20.254   1.832  0.0357  0.1096  0.1176
    1W        W52803  19.939  13.357   8.407 -0.1769 -0.0959  0.1110
    1W        W52804  22.619  15.962   7.981 -0.0557  0.2066 -0.1626
    1W        W52805  23.991  29.424   8.203  0.0035  0.4841 -0.0595
    1W        W52806  16.625  22.302   8.035 -0.2210 -0.1342  0.3828
    1W        W52807  27.993  14.727   8.840  0.2756  0.0704  0.0507
    1W        W52808  14.135   6.484   1.759  0.0026  0.3546 -0.1511
    1W        W52809  28.390  24.269   8.818 -0.1424 -0.2429  0.3247
    1W        W52810  16.615  13.235   7.502  0.0249 -0.1188 -0.1434
    1W        W52811  20.262  28.302   2.506 -0.0460  0.0224 -0.2342
    1W        W52812   2.988   3.571   9.131  0.3328 -0.0519  0.1551
    1W        W52813  29.001   1.861   1.021 -0.2752  0.1689  0.1575
    1W        W52814  13.922  11.769   0.372  0.4269  0.1193  0.0688
    1W        W52815   0.223  19.534   8.569  0.0350 -0.2673 -0.1987
    1W        W52816   9.904   0.033   0.874 -0.1105  0.4419  0.2032
    1W        W52817  18.525  12.513   0.587  0.5159 -0.0184 -0.2715
    1W        W52818  24.675   1.877   1.391 -0.1523 -0.0979 -0.2139
    1W        W52819  25.578  15.434   7.175  0.3050 -0.1898  0.0594
    1W        W52820  27.994  11.516   6.834  0.0298  0.1880 -0.0087
    1W        W52821  25.374  18.190   0.739 -0.0589  0.1008  0.1099
    1W        W52822   7.491  28.815   1.156  0.1099 -0.2682  0.0598
    1W        W52823  17.158   8.872   7.826 -0.2354 -0.3576 -0.0982
    1W        W52824   3.801   2.397   7.448  0.1729 -0.2528 -0.1372
    1W        W52825  13.916   6.406   7.635  0.0144  0.2157  0.0375
    1W        W52826  22.469  25.463   2.606  0.0798 -0.0055  0.3510
    1W        W52827  14.798   0.596   2.633 -0.4042 -0.0669 -0.4024
    1W        W52828  16.552   6.725   8.580  0.0043 -0.0906 -0.0110
    1W        W52829   4.367   8.328   8.708 -0.2520 -0.1195  0.1473
    1W        W52830  26.304  22.672   6.134  0.1390  0.1395  0.0356
    1W        W52831   4.021  17.344   6.837 -0.0269  0.1470 -0.0415
    1W        W52832  21.638   1.096   1.957  0.1435  0.2480  0.5071
    1W        W52833  12.626  27.951   0.449 -0.0223 -0.0928 -0.2637
    1W        W52834   9.449   3.113   7.129 -0.1656 -0.1203 -0.2812
    1W        W52835  16.534  19.754   8.063  0.0193  0.1031 -0.1743
    1W        W52836  28.559   6.918   3.155  0.2630  0.0019 -0.2578
    1W        W52837  16.318  26.094   1.400 -0.1735 -0.3319  0.1014
    1W        W52838   2.282  22.772   0.403 -0.1384  0.1108 -0.0116
    1W        W52839  27.859  12.192   1.568 -0.0788 -0.1964  0.0764
    1W        W52840  14.117  18.402   9.055 -0.0563 -0.0593 -0.0298
    1W        W52841  16.519   3.830   7.391  0.1163  0.1251  0.2070
    1W        W52842   8.339   3.598   0.158 -0.0469  0.1949  0.1267
    1W        W52843   8.462  29.610   1.455 -0.0247 -0.1600 -0.0164
    1W        W52844   1.909  28.741   6.931 -0.2865  0.2080  0.1868
    1W        W52845  24.759  15.204   8.072 -0.0167 -0.1053  0.0954
    1W        W52846  26.616   9.095   7.721  0.0806  0.0747  0.3379
    1W        W52847   9.705  13.685   9.363  0.0697  0.0410 -0.0873
    1W        W52848  28.310   6.100   8.137 -0.2570  0.0923 -0.2054
    1W        W52849   0.266  15.634   0.263 -0.0381 -0.0963  0.0781
    1W        W52850   2.302   0.813   2.760  0.2034 -0.0830 -0.0317
    1W        W52851  11.334   0.648   3.567 -0.0694 -0.1425  0.2471
    1W        W52852  25.302   0.400   8.819 -0.0436  0.2236  0.1211
    1W        W52853  23.605  14.124   9.031  0.0748 -0.0829 -0.0555
    1W        W52854  11.349  17.766   7.800  0.0604  0.0891 -0.3197
    1W        W52855  23.567  10.220   1.957 -0.0753 -0.0267  0.2097
    1W        W52856  28.367   2.624   7.713  0.0341  0.0752 -0.1830
    1W        W52857   4.689  16.938   1.230 -0.0549 -0.2280  0.0231
    1W        W52858  11.089  23.928   8.882  0.0494 -0.1383 -0.0012
    1W        W52859   1.259  19.242   1.728  0.2570 -0.0115 -0.0351
    1W        W52860  14.304  23.401   7.683  0.0120  0.0830 -0.0910
    1W        W52861  13.149  18.566   9.334  0.0484  0.1167 -0.0712
    1W        W52862   7.335  21.035   0.932  0.1671 -0.0994  0.0942
    1W        W52863  24.617  27.476   8.018  0.1675  0.2910  0.1873
    1W        W52864  19.469  15.106   9.303 -0.0165 -0.0358 -0.0909
    1W        W52865   6.079  15.879   1.959  0.0870  0.2631  0.1066
    1W        W52866   7.125   9.161   1.697 -0.2841  0.1616  0.1966
    1W        W52867  11.563   7.304   1.792  0.2775 -0.0035  0.3746
    1W        W52868  13.919  22.330   1.126 -0.0815 -0.2212  0.4985
    1W        W52869  17.583  19.032   9.378 -0.0533  0.1543  0.3014
    1W        W52870   7.375   8.567   7.068 -0.3375 -0.1571 -0.1749
    1W        W52871  11.518  19.607   9.334  0.1329 -0.0823  0.0779
    1W        W52872  12.907  25.609   0.769 -0.0144 -0.0420 -0.0054
    1W        W52873  16.316   9.766   7.598  0.0765 -0.0775 -0.0638
    1W        W52874  17.906   2.836   2.607  0.1304 -0.0308 -0.1533
    1W        W52875  11.536   6.940   7.874 -0.0247  0.0110 -0.2469
    1W        W52876  26.832  16.319   6.507  0.0563  0.1153 -0.4037
    1W        W52877  10.339   8.829   1.657 -0.3976  0.3889  0.0774
    1W        W52878  28.882  27.036   8.270 -0.4028 -0.0086  0.1316
    1W        W52879  21.070  27.351   3.223  0.0778  0.1329  0.2777
    1W        W52880  21.212  29.574   1.969  0.0839  0.1369  0.0165
    1W        W52881  26.454  23.323   7.642 -0.1121  0.0881  0.0614
    1W        W52882  20.238  23.842   8.051 -0.2838  0.5221  0.2685
    1W        W52883  29.833  11.143   0.262 -0.1037  0.1654 -0.1378
    1W        W52884  23.770   6.957   7.421  0.0222  0.0142 -0.2527
    1W        W52885   6.316  25.202   0.113  0.1139 -0.1266 -0.2572
    1W        W52886   7.420   6.860   1.087 -0.0109  0.1337 -0.0251
    1W        W52887   7.784   7.701   7.182  0.0673 -0.2298  0.1048
    1W        W52888   5.445  17.482   8.754  0.2249  0.4361  0.2128
    1W        W52889   8.397   8.651   8.210  0.2399 -0.0334  0.5568
    1W        W52890   8.386  18.033   1.635  0.0899  0.2639 -0.0660
    1W        W52891  21.549  28.384   1.215 -0.0576 -0.0231  0.3420
    1W        W52892  16.745   3.260   6.482  0.1567 -0.1641 -0.1891
    1W        W52893  11.807  29.284   0.030 -0.1885 -0.0187 -0.1488
    1W        W52894   2.606   0.144   8.410 -0.1564  0.0991  0.0878
    1W        W52895  10.670   3.083   8.645  0.0333  0.0905 -0.1699
    1W        W52896  13.089   4.271   1.967 -0.0607 -0.0905 -0.0084
    1W        W52897  19.852   2.367   9.452  0.0756  0.0872 -0.1154
    1W        W52898  25.544  26.516   6.847  0.1744  0.1645 -0.0297
    1W        W52899  23.159   1.565   0.711 -0.0306  0.1024  0.0083
    1W        W52900   7.860   1.382   8.833  0.4323  0.0229  0.0407
    1W        W52901   2.728   5.072   8.487 -0.0937 -0.1520  0.3782
    1W        W52902  25.265  20.940   6.869  0.0150  0.1133 -0.2059
    1W        W52903  10.434   3.002   8.221 -0.2644  0.0321  0.0141
    1W        W52904  20.506  27.165   8.691  0.0309 -0.0614 -0.1221
    1W        W52905  25.552  22.286   8.521  0.1240  0.2693  0.0755
    1W        W52906  11.013  25.154   8.693  0.0039 -0.1237  0.0825
    1W        W52907  19.336  20.972   6.780  0.0417  0.0730  0.1121
    1W        W52908  23.953  11.632   7.816 -0.0642 -0.2097  0.1432
    1W        W52909  28.895   1.569   0.165  0.0888  0.0106 -0.2431
    1W        W52910   2.921   1.488   3.229  0.2380  0.0070 -0.1231
    1W        W52911  22.026   4.830   2.840  0.3332  0.1190 -0.2989
    1W        W52912  21.459  22.645   7.098 -0.3217 -0.0373  0.1422
    1W        W52913  14.782  29.753   2.018 -0.1473 -0.1626 -0.2364
    1W        W52914   2.313  23.345   8.742  0.0310 -0.1462 -0.1832
    1W        W52915   4.412   9.708   1.345 -0.3915 -0.1409  0.0696
    1W        W52916   2.957  20.792   8.521  0.0162 -0.1058  0.1031
    1W        W52917  10.320  26.286   2.009 -0.1640  0.1060 -0.3456
    1W        W52918   4.898  22.779   8.767  0.4626  0.0013 -0.1417
    1W        W52919   5.977   6.289   7.643  0.0164 -0.1001  0.0910
    1W        W52920   9.418  13.601   1.840  0.0699  0.2318  0.2189
    1W        W52921   3.001   6.433   0.875 -0.1655  0.1501 -0.2363
    1W        W52922  15.686   8.048   9.098 -0.1784 -0.2162 -0.1248
    1W        W52923   3.852   2.144   2.449 -0.1129  0.2472  0.0605
    1W        W52924  14.230   3.529   8.688 -0.0711 -0.0519 -0.0186
    1W        W52925   6.257   7.555   7.879  0.1399  0.0010  0.0223
    1W        W52926   0.244   1.576   8.355  0.2699  0.3642  0.0565
    1W        W52927  17.223  27.516   0.556 -0.1794 -0.0398 -0.0342
    1W        W52928   1.468  20.951   8.712 -0.2869  0.1741  0.1138
    1W        W52929   6.237  28.042   7.134  0.1885 -0.1176 -0.1469
    1W        W52930  25.946   9.287   1.999  0.1587 -0.0257  0.0434
    1W        W52931   8.539  29.499   1.941 -0.2408  0.0859 -0.0417
    1W        W52932  19.736   0.631   1.697 -0.2895  0.0453 -0.1454
    1W        W52933  18.743  11.403   0.604 -0.0091 -0.4544 -0.2062
    1W        W52934  12.185   1.980   9.222  0.0318  0.0805  0.3130
    1W        W52935  15.692  27.301   2.379 -0.4357  0.0332 -0.0387
    1W        W52936  25.477  23.107   9.433  0.3188  0.3670 -0.0940
    1W        W52937   5.615  29.012   7.308 -0.2546  0.2521 -0.0063
    1W        W52938  22.966   2.694   9.284 -0.3099 -0.0620  0.3192
    1W        W52939   8.672  16.028   2.165  0.0409 -0.4388 -0.0293
    1W        W52940   5.373  24.021   7.148  0.0564  0.0296 -0.0101
    1W        W52941   8.010  18.480   6.708  0.0553 -0.2113 -0.1912
    1W        W52942  22.555  16.474   8.048  0.2695  0.1754  0.0845
    1W        W52943  11.585  21.009   6.039  0.0164 -0.0906  0.1544
    1W        W52944   5.162  12.011   7.452 -0.3252  0.0946  0.0147
    1W        W52945   6.505  13.796   8.286 -0.1811  0.1454 -0.2421
    1W        W52946  26.944  29.132   3.249  0.0203 -0.2605  0.1434
    1W        W52947  13.323  23.579   0.987 -0.1694  0.2358 -0.0696
    1W        W52948  20.197  26.943   1.119 -0.3858  0.2383 -0.2277
    1W        W52949   2.198  22.071   7.150  0.1294 -0.1592 -0.2154
    1W        W52950  29.305  22.609   1.759  0.2849  0.2333 -0.1965
    1W        W52951   1.206  25.091   7.235 -0.0770  0.0509 -0.0389
    1W        W52952   2.690  15.390   8.799 -0.0724  0.0621  0.0336
    1W        W52953  10.181   2.432   9.382 -0.1446  0.2141 -0.0027
    1W        W52954  23.341   7.785   7.627  0.0090 -0.1514  0.1006
    1W        W52955   6.628  14.472   5.837  0.0439  0.0342 -0.0414
    1W        W52956  14.472  14.129   0.645  0.1557 -0.1802  0.1575
    1W        W52957  27.414  21.732   0.061 -0.1330 -0.1702 -0.1400
    1W        W52958   0.572  15.069   1.721 -0.1574  0.0187  0.1198
    1W        W52959  28.745   7.791   0.772 -0.6803 -0.0576 -0.0868
    1W        W52960  24.157   1.914   7.340  0.1618  0.2468 -0.1120
    1W        W52961  27.453  29.338   6.315 -0.0016 -0.1146 -0.1129
    1W        W52962  17.578  15.243   1.733 -0.1333 -0.2985 -0.1816
    1W        W52963  26.083   2.964   1.713  0.3244 -0.1025  0.1943
    1W        W52964  27.314   5.636   1.973 -0.2976 -0.1061  0.1412
    1W        W52965  25.397  24.950   7.297 -0.0543  0.3526  0.0408
    1W        W52966   7.861   6.074   0.447  0.0900  0.1204 -0.1179
    1W        W52967   7.935  16.317   1.621  0.0244  0.1003  0.1513
    1W        W52968  12.106  17.455   8.774 -0.4827 -0.0001 -0.0418
    1W        W52969  20.778  24.631   2.566 -0.1502  0.0144  0.1344
    1W        W52970  29.295   4.630   7.829  0.0578 -0.0721 -0.0447
    1W        W52971   5.308  10.361   7.076  0.1989  0.0136  0.0925
    1W        W52972   9.813   4.026   0.734 -0.1569 -0.0605 -0.0230
    1W        W52973   6.461   8.435   8.522 -0.1164 -0.1025 -0.0469
    1W        W52974  18.984   8.320   6.878 -0.0593  0.0429 -0.0670
    1W        W52975   8.891  25.567   8.061 -0.1068  0.0439 -0.0812
    1W        W52976  18.136  22.904   1.058 -0.0600 -0.0023 -0.0651
    1W        W52977  22.465  16.315   8.513 -0.1398  0.4154 -0.0777
    1W        W52978  16.992  27.292   2.767  0.1750  0.3488  0.2659
    1W        W52979   7.584  21.927   8.015 -0.0615  0.1263 -0.1948
    1W        W52980  13.566   4.696   8.913 -0.1262  0.1852  0.0534
    1W        W52981  26.701  27.636   1.820 -0.2229 -0.0575 -0.0048
    1W        W52982   3.889  19.777   8.068 -0.2626 -0.0690  0.2080
    1W        W52983  15.037  11.694   0.855  0.0413  0.1049  0.1361
    1W        W52984  12.831  19.464   6.696  0.2110 -0.0160  0.0424
    1W        W52985  16.234  22.220   0.859  0.0582  0.0017  0.1091
    1W        W52986  29.168   0.096   8.021 -0.2963 -0.2121 -0.0969
    1W        W52987  27.898   4.812   7.604  0.1827 -0.3784 -0.3372
    1W        W52988   9.359  11.411   9.348  0.3762 -0.0878 -0.0631
    1W        W52989  21.671   0.346   1.830 -0.0321 -0.1324 -0.2270
    1W        W52990  12.861   4.899   1.498 -0.1280  0.0402  0.0837
    1W        W52991  13.667  22.874   0.301  0.1780 -0.2230  0.2453
    1W        W52992  22.905   5.410   1.641  0.2599  0.0407  0.0780
    1W        W52993   4.199   5.823   1.391  0.0745  0.1901 -0.0614
    1W        W52994  12.259  21.565   0.136 -0.0604 -0.2246  0.0550
    1W        W52995  25.406  28.379   0.395  0.1381 -0.1736 -0.1142
    1W        W52996  19.461   4.611   6.648 -0.2377  0.0377 -0.0379
    1W        W52997  18.582  20.976   6.615 -0.1876  0.1215  0.0204
    1W        W52998   7.913   4.931   0.702 -0.1527 -0.2720  0.0179
    1W        W52999  28.103  28.116   1.012  0.0312 -0.0586 -0.0519
    1W        W53000  15.227  26.272   1.094 -0.2017 -0.2352  0.0317
    1W        W53001   0.649  12.833   1.391  0.1559 -0.1672  0.3004
    1W        W53002  22.685   6.571   2.721  0.3606  0.0475  0.0400
    1W        W53003  17.517  16.611   8.495  0.3366  0.0985  0.0665
    1W        W53004   4.109  10.921   0.068  0.0515 -0.0460  0.0524
    1W        W53005   6.417  16.917   5.467 -0.1334 -0.2555  0.0432
    1W        W53006  24.514  23.295   1.027 -0.1414  0.0432 -0.0276
    1W        W53007   3.725  15.500   7.566  0.0916  0.3526 -0.3831
    1W        W53008  12.286   6.299   8.044 -0.2764  0.2688  0.0115
    1W        W53009  16.632   4.239   2.279 -0.0742  0.0630  0.1156
    1W        W53010  23.608   0.665   8.075 -0.3995 -0.4002 -0.2560
    1W        W53011  16.349  16.909   8.061 -0.1080 -0.3469 -0.1107
    1W        W53012   2.616  24.484   7.544 -0.1079  0.1688  0.0786
    1W        W53013   9.913  24.601   1.364 -0.1216 -0.2724 -0.0107
    1W        W53014  29.337  21.376   0.166  0.2540 -0.0801 -0.0656
    1W        W53015   6.381  29.292   1.789  0.1603  0.3170  0.0972
    1W        W53016  21.477  25.964   1.851 -0.1626 -0.1064  0.0095
    1W        W53017   5.628   1.540   0.049  0.0839  0.2928 -0.0903
    1W        W53018  20.216   8.708   7.199  0.2201  0.0391 -0.0483
    1W        W53019  20.054  27.252   6.889 -0.1058  0.0719 -0.3083
    1W        W53020  15.542  15.480   7.576  0.1713  0.0104  0.0569
    1W        W53021   3.219   4.298   3.056 -0.1336 -0.0279 -0.0022
    1W        W53022  19.996   6.207   7.042  0.2846  0.3542  0.0342
    1W        W53023  23.218  26.733   1.806  0.1026  0.0988  0.0011
    1W        W53024   2.691  18.930   0.191 -0.0144  0.2328 -0.3161
    1W        W53025   5.534  25.246   2.106 -0.2482  0.1091  0.0739
    1W        W53026  15.622  17.929   0.255  0.2768  0.3226  0.1651
    1W        W53027  17.385   8.516   1.740  0.0018 -0.1426  0.2729
    1W        W53028  25.180   5.650   8.259 -0.1841 -0.1021  0.0148
    1W        W53029  20.186   6.954   3.296 -0.1337  0.0495  0.2561
    1W        W53030  11.243  14.736   7.092 -0.1043  0.0560 -0.0765
    1W        W53031  25.145  10.870   8.810  0.2110 -0.2691  0.0510
    1W        W53032  12.858  15.587   7.321 -0.0232 -0.1385 -0.3690
    1W        W53033  16.574  15.404   0.275 -0.0316  0.1177 -0.0048
    1W        W53034  23.130   7.528   8.106  0.0349 -0.0254  0.0169
    1W        W53035  21.099  22.689   0.674  0.4278  0.0077 -0.1586
    1W        W53036   8.168   7.090   2.614 -0.0768 -0.0807  0.1120
    1W        W53037  25.591   2.012   6.145 -0.1416  0.1301  0.1529
    1W        W53038  14.556  29.174   8.013 -0.0961  0.2884  0.0552
    1W        W53039  11.276  27.010   8.683  0.0954  0.2607 -0.0228
    1W        W53040  17.655  15.614   8.670  0.1151 -0.1348 -0.1003
    1W        W53041  29.617  17.016   2.780 -0.0832  0.0061  0.1533
    1W        W53042  12.221  16.584   7.702  0.1353 -0.0935 -0.0610
    1W        W53043  14.354  18.956   8.418  0.2881  0.0628 -0.1904
    1W        W53044  13.431   2.261   9.009 -0.1570 -0.0584  0.2884
    1W        W53045   1.869  26.762   1.020  0.0709  0.1376  0.0595
    1W        W53046   9.855  10.169   7.801  0.1971  0.2431  0.1094
    1W        W53047  10.553  15.431   8.143 -0.1348  0.0711 -0.1120
    1W        W53048  26.325   6.034   2.527  0.2422  0.0717 -0.1078
    1W        W53049   2.876   7.867   1.734 -0.0118 -0.1778 -0.1234
    1W        W53050   6.941  23.093   6.510 -0.1839 -0.2593 -0.1980
    1W        W53051  14.049   6.270   2.247 -0.2001 -0.0337  0.1051
    1W        W53052  23.489  17.217   9.445 -0.0394  0.0423  0.0971
    1W        W53053  15.681  10.574   0.204 -0.2005 -0.1739 -0.0915
    1W        W53054  14.697  15.535   1.308 -0.0158  0.1561 -0.2674
    1W        W53055   1.471   5.690   0.593  0.3432  0.0818 -0.1108
    1W        W53056  22.308  13.141   7.068 -0.4495  0.1800 -0.1860
    1W        W53057   1.741   9.631   6.154 -0.0593  0.1406 -0.1229
    1W        W53058  16.293  13.842   8.273  0.0788 -0.0296 -0.4457
    1W        W53059   9.220  27.297   7.774 -0.3261 -0.0786  0.2255
    1W        W53060  28.639  14.068   6.509  0.0231 -0.0431  0.2044
    1W        W53061  17.738  15.436   7.277 -0.2329  0.3105  0.0569
    1W        W53062  18.184   9.582   6.791 -0.0673  0.0067 -0.2296
    1W        W53063   3.727  14.548   1.305 -0.0347 -0.0747  0.1019
    1W        W53064   3.967  26.460   0.861 -0.2071 -0.0701  0.1004
    1W        W53065   1.425  10.107   8.026  0.1656 -0.1192 -0.1746
    1W        W53066   9.118   8.502   9.178 -0.2582 -0.0755  0.1588
    1W        W53067  13.630  17.259   2.431  0.2417 -0.2206 -0.1288
    1W        W53068  14.764  14.570   8.957  0.0427  0.0081 -0.3217
    1W        W53069   9.238  13.955   9.355 -0.1313  0.0445 -0.1596
    1W        W53070   1.915   8.436   8.425  0.0560  0.0007 -0.0466
    1W        W53071  23.786  16.525   8.352  0.3401 -0.1505 -0.0981
    1W        W53072  21.121   7.539   1.543 -0.1903 -0.1592 -0.1472
    1W        W53073  14.367   6.324   7.347  0.3357  0.0450  0.0051
    1W        W53074  27.931  19.150   8.707 -0.1764 -0.1934 -0.0543
    1W        W53075  17.758   9.354   8.351 -0.0509  0.0412  0.0045
    1W        W53076  12.940  24.239   8.408 -0.0924 -0.4413  0.1162
    1W        W53077  19.802   4.141   1.911 -0.0712 -0.0134 -0.3392
    1W        W53078  18.504  23.937   2.830 -0.5455  0.0740 -0.0017
    1W        W53079   2.478   9.333   0.251 -0.0151  0.1997  0.0990
    1W        W53080  13.511  29.054   3.352 -0.1977  0.0658 -0.1948
    1W        W53081  15.658   5.781   0.097 -0.4771 -0.0233 -0.1450
    1W        W53082  24.932   2.340   2.236  0.1199  0.0204 -0.0358
    1W        W53083   7.475  23.026   6.254 -0.2265 -0.0607  0.2673
    1W        W53084   2.769  14.475   0.227 -0.0987 -0.1312 -0.0948
    1W        W53085  23.846  13.234   1.520 -0.0191  0.0609  0.0573
    1W        W53086  13.536   7.310   8.689  0.0020 -0.1897  0.0426
    1W        W53087  21.290   4.398   0.128  0.0107  0.3893 -0.1723
    1W        W53088  17.169  22.380   2.154  0.1426  0.0730 -0.0335
    1W        W53089  23.710  24.350   1.106 -0.1158  0.1038 -0.2130
    1W        W53090  25.377   7.048   1.691 -0.2867 -0.1505  0.0238
    1W        W53091  19.485   9.467   1.797 -0.0807  0.0125 -0.1567
    1W        W53092   7.540  28.626   2.641 -0.2045  0.0807 -0.1673
    1W        W53093  19.910  12.883   7.734 -0.3803  0.3888  0.0421
    1W        W53094   9.384  24.521   7.272 -0.0146 -0.0322  0.1641
    1W        W53095  11.766  18.682   9.049 -0.0168  0.4406 -0.1702
    1W        W53096   0.103   1.694   3.115  0.1306  0.2627 -0.0557
    1W        W53097  18.867  29.895   2.643  0.1429 -0.3435 -0.0356
    1W        W53098  28.913  12.983   0.810 -0.1299 -0.0174  0.2028
    1W        W53099  22.633   7.234   3.568  0.1785 -0.1487  0.2718
    1W        W53100  19.459   7.222   8.018  0.1406  0.0989 -0.0072
    1W        W53101  18.906  22.209   7.638  0.1457  0.1064 -0.0374
    1W        W53102  25.222  21.874   9.312 -0.2511  0.2824 -0.0695
    1W        W53103  16.445   8.285   0.433  0.0671 -0.0033 -0.0566
    1W        W53104  18.855  27.771   2.777  0.1586  0.2725 -0.1444
    1W        W53105   4.603  24.671   0.781  0.0189 -0.0506 -0.2024
    1W        W53106   7.903  11.564   8.298  0.2597 -0.2944  0.0871
    1W        W53107  24.295  19.779   1.266  0.1818  0.0840 -0.1045
    1W        W53108  21.110  23.493   2.729 -0.1714  0.0743 -0.3503
    1W        W53109   5.227  17.759   5.566  0.0853 -0.0061 -0.1132
    1W        W53110  29.580   4.145   7.971 -0.0255  0.2089 -0.0022
    1W        W53111   1.375  15.387   6.375 -0.3264  0.0057  0.1539
    1W        W53112  15.297  25.488   9.119  0.2527  0.3073  0.1820
    1W        W53113  16.212  24.382   8.004  0.5476  0.2278  0.0217
    1W        W53114  17.521   1.269   7.734  0.2081 -0.3414  0.0206
    1W        W53115  11.047   0.244   0.643 -0.0750 -0.1582  0.1872
    1W        W53116  11.913  29.506   0.909  0.1827 -0.2387 -0.1855
    1W        W53117  21.237  26.248   2.211  0.1477 -0.1509 -0.0963
    1W        W53118   6.434   6.695   3.958 -0.1197  0.1142 -0.1492
    1W        W53119  14.334  24.484   8.311  0.1034 -0.0665  0.0534
    1W        W53120   5.779  28.955   6.817  0.0039  0.0416 -0.0181
    1W        W53121  25.184  24.869   2.331  0.1020  0.0659 -0.0273
    1W        W53122  16.201  20.197   1.928 -0.4477  0.0037  0.0667
    1W        W53123   2.602   7.464   1.419  0.1131 -0.1816  0.2254
    1W        W53124   3.490  17.592   8.503  0.1386 -0.0306 -0.0078
    1W        W53125   6.761  29.285   2.651  0.1697 -0.0074 -0.0059
    1W        W53126   4.875   6.298   1.723 -0.0066 -0.0007  0.0278
    1W        W53127   9.733   3.833   3.139  0.2222 -0.2334  0.2031
    1W        W53128  13.944  25.139   0.071  0.0900 -0.0650 -0.2618
    1W        W53129  25.018  12.210   7.250 -0.1453 -0.0235  0.1078
    1W        W53130  14.473   5.895   8.833 -0.1380  0.5829 -0.1635
    1W        W53131  18.562  12.238   1.453 -0.1135  0.0778  0.0332
    1W        W53132   4.354  21.099   7.079  0.0426  0.3222 -0.0291
    1W        W53133  28.138   3.557   3.050 -0.1330  0.1131 -0.0282
    1W        W53134   2.132  19.375   7.557 -0.0486  0.1977 -0.1783
    1W        W53135  18.089   4.387   6.822  0.0640 -0.0801 -0.1616
    1W        W53136   1.259  22.519   6.152  0.2206 -0.1577 -0.2583
    1W        W53137   3.133  22.633   0.478 -0.1014  0.3384  0.3422
    1W        W53138  28.551  18.893   2.059  0.0922  0.2279  0.3080
    1W        W53139   6.819  25.433   8.112  0.0184 -0.2302 -0.0935
    1W        W53140  17.327  15.241   7.065  0.0127 -0.2012  0.0185
    1W        W53141   9.198  22.653   7.505 -0.0851 -0.1438 -0.0594
    1W        W53142  23.546   9.476   7.538  0.1996  0.0147  0.1491
    1W        W53143  29.542   4.448   0.261 -0.1438 -0.1016  0.2214
    1W        W53144   6.485   6.064   8.170 -0.2295  0.1228  0.1306
    1W        W53145   1.876  15.115   7.748 -0.2386 -0.2441 -0.2069
    1W        W53146   9.574  28.702   8.207 -0.1813  0.0497 -0.1077
    1W        W53147  24.169  14.461   7.596  0.0115 -0.1349 -0.1897
    1W        W53148  11.419  15.779   0.759  0.0845  0.1023  0.0001
    1W        W53149  19.674  20.600   3.160 -0.2083  0.2205 -0.2037
    1W        W53150  16.650  27.739   6.963 -0.0237 -0.1982  0.1230
    1W        W53151   8.489   3.487   8.794  0.1141 -0.0168 -0.1322
    1W        W53152   2.898  10.961   7.918  0.1246 -0.0682 -0.1127
    1W        W53153  22.710   3.556   8.031  0.2382 -0.1379 -0.3757
    1W        W53154  11.339   2.325   2.252  0.0752 -0.3578  0.3715
    1W        W53155  11.651  22.586   7.109  0.0984 -0.2970 -0.3114
    1W        W53156   5.476   4.359   2.968 -0.2337 -0.3445 -0.2178
    1W        W53157   2.283   2.857   1.279 -0.3184  0.0708  0.1010
    1W        W53158   9.882  21.376   2.640  0.2833 -0.1097 -0.1253
    1W        W53159  11.289  28.959   9.224 -0.1326  0.2262  0.0759
    1W        W53160   1.380  13.239   6.859 -0.3486 -0.1689 -0.1388
    1W        W53161  13.419   8.642   2.660 -0.1291 -0.1452  0.0116
    1W        W53162  22.439  17.699   8.603 -0.0704  0.0408  0.3544
    1W        W53163  10.071  27.309   7.870 -0.1809  0.1492  0.0668
    1W        W53164  24.319  28.931   0.654  0.1097  0.1355 -0.1708
    1W        W53165  21.814  28.820   1.231 -0.0929  0.1435 -0.0198
    1W        W53166   1.129   6.183   9.325  0.2696  0.1706  0.2354
    1W        W53167  23.090  29.057   7.832 -0.0394 -0.2284  0.3519
    1W        W53168   8.630  26.387   1.943  0.0789 -0.1575 -0.0514
    1W        W53169  15.747   7.886   1.089 -0.3249 -0.1306  0.3585
    1W        W53170  24.882  27.314   9.099 -0.1904  0.1307  0.1311
    1W        W53171  10.211  10.843   8.328  0.1681  0.1774 -0.0370
    1W        W53172  12.426  27.371   1.877  0.2404  0.2498 -0.1114
    1W        W53173  14.199   0.329   1.465 -0.2778 -0.1421 -0.0772
    1W        W53174  10.774  29.237   1.125  0.4139 -0.1100 -0.1724
    1W        W53175  16.760  26.216   6.730 -0.4389 -0.0052 -0.1719
    1W        W53176  19.787   1.532   6.752  0.0712  0.0636 -0.1333
    1W        W53177  29.474  23.137   2.012 -0.2027  0.3413  0.1005
    1W        W53178  17.543   9.892   8.530 -0.1739  0.2231 -0.1730
    1W        W53179   5.661   6.245   7.992 -0.1816  0.2141 -0.0076
    1W        W53180  23.244  26.000   2.623 -0.2519 -0.2384 -0.0314
    1W        W53181   6.684  15.229   8.639  0.0262  0.2381 -0.3187
    1W        W53182  13.236  24.835   6.606 -0.3545 -0.2230 -0.0286
    1W        W53183   1.428   8.223   2.770 -0.2752  0.3832 -0.2302
    1W        W53184  25.900  24.710   2.828  0.2450  0.3418  0.0279
    1W        W53185  17.050  18.889   9.014  0.1900  0.1317 -0.0401
    1W        W53186  16.731   8.616   0.734 -0.0307 -0.2515 -0.1372
    1W        W53187   2.785  26.582   9.414 -0.1420 -0.0782 -0.1964
    1W        W53188  14.078  23.488   9.439  0.2693 -0.0539  0.0024
    1W        W53189  22.881   7.630   2.543  0.1935  0.0016 -0.2528
    1W        W53190  14.546   1.330   3.303  0.1587  0.3868  0.1962
    1W        W53191   2.108   8.192   5.725  0.0286  0.1683 -0.0274
    1W        W53192  22.822  20.813   9.467 -0.3622  0.0947  0.0284
    1W        W53193  13.037   6.501   7.428 -0.1754 -0.1571 -0.2871
    1W        W53194  14.725  22.622   7.842  0.0316 -0.3283  0.0854
    1W        W53195  13.032  25.992   9.464  0.1730 -0.2605  0.0772
    1W        W53196  27.775  15.028   6.089 -0.1078 -0.1178  0.0967
    1W        W53197  17.178   6.826   1.312 -0.2679  0.1557 -0.0858
    1W        W53198  10.917  17.587   2.072 -0.0652 -0.1271  0.2186
    1W        W53199  13.394  29.241   8.280 -0.0114 -0.1438  0.3355
    1W        W53200  22.546  11.747   7.072 -0.0072  0.1648 -0.2647
    1W        W53201   1.536  29.626   7.695 -0.4707 -0.2224  0.1342
    1W        W53202  22.293  24.525   7.666 -0.0495 -0.2247 -0.1564
    1W        W53203  18.794   2.691   1.584 -0.0297  0.2847 -0.2058
    1W        W53204  29.076  23.094   6.579 -0.2891  0.0164 -0.2420
    1W        W53205   2.422   9.851   7.634 -0.0090 -0.1222 -0.0777
    1W        W53206  24.400   2.596   7.562  0.1021 -0.1177 -0.0122
    1W        W53207  16.924  22.100   7.618  0.2027  0.0231 -0.1419
    1W        W53208  24.943  20.329   3.203  0.0898  0.2560 -0.1663
    1W        W53209  28.824  15.610   1.760  0.2782  0.0316  0.0041
    1W        W53210  14.413   9.507   9.262 -0.1177 -0.2412  0.0753
    1W        W53211  17.367  24.830   0.021  0.1081 -0.1504 -0.1792
    1W        W53212   3.328  28.841   3.312 -0.0962 -0.1973  0.0098
    1W        W53213  23.469   7.712   1.086  0.1215 -0.1838  0.0928
    1W        W53214  16.298  19.058   8.669  0.0863  0.0799 -0.0633
    1W        W53215  18.027   9.185   7.068  0.0466  0.1373 -0.1294
    1W        W53216  20.371   4.434   7.642 -0.0187 -0.0698 -0.2258
    1W        W53217   9.829   5.043   1.518  0.2179 -0.0872  0.1246
    1W        W53218  14.304  21.313   1.153  0.1704  0.0644  0.1064
    1W        W53219  25.782  26.919   0.551 -0.3727 -0.0660  0.0092
    1W        W53220  21.233  29.834   7.510 -0.2060  0.3771 -0.1508
    1W        W53221   2.529   4.225   7.274  0.2250 -0.3572 -0.1146
    1W        W53222  10.662   8.224   2.037  0.0390  0.4943  0.0719
    1W        W53223  18.311  19.304   6.749  0.1303  0.0544 -0.2156
    1W        W53224  28.443  19.249   2.384  0.1485  0.1200 -0.1748
    1W        W53225  28.461   3.132   1.907 -0.3043 -0.1463  0.2247
    1W        W53226   7.449  25.899   1.049 -0.0792  0.2554 -0.1661
    1W        W53227   7.219   1.709   2.940 -0.1806 -0.2230  0.1514
    1W        W53228   0.160  23.574   6.258 -0.0260 -0.2173  0.0626
    1W        W53229   5.808   7.614   8.065  0.1193 -0.0977  0.0906
    1W        W53230  18.600  28.921   1.356  0.0075  0.3273 -0.0856
    1W        W53231  11.060  22.217   7.316  0.0733 -0.0434  0.1705
    1W        W53232  13.674  10.649   1.766  0.1429 -0.4374 -0.2469
    1W        W53233   5.992   3.288   3.243  0.0006  0.0330  0.0562
    1W        W53234  23.356  22.159   7.874  0.1243  0.0338 -0.3441
    1W        W53235   3.996  24.011   0.004  0.1963  0.0795  0.1311
    1W        W53236  18.490  21.148   2.028  0.0155 -0.1906  0.0501
    1W        W53237  14.581   4.134   8.357 -0.2149  0.2338 -0.0235
    1W        W53238  12.411  17.850   9.057  0.0193 -0.0490  0.1705
    1W        W53239  23.950  11.851   6.117 -0.2306  0.0464 -0.0713
    1W        W53240  25.031  17.039   6.480  0.3100 -0.2597 -0.0186
    1W        W53241  18.972  20.187   8.028 -0.0746 -0.2075  0.1926
    1W        W53242   2.689   7.164   8.085  0.1636  0.4798 -0.1561
    1W        W53243  24.714  12.677   1.675  0.2367 -0.0608 -0.0963
    1W        W53244  16.270   7.017   2.249 -0.2522  0.0402  0.0303
    1W        W53245   4.238  12.226   1.913  0.0905  0.1331 -0.1080
    1W        W53246  29.328  13.547   7.290 -0.4558 -0.1615 -0.0922
    1W        W53247  17.027  21.854   6.920  0.0387 -0.1815 -0.1382
    1W        W53248   3.521  29.233   7.631 -0.0311 -0.1569 -0.0874
    1W        W53249   1.943  28.355   7.280 -0.1734 -0.0978  0.1633
    1W        W53250   7.687  24.731   2.284 -0.0243  0.1003 -0.3683
    1W        W53251  21.302  10.959   7.233 -0.0958  0.1031  0.0874
    1W        W53252   4.556   8.369   2.881  0.0401 -0.3504 -0.0453
    1W        W53253  28.466  26.658   9.450  0.2695  0.0049 -0.0808
    1W        W53254  10.843   8.041   8.055 -0.1529 -0.1687  0.0725
    1W        W53255  13.227  14.738   7.299  0.0852 -0.1512  0.1385
    1W        W53256  17.404   8.564   8.753 -0.0324  0.3625  0.2348
    1W        W53257  16.329   3.066   0.652 -0.0063  0.0327  0.1863
    1W        W53258  26.071  14.721   8.358  0.0537  0.1347 -0.1884
    1W        W53259   2.933  14.810   9.290  0.2008 -0.2847 -0.3021
    1W        W53260  13.322   3.003   8.517  0.0587  0.1133 -0.1255
    1W        W53261  18.486   5.192   6.150 -0.3016  0.0573 -0.0492
    1W        W53262   4.272  24.834   1.227 -0.2394 -0.1277 -0.0693
    1W        W53263   1.805  20.673   1.352  0.1891  0.3908  0.2376
    1W        W53264  26.093  14.721   1.775  0.1177  0.0555 -0.3030
    1W        W53265  23.008  22.286   8.542  0.0553 -0.3172 -0.0007
    1W        W53266  10.765  14.636   0.887  0.0776  0.1246  0.3508
    1W        W53267  10.917  12.852   9.153  0.4539 -0.0146  0.1291
    1W        W53268  17.660   2.940   1.188  0.0611 -0.0920 -0.1054
    1W        W53269   6.794   3.763   0.692  0.1828  0.0324 -0.2707
    1W        W53270  22.104   1.118   9.382  0.0024  0.3135 -0.0533
    1W        W53271   7.894   5.162   3.026  0.0565  0.0085 -0.0982
    1W        W53272  11.384  21.543   1.126  0.1285  0.0263 -0.0886
    1W        W53273   1.187  29.367   6.721 -0.3305 -0.1173 -0.1744
    1W        W53274  18.529  12.741   1.418  0.1497 -0.0158 -0.2041
    1W        W53275   7.131  23.221   7.768  0.0720 -0.0076  0.0752
    1W        W53276  12.930  15.133   8.099  0.0076  0.2120 -0.2179
    1W        W53277  22.002   0.153   1.516 -0.0343  0.4332  0.0785
    1W        W53278  16.176  28.516   8.754  0.1529  0.0779 -0.0141
    1W        W53279  12.581   4.127   7.075  0.1632  0.2628  0.0787
    1W        W53280   6.828  13.387   8.647  0.0332 -0.3263 -0.1233
    1W        W53281  11.250  17.000   7.668 -0.1909  0.3577  0.0481
    1W        W53282  26.105   2.720   1.085  0.2187 -0.1491 -0.2098
    1W        W53283   0.428   1.572   6.996 -0.2311  0.2292 -0.0573
    1W        W53284  26.936  26.944   8.439 -0.0657  0.1183  0.1852
    1W        W53285  14.412  13.836   2.439  0.2619 -0.1038 -0.1003
    1W        W53286  17.175  26.712   1.589 -0.1085  0.1419  0.2205
    1W        W53287  11.906  17.437   1.394  0.1937 -0.1216  0.2318
    1W        W53288  23.132  19.827   1.466 -0.0422 -0.4147 -0.2872
    1W        W53289   9.239   2.414   8.736  0.0813  0.0602  0.0462
    1W        W53290   5.504  22.388   1.341 -0.1187  0.0672  0.1793
    1W        W53291  25.809  22.047   7.602 -0.1072  0.2269 -0.0252
    1W        W53292   9.789  24.910   0.088 -0.0500  0.1989 -0.0563
    1W        W53293  26.556  19.522   1.478 -0.1953  0.0548 -0.2741
    1W        W53294  22.625  21.050   7.419 -0.2096  0.0192  0.0133
    1W        W53295  18.550  23.170   7.200  0.0915 -0.2367 -0.1209
    1W        W53296   9.098  14.856   1.334 -0.1819 -0.0708 -0.2242
    1W        W53297   9.141   2.077   8.312 -0.1042  0.0487 -0.0229
    1W        W53298  11.139  29.005   7.816  0.2617 -0.1315  0.2058
    1W        W53299   2.827  16.759   8.273 -0.2975 -0.3523 -0.1140
    1W        W53300  25.664  16.416   8.495  0.2244  0.1375 -0.3572
    1W        W53301   4.832  28.298   1.551  0.0514 -0.2531  0.1737
    1W        W53302   9.352  18.194   1.640  0.1433 -0.1650 -0.0088
    1W        W53303  13.598   0.635   7.419 -0.0877 -0.0057 -0.0362
    1W        W53304  22.374   2.108   0.166 -0.1257  0.0155  0.2562
    1W        W53305  23.402  22.993   1.822  0.2752  0.0754  0.0441
    1W        W53306   6.876   6.242   9.006  0.0123 -0.2545 -0.1990
    1W        W53307   2.302  15.387   6.704  0.1350  0.4431  0.1437
    1W        W53308  21.203  26.358   7.463 -0.4780 -0.2424 -0.0123
    1W        W53309  22.749  25.038   0.395  0.1839 -0.2120 -0.1097
    1W        W53310  13.772  13.586   9.330  0.1094 -0.0051 -0.1681
    1W        W53311   4.277   3.344   1.236 -0.2715 -0.2657 -0.0905
    1W        W53312  12.892  17.570   9.141 -0.1232 -0.1813  0.0765
    1W        W53313  17.366  11.000   0.564 -0.1102 -0.1426  0.3278
    1W        W53314   8.762  21.384   1.518  0.1773 -0.0146  0.1712
    1W        W53315  15.975  22.333   0.298  0.0321 -0.0784 -0.1348
    1W        W53316   7.822  23.319   9.363 -0.0647  0.0874 -0.1180
    1W        W53317   8.967  19.107   8.091  0.0269  0.1321  0.2091
    1W        W53318  21.069  26.226   1.664 -0.0456 -0.2774 -0.0495
    1W        W53319   8.363  19.727   0.521  0.2036 -0.0572  0.0080
    1W        W53320   8.687  26.664   1.464  0.1959 -0.0794  0.3705
    1W        W53321  15.032   8.035   1.815  0.1427  0.2348  0.1128
    1W        W53322   6.499  21.717   1.571  0.0005  0.0590  0.1547
    1W        W53323  19.478   1.168   0.679 -0.2046 -0.0245 -0.1028
    1W        W53324  29.806  10.707   8.282  0.0284  0.0506 -0.2046
    1W        W53325  19.649   0.515   7.725  0.1513  0.0273  0.2400
    1W        W53326   3.403   0.506   8.152  0.0463 -0.0281 -0.1581
    1W        W53327  29.443  14.172   1.150 -0.0430  0.1916 -0.0946
    1W        W53328  19.249  20.040   2.132  0.1448  0.0614  0.1920
    1W        W53329  11.404   3.977   9.263  0.3018  0.1142  0.0610
    1W        W53330  28.664   3.188   2.416 -0.2016  0.0196 -0.1014
    1W        W53331   5.871  15.781   7.895 -0.0598 -0.0292 -0.2280
    1W        W53332  13.616  22.109   6.113 -0.0263 -0.0349  0.2533
    1W        W53333   9.673  28.642   1.627  0.1048  0.1347 -0.1699
    1W        W53334  13.807   4.148   2.489 -0.1071  0.3300  0.0321
    1W        W53335  11.833  27.305   1.621 -0.1159  0.3812 -0.2280
    1W        W53336  12.841  26.953   8.453  0.0715  0.4441  0.1142
    1W        W53337  19.831   2.964   2.297  0.0766  0.0013 -0.3501
    1W        W53338   8.119  29.709   2.866 -0.2444  0.4101  0.2705
    1W        W53339  10.051   9.657   8.868 -0.0355  0.0654 -0.3175
    1W        W53340  18.325   2.122   0.337 -0.0428 -0.0192  0.0884
    1W        W53341  23.690   4.710   7.248  0.4360  0.0574 -0.0443
    1W        W53342  18.709  20.486   8.338 -0.0052 -0.0993 -0.1966
    1W        W53343   5.606   0.673   0.099 -0.0514 -0.0570 -0.0956
    1W        W53344  21.867   6.505   7.698  0.0244  0.0774 -0.0540
    1W        W53345  17.898  14.580   7.451 -0.0992 -0.1097 -0.1143
    1W        W53346  25.771  11.950   8.817  0.0172  0.2587  0.1995
    1W        W53347  22.285  16.161   0.156  0.1181 -0.0584  0.0703
    1W        W53348  16.350  28.232   0.446  0.1784  0.0475  0.0797
    1W        W53349   5.651  15.328   7.696  0.1031 -0.2219 -0.3746
    1W        W53350   4.158   2.928   3.119 -0.3082 -0.0429 -0.0664
    1W        W53351  18.751  14.793   0.801  0.0098 -0.0419  0.1752
    1W        W53352   1.286  22.664   7.646  0.2617  0.0478  0.2265
    1W        W53353   1.431  14.999   0.384 -0.1539 -0.1447 -0.0200
    1W        W53354   8.998  27.643   7.525 -0.0112  0.2821  0.2764
    1W        W53355  29.112  22.160   0.748 -0.0893  0.3526 -0.1820
    1W        W53356  29.690   8.885   0.801  0.0891  0.0306  0.1910
    1W        W53357  25.311  25.438   1.152 -0.0101 -0.1223 -0.0244
    1W        W53358  25.471  18.178   7.141  0.0623  0.0456 -0.2146
    1W        W53359   2.834   9.392   8.606  0.1639  0.2473  0.0716
    1W        W53360   9.408  15.492   9.153  0.0317 -0.0020  0.0522
    1W        W53361   8.563   0.198   7.981  0.4182 -0.1033  0.1489
    1W        W53362  14.685   3.327   8.859  0.3080  0.1428  0.1237
    1W        W53363  18.015  23.860   2.800  0.0298  0.2451  0.1947
    1W        W53364  26.862   0.169   8.715 -0.2070  0.1629 -0.1489
    1W        W53365  27.385  12.516   7.780  0.0894 -0.0386  0.2187
    1W        W53366  18.765  27.004   2.440 -0.2494 -0.3914 -0.1715
    1W        W53367   2.083  25.975   9.000 -0.0794 -0.0860 -0.1135
    1W        W53368   6.981   1.236   1.113  0.0258  0.2202 -0.0715
    1W        W53369  11.478  23.780   2.135  0.1487  0.0809  0.0883
    1W        W53370  20.708   9.508   2.497 -0.0074  0.0437  0.1238
    1W        W53371   3.660  18.986   6.668  0.1357 -0.1884 -0.0075
    1W        W53372  22.103  25.816   7.687  0.1073  0.2278  0.2614
    1W        W53373  15.953  12.802   6.923 -0.0809 -0.0780 -0.0782
    1W        W53374  17.724   5.165   2.276 -0.1744  0.1669 -0.1857
    1W        W53375  29.171  23.630   0.072 -0.2586  0.1005 -0.2970
    1W        W53376  18.532  24.544   1.845  0.0865 -0.0223  0.2083
    1W        W53377  22.803  16.008   7.423 -0.0626 -0.0711 -0.1467
    1W        W53378  24.428  25.885   1.004 -0.1032 -0.0130  0.0256
    1W        W53379  11.214  12.881   7.732  0.0723 -0.0264 -0.0067
    1W        W53380  15.784  16.399   0.588  0.1248  0.2683  0.0176
    1W        W53381  25.196  16.231   8.827 -0.1902  0.1216  0.4686
    1W        W53382  21.555  26.097   8.582 -0.2100 -0.2446 -0.2128
    1W        W53383   5.147  16.361   9.055  0.0617  0.0346  0.0442
    1W        W53384   0.621  17.318   9.156 -0.1312  0.0564 -0.2469
    1W        W53385  29.148   8.293   1.822 -0.0799  0.0850  0.0753
    1W        W53386  26.596  11.133   1.059  0.0767  0.0201 -0.0640
    1W        W53387  21.103   6.526   1.913 -0.1438 -0.1045 -0.2468
    1W        W53388  17.190  25.511   3.181 -0.0925 -0.0968 -0.2137
    1W        W53389   3.394  18.655   7.103 -0.1725  0.1569  0.1964
    1W        W53390   4.380  23.397   1.447 -0.3118  0.2538  0.1253
    1W        W53391  20.755   5.779   8.721  0.0951 -0.1836 -0.1516
    1W        W53392   4.816   1.325   3.664  0.0296 -0.2128  0.0775
    1W        W53393  22.693  27.960   1.215  0.0714  0.0875 -0.1728
    1W        W53394  13.610  10.440   8.867  0.1977  0.0124 -0.0445
    1W        W53395  21.037   4.832   8.213 -0.0532  0.1147 -0.0196
    1W        W53396  25.009  11.590   7.486  0.1403 -0.0192 -0.2527
    1W        W53397   4.335  18.978   2.045  0.0088 -0.2014  0.1732
    1W        W53398  11.165   8.653   8.393  0.1370 -0.2081  0.1506
    1W        W53399   4.545  17.288   1.803 -0.1427  0.2511  0.2963
    1W        W53400  24.673  16.970   9.440  0.2321  0.1005 -0.0965
    1W        W53401   5.978  10.777   2.143  0.0924  0.3448  0.1559
    1W        W53402  22.125  23.769   6.811  0.2377  0.1145  0.1261
    1W        W53403  24.628  10.577   1.889 -0.0679  0.1453  0.2224
    1W        W53404  17.160   6.366   1.334  0.1424  0.0986  0.2796
    1W        W53405  26.015  13.532   5.512  0.0523  0.0105  0.0716
    1W        W53406   9.043  24.861   1.251  0.5005 -0.0082  0.2697
    1W        W53407  23.753  23.837   1.276  0.2327  0.0484 -0.3651
    1W        W53408  19.428   1.048   9.211  0.1165 -0.1198  0.3928
    1W        W53409   7.242  13.400   7.732 -0.0793  0.0406  0.1029
    1W        W53410  28.950  20.562   6.127 -0.1437  0.0182  0.0131
    1W        W53411  28.057  26.039   7.419 -0.1172 -0.0541  0.0550
    1W        W53412  16.798   7.882   0.058 -0.0466  0.0332 -0.0649
    1W        W53413  14.608   4.433   0.422 -0.3397 -0.0065  0.0397
    1W        W53414  23.313  12.372   7.724 -0.1326 -0.0202 -0.0679
    1W        W53415  22.864  26.340   7.973 -0.1600 -0.1594 -0.0814
    1W        W53416  27.956  18.060   2.054 -0.2015 -0.0638  0.4453
    1W        W53417  18.474   7.105   1.840 -0.2248 -0.1888 -0.1794
    1W        W53418  27.536  11.478   6.219  0.2426  0.1144 -0.1171
    1W        W53419  12.368  21.326   9.197 -0.1409  0.1356  0.0797
    1W        W53420  12.973  11.699   8.594 -0.0088 -0.1708 -0.1559
    1W        W53421   4.331  26.211   1.208 -0.0087  0.0854 -0.2495
    1W        W53422  14.875  25.727   8.758  0.2099 -0.0958  0.1450
    1W        W53423   3.030  11.184   7.392 -0.1700  0.0598 -0.1257
    1W        W53424  24.076  18.335   1.522  0.0511  0.0557  0.2796
    1W        W53425   5.873   9.463   2.497 -0.0654  0.2069  0.0678
    1W        W53426   7.833   8.779   7.981 -0.0926  0.0594  0.0048
    1W        W53427  23.117   4.451   2.510 -0.1072  0.1570  0.1413
    1W        W53428  15.886   2.879   7.516 -0.0622  0.1272  0.2965
    1W        W53429  17.111   1.795   3.034 -0.3562 -0.0440  0.0028
    1W        W53430  17.315   7.659   1.131 -0.1607  0.1730  0.3283
    1W        W53431   2.029  26.219   2.145  0.1378 -0.0140  0.1154
    1W        W53432  22.218  21.106   1.344 -0.1639  0.0876  0.3079
    1W        W53433  26.932   9.434   6.215  0.0788 -0.1876  0.0358
    1W        W53434  22.115  10.166   7.817  0.1256  0.4283  0.1969
    1W        W53435  16.161  10.489   8.503  0.0461 -0.1907 -0.0667
    1W        W53436  22.979   6.015   1.880 -0.1746  0.1213 -0.1829
    1W        W53437  27.438   4.755   1.413  0.0398 -0.2539 -0.0689
    1W        W53438  28.674  14.190   1.580  0.0595  0.2164 -0.1311
    1W        W53439   5.076  13.948   7.816  0.3323  0.1609 -0.0395
    1W        W53440  23.864   4.831   3.134 -0.2375  0.0134  0.0839
    1W        W53441  27.911   6.396   9.376 -0.0403  0.0557 -0.3441
    1W        W53442   5.801  11.928   0.688 -0.0087  0.0824  0.0140
    1W        W53443   2.754  25.163   0.964  0.0246 -0.0098  0.1820
    1W        W53444  15.060   0.839   8.495 -0.0948  0.3362 -0.1018
    1W        W53445  14.810   1.043   1.089 -0.0949  0.0835 -0.0097
    1W        W53446  25.859   6.843   1.680  0.0287 -0.4760 -0.1004
    1W        W53447   6.309  11.734   1.896  0.0605  0.1884  0.0766
    1W        W53448   2.637   2.597   0.687 -0.2791  0.0688 -0.2565
    1W        W53449  16.420   0.360   2.448  0.0846  0.1717  0.0051
    1W        W53450  20.453  15.373   7.659 -0.0890 -0.1479  0.0744
    1W        W53451  27.092  11.705   1.988  0.0889 -0.0473 -0.1199
    1W        W53452   3.080  12.276   8.253  0.1049 -0.0050 -0.0353
    1W        W53453  13.742  17.794   7.857 -0.0841 -0.1311  0.3291
    1W        W53454   7.356   8.223   0.321 -0.4461  0.0839  0.1233
    1W        W53455  27.485   3.864   0.357  0.0167 -0.2600  0.0385
    1W        W53456   4.362  22.843   5.812 -0.2134 -0.0780  0.2027
    1W        W53457  20.602  28.556   0.391 -0.4031 -0.0642  0.0423
    1W        W53458  18.008  24.430   7.734 -0.1294  0.0535  0.0660
    1W        W53459  10.286  18.047   8.427  0.0783  0.0230  0.0976
    1W        W53460  17.545   2.839   8.243  0.1075  0.2841 -0.1833
    1W        W53461   3.050   5.436   8.615 -0.2523 -0.0196 -0.4503
    1W        W53462  16.275   3.028   6.595 -0.0906  0.1817 -0.1234
    1W        W53463   9.763  13.019   7.558 -0.1387 -0.1327  0.0092
    1W        W53464  15.965  15.750   8.890  0.0768  0.1115 -0.1080
    1W        W53465  22.167  28.073   2.231  0.1580  0.0041 -0.1401
    1W        W53466  29.239   8.814   0.508  0.0059  0.0203  0.3043
    1W        W53467  11.253  19.864   6.769  0.1334  0.1755 -0.1039
    1W        W53468   6.576  11.516   7.206 -0.0045 -0.0152  0.1459
    1W        W53469  23.891  19.902   0.864 -0.1678 -0.0618  0.1977
    1W        W53470   7.828   2.598   8.711 -0.0813 -0.1021 -0.0811
    1W        W53471  14.990  21.446   7.370 -0.1035  0.0450  0.0383
    1W        W53472   7.516  22.429   9.290  0.0642 -0.2292  0.0447
    1W        W53473  14.901  12.006   1.459  0.0908 -0.0369 -0.0125
    1W        W53474   2.616  24.270   6.289  0.1748 -0.0116  0.0687
    1W        W53475  24.002   3.299   7.942  0.3344  0.1259 -0.0062
    1W        W53476   2.167   9.663   8.546  0.1096 -0.1588 -0.0080
    1W        W53477   6.482  23.545   6.289 -0.2111  0.0062  0.1411
    1W        W53478  22.781  11.508   0.251 -0.2977 -0.0335 -0.1515
    1W        W53479  22.792  10.244   1.607 -0.2873 -0.0380  0.0479
    1W        W53480  11.397   1.146   0.267  0.0970 -0.0845  0.0756
    1W        W53481   1.117  18.072   0.373  0.0279  0.1020 -0.0914
    1W        W53482   1.884  10.270   7.683 -0.0502  0.0206 -0.1628
    1W        W53483  27.458  24.999   1.924  0.0510  0.0991  0.2202
    1W        W53484   4.559  25.003   7.877 -0.0887 -0.1860  0.1553
    1W        W53485  26.879   2.971   7.333 -0.0992  0.0925  0.1090
    1W        W53486  11.934   0.786   7.494  0.1431  0.0848  0.0566
    1W        W53487   4.164   5.901   0.581  0.0897  0.0507 -0.0352
    1W        W53488  23.532  10.126   1.240  0.0606  0.1820  0.4103
    1W        W53489   1.227  22.844   8.537  0.4060  0.1400 -0.1365
    1W        W53490  13.752   0.530   6.870 -0.2676 -0.1241 -0.1110
    1W        W53491   4.818  26.796   9.230 -0.0232 -0.2495  0.0810
    1W        W53492  22.575   5.200   8.055  0.0706 -0.2674  0.1833
    1W        W53493  20.289  20.792   2.475 -0.2302  0.0270 -0.0244
    1W        W53494   4.787   7.170   1.573 -0.2550 -0.0696 -0.2068
    1W        W53495  19.007  20.783   8.720  0.2138 -0.0745  0.1505
    1W        W53496  19.474  10.823   1.560 -0.1598 -0.0170 -0.2551
    1W        W53497   2.000   1.829   6.453  0.1895 -0.0052  0.0280
    1W        W53498  16.154  13.871   0.906 -0.1339 -0.1304 -0.0608
    1W        W53499   3.427  11.243   0.946 -0.1788 -0.2898 -0.0280
    1W        W53500  17.941   1.768   0.422 -0.1530 -0.0606 -0.1034
    1W        W53501   4.406  22.315   0.792  0.0962  0.1520  0.2124
    1W        W53502  25.203  21.466   8.984 -0.1701  0.1660  0.1491
    1W        W53503   6.239  26.110   0.988 -0.0269 -0.0496  0.2983
    1W        W53504   0.565  15.345   2.731  0.2290  0.1331  0.0498
    1W        W53505  26.778  20.744   2.685 -0.1736 -0.1287  0.0249
    1W        W53506  19.274   5.219   8.511  0.0872  0.1357  0.0209
    1W        W53507   8.111  14.326   8.408 -0.1596 -0.0293  0.2531
    1W        W53508  21.725  15.256   7.334 -0.1512  0.0053 -0.1890
    1W        W53509  20.850  22.998   7.946  0.0375 -0.1006  0.2253
    1W        W53510  25.144  18.147   2.539 -0.2204  0.1197 -0.0262
    1W        W53511  28.415  18.656   0.732  0.1295  0.0887 -0.3283
    1W        W53512  14.878  15.098   8.071 -0.0779 -0.1299  0.2982
    1W        W53513  20.230  25.676   8.923 -0.0352 -0.1591 -0.2287
    1W        W53514  20.485  26.802   2.750 -0.0265  0.0372 -0.0453
    1W        W53515  26.455  14.640   7.582 -0.0862  0.3140 -0.0523
    1W        W53516  24.345  28.351   1.506 -0.2106  0.2745 -0.0239
    1W        W53517   3.771   8.132   0.756  0.1999  0.0916  0.0142
    1W        W53518  19.487  21.743   0.320  0.1683  0.3100 -0.1049
    1W        W53519  23.436   4.929   2.401 -0.0922 -0.0820 -0.1741
    1W        W53520   5.078  23.688   0.875  0.4144 -0.1249 -0.1720
    1W        W53521  13.858   3.885   6.868 -0.1765 -0.1671  0.1343
    1W        W53522  26.071  27.187   7.428 -0.1450 -0.0407  0.1033
    1W        W53523  15.933  18.373   0.297 -0.2970 -0.0699 -0.0556
    1W        W53524   6.412  27.144   8.880 -0.0506 -0.0177 -0.1961
    1W        W53525  17.030  25.066   2.233  0.3010 -0.3926  0.0942
    1W        W53526   9.231  19.447   8.312 -0.2668 -0.0625 -0.0758
    1W        W53527   4.199   8.508   1.918  0.3650  0.1771 -0.0734
    1W        W53528  19.774  11.630   1.080 -0.0485 -0.0447  0.2511
    1W        W53529  20.750  23.873   8.139 -0.1270  0.0852  0.0944
    1W        W53530   4.471  13.176   9.407 -0.3383 -0.1796  0.1287
    1W        W53531  15.857  14.901   0.277 -0.3122 -0.2489 -0.0159
    1W        W53532  19.513  17.035   2.154  0.0532  0.0997  0.2009
    1W        W53533  22.593  10.072   2.064  0.0578  0.1394 -0.1584
    1W        W53534   5.943  28.634   2.279  0.0566  0.1844 -0.1365
    1W        W53535   2.391   2.623   6.310 -0.1709 -0.1869 -0.1629
    1W        W53536  23.672   7.634   0.238  0.1134 -0.0891 -0.3273
    1W        W53537  19.061  29.006   1.740 -0.0949 -0.4982  0.1815
    1W        W53538   5.449  15.288   8.156  0.1410  0.1079 -0.3071
    1W        W53539   1.434  16.116   1.184  0.0177 -0.1388  0.1640
    1W        W53540   0.876   1.811   8.371 -0.2581  0.1069 -0.0871
    1W        W53541   3.359  22.811   1.369 -0.0566 -0.1028 -0.0923
    1W        W53542  27.338  10.689   0.720  0.1165 -0.1000 -0.0277
    1W        W53543   3.165  26.862   6.012  0.0186 -0.1357  0.0647
    1W        W53544  24.401  27.984   8.589  0.2557  0.1154 -0.2075
    1W        W53545  18.450   2.151   2.060  0.0548  0.6347  0.2261
    1W        W53546  25.131  22.673   7.537 -0.1876  0.2359 -0.0322
    1W        W53547   9.853  14.199   2.290 -0.0506 -0.0910 -0.0423
    1W        W53548  29.265  24.426   0.593  0.1983 -0.0943 -0.1494
    1W        W53549  15.899   0.729   7.284  0.0226 -0.1028 -0.0346
    1W        W53550  14.399  14.636   0.807  0.2494  0.0650  0.0914
    1W        W53551   1.050   1.772   1.969  0.0815 -0.0033 -0.0847
    1W        W53552  21.149   7.154   7.816  0.0462  0.0100  0.2523
    1W        W53553  16.359   9.603   0.454  0.0374 -0.0116  0.5130
    1W        W53554   6.225  24.344   1.444  0.2029 -0.0516 -0.2681
    1W        W53555   7.433  20.630   2.432  0.0380  0.0344 -0.2411
    1W        W53556  10.313  27.930   9.230  0.2286 -0.2437  0.0836
    1W        W53557   1.162  29.159   1.165 -0.0187 -0.0190 -0.1395
    1W        W53558  11.879   4.631   0.336 -0.3991 -0.1550 -0.1089
    1W        W53559  10.897  20.645   1.334  0.2512 -0.1497 -0.1114
    1W        W53560   4.034  25.633   7.553  0.1538  0.0446  0.2205
    1W        W53561  25.087  29.504   8.805  0.1698  0.1110  0.1448
    1W        W53562  27.362  14.521   8.159 -0.0581  0.0822 -0.0378
    1W        W53563  24.316  27.675   1.770  0.3375  0.1270  0.1886
    1W        W53564   5.094   1.288   0.710  0.0709  0.2261 -0.0499
    1W        W53565  27.976   8.436   8.996 -0.2351  0.0509 -0.3328
    1W        W53566   5.830  13.132   0.943  0.0808  0.1915 -0.2874
    1W        W53567  16.162  23.992   2.091  0.4043  0.2293  0.0170
    1W        W53568  29.596  28.127   8.125  0.1935  0.0960  0.4353
    1W        W53569  19.036  26.008   3.754 -0.2745 -0.1374 -0.2468
    1W        W53570  19.916  15.251   6.814  0.2841  0.1150 -0.0183
    1W        W53571  26.977   4.458   8.420  0.0353 -0.1118 -0.1373
    1W        W53572  10.494   1.296   0.535  0.0030  0.2494 -0.2872
    1W        W53573  12.115   5.142   6.866  0.1254 -0.0257  0.0791
    1W        W53574  21.925   8.089   0.167  0.1320 -0.3006 -0.0742
    1W        W53575  23.770   4.781   0.202  0.0164 -0.0644  0.1503
    1W        W53576  22.235  27.881   8.348  0.3781  0.1923  0.2102
    1W        W53577   9.968  29.668   3.023  0.2576  0.2347  0.2789
    1W        W53578   5.313  19.324   7.889  0.2126 -0.0571  0.0049
    1W        W53579   4.714   5.985   0.729  0.2267 -0.0188  0.2093
    1W        W53580  29.106   7.519   7.685 -0.1814  0.2303  0.0548
    1W        W53581   7.960  20.722   0.377 -0.0882 -0.2791 -0.0873
    1W        W53582  27.730   9.846   7.929 -0.2348 -0.0968 -0.2078
    1W        W53583  26.832  18.551   7.054 -0.5215  0.0671  0.2017
    1W        W53584  15.864  22.894   0.273  0.2572 -0.2091  0.3271
    1W        W53585  28.878  13.087   6.455 -0.0332 -0.1232 -0.1104
    1W        W53586  20.403  15.409   7.025 -0.0694  0.1043 -0.0018
    1W        W53587  21.399  22.413   2.654  0.1836  0.2291 -0.2638
    1W        W53588   3.904   7.209   0.316 -0.0800  0.3739 -0.2013
    1W        W53589  13.172  18.576   7.821 -0.1018  0.0118  0.1034
    1W        W53590  15.689   4.401   1.852 -0.2721 -0.0706 -0.2049
    1W        W53591  25.701   7.781   6.364  0.0313 -0.2979 -0.0141
    1W        W53592   1.421   4.805   1.223  0.0712  0.4044  0.3186
    1W        W53593  12.137  26.007   2.881  0.0088  0.0654 -0.0200
    1W        W53594  24.871  14.363   8.173  0.1869  0.2209  0.1689
    1W        W53595  12.735   9.027   8.743 -0.2279 -0.2356 -0.0098
    1W        W53596   5.068   4.097   2.945  0.2004 -0.1746  0.3524
    1W        W53597   5.741  14.855   1.604  0.2090  0.0598  0.1080
    1W        W53598  15.268   7.395   0.104 -0.0693 -0.0558  0.1013
    1W        W53599  11.241  28.838   2.564  0.4469 -0.2172  0.2494
    1W        W53600  26.974   6.417   0.804  0.0798 -0.2095  0.2081
    1W        W53601   5.003   0.060   2.963 -0.0356  0.1037 -0.3132
    1W        W53602   7.446  15.638   6.452 -0.1058 -0.1398 -0.0969
    1W        W53603  10.252  20.901   8.523 -0.2751  0.2701  0.0055
    1W        W53604  23.031   9.666   2.961 -0.4185 -0.4613 -0.1103
    1W        W53605  13.924  15.564   0.947  0.0498 -0.1574  0.0024
    1W        W53606  15.988  28.866   0.826 -0.1052  0.0748  0.3088
    1W        W53607  11.515  29.129   0.927  0.1330  0.1228  0.1603
    1W        W53608  19.600  26.480   6.596  0.3976  0.0078  0.3180
    1W        W53609  21.486  12.498   6.267 -0.2679  0.1313 -0.0260
    1W        W53610  13.975  25.693   7.370  0.1636 -0.3560 -0.1650
    1W        W53611   2.363  10.328   0.343  0.0545 -0.0497  0.0298
    1W        W53612  16.925  23.949   0.413 -0.0336  0.1870 -0.1577
    1W        W53613   0.447  25.210   1.980  0.0268 -0.0732 -0.1631
    1W        W53614  26.740  20.398   3.036 -0.4008 -0.3131  0.0049
    1W        W53615   7.129  10.629   7.093  0.0866  0.3162  0.1035
    1W        W53616  23.009  21.314   9.422 -0.2531  0.0660 -0.0808
    1W        W53617  23.794  19.013   9.044  0.3824  0.1018 -0.1714
    1W        W53618  17.415  25.184   7.469 -0.0023 -0.2317 -0.1979
    1W        W53619  25.614  24.920   7.918  0.1043  0.2755 -0.0898
    1W        W53620  16.867  22.024   2.322  0.0433  0.1248 -0.2484
    1W        W53621   9.990   6.586   8.587  0.3953  0.2130 -0.1697
    1W        W53622  20.181   6.675   6.922  0.0525 -0.0311 -0.0624
    1W        W53623   8.840  25.937   0.177 -0.0504 -0.1455 -0.3876
    1W        W53624   8.951  11.898   0.420 -0.0202 -0.3328  0.2408
    1W        W53625   4.709   7.450   0.656 -0.0121  0.1881  0.3928
    1W        W53626   7.521  16.474   8.575 -0.3245  0.1886 -0.1696
    1W        W53627   8.584  24.552   5.918 -0.4186  0.1998  0.1263
    1W        W53628  17.956  18.870   8.977  0.5246  0.1534  0.0326
    1W        W53629  16.504   7.164   7.311 -0.3038 -0.0417  0.0090
    1W        W53630  27.470  28.489   8.463 -0.0628 -0.1021  0.0619
    1W        W53631   8.180  22.143   0.330  0.3032  0.0308 -0.0732
    1W        W53632   2.223  21.874   5.960  0.1215  0.1022  0.2297
    1W        W53633  13.867   3.249   8.394 -0.3327  0.2494  0.2519
    1W        W53634  20.428   9.866   6.569 -0.1069  0.0252  0.1863
    1W        W53635  24.625  26.372   0.219 -0.3939 -0.1014  0.0804
    1W        W53636   6.265  22.363   8.854  0.0698  0.0792 -0.1033
    1W        W53637  26.072  22.288   2.354 -0.0085  0.2827  0.1629
    1W        W53638  13.262  23.003   6.413  0.0998 -0.0484 -0.1931
    1W        W53639  13.030  18.579   8.291 -0.1075 -0.0219  0.1156
    1W        W53640  24.107  11.875   7.383 -0.3004  0.0129 -0.1083
    1W        W53641  18.480   0.187   8.045  0.0634 -0.3127 -0.0732
    1W        W53642  21.038  26.979   8.964 -0.0264  0.2111  0.2639
    1W        W53643  27.354  19.918   7.771  0.2371  0.0331 -0.4573
    1W        W53644  20.034  20.090   1.810  0.0392  0.2498  0.1562
    1W        W53645   5.516   5.630   3.638 -0.0732  0.2469  0.1414
    1W        W53646   0.753  19.741   6.521  0.0284 -0.1435  0.0089
    1W        W53647   2.933  26.791   2.424  0.2281 -0.0329  0.0031
    1W        W53648   1.225   4.286   8.182  0.0369 -0.0092  0.1557
    1W        W53649   8.305  17.618   1.391  0.0140  0.0190  0.2625
    1W        W53650   8.926  17.938   6.126  0.2757  0.1038  0.1465
    1W        W53651  28.080   4.984   0.350 -0.1531  0.3044  0.3748
    1W        W53652  19.669  19.739   1.818 -0.1509 -0.2115 -0.2488
    1W        W53653  27.687   1.480   2.471  0.1159  0.0911  0.2192
    1W        W53654  27.513  13.100   0.135  0.1025 -0.0596  0.0443
    1W        W53655  21.876  25.348   0.479 -0.0201 -0.0907  0.2165
    1W        W53656   1.412  20.692   9.265  0.0247 -0.1749  0.1803
    1W        W53657  10.609  28.980   1.974  0.1264  0.2104 -0.1266
    1W        W53658  23.611  21.033   7.481 -0.3438 -0.1304 -0.0678
    1W        W53659   4.057   9.044   1.215 -0.1084 -0.0886 -0.1821
    1W        W53660  28.320   8.553   0.964  0.1431 -0.0014 -0.1687
    1W        W53661  27.786   6.923   9.355 -0.2084 -0.2916  0.1156
    1W        W53662  13.059  23.258   7.652  0.2995  0.0191 -0.2166
    1W        W53663   9.275   4.792   2.159  0.0258  0.0848  0.4134
    1W        W53664   7.430  17.330   8.060 -0.0401 -0.0372  0.1895
    1W        W53665  19.600  15.442   1.882 -0.1766 -0.1411 -0.0597
    1W        W53666   6.357  20.265   1.575  0.3883  0.1095  0.1920
    1W        W53667   6.365   8.797   2.697 -0.0192 -0.0470  0.0649
    1W        W53668   8.690  11.993   9.041  0.0277  0.1803  0.0535
    1W        W53669   5.594  11.432   8.248  0.0903  0.2125 -0.1378
    1W        W53670  25.091  22.161   2.727  0.0417  0.2297  0.0971
    1W        W53671  28.513  23.907   7.418  0.0054  0.1931  0.1804
    1W        W53672  14.899  24.248   6.668  0.1075 -0.0604  0.0261
    1W        W53673  27.346  19.694   9.439  0.2440 -0.2217  0.3576
    1W        W53674   7.121   3.490   2.657 -0.0489 -0.0776  0.1834
    1W        W53675   5.877  29.409   7.517  0.1231  0.5411 -0.1417
    1W        W53676   4.321   6.641   7.263  0.0533  0.0123  0.0939
    1W        W53677   6.448   8.516   3.125 -0.0451 -0.1262 -0.1281
    1W        W53678  16.456   6.314   7.007 -0.1928  0.0238 -0.1000
    1W        W53679  24.224  10.697   9.016  0.0021  0.3378  0.0196
    1W        W53680  24.273  22.962   1.382 -0.0999 -0.0093  0.0627
    1W        W53681   7.605   5.055   2.596  0.1096  0.1551 -0.1094
    1W        W53682   4.123  25.910   6.036 -0.1936 -0.0279  0.0007
    1W        W53683  26.451  27.116   6.957 -0.2031  0.1156  0.0928
    1W        W53684  16.760  14.924   1.817  0.0042 -0.1739 -0.0083
    1W        W53685  18.922   6.668   0.106 -0.1253  0.4831 -0.2160
    1W        W53686  12.028  12.927   2.399 -0.4805 -0.2541  0.1844
    1W        W53687  14.218   5.026   8.236  0.2974  0.0277  0.2220
    1W        W53688  19.338  24.014   2.160  0.1331  0.1245 -0.1786
    1W        W53689  16.845   3.587   8.541 -0.1813  0.0580 -0.2294
    1W        W53690  10.094  22.453   2.523 -0.3628  0.2034  0.0356
    1W        W53691  15.107  11.260   0.581  0.1569  0.0811  0.1893
    1W        W53692  10.200   3.681   3.436 -0.0549 -0.0685 -0.0888
    1W        W53693  23.775  26.864   3.409 -0.2923 -0.3243  0.1992
    1W        W53694  17.777  29.402   7.369  0.1823  0.0004  0.1562
    1W        W53695  18.791  14.790   7.715 -0.2315  0.3522  0.1663
    1W        W53696  11.248   3.414   2.911  0.0443  0.0021  0.2116
    1W        W53697  10.708  24.633   8.590 -0.0315 -0.3783  0.0564
    1W        W53698  13.489  16.554   0.736 -0.0497 -0.0415  0.2203
    1W        W53699  12.510  20.780   2.186  0.2061  0.0391 -0.0531
    1W        W53700  25.670   6.122   7.579 -0.1238  0.1411  0.2701
    1W        W53701   3.199  15.698   6.409  0.0270 -0.0457  0.2313
    1W        W53702  18.102  28.821   2.781  0.0925 -0.0490  0.1094
    1W        W53703   5.187  24.415   2.287 -0.0518 -0.0779  0.1021
    1W        W53704   7.790   8.639   3.159 -0.0532  0.1093 -0.3361
    1W        W53705  17.752  16.707   7.631 -0.0761  0.0861 -0.0029
    1W        W53706   8.639   1.917   7.781  0.3803  0.1789 -0.3324
    1W        W53707  22.900  14.590   8.250 -0.1058 -0.0173  0.0874
    1W        W53708  23.909   7.779   2.095  0.3099  0.2820 -0.1571
    1W        W53709  20.933  26.754   6.732  0.0800  0.0682  0.0506
    1W        W53710  25.029  15.882   7.749 -0.2171 -0.0139  0.2634
    1W        W53711   3.249   1.745   0.539  0.0899  0.1587  0.0677
    1W        W53712  27.431  28.857   7.806 -0.0498  0.1155  0.0413
    1W        W53713  15.572   4.921   1.041  0.2207  0.3156 -0.0855
    1W        W53714  19.623  27.171   1.792 -0.1068 -0.0769 -0.3428
    1W        W53715  12.409   0.752   7.703 -0.0452 -0.1621 -0.2433
    1W        W53716  14.279   2.478   9.411 -0.0352  0.0305 -0.0436
    1W        W53717  11.047  11.416   0.084  0.1956  0.0960  0.0154
    1W        W53718  16.823  18.481   0.000  0.1334 -0.3041  0.0635
    1W        W53719   5.610   3.625   7.397  0.1499  0.2230  0.0436
    1W        W53720   1.788   9.775   9.280  0.1345  0.2631  0.0801
    1W        W53721  21.011  25.308   2.096  0.0649 -0.3991  0.0232
    1W        W53722  17.643  25.193   0.306  0.0682  0.1898 -0.1707
    1W        W53723   5.683   8.649   8.043 -0.1615  0.2890  0.0980
    1W        W53724   6.992   3.157   7.332  0.0685 -0.0851 -0.0100
    1W        W53725   4.294   1.974   2.224 -0.0682 -0.0720  0.2411
    1W        W53726   2.459   2.130   6.419 -0.2534 -0.1986  0.1436
    1W        W53727  10.915  26.139   1.003  0.1596 -0.3356  0.0257
    1W        W53728  16.295  10.955   8.463 -0.0603 -0.0166  0.0086
    1W        W53729   7.491   8.277   0.825 -0.1587 -0.1275 -0.2370
    1W        W53730  23.784   8.508   1.413 -0.2186 -0.2222 -0.2765
    1W        W53731   2.726  14.716   7.284 -0.1631  0.0839  0.0995
    1W        W53732  20.131  24.680   9.438  0.2904  0.0326 -0.1585
    1W        W53733  11.379   4.971   8.535  0.0218  0.0829 -0.0985
    1W        W53734  10.182  11.999   8.133 -0.2520  0.0631  0.3689
    1W        W53735   8.415   5.497   2.231 -0.1044 -0.0894 -0.2981
    1W        W53736  24.262   8.242   7.231 -0.2676  0.1198  0.1887
    1W        W53737   9.934  24.099   1.760 -0.1256  0.0495 -0.3040
    1W        W53738   6.942   9.804   8.517  0.2530 -0.2048  0.0725
    1W        W53739  11.122  27.512   1.550 -0.1583 -0.0619 -0.0654
    1W        W53740   8.512  27.039   8.950  0.1921  0.0776 -0.0540
    1W        W53741  13.684  11.394   8.063 -0.1799  0.0886  0.3249
    1W        W53742   4.991   6.839   1.227  0.0477 -0.3616  0.0649
    1W        W53743   5.065   2.392   2.225 -0.1877  0.4730  0.4357
    1W        W53744   8.359   7.187   3.106  0.3933  0.2595  0.3565
    1W        W53745  24.425  18.696   1.973  0.4316 -0.3790 -0.0698
    1W        W53746  11.006   9.507   1.908  0.1044  0.0772  0.1041
    1W        W53747  10.978   2.138   0.472 -0.2833  0.2311 -0.0214
    1W        W53748  13.523  13.800   1.585  0.2330 -0.1449  0.1481
    1W        W53749  13.484  17.523   1.511 -0.2227  0.1144  0.3229
    1W        W53750  10.651  21.728   0.118 -0.3567 -0.1900  0.0050
    1W        W53751  21.946  15.742   7.922 -0.0672 -0.0439 -0.1886
    1W        W53752  13.482   6.747   7.470  0.2931 -0.2273  0.2485
    1W        W53753  20.517  26.080   8.982 -0.0408  0.0262 -0.0451
    1W        W53754  19.343  10.351   0.972  0.5684  0.5310  0.0163
    1W        W53755   3.499  26.011   5.703  0.0892  0.1472  0.0348
    1W        W53756   6.280   7.759   0.338  0.0567 -0.0224 -0.0632
    1W        W53757  18.209  22.491   0.832 -0.0890  0.0774 -0.1390
    1W        W53758  18.235  29.625   0.096 -0.1441  0.3871 -0.0557
    1W        W53759   1.510  23.100   9.458 -0.0104 -0.2391  0.1532
    1W        W53760  11.078  19.129   6.527  0.1931  0.1067 -0.0577
    1W        W53761   9.182  26.769   6.346  0.0036 -0.0774  0.1316
    1W        W53762  16.666  16.590   8.244 -0.3254  0.2885  0.0244
    1W        W53763   7.331  19.062   0.139  0.1231  0.1918 -0.2340
    1W        W53764   3.067  13.567   0.418 -0.0324  0.2573 -0.0763
    1W        W53765   2.603  21.486   5.794  0.3165 -0.1961  0.0145
    1W        W53766   8.032  13.536   7.743 -0.0556  0.0852 -0.4489
    1W        W53767  13.262  22.700   8.369 -0.3665  0.2405 -0.1208
    1W        W53768   1.787  24.928   0.789 -0.2898  0.0749  0.3340
    1W        W53769  19.235   4.052   0.804  0.1344  0.1053  0.0363
    1W        W53770   1.166  15.654   9.128  0.0553  0.1568 -0.1487
    1W        W53771  17.932   3.021   7.857  0.2498 -0.0574 -0.2137
    1W        W53772   7.540  20.450   0.375  0.1229  0.1916  0.0210
    1W        W53773   6.835   2.031   2.961 -0.0897  0.0734  0.1542
    1W        W53774  21.059  20.849   2.140  0.3603  0.0374  0.1779
    1W        W53775   5.296  21.876   1.499 -0.0726  0.1362 -0.1897
    1W        W53776  17.686  12.300   9.291 -0.1352 -0.0622 -0.0742
    1W        W53777  11.943   5.067   3.630 -0.1979  0.0050  0.0104
    1W        W53778  11.549  20.071   1.240 -0.1499 -0.3157 -0.0741
    1W        W53779  18.546   0.408   1.768  0.1506 -0.2262  0.0095
    1W        W53780  28.358  17.038   6.574 -0.3126 -0.1311 -0.2679
    1W        W53781   5.281   0.297   0.265  0.2489  0.2980  0.2024
    1W        W53782   3.714   3.026   2.450 -0.0064  0.1972 -0.1746
    1W        W53783  14.194   4.077   1.256 -0.1661 -0.2080  0.2472
    1W        W53784   7.392   8.141   3.415 -0.0174  0.2472  0.0548
    1W        W53785   3.394  16.268   1.729 -0.1034  0.1078 -0.2051
    1W        W53786   0.981  22.363   9.442 -0.0182 -0.1427  0.3959
    1W        W53787   5.250  15.462   6.645 -0.2537  0.4497  0.1094
    1W        W53788  21.646  27.372   6.651  0.1582 -0.1913 -0.0968
    1W        W53789  26.162  15.752   6.337  0.2651 -0.3818  0.0863
    1W        W53790  28.947   0.422   6.744 -0.1255  0.0284 -0.0246
    1W        W53791  10.466  27.119   8.180  0.1169 -0.2803  0.1373
    1W        W53792  12.651  24.355   1.934  0.3121  0.0619  0.1647
    1W        W53793   5.969  20.460   7.528 -0.1523 -0.0635  0.2745
    1W        W53794  10.070  13.424   7.630  0.1121  0.1317  0.0601
    1W        W53795  18.551   8.329   8.607  0.2072 -0.1782  0.0584
    1W        W53796  18.220  18.254   7.065  0.0737  0.2199 -0.1018
    1W        W53797  28.243  20.757   0.202 -0.3493  0.0486 -0.1440
    1W        W53798  18.913  26.386   7.276  0.0179 -0.0040 -0.0247
    1W        W53799   3.392   5.158   2.953 -0.1778  0.1044 -0.2225
    1W        W53800  13.778   3.302   6.908  0.1545  0.0649 -0.1508
    1W        W53801  27.030  13.129   0.988  0.0739 -0.2050 -0.1154
    1W        W53802  21.478  19.850   8.134 -0.0868  0.1629  0.0307
    1W        W53803  10.904  13.704   1.031  0.2422 -0.2378 -0.0252
    1W        W53804  19.346  29.425   8.729  0.0951 -0.2009 -0.1977
    1W        W53805   8.159  25.298   1.661  0.0585 -0.2755 -0.2889
    1W        W53806  29.559   8.407   0.628 -0.0915  0.0880  0.2590
    1W        W53807  10.912  16.103   7.761  0.0281  0.0012 -0.0790
    1W        W53808   3.460  10.099   6.775 -0.0504  0.1061 -0.2706
    1W        W53809   9.303  19.536   9.387  0.2206 -0.1161 -0.1218
    1W        W53810  10.156  17.794   7.166  0.1728  0.1414 -0.0196
    1W        W53811  18.604   2.977   0.301 -0.3613 -0.0720 -0.0194
    1W        W53812  21.063  15.914   6.866  0.1375 -0.2284  0.2369
    1W        W53813  10.404   1.200   1.075  0.0491  0.0174  0.0238
    1W        W53814  17.951   7.133   1.558  0.3123 -0.3052  0.2120
    1W        W53815  22.072  11.828   0.367 -0.0208 -0.2215  0.2555
    1W        W53816  25.117  10.903   8.281  0.0555  0.1057  0.2179
    1W        W53817  28.911  28.057   7.383 -0.0848  0.3962  0.0781
    1W        W53818   3.097  23.424   6.316  0.0432 -0.1229  0.0630
    1W        W53819  21.725   3.092   9.344 -0.0726 -0.3384  0.1628
    1W        W53820   5.839  21.856   1.377  0.0501 -0.0833 -0.1390
    1W        W53821   9.683  22.864   6.999 -0.1027  0.1419 -0.0188
    1W        W53822   2.344   1.275   7.476 -0.0330 -0.0987 -0.1358
    1W        W53823   1.018   4.974   1.566 -0.3483 -0.3305  0.0460
    1W        W53824  20.341  20.280   0.479  0.0634  0.1224 -0.1410
    1W        W53825   8.287   6.239   0.241 -0.0196 -0.1927  0.0058
    1W        W53826   0.299   9.544   3.737 -0.1902 -0.0858  0.1959
    1W        W53827  10.903  19.077   7.833  0.3411  0.0331 -0.2630
    1W        W53828  26.967  26.342   0.581 -0.2529 -0.1501  0.4249
    1W        W53829  12.134   2.291   3.012  0.4432 -0.1078  0.0822
    1W        W53830   2.762  12.231   2.292 -0.0317 -0.1577 -0.0512
    1W        W53831  15.684   0.676   3.254  0.3543 -0.2979  0.0705
    1W        W53832   4.251  25.055   0.666 -0.0131 -0.1735  0.0106
    1W        W53833   2.574   3.341   2.613  0.1251  0.1394  0.1998
    1W        W53834  13.588  10.953   7.816 -0.2524  0.0388 -0.3034
    1W        W53835  28.862  21.548   6.430 -0.0080 -0.0838 -0.1504
    1W        W53836  26.924   4.304   2.480  0.1839 -0.1497  0.2541
    1W        W53837   8.291   3.518   7.738 -0.0676 -0.0396 -0.0690
    1W        W53838  18.830   4.299   2.398  0.1086 -0.0344 -0.0103
    1W        W53839  15.378  20.816   9.106 -0.0135  0.2152 -0.0779
    1W        W53840  24.448  14.311   0.983  0.1094 -0.0312 -0.1488
    1W        W53841  18.116  16.576   0.235 -0.0364 -0.1906 -0.1633
    1W        W53842  16.016   8.882   0.462 -0.2022  0.0861  0.2738
    1W        W53843  23.376   8.709   7.954 -0.2024  0.0585 -0.0208
    1W        W53844   3.328   6.131   3.237  0.1890  0.2426  0.0265
    1W        W53845   8.275  18.290   9.005 -0.0251 -0.0901 -0.1532
    1W        W53846   6.445  23.633   1.287  0.2698  0.0179 -0.1193
    1W        W53847  27.295   6.388   9.411 -0.0007 -0.0042 -0.0348
    1W        W53848  11.876  19.332   1.823 -0.0902 -0.1595 -0.1127
    1W        W53849  21.381  15.638   9.259  0.0431 -0.2856  0.0435
    1W        W53850  22.780  15.805   0.553 -0.1523 -0.0507 -0.0712
    1W        W53851  27.737  17.731   7.685 -0.1457 -0.1079  0.0419
    1W        W53852   1.727   1.424   2.378 -0.2829  0.0070 -0.1516
    1W        W53853  11.763   8.602   8.604  0.1077  0.1067  0.1344
    1W        W53854  15.121  23.803   7.306 -0.0090 -0.1697 -0.1286
    1W        W53855   0.029   0.765   7.750  0.0609 -0.2708  0.0486
    1W        W53856  17.113  25.386   3.685 -0.0051 -0.2626 -0.0208
    1W        W53857  15.893  11.173   1.496 -0.1459 -0.1370  0.0888
    1W        W53858   2.086   6.863   7.447 -0.0034  0.1282  0.2055
    1W        W53859   2.657  12.998   8.119 -0.0850  0.3154  0.0037
    1W        W53860   6.972  13.860   7.420  0.0126  0.0751  0.0633
    1W        W53861  24.268  27.748   9.423 -0.0497 -0.1206  0.0642
    1W        W53862  18.660   5.593   2.392  0.1437 -0.0386  0.1373
    1W        W53863  16.027   2.364   6.748  0.2625 -0.2304  0.0055
    1W        W53864  16.352   2.804   7.819  0.1145 -0.2482 -0.1128
    1W        W53865  11.552  19.082   1.418 -0.0320 -0.0809 -0.4751
    1W        W53866  16.023  24.981   2.362  0.0695  0.4980 -0.2570
    1W        W53867  18.748   0.873   1.331  0.0349 -0.1044 -0.0153
    1W        W53868  21.685   4.489   8.457 -0.3582 -0.1037  0.1510
    1W        W53869  25.646  20.034   1.540 -0.0960  0.0087  0.3140
    1W        W53870   7.061   1.055   3.135  0.1041  0.2078  0.2780
    1W        W53871  21.142  22.252   9.041  0.1439 -0.2723 -0.2421
    1W        W53872   6.934  17.718   0.334  0.0423 -0.3516  0.0402
    1W        W53873   1.743   6.475   7.592 -0.1628 -0.1830  0.2684
    1W        W53874  15.454   4.327   3.059  0.1738 -0.0096  0.1976
    1W        W53875  27.122  27.538   8.562  0.2296 -0.0050 -0.3895
    1W        W53876  14.936  19.857   1.228 -0.0941 -0.1198 -0.1676
    1W        W53877   2.812  10.021   7.869 -0.0097  0.0365  0.1475
    1W        W53878  28.552  29.891   1.404 -0.0421  0.1524 -0.0691
    1W        W53879  12.207  14.224   1.394  0.0540  0.1248 -0.1589
    1W        W53880  20.114  28.650   6.754 -0.1376 -0.0720  0.0793
    1W        W53881  16.747  24.467   8.791 -0.0900 -0.1890 -0.1596
    1W        W53882  13.067   8.421   3.042 -0.0884 -0.1840  0.1025
    1W        W53883   1.341  19.353   5.977 -0.0038  0.0592  0.0719
    1W        W53884   9.942  27.102   0.572 -0.1471  0.1286  0.1318
    1W        W53885  11.070   1.619   3.570  0.1740 -0.1606 -0.1414
    1W        W53886  24.884   5.187   8.241  0.1124  0.1207  0.3034
    1W        W53887  14.506  18.590   8.747  0.1227 -0.2550  0.1098
    1W        W53888   5.792  12.335   1.980  0.2908  0.1800  0.3350
    1W        W53889  12.489  25.355   0.747  0.0640  0.2508 -0.1120
    1W        W53890  22.329  16.026   0.637 -0.0298  0.0271  0.0041
    1W        W53891   6.874  12.285   1.498  0.4731  0.2479 -0.0562
    1W        W53892  25.324  14.367   1.398  0.0157 -0.0303 -0.1406
    1W        W53893  24.068  21.221   7.957 -0.1238 -0.0186 -0.0118
    1W        W53894  17.133  27.064   1.974 -0.0190  0.0014  0.1966
    1W        W53895  19.398   9.435   8.873 -0.0194 -0.0610 -0.0990
    1W        W53896   2.144  25.315   1.362  0.1312  0.0635 -0.1557
    1W        W53897  23.291  23.111   7.997  0.0876 -0.2281 -0.2572
    1W        W53898   6.348  28.866   6.761 -0.0368  0.3242 -0.0328
    1W        W53899   5.473   6.079   9.406 -0.1786 -0.1994  0.1753
    1W        W53900  10.957  23.968   7.745 -0.0093  0.0728  0.0640
    1W        W53901   5.833  21.883   6.788 -0.0700  0.1449  0.4971
    1W        W53902   6.377  17.030   5.936 -0.0617  0.0016  0.0973
    1W        W53903  13.445  24.388   1.424 -0.3564 -0.0846 -0.1913
    1W        W53904   2.070   6.268   8.947 -0.1411 -0.1014 -0.0725
    1W        W53905   5.235  24.950   0.869  0.1223 -0.1872  0.2668
    1W        W53906  19.418   7.632   8.964  0.1597 -0.0380  0.1366
    1W        W53907  12.942  15.584   9.464 -0.1384 -0.3042  0.1661
    1W        W53908   4.738  21.339   2.286  0.0375 -0.0793 -0.2651
    1W        W53909  20.616   9.672   0.626  0.1257 -0.0896  0.2190
    1W        W53910   2.962   5.739   0.140  0.1533 -0.0982  0.0314
    1W        W53911   8.063   9.524   3.172 -0.2651 -0.3033  0.2038
    1W        W53912  22.791   6.070   2.383 -0.1958  0.2654 -0.0377
    1W        W53913  24.683   9.193   7.333  0.1265 -0.0394  0.1392
    1W        W53914   1.108  19.821   0.715 -0.0703  0.0550  0.2448
    1W        W53915  15.065  11.367   7.437 -0.0746  0.0834  0.1377
    1W        W53916  14.935   5.032   8.703  0.0156 -0.1560  0.1570
    1W        W53917  13.540  28.221   0.875 -0.0347  0.3347 -0.0925
    1W        W53918  22.902   2.367   3.276 -0.3028  0.0814 -0.2883
    1W        W53919  18.526   9.095   6.864 -0.0030  0.1497  0.1544
    1W        W53920   0.814   0.283   0.274  0.1322 -0.0826 -0.0600
    1W        W53921  14.120  19.279   8.754 -0.0031 -0.0031  0.1934
    1W        W53922  16.768  20.881   7.551 -0.3077 -0.1182  0.0039
    1W        W53923  23.797  29.307   2.913 -0.0093 -0.0649 -0.0337
    1W        W53924  15.351   0.703   9.098  0.2147  0.1265  0.2372
    1W        W53925  24.632  25.677   0.460  0.1775  0.0552  0.0035
    1W        W53926  26.799  24.943   0.341 -0.2263 -0.1003  0.0595
    1W        W53927   0.855   0.533   6.499 -0.1852 -0.1260  0.2871
    1W        W53928   1.785   6.687   9.140 -0.1805 -0.2319  0.2318
    1W        W53929   6.905  16.556   6.370 -0.0803  0.0669 -0.1095
    1W        W53930   4.834  29.017   6.786  0.2907 -0.1114 -0.4368
    1W        W53931   0.988  20.498   2.014 -0.1452 -0.1593  0.1246
    1W        W53932  12.110  20.751   7.601 -0.1971  0.0960  0.2549
    1W        W53933  29.418  12.902   0.810  0.0324 -0.4045 -0.1803
    1W        W53934   0.783  10.811   8.134 -0.0879 -0.1347 -0.0006
    1W        W53935  10.304  11.507   9.034  0.2571  0.4115  0.0680
    1W        W53936  14.763  25.673   2.222  0.1165  0.0612  0.0390
    1W        W53937  27.365  27.993   2.701  0.0566 -0.0538 -0.3416
    1W        W53938   8.439  22.646   1.887  0.2505 -0.4794 -0.0236
    1W        W53939  20.612  14.009   0.086 -0.2226  0.0395 -0.3584
    1W        W53940   9.754   3.892   9.453 -0.0654 -0.1139 -0.0622
    1W        W53941  13.279   1.679   8.862 -0.1467  0.0231  0.2964
    1W        W53942  20.310   1.839   8.048 -0.1300  0.2336  0.0512
    1W        W53943   1.800  24.014   0.506  0.3737  0.2604 -0.2425
    1W        W53944   2.876   8.520   1.899 -0.2070  0.2339  0.1047
    1W        W53945  14.756   9.270   0.140  0.0449  0.3099 -0.2460
    1W        W53946  23.278   7.440   9.381 -0.2179  0.0200  0.0058
    1W        W53947   7.494  14.387   6.886 -0.1796  0.0418  0.2357
    1W        W53948  17.142  23.577   0.051  0.2422 -0.2171 -0.0750
    1W        W53949  23.446  20.874   2.332  0.2164 -0.1263  0.0415
    1W        W53950  12.810  14.149   8.191 -0.3112  0.1063  0.0358
    1W        W53951   0.719  11.119   7.741 -0.3393 -0.0182 -0.1489
    1W        W53952  16.271  12.569   7.310  0.0116  0.0075 -0.1972
    1W        W53953  23.484  26.015   7.096 -0.4234 -0.1959  0.0515
    1W        W53954   2.009  23.869   7.529  0.2775  0.0599 -0.2562
    1W        W53955  22.529  25.361   2.136 -0.1286  0.0540  0.0387
    1W        W53956  26.279   9.513   0.414  0.0919 -0.0684  0.1239
    1W        W53957   3.818  29.585   2.618  0.1424  0.1503  0.0722
    1W        W53958  18.160  20.163   1.169 -0.2367 -0.2068  0.0963
    1W        W53959   7.693   1.949   9.401  0.0364 -0.0168  0.0609
    1W        W53960  11.053   8.700   7.576  0.0933 -0.0118  0.0597
    1W        W53961  16.241  17.642   1.793 -0.2229  0.3563 -0.2814
    1W        W53962  21.305   6.995   1.172 -0.2476  0.0110  0.1228
    1W        W53963   7.089  18.755   6.777 -0.0195  0.0786  0.0727
    1W        W53964  25.772   3.182   0.390  0.0299  0.0812 -0.0895
    1W        W53965  21.287  24.334   7.657  0.0952  0.0182 -0.0814
    1W        W53966   7.090   0.834   2.301  0.0858  0.2571 -0.0104
    1W        W53967  13.701  16.671   0.313  0.0131 -0.1031 -0.0260
    1W        W53968   1.359   0.804   6.761  0.2775  0.1270  0.1865
    1W        W53969   0.492  27.140   1.773 -0.0193  0.0816 -0.0209
    1W        W53970  25.273   2.459   8.140  0.2845 -0.2548 -0.1615
    1W        W53971   6.590   2.918   7.667  0.2119 -0.1923 -0.1716
    1W        W53972   6.016  22.049   7.201 -0.1076 -0.5775  0.3564
    1W        W53973  23.843  22.031   7.678  0.1646 -0.2004 -0.1024
    1W        W53974  24.233  17.594   6.269 -0.0978 -0.0743 -0.0699
    1W        W53975  18.896  28.121   1.195  0.0872 -0.1122  0.1035
    1W        W53976  16.827  29.029   8.858 -0.1259  0.2173 -0.0629
    1W        W53977   6.408   9.644   1.891  0.0309 -0.0572 -0.1113
    1W        W53978   9.721  13.147   1.314 -0.0118 -0.1156  0.2439
    1W        W53979  21.318  21.634   7.678  0.1519 -0.0993  0.1908
    1W        W53980   1.544  26.010   7.325 -0.0136  0.1426 -0.2580
    1W        W53981  12.705  23.985   2.679 -0.2510  0.0863  0.2628
    1W        W53982   3.125  23.102   8.467  0.3970 -0.1454 -0.1177
    1W        W53983  14.267  22.909   7.904  0.0436 -0.1747  0.1952
    1W        W53984  28.354  21.757   0.095  0.0465 -0.0460 -0.0077
    1W        W53985  22.826  23.544   1.368  0.0421 -0.0403 -0.0223
    1W        W53986  11.558  17.686   0.775 -0.0835 -0.3156 -0.0835
    1W        W53987  15.584   9.131   8.313  0.0990 -0.1436  0.0839
    1W        W53988   5.276  14.358   5.967 -0.0072  0.5525 -0.0966
    1W        W53989  24.563  18.482   7.223  0.2944 -0.1120  0.1759
    1W        W53990  21.469  17.101   8.439 -0.3032 -0.4438 -0.0773
    1W        W53991  14.319   4.421   0.912 -0.3101  0.1177 -0.1011
    1W        W53992  22.896   3.025   0.242 -0.1287  0.0209 -0.2516
    1W        W53993  20.031  25.368   1.122 -0.2926  0.3001 -0.0143
    1W        W53994  28.315  20.457   6.780  0.4323  0.3670  0.0983
    1W        W53995  29.743   7.594   2.256  0.0038 -0.2001 -0.1850
    1W        W53996   0.484   5.554   7.182  0.3791  0.3358  0.4736
    1W        W53997  25.261  13.985   7.950  0.0201 -0.0438  0.0456
    1W        W53998   6.989  11.821   7.134  0.1587  0.1029 -0.4757
    1W        W53999   0.415  17.334   8.111  0.1265 -0.1060 -0.1048
    1W        W54000  13.960  24.051   8.869 -0.1056 -0.4021 -0.0486
    1W        W54001   5.233  26.266   1.582  0.1815  0.2729 -0.2969
    1W        W54002  22.717   4.608   2.323 -0.0585  0.2978 -0.1310
    1W        W54003  13.945  27.825   1.708  0.1177 -0.1713 -0.0980
    1W        W54004   0.174  23.243   1.714 -0.1519  0.3096  0.2085
    1W        W54005  14.060  15.476   8.222  0.3081  0.1213  0.1950
    1W        W54006  25.774   1.026   7.335  0.2579  0.0702  0.0371
    1W        W54007   9.024  22.595   6.532 -0.3168 -0.0048  0.0500
    1W        W54008   3.314  29.129   1.175 -0.2077 -0.1470 -0.0265
    1W        W54009  17.678   9.485   0.233  0.1551 -0.0452 -0.1530
    1W        W54010  14.253   6.836   7.027  0.0451  0.1592 -0.0802
    1W        W54011  23.427  22.022   1.641  0.3924  0.1404 -0.0550
    1W        W54012   2.337  21.083   1.190  0.0893 -0.1086  0.1152
    1W        W54013   6.426   9.230   8.041 -0.0634  0.1276  0.1046
    1W        W54014   6.480   3.715   2.073 -0.0562  0.6265  0.1069
    1W        W54015   2.526  13.334   1.578  0.3023  0.1292  0.1622
    1W        W54016  16.304  20.579   1.496  0.0318 -0.0457 -0.0230
    1W        W54017  22.533  17.086   9.181 -0.0735  0.1659  0.1633
    1W        W54018   8.378   9.131   1.628 -0.0252 -0.2960 -0.3228
    1W        W54019  26.543   3.598   9.220  0.1554  0.0196 -0.3208
    1W        W54020  11.962  25.364   0.759 -0.0397 -0.3173  0.1228
    1W        W54021   6.861  18.910   6.311  0.0138 -0.0262 -0.0848
    1W        W54022   7.380  29.318   9.372 -0.2645 -0.0672  0.1414
    1W        W54023  24.362  16.174   8.897 -0.1300 -0.1000 -0.1047
    1W        W54024  17.350   2.231   6.871 -0.0990 -0.0334 -0.1824
    1W        W54025   4.824   7.139   9.155 -0.0062  0.0740  0.1455
    1W        W54026   9.547  18.603   9.314  0.1909  0.1290  0.0524
    1W        W54027   7.777  20.356   8.202 -0.2116  0.0434  0.0665
    1W        W54028   6.657   0.434   0.170  0.3854  0.0500  0.2840
    1W        W54029  15.791  18.232   7.915 -0.1360  0.1944 -0.1374
    1W        W54030  13.746  24.493   9.021 -0.4346  0.0909 -0.0733
    1W        W54031  14.965   3.868   0.648 -0.0024 -0.0719  0.0778
    1W        W54032   4.483   9.775   2.904 -0.0487  0.0451  0.0987
    1W        W54033   9.646  28.206   2.815  0.0338 -0.2854 -0.0868
    1W        W54034  10.589  28.343   7.590 -0.3217  0.1563  0.2700
    1W        W54035  27.542  24.026   0.655 -0.2805 -0.2441  0.0679
    1W        W54036  20.227   6.391   0.224 -0.0246 -0.0846 -0.1224
    1W        W54037  27.963  23.648   2.100 -0.3381  0.1822 -0.0118
    1W        W54038  27.924  10.155   2.061  0.2915  0.3992  0.1689
    1W        W54039  26.110  16.243   8.936  0.0323 -0.2944 -0.1054
    1W        W54040   9.245   5.214   0.660 -0.0957  0.0096  0.0290
    1W        W54041   9.709   2.186   8.675 -0.0290 -0.2410 -0.2020
    1W        W54042  20.664   6.632   1.151  0.0741  0.3262 -0.3129
    1W        W54043  19.598  15.306   0.990  0.1780  0.2199  0.0590
    1W        W54044   8.096  27.612   7.713  0.1415  0.1312  0.0841
    1W        W54045  21.597  13.897   7.331  0.1981 -0.1364 -0.0884
    1W        W54046  17.964   4.131   8.724  0.0188  0.1619 -0.1135
    1W        W54047  29.032   6.037   1.433 -0.1758  0.0962  0.1889
    1W        W54048  11.090  24.167   1.216 -0.1860  0.3957  0.1740
    1W        W54049   6.866  17.827   6.682  0.1671  0.1560  0.2414
    1W        W54050  10.118  19.561   8.471  0.1910 -0.2553  0.1262
    1W        W54051   7.637  17.616   6.213  0.0864  0.3142 -0.2230
    1W        W54052  12.146  21.158   8.184  0.1640  0.1481 -0.1531
    1W        W54053   9.780   6.254   7.753  0.0846  0.0619  0.3958
    1W        W54054  19.911  29.902   1.582 -0.0540 -0.1767  0.3070
    1W        W54055  19.417  14.430   0.357 -0.2110 -0.0254  0.0396
    1W        W54056   2.775  14.671   7.837  0.1761  0.2087 -0.1471
    1W        W54057  20.922  17.507   7.929  0.0768  0.1487 -0.1922
    1W        W54058  21.421  11.255   9.371  0.1449 -0.0198 -0.1734
    1W        W54059   2.350   5.078   7.592  0.1049 -0.0653 -0.0232
    1W        W54060   4.778  25.164   6.418 -0.0538  0.0148  0.0219
    1W        W54061  29.128  12.903   0.316 -0.2016  0.0880 -0.0110
    1W        W54062  24.873  12.983   0.623  0.1232  0.1090  0.1585
    1W        W54063  25.475  12.165   1.461 -0.2282 -0.1736 -0.2530
    1W        W54064  27.280  24.765   0.608  0.0322  0.0418 -0.0423
    1W        W54065  24.810  23.021   3.138 -0.4215 -0.1663  0.0925
    1W        W54066   9.162   0.010   9.269 -0.1682 -0.0833  0.0490
    1W        W54067  17.380   9.803   2.074 -0.0668  0.2202 -0.1916
    1W        W54068  14.718   1.426   0.181  0.1483  0.0129  0.0825
    1W        W54069   0.910  29.478   2.149  0.2153  0.1914 -0.1660
    1W        W54070  26.693  19.821   2.416 -0.0124  0.2288  0.1867
    1W        W54071  25.532  19.125   0.417  0.2792 -0.0224  0.2125
    1W        W54072  11.725  23.017   1.725  0.1332 -0.2518  0.0405
    1W        W54073   4.480  21.388   1.847  0.0632  0.1132 -0.3181
    1W        W54074  14.219  27.219   2.255 -0.1445  0.0799 -0.0180
    1W        W54075  17.702  21.509   1.519  0.2220  0.0829  0.0226
    1W        W54076   8.504  13.115   8.416  0.3335  0.1884 -0.0514
    1W        W54077  21.422  28.669   1.613  0.3102 -0.2543 -0.1232
    1W        W54078  29.506  21.356   7.111 -0.0395 -0.0248 -0.2332
    1W        W54079  21.208  17.721   1.535 -0.2793  0.1777  0.1529
    1W        W54080  15.884   6.389   1.804  0.0307 -0.0450  0.1524
    1W        W54081   8.786  24.572   1.508  0.1111 -0.1846 -0.1919
    1W        W54082  14.299  24.515   7.504 -0.2531  0.1621  0.5731
    1W        W54083   1.682   7.469   8.649  0.0266 -0.2299 -0.0458
    1W        W54084   2.131   7.492   2.229 -0.1696 -0.0809 -0.1819
    1W        W54085  27.248  12.054   1.583 -0.1052 -0.0293 -0.2263
    1W        W54086   5.823  25.540   7.188 -0.1140 -0.0586  0.2017
    1W        W54087  10.645  26.279   8.463 -0.0132  0.1990  0.2361
    1W        W54088  10.301  17.368   7.420 -0.0853 -0.0483 -0.0006
    1W        W54089  25.354  15.878   1.026 -0.1170 -0.1263 -0.3557
    1W        W54090  19.233   5.087   6.676 -0.1446  0.1956 -0.2800
    1W        W54091  28.615   3.148   9.115  0.1736 -0.0872 -0.1459
    1W        W54092   5.593  19.824   6.553 -0.0218 -0.1132 -0.0890
    1W        W54093  20.731  29.089   9.146  0.0224 -0.0820  0.1537
    1W        W54094  13.450  19.547   0.645 -0.2464  0.0081 -0.0550
    1W        W54095   1.074   5.064   8.950 -0.2370  0.0059 -0.0422
    1W        W54096  23.088  27.610   9.061 -0.3484 -0.1425 -0.1395
    1W        W54097  24.125   1.552   0.334 -0.0193  0.0852  0.1271
    1W        W54098  24.433  22.596   0.365  0.0785  0.0227 -0.0298
    1W        W54099  21.082  14.869   1.693 -0.1605 -0.5139  0.0465
    1W        W54100  15.100  20.012   8.373 -0.2337 -0.2764  0.1935
    1W        W54101  10.955  27.216   8.318  0.0232 -0.0349  0.3977
    1W        W54102   6.851   2.079   0.782 -0.0514  0.0612  0.0762
    1W        W54103   1.922  17.971   2.329  0.0547 -0.0576  0.4534
    1W        W54104  14.222   1.907   2.922 -0.0522 -0.0065  0.3434
    1W        W54105   5.576  22.089   1.832  0.0098  0.1201 -0.0561
    1W        W54106   7.133  13.394   1.113  0.1434  0.2824 -0.1447
    1W        W54107  29.201  20.536   1.222 -0.2545 -0.1093 -0.0957
    1W        W54108  16.751   3.069   0.983 -0.3942 -0.0699  0.3825
    1W        W54109  24.522  22.014   9.322 -0.2976 -0.3246 -0.2452
    1W        W54110  21.296  13.131   8.489  0.2709 -0.0800  0.1817
    1W        W54111   2.093   1.806   2.359  0.2029 -0.0082 -0.2703
    1W        W54112  15.024  17.880   8.425 -0.1226  0.4010  0.1250
    1W        W54113  14.291  12.903   7.825 -0.2665  0.0256  0.2014
    1W        W54114  29.230  27.754   8.186  0.0116 -0.0731 -0.1062
    1W        W54115   4.688  25.196   0.749  0.4959 -0.1997 -0.1251
    1W        W54116  28.923  25.499   7.942 -0.1308 -0.0177  0.1411
    1W        W54117  21.708  24.488   8.090  0.0049 -0.1844  0.0849
    1W        W54118  28.227  14.688   9.266 -0.3595  0.2902 -0.0310
    1W        W54119  29.267  23.010   7.595 -0.0311  0.1292 -0.0260
    1W        W54120  16.184  27.311   2.381 -0.0909 -0.2938 -0.0006
    1W        W54121  27.098   4.946   8.161 -0.3170  0.2341  0.1281
    1W        W54122  22.287   9.685   8.012  0.2487  0.1276 -0.0094
    1W        W54123   1.737  23.407   1.612 -0.0567  0.2388 -0.1070
    1W        W54124  10.123  29.175   0.360  0.3454 -0.0513  0.0911
    1W        W54125   1.825  26.845   1.538 -0.0807  0.0188  0.0888
    1W        W54126   0.552  27.709   8.991 -0.0639  0.0042 -0.1678
    1W        W54127   3.542  15.867   2.193  0.0146  0.2786 -0.0224
    1W        W54128   6.063  12.742   7.577  0.0020 -0.2758 -0.0722
    1W        W54129   7.973  10.736   8.994 -0.1119 -0.0043  0.2484
    1W        W54130   0.164  10.830   1.706 -0.0101  0.0223  0.0319
    1W        W54131  16.672   4.332   7.419 -0.0719  0.2317  0.3604
    1W        W54132  11.973  13.731   2.254  0.0562  0.4154 -0.2787
    1W        W54133  17.608  16.372   2.420 -0.0588 -0.0490 -0.2082
    1W        W54134  27.133   3.906   2.947 -0.2715 -0.2522  0.1138
    1W        W54135  23.374  24.101   8.862  0.0123 -0.0538 -0.1969
    1W        W54136  12.504  27.904   1.854 -0.2134  0.0068  0.2619
    1W        W54137  14.956  22.708   0.992  0.0464  0.1963  0.0858
    1W        W54138  26.288   5.024   3.408 -0.1338  0.1665  0.0059
    1W        W54139  24.421  13.833   2.017 -0.1550  0.1808 -0.1629
    1W        W54140   5.327  20.985   1.125  0.0248 -0.0982  0.0157
    1W        W54141  19.295  13.569   0.227  0.2446 -0.0074  0.2843
    1W        W54142  28.742   2.724   8.801 -0.3342  0.1994  0.2027
    1W        W54143   7.596  11.621   7.310  0.0819  0.3158  0.1487
    1W        W54144   6.076  18.656   1.108 -0.0544  0.3149 -0.1077
    1W        W54145   7.369   3.973   2.366 -0.0628 -0.2272  0.1579
    1W        W54146  18.365   7.171   1.244 -0.2714  0.1154 -0.0547
    1W        W54147   8.954  22.755   2.007  0.1693  0.0330 -0.0662
    1W        W54148   0.211  16.598   0.228 -0.0596  0.0320 -0.1342
    1W        W54149   9.469  10.868   1.438 -0.1209 -0.1633  0.2308
    1W        W54150   7.108  23.454   8.694  0.1403  0.0926  0.1063
    1W        W54151   6.264   8.927   7.670  0.0721 -0.2711  0.1198
    1W        W54152   7.918   1.758   1.810  0.2188  0.1399 -0.0622
    1W        W54153   2.333  21.025   6.499  0.2055  0.1283 -0.0616
    1W        W54154  16.200   9.679   1.642  0.0884  0.1685 -0.0023
    1W        W54155   3.202  19.864   1.346  0.0178 -0.1169 -0.1038
    1W        W54156  19.413  14.487   7.309 -0.0431  0.0130  0.0607
    1W        W54157  25.499  14.125   2.720  0.2445  0.6353  0.3064
    1W        W54158  11.230  28.964   1.327 -0.1584 -0.0914 -0.0969
    1W        W54159  26.030   2.647   0.351  0.0897  0.0738  0.3173
    1W        W54160  23.306  14.480   1.555  0.0329 -0.4188 -0.1019
    1W        W54161   4.952  24.130   7.445 -0.1794  0.1622  0.0366
    1W        W54162   6.241  24.058   7.369 -0.1509  0.0062 -0.2618
    1W        W54163  17.130  11.022   7.336 -0.1828 -0.2168 -0.1110
    1W        W54164  19.184  23.018   9.302  0.3417  0.0575 -0.1968
    1W        W54165   1.797  27.897   0.106 -0.1540  0.1204  0.0024
    1W        W54166  12.276  27.398   1.303 -0.1852  0.1656  0.1781
    1W        W54167  24.731   8.310   9.119 -0.0981 -0.0759  0.0610
    1W        W54168   4.818  25.404   5.730  0.0042  0.6558 -0.0365
    1W        W54169  11.790  23.692   7.145 -0.0533  0.4037 -0.1277
    1W        W54170   6.931   9.265   7.922  0.0034 -0.0952  0.2438
    1W        W54171  29.844  12.783   6.914 -0.1246 -0.0091 -0.1397
    1W        W54172   2.015   4.925   7.073  0.3942  0.1218  0.0487
    1W        W54173  16.755  20.293   8.477  0.1196 -0.0037 -0.3126
    1W        W54174  24.095   0.935   8.208  0.0162  0.2314 -0.0116
    1W        W54175  25.620   4.081   8.508  0.1468  0.0071  0.0469
    1W        W54176   0.439  28.171   6.490 -0.0756  0.1673  0.4026
    1W        W54177   8.361   4.737   1.824 -0.3103  0.2879 -0.2076
    1W        W54178   9.929   2.842   2.592 -0.0418 -0.1223 -0.2553
    1W        W54179  20.386  25.046   0.160  0.2038  0.1124  0.0597
    1W        W54180  13.189  12.510   1.479  0.4372  0.0279 -0.0635
    1W        W54181   9.893  17.376   0.135 -0.0286 -0.1045 -0.1541
    1W        W54182   5.061  29.118   8.015 -0.3020  0.2666 -0.2650
    1W        W54183  20.417  20.894   1.482  0.2818  0.2037 -0.1782
    1W        W54184  11.510   9.789   8.999  0.0071 -0.3710  0.2575
    1W        W54185  11.536  27.184   2.357  0.0405  0.1548  0.3512
    1W        W54186  12.751  27.953   9.213  0.1761  0.0935 -0.0694
    1W        W54187   4.450  23.894   9.176  0.1030 -0.2119 -0.0488
    1W        W54188  20.279   5.712   8.955 -0.1192  0.1469  0.1014
    1W        W54189  27.572  14.900   7.943  0.1884  0.0143  0.1557
    1W        W54190   0.474  16.097   7.978  0.2197  0.2153 -0.2171
    1W        W54191   6.451   5.043   1.033 -0.1630 -0.5338  0.1012
    1W        W54192  22.188   7.384   6.252 -0.0081 -0.1117 -0.0709
    1W        W54193  16.506   0.697   0.894  0.1070 -0.1324  0.0662
    1W        W54194  13.975   1.362   1.900  0.0470  0.3608 -0.1593
    1W        W54195  27.924   5.784   0.349  0.2156 -0.1304  0.0083
    1W        W54196   2.853  12.729   2.343  0.0804  0.1135  0.0062
    1W        W54197   7.879   3.564   9.238 -0.1004  0.1125 -0.3750
    1W        W54198  12.808   1.555   8.834  0.0706  0.2634 -0.1306
    1W        W54199  26.446  20.655   8.810 -0.0217  0.0221  0.2428
    1W        W54200  10.098   1.555   0.394  0.0998  0.1577 -0.0346
    1W        W54201   9.483   0.195   7.957 -0.0289 -0.0574  0.1325
    1W        W54202  25.175   9.561   1.856 -0.2055  0.1603 -0.0623
    1W        W54203   4.660  18.837   1.087  0.1308 -0.1880 -0.1695
    1W        W54204  20.040  18.305   1.150  0.0076  0.2351 -0.0032
    1W        W54205  26.432  10.928   6.198  0.1333  0.0160  0.1836
    1W        W54206   6.418   7.946   7.568  0.0160 -0.0332 -0.0452
    1W        W54207   7.689  27.473   8.023 -0.0685  0.2227 -0.4196
    1W        W54208  21.247  23.744   2.208 -0.2434  0.2601  0.1469
    1W        W54209   5.477  29.718   6.651 -0.0276  0.0706  0.0598
    1W        W54210  20.492   0.538   3.117  0.0164 -0.0682 -0.0591
    1W        W54211  13.157   0.213   7.870 -0.0624 -0.0735  0.0900
    1W        W54212  24.630   0.186   1.738 -0.2831 -0.1668  0.1585
    1W        W54213  20.525  23.491   7.802  0.1385 -0.4525 -0.0066
    1W        W54214  24.537   0.831   7.964 -0.0337 -0.2325  0.0527
    1W        W54215  10.603  20.329   0.810 -0.0724  0.0473 -0.1722
    1W        W54216  26.483  19.489   2.050 -0.0277 -0.0738  0.0573
    1W        W54217  23.297  18.505   7.153 -0.1316 -0.1387  0.0980
    1W        W54218   3.262   6.604   8.338  0.0440  0.0761  0.1490
    1W        W54219   0.026   2.649   2.663 -0.0539  0.2347 -0.1358
    1W        W54220   3.924  29.177   9.030  0.1862 -0.1024  0.2554
    1W        W54221  24.228  18.212   8.253 -0.1736 -0.0260 -0.0419
    1W        W54222   2.772  24.497   8.026 -0.3298  0.1381  0.1772
    1W        W54223   3.722  17.433   1.271  0.2891 -0.1503 -0.0335
    1W        W54224  22.290  16.545   7.135  0.0223 -0.0224  0.0574
    1W        W54225   4.083   6.882   8.512 -0.0301 -0.1721  0.1689
    1W        W54226  23.783  11.173   0.822  0.2246  0.1123 -0.1473
    1W        W54227  24.221  28.397   7.265  0.1104  0.6104 -0.0022
    1W        W54228   2.761  23.120   6.536 -0.0803  0.1254  0.0514
    1W        W54229  28.771   9.976   0.505 -0.0020  0.2147 -0.0190
    1W        W54230   9.076   8.471   3.145 -0.0911 -0.0846 -0.1363
    1W        W54231   6.126   3.062   1.886  0.5154 -0.2329  0.3656
    1W        W54232  18.521  29.680   0.643 -0.2585 -0.2154  0.3336
    1W        W54233  25.926  20.661   8.082  0.3885  0.1422 -0.1382
    1W        W54234  10.419   3.722   0.638  0.1091  0.1571 -0.0666
    1W        W54235   7.856  20.365   8.745 -0.1669  0.0776 -0.3459
    1W        W54236   9.385  16.744   1.717 -0.1009 -0.2758  0.1710
    1W        W54237  13.323  14.568   1.166  0.0408 -0.1310 -0.0463
    1W        W54238  24.532   6.037   9.358  0.4047  0.1077  0.3116
    1W        W54239  19.188  27.891   1.983  0.0921 -0.1543 -0.0998
    1W        W54240   2.459  17.542   0.698 -0.0278  0.0381 -0.0059
    1W        W54241   7.137  16.601   0.826  0.1279 -0.1563 -0.3778
    1W        W54242   6.917   5.523   3.033  0.3276 -0.1053  0.1102
    1W        W54243  21.942  22.092   3.399 -0.2453  0.2528  0.1436
    1W        W54244   9.192   7.048   3.944  0.3790  0.1366  0.2750
    1W        W54245   8.918  16.615   1.401 -0.2914 -0.0726 -0.1054
    1W        W54246  28.200  23.101   6.998  0.1143 -0.1038  0.1587
    1W        W54247   6.638  16.505   0.885 -0.0903  0.2922 -0.2036
    1W        W54248  22.331  23.066   8.016  0.2266  0.3255  0.0955
    1W        W54249   5.492   3.655   8.781 -0.2892 -0.3322  0.0742
    1W        W54250  13.452   3.930   8.276  0.0018  0.1570 -0.0303
    1W        W54251  28.534  27.713   2.968 -0.1698 -0.0434  0.0589
    1W        W54252  11.552   1.311   8.272 -0.0381 -0.0313  0.2260
    1W        W54253  29.855  21.510   8.923 -0.3234  0.0407 -0.0370
    1W        W54254  27.790  20.188   0.497  0.1936  0.1385 -0.1461
    1W        W54255   9.144  17.671   7.848 -0.1407  0.1228  0.0335
    1W        W54256  16.875  13.903   1.327 -0.3935  0.0929  0.0340
    1W        W54257  21.588   3.121   0.706  0.0396  0.2159 -0.1577
    1W        W54258  17.520  16.320   1.548 -0.1698  0.1784  0.1521
    1W        W54259  18.905   0.526   6.769  0.0467  0.0429  0.0187
    1W        W54260  26.531  22.160   1.712 -0.1868  0.1340  0.0987
    1W        W54261  19.548   3.814   1.058  0.3374  0.0796  0.2266
    1W        W54262  12.198  23.281   0.597 -0.2059 -0.0014  0.2170
    1W        W54263   0.078   4.799   9.416  0.0476 -0.0838  0.3886
    1W        W54264  27.147  17.369   8.764 -0.0196 -0.5149 -0.0923
    1W        W54265  17.959   3.268   0.949  0.2763 -0.3659  0.1183
    1W        W54266  13.158  23.552   9.397  0.1040 -0.1376  0.2466
    1W        W54267  20.896   1.359   2.400 -0.0949 -0.2412 -0.0024
    1W        W54268  21.468  13.125   0.446  0.0988  0.0548 -0.1790
    1W        W54269   1.324   3.897   3.557 -0.0256 -0.1007 -0.1644
    1W        W54270   6.710  19.792   0.402  0.1646  0.0743 -0.1384
    1W        W54271   5.963  22.334   1.568 -0.0533 -0.1046 -0.2924
    1W        W54272  27.799   5.546   2.755  0.3987  0.4086  0.3946
    1W        W54273   5.107  16.834   2.278 -0.3057  0.1082 -0.1147
    1W        W54274  26.925  12.433   1.521  0.1854 -0.0347 -0.1048
    1W        W54275  10.857  16.063   6.860 -0.1570 -0.0981  0.2060
    1W        W54276   2.272  28.263   6.850 -0.1543  0.0439 -0.3716
    1W        W54277  18.651   6.756   6.094 -0.0236 -0.2266  0.0068
    1W        W54278  18.935   9.396   1.874  0.1265 -0.1063  0.1414
    1W        W54279  26.055   1.192   1.292  0.2607 -0.2075  0.3249
    1W        W54280  12.349  18.102   2.428 -0.0423 -0.1846  0.1055
    1W        W54281  22.746  19.578   1.716  0.2237  0.0188 -0.0136
    1W        W54282  14.811   5.562   8.604  0.0079  0.0654 -0.1768
    1W        W54283  29.257   5.001   6.776  0.0708  0.0170  0.3030
    1W        W54284  27.239  25.946   7.204  0.0662  0.1119  0.1721
    1W        W54285  13.670   2.683   2.364  0.1918 -0.2294 -0.2168
    1W        W54286   0.722  18.056   7.378  0.2717  0.2849  0.3247
    1W        W54287   1.937  20.240   0.410  0.2132  0.3114 -0.1397
    1W        W54288  19.878  17.718   1.354  0.1280 -0.2151  0.2905
    1W        W54289  15.632  14.336   9.443  0.1763 -0.2992 -0.0066
    1W        W54290  29.620  29.782   8.120  0.5079 -0.1252 -0.2536
    1W        W54291  15.589   9.622   8.591 -0.0647 -0.3617  0.1885
    1W        W54292   9.200   4.260   2.965 -0.0196 -0.1481 -0.1761
    1W        W54293   3.046  24.517   2.203 -0.1424 -0.1646 -0.1547
    1W        W54294  10.830   0.808   1.208  0.3984  0.1577  0.1373
    1W        W54295  14.860  15.743   0.789 -0.2769  0.3330 -0.0783
    1W        W54296  21.962  13.369   1.139 -0.1661  0.1286 -0.0289
    1W        W54297  19.541   8.822   7.719 -0.3427 -0.1513  0.1675
    1W        W54298  18.791   5.506   9.296 -0.0003  0.1264  0.0343
    1W        W54299   2.172  21.858   2.655 -0.0329 -0.0330  0.1471
    1W        W54300  17.464  13.366   7.108 -0.0849 -0.1815 -0.0468
    1W        W54301  21.801  13.471   0.630  0.2463  0.1258 -0.0172
    1W        W54302   8.838  14.772   7.822 -0.1992  0.0486  0.1964
    1W        W54303  25.375   4.282   1.736  0.1234 -0.1378  0.2745
    1W        W54304  21.924   5.774   1.592  0.0672 -0.0807  0.3103
    1W        W54305   9.045  10.601   7.587 -0.0025 -0.0817 -0.0608
    1W        W54306  27.856   5.996   7.924 -0.1999  0.3079 -0.0426
    1W        W54307  17.309  18.107   7.966 -0.1016 -0.1287 -0.3996
    1W        W54308  25.734   9.022   8.250  0.1165  0.0361  0.0951
    1W        W54309   0.286  24.192   8.730  0.0996  0.3722 -0.2299
    1W        W54310  15.780   1.553   2.611  0.0875 -0.2043  0.0960
    1W        W54311   8.973  26.326   1.634 -0.1594 -0.0673 -0.0669
    1W        W54312  19.357  16.263   8.893 -0.0449  0.0174  0.0909
    1W        W54313   7.489  21.547   6.053 -0.2114 -0.0610  0.0989
    1W        W54314  21.805  23.497   9.049  0.4099  0.1478 -0.0315
    1W        W54315  13.913  10.631   0.718  0.2340 -0.0801  0.0558
    1W        W54316  26.265  17.729   1.861 -0.0049 -0.1617  0.0912
    1W        W54317  26.400   0.459   2.011  0.0381 -0.0639  0.1238
    1W        W54318  12.880  11.596   8.064  0.0325  0.2437 -0.0635
    1W        W54319  19.269   2.598   7.165 -0.1592  0.2183  0.0103
    1W        W54320   1.604  13.532   0.744 -0.0441 -0.1316  0.0200
    1W        W54321   6.788   6.519   0.871 -0.3693 -0.1839  0.2546
    1W        W54322  27.329  13.857   1.978  0.1685  0.1813 -0.1760
    1W        W54323  19.554   8.965   6.719 -0.1593  0.1185  0.0505
    1W        W54324  27.371   7.637   1.484  0.1036 -0.0557  0.3569
    1W        W54325   1.826   0.621   0.191 -0.0539 -0.2460 -0.0028
    1W        W54326   0.747  16.536   8.040  0.0324 -0.2221  0.2373
    1W        W54327  25.741   5.440   6.785  0.2470  0.0480 -0.0554
    1W        W54328   2.202  24.945   8.644 -0.2225  0.1082  0.3503
    1W        W54329   8.020  17.107   0.006 -0.0458 -0.1096  0.0028
    1W        W54330  23.534   0.441   1.351 -0.2313 -0.0410 -0.1058
    1W        W54331   8.841  17.099   1.556  0.2539  0.1069 -0.0520
    1W        W54332  10.480  12.574   0.175 -0.1801  0.0943 -0.1461
    1W        W54333  15.446  15.261   0.285  0.1935  0.3211  0.0629
    1W        W54334   1.308   2.151   8.350 -0.2835 -0.0405 -0.1515
    1W        W54335  29.683  26.367   0.154 -0.2050  0.1559  0.0007
    1W        W54336  26.478  17.901   0.338 -0.0309  0.0739  0.1856
    1W        W54337  26.106   5.082   9.263  0.0499  0.2255 -0.0233
    1W        W54338  27.201  21.273   8.796  0.1259  0.2369 -0.1412
    1W        W54339   7.997   8.623   9.008  0.0629 -0.2569 -0.0914
    1W        W54340  29.196   6.318   8.725 -0.2766  0.0969 -0.0012
    1W        W54341  28.203  17.349   9.284 -0.0446 -0.0478  0.1220
    1W        W54342  25.155   4.138   2.436  0.2844  0.0563 -0.2957
    1W        W54343  23.015   1.218   2.949  0.2230  0.1091 -0.1281
    1W        W54344  13.310  26.401   1.640  0.0570 -0.0317  0.2175
    1W        W54345  12.937  21.776   2.540  0.2006  0.1150 -0.1620
    1W        W54346  27.015   3.224   6.929  0.1852  0.4095 -0.0402
    1W        W54347  29.510  15.024   7.720  0.1603 -0.5222 -0.2495
    1W        W54348   5.887  20.837   6.062  0.4854 -0.2568  0.1188
    1W        W54349  20.752  13.833   1.057 -0.2193 -0.0743  0.1112
    1W        W54350  28.799   4.827   7.669 -0.0595  0.1327 -0.2581
    1W        W54351  24.734  15.818   8.581  0.0980  0.0410  0.2071
    1W        W54352  18.783   1.941   7.453 -0.2064  0.0087 -0.0521
    1W        W54353   2.552  28.889   7.234  0.0042 -0.1437 -0.2550
    1W        W54354   5.898   1.123   0.109  0.0613  0.1124 -0.1774
    1W        W54355  16.063  17.050   8.471  0.0051  0.2224  0.0998
    1W        W54356  22.632  21.783   1.040  0.0551  0.0828 -0.1705
    1W        W54357  11.006  24.858   8.175 -0.0685 -0.0792 -0.0729
    1W        W54358  19.836  10.005   6.820 -0.4912  0.2310  0.0471
    1W        W54359   3.671   4.387   7.073  0.0056  0.0235  0.1020
    1W        W54360  13.850  12.075   7.628  0.0432 -0.1594 -0.2214
    1W        W54361  29.704   8.448   2.654 -0.0905  0.5244  0.3394
    1W        W54362  15.583   5.211   7.154 -0.3090 -0.0902 -0.1280
    1W        W54363   1.323  21.427   7.715  0.0080  0.1599 -0.0398
    1W        W54364  17.388  21.965   2.376 -0.1303 -0.1331 -0.0898
    1W        W54365  29.472  28.927   0.061 -0.1049  0.1766  0.0654
    1W        W54366  17.842  19.998   9.330 -0.3286 -0.1243  0.0154
    1W        W54367  12.624  27.281   7.704  0.0168 -0.0404  0.0190
    1W        W54368  25.011  10.090   6.385 -0.2443  0.0944 -0.2456
    1W        W54369  27.966  11.994   8.317  0.2107 -0.0515  0.0456
    1W        W54370  21.904  13.195   8.378 -0.0476  0.4672  0.0753
    1W        W54371  16.325   0.477   3.609  0.1079 -0.1906 -0.0526
    1W        W54372  13.912   2.287   0.234 -0.0445  0.0880 -0.0486
    1W        W54373  27.064  19.343   9.178 -0.0718 -0.3119  0.2510
    1W        W54374  18.618  19.922   2.256 -0.1396 -0.0441  0.1544
    1W        W54375  17.583   4.582   8.650 -0.2018 -0.2317 -0.1919
    1W        W54376  21.284  20.586   7.656  0.2427 -0.0171 -0.2130
    1W        W54377  16.106  28.534   9.238  0.0362 -0.2708  0.4775
    1W        W54378   6.573  16.196   6.193 -0.1789 -0.1916  0.0388
    1W        W54379  16.132  11.641   2.234  0.1865 -0.1548  0.1330
    1W        W54380   6.463  19.327   0.136  0.1577  0.1189  0.0763
    1W        W54381  29.712  28.188   0.889 -0.0353  0.1014  0.0191
    1W        W54382   7.100  18.211   7.522 -0.2975  0.1721 -0.0566
    1W        W54383  29.611   0.634   1.311 -0.0808  0.4834 -0.0354
    1W        W54384  19.570  14.389   1.007  0.0309 -0.3491 -0.2365
    1W        W54385  27.058  25.744   8.998  0.1344 -0.0791 -0.2228
    1W        W54386  12.335  12.688   7.597  0.0988 -0.2226  0.1334
    1W        W54387   2.531  23.689   2.162  0.0106  0.0115 -0.1974
    1W        W54388   0.914  12.952   6.525  0.0004 -0.0586  0.1792
    1W        W54389   5.409   6.820   3.159  0.1562 -0.0105  0.0284
    1W        W54390  11.940   0.115   0.885  0.1178  0.0622  0.1642
    1W        W54391   9.006  17.507   1.258 -0.0868 -0.0959  0.1172
    1W        W54392   8.091  20.956   5.618 -0.1612  0.0956 -0.2169
    1W        W54393  22.199  13.596   8.500  0.3029  0.1733  0.0980
    1W        W54394   6.355  21.909   9.146 -0.1151 -0.0778 -0.3514
    1W        W54395  23.322   7.574   2.979  0.1831 -0.1334  0.2862
    1W        W54396  28.659   9.461   0.555 -0.1317  0.0270  0.1699
    1W        W54397   8.122  22.675   0.321  0.1478 -0.2215 -0.0910
    1W        W54398  19.168   1.456   9.271  0.1718 -0.0795  0.1349
    1W        W54399  21.898  16.443   1.447 -0.1725  0.0438 -0.1402
    1W        W54400  14.748   6.738   2.399  0.1513  0.2601 -0.1260
    1W        W54401   5.925  17.920   0.191 -0.1902 -0.1984  0.2551
    1W        W54402   4.783  20.403   0.476  0.1163  0.0215 -0.2555
    1W        W54403  29.422  26.531   6.322 -0.2196 -0.2891 -0.0141
    1W        W54404   5.506  25.119   7.939 -0.3196  0.0452  0.0689
    1W        W54405  25.411  25.791   9.382 -0.1078 -0.0187 -0.0527
    1W        W54406  27.461   9.926   2.065 -0.1249  0.0632 -0.0472
    1W        W54407   2.137  17.610   7.010  0.1261 -0.0417  0.1928
    1W        W54408  22.397   1.437   1.002  0.1657 -0.0651 -0.0970
    1W        W54409  20.453  20.059   2.073 -0.1169 -0.2935 -0.1328
    1W        W54410   4.539   0.741   2.355  0.0451 -0.0865  0.0719
    1W        W54411  13.058   2.592   8.767 -0.2219 -0.0100  0.0596
    1W        W54412  12.597  17.332   8.800 -0.0219 -0.0084 -0.2036
    1W        W54413  12.211  27.569   7.535 -0.0616  0.1745  0.1617
    1W        W54414  14.462  21.671   7.751  0.1078  0.0754 -0.0522
    1W        W54415   8.680  22.892   2.882  0.2840 -0.1683 -0.1286
    1W        W54416  19.633   3.517   0.438 -0.0395 -0.3584 -0.2733
    1W        W54417  24.456  10.924   7.228 -0.5769  0.0066  0.1458
    1W        W54418  10.115  19.112   1.613  0.1082 -0.1222  0.2965
    1W        W54419  16.552  12.932   8.350  0.1768  0.1401  0.0957
    1W        W54420  14.222  18.994   1.926  0.1998  0.1007 -0.2281
    1W        W54421  24.936   0.100   8.665  0.2043  0.2038 -0.0557
    1W        W54422   8.335   9.134   7.755  0.2277  0.0801 -0.1062
    1W        W54423  22.156   3.794   0.270 -0.1529  0.0886 -0.1960
    1W        W54424  10.043  26.256   6.489 -0.0370 -0.0721 -0.0650
    1W        W54425   4.776  17.695   1.512  0.0407 -0.0043 -0.1316
    1W        W54426  14.337  25.472   3.152  0.2832 -0.0081  0.2364
    1W        W54427  12.364  26.381   8.586  0.0298  0.2780  0.0846
    1W        W54428  13.245   0.738   7.937  0.0780  0.0749  0.2024
    1W        W54429  20.007  24.077   0.719  0.0621  0.0103  0.1769
    1W        W54430  25.441  24.876   1.810  0.3253  0.0415 -0.0936
    1W        W54431  28.035  26.470   1.919 -0.2227  0.1193 -0.0044
    1W        W54432  10.910   1.077   0.351  0.5595  0.3349  0.1755
    1W        W54433  17.131  17.188   1.613  0.1468  0.2862  0.2397
    1W        W54434  21.224   3.632   1.744 -0.1186  0.0997 -0.2612
    1W        W54435  24.258  15.414   2.587 -0.2516  0.1863 -0.2863
    1W        W54436  19.468   2.655   2.248  0.2235 -0.3447  0.2099
    1W        W54437  24.473   9.835   6.648 -0.0355  0.2330  0.2260
    1W        W54438  27.483  24.328   6.052 -0.2456 -0.0757  0.1236
    1W        W54439   5.093  20.127   2.515  0.0541 -0.0478  0.2600
    1W        W54440  24.747  15.293   2.416 -0.0641  0.0009 -0.0794
    1W        W54441  24.775  17.208   6.868  0.2910 -0.1146 -0.0691
    1W        W54442  10.192   9.347   2.156  0.2236  0.0904 -0.1593
    1W        W54443  11.585  17.124   1.563  0.1963 -0.1040  0.0801
    1W        W54444  10.648  20.023   1.758 -0.0948 -0.3325 -0.0190
    1W        W54445   2.487  25.740   1.698  0.4380 -0.0883  0.0455
    1W        W54446  20.142  28.146   1.596 -0.0812  0.0301 -0.0532
    1W        W54447   4.259  21.637   7.961 -0.2472 -0.1881 -0.2102
    1W        W54448   3.783   3.557   0.659  0.0104  0.5209  0.0785
    1W        W54449   8.874   0.432   9.228  0.1156 -0.1018 -0.1925
    1W        W54450  18.152  24.525   8.218 -0.0126  0.0015  0.1569
    1W        W54451  24.175  15.121   0.750  0.0332  0.3149  0.0288
    1W        W54452   7.615  29.294   0.949  0.1114  0.0164  0.0833
    1W        W54453   4.352   3.832   7.550  0.0517 -0.2139  0.5036
    1W        W54454  11.217  10.849   8.766 -0.0220  0.1634  0.0150
    1W        W54455  24.097   6.344   0.040  0.2114  0.1435  0.0706
    1W        W54456  21.054  17.144   2.713  0.2147  0.2462 -0.0742
    1W        W54457  27.829   7.299   7.654 -0.3138 -0.1136  0.1585
    1W        W54458  27.289   1.114   7.502 -0.0400 -0.0302 -0.1289
    1W        W54459  27.545  21.955   0.511  0.1161  0.1908 -0.2402
    1W        W54460  23.787  19.344   1.923  0.0021  0.0040  0.3414
    1W        W54461  21.599  20.374   7.339  0.2449 -0.0188 -0.2212
    1W        W54462  22.318  19.369   2.807  0.2856 -0.1878 -0.2459
    1W        W54463  13.035   4.528   8.885  0.1516 -0.0840 -0.1936
    1W        W54464   2.377  29.048   0.235 -0.0365  0.0120  0.0699
    1W        W54465   4.482  17.839   8.636  0.1802  0.0160  0.0424
    1W        W54466   1.365  22.118   0.120  0.0418  0.1077 -0.0010
    1W        W54467  15.291   2.817   3.193  0.0567  0.4330 -0.1632
    1W        W54468  20.291  11.330   7.621  0.0417 -0.0391 -0.0199
    1W        W54469   9.302  19.594   1.369 -0.0024 -0.3307 -0.0133
    1W        W54470   2.496  16.706   6.949  0.0075  0.0908  0.2174
    1W        W54471  18.543  11.312   1.294 -0.2294  0.2663 -0.3022
    1W        W54472  23.774  10.504   6.313  0.1409  0.0948  0.1433
    1W        W54473  29.338   8.912   6.974  0.1485 -0.0045 -0.2009
    1W        W54474  22.303   1.197   8.178  0.3022  0.1538 -0.0890
    1W        W54475   2.627  10.647   2.473 -0.1597 -0.0322  0.1520
    1W        W54476  21.928  22.496   2.686 -0.1319 -0.1887  0.3174
    1W        W54477  29.567   4.013   1.298 -0.0075  0.4516  0.3530
    1W        W54478  20.959  14.286   0.870  0.2016  0.0402 -0.0713
    1W        W54479  24.974  11.350   2.071 -0.3779 -0.0024  0.2608
    1W        W54480   4.885  28.032   7.306  0.1117  0.2941 -0.0397
    1W        W54481  28.255  14.376   6.433  0.2450  0.1452 -0.1483
    1W        W54482  25.724   5.844   6.285  0.1270 -0.2967 -0.0656
    1W        W54483   4.865  12.280   6.335  0.0914  0.3980  0.1418
    1W        W54484  17.062  29.778   1.976 -0.3241  0.1827  0.2376
    1W        W54485  24.512  22.066   6.984  0.0114 -0.2864 -0.0598
    1W        W54486  25.418  22.278   7.834 -0.2301 -0.1991 -0.1379
    1W        W54487  23.809   0.762   9.046 -0.1308  0.0621  0.0518
    1W        W54488   3.800  20.530   7.498  0.2479  0.0622 -0.0309
    1W        W54489   4.641  21.621   8.572  0.1254  0.0027 -0.1271
    1W        W54490  11.010   7.027   9.441 -0.2125  0.0108  0.4051
    1W        W54491  21.320  26.975   2.399 -0.0373 -0.2122  0.2257
    1W        W54492  11.480   0.850   1.082 -0.0190 -0.1196 -0.0285
    1W        W54493  10.590  19.457   8.259 -0.1661 -0.2983  0.1548
    1W        W54494   6.977  10.117   2.602 -0.0084  0.0635  0.1198
    1W        W54495  13.911  17.562   0.618 -0.2628  0.2189  0.0725
    1W        W54496   7.133  26.769   6.810  0.1912 -0.0482 -0.0979
    1W        W54497   0.242  15.603   7.903  0.0663  0.0298  0.3237
    1W        W54498  13.440  10.269   2.358  0.1317 -0.0806  0.0119
    1W        W54499  22.582   3.993   7.759 -0.0644  0.3155  0.3101
    1W        W54500   5.516  23.148   1.748 -0.0371 -0.2134  0.1323
    1W        W54501  22.650   4.713   2.885 -0.0159  0.3123  0.1410
    1W        W54502   3.917  29.563   7.791  0.4041 -0.0210 -0.2713
    1W        W54503   2.258  18.862   1.397 -0.0676 -0.1653 -0.0305
    1W        W54504   9.312  12.579   1.728 -0.2091  0.0614  0.4693
    1W        W54505  27.977  20.029   0.979 -0.0272 -0.2256  0.2745
    1W        W54506  28.315   6.139   2.791 -0.1856  0.3637 -0.0940
    1W        W54507   6.340  12.891   8.054 -0.4709 -0.0303  0.0692
    1W        W54508  29.240  13.327   0.548 -0.4473  0.1347  0.0728
    1W        W54509  13.600  29.351   7.028  0.0471 -0.2171 -0.0147
    1W        W54510   7.904   9.051   1.161 -0.1299  0.0358  0.0025
    1W        W54511  19.418  24.385   2.499 -0.0274  0.0122 -0.1634
    1W        W54512  29.283  20.755   6.547 -0.1735  0.0198 -0.0071
    1W        W54513   1.226   7.795   8.797 -0.0132 -0.1345  0.1545
    1W        W54514  12.591   8.611   0.345 -0.2213  0.2444 -0.1123
    1W        W54515   7.083  10.145   2.127  0.0650  0.0733  0.0039
    1W        W54516  28.628  29.119   9.020  0.2877 -0.0921  0.0514
    1W        W54517  13.378   0.191   0.618 -0.0792 -0.0550  0.0509
    1W        W54518  21.591   5.393   2.404  0.0786  0.2299 -0.3247
    1W        W54519  24.104  27.676   8.344 -0.0352 -0.1325 -0.0321
    1W        W54520  23.126  17.694   2.718  0.0687  0.1807  0.1754
    1W        W54521  19.053  18.702   2.030 -0.2834 -0.0548 -0.1511
    1W        W54522  16.353   4.033   6.832 -0.1243 -0.0378 -0.2847
    1W        W54523   5.697  26.800   7.028  0.1532  0.3888 -0.1436
    1W        W54524  11.861  17.190   0.073  0.1422  0.2267 -0.2758
    1W        W54525  16.220  26.274   9.266  0.1581  0.1412  0.0122
    1W        W54526  27.395  26.519   1.906  0.1229 -0.2276  0.1501
    1W        W54527  12.580  22.225   7.301  0.2287 -0.1703  0.1274
    1W        W54528  28.716   0.139   8.606 -0.1064  0.0813 -0.2364
    1W        W54529  20.906   4.678   2.781 -0.0374 -0.1557  0.1945
    1W        W54530  17.405  22.349   1.373 -0.1069  0.1223 -0.2385
    1W        W54531   0.172  26.661   0.305 -0.3086 -0.2094  0.6402
    1W        W54532   2.129   1.306   8.913  0.1925  0.3781  0.3610
    1W        W54533  10.812   1.165   8.707  0.3085  0.1252  0.0938
    1W        W54534  13.015   2.918   6.860 -0.0256  0.0162 -0.1835
    1W        W54535   3.590  11.010   9.436  0.5153 -0.4425  0.0248
    1W        W54536   4.877   3.186   9.364 -0.1139 -0.0242  0.1496
    1W        W54537  18.290  12.841   2.322  0.1770  0.1386 -0.2763
    1W        W54538   9.593   9.449   1.179  0.2178 -0.1065 -0.1564
    1W        W54539  26.294  21.853   6.441  0.1273 -0.0395  0.3795
    1W        W54540  26.400  21.260   2.038 -0.2144 -0.1861 -0.3408
    1W        W54541  20.490   3.354   7.672 -0.0635 -0.0490  0.0325
    1W        W54542   3.544  14.536   8.892 -0.1338 -0.3195 -0.1046
    1W        W54543  16.339  14.751   0.801 -0.0691  0.0312 -0.2212
    1W        W54544  15.471   7.779   8.735  0.1266 -0.2044 -0.2113
    1W        W54545  13.845   7.465   7.181 -0.2033 -0.2465  0.0131
    1W        W54546   8.228  26.870   1.551  0.0529 -0.0378 -0.1311
    1W        W54547  26.509  22.456   6.878  0.3667  0.1799 -0.1141
    1W        W54548   9.445  15.356   1.993 -0.0090 -0.0794 -0.0868
    1W        W54549  23.419  10.461   2.497  0.0381  0.0260 -0.0609
    1W        W54550  23.227   8.975   8.933 -0.3759 -0.1004 -0.1948
    1W        W54551  23.311  16.578   9.202  0.0946 -0.1683  0.0254
    1W        W54552  25.250  12.266   0.066  0.0280 -0.0532  0.1468
    1W        W54553   9.308  27.720   1.058  0.2885 -0.1014 -0.1184
    1W        W54554  14.903  26.216   2.884  0.1022 -0.1022 -0.2698
    1W        W54555  23.862  12.218   0.539  0.0299  0.0689  0.0201
    1W        W54556   3.982  10.492   7.402 -0.3888 -0.0424  0.0804
    1W        W54557  12.263   7.377   1.981 -0.1095 -0.0297 -0.0619
    1W        W54558  13.107  12.503   7.915  0.0437  0.2124 -0.1104
    1W        W54559  26.796  29.717   6.305 -0.1367 -0.0411 -0.0854
    1W        W54560   4.466  24.712   6.461  0.3298  0.1294 -0.1193
    1W        W54561  29.789   4.761   1.653  0.0275 -0.0224 -0.1124
    1W        W54562   8.526   4.999   2.276 -0.2795  0.0254 -0.4203
    1W        W54563  13.544  28.401   8.306 -0.0400  0.0434 -0.0021
    1W        W54564  24.136   4.278   7.732  0.0095 -0.1980  0.2279
    1W        W54565  23.278  17.444   6.453 -0.2251  0.0535 -0.2691
    1W        W54566  29.823  15.591   0.781  0.1342  0.0242  0.2668
    1W        W54567   3.090  29.678   6.754  0.1893 -0.1154 -0.0433
    1W        W54568   8.358  29.677   8.973 -0.0105 -0.1936  0.2908
    1W        W54569   5.908   4.351   1.719  0.0463 -0.0314 -0.0170
    1W        W54570  11.640  23.250   9.388  0.0937 -0.1082 -0.2090
    1W        W54571   3.797   1.337   0.004  0.1279  0.0893  0.0485
    1W        W54572   5.792  27.456   7.842  0.1439 -0.0589  0.3112
    1W        W54573   3.389   1.856   8.959 -0.0108 -0.0735  0.0351
    1W        W54574   8.307  20.552   0.064 -0.2144  0.0108 -0.2975
    1W        W54575  15.990  22.972   8.174 -0.1071 -0.2489  0.1100
    1W        W54576  23.409   7.897   7.170  0.0380 -0.1220 -0.2981
    1W        W54577  13.159   3.319   1.127  0.0178  0.0348 -0.0843
    1W        W54578   2.513  17.322   8.641  0.4086  0.1140 -0.1511
    1W        W54579  11.375  26.894   0.696  0.1060  0.6497 -0.1752
    1W        W54580  28.224  25.287   6.954  0.0154 -0.2985  0.0407
    1W        W54581   2.676  22.764   6.156 -0.1542  0.2292 -0.2080
    1W        W54582  28.785  16.823   8.579 -0.1018 -0.0218  0.2919
    1W        W54583   9.682   6.303   3.027 -0.3506 -0.0433  0.0603
    1W        W54584  10.727  19.376   7.324  0.0917  0.0347  0.0199
    1W        W54585   3.237  10.278   7.705  0.4051 -0.2688  0.0019
    1W        W54586   1.745  28.518   2.290 -0.0139 -0.2109 -0.0893
    1W        W54587  25.922   5.720   8.479 -0.0532 -0.0481 -0.2094
    1W        W54588  26.215   1.284   0.306  0.2113 -0.3272 -0.0217
    1W        W54589  21.823  15.299   9.392 -0.4621 -0.0329  0.0974
    1W        W54590  17.093   5.123   9.397  0.0691  0.2117  0.1049
    1W        W54591   8.788   6.459   0.082  0.0555 -0.1219 -0.1886
    1W        W54592  16.179   4.733   7.231 -0.0089 -0.1673 -0.0065
    1W        W54593  10.373  24.625   5.991  0.1200  0.0520 -0.2742
    1W        W54594  16.203  19.334   7.674  0.2455 -0.5182 -0.0947
    1W        W54595  27.320   5.079   6.893  0.0529 -0.2868 -0.1641
    1W        W54596   3.490   3.939   8.339  0.0197  0.2114 -0.0372
    1W        W54597  28.050  16.364   7.789  0.0259  0.0037 -0.1033
    1W        W54598  17.936  11.216   6.780  0.1842 -0.1592  0.0098
    1W        W54599  17.389  14.042   0.377  0.1937 -0.0389  0.0725
    1W        W54600  18.901  13.097   9.273 -0.1820 -0.2639  0.0066
    1W        W54601  14.368  21.125   0.665  0.0619 -0.0678  0.0023
    1W        W54602  11.087  13.106   8.701  0.0686  0.1269 -0.3658
    1W        W54603  19.880   9.480   8.838  0.2437  0.2101  0.0252
    1W        W54604   3.573  13.901   0.254 -0.0721  0.0948 -0.2386
    1W        W54605  25.857   9.122   0.550  0.3763 -0.1368  0.1294
    1W        W54606  19.559   3.479   8.952  0.0497  0.0832 -0.0639
    1W        W54607  26.493   5.583   7.777 -0.1240  0.3754 -0.0575
    1W        W54608   0.261  29.556   3.350  0.0393 -0.1571 -0.0755
    1W        W54609   3.191  24.511   8.901 -0.0973 -0.0860 -0.2602
    1W        W54610  20.360  29.821   7.280  0.1359  0.2294 -0.2009
    1W        W54611  20.849  26.104   2.572  0.1633  0.0448 -0.0060
    1W        W54612  22.678  27.142   2.669 -0.4093  0.3090  0.0056
    1W        W54613   5.718  16.340   6.680 -0.0962  0.0129 -0.2071
    1W        W54614  28.424  22.928   6.048  0.1293 -0.1893 -0.1153
    1W        W54615  26.535   8.813   1.642  0.2075 -0.2247  0.0315
    1W        W54616  25.042  19.272   0.546 -0.4149  0.1325 -0.0019
    1W        W54617  17.647  28.020   1.862 -0.5149  0.1912  0.0337
    1W        W54618  10.074  11.950   0.664 -0.0899  0.2259  0.5255
    1W        W54619  16.314  26.368   0.442 -0.0264  0.0562  0.0236
    1W        W54620  11.989  15.405   1.946  0.1724 -0.0479  0.1008
    1W        W54621  19.941  28.565   2.843 -0.3190  0.0857 -0.1382
    1W        W54622  16.618  23.806   2.244 -0.2419 -0.0033 -0.2386
    1W        W54623   9.581  15.437   8.173 -0.1830  0.0282  0.0376
    1W        W54624  17.042  27.802   7.885 -0.1010  0.2827 -0.0575
    1W        W54625  13.265   3.086   3.724  0.0778  0.3006 -0.0331
    1W        W54626  11.202   2.845   3.049 -0.0347 -0.2007 -0.1837
    1W        W54627  13.319  23.405   6.128  0.0976 -0.1573  0.1539
    1W        W54628  23.876   5.556   7.578  0.0382 -0.0007  0.1075
    1W        W54629  28.177  24.793   0.265 -0.2998 -0.3682  0.0639
    1W        W54630   2.485  25.828   5.677 -0.1475 -0.1899 -0.1599
    1W        W54631   1.343  22.417   2.503  0.2124 -0.1498 -0.2151
    1W        W54632   3.733  17.457   6.509 -0.2306  0.1574  0.3254
    1W        W54633  15.843  13.796   9.337 -0.0331 -0.0220  0.1701
    1W        W54634  14.979   2.738   1.301 -0.0131  0.0346  0.2738
    1W        W54635  10.538   2.579   8.503 -0.0053  0.1889 -0.2852
    1W        W54636   7.494  28.476   2.126  0.3809  0.1097 -0.3983
    1W        W54637  27.137  14.647   1.696 -0.1843  0.0653 -0.2466
    1W        W54638  18.346   3.355   8.370 -0.0967 -0.2994 -0.0274
    1W        W54639  12.310  23.337   0.074 -0.1515 -0.3213  0.2229
    1W        W54640  24.796  13.362   8.506  0.0747  0.1297 -0.3083
    1W        W54641  10.770  28.741   1.073 -0.0285 -0.2250 -0.0112
    1W        W54642   2.977  14.340   8.807  0.1274 -0.1542  0.2338
    1W        W54643  22.089  26.673   8.119  0.1655 -0.0762  0.0017
    1W        W54644  12.271  12.295   9.050 -0.2566  0.1812  0.0006
    1W        W54645  19.574  24.330   7.900  0.0673 -0.1543 -0.3680
    1W        W54646  29.868  23.682   6.761 -0.1638  0.0136 -0.0057
    1W        W54647   2.609   0.662   6.972 -0.2100  0.0626 -0.1463
    1W        W54648  16.466  19.694   1.137  0.1179 -0.2036 -0.2471
    1W        W54649  29.054  14.975   6.471  0.4017 -0.3102 -0.0667
    1W        W54650   4.662   5.181   0.805  0.1098  0.1707  0.0504
    1W        W54651  20.756  20.476   7.758  0.1947 -0.2539  0.1483
    1W        W54652  24.191   2.182   6.371  0.2254  0.0525  0.1257
    1W        W54653   3.710  24.833   9.089 -0.0339  0.0950 -0.1050
    1W        W54654  11.062  23.700   2.435 -0.1112  0.0181  0.1244
    1W        W54655  19.868  12.930   8.231  0.0520 -0.0931  0.0183
    1W        W54656  19.558  17.070   9.127 -0.0159 -0.1640  0.0400
    1W        W54657   3.140  12.793   8.324 -0.3030 -0.0858 -0.0504
    1W        W54658  28.418  26.379   1.489 -0.0275  0.0736 -0.0477
    1W        W54659  21.194  26.974   7.886 -0.0837  0.2116  0.0879
    1W        W54660  17.411   7.535   8.452 -0.4415  0.1052 -0.2589
    1W        W54661  14.015  13.533   1.673 -0.2530  0.1416 -0.0201
    1W        W54662  12.331   7.942   2.578  0.0476  0.2645 -0.1693
    1W        W54663  28.654  24.172   1.505  0.1047  0.1499 -0.4137
    1W        W54664  29.041  26.350   7.563 -0.1445  0.1374 -0.0247
    1W        W54665   4.816   6.648   7.488  0.0773  0.0690  0.1717
    1W        W54666  15.382  21.358   9.192 -0.1540 -0.0638  0.0576
    1W        W54667  25.422  26.376   1.753  0.2860  0.3320 -0.2174
    1W        W54668   2.255  10.378   8.014  0.1204  0.1496 -0.0232
    1W        W54669  27.544   5.733   0.664 -0.1256  0.1049 -0.0716
    1W        W54670   9.675   6.978   8.619  0.2809  0.0439 -0.1768
    1W        W54671  28.770   9.096   9.126 -0.3807 -0.1115 -0.3173
    1W        W54672  25.923  29.855   2.483  0.1353 -0.0793  0.0831
    1W        W54673   5.276  14.103   1.685 -0.1182  0.1474 -0.0551
    1W        W54674   4.583   9.076   2.460  0.2184  0.1788 -0.1011
    1W        W54675  26.046  16.169   1.785  0.0810 -0.1493 -0.0558
    1W        W54676  18.726  25.409   2.441  0.0530 -0.0345 -0.0988
    1W        W54677  27.370   4.155   7.118 -0.1192 -0.1567  0.1663
    1W        W54678  25.354   6.168   2.129 -0.1796 -0.0995 -0.1897
    1W        W54679   9.698   1.385   1.685 -0.1236 -0.2396  0.3343
    1W        W54680  18.344  23.475   2.645 -0.0990 -0.2565 -0.2366
    1W        W54681  13.610  28.808   2.288 -0.0647 -0.0919  0.2184
    1W        W54682  12.509   5.784   3.259 -0.1952  0.1458  0.3991
    1W        W54683  22.577  15.703   1.001 -0.0268  0.0682  0.1578
    1W        W54684  14.598  25.651   0.402  0.0573  0.1864 -0.1827
    1W        W54685  20.188   0.544   2.679  0.0191  0.0389  0.1138
    1W        W54686  23.345   9.921   8.756  0.0574  0.2890  0.0084
    1W        W54687   7.379   9.435   7.506 -0.0912  0.0858  0.0207
    1W        W54688  19.215  21.967   2.190 -0.1261 -0.2297 -0.2011
    1W        W54689  19.831   8.421   7.070  0.1805  0.2571 -0.0627
    1W        W54690  12.464  27.689   3.211 -0.0085 -0.2411  0.2606
    1W        W54691  10.729  17.186   1.780 -0.0742  0.0423  0.1985
    1W        W54692  17.398  22.848   8.341  0.0542  0.1751  0.1474
    1W        W54693  13.212  19.185   6.486 -0.0460 -0.0780  0.0342
    1W        W54694   0.702   1.721   0.184  0.3329  0.1189 -0.5548
    1W        W54695  27.444  17.563   2.729  0.2350  0.1480  0.0582
    1W        W54696  12.733   9.427   1.588 -0.2912  0.0325 -0.2095
    1W        W54697  19.479   0.696   0.617  0.1049 -0.2648  0.1654
    1W        W54698  23.957  21.837   9.358 -0.3685 -0.2378  0.0966
    1W        W54699  22.102   0.123   8.242  0.1407 -0.3048  0.2585
    1W        W54700   5.694   7.109   3.447 -0.2128  0.2717 -0.0894
    1W        W54701   0.081   0.600   2.055  0.0732 -0.2405  0.3183
    1W        W54702   0.362   5.076   0.499  0.1452  0.0067  0.0716
    1W        W54703  10.872   8.518   8.840 -0.4865  0.0161  0.2760
    1W        W54704  12.964  21.867   1.792  0.0543 -0.0885  0.0479
    1W        W54705  19.749  29.186   8.112  0.2561 -0.2610 -0.1588
    1W        W54706  12.206  12.075   0.097  0.2111 -0.4824 -0.1301
    1W        W54707   9.125   5.733   6.615  0.0324 -0.2050 -0.1582
    1W        W54708  19.365  15.605   8.182 -0.1225 -0.1100  0.0042
    1W        W54709  16.798   9.281   1.323  0.2911  0.1371 -0.2285
    1W        W54710  28.198   8.497   7.877 -0.1292 -0.1261  0.0355
    1W        W54711   6.865  23.756   7.748 -0.2675  0.0930  0.1051
    1W        W54712  10.890   6.640   8.546 -0.0034 -0.0436  0.0865
    1W        W54713  23.067  17.154   8.349 -0.0373 -0.0295  0.3187
    1W        W54714  29.296   7.816   2.061  0.0678  0.3007  0.2327
    1W        W54715  12.305  13.724   1.462 -0.2971  0.0588 -0.0700
    1W        W54716  18.225  12.467   1.140 -0.0184  0.1782 -0.0750
    1W        W54717  12.046   2.956   8.276 -0.2066  0.0025 -0.2986
    1W        W54718  24.670  12.363   6.890 -0.2273  0.1155  0.0338
    1W        W54719   3.379   5.747   8.350 -0.1657 -0.0039  0.0835
    1W        W54720  23.204  24.803   1.797  0.0386  0.0486  0.0540
    1W        W54721  29.385   9.614   1.199  0.2709  0.0164  0.1699
    1W        W54722   9.551  28.856   2.582  0.3023  0.0160  0.1868
    1W        W54723  26.782   4.515   6.455 -0.0186 -0.1956  0.3189
    1W        W54724  15.219   0.157   0.811  0.0836  0.1899 -0.0622
    1W        W54725  23.244   6.654   9.242  0.1411  0.5742  0.1467
    1W        W54726  14.832  18.859   8.319 -0.0346 -0.4409  0.0616
    1W        W54727  22.566  11.999   2.162 -0.0098  0.1314 -0.0422
    1W        W54728  21.156  17.579   8.830  0.0604 -0.2409 -0.3692
    1W        W54729   9.073  12.727   6.996  0.0780  0.0825 -0.3147
    1W        W54730  13.260   2.716   2.705 -0.0919  0.2651  0.0145
    1W        W54731  18.609   2.278   7.791  0.0757 -0.2654 -0.0905
    1W        W54732  13.951  14.222   0.562 -0.1261 -0.3811  0.0394
    1W        W54733  28.336  22.940   1.720 -0.0853  0.4973  0.1165
    1W        W54734   6.677  12.293   2.628  0.0587 -0.2343  0.2775
    1W        W54735  26.195  20.347   8.436 -0.0739  0.0893 -0.2121
    1W        W54736   7.990  21.105   6.638  0.0634 -0.2158  0.0853
    1W        W54737  18.636   8.910   0.651 -0.1634  0.0331 -0.0588
    1W        W54738   8.596   9.795   8.242  0.1219 -0.3160 -0.1999
    1W        W54739   5.888  22.304   8.471  0.2006 -0.0269  0.1177
    1W        W54740   5.643   7.206   7.734  0.0904 -0.0553  0.2303
    1W        W54741  20.943   8.707   9.038  0.1470 -0.0962 -0.0731
    1W        W54742  24.748   5.865   7.178  0.1406  0.1840  0.1701
    1W        W54743   4.307  29.639   2.259 -0.1331  0.0562 -0.0761
    1W        W54744   5.674  11.653   6.908  0.3020 -0.0520  0.1341
    1W        W54745  27.025  15.934   1.212  0.0885 -0.1553  0.0588
    1W        W54746  13.226   5.898   8.925 -0.1205  0.1370 -0.1529
    1W        W54747   0.236   6.834   2.534  0.0498  0.0572  0.0673
    1W        W54748   0.041  23.076   2.221  0.0751  0.2828  0.1419
    1W        W54749  28.397   5.134   1.586 -0.4305 -0.1859  0.1842
    1W        W54750  11.518  11.546   9.411  0.0233  0.0023  0.1450
    1W        W54751   8.633  20.466   7.172 -0.0611  0.0359  0.2148
    1W        W54752  12.383  29.772   1.057 -0.0436 -0.0138  0.1311
    1W        W54753   2.117  12.345   7.900  0.0310 -0.0353 -0.1017
    1W        W54754  23.936   9.483   8.394 -0.1447 -0.0611 -0.0915
    1W        W54755  22.442  14.800   1.454 -0.0712  0.0517 -0.1621
    1W        W54756  21.683  25.688   8.284 -0.0498 -0.0152 -0.1679
    1W        W54757  27.670   8.548   7.024  0.1392 -0.0506 -0.1059
    1W        W54758  14.200   0.149   2.671  0.1694  0.0733 -0.1473
    1W        W54759  25.548  24.471   2.063 -0.0166  0.1171 -0.1251
    1W        W54760   7.007  24.704   7.009  0.0087  0.0050  0.0412
    1W        W54761   8.810  17.316   0.838 -0.0303  0.0996  0.1365
    1W        W54762  20.846  13.200   8.055  0.2464  0.1326 -0.0246
    1W        W54763  28.057  13.340   7.983  0.2169 -0.4092 -0.1983
    1W        W54764  15.968  17.693   9.052  0.1316  0.2216 -0.0728
    1W        W54765   6.509  13.134   1.807  0.0802  0.2727 -0.0536
    1W        W54766  11.640  10.925   9.176 -0.4401  0.2037 -0.1141
    1W        W54767  25.146  12.349   1.734  0.0323  0.3181 -0.2708
    1W        W54768   0.306   3.794   9.373  0.0125 -0.3666  0.0571
    1W        W54769  14.731  21.823   2.463 -0.1265  0.4665  0.0598
    1W        W54770  15.159   9.589   1.304  0.0676  0.0544  0.0083
    1W        W54771  24.968  12.905   6.116 -0.1516 -0.1520 -0.0410
    1W        W54772  15.602   9.389   0.879  0.0797  0.1036 -0.1523
    1W        W54773  25.513  24.947   3.134 -0.0425  0.1065  0.0389
    1W        W54774  18.097   8.569   0.239 -0.1449 -0.1021  0.0648
    1W        W54775   5.799  28.787   8.210  0.0090 -0.2155 -0.0385
    1W        W54776   3.620   4.053   1.635  0.0947  0.1390  0.0755
    1W        W54777  16.654  21.220   7.992 -0.1256  0.2437  0.2539
    1W        W54778   8.593   0.142   2.575  0.1791 -0.1462  0.0020
    1W        W54779  15.106  20.828   7.078  0.2295 -0.1389 -0.0293
    1W        W54780  14.167  16.069   2.504 -0.2337  0.0241  0.0734
    1W        W54781   4.490  18.487   9.187  0.0377  0.1989  0.2937
    1W        W54782   7.199  15.496   7.299  0.1944 -0.1667 -0.0646
    1W        W54783  25.497   5.731   2.386 -0.2810  0.2340 -0.0019
    1W        W54784  20.568   8.972   8.653 -0.2285  0.0623  0.0971
    1W        W54785  23.587   5.736   0.112 -0.2838 -0.1156 -0.0179
    1W        W54786  19.823   3.735   9.257  0.2989 -0.0304 -0.1621
    1W        W54787  27.036  18.854   2.570  0.3312 -0.2038  0.0765
    1W        W54788  10.419   2.841   2.134  0.0123 -0.0508 -0.0924
    1W        W54789  23.840  13.616   9.403  0.1217  0.1560  0.4036
    1W        W54790  29.130  26.723   9.344 -0.2372 -0.1209  0.0007
    1W        W54791  22.472  23.329   9.460 -0.0124 -0.1121  0.2894
    1W        W54792  19.722  26.657   9.210 -0.0529 -0.1325  0.1013
    1W        W54793   0.065  20.572   1.969  0.0807 -0.1512 -0.0633
    1W        W54794  26.390  29.497   0.503 -0.0398 -0.4205 -0.0411
    1W        W54795   3.986   3.567   9.201 -0.2724 -0.2399 -0.1563
    1W        W54796  26.367  14.133   8.104 -0.4073 -0.1923  0.3770
    1W        W54797  28.001   2.848   8.462  0.0023 -0.0472 -0.1261
    1W        W54798  29.041  11.239   6.086  0.1886 -0.2906 -0.1545
    1W        W54799   7.129  23.384   8.202 -0.0867  0.0304 -0.0496
    1W        W54800  20.191  20.286   2.454 -0.0467 -0.3428  0.0498
    1W        W54801  17.855   9.627   0.667  0.2995  0.1243 -0.2502
    1W        W54802   7.798   2.963   3.192 -0.2433 -0.3922  0.2325
    1W        W54803  24.104  17.114   1.706 -0.1720  0.2841 -0.0423
    1W        W54804   6.333   9.775   8.476  0.0924  0.3132 -0.2518
    1W        W54805   7.789  15.186   0.632 -0.1955  0.4370 -0.0137
    1W        W54806  17.626  13.626   0.180  0.0430 -0.1696 -0.1707
    1W        W54807  22.968  20.650   2.484  0.4786  0.1552  0.3302
    1W        W54808  19.059  14.008   0.278 -0.3531  0.0506 -0.0715
    1W        W54809  29.772  17.982   0.590 -0.0014  0.2419 -0.4247
    1W        W54810  29.315  21.828   2.012 -0.0668  0.2568  0.0120
    1W        W54811  19.565   0.336   0.249  0.3462  0.3891  0.1838
    1W        W54812   4.757   0.101   0.549 -0.1368 -0.0313 -0.2247
    1W        W54813  18.067  24.081   9.133 -0.4066  0.2194 -0.0525
    1W        W54814   6.075  17.987   7.161  0.0498 -0.1978 -0.0007
    1W        W54815   8.295  27.737   7.068  0.1254 -0.2034  0.0931
    1W        W54816  11.917   8.301   1.938  0.0816 -0.0461  0.3127
    1W        W54817  18.814  19.839   7.681  0.0800  0.2189 -0.0092
    1W        W54818   6.247   1.224   1.393  0.0512 -0.2626 -0.0912
    1W        W54819  16.428  11.232   7.962 -0.0528  0.0942  0.2334
    1W        W54820   6.466   1.698   2.202  0.1679  0.3486 -0.1098
    1W        W54821  25.238  13.561   7.720 -0.3277 -0.4773  0.1011
    1W        W54822  20.491   8.412   0.020 -0.1487  0.3150 -0.5207
    1W        W54823  21.472  11.849   7.838 -0.1600 -0.1798 -0.2203
    1W        W54824  23.253   1.724   1.950  0.0988  0.2682  0.3199
    1W        W54825  16.005  24.163   1.139  0.0372  0.0733  0.0044
    1W        W54826   9.166   2.764   2.295  0.1509  0.2282 -0.1124
    1W        W54827  25.120   7.930   7.204  0.0825  0.0632  0.0246
    1W        W54828   2.802  20.407   6.285  0.2933  0.1948 -0.1412
    1W        W54829  20.072   8.187   9.076 -0.0748 -0.0102  0.4041
    1W        W54830  15.752  21.173   1.881  0.2012  0.0324  0.0205
    1W        W54831  13.838  16.785   6.418  0.2540 -0.1446 -0.0853
    1W        W54832  27.004   4.072   1.955  0.0198  0.2041 -0.0063
    1W        W54833  28.678   4.303   6.483  0.0943  0.1735 -0.2924
    1W        W54834   5.679  10.962   1.247 -0.1134 -0.0248 -0.3374
    1W        W54835   6.426  24.430   9.091 -0.0942 -0.0019  0.0457
    1W        W54836  14.804   5.611   7.327 -0.1642 -0.1273  0.3692
    1W        W54837  28.366   6.656   7.257 -0.4244  0.0388 -0.0072
    1W        W54838  26.614  26.605   8.027 -0.0984  0.0563  0.2459
    1W        W54839  20.082  27.649   0.120  0.0022  0.0762  0.4271
    1W        W54840  15.062  22.591   7.460 -0.1340 -0.1068 -0.1077
    1W        W54841  15.932  26.643   3.174  0.0598  0.2447  0.1472
    1W        W54842  23.691  24.793   7.373 -0.0857 -0.1676  0.1641
    1W        W54843   6.479  20.624   8.336  0.3182  0.1337  0.0901
    1W        W54844   4.002  18.149   7.922  0.3974 -0.5817 -0.0208
    1W        W54845  23.194  18.200   8.857  0.0349 -0.2020 -0.0247
    1W        W54846  28.701   1.587   2.557  0.0208  0.1013 -0.1199
    1W        W54847  27.343   7.891   8.810  0.0748 -0.1023 -0.3608
    1W        W54848   9.336   2.082   3.051 -0.1494 -0.1946  0.0405
    1W        W54849  21.638  20.779   6.710 -0.0113  0.2168  0.2179
    1W        W54850  27.890  27.656   3.197  0.2129 -0.0933  0.2478
    1W        W54851  15.131   9.963   8.557  0.1050 -0.0753 -0.1954
    1W        W54852   0.909  13.410   9.311 -0.0087  0.1564  0.0419
    1W        W54853   1.561  13.503   8.472  0.2979 -0.0231  0.3541
    1W        W54854  23.711  15.663   8.362 -0.1159 -0.0347 -0.1557
    1W        W54855   3.147   2.559   9.447  0.4156  0.1578  0.2473
    1W        W54856   8.552  18.206   7.675  0.1054 -0.1054 -0.1994
    1W        W54857  13.338  13.224   0.085  0.2065 -0.0565  0.0408
    1W        W54858   5.982   1.476   2.085  0.0655 -0.2524  0.0748
    1W        W54859  27.176   1.698   1.759  0.2876  0.2576  0.0705
    1W        W54860  29.780  21.010   1.917  0.2545 -0.1771  0.0858
    1W        W54861  16.832   7.898   1.297 -0.0280  0.0002 -0.0366
    1W        W54862  23.961  29.358   9.306  0.2503  0.2361  0.2398
    1W        W54863  24.485  14.595   8.977 -0.2771 -0.0471  0.0647
    1W        W54864  20.843   6.576   0.308 -0.1880 -0.1449 -0.1430
    1W        W54865   1.079  22.270   7.394  0.1006  0.4443  0.1063
    1W        W54866  26.561  23.259   0.993 -0.3949 -0.0097 -0.1282
    1W        W54867  26.559  13.857   6.886  0.0717 -0.1056 -0.1325
    1W        W54868  19.675  25.257   0.710 -0.2506  0.1848  0.0195
    1W        W54869  25.005  27.610   2.454  0.1791 -0.1326 -0.1512
    1W        W54870  16.676  10.835   7.674  0.1710 -0.1973 -0.0838
    1W        W54871  23.156   4.405   1.463  0.1570 -0.0112  0.0385
    1W        W54872  23.661  18.058   8.997  0.0763 -0.5167  0.0840
    1W        W54873   1.560   6.900   8.725 -0.0864 -0.0590  0.1558
    1W        W54874  17.420  23.460   8.647 -0.3476  0.1196 -0.1307
    1W        W54875   4.187  26.755   0.478 -0.0895 -0.1780  0.1381
    1W        W54876   6.223  27.366   8.474 -0.3530  0.2478  0.0004
    1W        W54877  26.706  21.988   0.483  0.5811  0.0642  0.0048
    1W        W54878  15.845  29.123   0.397  0.1780 -0.0300 -0.0094
    1W        W54879  17.365  28.913   0.607  0.2027  0.0491 -0.2985
    1W        W54880  24.571  14.631   1.850 -0.2073  0.1306  0.3159
    1W        W54881  25.358  17.641   0.810 -0.4151 -0.0117  0.1821
    1W        W54882  25.511   7.238   8.184  0.1413 -0.3974 -0.0696
    1W        W54883  25.547   6.809   7.776  0.0644  0.0271 -0.0062
    1W        W54884  24.544   2.332   2.695 -0.1121  0.0238 -0.0593
    1W        W54885  18.552  25.990   2.317  0.0310  0.3285 -0.1561
    1W        W54886  11.932  17.650   7.857 -0.2860  0.1149 -0.1334
    1W        W54887  24.703   3.378   0.936 -0.1149 -0.1776 -0.3665
    1W        W54888  24.795  16.474   9.128 -0.1102 -0.3471 -0.0738
    1W        W54889  15.261  10.782   6.832  0.1451  0.4117 -0.1768
    1W        W54890  11.225  28.220   8.572  0.1672  0.2065  0.2210
    1W        W54891  29.678   1.933   7.617  0.0157 -0.1160  0.2746
    1W        W54892   5.978  12.429   7.942 -0.0416 -0.1572  0.0268
    1W        W54893   5.225  19.716   8.586 -0.0009 -0.3296  0.1148
    1W        W54894   7.765  15.537   8.620  0.0278  0.0152  0.0029
    1W        W54895   0.475  10.632   9.311  0.0968 -0.0104 -0.0121
    1W        W54896   9.531  14.082   1.881  0.5241 -0.0674  0.0690
    1W        W54897  24.223  17.431   7.305 -0.0811 -0.0768 -0.0367
    1W        W54898  22.850  12.888   7.883  0.0546 -0.3767  0.0281
    1W        W54899  12.461   6.876   7.819 -0.2531  0.2048  0.0912
    1W        W54900  24.782  19.836   9.442 -0.1246 -0.3046  0.0160
    1W        W54901   6.292  23.686   7.806 -0.2198  0.0189 -0.3701
    1W        W54902  19.169  22.966   2.161  0.0593  0.1773 -0.3264
    1W        W54903  28.228   4.813   2.356  0.1504 -0.0481 -0.0766
    1W        W54904  25.145  20.994   0.352 -0.2302 -0.0962  0.2626
    1W        W54905  22.051   1.745   9.363 -0.0926 -0.3565  0.2078
    1W        W54906  12.176  10.087   7.448 -0.2749  0.0928 -0.2162
    1W        W54907  20.506   2.885   7.712 -0.3570 -0.1129 -0.1610
    1W        W54908  12.935   7.779   8.237 -0.0190 -0.2260  0.2885
    1W        W54909  15.366   6.778   3.191 -0.1883 -0.1077 -0.1962
    1W        W54910  11.519  26.474   0.436  0.1871 -0.0971  0.2610
    1W        W54911  27.276   6.558   6.367  0.0143 -0.0068  0.2868
    1W        W54912  27.614  27.454   0.735 -0.1520  0.2184  0.2351
    1W        W54913   6.331   0.150   8.230  0.1059 -0.0627  0.0309
    1W        W54914   6.918   5.152   9.065 -0.0651 -0.2340 -0.0907
    1W        W54915   8.496  12.020   0.100  0.0033 -0.0373 -0.2226
    1W        W54916  14.144  11.503   8.283 -0.0958  0.0872 -0.1700
    1W        W54917   9.751   4.782   1.960  0.2843 -0.0458 -0.1765
    1W        W54918  11.885  20.332   0.539 -0.3611 -0.1631 -0.1646
    1W        W54919   6.319  23.120   8.561  0.0356  0.1017  0.0934
    1W        W54920  20.688  11.084   0.552 -0.2745 -0.1613 -0.0800
    1W        W54921   9.086   0.377   2.335 -0.1861  0.1634  0.0098
    1W        W54922  22.382  20.604   3.394 -0.0096 -0.1112 -0.1289
    1W        W54923  13.787   1.123   7.591  0.1245 -0.2080  0.1989
    1W        W54924  27.942   2.999   0.498 -0.0911 -0.0097  0.2134
    1W        W54925  12.792  14.848   7.098 -0.1082 -0.0004  0.1727
    1W        W54926  29.040  13.786   6.523 -0.1759 -0.0420 -0.1030
    1W        W54927  24.857  28.163   2.703 -0.1208 -0.3766 -0.0425
    1W        W54928   9.796  12.917   9.175 -0.1767 -0.2682 -0.2740
    1W        W54929  18.427   4.865   1.544  0.0318 -0.1680 -0.0831
    1W        W54930  11.615   3.628   2.078 -0.1352 -0.0584  0.1587
    1W        W54931  13.767   5.787   1.263 -0.0852  0.2717  0.2485
    1W        W54932  13.584  13.394   8.185 -0.1048 -0.0228  0.2338
    1W        W54933  21.335   8.255   0.714  0.2168  0.1372 -0.1512
    1W        W54934  26.161   1.740   8.509 -0.3131 -0.1136  0.0605
    1W        W54935  19.425   4.928   0.676  0.2754  0.3187  0.2040
    1W        W54936  19.402   6.061   8.115 -0.0751 -0.0073 -0.2655
    1W        W54937   5.218   0.062   7.734  0.2332  0.1163 -0.0996
    1W        W54938  15.211  10.982   0.019  0.1238  0.1349 -0.0562
    1W        W54939  28.858  27.623   7.051 -0.4432  0.0674  0.0942
    1W        W54940  16.449   5.408   8.068  0.1524 -0.1822  0.1781
    1W        W54941  10.242  24.810   7.819 -0.1444 -0.3714 -0.2770
    1W        W54942  22.472   3.643   7.085  0.1563  0.0606  0.3390
    1W        W54943   4.761  15.095   9.258  0.3895  0.2096 -0.2899
    1W        W54944   5.317  19.184   0.971 -0.0456 -0.0663  0.1186
    1W        W54945  11.791  19.891   0.769  0.0983 -0.0536 -0.0825
    1W        W54946  14.293   6.069   0.695 -0.1716  0.1091  0.2188
    1W        W54947  11.432  26.380   7.370  0.0249  0.2665 -0.0083
    1W        W54948  20.934  16.364   1.436 -0.1337 -0.1500  0.0113
    1W        W54949  13.113  23.524   1.977  0.0060 -0.0367 -0.1541
    1W        W54950  28.082   6.448   6.295 -0.1171  0.1520 -0.0786
    1W        W54951   6.008  18.555   6.199  0.1684  0.2417  0.0349
    1W        W54952  26.294  25.800   1.371 -0.2264 -0.1895  0.3879
    1W        W54953   2.003   9.227   6.424  0.3386 -0.0866 -0.0102
    1W        W54954   4.869  14.960   8.737  0.2505 -0.2919 -0.0312
    1W        W54955   1.474  29.596   1.082  0.1293  0.0207  0.0911
    1W        W54956  19.064   0.633   1.904  0.3035 -0.0767 -0.0200
    1W        W54957   4.110  18.697   8.902 -0.2127 -0.2705  0.1822
    1W        W54958  17.798  11.889   0.835 -0.2078 -0.0083  0.0781
    1W        W54959  18.342  13.308   7.088 -0.0976 -0.0631  0.0264
    1W        W54960   1.764   4.758   9.308  0.1774 -0.3365 -0.3253
    1W        W54961  22.928  10.594   2.462  0.1024 -0.0102 -0.0766
    1W        W54962  17.280  19.264   1.430  0.0885 -0.2768  0.2490
    1W        W54963  11.794   3.615   3.010 -0.2712 -0.1455 -0.2534
    1W        W54964  15.701  23.741   8.830  0.1392  0.1448  0.0710
    1W        W54965  22.744  29.551   1.287 -0.2716 -0.1540 -0.1983
    1W        W54966  13.055   6.415   1.548  0.2043 -0.0173 -0.0263
    1W        W54967   2.378  15.317   8.420  0.1898 -0.0897 -0.1304
    1W        W54968   2.579  26.148   6.461  0.1518 -0.0176  0.2549
    1W        W54969  17.674  24.261   2.802 -0.3399  0.2520 -0.4414
    1W        W54970  25.901   1.804   1.892  0.0378  0.1476 -0.6251
    1W        W54971  20.706  12.687   8.056 -0.0262  0.1529  0.2193
    1W        W54972   9.587   2.188   0.772 -0.2768 -0.1985  0.0578
    1W        W54973   2.265   1.080   1.778  0.1791 -0.0919  0.5821
    1W        W54974  21.397   5.570   1.225  0.1698  0.0587 -0.1766
    1W        W54975  23.289   1.244   0.067 -0.0844 -0.1580 -0.0656
    1W        W54976   7.280   8.982   0.214  0.0674  0.2195  0.0070
    1W        W54977  13.175  13.144   8.227 -0.2791  0.0216  0.2058
    1W        W54978   2.385  15.966   0.406 -0.1820  0.1919 -0.3113
    1W        W54979   9.153  12.324   8.750 -0.0757 -0.0352  0.0746
    1W        W54980  10.760  22.635   7.865 -0.1331  0.0306 -0.2309
    1W        W54981   2.220  18.118   7.097  0.2797  0.0682 -0.1228
    1W        W54982   6.065  15.918   6.563  0.3410  0.6020  0.1335
    1W        W54983   5.352  16.751   6.981  0.0652  0.1235 -0.2914
    1W        W54984  15.270  12.000   9.125  0.0487  0.2320 -0.0863
    1W        W54985  21.616   5.789   0.804  0.1255  0.0557 -0.0369
    1W        W54986   9.852  26.599   7.187  0.1155  0.0624  0.2344
    1W        W54987   6.520  13.822   8.823 -0.0603 -0.2521  0.0107
    1W        W54988  17.141  12.353   9.043  0.2929 -0.0353 -0.0459
    1W        W54989  20.218   1.468   0.139 -0.1210  0.0245  0.2057
    1W        W54990   4.473  16.832   2.086  0.2700  0.0856  0.2500
    1W        W54991   2.619  23.415   1.745  0.1603 -0.2390  0.2464
    1W        W54992   5.399  20.102   7.202  0.1921 -0.0098  0.0158
    1W        W54993  21.340  15.905   6.260 -0.2180  0.3161 -0.0634
    1W        W54994   8.279  22.724   6.790 -0.3537  0.1373  0.0499
    1W        W54995  14.221  20.127   0.425 -0.5359  0.0906 -0.0127
    1W        W54996  29.049   4.298   2.259 -0.0887  0.1273  0.2914
    1W        W54997   9.543  25.020   1.087 -0.0140  0.0732  0.0702
    1W        W54998   6.596   0.260   2.897  0.0930  0.1629  0.1462
    1W        W54999  20.652  28.074   0.542 -0.3152  0.2731 -0.0838
    1W        W55000   0.352  26.122   6.498 -0.2300 -0.0353  0.0123
    1W        W55001  27.547   4.254   0.745  0.0173 -0.1867  0.1259
    1W        W55002  11.092  18.391   0.276 -0.0118 -0.1137 -0.0955
    1W        W55003  13.939   0.166   2.180 -0.0583 -0.3751  0.1305
    1W        W55004  13.621  19.475   8.590 -0.1596  0.1202 -0.1710
    1W        W55005  22.970  29.542   0.055 -0.1929 -0.0647 -0.2386
    1W        W55006  17.986  12.879   1.935 -0.1094  0.0639 -0.1503
    1W        W55007  14.381  10.359   2.093  0.0136  0.0434 -0.0935
    1W        W55008   4.510   2.414   8.843 -0.0563 -0.1463  0.0059
    1W        W55009  26.742  28.064   1.544 -0.1690  0.4486  0.1508
    1W        W55010  26.394  12.630   1.525 -0.3255  0.0473 -0.0308
    1W        W55011   1.380  27.809   7.919 -0.1747  0.3330  0.0638
    1W        W55012   7.302  23.339   1.314  0.1830 -0.1403 -0.0055
    1W        W55013  17.521   1.444   1.447 -0.0117 -0.1295  0.0117
    1W        W55014  21.617   7.733   8.255  0.4191  0.0834 -0.1464
    1W        W55015  11.099  21.265   8.531 -0.3917 -0.2370  0.1360
    1W        W55016  22.302   6.798   8.174  0.1930  0.0889  0.2499
    1W        W55017  11.084  16.430   1.688 -0.1973 -0.2854 -0.1949
    1W        W55018  24.998  21.681   1.645 -0.1667  0.3190  0.0211
    1W        W55019   6.403   0.725   7.149  0.1095  0.2583 -0.3444
    1W        W55020  27.025   6.467   8.894 -0.1619 -0.3355  0.1539
    1W        W55021  29.045  10.402   9.092 -0.2096 -0.1401 -0.0286
    1W        W55022   6.745  16.456   7.591  0.0464 -0.0531 -0.1052
    1W        W55023   2.356   7.932   7.660 -0.4577 -0.0115 -0.0508
    1W        W55024  12.792  17.823   1.030  0.1703  0.0772  0.1963
    1W        W55025   2.584  28.444   1.738  0.1082  0.0473  0.0659
    1W        W55026   6.243  19.411   7.707  0.0680 -0.0483  0.1986
    1W        W55027  22.579  18.904   7.604 -0.0423  0.2005  0.3803
    1W        W55028  20.547  12.288   8.359 -0.0202  0.1105  0.1557
    1W        W55029  22.806   5.334   1.173  0.1913 -0.3634 -0.0505
    1W        W55030  28.549   2.870   8.298  0.0095 -0.1874 -0.0965
    1W        W55031   4.877   8.320   8.654  0.2588 -0.2516  0.1778
    1W        W55032   5.356   9.211   7.564 -0.0433  0.1068  0.3093
    1W        W55033  16.201   5.202   7.672  0.0271  0.1312  0.1278
    1W        W55034   1.942   9.947   7.212  0.0985  0.0250 -0.2826
    1W        W55035   4.088  22.685   9.302 -0.1017  0.3634  0.2121
    1W        W55036   8.254  28.140   2.138 -0.1603 -0.3140 -0.0351
    1W        W55037  28.214  14.485   1.389 -0.0890  0.1884  0.1975
    1W        W55038  18.584   6.081   2.472 -0.0626  0.0707  0.2306
    1W        W55039  10.976  15.238   8.944  0.2977 -0.3280  0.0820
    1W        W55040  15.776   5.287   9.443 -0.5461  0.1059  0.1042
    1W        W55041  10.848  29.310   9.371 -0.0594 -0.0548  0.2335
    1W        W55042  23.048  27.501   2.948  0.2655  0.0233  0.0091
    1W        W55043  24.625   3.343   1.813 -0.0277  0.1479  0.3246
    1W        W55044   2.254   5.849   2.716  0.1899  0.3453  0.0925
    1W        W55045   6.110   7.887   7.191  0.0396 -0.1503  0.0389
    1W        W55046   0.697  18.045   8.232  0.0567 -0.4046  0.1236
    1W        W55047   0.671   6.975   0.419  0.0416 -0.3072 -0.1404
    1W        W55048  27.253   9.969   8.451  0.0318 -0.2144  0.3187
    1W        W55049   2.007  17.364   6.508 -0.3715 -0.0043  0.1984
    1W        W55050  10.537  13.585   7.760 -0.0836  0.0494 -0.0122
    1W        W55051   7.383   1.250   8.768 -0.2055  0.0399  0.2714
    1W        W55052  25.402  24.681   8.469 -0.0482  0.2841  0.1797
    1W        W55053   4.749   2.988   1.472  0.0917  0.0214  0.1606
    1W        W55054  11.372   5.588   6.720  0.1634 -0.1029  0.1193
    1W        W55055   7.412  22.747   6.703  0.1456 -0.1615 -0.6295
    1W        W55056  28.208  15.166   1.184 -0.1147  0.1405  0.2034
    1W        W55057   8.306  23.202   8.485  0.1578 -0.2057 -0.1874
    1W        W55058  25.847  28.458   8.817  0.4362  0.2035 -0.2369
    1W        W55059  11.505  15.420   8.380 -0.1149  0.0108 -0.0093
    1W        W55060   7.346  26.836   9.242  0.2071 -0.1761  0.0087
    1W        W55061  22.126   3.280   7.751 -0.3237 -0.3808 -0.1041
    1W        W55062   8.435  10.761   8.301 -0.1100  0.2004 -0.0055
    1W        W55063  19.442   6.657   0.328 -0.1612 -0.0976 -0.0668
    1W        W55064  11.237  10.975   7.346  0.0524  0.2290  0.2383
    1W        W55065   6.696  17.391   6.016 -0.1202 -0.1610 -0.2034
    1W        W55066  13.278   6.514   8.781 -0.2305  0.1456 -0.1890
    1W        W55067   1.559  12.764   6.928 -0.1431 -0.0876 -0.0110
    1W        W55068  23.665   6.491   1.608  0.1069  0.2537  0.0423
    1W        W55069   7.398  15.115   6.406 -0.0462 -0.2787 -0.1879
    1W        W55070  10.701   8.429   1.147 -0.0205 -0.1713 -0.0538
    1W        W55071  21.028   2.696   2.893  0.1736  0.4130  0.0156
    1W        W55072  26.417  20.373   2.593  0.0003 -0.2772  0.1749
    1W        W55073   0.578  11.028   1.536  0.1075  0.2582  0.3482
    1W        W55074   1.645   8.805   0.282  0.1986 -0.0186 -0.1022
    1W        W55075   1.384   8.815   9.233  0.1050 -0.0211 -0.0567
    1W        W55076   2.969  24.777   6.614 -0.0244 -0.0511 -0.0627
    1W        W55077  10.276  18.718   1.931 -0.1240 -0.2561  0.0493
    1W        W55078   5.233   7.444   9.164  0.0638 -0.2034 -0.2693
    1W        W55079  14.312  16.291   8.074 -0.1173 -0.0424 -0.3016
    1W        W55080  20.759   7.441   1.839  0.0173  0.0469  0.0352
    1W        W55081  13.675  28.430   7.797  0.0880  0.1866 -0.0212
    1W        W55082   3.746  26.014   0.859  0.3231  0.2229 -0.3379
    1W        W55083  24.973   1.251   0.798 -0.2869  0.2009  0.0991
    1W        W55084  27.887  21.723   9.316  0.2459 -0.1827 -0.2420
    1W        W55085   9.892   9.982   1.116 -0.1857  0.1926 -0.0803
    1W        W55086  13.212   2.999   2.262  0.1891 -0.1725  0.2583
    1W        W55087   8.809   6.547   7.495  0.1155  0.1970  0.1537
    1W        W55088  19.616  28.373   3.162 -0.4583 -0.2361 -0.1300
    1W        W55089   0.161  18.605   8.176 -0.2561  0.0910  0.2752
    1W        W55090  18.855  14.729   1.300 -0.1076 -0.1936  0.1356
    1W        W55091  15.595  29.148   6.785 -0.3396 -0.0821 -0.0255
    1W        W55092  26.852   1.208   3.236 -0.0015 -0.0650  0.0644
    1W        W55093  14.983  24.540   8.879  0.1421  0.1703  0.1165
    1W        W55094  25.675  29.377   2.101 -0.4445 -0.1059 -0.1392
    1W        W55095  24.156  11.481   0.550 -0.1082  0.3159  0.2122
    1W        W55096  18.737   5.117   6.940  0.2109  0.1359  0.2131
    1W        W55097   3.861  10.230   8.925  0.4627  0.1172 -0.2617
    1W        W55098  12.646  19.603   0.727  0.1226 -0.1200  0.3183
    1W        W55099   4.163   9.286   7.728 -0.2948 -0.1538 -0.2568
    1W        W55100  22.029  17.512   0.452  0.1915  0.1432 -0.0867
    1W        W55101  20.274  18.679   8.190  0.1550  0.1350 -0.1461
    1W        W55102  27.637  14.185   0.337 -0.2086 -0.1942  0.0766
    1W        W55103   8.065   7.639   3.189  0.3165  0.0145 -0.0236
    1W        W55104  16.532  18.654   1.363 -0.0552  0.1392  0.0394
    1W        W55105  28.897  10.023   8.353 -0.1004 -0.1477 -0.2004
    1W        W55106  20.886   3.455   8.533  0.0266 -0.2866 -0.2696
    1W        W55107  10.185  13.358   1.443  0.1233  0.0589 -0.1304
    1W        W55108  15.668  21.967   7.204 -0.1364 -0.0954  0.1061
    1W        W55109  21.145  20.193   0.395 -0.0635  0.2447  0.2100
    1W        W55110   4.508  18.019   7.064  0.0786  0.1785 -0.0450
    1W        W55111   5.754  13.779   0.832  0.0387 -0.3471  0.1183
    1W        W55112  23.795  26.832   0.322 -0.2340  0.0078 -0.2469
    1W        W55113  17.208   2.863   1.423 -0.2134 -0.0518 -0.0429
    1W        W55114  10.951  15.094   1.171  0.0867  0.1082  0.0356
    1W        W55115  14.087   9.515   8.780 -0.0619 -0.1837 -0.0515
    1W        W55116  27.940   9.835   6.322 -0.1291 -0.0333  0.0679
    1W        W55117  27.584   5.573   6.591 -0.2287 -0.0923  0.0985
    1W        W55118  28.502  14.043   7.450  0.3059  0.1501 -0.1368
    1W        W55119  10.254   4.793   7.675 -0.1739 -0.1282 -0.0971
    1W        W55120  28.740   7.095   7.248  0.0445  0.1655 -0.2030
    1W        W55121  23.436   9.527   8.501 -0.1587  0.0481  0.2240
    1W        W55122  27.865  24.970   6.876  0.2559 -0.0701 -0.3931
    1W        W55123   6.346   2.218   2.156  0.0190 -0.0759  0.0587
    1W        W55124   8.725   3.973   3.064  0.1915 -0.3310  0.1658
    1W        W55125   5.393  22.070   8.746  0.1137  0.0203  0.2942
    1W        W55126  13.851   0.481   2.971 -0.0071  0.1106 -0.0499
    1W        W55127  19.310  12.532   0.164 -0.0268 -0.0715  0.2208
    1W        W55128   3.794  28.150   1.784  0.3022 -0.4034 -0.1719
    1W        W55129  27.097  17.858   6.529  0.0382 -0.0336 -0.2451
    1W        W55130  16.279   0.567   2.914  0.3821  0.0649  0.0293
    1W        W55131   7.525  19.427   8.221 -0.1250  0.4156 -0.0874
    1W        W55132  28.978   5.404   0.946 -0.2811  0.0339  0.0123
    1W        W55133  17.841   7.746   0.745  0.0476 -0.0960 -0.0625
    1W        W55134  22.515  29.700   9.404  0.0953  0.1399 -0.0076
    1W        W55135  17.534  27.042   7.350  0.1305 -0.2276 -0.3254
    1W        W55136  22.158   9.710   8.564  0.1036  0.2821 -0.0831
    1W        W55137  18.492  18.292   9.010  0.0403  0.0272 -0.2298
    1W        W55138   3.484  28.857   7.250  0.1366 -0.3147 -0.1349
    1W        W55139  10.522  27.254   0.821 -0.0942 -0.0284  0.4165
    1W        W55140  22.885  20.126   1.808  0.1160 -0.0818 -0.0056
    1W        W55141  29.894  10.481   2.773  0.0638  0.1713  0.1690
    1W        W55142  16.479   6.153   8.810 -0.2625  0.1786  0.1844
    1W        W55143   9.982   5.205   8.846  0.0526  0.0129 -0.0648
    1W        W55144   3.811   4.219   3.311  0.1490  0.0994  0.0300
    1W        W55145  13.055  19.915   0.640  0.1021  0.1097  0.2769
    1W        W55146  18.919   4.848   2.330  0.0166  0.0145 -0.1450
    1W        W55147  16.781  13.852   8.652  0.0331 -0.0786  0.1185
    1W        W55148  11.261  13.361   9.082  0.0254  0.7741  0.1195
    1W        W55149  26.931  14.008   8.348 -0.1166 -0.0982 -0.3784
    1W        W55150  18.324   6.143   1.561  0.2044 -0.3993  0.1387
    1W        W55151  16.866  11.908   0.974  0.0808  0.0648  0.0345
    1W        W55152  21.628   1.490   1.593  0.2355  0.2437 -0.1702
    1W        W55153  19.724  22.978   1.764 -0.1255  0.0224 -0.3753
    1W        W55154  23.059  10.776   0.202  0.1457 -0.1283  0.1570
    1W        W55155  16.508   2.352   7.523  0.0427  0.0633 -0.1078
    1W        W55156  20.256  21.152   8.118 -0.0108  0.4444  0.1697
    1W        W55157   1.792  20.038   1.768 -0.1736  0.0722  0.0944
    1W        W55158  12.694  25.873   7.108 -0.0087  0.1388 -0.0223
    1W        W55159  25.042   7.264   0.697 -0.0787 -0.4663 -0.2408
    1W        W55160  15.721  14.486   0.499 -0.1416 -0.2840 -0.4814
    1W        W55161  24.098  19.384   9.055  0.1245 -0.0539 -0.0359
    1W        W55162  29.293  10.147   0.621 -0.1222  0.3940  0.0742
    1W        W55163  25.910   3.943   7.104 -0.0498  0.0743  0.2141
    1W        W55164  11.315  27.771   1.034 -0.3525  0.3859  0.1256
    1W        W55165  25.981  21.533   2.773 -0.1233  0.1266 -0.0925
    1W        W55166  13.654  22.121   1.895 -0.0945  0.0675  0.0006
    1W        W55167  21.285  22.196   1.865 -0.0546  0.1324 -0.0566
    1W        W55168   1.702   8.527   8.886  0.0386 -0.0376  0.1649
    1W        W55169   5.868  15.971   5.255 -0.1662  0.1355 -0.2135
    1W        W55170  28.504  17.516   8.589  0.0327  0.0461 -0.1650
    1W        W55171  11.487  21.021   8.908  0.2229  0.1370  0.3461
    1W        W55172   4.481  20.092   0.180  0.1821 -0.0522 -0.0157
    1W        W55173   5.571   8.790   1.015  0.2504 -0.0546  0.0704
    1W        W55174  15.729  16.774   8.766  0.2374 -0.2190  0.3502
    1W        W55175  21.864  23.659   0.509  0.0181 -0.0486  0.2181
    1W        W55176   9.426   3.844   1.056 -0.0648  0.2715 -0.2108
    1W        W55177  15.441  22.397   1.688  0.0264  0.0123 -0.0594
    1W        W55178  18.909   7.763   6.904  0.2849  0.0725 -0.1210
    1W        W55179  12.019  28.506   2.797  0.1638  0.2365 -0.3147
    1W        W55180  15.191  29.777   2.321 -0.2638 -0.2204  0.1171
    1W        W55181   4.808  26.875   2.256  0.2382 -0.0466  0.0906
    1W        W55182   7.902   0.511   9.190 -0.2841 -0.0261 -0.2087
    1W        W55183   4.357  14.919   8.926  0.0744 -0.1477 -0.1389
    1W        W55184  23.747   7.779   7.896  0.0157 -0.3418  0.1034
    1W        W55185  20.375  21.791   1.830  0.1319  0.0579 -0.1288
    1W        W55186   0.788  24.032   1.532 -0.0315 -0.2101 -0.1377
    1W        W55187  13.542  22.947   2.559  0.0551 -0.2461 -0.0243
    1W        W55188   0.875   4.570   3.195 -0.3147  0.0993  0.1599
    1W        W55189  14.632  15.914   8.173 -0.0713  0.1743 -0.0432
    1W        W55190   4.758  23.949   8.705  0.0226 -0.1930 -0.0958
    1W        W55191  22.153  24.971   0.454 -0.1539  0.0837 -0.1986
    1W        W55192   3.378   7.804   1.378  0.0195 -0.1783 -0.1427
    1W        W55193  26.293  14.931   0.856  0.2689 -0.2373 -0.0302
    1W        W55194  22.372  22.422   7.408 -0.2465  0.1376 -0.2146
    1W        W55195  19.570  10.922   7.124  0.0999  0.2836 -0.0082
    1W        W55196  17.597  23.999   1.877  0.1595  0.1719  0.0146
    1W        W55197  21.544   0.440   7.596  0.1039  0.1034  0.1734
    1W        W55198  24.914  15.567   9.432 -0.0152  0.0623  0.1165
    1W        W55199  14.785   1.213   8.688 -0.0033 -0.2263 -0.0783
    1W        W55200  20.576  23.557   0.836  0.2392 -0.1794 -0.2108
    1W        W55201   8.152  24.901   8.407  0.1996  0.3117  0.1636
    1W        W55202   3.755  14.626   1.854 -0.0664 -0.1068  0.0524
    1W        W55203   4.860   4.004   7.632  0.3588 -0.0405  0.3506
    1W        W55204  11.232  12.078   1.753 -0.0495 -0.0426  0.0972
    1W        W55205  27.687   7.740   7.948  0.2305  0.1516 -0.0750
    1W        W55206   6.667  19.789   8.722  0.1017 -0.1704  0.3095
    1W        W55207  13.890  13.352   7.346 -0.2347 -0.4418  0.1361
    1W        W55208   4.536   8.838   6.546  0.1224  0.0937  0.0312
    1W        W55209  28.400  17.991   2.050  0.0961  0.1873 -0.4404
    1W        W55210   3.223  18.490   2.578  0.1535 -0.3132  0.4148
    1W        W55211  16.197   0.212   6.989  0.0559 -0.0682  0.0011
    1W        W55212  10.839  26.004   1.485  0.0342  0.0240 -0.1456
    1W        W55213   6.556  25.102   7.146  0.1275 -0.3932 -0.0773
    1W        W55214   6.388   2.148   0.011 -0.2056 -0.2322 -0.1022
    1W        W55215  24.719   7.046   8.546  0.1604  0.0657 -0.1802
    1W        W55216   4.251  23.270   2.288 -0.2181  0.2131 -0.2346
    1W        W55217   5.779  15.343   1.409  0.0932 -0.1031 -0.1025
    1W        W55218  17.270   6.294   6.230  0.1244  0.0232  0.1432
    1W        W55219  23.326   4.857   9.417 -0.0006 -0.2701 -0.0637
    1W        W55220  16.799  29.069   7.506 -0.1910 -0.0712 -0.1971
    1W        W55221   2.922  21.795   0.273  0.0705 -0.1520 -0.1106
    1W        W55222   1.027   5.966   6.560  0.1058  0.2439 -0.0051
    1W        W55223  21.923   3.378   6.863 -0.0563  0.0297  0.0022
    1W        W55224  25.374  10.032   2.285 -0.0085 -0.1477 -0.0636
    1W        W55225  27.098   6.477   2.870 -0.3183  0.2471  0.0412
    1W        W55226  20.061  12.146   1.235  0.0110  0.0032  0.0207
    1W        W55227  13.607   5.198   1.291 -0.1796 -0.0266 -0.0241
    1W        W55228   0.886  11.880   9.374  0.1331 -0.1230  0.4089
    1W        W55229  14.579   8.374   8.404  0.3380 -0.0087 -0.1226
    1W        W55230  21.914  16.778   1.873  0.1531 -0.3636  0.0372
    1W        W55231   5.920   2.205   1.168 -0.0436  0.1864  0.1742
    1W        W55232   6.193  26.392   1.399  0.0477 -0.1313  0.1308
    1W        W55233  13.574  18.649   9.126 -0.0406 -0.2225 -0.1546
    1W        W55234  13.414  21.705   1.658 -0.0359  0.2174  0.2006
    1W        W55235   3.034   5.911   2.869  0.1117  0.1657  0.1914
    1W        W55236  29.064  21.142   6.835  0.2856  0.0386 -0.2899
    1W        W55237  20.491   9.316   1.000  0.0049 -0.4432  0.1235
    1W        W55238   6.239  11.372   7.608  0.0340 -0.2378  0.1682
    1W        W55239  24.584  12.859   6.754 -0.2619  0.1094 -0.3503
    1W        W55240  24.368   1.418   3.007  0.0772  0.0021 -0.2030
    1W        W55241  17.505  13.438   9.191  0.1521 -0.1044 -0.0256
    1W        W55242  11.536  12.466   1.601 -0.1681  0.2271 -0.0852
    1W        W55243  16.496  15.516   1.086  0.2545 -0.0239 -0.2772
    1W        W55244  18.838   3.117   1.945 -0.0403  0.0200 -0.2985
    1W        W55245   6.156  20.965   8.526 -0.1279 -0.0651  0.1120
    1W        W55246  12.771  20.795   8.516 -0.0133 -0.1598  0.1206
    1W        W55247  19.761  28.111   2.054 -0.0639 -0.1430 -0.0309
    1W        W55248  29.594   7.478   3.364  0.1022  0.0457  0.0890
    1W        W55249  13.653  23.190   8.859  0.2537 -0.0514 -0.1507
    1W        W55250  17.276   7.738   7.434  0.0078 -0.2201 -0.1786
    1W        W55251  18.372   6.623   6.544  0.0722 -0.1337 -0.1776
    1W        W55252  26.596  16.501   5.800  0.1274 -0.0546 -0.0899
    1W        W55253  12.506  29.007   1.499 -0.0544 -0.1611 -0.1137
    1W        W55254  25.956  21.978   1.088  0.0155 -0.2678  0.1353
    1W        W55255  18.657  22.137   0.037 -0.1493  0.1503  0.1482
    1W        W55256  13.591   3.174   9.331  0.3613  0.0793 -0.0818
    1W        W55257   5.436  22.681   6.697  0.1314 -0.0345  0.0037
    1W        W55258   4.280  12.501   1.227 -0.0033 -0.0221  0.3995
    1W        W55259   7.931  14.112   0.720  0.1463 -0.2602  0.1160
    1W        W55260  12.220  12.698   0.118  0.0111  0.0653 -0.2728
    1W        W55261   0.579  18.989   0.921 -0.1064  0.0962 -0.0549
    1W        W55262  19.035   1.782   1.304 -0.0214 -0.2594 -0.1990
    1W        W55263  11.532  21.496   0.043  0.0107  0.3032 -0.1769
    1W        W55264  11.939  15.202   8.669  0.0651  0.0071 -0.1252
    1W        W55265   9.411  23.137   9.368  0.1266  0.3786  0.2308
    1W        W55266  25.121  14.842   1.133  0.1820 -0.2539 -0.1190
    1W        W55267  24.140   7.847   0.300  0.0480  0.0645  0.0339
    1W        W55268   4.653   5.529   3.250  0.1438 -0.0666  0.0029
    1W        W55269  14.419   7.686   8.454 -0.2870  0.0200 -0.3031
    1W        W55270  23.391   3.948   8.225 -0.4315 -0.2163  0.1366
    1W        W55271   2.863  19.258   5.792 -0.3079  0.1145  0.0348
    1W        W55272  25.581  14.659   0.198  0.1495 -0.0340  0.0285
    1W        W55273  11.763   6.341   1.681  0.3924 -0.0584  0.1501
    1W        W55274   7.067   0.316   0.968 -0.2862  0.0305 -0.0866
    1W        W55275  18.545  29.721   8.740 -0.0493 -0.2038  0.0783
    1W        W55276  14.218  11.306   0.452  0.1962  0.2919  0.0048
    1W        W55277   7.314   9.502   0.888 -0.1451  0.0023  0.2510
    1W        W55278  15.983   6.480   7.117  0.3760  0.4758  0.2402
    1W        W55279   9.568  21.746   6.022  0.0510  0.1703  0.0657
    1W        W55280  28.636   6.273   7.122  0.0958  0.0448  0.3359
    1W        W55281  27.859   2.189   1.004  0.1392  0.1356  0.2701
    1W        W55282   3.873  13.457   2.945 -0.0016 -0.0109 -0.0535
    1W        W55283  23.155  25.326   8.936 -0.2504 -0.0886  0.0953
    1W        W55284   5.577   1.447   7.403 -0.0576  0.0163  0.3410
    1W        W55285  18.122  14.167   0.065 -0.0961  0.1286  0.1511
    1W        W55286   5.482  11.041   2.291 -0.0815  0.3696  0.1794
    1W        W55287   4.621  29.338   7.157 -0.1214  0.1733 -0.1508
    1W        W55288  25.422  28.401   3.525  0.0575  0.1811 -0.3165
    1W        W55289   4.379  24.122   2.655  0.0362  0.1510 -0.1966
    1W        W55290  22.241  28.674   1.392  0.0762 -0.2086  0.1711
    1W        W55291  14.301   8.404   1.968  0.1942  0.3088  0.0236
    1W        W55292  12.964  21.780   1.344  0.0010  0.0264  0.0173
    1W        W55293   5.005   7.691   1.548  0.3499  0.1957 -0.1394
    1W        W55294  20.182   9.037   8.962  0.1882  0.1263  0.0294
    1W        W55295   4.899  19.984   8.913 -0.1910  0.0865  0.1057
    1W        W55296  10.500  27.741   8.156 -0.0935  0.2720 -0.1050
    1W        W55297  14.741  22.250   1.018  0.2586 -0.2706  0.1522
    1W        W55298   9.127  11.847   3.033  0.0251  0.1647 -0.1403
    1W        W55299  27.325  23.483   3.065  0.1151  0.1303 -0.0595
    1W        W55300  11.834   1.341   3.311  0.2667 -0.3131  0.1139
    1W        W55301  14.549  14.449   6.826  0.0849 -0.0470  0.2214
    1W        W55302  17.619  29.291   8.282  0.1293  0.0319 -0.1188
    1W        W55303  27.299   1.546   6.200 -0.2372 -0.1894 -0.1329
    1W        W55304   8.135  17.533   6.197 -0.1098  0.0575 -0.1307
    1W        W55305  13.955  29.579   1.964  0.1942 -0.2077 -0.4171
    1W        W55306  25.489  16.871   6.443  0.3195  0.3428 -0.3274
    1W        W55307  20.063  13.970   7.108  0.1481 -0.2168 -0.1318
    1W        W55308  17.475   2.505   1.029  0.2504 -0.0328  0.5286
    1W        W55309  21.790   1.089   8.492 -0.0132 -0.0857  0.2995
    1W        W55310  29.464  25.625   0.681 -0.2005  0.1020 -0.0319
    1W        W55311   9.943   8.128   2.929  0.3708 -0.2834 -0.3237
    1W        W55312   4.087  20.671   7.889  0.0174 -0.1522  0.0381
    1W        W55313  17.324  29.464   7.678 -0.0097  0.1544 -0.0627
    1W        W55314   2.099  14.977   6.704 -0.1957 -0.0316 -0.0686
    1W        W55315  10.360  27.454   6.316 -0.1035 -0.3055 -0.1492
    1W        W55316  13.216  29.682   8.431 -0.0837  0.0267 -0.0343
    1W        W55317   5.225   8.644   8.342 -0.3661 -0.0834 -0.2096
    1W        W55318  24.341  17.105   2.806 -0.1482  0.1623  0.1976
    1W        W55319  26.435   3.373   3.207 -0.0450  0.1491 -0.0442
    1W        W55320   0.668   1.797   0.728  0.2549  0.2261 -0.0742
    1W        W55321   8.935  15.342   8.908 -0.3028 -0.0056  0.0848
    1W        W55322  18.747  12.570   1.052 -0.2131 -0.0222  0.2005
    1W        W55323  24.259   0.617   0.842  0.0434  0.1025 -0.0424
    1W        W55324  14.145  26.734   3.135  0.1326  0.1099 -0.0699
    1W        W55325   1.480  16.847   2.952  0.0463 -0.0378 -0.1208
    1W        W55326  22.706   4.123   1.029 -0.1076  0.1552 -0.2817
    1W        W55327  12.939  22.072   6.811 -0.1108  0.3371 -0.1563
    1W        W55328  28.644  27.983   8.762 -0.1962 -0.0421 -0.0708
    1W        W55329   5.508   0.207   2.892  0.2472 -0.1382 -0.2358
    1W        W55330  26.600   6.601   1.164  0.2048 -0.1860 -0.0689
    1W        W55331   9.915   6.729   2.986  0.2049  0.0704 -0.0021
    1W        W55332  28.218  18.273   7.404 -0.1045 -0.0398  0.1273
    1W        W55333   4.297   1.905   0.563  0.2201  0.0634 -0.1992
    1W        W55334   1.986  10.702   0.165  0.0945  0.0095 -0.0415
    1W        W55335   3.455   0.387   1.380 -0.2656 -0.1751 -0.1733
    1W        W55336   9.091  18.604   1.357 -0.1115 -0.0326  0.1289
    1W        W55337   8.682  20.988   7.290 -0.1649 -0.1194 -0.0591
    1W        W55338   7.544   2.694   0.294 -0.3433 -0.3058 -0.1126
    1W        W55339  17.487  17.116   1.961  0.0628  0.1374  0.0040
    1W        W55340   6.336   6.950   6.828  0.0442 -0.2601  0.0232
    1W        W55341  26.225  26.618   9.464  0.0593 -0.1863 -0.0763
    1W        W55342  23.830  20.529   7.387 -0.0551  0.1931 -0.1117
    1W        W55343  28.950  25.338   9.054  0.2622  0.3848 -0.1667
    1W        W55344  25.503   0.494   1.544 -0.1553  0.0957  0.2967
    1W        W55345  11.019  28.217   2.915 -0.1217  0.1910 -0.2343
    1W        W55346  20.552   5.434   6.841  0.2431  0.1716  0.2600
    1W        W55347  12.586   8.215   2.901 -0.1132 -0.1424  0.3355
    1W        W55348  18.858  23.488   2.676 -0.0773 -0.1532 -0.0663
    1W        W55349   3.209  16.985   7.089 -0.0886 -0.2053  0.0774
    1W        W55350  10.101  13.757   7.261  0.4405 -0.1132  0.0467
    1W        W55351   8.363  12.063   7.533  0.4148  0.1512  0.0503
    1W        W55352  13.464  21.489   8.912 -0.0423 -0.1908  0.4005
    1W        W55353   5.870   7.629   7.601  0.0426 -0.0073  0.1130
    1W        W55354   1.996  15.162   1.768 -0.0702  0.1952  0.1940
    1W        W55355  13.315  28.613   7.519 -0.1165  0.1242 -0.0551
    1W        W55356  23.620  28.945   9.406  0.3441 -0.1149  0.1750
    1W        W55357   2.108   8.899   2.844  0.4160  0.0276 -0.1512
    1W        W55358  13.073  19.548   7.614 -0.0703  0.0913 -0.1171
    1W        W55359  18.858  21.024   7.000  0.1113  0.0052 -0.1439
    1W        W55360  29.461   9.506   1.958 -0.2146 -0.1713 -0.1982
    1W        W55361  18.525  26.757   1.776 -0.1361 -0.0454  0.0965
    1W        W55362  18.282  17.680   0.949  0.0579  0.0151  0.1153
    1W        W55363   5.122   7.998   9.238 -0.1720  0.1421  0.1261
    1W        W55364   3.698  17.743   7.989 -0.0306 -0.1376  0.2233
    1W        W55365  20.108  21.646   7.196 -0.0740  0.1569 -0.0253
    1W        W55366  20.922  28.457   2.625  0.0645 -0.1741  0.1569
    1W        W55367   1.169   1.574   2.411  0.3499  0.0563  0.1554
    1W        W55368   4.143   2.851   6.711  0.1114  0.0722  0.2308
    1W        W55369  26.364   4.552   1.612 -0.2857  0.1203 -0.0018
    1W        W55370   3.875  26.374   5.944 -0.2078 -0.3119 -0.1794
    1W        W55371  25.946  23.545   2.011  0.2600 -0.1087 -0.1775
    1W        W55372  10.016  18.794   1.193 -0.0137  0.0061  0.1391
    1W        W55373  26.345  15.176   6.936  0.2140 -0.2347  0.2691
    1W        W55374   2.052  28.551   3.191  0.4292 -0.1003  0.0778
    1W        W55375  11.915  26.904   0.388  0.1591 -0.1940  0.0439
    1W        W55376   4.608  12.614   0.857 -0.0738 -0.0865 -0.2274
    1W        W55377   4.959  22.211   7.460  0.0097 -0.1197  0.1044
    1W        W55378   2.585   4.050   8.184  0.2314  0.1109  0.0893
    1W        W55379  14.146  11.247   7.783 -0.1233  0.1941 -0.3723
    1W        W55380  12.800   3.983   1.642 -0.3425  0.0390  0.0438
    1W        W55381   5.350  10.688   2.612 -0.1906  0.1087  0.1916
    1W        W55382  17.888  25.411   2.167 -0.1436 -0.0128  0.4139
    1W        W55383  26.834   9.483   2.311  0.0068 -0.2503  0.1260
    1W        W55384  22.068  20.170   0.589 -0.2861 -0.1432  0.2340
    1W        W55385  20.533  28.832   8.682 -0.0973 -0.0931  0.0776
    1W        W55386  18.225  20.479   8.105  0.1920  0.1445  0.0856
    1W        W55387  16.421   5.082   8.530 -0.0288 -0.1042  0.1310
    1W        W55388  16.919   8.048   7.613  0.2239 -0.0968  0.1381
    1W        W55389  18.053  25.368   8.386 -0.0142  0.0400 -0.3555
    1W        W55390  21.396  25.022   6.458  0.0270 -0.0609  0.1149
    1W        W55391   7.841  29.098   7.777 -0.0494  0.0453 -0.0563
    1W        W55392  24.735  25.409   6.325 -0.1174  0.0996  0.2397
    1W        W55393   2.635   7.367   1.918  0.3108  0.2109 -0.0285
    1W        W55394   3.978   7.603   7.018 -0.1591  0.1528 -0.0328
    1W        W55395  21.449  13.436   1.802 -0.0633  0.1013 -0.4732
    1W        W55396   4.909  11.017   1.595  0.0422 -0.2902  0.0677
    1W        W55397  18.040   2.640   1.907  0.2784  0.2048  0.0481
    1W        W55398  15.019   8.232   7.701  0.1044 -0.0038  0.0718
    1W        W55399  18.195   0.862   6.221  0.3213  0.2395  0.0827
    1W        W55400  20.695  25.091   2.396  0.0612  0.0940 -0.0855
    1W        W55401  28.410  11.991   8.128  0.3766  0.2777  0.2436
    1W        W55402  10.670   0.898   2.860  0.1371  0.1572 -0.2631
    1W        W55403  16.387  11.381   8.875 -0.1015 -0.1960 -0.0962
    1W        W55404   5.130   3.243   3.423  0.4826  0.3379 -0.1436
    1W        W55405  24.381  16.083   9.376 -0.0974 -0.0611  0.1611
    1W        W55406  21.116  13.318   7.667  0.0221  0.1957 -0.1373
    1W        W55407  18.483  14.389   6.320 -0.0148  0.3261  0.0160
    1W        W55408   8.609  29.156   8.409  0.0127  0.1591 -0.1760
    1W        W55409   0.990   6.375   6.972 -0.0891  0.2419  0.0306
    1W        W55410   1.600   6.938   2.002 -0.1156 -0.2196  0.2411
    1W        W55411  29.462   2.338   9.112 -0.4620 -0.2607  0.3051
    1W        W55412  29.382  14.200   8.814  0.0056  0.0400  0.0218
    1W        W55413  29.471  19.250   7.218  0.3761  0.1544  0.3221
    1W        W55414  23.012   5.026   7.909  0.1092  0.1165  0.1103
    1W        W55415  26.015  11.237   8.409  0.1601 -0.0675 -0.4063
    1W        W55416  10.514   1.337   7.638 -0.1343 -0.0544  0.2072
    1W        W55417  29.281  12.333   5.914  0.2302 -0.3456  0.2598
    1W        W55418  19.831  25.248   8.655  0.2166 -0.0453 -0.0775
    1W        W55419  18.262  18.463   0.463  0.0789 -0.0847  0.2027
    1W        W55420   3.818  22.883   2.205 -0.0368 -0.0926 -0.0589
    1W        W55421   5.897   0.760   0.506  0.1912 -0.0500 -0.1344
    1W        W55422  21.656  14.966   9.027  0.2760 -0.2463 -0.3997
    1W        W55423  19.137  18.324   8.026  0.0693  0.1169 -0.0653
    1W        W55424   6.657  18.111   7.131 -0.0192 -0.0557 -0.1757
    1W        W55425  23.211   7.594   0.461 -0.0114 -0.2050  0.0910
    1W        W55426  16.072  10.121   7.267 -0.1096  0.1108 -0.1002
    1W        W55427  26.955  18.026   7.315  0.1648 -0.2122 -0.0761
    1W        W55428   1.663  13.664   6.042 -0.1228 -0.5603  0.0924
    1W        W55429  12.788   7.772   0.790  0.2023  0.1761 -0.2454
    1W        W55430  11.550  27.427   8.566 -0.0552  0.0111 -0.2052
    1W        W55431   7.604   2.429   9.144  0.1507 -0.2537 -0.1527
    1W        W55432  18.603  26.946   0.323 -0.1372 -0.0990 -0.0380
    1W        W55433  29.612  27.936   0.452  0.0475 -0.1996  0.0477
    1W        W55434  20.258  27.663   6.987  0.2081 -0.0303 -0.2130
    1W        W55435  23.372  12.408   0.333  0.0293  0.0475 -0.0788
    1W        W55436  21.571  11.736   7.357  0.1883  0.0182  0.1317
    1W        W55437  15.527  27.955   8.225  0.1947  0.1238  0.0549
    1W        W55438   7.209  11.755   8.982  0.1642  0.0981  0.2515
    1W        W55439  19.351  10.662   9.232  0.3263 -0.2354 -0.0933
    1W        W55440  11.717   1.073   6.961 -0.3854 -0.0144  0.0567
    1W        W55441   4.932  27.622   1.834  0.0330 -0.0257 -0.2153
    1W        W55442   0.305   3.737   1.895 -0.1528 -0.0165  0.0030
    1W        W55443  20.114   3.094   8.376 -0.0712 -0.1086  0.1841
    1W        W55444  26.024  17.659   6.517  0.0811  0.2366  0.2269
    1W        W55445  16.066  24.208   7.511  0.3546  0.2985 -0.0696
    1W        W55446  20.119   1.692   1.619 -0.1718 -0.3689  0.1675
    1W        W55447  27.831   2.390   0.533 -0.1292 -0.0070 -0.1643
    1W        W55448  20.707  26.131   7.527 -0.2898 -0.0497  0.1155
    1W        W55449   4.152  12.358   9.304 -0.1193 -0.0425  0.3437
    1W        W55450  23.641  25.380   0.414 -0.0969 -0.0350  0.0359
    1W        W55451  17.972  17.048   0.542 -0.0182 -0.2178  0.1238
    1W        W55452  22.480   9.498   1.975 -0.1232  0.0555  0.0629
    1W        W55453  27.828   0.367   9.047  0.2813 -0.2592 -0.0789
    1W        W55454  19.696  22.346   9.162  0.1614 -0.1129  0.0083
    1W        W55455   7.456  23.448   7.361  0.0317  0.0634 -0.0295
    1W        W55456   6.570   9.504   0.412  0.2801  0.3633 -0.2385
    1W        W55457   2.303  27.414   2.105 -0.0848  0.0871  0.1786
    1W        W55458  26.925   3.469   8.924 -0.2242  0.0797  0.0466
    1W        W55459   7.220   2.740   2.898  0.0632 -0.2493  0.1259
    1W        W55460  24.630  16.160   5.981  0.2528  0.1754 -0.0226
    1W        W55461  18.911   1.229   7.217 -0.1517 -0.1790 -0.2787
    1W        W55462  26.067  18.846   0.434  0.0130  0.0247  0.0266
    1W        W55463  26.705  18.092   6.892 -0.0422  0.3362 -0.0829
    1W        W55464  26.676   6.203   2.183 -0.0266  0.1653 -0.1229
    1W        W55465  20.517  14.183   8.624 -0.2995 -0.2283  0.1967
    1W        W55466  16.160  24.502   7.055  0.2149  0.4090  0.1339
    1W        W55467   5.958   6.090   0.484 -0.0484  0.0692  0.0409
    1W        W55468  11.851  25.535   9.047 -0.2457  0.2611 -0.0604
    1W        W55469  28.562  12.228   6.967 -0.0062  0.2543  0.0315
    1W        W55470   8.369   6.398   9.227  0.1030  0.2683  0.0872
    1W        W55471   2.432   9.940   7.097 -0.0261  0.4782  0.2149
    1W        W55472   3.309   5.079   2.431 -0.0095  0.0532 -0.1095
    1W        W55473   8.023  13.880   1.184  0.1033  0.1026 -0.2684
    1W        W55474  18.739   6.736   6.863 -0.0575 -0.1420 -0.0780
    1W        W55475   5.421  27.727   0.275 -0.1423  0.1350  0.4198
    1W        W55476  25.617  12.215   0.397 -0.0779 -0.0788  0.1800
    1W        W55477  16.395  17.959   0.730 -0.0478 -0.0412 -0.0247
    1W        W55478  16.886   2.103   8.165 -0.1446 -0.4934 -0.1220
    1W        W55479   3.614  18.246   7.228  0.1482  0.1104  0.0387
    1W        W55480  12.272  15.080   1.436  0.1773 -0.3779 -0.2336
    1W        W55481   4.222  28.813   8.722 -0.0823 -0.0997 -0.1776
    1W        W55482  10.022   8.629   2.854 -0.0680 -0.1991 -0.1539
    1W        W55483   2.386  25.528   0.258  0.0861 -0.0953 -0.0299
    1W        W55484  25.745  20.541   1.934  0.1092 -0.0182 -0.2782
    1W        W55485  12.340   6.746   8.297 -0.4291  0.1265 -0.2955
    1W        W55486  21.430   6.459   1.526 -0.1317 -0.2037 -0.3303
    1W        W55487  17.308  12.093   7.214  0.1938 -0.0996 -0.1883
    1W        W55488   8.466  18.705   0.850  0.1098  0.0952  0.0943
    1W        W55489  27.513  10.354   1.526  0.1801  0.1375 -0.0793
    1W        W55490  14.147  26.912   0.783 -0.3472 -0.2608  0.0049
    1W        W55491  22.630   8.751   0.314  0.0482  0.0975 -0.0179
    1W        W55492  14.088  15.484   1.826  0.2278 -0.1134 -0.2640
    1W        W55493  23.892   3.005   0.497 -0.1120 -0.0519 -0.0937
    1W        W55494  14.227   9.160   7.335  0.1730  0.0740  0.0629
    1W        W55495   3.410   7.012   1.537  0.2708  0.2736 -0.0010
    1W        W55496  24.570  27.948   3.154  0.0897 -0.5215 -0.2978
    1W        W55497  29.043   4.533   0.088 -0.0901  0.3753 -0.0528
    1W        W55498  18.937  27.311   8.870  0.1454 -0.0296 -0.1133
    1W        W55499  20.191   2.144   6.267 -0.4741  0.0310  0.2313
    1W        W55500   1.566  17.213   7.729  0.0614  0.3029  0.2765
    1W        W55501   3.093   2.226   7.577 -0.2415  0.1867 -0.4882
    1W        W55502  14.348  24.421   7.023  0.2761 -0.0705  0.1748
    1W        W55503   3.582  20.309   7.898 -0.2507 -0.0004 -0.1836
    1W        W55504  20.634   9.134   6.719 -0.1996 -0.1330 -0.0619
    1W        W55505  21.441  16.142   1.613  0.0998  0.5593 -0.1908
    1W        W55506   3.802  11.674   8.811  0.2795  0.1942 -0.1265
    1W        W55507  19.418   0.264   1.506 -0.2637  0.0290 -0.0244
    1W        W55508  24.343  16.128   1.403 -0.1094 -0.0015  0.0955
    1W        W55509  10.885  21.679   2.401  0.2379 -0.0343  0.1987
    1W        W55510  26.250  12.749   7.796 -0.0491 -0.1908 -0.4873
    1W        W55511  26.679  11.725   6.942 -0.0224 -0.1295 -0.1462
    1W        W55512  26.741  28.716   7.979 -0.0485  0.2059 -0.0353
    1W        W55513  22.438  15.941   7.120 -0.0053  0.1928  0.0328
    1W        W55514   3.262  29.197   8.450  0.1594 -0.0531 -0.4010
    1W        W55515  19.684  23.357   9.348 -0.2204  0.0929  0.1270
    1W        W55516  18.224   2.315   1.615 -0.2841 -0.1426  0.3328
    1W        W55517  18.076  22.998   2.970 -0.3900  0.1148  0.0211
    1W        W55518  23.135  27.031   2.844 -0.1581 -0.0378 -0.2889
    1W        W55519  13.795  13.033   9.446  0.3077  0.1786 -0.0408
    1W        W55520   4.935  20.905   9.108  0.5182 -0.0539 -0.2826
    1W        W55521  17.296  19.925   7.730 -0.3322  0.1830 -0.0827
    1W        W55522   8.180   8.474   1.281 -0.0998  0.0186  0.1219
    1W        W55523  22.217  17.785   0.829  0.0589 -0.0219 -0.2823
    1W        W55524  25.805   3.497   7.268  0.3343 -0.2930 -0.5315
    1W        W55525  18.556  10.393   6.909 -0.0904 -0.0779  0.0615
    1W        W55526  16.007  16.115   6.678  0.3947  0.2567  0.2832
    1W        W55527   4.849   6.974   7.938  0.2785 -0.1544 -0.1078
    1W        W55528  20.729  15.950   7.762 -0.1555 -0.1265  0.2151
    1W        W55529  22.944  24.714   1.340 -0.0036 -0.0876  0.3966
    1W        W55530  11.387   8.953   9.429 -0.0665 -0.1771  0.2960
    1W        W55531  26.472  13.629   7.391 -0.0383  0.0025 -0.1088
    1W        W55532  21.229  19.555   7.792 -0.1526  0.0069  0.2105
    1W        W55533   0.880  11.424   1.827  0.2035 -0.0391  0.3809
    1W        W55534  13.887   5.538   7.147  0.2038  0.0907  0.1587
    1W        W55535   4.165  12.104   2.480  0.0707 -0.0500  0.0647
    1W        W55536   9.279   9.908   9.096  0.3792 -0.2543 -0.1228
    1W        W55537  25.622   8.692   8.692 -0.2468 -0.0280 -0.1190
    1W        W55538  28.472  21.702   2.314  0.0302  0.0730  0.3078
    1W        W55539   5.694  21.349   1.119  0.0354 -0.0819  0.0234
    1W        W55540  15.983  17.202   7.179 -0.2951  0.0204  0.2468
    1W        W55541   3.736   1.676   0.322 -0.0958 -0.1463 -0.2787
    1W        W55542  21.244   8.072   6.158  0.1096 -0.2240  0.0161
    1W        W55543  19.957  14.119   1.432 -0.0386 -0.0377  0.2377
    1W        W55544  16.824  27.525   3.869  0.1464  0.1872 -0.2002
    1W        W55545  17.682   6.658   1.351 -0.0247  0.2220 -0.0435
    1W        W55546  22.172   8.048   1.627 -0.0162 -0.2578  0.0547
    1W        W55547  14.885  24.759   2.227  0.2810 -0.1049 -0.0554
    1W        W55548   1.387   6.259   2.867  0.0368  0.1283  0.0998
    1W        W55549   8.483  15.575   1.596  0.1143  0.1038  0.3633
    1W        W55550   8.685  11.962   2.615  0.1054 -0.0710  0.2765
    1W        W55551  22.192  16.185   8.028 -0.4067  0.1959 -0.2664
    1W        W55552  17.038  13.499   1.057 -0.0651  0.0556  0.1257
    1W        W55553   4.172   2.502   2.552  0.0004 -0.1879  0.2195
    1W        W55554  19.799  22.844   0.843 -0.0026 -0.2601 -0.0322
    1W        W55555   8.318   3.203   1.872 -0.1217  0.1515 -0.0652
    1W        W55556  14.182  15.974   1.005 -0.2241 -0.0985 -0.1449
    1W        W55557  23.271   5.831   8.206  0.3970 -0.1849 -0.0025
    1W        W55558  16.050  19.691   2.047 -0.3638  0.2567  0.0288
    1W        W55559   0.556  26.512   0.842  0.1442 -0.1625  0.2020
    1W        W55560   8.712   2.280   8.146 -0.0188 -0.1301 -0.0492
    1W        W55561  14.755  24.882   0.323 -0.1724  0.0495  0.2718
    1W        W55562  24.258   4.672   2.011 -0.3310  0.1631  0.2596
    1W        W55563  22.463  23.286   0.508  0.1214 -0.0795 -0.1251
    1W        W55564  13.657  17.651   7.366 -0.1478 -0.1927  0.2838
    1W        W55565  21.540   7.832   0.455 -0.0496  0.1880 -0.1130
    1W        W55566  27.051  11.378   0.372 -0.2125  0.2413  0.2294
    1W        W55567   6.077  16.635   1.186  0.0585  0.2557  0.1374
    1W        W55568  14.928   3.127   9.204  0.0857  0.0713 -0.2263
    1W        W55569  10.987  15.407   8.403 -0.0918 -0.1021  0.0126
    1W        W55570   5.618  29.395   6.988  0.3184 -0.1164 -0.1603
    1W        W55571  14.347   9.932   8.489  0.0212  0.0129 -0.1109
    1W        W55572   8.332  14.889   7.672  0.0897  0.0084 -0.0514
    1W        W55573   8.746  16.597   6.842 -0.0062 -0.2190  0.0480
    1W        W55574   7.826  12.228   2.558 -0.1481  0.0243  0.0134
    1W        W55575  10.597  27.687   2.116 -0.0966 -0.0916  0.1943
    1W        W55576  11.304  22.923   6.835  0.0678  0.0691 -0.0113
    1W        W55577  12.447  17.328   1.102 -0.0824  0.1489  0.0580
    1W        W55578  29.476   4.519   1.965 -0.0295 -0.2215 -0.1822
    1W        W55579  27.276   7.648   8.407 -0.1124 -0.4535  0.3102
    1W        W55580  26.666   3.661   7.075 -0.2225  0.2120 -0.1027
    1W        W55581  13.401   3.869   7.631  0.0035  0.2865 -0.0633
    1W        W55582  17.105  11.519   1.204  0.1396 -0.3799 -0.2438
    1W        W55583  28.737  20.002   8.779 -0.0280 -0.0381 -0.0936
    1W        W55584  29.506  25.772   6.927  0.2381  0.0899 -0.0412
    1W        W55585   5.515  19.540   1.824  0.3360 -0.1662  0.1150
    1W        W55586  24.740  16.452   6.951  0.0656 -0.2849  0.3592
    1W        W55587   4.321  10.752   2.855 -0.0891 -0.1372  0.0712
    1W        W55588  20.102   0.353   3.334 -0.1872 -0.0995  0.1379
    1W        W55589  15.618  27.910   7.678  0.0659  0.0012 -0.0323
    1W        W55590   0.526  10.235   6.777 -0.0964 -0.1141  0.1245
    1W        W55591   2.046   7.641   7.924  0.3789  0.3873  0.1313
    1W        W55592  14.309  29.589   2.857 -0.0410 -0.0913 -0.2355
    1W        W55593  13.439  15.999   7.907 -0.1157  0.0555 -0.0727
    1W        W55594  16.873   5.582   9.437 -0.1806 -0.0818 -0.1334
    1W        W55595  14.772  16.922   1.895 -0.1724 -0.0636 -0.0245
    1W        W55596  24.121  19.052   2.319 -0.3678 -0.3307 -0.0967
    1W        W55597   3.545  28.975   5.649  0.1182  0.1421 -0.0982
    1W        W55598  15.003  18.768   7.728  0.4434 -0.0223 -0.0144
    1W        W55599  15.164   7.844   7.350 -0.2043 -0.1532 -0.1171
    1W        W55600  26.585   8.690   9.408  0.0623 -0.0490 -0.5093
    1W        W55601   5.450  10.099   9.176  0.1020 -0.0948  0.2417
    1W        W55602  14.138  22.622   0.234 -0.1586  0.0405  0.4413
    1W        W55603   7.056   4.991   6.892 -0.0657 -0.1241 -0.0263
    1W        W55604  23.869  28.081   8.015  0.0342  0.0937  0.0905
    1W        W55605  11.071  14.969   2.014 -0.2065 -0.1624 -0.1885
    1W        W55606  29.052  10.342   7.283 -0.1239 -0.1556  0.0991
    1W        W55607  25.683   3.075   0.898  0.1061 -0.0337 -0.0845
    1W        W55608  17.104  23.695   2.420  0.2575 -0.0310 -0.1143
    1W        W55609   2.614  24.558   1.014 -0.0131  0.0824  0.0008
    1W        W55610  19.037  20.857   9.368 -0.2447  0.1439 -0.1395
    1W        W55611  28.653  18.561   2.473  0.1072 -0.1422 -0.1457
    1W        W55612   8.660   6.012   9.265  0.1064 -0.1414 -0.2945
    1W        W55613  27.421  17.965   7.338  0.0507 -0.3062  0.0028
    1W        W55614  10.447  23.515   6.811  0.0175  0.0704 -0.0046
    1W        W55615   6.231  28.972   7.983 -0.1826  0.1652  0.1062
    1W        W55616  28.596   5.592   2.737 -0.0684 -0.3927 -0.1849
    1W        W55617  14.762  24.584   7.366  0.0248  0.0011 -0.1798
    1W        W55618   2.793  24.092   1.181  0.1746  0.2442 -0.1474
    1W        W55619   6.539  14.258   8.605  0.0618 -0.0181 -0.2334
    1W        W55620   5.665   1.849   9.173  0.2051 -0.0280  0.0040
    1W        W55621  19.096   8.289   8.929  0.0139 -0.0472 -0.3383
    1W        W55622  25.614  14.691   7.145  0.0196  0.0148 -0.0737
    1W        W55623   3.678   1.344   1.308  0.1481 -0.0166  0.0485
    1W        W55624  17.138   1.335   1.066  0.2303  0.0546 -0.2155
    1W        W55625  27.198  25.918   8.484 -0.0065 -0.1622 -0.0404
    1W        W55626   8.651  15.637   0.261 -0.1299 -0.5152  0.0367
    1W        W55627  14.761  28.987   1.887  0.0150  0.0585 -0.2147
    1W        W55628   9.750   5.260   9.377 -0.1800 -0.3073  0.3193
    1W        W55629  14.280   2.353   2.078 -0.3189 -0.0578  0.0275
    1W        W55630  29.404  27.436   8.759 -0.2369 -0.1858 -0.1378
    1W        W55631  24.528  22.274   8.898 -0.4017  0.2025 -0.2380
    1W        W55632   5.972  25.715   9.210 -0.2447  0.1218  0.3066
    1W        W55633  24.462   0.457   1.346  0.0110  0.2191 -0.1048
    1W        W55634   5.797   2.809   0.126  0.1105  0.0497 -0.1586
    1W        W55635   6.426  14.892   8.958 -0.0799 -0.0740  0.1178
    1W        W55636  10.154  11.070   8.776  0.1363 -0.0735  0.0038
    1W        W55637  29.421  15.186   2.529 -0.0840 -0.1711  0.0875
    1W        W55638   5.668  14.364   1.100 -0.1799  0.0046 -0.3472
    1W        W55639  13.226   9.589   0.872 -0.2283 -0.1111 -0.0542
    1W        W55640   2.729  21.275   0.745 -0.1102 -0.1712  0.2948
    1W        W55641   2.522  23.979   7.693  0.2176  0.0316  0.2194
    1W        W55642  22.098  23.715   3.144 -0.0935  0.0963  0.3046
    1W        W55643  17.471   5.210   9.090 -0.0512  0.0914  0.1469
    1W        W55644   9.193  13.296   2.167  0.0606 -0.0008 -0.1326
    1W        W55645  22.158  21.344   0.376  0.0580  0.1515 -0.2411
    1W        W55646  11.264  21.443   9.028  0.0285 -0.1078  0.0555
    1W        W55647   3.512   2.194   7.806  0.0123  0.1760 -0.1499
    1W        W55648   0.093  10.060   7.811  0.0524  0.1545  0.1842
    1W        W55649  25.073  25.436   2.580 -0.2577 -0.0179  0.3263
    1W        W55650  26.990   9.542   8.516  0.2035  0.0597 -0.1088
    1W        W55651  11.793  23.543   1.326  0.1279 -0.0705  0.0248
    1W        W55652  26.032   8.635   8.312 -0.0599 -0.1918 -0.1591
    1W        W55653  28.825  22.542   6.901  0.2647  0.0829 -0.0298
    1W        W55654  19.849   3.159   1.836 -0.5048  0.3446  0.1380
    1W        W55655  16.445  24.272   0.320 -0.1388  0.0711  0.1341
    1W        W55656   7.114  22.244   0.146  0.1057  0.3419 -0.1616
    1W        W55657  23.296  22.276   3.447 -0.4423 -0.2351 -0.0075
    1W        W55658  22.996  21.667   2.683  0.0053 -0.1076  0.1560
    1W        W55659  13.601  22.281   2.492 -0.1716  0.0153  0.2259
    1W        W55660  26.439  18.764   7.484 -0.2688  0.2551 -0.0586
    1W        W55661  25.537  16.545   8.986  0.0908 -0.1243 -0.0645
    1W        W55662   7.187   9.224   2.543 -0.1621  0.1285 -0.3335
    1W        W55663  25.620   6.344   0.851 -0.2333 -0.2090  0.1662
    1W        W55664   6.219  29.580   3.334  0.0567 -0.3876  0.0879
    1W        W55665   0.864  13.918   8.455 -0.0223 -0.1243 -0.1004
    1W        W55666  21.674  28.263   2.193 -0.3084 -0.0859 -0.0523
    1W        W55667   7.964   1.897   2.300  0.0283 -0.3103  0.0677
    1W        W55668  26.064   7.360   7.273 -0.2899 -0.1394  0.1495
    1W        W55669  16.676  21.342   8.888  0.1621 -0.2167  0.0204
    1W        W55670   5.648  24.539   6.397 -0.0429 -0.2340  0.0078
    1W        W55671   7.125  11.647   7.613 -0.0791 -0.0324 -0.0567
    1W        W55672  11.195   3.244   1.256  0.0568  0.1004 -0.2820
    1W        W55673   8.381  12.787   1.767  0.1014  0.2597 -0.0993
    1W        W55674  18.458  13.076   8.060 -0.0829  0.1570  0.2096
    1W        W55675  19.918  13.626   0.353 -0.1618  0.1185  0.0101
    1W        W55676   9.123  24.309   6.318  0.0456  0.0748  0.2494
    1W        W55677   4.599  28.633   9.163  0.0820 -0.0546 -0.0991
    1W        W55678  26.634  21.473   0.441 -0.4705 -0.0773 -0.0484
    1W        W55679   7.664  28.159   9.084  0.0987 -0.1823  0.0449
    1W        W55680   8.102  22.660   8.846 -0.1189  0.1332  0.2372
    1W        W55681   3.800  17.714   9.372  0.0322  0.2370 -0.2207
    1W        W55682   8.787  14.635   1.820 -0.1348 -0.2426 -0.1815
    1W        W55683  16.944   0.680   7.183 -0.5488  0.1572  0.0609
    1W        W55684  12.336  25.911   2.172 -0.0195  0.1063  0.1323
    1W        W55685  28.308   7.621   6.920 -0.0943  0.4151 -0.1618
    1W        W55686  13.301   7.070   6.654 -0.0882  0.4294 -0.1352
    1W        W55687  13.534   4.384   7.694  0.0031  0.0133  0.0239
    1W        W55688  21.855  18.506   6.808 -0.0950 -0.0521 -0.1569
    1W        W55689   6.918  26.958   8.974 -0.2574  0.1975 -0.2113
    1W        W55690  15.747  13.500   7.413  0.2551 -0.1246  0.0064
    1W        W55691  13.977   7.428   0.255  0.0833  0.1441  0.1900
    1W        W55692  24.401  22.938   2.094 -0.0648 -0.2557 -0.1878
    1W        W55693  29.839   7.921   0.859 -0.0747 -0.0070 -0.1612
    1W        W55694  28.057  13.740   8.336 -0.1214  0.1017  0.0950
    1W        W55695  25.016   5.943   0.718 -0.1452  0.1772 -0.1852
    1W        W55696  17.677   2.467   1.535  0.0678  0.5317 -0.0217
    1W        W55697  22.296  28.060   6.906  0.1308  0.0211  0.1460
    1W        W55698  28.357  21.290   0.298  0.1344 -0.0802 -0.0193
    1W        W55699  28.589  15.133   8.241  0.0850  0.0315  0.2657
    1W        W55700  26.684  10.706   8.138  0.1276 -0.1356  0.2941
    1W        W55701   7.272   0.513   3.070  0.1817 -0.1559 -0.2045
    1W        W55702   5.689  21.434   0.180  0.4139 -0.3044  0.1536
    1W        W55703  25.909   2.413   6.328  0.2297 -0.0221 -0.3266
    1W        W55704  19.113   2.968   7.433  0.0807  0.3298  0.0030
    1W        W55705  23.447   7.823   2.510 -0.1976 -0.0337  0.2171
    1W        W55706  18.355  14.516   7.734  0.1166  0.3548 -0.1222
    1W        W55707  17.962  29.177   6.953 -0.2474 -0.3564  0.2228
    1W        W55708  23.926   0.903   1.933  0.0084 -0.1280 -0.1150
    1W        W55709   2.205  23.369   7.524 -0.1674  0.2307 -0.1025
    1W        W55710   8.184  24.548   7.250 -0.1322  0.0360 -0.1928
    1W        W55711  26.105  14.135   1.915 -0.3786 -0.1215  0.0951
    1W        W55712  27.544  28.152   2.043  0.3575  0.0082 -0.3139
    1W        W55713   6.741   4.253   9.289 -0.4349  0.1113 -0.0818
    1W        W55714  29.655   5.229   1.495 -0.2816  0.0679  0.0445
    1W        W55715  17.445   1.155   3.472 -0.1075 -0.0078 -0.1867
    1W        W55716  16.027  18.298   0.776 -0.1589  0.2913  0.3606
    1W        W55717  23.609   6.149   6.473 -0.1105 -0.0931  0.2533
    1W        W55718  22.871  15.894   6.795  0.0882  0.1790 -0.0684
    1W        W55719  19.001   5.849   3.244 -0.0380 -0.4821 -0.2387
    1W        W55720  28.174  24.595   7.041 -0.0085  0.0904  0.1551
    1W        W55721   2.301  26.883   0.794  0.2589  0.1096  0.1125
    1W        W55722  11.968  20.802   0.520  0.5688  0.1390 -0.2260
    1W        W55723   6.124  18.975   7.507  0.1867  0.3133 -0.2481
    1W        W55724  16.562  29.572   1.853 -0.3338  0.1292 -0.1152
    1W        W55725  24.141  10.714   0.085  0.0993 -0.2064  0.2787
    1W        W55726   8.380  24.255   6.921 -0.1835  0.1074  0.2899
    1W        W55727   4.791  15.430   7.305 -0.0874 -0.0662  0.0698
    1W        W55728   7.983  19.490   1.763  0.1143  0.0125  0.0677
    1W        W55729  22.415  24.179   1.856 -0.2019 -0.0143 -0.0672
    1W        W55730  27.166  20.329   7.041 -0.0408 -0.4062 -0.0297
    1W        W55731  10.866  21.200   6.606  0.2663  0.2282 -0.0025
    1W        W55732   2.375   3.685   6.168 -0.2627 -0.1007 -0.1232
    1W        W55733   6.341  16.829   6.732 -0.0161  0.0896 -0.2523
    1W        W55734   3.124  24.277   6.589 -0.3713 -0.3025 -0.2874
    1W        W55735   8.025  11.666   7.670 -0.3464 -0.1387 -0.0099
    1W        W55736   1.398  25.660   9.395  0.1290  0.2191 -0.1340
    1W        W55737  28.497  16.205   2.365  0.1896  0.2127 -0.1643
    1W        W55738   4.475  17.874   6.218 -0.1002 -0.1345 -0.1537
    1W        W55739  17.237   0.022   7.702  0.1925  0.3275 -0.3484
    1W        W55740  22.470  17.333   7.141 -0.3640 -0.3216 -0.0375
    1W        W55741   9.867  21.754   8.001 -0.0877 -0.0223  0.0413
    1W        W55742  10.306   6.203   1.312 -0.3097  0.0187 -0.0821
    1W        W55743   5.126  22.140   2.162 -0.2037  0.1265 -0.0984
    1W        W55744   6.267  15.516   0.587  0.0037  0.3295 -0.4204
    1W        W55745  19.871   9.677   8.409 -0.0131  0.1788  0.2469
    1W        W55746  18.038  18.608   7.540 -0.0395 -0.0717  0.2772
    1W        W55747   0.362   3.259   7.866  0.0281  0.3972  0.1317
    1W        W55748  15.374   5.420   0.943 -0.0353 -0.3722 -0.0613
    1W        W55749  10.098  27.209   2.913  0.0680  0.0152  0.0783
    1W        W55750  15.123  10.236   8.140  0.2512  0.1825 -0.1870
    1W        W55751   4.220  18.472   8.371  0.1592 -0.1132 -0.1180
    1W        W55752  28.628  19.666   7.825 -0.1088  0.1414 -0.2429
    1W        W55753  22.013  17.668   9.378 -0.0834  0.0140  0.3416
    1W        W55754   4.288   0.932   1.388  0.1947 -0.2504  0.1333
    1W        W55755  10.874   5.486   1.804  0.0429 -0.1150 -0.0615
    1W        W55756  10.118  25.753   1.536  0.0281 -0.0899 -0.1786
    1W        W55757  26.707  14.546   6.911  0.4790 -0.2539 -0.2146
    1W        W55758  24.674  23.495   0.502 -0.0473  0.1334 -0.1423
    1W        W55759  24.421  11.015   6.314 -0.3894  0.4518 -0.3711
    1W        W55760   6.419   8.262   0.175  0.0634  0.0435 -0.1041
    1W        W55761  15.333  27.458   9.360  0.0972 -0.0707  0.0582
    1W        W55762  20.705   8.852   1.106  0.0824  0.3318  0.2375
    1W        W55763   8.580  18.552   8.699 -0.1178  0.1712 -0.0723
    1W        W55764  19.697  17.982   9.075 -0.0995  0.0428 -0.1577
    1W        W55765   6.142   3.610   2.872 -0.2823 -0.0907  0.1715
    1W        W55766  11.343  26.382   8.029  0.0918 -0.0865 -0.2342
    1W        W55767  22.031   5.414   6.808  0.0749 -0.1593  0.0313
    1W        W55768  26.093   4.030   2.870 -0.3636 -0.1453  0.3168
    1W        W55769  22.067  24.163   7.176 -0.2488  0.0716 -0.0210
    1W        W55770   7.451   7.315   1.968 -0.3294 -0.0828 -0.0807
    1W        W55771  15.838  18.091   1.805  0.1322 -0.1024 -0.0727
    1W        W55772  22.720   9.020   6.795  0.0501  0.1739 -0.0932
    1W        W55773  19.148  14.261   8.762 -0.1530  0.1825 -0.0017
    1W        W55774  23.422   7.773   8.405  0.0133  0.1126  0.2416
    1W        W55775   5.601   6.869   7.291  0.0268  0.0190  0.2181
    1W        W55776  22.873   3.641   1.025 -0.0771  0.0346  0.1150
    1W        W55777  24.284  12.027   8.597  0.0606  0.2352 -0.3529
    1W        W55778   7.313  10.651   0.160  0.1156  0.0483  0.1844
    1W        W55779  14.486  15.697   9.064  0.1282 -0.1382  0.0729
    1W        W55780   1.682  25.833   2.054  0.2022 -0.1622  0.0591
    1W        W55781  29.179   5.062   8.195 -0.2191 -0.0038 -0.0620
    1W        W55782  20.064  10.854   7.499  0.3009  0.0206  0.1210
    1W        W55783  15.997  26.782   9.336 -0.1145  0.3076 -0.2254
    1W        W55784  22.745  16.714   7.483  0.1702 -0.0127 -0.1861
    1W        W55785  20.558  21.435   6.460  0.1458 -0.1373  0.0495
    1W        W55786  27.333   3.840   0.904 -0.0353 -0.1505  0.1055
    1W        W55787  13.080  26.543   7.749  0.3143 -0.1233  0.2901
    1W        W55788   8.559  15.268   1.117  0.0224 -0.0486  0.2040
    1W        W55789   6.622  22.937   8.176  0.1575  0.1384  0.0046
    1W        W55790   9.453  27.403   0.192 -0.0517  0.0890 -0.0797
    1W        W55791  13.781  24.384   8.031  0.1179 -0.3039 -0.2036
    1W        W55792  13.121   8.693   0.445  0.1183  0.1658 -0.1438
    1W        W55793  13.860  15.745   0.424  0.0223  0.0779  0.0099
    1W        W55794  29.063  20.237   7.210  0.1075  0.1655 -0.0629
    1W        W55795  15.119  21.868   0.400 -0.1642 -0.1281  0.2671
    1W        W55796  14.111   5.190   6.826  0.2029 -0.0547 -0.0427
    1W        W55797  10.206   8.703   1.174 -0.3507 -0.1307  0.1806
    1W        W55798   4.461  19.490   7.229 -0.0769  0.1533  0.2641
    1W        W55799  16.096  14.210   9.194 -0.1976 -0.1929 -0.2412
    1W        W55800   6.811  19.109   7.041  0.0529  0.0233  0.0798
    1W        W55801   5.667  13.670   8.805 -0.0493  0.0017 -0.1110
    1W        W55802  20.246  11.399   0.669  0.0319 -0.2668 -0.0589
    1W        W55803  28.805   7.516   2.111  0.2107  0.1357 -0.2416
    1W        W55804  28.557   7.522   7.473 -0.2688 -0.0600 -0.2452
    1W        W55805  15.909  26.588   0.835  0.2238 -0.0131 -0.1314
    1W        W55806   9.932   7.720   0.394  0.1006  0.0816  0.1203
    1W        W55807   1.052  18.812   8.297  0.0052 -0.1007  0.0630
    1W        W55808   1.685  27.327   8.717 -0.1778 -0.0212  0.0111
    1W        W55809  27.791   4.583   1.096  0.1605 -0.1289  0.0524
    1W        W55810  20.927  26.567   2.083 -0.1448  0.0787 -0.1484
    1W        W55811  25.027  13.407   6.236  0.2680 -0.1014 -0.0994
    1W        W55812   8.319  10.596   0.081 -0.3500  0.0823 -0.3559
    1W        W55813   0.987  24.956   7.675  0.1001 -0.1549 -0.0823
    1W        W55814   6.988  13.834   8.550  0.1350 -0.1113  0.0327
    1W        W55815   0.749   8.800   2.440  0.0322 -0.0185 -0.0754
    1W        W55816  11.120  16.687   8.365  0.0748  0.1471 -0.2470
    1W        W55817   9.554  13.927   8.946 -0.0118 -0.1054 -0.3541
    1W        W55818  11.290  16.319   8.665  0.0084  0.1557 -0.1531
    1W        W55819  20.711  17.651   0.537 -0.0533  0.1046  0.2306
    1W        W55820  13.123  12.216   1.040  0.0326  0.3427 -0.0805
    1W        W55821   6.840  19.509   9.053 -0.1350  0.2425  0.0862
    1W        W55822  22.310   8.940   9.232  0.2072  0.2275 -0.0388
    1W        W55823   9.678   5.552   0.331  0.0477 -0.0046  0.0159
    1W        W55824   4.105  25.309   0.232 -0.0173  0.0586  0.0199
    1W        W55825  18.118   4.917   1.984 -0.2270 -0.0387  0.1123
    1W        W55826   5.994  19.934   6.299 -0.1208  0.0893 -0.0956
    1W        W55827   8.772   4.890   7.890  0.1237 -0.0191 -0.0571
    1W        W55828   3.254  27.676   0.964 -0.3894 -0.2890  0.0438
    1W        W55829  24.303  16.292   8.354  0.4296 -0.2495  0.1220
    1W        W55830  13.425  27.071   7.201 -0.1497  0.1943  0.0869
    1W        W55831   5.881  11.755   7.848 -0.4069 -0.0865 -0.0561
    1W        W55832   8.773  19.935   7.087  0.1672 -0.1453  0.1502
    1W        W55833  10.073  23.364   1.457 -0.2499 -0.1041 -0.0259
    1W        W55834  28.767   3.857   1.848  0.3400 -0.4888  0.2684
    1W        W55835   6.970  19.589   8.280 -0.1281  0.1736  0.0699
    1W        W55836   0.885  25.989   6.508 -0.0308 -0.0173  0.5710
    1W        W55837  21.027   2.177   7.561  0.0050 -0.1901 -0.0603
    1W        W55838   2.618  10.832   8.862  0.0021 -0.0184 -0.0360
    1W        W55839  27.140  28.840   8.279  0.1128 -0.0871  0.1581
    1W        W55840   5.339  29.879   6.201  0.0994 -0.0804 -0.0697
    1W        W55841   1.834  11.374   7.898  0.0728  0.1878  0.0835
    1W        W55842  13.534  28.331   6.694 -0.2698  0.1894 -0.2040
    1W        W55843  10.687  17.162   0.522 -0.0520  0.1247  0.0219
    1W        W55844  23.744  13.624   1.182  0.1386  0.0600  0.2258
    1W        W55845   0.534   7.291   6.928 -0.0949 -0.3237  0.0675
    1W        W55846   6.044   8.096   1.569  0.2265 -0.0797  0.0293
    1W        W55847   5.971   5.743   8.458  0.0836  0.5632 -0.0913
    1W        W55848  12.970  22.634   7.690 -0.1636  0.0889 -0.1602
    1W        W55849  13.559  16.880   6.858  0.1763 -0.3954 -0.0984
    1W        W55850  29.067  25.521   6.838  0.0754  0.1816 -0.0214
    1W        W55851  23.369  12.866   0.540 -0.1525 -0.1942  0.1495
    1W        W55852  23.466   5.749   3.553  0.0637  0.2322  0.1447
    1W        W55853  16.560  15.381   1.570 -0.3699 -0.3479  0.1098
    1W        W55854   5.268   0.702   0.519  0.2399 -0.1305 -0.1493
    1W        W55855  22.337  26.564   7.247 -0.0544 -0.1237  0.0804
    1W        W55856  28.750  23.322   6.210  0.0076  0.3489 -0.2214
    1W        W55857  20.727  10.083   6.937 -0.3454 -0.0156 -0.2420
    1W        W55858  28.734  20.241   2.130  0.2864 -0.2013  0.0038
    1W        W55859  10.571  12.129   8.474 -0.2740 -0.2056 -0.1814
    1W        W55860  21.142  14.992   0.305 -0.0428 -0.3522  0.1362
    1W        W55861  18.459  18.413   1.433 -0.0400 -0.0697 -0.1028
    1W        W55862  26.607   0.118   0.622 -0.4744  0.4014  0.0082
    1W        W55863  29.427  20.279   8.460  0.2232 -0.2994 -0.1440
    1W        W55864  10.890   2.442   2.641  0.0096  0.1008 -0.1507
    1W        W55865  13.951  23.705   0.412 -0.3995  0.0894 -0.3199
    1W        W55866  14.484  23.686   0.189  0.0447 -0.2517  0.1940
    1W        W55867  22.099  28.990   8.153  0.1836  0.1261 -0.0691
    1W        W55868   8.211  24.391   8.209  0.1531  0.0851  0.0134
    1W        W55869   8.155   4.737   8.072  0.1088 -0.3315 -0.3063
    1W        W55870  24.905   3.286   2.337  0.0571 -0.1610 -0.1747
    1W        W55871  18.462  18.642   0.939  0.2176  0.0055 -0.4233
    1W        W55872   7.915  15.342   7.970 -0.0993 -0.1103  0.0964
    1W        W55873   0.235  17.871   0.320 -0.0444  0.0078  0.2316
    1W        W55874  16.413  21.593   0.606 -0.0910  0.0052 -0.0941
    1W        W55875  10.354  29.375   9.318  0.1810  0.1978 -0.2355
    1W        W55876  12.428   7.560   8.690 -0.3175  0.2020 -0.2697
    1W        W55877   0.168  25.383   1.499 -0.1961 -0.0902 -0.2725
    1W        W55878  24.306  21.369   7.321 -0.3251  0.0044  0.3199
    1W        W55879   1.368   7.815   6.776  0.1831  0.3523  0.1914
    1W        W55880   0.018  28.896   6.761  0.3451 -0.0502 -0.2075
    1W        W55881   3.192   4.372   1.510 -0.2229  0.2006  0.2428
    1W        W55882   8.652  18.210   0.797 -0.1469  0.1078 -0.0489
    1W        W55883  20.290   9.945   7.099  0.1249 -0.0889  0.0504
    1W        W55884  25.807  24.433   8.122 -0.1542 -0.3313  0.1685
    1W        W55885  20.150   6.263   0.705  0.1837  0.1869 -0.0760
    1W        W55886  24.891   4.633   1.901  0.0533 -0.2200  0.1876
    1W        W55887  24.436  15.562   9.399 -0.1544 -0.0542 -0.0665
    1W        W55888   5.516  21.441   1.622  0.0870  0.1263  0.1768
    1W        W55889  24.670   2.828   0.969  0.2551  0.1671  0.2777
    1W        W55890  12.799   0.998   2.492 -0.0012  0.2784 -0.1164
    1W        W55891  18.770   7.005   0.504  0.3229 -0.2925 -0.1314
    1W        W55892   6.990  29.027   1.585 -0.1369  0.0173 -0.3598
    1W        W55893  22.634   9.939   7.767  0.0850  0.3348  0.1515
    1W        W55894  28.269  12.696   0.660  0.1288 -0.1378  0.1846
    1W        W55895  23.824  13.255   2.471  0.0610  0.3113 -0.0293
    1W        W55896   8.301   2.568   1.342  0.1234  0.0803 -0.2756
    1W        W55897  26.324  19.004   8.388  0.3226  0.0146  0.1026
    1W        W55898  25.494  17.214   1.016  0.0067  0.2146 -0.0722
    1W        W55899  28.888   4.153   6.942 -0.1688 -0.0645 -0.0122
    1W        W55900  13.672   0.032   7.052  0.0708  0.1379 -0.0613
    1W        W55901  24.071   6.503   2.316  0.1298  0.0156  0.2319
    1W        W55902   1.703  21.298   5.979  0.1142 -0.3405  0.0239
    1W        W55903  23.458  16.366   8.743  0.0216 -0.1319  0.0006
    1W        W55904   7.768   5.991   8.048 -0.0063 -0.0835 -0.2454
    1W        W55905  27.409  28.620   1.946  0.0988  0.0802  0.0050
    1W        W55906  25.295  24.199   0.535 -0.3578 -0.3315  0.2460
    1W        W55907   6.848  24.704   0.297 -0.2383 -0.1910 -0.1083
    1W        W55908  17.151  10.499   8.763  0.1049  0.2648  0.0072
    1W        W55909   7.032  27.708   2.679 -0.1830 -0.0178 -0.1112
    1W        W55910  24.623   3.820   1.618  0.1386  0.2520  0.3985
    1W        W55911   7.017  18.359   6.432  0.0051 -0.0090 -0.1626
    1W        W55912  27.684   0.027   2.546 -0.0262  0.2486  0.0029
    1W        W55913  15.920  25.813   2.185  0.0298 -0.3908 -0.4001
    1W        W55914  10.196  20.456   8.831 -0.0551  0.2199  0.2929
    1W        W55915   2.133  27.117   1.263 -0.1334 -0.3704 -0.1449
    1W        W55916   4.274  21.176   7.871  0.1506 -0.0645 -0.1766
    1W        W55917   8.991  26.084   7.310 -0.1122  0.3114  0.1996
    1W        W55918  28.976   4.466   1.787 -0.1933  0.1200  0.0889
    1W        W55919   8.076   2.176   1.000  0.1294  0.0432  0.0962
    1W        W55920   1.039  23.556   0.557 -0.2864 -0.1684  0.1803
    1W        W55921  20.706  27.518   0.315 -0.0937 -0.1241  0.0881
    1W        W55922   5.075  11.346   0.995 -0.1752 -0.2415  0.2389
    1W        W55923  25.651   0.904   6.645  0.2502  0.0118  0.2345
    1W        W55924  17.920  19.986   8.157  0.1046  0.0297  0.1112
    1W        W55925   4.662  21.003   5.635 -0.3038  0.0089 -0.1113
    1W        W55926  28.160   5.453   0.026 -0.0127  0.0724 -0.1554
    1W        W55927  14.955  11.719   0.321 -0.0041  0.2971 -0.0776
    1W        W55928  28.150  14.769   7.005  0.2242 -0.1752 -0.2731
    1W        W55929   6.170  17.442   1.681 -0.0696  0.0160  0.1149
    1W        W55930  23.201   1.142   7.178 -0.2253  0.0950  0.1360
    1W        W55931  16.445  21.347   2.159 -0.1701 -0.2568  0.0736
    1W        W55932   4.759   2.570   7.340 -0.1433 -0.2490  0.1625
    1W        W55933   2.065   9.563   8.019 -0.3200 -0.0671 -0.1088
    1W        W55934   0.795  23.631   6.938 -0.0562  0.1896 -0.1580
    1W        W55935  14.253  19.269   7.216 -0.1242  0.0723 -0.1156
    1W        W55936  27.579   6.728   2.467  0.1362 -0.0303  0.1464
    1W        W55937  20.022   5.441   7.702  0.0018  0.0884  0.2787
    1W        W55938   2.273  26.823   2.938  0.0178 -0.0461  0.1467
    1W        W55939  17.038  27.782   2.536 -0.2804 -0.0503 -0.0430
    1W        W55940  18.631  16.236   1.450  0.0682  0.3268 -0.0607
    1W        W55941  29.294   2.578   1.777  0.2700 -0.0020  0.2903
    1W        W55942  24.046  29.018   1.106  0.1205 -0.0766 -0.0842
    1W        W55943  15.501  23.185   0.418  0.0327  0.2774 -0.2762
    1W        W55944  28.611  19.774   2.333  0.2542 -0.2965 -0.2682
    1W        W55945  27.864   7.493   2.698 -0.2753  0.0480  0.1194
    1W        W55946   0.089  23.622   8.053 -0.1299  0.0348 -0.1730
    1W        W55947   2.500  29.500   8.633  0.2245 -0.0553 -0.0241
    1W        W55948   5.312   4.181   8.798 -0.1536 -0.0307 -0.0946
    1W        W55949  11.212   4.479   7.479 -0.0891  0.2993  0.2765
    1W        W55950  28.407  23.243   0.246 -0.2698  0.5293 -0.2824
    1W        W55951   1.860  28.367   0.106  0.1426 -0.1784 -0.0746
    1W        W55952   6.064  29.132   8.491 -0.2346  0.1389  0.0533
    1W        W55953   3.097  26.259   7.396 -0.1776 -0.2232 -0.0858
    1W        W55954  27.113  11.618   2.439  0.0293 -0.1528  0.1210
    1W        W55955   9.821  16.427   1.829  0.0429 -0.0363  0.2364
    1W        W55956  29.815  11.340   7.168  0.0462 -0.1503  0.0497
    1W        W55957  17.317  16.757   1.633 -0.2111  0.3544  0.0586
    1W        W55958   9.177  25.331   1.380 -0.1037 -0.2397  0.2216
    1W        W55959  17.723   8.070   7.535  0.2628 -0.1779 -0.2048
    1W        W55960  24.371   8.316   0.572  0.0221 -0.0669  0.2000
    1W        W55961   1.247  24.638   8.069  0.1533  0.1591 -0.2414
    1W        W55962   2.785  28.518   9.325  0.1797 -0.0802 -0.2187
    1W        W55963  27.578  28.297   1.143 -0.1785  0.0060  0.1795
    1W        W55964  18.734  25.593   7.747 -0.0685 -0.0726  0.0647
    1W        W55965   5.450  16.883   5.830 -0.1134  0.1467 -0.3579
    1W        W55966   0.974   9.415   2.766  0.0998  0.0712 -0.0961
    1W        W55967  26.347  20.425   7.973 -0.0921 -0.1802  0.1157
    1W        W55968   1.105  23.822   9.286  0.2075  0.0219  0.0719
    1W        W55969  16.734   2.232   0.528 -0.0013 -0.0953 -0.0391
    1W        W55970   7.604  14.729   7.322 -0.0435 -0.0320  0.0593
    1W        W55971   0.002   7.406   8.773  0.0472 -0.1320 -0.0157
    1W        W55972  12.683  15.816   9.014 -0.1017  0.2096 -0.2196
    1W        W55973  22.973  16.649   2.353  0.1532  0.0574  0.1887
    1W        W55974  11.524   0.435   0.733  0.1467 -0.3255  0.4758
    1W        W55975   6.666  16.627   8.781  0.0774 -0.2228 -0.1552
    1W        W55976  21.270   2.928   9.335  0.3680  0.0899  0.3007
    1W        W55977  12.665   0.290   7.837  0.1117  0.2635  0.1268
    1W        W55978  19.036   4.369   3.319 -0.0061 -0.1250  0.1202
    1W        W55979  27.874  14.798   1.174 -0.1561 -0.0782  0.3255
    1W        W55980  20.765  19.391   7.904  0.1117  0.0991  0.0956
    1W        W55981  20.146   4.109   3.051  0.0497 -0.3396 -0.0511
    1W        W55982   9.588  15.150   7.223 -0.0170  0.0625  0.1332
    1W        W55983  23.829   5.982   7.306  0.1067  0.1776 -0.0012
    1W        W55984  13.551  20.672   1.637 -0.1799 -0.3438 -0.1855
    1W        W55985   6.576   0.930   1.262 -0.3572 -0.0468  0.0508
    1W        W55986  15.973   3.549   3.051 -0.1249 -0.3035  0.1581
    1W        W55987  25.760   2.896   8.566 -0.0030 -0.0979 -0.2573
    1W        W55988  24.931  16.642   0.544  0.0295  0.1311  0.0719
    1W        W55989   1.324  23.974   0.739 -0.2426 -0.0565 -0.1773
    1W        W55990  17.399   1.674   8.825 -0.0164 -0.1940  0.0014
    1W        W55991  16.246  20.140   1.241  0.0160 -0.1853  0.0453
    1W        W55992   6.313  27.845   8.401  0.1920  0.0906  0.2393
    1W        W55993   0.372  19.535   6.717 -0.3102 -0.1764 -0.0844
    1W        W55994  17.611   3.741   8.727  0.2619  0.2441  0.0536
    1W        W55995   0.319   9.191   1.420 -0.1147  0.0745  0.0038
    1W        W55996  27.550  18.196   5.806 -0.2007 -0.1090 -0.0441
    1W        W55997  17.604  26.539   1.333 -0.0357  0.0998  0.2773
    1W        W55998  20.714  19.948   0.464 -0.1504  0.0725  0.1945
    1W        W55999  12.266  17.462   9.295 -0.2956 -0.1794  0.0013
    1W        W56000  22.135  10.882   7.810 -0.2796 -0.0270 -0.1119
    1W        W56001  28.116  28.020   7.721 -0.2388 -0.0937  0.1002
    1W        W56002   9.616  26.042   2.737 -0.2638 -0.3027  0.1953
    1W        W56003   6.025  15.242   2.256  0.0258  0.2522 -0.0530
    1W        W56004   3.612  12.832   8.446  0.0691  0.0782 -0.0384
    1W        W56005  19.959   7.040   6.550 -0.0320 -0.0096  0.0420
    1W        W56006   6.038  11.972   1.528 -0.0075 -0.1252  0.3028
    1W        W56007   4.826   3.168   7.891  0.0478  0.0513 -0.1343
    1W        W56008  21.698  22.656   0.643  0.0037  0.0631 -0.1085
    1W        W56009   1.411  22.606   0.060  0.0189 -0.0774  0.0291
    1W        W56010  13.982   2.974   1.331  0.0521 -0.0522  0.1135
    1W        W56011  29.185  23.635   6.126 -0.0991  0.1141  0.0220
    1W        W56012  19.965  24.326   2.366  0.2310 -0.2304  0.0040
    1W        W56013  18.298  26.917   8.351  0.0204  0.2893  0.0447
    1W        W56014   6.041   9.210   8.416 -0.1598 -0.0620  0.1099
    1W        W56015   7.338  29.759   2.634 -0.0676 -0.3123  0.0565
    1W        W56016  23.577   0.911   1.594  0.1865  0.1503  0.0254
    1W        W56017   5.691   4.052   7.647 -0.0406 -0.1955 -0.1089
    1W        W56018  17.058  27.514   0.108  0.1869  0.0540 -0.0878
    1W        W56019  11.063  21.588   7.304 -0.0486 -0.1479 -0.2073
    1W        W56020   9.560   9.166   0.298 -0.0888 -0.1157  0.0390
    1W        W56021  12.822   9.672   0.478  0.2092 -0.0953  0.0373
    1W        W56022   3.596  15.824   6.587 -0.3200 -0.0562 -0.1217
    1W        W56023  17.169  26.877   7.785  0.0196 -0.1230  0.0822
    1W        W56024   2.268  26.587   6.149  0.0956  0.0588 -0.2176
    1W        W56025   8.389  22.249   8.763  0.0326  0.2154  0.1537
    1W        W56026  25.393   9.969   9.208 -0.0785 -0.0981 -0.1185
    1W        W56027   8.349  25.497   7.025 -0.1613 -0.0752  0.4304
    1W        W56028  23.518  23.376   2.121 -0.2573 -0.3192 -0.3673
    1W        W56029  19.350   9.229   7.158  0.0725  0.1547  0.2066
    1W        W56030  17.015  13.916   1.847 -0.1205 -0.2058 -0.0347
    1W        W56031  12.616  15.898   7.847 -0.2056  0.2364  0.1007
    1W        W56032  26.533   0.817   3.396  0.1162  0.1343  0.0983
    1W        W56033  24.559  20.848   7.345 -0.0739  0.0423  0.1574
    1W        W56034   1.853  26.186   6.454 -0.1824  0.0355 -0.0426
    1W        W56035   1.568  24.432   1.317  0.1040 -0.1246  0.2117
    1W        W56036  13.357   6.910   2.375  0.1277  0.3825 -0.2780
    1W        W56037  23.754   5.719   0.670 -0.1337  0.2848  0.2832
    1W        W56038  17.600  27.238   0.668 -0.1044  0.1122 -0.0641
    1W        W56039   0.434  17.032   0.628  0.1397 -0.0709  0.1917
    1W        W56040  10.787   6.218   8.826 -0.3241  0.2261 -0.1628
    1W        W56041  27.620  15.241   8.330  0.1090  0.1341 -0.0069
    1W        W56042  28.473   0.127   0.927 -0.1425 -0.1588 -0.0444
    1W        W56043   4.296   2.604   3.487 -0.0071  0.0668 -0.0483
    1W        W56044   3.317  16.230   7.864 -0.1296 -0.1168  0.0743
    1W        W56045   2.808  29.068   8.057  0.0423 -0.1089 -0.1769
    1W        W56046  28.921  25.942   9.075 -0.2185 -0.2456 -0.0248
    1W        W56047  16.075  16.635   9.144  0.2398  0.1278 -0.0475
    1W        W56048   5.104  18.869   8.730  0.1258 -0.0181  0.1881
    1W        W56049  18.792  13.397   0.320 -0.3499 -0.3386 -0.2045
    1W        W56050   5.005  28.607   6.489 -0.2023 -0.0260 -0.0335
    1W        W56051   4.465   9.365   0.601  0.1643  0.1529 -0.0849
    1W        W56052  21.140  23.815   9.467  0.2741  0.1299 -0.0342
    1W        W56053  22.147  17.007   0.493 -0.1154 -0.4471  0.2796
    1W        W56054  12.540  20.851   2.646 -0.0526 -0.7176  0.0594
    1W        W56055  14.321  14.369   0.237 -0.2897  0.0362 -0.1545
    1W        W56056  27.026  19.395   0.268  0.1847 -0.1883  0.1444
    1W        W56057   9.620   3.478   1.288  0.0181 -0.0696 -0.0959
    1W        W56058  24.084  17.302   7.835  0.0362 -0.1013  0.1189
    1W        W56059  20.246  15.854   8.519 -0.2595 -0.0276 -0.0858
    1W        W56060  23.561  22.253   1.223  0.1483 -0.1372  0.0196
    1W        W56061   2.379  29.062   1.157  0.0593  0.1004  0.0432
    1W        W56062   3.304   1.515   7.251  0.1063  0.2018  0.2362
    1W        W56063  25.627  21.891   7.063  0.0339  0.0659  0.1721
    1W        W56064  19.009  27.379   7.782 -0.2998  0.1787 -0.1683
    1W        W56065   5.852   2.906   7.024 -0.0895  0.0818 -0.0557
    1W        W56066  15.308  25.368   7.864  0.0250 -0.4240 -0.1256
    1W        W56067  12.415   8.694   8.233  0.0033 -0.0149 -0.0376
    1W        W56068   8.309  26.542   6.629 -0.1960 -0.1479  0.1654
    1W        W56069   0.753   2.862   2.261  0.3129 -0.0070  0.1197
    1W        W56070  27.982  18.388   0.789  0.2168  0.0939 -0.0636
    1W        W56071  13.872   7.722   1.099 -0.0665  0.0692  0.1867
    1W        W56072  27.613   6.685   7.780  0.1786  0.1965  0.2279
    1W        W56073  26.026   9.552   0.835 -0.0894  0.0890 -0.0103
    1W        W56074  20.379   8.145   1.556 -0.0891  0.2994 -0.0577
    1W        W56075  18.577  15.959   7.246 -0.0339  0.2549  0.3866
    1W        W56076  15.750  27.746   9.170 -0.0836  0.3002  0.4183
    1W        W56077  26.544  24.595   7.067 -0.0744  0.0300  0.0252
    1W        W56078  24.640  14.222   8.574 -0.0726 -0.0052 -0.1321
    1W        W56079   9.121  15.885   8.901  0.1130 -0.1011  0.1483
    1W        W56080  17.677  16.165   7.672 -0.1166  0.1839 -0.1280
    1W        W56081  12.267   9.442   1.314 -0.2191 -0.1805 -0.1799
    1W        W56082   2.612  27.937   6.659 -0.2562 -0.0136 -0.1230
    1W        W56083  12.178  26.532   8.078  0.1769 -0.2004  0.0491
    1W        W56084   7.027  18.974   8.296  0.3039  0.4297  0.0333
    1W        W56085  17.867  19.148   7.790 -0.2491  0.1597  0.4428
    1W        W56086   9.277  12.856   1.309  0.1901 -0.1392 -0.1076
    1W        W56087   0.940  14.178   5.882 -0.0316  0.2811 -0.2000
    1W        W56088   9.087  21.456   8.656 -0.0692  0.0570  0.3247
    1W        W56089  17.996   6.800   2.531 -0.2953  0.2331  0.1790
    1W        W56090  15.357  29.119   0.580  0.1458  0.0700 -0.0706
    1W        W56091  23.484  19.009   0.388  0.4470  0.2622  0.1581
    1W        W56092  23.879  26.142   1.325 -0.0633  0.2881  0.0900
    1W        W56093  22.483   1.442   1.497  0.1502  0.1042 -0.1731
    1W        W56094   6.183  20.719   8.988  0.0816 -0.2471  0.2221
    1W        W56095   5.781  12.187   7.035 -0.0521  0.2802 -0.1005
    1W        W56096  21.004  24.824   0.305  0.1100  0.3317  0.0686
    1W        W56097  26.795  24.612   7.557 -0.0725 -0.2110  0.2294
    1W        W56098   1.137  19.593   1.261  0.1085  0.1135 -0.1635
    1W        W56099  15.056   5.297   0.594 -0.0921 -0.1078 -0.1137
    1W        W56100  26.479  19.035   1.299 -0.1930 -0.2808 -0.0277
    1W        W56101  26.617  24.576   0.685 -0.2154  0.3140 -0.3598
    1W        W56102  23.593  18.987   2.198  0.0416 -0.0625 -0.0079
    1W        W56103   0.906  24.593   9.112  0.0555 -0.2454 -0.1664
    1W        W56104  21.473  14.369   0.886  0.3149  0.0663 -0.2059
    1W        W56105   3.342  13.137   0.745  0.1265 -0.0627 -0.0014
    1W        W56106  27.876  22.347   6.677  0.0515 -0.0917 -0.1918
    1W        W56107  10.373  19.642   1.815  0.0923 -0.1684 -0.0597
    1W        W56108  18.181  14.002   9.022 -0.2111 -0.0507 -0.0235
    1W        W56109  18.144  27.047   2.412 -0.0240 -0.3592 -0.0542
    1W        W56110   0.005  29.421   6.578  0.0637 -0.0450  0.1982
    1W        W56111  26.551  24.120   0.995  0.1783  0.0282 -0.0418
    1W        W56112   6.445  13.865   7.369  0.2007  0.2177 -0.0378
    1W        W56113  22.661   8.493   7.001 -0.2530  0.0668  0.0727
    1W        W56114   6.549  12.288   9.322  0.0470  0.0657  0.3228
    1W        W56115  23.958   3.312   8.568  0.3658  0.1088  0.7898
    1W        W56116  11.294   9.956   7.780 -0.0312  0.0597 -0.5564
    1W        W56117  16.477   3.330   9.395 -0.0644 -0.1390 -0.1111
    1W        W56118  19.862   2.680   9.034 -0.0480  0.0382  0.1022
    1W        W56119  24.148  20.820   7.706 -0.4240 -0.1106  0.1907
    1W        W56120  28.426   4.655   8.571  0.0439  0.1841 -0.0791
    1W        W56121  17.632  23.077   8.913  0.0459 -0.0480  0.0246
    1W        W56122  16.891  11.432   1.789  0.0766  0.1430  0.0279
    1W        W56123   8.932  27.103   7.421  0.1440  0.2125  0.0048
    1W        W56124   0.955   0.250   8.708 -0.0432 -0.1551 -0.0531
    1W        W56125  28.071  29.089   8.982  0.2715  0.1231  0.0490
    1W        W56126   6.727  24.157   7.303  0.1277  0.1704 -0.2359
    1W        W56127   2.475   0.078   7.933  0.2221 -0.6143  0.1575
    1W        W56128  23.093  10.965   7.286 -0.0627 -0.0975  0.2347
    1W        W56129   8.026  17.018   1.064  0.5368  0.2939 -0.3061
    1W        W56130   8.098  14.297   7.875  0.3053  0.0564 -0.0993
    1W        W56131  28.829   9.950   1.211  0.1688  0.0107 -0.1390
    1W        W56132  26.701  19.797   7.861 -0.1255 -0.3420 -0.0921
    1W        W56133  25.968  29.511   1.042 -0.0702  0.1940 -0.0254
    1W        W56134   5.925  15.457   0.976 -0.2886 -0.3277  0.0782
    1W        W56135  18.461  28.472   9.302  0.0739 -0.1053  0.1170
    1W        W56136  24.882   0.111   7.382  0.0540 -0.0493  0.2757
    1W        W56137  14.283   6.740   1.236  0.2635  0.1429 -0.1359
    1W        W56138  24.809   2.113   9.346  0.1316 -0.0930 -0.2364
    1W        W56139  26.014   4.577   9.311  0.1111  0.0190  0.3769
    1W        W56140   8.283  26.201   8.733  0.0509 -0.1368  0.1388
    1W        W56141  26.833  28.378   1.921 -0.3147 -0.0177  0.2075
    1W        W56142  21.940  26.067   9.398  0.2198  0.1654 -0.1240
    1W        W56143  19.168  24.738   1.696  0.2470 -0.2341  0.0856
    1W        W56144  21.610   2.767   8.354 -0.0475  0.3384  0.0401
    1W        W56145   6.144  16.374   0.751 -0.1734  0.2350 -0.0169
    1W        W56146   1.441   1.348   1.967  0.0451  0.0259  0.0059
    1W        W56147   0.246   3.490   6.340 -0.0034  0.2656 -0.0367
    1W        W56148  13.535  18.498   2.067  0.2429  0.0812  0.1814
    1W        W56149   8.164   2.230   2.674  0.4778 -0.1229 -0.2532
    1W        W56150  13.143  15.792   2.009 -0.4389 -0.0360 -0.0407
    1W        W56151   9.220  27.325   7.010  0.1729 -0.0508  0.3112
    1W        W56152   5.366  26.370   2.163 -0.0737  0.1578 -0.3156
    1W        W56153   9.098   8.856   1.034 -0.1269  0.1324 -0.1754
    1W        W56154   0.548  11.747   0.760 -0.3366 -0.1031  0.2179
    1W        W56155  26.151  14.075   1.242 -0.3335 -0.0529 -0.1990
    1W        W56156  13.359   5.770   7.723  0.1545 -0.1167 -0.1453
    1W        W56157  28.258   0.999   9.187  0.0163  0.0584 -0.2166
    1W        W56158  24.052  28.120   1.109  0.1325 -0.1111  0.0297
    1W        W56159  23.012  19.043   1.947 -0.3192  0.3489  0.0594
    1W        W56160   6.765   8.698   1.850  0.1442 -0.2916  0.1571
    1W        W56161  12.899   2.780   7.908 -0.4867  0.1723 -0.0309
    1W        W56162   3.432  27.872   2.075  0.3542 -0.0214 -0.1162
    1W        W56163   0.374  17.317   1.637  0.1999  0.1234 -0.0692
    1W        W56164  17.705   0.940   0.060  0.1646 -0.0638  0.0021
    1W        W56165  23.115  16.596   0.638 -0.0023 -0.0362  0.0281
    1W        W56166   3.909   8.848   9.335 -0.2702 -0.1200 -0.0592
    1W        W56167  26.088  23.011   7.760  0.1505 -0.2088 -0.0064
    1W        W56168  21.851  28.887   2.575 -0.0441  0.2097  0.2583
    1W        W56169   9.625  18.156   2.448 -0.1490  0.1369  0.4681
    1W        W56170  16.024  24.490   1.971  0.2210 -0.0940 -0.0725
    1W        W56171  12.326  15.024   0.514  0.0699  0.0812 -0.2193
    1W        W56172  28.674  23.594   9.412 -0.1813 -0.4724 -0.1754
    1W        W56173   0.496   6.915   9.372  0.3420 -0.0019  0.2136
    1W        W56174  29.067   4.080   1.376  0.0496  0.0160  0.0575
    1W        W56175  15.096  12.297   7.726  0.1489 -0.1170  0.1726
    1W        W56176  14.455   5.125   8.659  0.3898 -0.0956 -0.1878
    1W        W56177  21.516  11.262   0.453  0.1423 -0.1755 -0.0658
    1W        W56178  13.404   8.398   6.979 -0.0499  0.1991 -0.0335
    1W        W56179  23.990   2.830   7.681 -0.0271 -0.1866  0.0879
    1W        W56180  26.560  26.929   8.836  0.0501 -0.0280  0.1984
    1W        W56181   2.380  19.266   2.248  0.2415 -0.0575 -0.0848
    1W        W56182   8.041  17.693   0.518 -0.0802  0.1267  0.0069
    1W        W56183  28.047  18.435   1.688  0.0318 -0.0715  0.1037
    1W        W56184  12.532  14.710   1.616 -0.1909  0.1612  0.1100
    1W        W56185   6.947   8.329   3.206 -0.2139 -0.0380 -0.0090
    1W        W56186   5.145  10.190   7.503 -0.1615 -0.2501  0.1332
    1W        W56187  19.493   7.689   1.571  0.0525  0.1190 -0.0175
    1W        W56188   5.459  28.488   2.042  0.2542  0.0499 -0.1868
    1W        W56189  19.872   4.603   2.211 -0.1569 -0.0094 -0.1471
    1W        W56190  19.662  20.037   1.386  0.0850  0.1017 -0.0639
    1W        W56191   6.286   5.880   3.566  0.2855 -0.0603  0.1317
    1W        W56192  26.607   7.610   2.278  0.0021  0.0973 -0.0939
    1W        W56193  28.216  29.005   7.725 -0.0837  0.4543  0.3487
    1W        W56194   5.401  29.109   0.772 -0.2221 -0.0864  0.1258
    1W        W56195  28.775  19.253   6.518  0.0493 -0.0827 -0.0639
    1W        W56196  12.332   1.256   7.571  0.4698 -0.1766 -0.4371
    1W        W56197  24.615   3.260   2.876 -0.1360  0.2047  0.1158
    1W        W56198  25.611   7.701   9.078 -0.0030  0.3271  0.2338
    1W        W56199  27.888  20.579   7.228  0.0365  0.0091  0.1846
    1W        W56200  22.161  13.939   7.490  0.1598 -0.0571 -0.1632
    1W        W56201   3.221  22.670   5.847 -0.0209 -0.1675 -0.0916
    1W        W56202   5.153  15.803   6.976  0.1294  0.1599  0.1756
    1W        W56203   7.292   9.319   8.378 -0.2162 -0.2498  0.0769
    1W        W56204  26.728  23.896   0.320 -0.0114  0.0051 -0.0293
    1W        W56205   4.965   4.817   7.216  0.1461 -0.2682  0.0722
    1W        W56206  26.122   7.872   7.073  0.0362  0.1154  0.0246
    1W        W56207  13.685  24.885   1.998  0.1117 -0.1435  0.3257
    1W        W56208   3.477  18.752   6.202  0.1634 -0.0001 -0.4391
    1W        W56209   5.930   3.753   0.987 -0.2417  0.0761  0.0741
    1W        W56210  11.003  12.786   8.215 -0.0158 -0.0236  0.4001
    1W        W56211   2.647  24.701   8.593  0.1500 -0.0086 -0.0221
    1W        W56212  23.402  10.229   6.233  0.4190 -0.0362 -0.3038
    1W        W56213  26.242  18.181   8.509  0.2143  0.0204  0.1998
    1W        W56214  16.615   0.954   9.020  0.6283 -0.2137 -0.1287
    1W        W56215   8.102   9.166   9.437 -0.1634  0.0236  0.4389
    1W        W56216  14.429  28.098   8.380  0.0111  0.0471 -0.3428
    1W        W56217  29.385  24.473   2.348 -0.2295  0.2767  0.1676
    1W        W56218   1.311   2.703   1.278  0.1300  0.3175 -0.0010
    1W        W56219  23.151   0.911   0.448 -0.0052 -0.2077  0.1519
    1W        W56220  25.754  16.561   8.001 -0.1465 -0.0521 -0.2193
    1W        W56221  18.986  16.684   1.455 -0.0293 -0.1321 -0.2747
    1W        W56222  16.520  15.855   7.179  0.2273  0.0169  0.2047
    1W        W56223   4.134  27.557   7.890  0.1352  0.2496 -0.0572
    1W        W56224   8.017  24.850   1.525 -0.0123 -0.0164  0.3642
    1W        W56225  13.113   3.412   9.334  0.1639  0.0884  0.0112
    1W        W56226  20.878  17.196   8.899 -0.0120 -0.1636  0.0696
    1W        W56227   0.255  26.925   2.907  0.0376  0.2414  0.1738
    1W        W56228  21.762   1.899   7.681 -0.1464  0.0424  0.1146
    1W        W56229   2.764   8.103   0.093  0.3438 -0.0204 -0.2039
    1W        W56230   3.060  29.006   2.949 -0.1137  0.2801 -0.0975
    1W        W56231  17.091  10.555   0.684  0.0012 -0.0621 -0.1246
    1W        W56232  19.516  22.226   0.178  0.2274 -0.2064  0.1669
    1W        W56233   1.490   9.686   2.209  0.2054 -0.2304 -0.0328
    1W        W56234  18.663  17.274   2.512 -0.1664 -0.0291 -0.0285
    1W        W56235  25.169  28.833   7.035 -0.1385 -0.2837  0.1317
    1W        W56236  17.080  27.407   8.607 -0.4362 -0.4223  0.2324
    1W        W56237   3.975  10.917   7.661 -0.2462 -0.0825  0.1188
    1W        W56238   4.005   0.030   1.252  0.0230 -0.0423 -0.2164
    1W        W56239   1.774  20.904   2.264  0.2326  0.1633 -0.1375
    1W        W56240   8.698   8.675   2.416 -0.2628  0.0993 -0.3917
    1W        W56241   2.965   8.954   2.213 -0.2189 -0.4388 -0.1392
    1W        W56242  29.243  18.855   0.280  0.1449  0.0597  0.0456
    1W        W56243   7.237   2.084   9.112  0.1806  0.0096 -0.1839
    1W        W56244  27.245  13.549   8.087 -0.0832 -0.0243  0.0414
    1W        W56245  29.800  11.827   7.179 -0.0689 -0.0044 -0.2365
    1W        W56246   2.699   9.369   6.855  0.0220  0.2630 -0.3076
    1W        W56247  28.683   3.126   0.197  0.1870  0.0304  0.0355
    1W        W56248  25.733   5.088   2.329 -0.0466  0.2205 -0.0326
    1W        W56249  16.758  23.302   2.434 -0.1385 -0.0235 -0.2446
    1W        W56250  22.723  10.812   8.129 -0.2081  0.3568  0.1485
    1W        W56251   4.292  22.327   0.308 -0.2378  0.2163 -0.0881
    1W        W56252  22.050  19.910   1.459 -0.0751  0.2213 -0.0771
    1W        W56253  29.615  29.500   0.762  0.1357 -0.3586  0.0591
    1W        W56254  23.701  16.879   7.975  0.1778  0.4188  0.1126
    1W        W56255   5.348  13.830   5.922 -0.1722  0.1675  0.0088
    1W        W56256  17.922  14.137   1.678  0.1678  0.0699 -0.0166
    1W        W56257  18.881  14.509   0.296 -0.2480  0.1373  0.1737
    1W        W56258   1.907  25.766   9.446 -0.1829 -0.2715  0.1408
    1W        W56259   1.855   8.333   0.651  0.3106 -0.1915  0.1542
    1W        W56260   5.408  27.706   7.534  0.0662 -0.1039 -0.0659
    1W        W56261  12.373   4.124   1.840 -0.0416 -0.2853  0.1572
    1W        W56262   1.981  26.916   6.408  0.1436 -0.1772  0.1381
    1W        W56263  25.845   7.887   5.891 -0.1664 -0.2577  0.1516
    1W        W56264  27.072  21.777   6.949 -0.4195 -0.0832 -0.2131
    1W        W56265  24.184  18.997   1.041 -0.2233  0.1296 -0.0884
    1W        W56266  21.270   1.749   0.464  0.4389  0.0962 -0.0992
    1W        W56267  15.245   2.934   7.675 -0.0621 -0.1563 -0.0585
    1W        W56268  15.557  11.561   0.413 -0.0085  0.0872 -0.1940
    1W        W56269  26.515   6.214   0.775  0.0466  0.0105  0.1915
    1W        W56270   2.926   1.535   9.094 -0.1682 -0.1122  0.2034
    1W        W56271   5.233  29.238   2.004 -0.1626  0.2598  0.2084
    1W        W56272  23.913  23.074   1.917  0.0403 -0.0922  0.0449
    1W        W56273  27.041   2.654   0.741  0.1568 -0.2938  0.0665
    1W        W56274  28.449   0.099   9.118  0.0241  0.3097 -0.1476
    1W        W56275  21.189  10.138   8.645 -0.1138 -0.3579 -0.4192
    1W        W56276  21.123  16.236   7.965  0.0348 -0.0670  0.1351
    1W        W56277  10.120  13.304   2.447 -0.2813  0.2302  0.0136
    1W        W56278  27.676  20.196   1.353  0.1274 -0.2314 -0.0035
    1W        W56279   2.533   3.229   1.039 -0.3085 -0.0104  0.1614
    1W        W56280  22.868   1.582   1.160 -0.0622  0.3834  0.3992
    1W        W56281   3.831  13.215   7.758  0.0971  0.0999 -0.2562
    1W        W56282   6.161   5.248   8.472 -0.1397  0.1369 -0.0630
    1W        W56283   3.122   5.148   7.545 -0.1207 -0.4051  0.0099
    1W        W56284   7.838   1.291   2.032  0.1862 -0.2657 -0.0364
    1W        W56285  19.567  12.678   7.151  0.1316  0.1116 -0.0359
    1W        W56286   7.136  16.618   0.304 -0.1958 -0.2209  0.0051
    1W        W56287   7.378   4.761   0.708  0.0955  0.3229  0.2121
    1W        W56288   9.873  28.764   8.841 -0.2528 -0.2296  0.0788
    1W        W56289   4.530   6.760   0.130  0.1968  0.0259 -0.0760
    1W        W56290  28.508  16.292   1.446  0.0629 -0.1954  0.0017
    1W        W56291  27.106   3.119   0.666  0.1392 -0.2918 -0.1359
    1W        W56292  17.462   0.078   2.275  0.3087 -0.0161  0.0033
    1W        W56293   5.006   0.450   7.018  0.3341  0.0406  0.0714
    1W        W56294  29.318  18.058   0.797  0.0110  0.0179 -0.2713
    1W        W56295  20.956  29.721   0.061  0.0522  0.3134 -0.0661
    1W        W56296  27.193  28.547   2.719  0.0960  0.1765  0.0685
    1W        W56297   6.082  29.138   2.219 -0.1056 -0.1774 -0.1361
    1W        W56298   8.843  14.384   1.392 -0.1089  0.2026  0.1389
    1W        W56299  14.703   5.128   7.551  0.0654  0.0718 -0.0039
    1W        W56300  29.008  21.150   8.588 -0.1166 -0.1294  0.1017
    1W        W56301  23.863  17.013   2.646 -0.0583  0.0695  0.1180
    1W        W56302  29.108  15.016   1.266 -0.0445 -0.0619  0.4790
    1W        W56303  23.717   4.704   2.030 -0.0670  0.2091 -0.2745
    1W        W56304   6.027  11.104   2.566 -0.3979  0.0005 -0.1673
    1W        W56305  14.014  21.523   0.348  0.1597 -0.0269  0.1934
    1W        W56306   4.508   5.266   8.004  0.0962  0.2076 -0.1927
    1W        W56307  21.338  29.720   0.666 -0.2642 -0.1153 -0.0294
    1W        W56308  15.914  28.341   0.684 -0.1433  0.3891 -0.2171
    1W        W56309   3.256   0.949   0.759  0.0094 -0.1318  0.0677
    1W        W56310  18.603  14.878   1.726  0.1399  0.0360  0.1019
    1W        W56311  20.290   7.374   1.984  0.1434 -0.1428 -0.1305
    1W        W56312  18.784   4.197   7.620  0.0482 -0.1002 -0.0115
    1W        W56313   3.591  27.250   2.572 -0.1963  0.1906 -0.2075
    1W        W56314  27.535  12.067   7.629 -0.3137 -0.1052 -0.3476
    1W        W56315   6.826  27.134   0.645 -0.4345 -0.0418  0.3418
    1W        W56316  11.100   9.447   7.070  0.3937  0.2067  0.0866
    1W        W56317  15.099   0.150   1.281 -0.0302  0.0190 -0.0255
    1W        W56318   4.311   1.933   8.622 -0.2121 -0.2519  0.2297
    1W        W56319  26.352   9.658   9.208 -0.1032 -0.2394  0.1366
    1W        W56320  28.108   6.660   6.809 -0.0149 -0.0486  0.1026
    1W        W56321   3.632  19.200   7.976 -0.0663 -0.1390  0.1130
    1W        W56322  15.242  29.465   6.724 -0.0981 -0.0896  0.1897
    1W        W56323   4.660  29.036   0.742 -0.2019  0.0503 -0.4103
    1W        W56324   3.690   6.650   8.631  0.0600  0.0835 -0.0103
    1W        W56325  19.170   3.191   0.472 -0.0200  0.0472 -0.0804
    1W        W56326   8.197  17.031   5.998  0.2583  0.3328  0.3679
    1W        W56327   6.506   2.464   0.438  0.3186 -0.2871 -0.2608
    1W        W56328  26.389  14.965   6.044 -0.0199  0.0446  0.0031
    1W        W56329   2.339  25.481   0.879  0.3180 -0.2870  0.2366
    1W        W56330   9.958   2.059   0.353  0.1145 -0.1376 -0.2586
    1W        W56331   2.304  16.456   7.799 -0.0831  0.3012  0.0061
    1W        W56332  20.933  11.258   7.341 -0.5020 -0.1166 -0.0035
    1W        W56333   4.034  12.195   0.691  0.1136 -0.1042  0.2659
    1W        W56334  17.508  19.903   0.221 -0.1528  0.1034 -0.3407
    1W        W56335  29.731  23.180   0.064 -0.5057 -0.1494 -0.0721
    1W        W56336  25.510   7.400   0.909 -0.1955 -0.0386  0.2130
    1W        W56337  24.150  23.427   8.069  0.3685 -0.2156  0.4450
    1W        W56338  18.158   0.199   8.455  0.2477 -0.0381  0.2534
    1W        W56339  26.922  21.256   8.407  0.0435 -0.2721  0.1563
    1W        W56340  19.453   7.151   8.529  0.1314 -0.1232 -0.0059
    1W        W56341  28.118  22.527   8.406 -0.0261 -0.1260 -0.0253
    1W        W56342  14.861  26.199   2.330  0.0323 -0.0602 -0.3930
    1W        W56343  19.300   7.148   1.767  0.2184 -0.1279  0.1323
    1W        W56344  17.435  24.616   7.539 -0.0717 -0.3715 -0.1507
    1W        W56345   7.449  21.956   6.627  0.2218  0.1168  0.0047
    1W        W56346  12.241  14.285   8.271 -0.0962  0.2736  0.2170
    1W        W56347  15.644  23.446   0.836  0.2183 -0.2077  0.1812
    1W        W56348  22.990   9.324   9.363 -0.1199 -0.1205  0.0550
    1W        W56349  15.096  23.422   1.547  0.1624 -0.1217  0.0916
    1W        W56350   9.594   8.279   0.562 -0.0663  0.1132  0.0483
    1W        W56351  23.460   7.272   7.732  0.2773  0.0219 -0.0417
    1W        W56352   1.283  15.218   0.832  0.1607  0.0414 -0.3174
    1W        W56353   5.524   4.070   6.886 -0.5593 -0.3213  0.0159
    1W        W56354   8.144   1.782   0.080 -0.0687  0.0360  0.3213
    1W        W56355   8.264  28.031   9.130 -0.0420  0.3446 -0.2273
    1W        W56356  23.876  21.447   0.154  0.0781 -0.0187 -0.0717
    1W        W56357  20.770  28.588   9.265 -0.1153 -0.1045 -0.0906
    1W        W56358  20.144   8.956   6.724  0.0890  0.1057  0.0638
    1W        W56359  20.488   8.456   8.352  0.0849  0.2228 -0.1601
    1W        W56360   9.156  20.891   1.700 -0.0061 -0.1304  0.1919
    1W        W56361  24.848   4.489   8.988 -0.0757  0.1689  0.0343
    1W        W56362  28.342  14.006   1.294  0.1932 -0.0082 -0.0396
    1W        W56363  17.852  23.493   7.818 -0.1781  0.0464  0.3361
    1W        W56364  20.869   0.028   2.069 -0.1752 -0.3172 -0.0033
    1W        W56365  25.426   8.296   0.639  0.2284  0.2157  0.0217
    1W        W56366  21.690  12.978   0.899 -0.3432  0.3153 -0.3228
    1W        W56367   5.477  18.829   0.598 -0.1236  0.0431  0.1598
    1W        W56368  24.044  18.184   8.735 -0.1894 -0.1464 -0.0155
    1W        W56369   1.604   4.235   1.336 -0.0771 -0.0929  0.2377
    1W        W56370   4.641  23.517   8.948 -0.0860  0.0425 -0.1736
    1W        W56371  12.888  25.027   1.232 -0.0658 -0.0642  0.1488
    1W        W56372  23.770  28.476   6.378  0.2903  0.4115  0.1182
    1W        W56373  26.792  18.565   1.362 -0.0804 -0.0489  0.1720
    1W        W56374  15.164   9.174   0.773  0.1905  0.1037 -0.4474
    1W        W56375   8.729   3.130   7.768  0.1608 -0.1193  0.0118
    1W        W56376  28.960  25.159   7.531 -0.1038 -0.3253 -0.0959
    1W        W56377   0.692   3.897   1.180  0.1951 -0.0542 -0.1357
    1W        W56378   0.156  22.105   0.750  0.2693  0.3622 -0.2047
    1W        W56379   0.805  18.395   0.719 -0.0430  0.1215  0.1107
    1W        W56380  10.987   2.268   1.397 -0.2573  0.1690  0.0853
    1W        W56381   6.958   6.573   3.901  0.2879  0.0624 -0.2727
    1W        W56382   6.150  19.915   1.200  0.1655  0.0141  0.0977
    1W        W56383   9.173  13.507   8.737  0.1110  0.0683  0.1209
    1W        W56384  23.728  18.682   6.922  0.2587  0.0415 -0.2832
    1W        W56385  13.693  22.833   6.800  0.1577  0.0188 -0.2872
    1W        W56386   2.545  10.979   7.545  0.0147 -0.1275 -0.0591
    1W        W56387  16.810   1.910   1.042  0.1330 -0.2250 -0.3594
    1W        W56388  22.343  12.911   6.608 -0.1943  0.1842 -0.2369
    1W        W56389  15.141   8.860   1.707  0.2330 -0.0040 -0.0369
    1W        W56390  18.015   3.496   1.408  0.1570 -0.0544  0.2101
    1W        W56391   3.577  28.782   0.039  0.1503  0.1449  0.1343
    1W        W56392  18.841   3.759   2.433 -0.0343  0.1570 -0.1150
    1W        W56393   4.869   9.509   8.690  0.0994 -0.1873 -0.0084
    1W        W56394  27.285  23.690   2.639  0.3561 -0.1372  0.0542
    1W        W56395  18.857  10.677   0.070 -0.0811 -0.2232 -0.2087
    1W        W56396   4.195  28.674   0.025  0.1536 -0.1718 -0.3536
    1W        W56397  27.567  20.534   2.251 -0.0442  0.1113  0.3425
    1W        W56398   5.627   3.569   1.445 -0.0848 -0.4018  0.0969
    1W        W56399  27.810  24.564   8.913 -0.0897 -0.0859 -0.1492
    1W        W56400  19.252  27.101   1.379 -0.3130  0.1728  0.1016
    1W        W56401  23.086  12.614   1.635 -0.1549 -0.3463  0.0585
    1W        W56402   6.804   2.364   6.859  0.0688  0.1136  0.0151
    1W        W56403  19.356   1.776   6.633 -0.0489  0.0533  0.0289
    1W        W56404  25.947  26.269   7.841 -0.0636  0.1351 -0.0440
    1W        W56405  22.973  14.555   6.055  0.2138  0.1226  0.1730
    1W        W56406  12.279  20.570   1.388 -0.0152 -0.1351  0.0738
    1W        W56407  21.755  18.361   8.708 -0.0191  0.2932  0.2226
    1W        W56408  27.353  28.474   8.941 -0.0140  0.1021  0.0422
    1W        W56409  24.028  27.217   8.668 -0.0021 -0.1073  0.1700
    1W        W56410   4.295  28.839   6.265 -0.0145 -0.4200  0.0867
    1W        W56411  16.051  13.989   7.877  0.1409 -0.3060 -0.1654
    1W        W56412  22.276  23.341   1.344  0.0013 -0.2895 -0.0645
    1W        W56413   9.044  14.203   2.013  0.1136 -0.0208  0.0314
    1W        W56414   1.199  13.258   0.647  0.0931  0.2570 -0.3256
    1W        W56415  25.739  11.226   6.876 -0.0084 -0.0663  0.0533
    1W        W56416  29.046   1.415   2.253  0.1377 -0.2761 -0.0056
    1W        W56417  23.709  26.377   3.386  0.1962 -0.0889 -0.1207
    1W        W56418  25.658  15.569   2.336  0.2517  0.1912 -0.0442
    1W        W56419  23.174  21.322   0.836 -0.3473  0.2483 -0.1139
    1W        W56420   1.607   0.212   2.935  0.1876  0.2805  0.2508
    1W        W56421  16.283  25.011   6.831 -0.2469 -0.1232 -0.1721
    1W        W56422  24.748  27.719   7.115  0.0164  0.1040  0.1272
    1W        W56423   6.757  16.043   1.013  0.2630  0.1862 -0.2748
    1W        W56424  29.165  21.641   6.812  0.1930  0.1519 -0.2611
    1W        W56425   7.326   0.463   6.914  0.0273 -0.0535  0.1797
    1W        W56426  11.543  27.670   6.680  0.0457 -0.1127  0.1283
    1W        W56427   5.125  14.520   7.040  0.1130 -0.1213 -0.1408
    1W        W56428  14.696   4.176   1.436  0.0400 -0.0419 -0.1710
    1W        W56429  23.673  17.839   0.435  0.1494 -0.2582 -0.0829
    1W        W56430  10.738   1.233   1.977 -0.2591 -0.2973 -0.1734
    1W        W56431   1.350  24.142   7.966  0.1421  0.1692  0.1452
    1W        W56432  16.200  11.518   7.602  0.0173 -0.0660 -0.0228
    1W        W56433   4.799  10.419   3.193 -0.1611 -0.1236 -0.3787
    1W        W56434  25.823  20.101   3.781 -0.2576 -0.5598  0.0794
    1W        W56435   8.367  28.716   9.072 -0.1873 -0.0297 -0.0466
    1W        W56436   0.635   3.371   2.534 -0.0483 -0.0295 -0.1141
    1W        W56437  23.156  12.637   1.030  0.2688  0.3299  0.0659
    1W        W56438   0.009  15.185   0.513 -0.2057  0.2300 -0.1227
    1W        W56439   5.258   7.137   6.926 -0.0733  0.1244 -0.0282
    1W        W56440   7.861  23.868   7.717  0.2392 -0.0780  0.0504
    1W        W56441  24.840  15.412   1.733  0.2565  0.0282  0.2187
    1W        W56442  29.733  19.574   7.520 -0.4322 -0.1982  0.1681
    1W        W56443   1.780  16.764   1.609  0.0343 -0.3973  0.0263
    1W        W56444  22.000  22.750   7.917  0.1232 -0.2701  0.2360
    1W        W56445   1.520  21.630   1.344  0.3127 -0.0861 -0.0874
    1W        W56446   8.386  14.585   1.453  0.3303 -0.0888 -0.0178
    1W        W56447  13.567  26.444   2.461 -0.1152  0.0345 -0.1575
    1W        W56448   9.884  22.587   2.021 -0.1213  0.0771 -0.2648
    1W        W56449  21.492  27.278   1.998 -0.1394 -0.0130  0.0690
    1W        W56450  25.325  16.478   7.348  0.3563 -0.3974  0.0444
    1W        W56451   5.788  22.700   5.519 -0.3394  0.0880 -0.0244
    1W        W56452   3.836   2.590   2.137 -0.0699 -0.1009 -0.0874
    1W        W56453  10.410  25.592   7.306 -0.1154  0.2244 -0.3399
    1W        W56454   3.428   9.075   9.443 -0.1222  0.1297 -0.1396
    1W        W56455  22.153  18.029   1.291  0.0534  0.0084  0.0652
    1W        W56456  27.431  15.681   9.369 -0.2264  0.0480 -0.1611
    1W        W56457  21.708  23.657   7.140  0.1976 -0.1545 -0.0530
    1W        W56458   5.156   6.507   7.963 -0.1434  0.2255 -0.0100
    1W        W56459  28.289  11.210   8.688  0.0102 -0.2861  0.0597
    1W        W56460   9.264  14.469   9.203 -0.2804 -0.0259  0.0360
    1W        W56461   9.555  27.216   8.213 -0.1577 -0.1740  0.1513
    1W        W56462   5.016  23.118   0.760 -0.2975  0.1361 -0.5731
    1W        W56463  22.486   8.890   7.582  0.3912 -0.0922  0.2690
    1W        W56464  22.309   9.233   8.600  0.0958  0.1431 -0.0475
    1W        W56465   2.680   1.655   6.459 -0.0163 -0.2999 -0.0530
    1W        W56466   1.809  23.520   0.635 -0.0621  0.4902 -0.2016
    1W        W56467  10.739  28.008   8.923 -0.2172 -0.2048  0.0383
    1W        W56468   7.888  21.250   0.380  0.1261  0.2302  0.3976
    1W        W56469  18.334   5.248   0.015  0.1226  0.1702  0.0307
    1W        W56470  19.530   3.979   8.905 -0.0836 -0.0704  0.0592
    1W        W56471  24.016   0.329   7.555 -0.2603 -0.1366 -0.1127
    1W        W56472   0.867   4.841   2.761 -0.0762 -0.0596  0.2022
    1W        W56473   8.892  19.660   7.924  0.2934 -0.1378  0.2460
    1W        W56474  21.175   2.395   8.165  0.1301 -0.1133  0.5872
    1W        W56475   0.348  18.423   2.354 -0.0815  0.0395  0.3724
    1W        W56476  12.427   1.016   2.860 -0.2300 -0.0474  0.1399
    1W        W56477  17.301   5.634   7.495  0.1452  0.1689  0.2710
    1W        W56478  20.678   2.463   0.402  0.2930 -0.1685  0.1238
    1W        W56479  27.210   2.230   8.350 -0.1601  0.0175  0.0341
    1W        W56480  14.627   1.607   2.347 -0.0927  0.0792 -0.1579
    1W        W56481  12.176  21.306   1.294  0.1403 -0.3766 -0.0235
    1W        W56482  22.791  18.142   2.607  0.1758 -0.0021 -0.1900
    1W        W56483  13.302   7.730   7.839  0.2220 -0.0006 -0.3299
    1W        W56484  16.172  10.613   8.960 -0.1713 -0.1793 -0.1119
    1W        W56485  15.078  18.382   2.392  0.2391  0.2641  0.0714
    1W        W56486   9.603   0.134   1.904 -0.0236 -0.1943 -0.0821
    1W        W56487  12.293   3.725   2.989 -0.3150  0.0874  0.1773
    1W        W56488   5.817  10.823   7.454  0.1108  0.4569  0.0511
    1W        W56489  27.042  12.545   8.288  0.2183 -0.1420  0.1795
    1W        W56490  25.184  20.949   1.220  0.2254 -0.0391  0.1644
    1W        W56491  25.680  20.164   9.433  0.3047 -0.1988  0.1719
    1W        W56492  29.342   8.924   1.976  0.0154  0.1487 -0.0726
    1W        W56493  13.584   9.999   7.492 -0.1157 -0.3691 -0.2518
    1W        W56494   6.830   1.333   0.015 -0.1205 -0.1539  0.0085
    1W        W56495  14.653  12.552   8.076 -0.1734  0.0624  0.1680
    1W        W56496  18.325  13.684   6.770 -0.1968 -0.2078 -0.0365
    1W        W56497  15.664   5.198   0.570  0.1600 -0.0850  0.2630
    1W        W56498   6.851  26.025   7.374  0.0153 -0.0950 -0.0204
    1W        W56499   9.856  20.074   0.807  0.1445  0.1901  0.1110
    1W        W56500  12.657   5.082   7.695 -0.1185  0.0968 -0.2547
    1W        W56501  10.081   9.143   8.963 -0.3499  0.0203 -0.0391
    1W        W56502  23.146   7.919   9.349 -0.0288  0.0868  0.4887
    1W        W56503  27.776   0.470   8.415 -0.0644 -0.1908  0.1252
    1W        W56504  29.423   1.143   6.514  0.1562 -0.0538 -0.0974
    1W        W56505  13.989   3.408   9.173 -0.1396  0.1208 -0.2879
    1W        W56506  20.684  14.158   2.053 -0.0648 -0.0260  0.3799
    1W        W56507  15.668  17.250   7.645 -0.2090  0.1223 -0.2086
    1W        W56508  24.105  18.507   0.974 -0.1109  0.1108 -0.1214
    1W        W56509  23.720  20.592   9.382 -0.1665  0.0148 -0.5156
    1W        W56510  14.725   5.971   3.213 -0.2470 -0.0638 -0.1025
    1W        W56511   9.758  17.566   9.031 -0.1641  0.0900 -0.1770
    1W        W56512  17.617  27.011   8.971  0.0138 -0.2408 -0.1955
    1W        W56513  28.900  24.070   8.697  0.1037 -0.0266  0.0212
    1W        W56514   5.912  11.835   2.204  0.0137  0.1612  0.0407
    1W        W56515  18.807  28.738   8.926 -0.0401  0.3844  0.0953
    1W        W56516  25.036   1.489   8.769 -0.0971 -0.3420 -0.1741
    1W        W56517  13.027  26.771   1.903 -0.1537  0.3092 -0.2998
    1W        W56518  10.143  22.671   6.757  0.0173  0.3194  0.0550
    1W        W56519   5.696  28.699   0.595 -0.1142 -0.2711 -0.0079
    1W        W56520  25.043  10.368   1.519  0.0126  0.3043  0.0057
    1W        W56521  22.224  15.220   9.048  0.2125  0.0289  0.2582
    1W        W56522   4.800  23.422   0.512 -0.1305 -0.1614  0.0362
    1W        W56523  18.617  18.203   0.691 -0.2454  0.1991 -0.0110
    1W        W56524  22.818   1.089   8.804 -0.0697 -0.0146  0.0366
    1W        W56525   3.745  29.340   8.261 -0.1807 -0.2673  0.2651
    1W        W56526  14.372  21.819   8.893  0.2056 -0.0270 -0.1684
    1W        W56527  21.781  21.193   9.424  0.2059 -0.2431 -0.0198
    1W        W56528   7.028   7.906   1.974  0.1201  0.0253  0.3894
    1W        W56529   8.539  26.943   0.058 -0.0422  0.0740  0.2131
    1W        W56530  16.889  14.518   0.976  0.0467 -0.1549  0.1336
    1W        W56531  13.296  13.530   8.647 -0.0396 -0.1091  0.0480
    1W        W56532  19.157  26.626   2.177  0.0193 -0.2590 -0.1743
    1W        W56533   1.513  21.775   6.624 -0.1499  0.1084  0.1161
    1W        W56534  24.296  21.025   1.260  0.0334 -0.0040  0.1809
    1W        W56535   3.571   9.156   1.437  0.2382  0.2423 -0.0088
    1W        W56536  15.442   6.641   0.471  0.0575 -0.1205  0.0808
    1W        W56537   5.268  28.531   8.364  0.1294 -0.1702 -0.4715
    1W        W56538  27.791  28.781   6.929  0.0213  0.0482  0.2219
    1W        W56539  28.838   6.670   7.563 -0.1465 -0.1936  0.1763
    1W        W56540  12.527  11.529   8.464 -0.1139 -0.0700 -0.0927
    1W        W56541  25.325  10.455   9.049  0.0751 -0.2656 -0.1292
    1W        W56542   0.230  20.528   9.296  0.1656 -0.3785 -0.0339
    1W        W56543  23.995  23.916   0.020  0.0697 -0.3593 -0.3556
    1W        W56544  24.807  10.296   6.805 -0.1467  0.4877 -0.0239
    1W        W56545  11.618  11.692   2.812 -0.1894 -0.0093  0.0876
    1W        W56546  16.542  21.603   2.604  0.4923  0.2382 -0.0229
    1W        W56547  12.531   7.725   9.200 -0.0116 -0.1034 -0.1523
    1W        W56548   0.723  19.674   7.066  0.2619 -0.0347  0.0802
    1W        W56549  16.791  12.999   7.905 -0.1767  0.1945  0.2786
    1W        W56550  18.544  13.648   8.233 -0.0992 -0.2270 -0.0797
    1W        W56551   6.464  18.374   1.338  0.1281  0.1990  0.1161
    1W        W56552  28.093  12.596   1.742  0.0448  0.0875  0.0093
    1W        W56553   4.491   0.426   2.773  0.0825 -0.0111  0.2901
    1W        W56554  21.621  11.373   8.558  0.0800  0.0109 -0.0085
    1W        W56555  14.415   1.031   7.989 -0.1798  0.3658  0.0177
    1W        W56556  15.576  16.908   7.303  0.0641  0.0898 -0.1355
    1W        W56557  20.756   4.417   8.424 -0.0737  0.0476  0.0122
    1W        W56558  12.984  29.889   0.261  0.4352 -0.0797  0.1312
    1W        W56559  14.502   7.950   1.744 -0.1983 -0.1791  0.1756
    1W        W56560   9.484  26.232   0.244  0.3544  0.1267 -0.0429
    1W        W56561  17.835   4.966   8.806  0.1093  0.2921  0.0656
    1W        W56562   6.369  11.189   0.641  0.4247  0.1037 -0.2211
    1W        W56563  24.265   8.509   2.224 -0.0466 -0.0434  0.4125
    1W        W56564   7.743  26.328   1.047 -0.1181 -0.1696  0.0471
    1W        W56565   3.474  13.434   2.086  0.1415  0.0118  0.1153
    1W        W56566  22.802  17.347   8.723  0.1002 -0.0860  0.2279
    1W        W56567  13.585  12.313   1.166  0.2925 -0.1516  0.0278
    1W        W56568  17.810  22.602   8.908  0.0586 -0.1784  0.0156
    1W        W56569   0.168   3.992   8.436  0.0567 -0.2135 -0.1284
    1W        W56570   7.429  25.899   1.775  0.2635 -0.1259 -0.0104
    1W        W56571  24.393  24.355   0.638  0.0400  0.2109 -0.1056
    1W        W56572   2.726  29.518   6.106 -0.1164  0.2433  0.2026
    1W        W56573  19.465  24.561   3.035 -0.1045  0.0020 -0.0725
    1W        W56574   7.102   0.397   8.264 -0.2016  0.2554 -0.0070
    1W        W56575  11.638   7.429   7.621  0.2196  0.4160  0.0318
    1W        W56576   6.705  12.798   2.807 -0.0389 -0.0657 -0.1687
    1W        W56577  23.115  29.503   9.005 -0.1594 -0.1251 -0.1438
    1W        W56578  29.228  12.106   7.131 -0.1615  0.2263  0.0143
    1W        W56579  27.493  14.137   1.024  0.0562  0.1621 -0.1930
    1W        W56580   1.184  14.361   8.601 -0.0857 -0.2044 -0.2292
    1W        W56581  11.472   4.266   0.292 -0.0125  0.1875  0.1146
    1W        W56582  29.780  19.141   2.446  0.0515 -0.1874 -0.2398
    1W        W56583  11.433  12.919   1.969 -0.0809 -0.2249  0.0161
    1W        W56584  18.423  11.647   6.756  0.2905  0.2009  0.1092
    1W        W56585  11.490   1.659   0.116 -0.1634  0.0235 -0.2318
    1W        W56586  10.146   6.475   2.570  0.0995  0.0970 -0.4347
    1W        W56587  28.912  19.049   8.571 -0.0072 -0.2442  0.0587
    1W        W56588  19.970  18.242   7.026  0.1217 -0.0870 -0.0782
    1W        W56589  16.587   3.722   0.255  0.0782 -0.0634  0.2228
    1W        W56590  11.487  24.470   0.296 -0.0335 -0.0400 -0.0923
    1W        W56591  23.624  23.151   7.480 -0.0323 -0.1761  0.1682
    1W        W56592  22.328  23.604   7.996 -0.1941  0.1805  0.2334
    1W        W56593   1.458  16.284   1.659  0.1407  0.0231  0.0890
    1W        W56594  15.358  28.553   9.250  0.0835  0.0778 -0.1032
    1W        W56595  26.001  26.546   0.887 -0.1377 -0.0546 -0.0370
    1W        W56596  16.939  18.918   1.290 -0.2744 -0.0276  0.1163
    1W        W56597   1.044  20.473   7.866 -0.5225  0.0435 -0.1496
    1W        W56598   4.197  23.170   9.126  0.2736  0.1219 -0.0165
    1W        W56599  29.044  21.455   1.667  0.0504 -0.0373 -0.0878
    1W        W56600  14.522   4.563   1.779 -0.4648  0.3125 -0.1744
    1W        W56601   7.552  15.743   0.003 -0.0833 -0.1177  0.0371
    1W        W56602   6.138   3.772   7.472 -0.1381 -0.2075 -0.2358
    1W        W56603   2.845   2.437   6.396 -0.0182  0.0665 -0.0796
    1W        W56604  19.997   0.580   7.309  0.3197 -0.2142 -0.0106
    1W        W56605  23.782   7.875   0.650  0.0813 -0.2345  0.0531
    1W        W56606  11.219  12.471   9.155  0.3826 -0.1404  0.0948
    1W        W56607  26.446  28.135   1.948 -0.0038 -0.3237  0.1287
    1W        W56608   4.771   4.009   9.105  0.2597 -0.0518  0.0246
    1W        W56609  21.746  24.958   1.437  0.0497 -0.2243  0.0961
    1W        W56610  13.207  13.479   7.284 -0.3167 -0.0218 -0.2567
    1W        W56611   9.745  27.281   9.036 -0.2295  0.2285 -0.0342
    1W        W56612  17.601  28.287   7.976 -0.1824  0.0996  0.0031
    1W        W56613   5.800   5.095   2.221  0.2766  0.0476 -0.2326
    1W        W56614  14.288  21.945   0.385  0.1703 -0.0640  0.1597
    1W        W56615  14.382  20.677   0.573 -0.1135 -0.0181  0.1440
    1W        W56616  19.007   0.282   7.226 -0.2139 -0.2606  0.2365
    1W        W56617  15.266  21.020   0.904 -0.1051  0.0555 -0.0398
    1W        W56618  24.765  23.691   9.019  0.3314 -0.0901  0.0029
    1W        W56619  28.811   8.657   0.748  0.1540  0.1908 -0.0528
    1W        W56620   7.627  23.326   8.621 -0.1314 -0.0710 -0.0317
    1W        W56621  15.002  13.345   1.220  0.0649 -0.0249 -0.1276
    1W        W56622  12.584  16.778   6.492 -0.3416 -0.1614 -0.0129
    1W        W56623  12.394  20.455   2.864  0.1146 -0.1560  0.0590
    1W        W56624  12.846   7.971   2.478  0.0308 -0.1086  0.0443
    1W        W56625  18.952   9.224   8.617 -0.1093 -0.0546  0.0849
    1W        W56626  19.377   0.370   0.997  0.3341 -0.0345  0.4823
    1W        W56627  24.694  29.688   7.822 -0.0313  0.1454  0.0717
    1W        W56628   2.400  11.172   1.003 -0.2755 -0.1754  0.0905
    1W        W56629  26.819   9.986   7.645 -0.0398 -0.2653 -0.2486
    1W        W56630   6.740  28.015   2.938  0.3412  0.1888 -0.1128
    1W        W56631  11.673  16.128   7.373  0.1779 -0.0888 -0.1315
    1W        W56632  25.269   8.979   1.261 -0.3764  0.0265 -0.0311
    1W        W56633  15.882  24.973   0.364  0.0996  0.3810 -0.0829
    1W        W56634  29.060   6.491   1.673 -0.0942  0.2381  0.0133
    1W        W56635  18.651   1.076   8.438 -0.2014 -0.1300  0.0865
    1W        W56636   2.256  13.562   1.268  0.1573 -0.0112  0.1635
    1W        W56637  20.245  13.091   1.443  0.4322 -0.2253  0.1066
    1W        W56638   6.636   3.115   0.071  0.0860  0.1097  0.2329
    1W        W56639  19.362  20.558   9.079 -0.1138  0.0786  0.1018
    1W        W56640  28.561  28.988   6.405 -0.4279 -0.0590  0.1287
    1W        W56641  22.217   5.321   0.624 -0.1032  0.0132  0.0751
    1W        W56642  26.020   6.579   7.993  0.2295 -0.1939  0.1060
    1W        W56643  12.475  14.636   2.434 -0.2580  0.1901 -0.0327
    1W        W56644   6.472   0.640   1.643 -0.0450 -0.0455 -0.1642
    1W        W56645  17.319  11.878   6.717  0.2082  0.1719 -0.1759
    1W        W56646   3.631  18.589   1.553  0.1190  0.2990 -0.1678
    1W        W56647  14.660   7.125   2.762  0.0502 -0.0375  0.0249
    1W        W56648  26.844  27.142   1.660 -0.0071  0.2155  0.1490
    1W        W56649  13.603   3.059   1.672 -0.5912 -0.0209 -0.2680
    1W        W56650  18.286  24.182   0.142  0.0586  0.0813 -0.1478
    1W        W56651  29.344   0.646   0.186  0.0060  0.0308  0.1754
    1W        W56652  22.791   9.708   7.340  0.0068 -0.2146 -0.0670
    1W        W56653  24.054  15.348   0.250 -0.3466  0.1850 -0.0118
    1W        W56654   1.723  29.519   7.188 -0.0248 -0.0573 -0.2539
    1W        W56655  18.366  27.467   1.141 -0.0280  0.3465 -0.1373
    1W        W56656  13.083  18.230   0.768 -0.1162  0.0001  0.3782
    1W        W56657   1.847   4.277   0.060  0.4663 -0.0526  0.0376
    1W        W56658  18.661   0.760   2.232  0.1695 -0.0021 -0.0495
    1W        W56659  12.093   8.596   0.464  0.1142 -0.1123 -0.3221
    1W        W56660  20.054   2.170   9.027  0.2987 -0.4797  0.1012
    1W        W56661  20.299   7.620   6.532 -0.1170 -0.2491  0.1847
    1W        W56662  16.084   6.505   8.952 -0.0495  0.2499 -0.4077
    1W        W56663  11.309  22.147   2.186 -0.0894  0.2664 -0.0525
    1W        W56664   6.187  19.506   0.673  0.0157  0.0177 -0.0192
    1W        W56665   2.339  27.595   1.285  0.0828  0.2925  0.0245
    1W        W56666   7.854   0.247   6.795  0.2318 -0.0143  0.1096
    1W        W56667  16.521  25.071   1.196 -0.1243  0.1740  0.2155
    1W        W56668  25.198   6.875   0.379  0.0972  0.2465 -0.2298
    1W        W56669   5.413  18.180   9.450 -0.0388  0.0179 -0.1391
    1W        W56670   4.890  11.720   2.892  0.0822  0.3265 -0.1749
    1W        W56671  12.280   2.838   2.336  0.3328 -0.1811 -0.0213
    1W        W56672  19.353   3.119   1.997 -0.1685  0.2603 -0.2883
    1W        W56673   8.323   4.974   2.880  0.0029  0.0693 -0.0504
    1W        W56674  16.725  11.029   8.746 -0.0703 -0.2244  0.2044
    1W        W56675   3.296   1.266   7.710 -0.1642  0.0218  0.1807
    1W        W56676   0.719  13.152   7.432 -0.0022 -0.0675 -0.0417
    1W        W56677   3.120  22.989   9.401 -0.0847 -0.0165 -0.0902
    1W        W56678  25.997   9.796   1.408 -0.1409 -0.0526 -0.0507
    1W        W56679  27.480   8.461   9.089  0.3369  0.1101  0.2090
    1W        W56680  10.423  15.024   0.786 -0.1606 -0.0192  0.0597
    1W        W56681   9.797  21.615   1.359 -0.0236  0.0686  0.1222
    1W        W56682   7.226  22.740   9.039 -0.0422  0.1385 -0.1330
    1W        W56683  24.005  29.065   1.819 -0.1682  0.3939 -0.2101
    1W        W56684   0.634  23.955   8.484  0.3924  0.0203  0.1433
    1W        W56685  21.634  16.874   0.874 -0.1425  0.2251 -0.1260
    1W        W56686  10.537  15.530   7.432 -0.2891 -0.0703  0.4484
    1W        W56687  18.589  24.865   2.662  0.0445  0.0709  0.1542
    1W        W56688  28.769  17.605   9.040  0.0671  0.1642 -0.0122
    1W        W56689  21.972   0.749   1.734 -0.0976 -0.2629 -0.1544
    1W        W56690  28.805  14.033   7.909 -0.0465  0.0439 -0.1097
    1W        W56691  10.179  22.178   7.708 -0.0967  0.0658 -0.1235
    1W        W56692   1.217  25.673   8.625  0.2966 -0.0579 -0.2103
    1W        W56693   5.596  28.330   8.040 -0.2033  0.2304  0.1244
    1W        W56694  23.974   0.285   1.051 -0.2602 -0.1248  0.1042
    1W        W56695  11.634   5.761   8.404 -0.1405 -0.0177 -0.3626
    1W        W56696   1.909   3.044   9.401  0.1090  0.1726 -0.5709
    1W        W56697  17.801   5.927   0.136  0.2433  0.1678 -0.1204
    1W        W56698  25.242   0.376   0.701 -0.0815 -0.0486  0.1587
    1W        W56699  11.365   7.735   2.665 -0.2533 -0.0723 -0.2475
    1W        W56700   7.153  24.521   8.078  0.0266 -0.0626 -0.3224
    1W        W56701  20.432  18.411   1.465  0.0270 -0.0969 -0.0832
    1W        W56702   9.204  19.053   1.562 -0.0606 -0.5076  0.1800
    1W        W56703  22.106  13.940   9.001 -0.3451 -0.1620  0.1276
    1W        W56704  24.105  22.640   8.214 -0.0309  0.0016 -0.1738
    1W        W56705   3.415  19.037   1.838 -0.1636  0.1744  0.1964
    1W        W56706  14.196  18.025   1.600 -0.0655  0.0951  0.4192
    1W        W56707  18.113   8.337   6.365 -0.3132  0.0388 -0.1776
    1W        W56708   1.317  11.642   7.033 -0.1896  0.0139 -0.1312
    1W        W56709   5.643  25.698   0.869  0.2302 -0.3346  0.1049
    1W        W56710  10.170  21.357   8.276 -0.1433  0.1649  0.0521
    1W        W56711   4.922  25.670   7.258  0.2817  0.1054 -0.2924
    1W        W56712  16.725  24.565   1.217 -0.0946 -0.1897 -0.0057
    1W        W56713  23.698  16.130   6.532 -0.0686  0.2325  0.1724
    1W        W56714  24.594   6.316   2.385  0.1453 -0.1190  0.2079
    1W        W56715  16.934  16.023   8.938 -0.1336 -0.0853  0.2973
    1W        W56716  14.789  12.117   0.557 -0.0616 -0.1472 -0.1807
    1W        W56717  20.948   3.177   7.811  0.3386 -0.0463  0.0590
    1W        W56718   5.336   1.748   8.403  0.1891 -0.0504 -0.0512
    1W        W56719   8.983   3.454   8.137  0.0568  0.0093  0.2893
    1W        W56720   9.922  29.390   7.936 -0.1068  0.0888 -0.3890
    1W        W56721  16.303  22.763   9.046 -0.1968  0.0326 -0.0928
    1W        W56722   0.062   3.863   7.952  0.1354  0.1567 -0.4256
    1W        W56723   2.353   5.283   8.130 -0.2817 -0.4403 -0.2205
    1W        W56724  29.261   9.812   0.254 -0.1518 -0.0611  0.1339
    1W        W56725  27.837  25.190   1.078  0.0967 -0.1615 -0.0510
    1W        W56726   4.070  22.339   6.526  0.1769  0.1013  0.2990
    1W        W56727  27.755   7.968   9.048  0.4120 -0.0670 -0.0571
    1W        W56728  19.365   2.899   8.976 -0.0988  0.0507  0.0999
    1W        W56729  21.463  19.871   0.584 -0.3887  0.0959  0.1263
    1W        W56730  29.668  24.642   0.660  0.3883 -0.0783 -0.0556
    1W        W56731  12.873   1.711   0.939  0.1125  0.3304  0.1270
    1W        W56732   7.763  20.090   1.256  0.0295 -0.1888  0.0721
    1W        W56733   9.308   7.436   1.176  0.1607  0.0489  0.0018
    1W        W56734  19.440  10.057   1.414  0.0655 -0.0849  0.2107
    1W        W56735  15.136   3.483   8.856  0.2402 -0.1124 -0.1510
    1W        W56736  12.958  22.960   6.805 -0.1561  0.1665 -0.1124
    1W        W56737  24.284  12.530   1.447 -0.1430 -0.3356  0.1130
    1W        W56738  10.237   1.910   0.730 -0.1493  0.1503  0.0514
    1W        W56739  24.500  25.038   3.288  0.0418  0.2031  0.2112
    1W        W56740   0.648  18.445   0.247  0.2212  0.2429  0.0290
    1W        W56741   3.947  26.274   0.317 -0.1508 -0.0035 -0.0973
    1W        W56742  10.174  14.092   1.970  0.1062 -0.0984 -0.3432
    1W        W56743  26.191  19.918   6.615  0.1500 -0.1868 -0.1987
    1W        W56744  13.572   9.624   8.783 -0.2757 -0.1930 -0.0035
    1W        W56745  29.397  25.940   9.049 -0.2246 -0.0103  0.2273
    1W        W56746  18.583   8.142   7.048  0.0997 -0.0940 -0.0929
    1W        W56747  20.046  15.744   6.741  0.5085  0.1268 -0.0063
    1W        W56748  14.970  12.341   2.472  0.4007  0.0982 -0.1034
    1W        W56749  29.104  23.591   8.616  0.2506  0.0487  0.4029
    1W        W56750   7.573  27.228   8.942  0.2772 -0.3183 -0.3829
    1W        W56751  10.494   9.408   8.868  0.0408  0.0533 -0.1660
    1W        W56752  15.922   6.733   0.685 -0.0537  0.1099  0.1988
    1W        W56753  25.340  13.190   0.489  0.0058  0.0321  0.2414
    1W        W56754  29.207  26.283   2.736 -0.1757 -0.0135  0.0249
    1W        W56755  24.661  17.242   2.195  0.0438  0.0788 -0.4576
    1W        W56756  13.928  18.563   7.220 -0.3290  0.0584 -0.1027
    1W        W56757  22.185  16.553   0.606  0.0792 -0.2044 -0.2843
    1W        W56758  10.641  10.617   1.072 -0.1603  0.0705  0.0543
    1W        W56759   3.782  16.516   6.581 -0.0893  0.2523 -0.0274
    1W        W56760  15.741   9.673   1.241 -0.2173 -0.0054 -0.0235
    1W        W56761  29.825  28.540   9.229  0.1623 -0.2639 -0.2890
    1W        W56762   5.573  15.310   1.908  0.0881  0.0220 -0.1423
    1W        W56763  18.485   8.630   1.150 -0.0404  0.3155  0.1822
    1W        W56764  18.288   7.505   1.664  0.1597  0.0509  0.0227
    1W        W56765   8.909  11.470   2.784  0.0267 -0.2457 -0.0301
    1W        W56766   0.788  22.789   1.034  0.1901 -0.1817 -0.2409
    1W        W56767  23.160   8.528   1.190  0.3369 -0.4186 -0.1140
    1W        W56768  11.874   1.157   8.916  0.0823 -0.0713  0.0132
    1W        W56769  14.232  29.570   9.208  0.0851  0.0836  0.0902
    1W        W56770  14.682  15.034   8.551 -0.0578 -0.1021 -0.2351
    1W        W56771  18.279  19.681   1.123 -0.0372 -0.0823 -0.1575
    1W        W56772  12.568   3.637   7.408  0.3314 -0.0160  0.0538
    1W        W56773   8.625  15.313   9.336  0.1032  0.1510 -0.2409
    1W        W56774  15.703  15.842   1.223  0.2958  0.2815 -0.0120
    1W        W56775   7.242  15.439   1.398 -0.0829  0.1335  0.0921
    1W        W56776  16.690   2.920   5.920 -0.1533  0.1571  0.3701
    1W        W56777  12.722  12.248   0.153 -0.2331  0.4596 -0.1393
    1W        W56778  18.486  27.807   3.499  0.1404  0.1202  0.2818
    1W        W56779  14.120  22.375   6.933 -0.2761 -0.0232  0.0492
    1W        W56780   6.330  18.824   0.021  0.0991  0.3000  0.0238
    1W        W56781  16.287  26.477   3.512 -0.2735  0.4167 -0.0810
    1W        W56782   3.239  22.768   7.254 -0.4229  0.0116  0.2288
    1W        W56783  21.624  27.221   0.265  0.0136  0.0056  0.2014
    1W        W56784  11.874   4.629   3.103 -0.1194 -0.1411  0.0398
    1W        W56785  14.205  16.726   9.137 -0.1648 -0.1301  0.0580
    1W        W56786   8.262   2.319   7.880 -0.0970  0.0019  0.1992
    1W        W56787   7.489  16.373   9.276  0.1761 -0.0751  0.0395
    1W        W56788  28.739  20.232   1.364 -0.1750  0.1038  0.0162
    1W        W56789  16.472  25.985   7.184  0.0501 -0.2768 -0.0993
    1W        W56790  10.082  23.641   8.904 -0.3087  0.0927  0.0226
    1W        W56791  11.175  27.765   7.006  0.1159  0.3416 -0.0152
    1W        W56792  29.810  22.580   0.748 -0.3726  0.0511 -0.0423
    1W        W56793  27.552  17.102   1.935 -0.1798  0.1910 -0.2727
    1W        W56794   0.787  25.427   7.801 -0.0787  0.2135  0.0353
    1W        W56795  20.294  21.369   2.967 -0.1337 -0.3366  0.2548
    1W        W56796   7.769  22.212   7.572  0.2756 -0.0647 -0.0740
    1W        W56797  16.951  14.485   1.535 -0.0065 -0.1513 -0.3279
    1W        W56798  20.615  29.189   2.731  0.2020  0.1928  0.0966
    1W        W56799  25.752  14.020   0.082  0.1647 -0.1025 -0.0682
    1W        W56800  15.071   7.504   8.631  0.0935 -0.1782  0.1800
    1W        W56801   1.039   4.296   6.329  0.0639  0.1295  0.3656
    1W        W56802  28.018  27.644   8.132  0.1423 -0.2372  0.0079
    1W        W56803   3.350   4.597   2.298 -0.2046 -0.2467 -0.0654
    1W        W56804  10.226  24.213   6.783 -0.0432  0.1253 -0.0637
    1W        W56805  15.270   2.432   2.302  0.0866 -0.1191  0.2321
    1W        W56806   5.666   8.504   0.626 -0.0747  0.2325  0.2785
    1W        W56807   9.592  23.557   6.604  0.1676 -0.2282 -0.0843
    1W        W56808   3.782   0.349   6.303 -0.0008  0.1010  0.1938
    1W        W56809   1.741  14.597   6.584 -0.3835 -0.0457  0.0958
    1W        W56810  15.458  14.496   7.530  0.0371 -0.1057 -0.3761
    1W        W56811  11.847  20.924   2.241  0.0742  0.1388  0.1614
    1W        W56812  27.168   1.604   2.483  0.1989 -0.0564  0.2183
    1W        W56813  16.153   5.158   2.165 -0.5531 -0.1596 -0.1697
    1W        W56814  15.236   9.095   0.302 -0.0056 -0.1760  0.0969
    1W        W56815  18.896  25.294   9.244  0.1448 -0.2707 -0.0289
    1W        W56816  28.182  20.142   7.159 -0.1970  0.1130 -0.0995
    1W        W56817  13.659  28.690   0.688  0.0299  0.2279 -0.1589
    1W        W56818  12.571  17.993   0.537  0.0155  0.3735  0.3230
    1W        W56819  20.179  29.122   6.606 -0.1614 -0.0680  0.1324
    1W        W56820  24.676   7.911   8.731 -0.2000  0.0344  0.1898
    1W        W56821   9.633  22.359   0.658  0.0124  0.2067  0.1893
    1W        W56822   3.298  25.925   0.040  0.2179 -0.1987 -0.3375
    1W        W56823  17.909  14.908   0.256 -0.0105  0.0443 -0.3912
    1W        W56824   1.198  28.264   1.538  0.2619 -0.0796  0.3825
    1W        W56825  18.487  29.858   2.025 -0.2447  0.2082  0.1634
    1W        W56826   3.521  11.656   7.281 -0.0686 -0.1632 -0.1023
    1W        W56827  23.020  29.750   3.085 -0.1337  0.0958 -0.0280
    1W        W56828  23.773  28.149   7.032 -0.0871 -0.0329 -0.0386
    1W        W56829  21.241   1.095   8.899  0.1285 -0.0632 -0.1738
    1W        W56830  26.637  10.269   1.826 -0.1922  0.1356 -0.2221
    1W        W56831   2.441  17.782   8.837 -0.0098  0.1841  0.0591
    1W        W56832  21.202   4.694   2.383  0.1416 -0.0292  0.4192
    1W        W56833   5.782   4.694   9.363 -0.0469 -0.2119  0.0714
    1W        W56834   3.034  24.824   0.675  0.0727 -0.1941  0.3764
    1W        W56835   9.789  17.266   0.970 -0.1477 -0.2798 -0.0603
    1W        W56836   6.583   1.164   2.378 -0.2174 -0.0119 -0.2047
    1W        W56837   0.203  28.694   1.533  0.4029  0.1435  0.1750
    1W        W56838  28.398  21.610   8.579  0.1319  0.1140 -0.0936
    1W        W56839   6.219  12.633   8.468 -0.0887  0.1270 -0.1504
    1W        W56840  29.269  27.640   2.945 -0.1267  0.0741 -0.1614
    1W        W56841  23.043  20.819   1.181 -0.0013 -0.2115  0.2237
    1W        W56842  29.433   2.680   0.944 -0.0662 -0.0723 -0.1582
    1W        W56843  21.363   6.367   8.877  0.0646  0.0293 -0.1498
    1W        W56844  17.586   2.549   9.176  0.2610  0.3412 -0.0186
    1W        W56845   6.159  26.266   2.422  0.3410  0.1815  0.0225
    1W        W56846  22.293  10.301   1.673  0.2369 -0.2115 -0.0440
    1W        W56847  11.367  24.789   6.283 -0.0445 -0.0238 -0.3383
    1W        W56848  27.638  22.860   6.269 -0.0020  0.0846 -0.1536
    1W        W56849  17.128   1.667   0.025  0.1361 -0.0111 -0.0232
    1W        W56850   8.511  16.714   1.712 -0.3450 -0.0990  0.3886
    1W        W56851   4.447  16.639   8.713 -0.2966  0.2145  0.1099
    1W        W56852   6.852   3.987   8.625 -0.0126  0.0816 -0.3225
    1W        W56853  15.200  17.747   7.011  0.0088  0.0816 -0.0008
    1W        W56854  26.114   7.569   6.184  0.2484 -0.0135 -0.0579
    1W        W56855   4.928  19.724   2.346  0.0090 -0.2425  0.0652
    1W        W56856   6.263  27.456   9.263  0.1655  0.1375  0.3402
    1W        W56857  28.467  21.811   8.031 -0.0159  0.0041  0.0431
    1W        W56858  21.978  18.982   1.348 -0.2125 -0.0661  0.1109
    1W        W56859  15.456   5.795   2.519  0.0690  0.1094 -0.1646
    1W        W56860  17.155   4.456   2.705  0.0431 -0.0145 -0.1823
    1W        W56861  26.974  27.852   9.166  0.1428 -0.1655  0.1534
    1W        W56862  20.209  27.791   2.627 -0.2088  0.0220 -0.2641
    1W        W56863  23.709  12.679   0.106  0.1280  0.1274 -0.0801
    1W        W56864  27.657  18.983   1.740  0.0618 -0.0076 -0.1829
    1W        W56865   7.106  10.799   7.665  0.0090 -0.0974 -0.0299
    1W        W56866   5.247  26.513   6.381  0.1777 -0.5252 -0.0110
    1W        W56867  10.193  10.548   1.363 -0.1033  0.0779  0.0630
    1W        W56868   3.284   3.787   2.522  0.1782 -0.3248 -0.0009
    1W        W56869  25.651  27.466   8.839 -0.3861 -0.0758  0.0963
    1W        W56870  14.198   7.548   0.718  0.2115 -0.2125 -0.1189
    1W        W56871  29.396  29.259   7.150  0.0239 -0.0718  0.0335
    1W        W56872  26.853  25.124   7.541  0.0606  0.0426  0.3211
    1W        W56873  12.234  20.275   6.639 -0.3305 -0.2023  0.1518
    1W        W56874  16.208  29.911   1.880 -0.1971  0.3064 -0.1073
    1W        W56875   6.156   1.016   1.926 -0.1091  0.3761  0.1178
    1W        W56876  27.440   0.456   6.840  0.0689 -0.0221  0.2767
    1W        W56877  26.345  19.561   8.702  0.1499  0.1317 -0.1109
    1W        W56878   4.989   2.005   1.001  0.1417  0.2909 -0.2410
    1W        W56879  16.034  17.340   8.005  0.1516  0.0709  0.1236
    1W        W56880   5.203  26.699   6.827  0.2603 -0.0577 -0.1626
    1W        W56881   7.624   9.321   7.990  0.1562 -0.3502 -0.2611
    1W        W56882  29.388  22.631   8.403 -0.0265  0.0675  0.0249
    1W        W56883  18.368  21.264   7.038 -0.0872  0.2421  0.1117
    1W        W56884  19.821  23.564   7.718 -0.4010  0.0384 -0.0009
    1W        W56885  27.227   6.906   2.078  0.2198 -0.0309 -0.4221
    1W        W56886  25.609   3.148   8.129 -0.1207  0.2850  0.0104
    1W        W56887  21.119   1.543   1.944  0.1561  0.1450  0.0484
    1W        W56888   1.042  18.773   1.007  0.2679  0.0697  0.2580
    1W        W56889   8.337  19.579   7.714  0.0042 -0.1385  0.0992
    1W        W56890  20.827  23.772   1.991 -0.0774 -0.0841 -0.1197
    1W        W56891  25.080  21.213   1.719  0.1507  0.4340  0.2274
    1W        W56892  14.992  18.594   8.761  0.0043  0.2736  0.0953
    1W        W56893  14.197  15.481   1.351  0.0570  0.1101 -0.0129
    1W        W56894  23.402  19.678   7.802 -0.2233  0.0311  0.0495
    1W        W56895   7.518   1.153   0.282  0.0293 -0.1810  0.1039
    1W        W56896   8.900  22.164   2.169  0.1203  0.0946  0.1288
    1W        W56897   0.373   7.569   7.823 -0.2468  0.0830 -0.1697
    1W        W56898  24.274  28.556   1.036  0.1698  0.2840  0.1790
    1W        W56899  15.814   9.672   7.412 -0.2244  0.0505 -0.0137
    1W        W56900   1.519  10.470   6.048  0.0455 -0.0532  0.0830
    1W        W56901   1.235  23.538   6.448  0.2656  0.0313 -0.1321
    1W        W56902  27.271   1.583   0.060 -0.1201  0.2593  0.0342
    1W        W56903  19.010   4.077   8.338  0.0751 -0.1664 -0.0970
    1W        W56904  13.383   6.286   7.924 -0.0561  0.0970 -0.0223
    1W        W56905  17.588  12.932   8.418 -0.0708 -0.2729  0.2453
    1W        W56906  20.139   3.094   7.360  0.1405 -0.0374 -0.2781
    1W        W56907  12.255  23.390   8.950  0.1800 -0.0375 -0.2346
    1W        W56908  11.683   4.452   7.420  0.0124 -0.1405 -0.2822
    1W        W56909   0.174  28.642   8.099  0.2019 -0.1111  0.0282
    1W        W56910  26.615   3.957   2.748 -0.0353  0.2536  0.2683
    1W        W56911  17.221  22.617   6.803  0.1059  0.3766 -0.0206
    1W        W56912  21.926   1.611   8.085 -0.2155 -0.0324  0.2056
    1W        W56913  14.672  28.220   1.335  0.2516  0.2346 -0.0137
    1W        W56914  10.164  17.405   1.681  0.1661 -0.2891 -0.0933
    1W        W56915  14.145   5.538   1.592 -0.4054 -0.0745  0.0918
    1W        W56916  20.532  10.416   7.314 -0.2964  0.0204 -0.0690
    1W        W56917  17.453  21.518   9.368 -0.1853  0.1964  0.1714
    1W        W56918  29.451  21.302   6.591  0.2464 -0.2585  0.2346
    1W        W56919   5.924  21.617   9.088  0.0703  0.0338 -0.1015
    1W        W56920   0.620  22.353   0.795 -0.1376 -0.2795  0.1430
    1W        W56921  24.122   4.519   9.342  0.0861  0.2869  0.0466
    1W        W56922  18.521   8.944   8.387 -0.2371  0.0394  0.3015
    1W        W56923  13.601  25.173   2.525  0.0086  0.1815 -0.1180
    1W        W56924  22.076  10.136   8.799  0.1822 -0.1002 -0.1235
    1W        W56925  29.826  28.336   7.639 -0.0851 -0.0959 -0.2951
    1W        W56926   8.923  23.133   7.613  0.4089  0.1974 -0.4262
    1W        W56927   3.723  20.770   9.422  0.4134  0.0739 -0.0267
    1W        W56928  18.661   0.784   8.818 -0.0193  0.0328 -0.1723
    1W        W56929   2.023  20.323   7.450 -0.0086  0.1241  0.1672
    1W        W56930  26.095   4.365   7.290 -0.1814 -0.2108  0.2062
    1W        W56931  25.458  14.768   9.035 -0.1658  0.0750  0.0414
    1W        W56932   7.967  23.359   7.892  0.1552 -0.2291 -0.0375
    1W        W56933  23.643   0.163   7.925 -0.2488  0.1403  0.1738
    1W        W56934  15.327  24.703   0.504  0.0606  0.0828 -0.2499
    1W        W56935  18.567   5.875   6.621  0.0287  0.1876 -0.1712
    1W        W56936  21.685  22.961   2.822 -0.0394 -0.1560  0.2625
    1W        W56937  18.946  18.929   2.958 -0.2414  0.3508  0.0313
    1W        W56938  25.507   9.464   9.196  0.0220 -0.2407  0.0425
    1W        W56939   1.596   8.387   2.236  0.1131 -0.0649 -0.1577
    1W        W56940   4.345   3.346   7.940  0.0759  0.0956  0.1348
    1W        W56941  25.753  27.530   2.336 -0.0324  0.1025 -0.2193
    1W        W56942  17.543   7.307   0.760 -0.2640 -0.0736 -0.2174
    1W        W56943  28.998  12.219   8.909  0.0263  0.1103  0.1013
    1W        W56944  10.300   9.651   0.638  0.0111  0.5192  0.0787
    1W        W56945  14.731  19.933   7.179 -0.2260  0.1172 -0.2903
    1W        W56946   6.101  15.942   9.060  0.1975  0.0783  0.2785
    1W        W56947  13.193  13.332   1.514 -0.1698  0.0066 -0.3568
    1W        W56948  22.799  11.551   1.962 -0.1292 -0.1371 -0.1798
    1W        W56949  29.095   5.760   7.921 -0.2207 -0.0088  0.0636
    1W        W56950  13.710   6.190   3.152  0.1620 -0.0180 -0.2735
    1W        W56951   0.878  17.421   6.144  0.2299  0.0301 -0.2641
    1W        W56952  18.587   5.322   1.258  0.1077 -0.1059  0.2230
    1W        W56953  26.320  25.897   0.247  0.1187  0.2192  0.1385
    1W        W56954  13.009  22.361   7.180  0.0192 -0.0259 -0.1299
    1W        W56955   3.209   3.709   7.074 -0.2073 -0.0486  0.4374
    1W        W56956  12.733   2.689   2.200 -0.3149  0.1006 -0.2383
    1W        W56957   3.122  10.450   0.988 -0.0026  0.1453 -0.1436
    1W        W56958  24.165  17.659   0.399  0.0588  0.0235 -0.2001
    1W        W56959  17.042   8.392   2.194  0.1660  0.1683 -0.2143
    1W        W56960  13.525  16.975   1.522  0.1424  0.1424 -0.3706
    1W        W56961   0.131  18.628   2.757 -0.0732  0.1385  0.3079
    1W        W56962   2.932  29.856   0.676 -0.3028 -0.1431 -0.1701
    1W        W56963  10.220  20.489   6.800  0.1013 -0.0565 -0.0754
    1W        W56964   4.067   8.828   7.919  0.0913 -0.2188  0.2523
    1W        W56965   8.010   8.293   8.172  0.0038  0.0480  0.0418
    1W        W56966  19.465  26.623   1.687  0.0423 -0.0280  0.3121
    1W        W56967  18.704  29.210   0.823  0.1521 -0.2112  0.1251
    1W        W56968   1.695  28.653   7.579 -0.1388 -0.1822  0.2724
    1W        W56969   9.129   7.042   6.817  0.1082  0.1051 -0.0829
    1W        W56970   4.482  26.088   6.845  0.0052  0.0900 -0.4271
    1W        W56971  13.524  21.979   1.029 -0.1133 -0.0678 -0.1655
    1W        W56972  13.918  14.257   1.585  0.2289  0.2568 -0.1569
    1W        W56973  27.322  28.352   8.020  0.0015 -0.2676  0.0995
    1W        W56974   6.088  17.709   1.246 -0.1601 -0.0824 -0.0191
    1W        W56975   2.128   6.960   0.182 -0.1506 -0.1762 -0.1053
    1W        W56976   1.401   4.405   3.420  0.2279  0.0036  0.0272
    1W        W56977  10.827  26.955   7.422  0.2483  0.1396  0.4868
    1W        W56978  11.907  22.190   7.907 -0.0233  0.1759  0.1621
    1W        W56979   8.924  15.636   7.087 -0.1810  0.1901  0.1704
    1W        W56980   2.520  19.997   1.808 -0.2859 -0.1262  0.2969
    1W        W56981  28.886   0.856   7.539  0.2751 -0.2159 -0.0492
    1W        W56982   0.706   2.109   2.137  0.1272 -0.1393  0.0447
    1W        W56983   5.258   2.725   7.733  0.1220  0.2933  0.0807
    1W        W56984   3.465  19.163   1.304  0.2781  0.0050  0.0101
    1W        W56985   8.290  23.265   0.200  0.3024  0.1790 -0.0027
    1W        W56986  22.054   9.132   2.034  0.1944 -0.4873 -0.0345
    1W        W56987   0.473   3.006   7.399 -0.3770  0.3165 -0.0981
    1W        W56988   3.812  13.029   6.664 -0.0554  0.0718 -0.1745
    1W        W56989  18.370  21.803   8.853  0.1176 -0.0907  0.3403
    1W        W56990  16.058  21.855   6.720 -0.1720  0.0629 -0.0568
    1W        W56991  22.325  13.847   1.950 -0.2173  0.0151 -0.0399
    1W        W56992  26.675  25.115   2.291  0.0847 -0.1864 -0.0410
    1W        W56993  14.192   9.420   0.264 -0.2872  0.2449 -0.2281
    1W        W56994  16.492  17.694   1.333 -0.1231  0.0747  0.1144
    1W        W56995  28.750  10.649   9.402 -0.0843 -0.1225  0.1994
    1W        W56996  29.285   4.911   1.693 -0.2424 -0.2155  0.1300
    1W        W56997   0.060  22.490   9.014  0.1828  0.0700  0.1322
    1W        W56998  24.248  14.960   9.346 -0.0334 -0.2349  0.1330
    1W        W56999  18.027  12.686   9.395 -0.1223 -0.1212 -0.1362
    1W        W57000  12.950   6.856   0.639  0.0055 -0.0452  0.0577
    1W        W57001   3.903  10.448   0.027 -0.1201 -0.2296 -0.3616
    1W        W57002   0.103  17.985   6.602  0.0880  0.0494  0.0007
    1W        W57003  23.461  17.162   6.842 -0.1888  0.0679  0.5098
    1W        W57004  22.043  14.922   8.656  0.0384  0.1156 -0.2240
    1W        W57005  12.851   8.402   9.417  0.2114 -0.1548 -0.3545
    1W        W57006  29.205  25.221   0.934 -0.1699 -0.2658 -0.4331
    1W        W57007  22.434  20.297   6.999  0.2168 -0.2563  0.2096
    1W        W57008  26.274  14.565   1.189 -0.2322 -0.0289  0.1517
    1W        W57009  15.490  21.475   7.805 -0.0369 -0.0972  0.0119
    1W        W57010  25.644   3.797   9.042  0.2631 -0.5017 -0.2269
    1W        W57011  12.218  28.016   7.915 -0.3004 -0.1279  0.0537
    1W        W57012   0.496  27.164   7.776  0.2926 -0.2872 -0.1712
    1W        W57013  15.449   0.360   2.185 -0.2639  0.2261  0.2427
    1W        W57014  29.893  12.713   8.281  0.0330  0.0577 -0.0840
    1W        W57015   3.534  24.136   0.669  0.2096 -0.1762  0.0136
    1W        W57016  13.050   0.390   8.336 -0.0613 -0.0057  0.0952
    1W        W57017  25.248  11.903   6.888  0.0405 -0.1686  0.1388
    1W        W57018  29.564  25.335   1.642 -0.0506 -0.2267  0.0244
    1W        W57019  11.728  12.003   6.959  0.0307  0.0943  0.2668
    1W        W57020  28.984   1.189   6.257 -0.3595 -0.1105  0.3160
    1W        W57021  23.921  18.986   7.798  0.0521 -0.1509  0.0642
    1W        W57022   3.645  21.897   7.778 -0.2721 -0.0246  0.1951
    1W        W57023  20.688   3.723   6.331 -0.0127  0.0599 -0.1376
    1W        W57024  27.296  14.265   8.616 -0.0401 -0.0385 -0.0460
    1W        W57025  24.683  20.930   1.588  0.0403  0.0371 -0.1661
    1W        W57026  19.796   9.266   7.994  0.1654 -0.1566  0.1558
    1W        W57027  25.622  12.241   6.958 -0.2504 -0.3286  0.0509
    1W        W57028  12.510  10.106   1.149 -0.3371  0.0453  0.2042
    1W        W57029  26.632   9.217   6.767 -0.2533  0.0282  0.1013
    1W        W57030   0.568   9.651   2.822  0.4299 -0.0724  0.1680
    1W        W57031   2.255  23.007   8.388 -0.1017  0.0203  0.1166
    1W        W57032   6.337  29.219   1.124  0.0282  0.2103  0.0577
    1W        W57033  24.946  10.375   8.312  0.1319  0.1915  0.1031
    1W        W57034  14.966  21.570   7.896 -0.1482 -0.0825 -0.0163
    1W        W57035   1.399  21.962   2.314  0.1792 -0.0261  0.0823
    1W        W57036   5.244  15.134   2.211 -0.0970 -0.2150  0.2372
    1W        W57037  27.018  24.149   0.675 -0.1495 -0.0070  0.0249
    1W        W57038  12.868  22.104   8.116 -0.0032 -0.1236 -0.0011
    1W        W57039   1.543  10.158   7.006 -0.1755  0.1546  0.0506
    1W        W57040   1.446  20.905   6.760  0.3037  0.2936 -0.2579
    1W        W57041   7.260   7.551   7.684 -0.4838  0.2630 -0.3092
    1W        W57042   3.416   4.158   2.154  0.0045  0.0516 -0.1448
    1W        W57043  26.550  25.451   6.737  0.1512  0.1078 -0.0792
    1W        W57044  10.431  11.516   7.380  0.2986  0.4249 -0.3396
    1W        W57045   8.180  26.463   1.288 -0.0714  0.1806  0.0188
    1W        W57046  15.502  24.037   1.079  0.2341  0.1787  0.1489
    1W        W57047  16.673  27.526   2.378 -0.1208 -0.4436 -0.1641
    1W        W57048   8.080  19.983   0.836 -0.2195 -0.0792  0.1696
    1W        W57049  11.935   4.159   8.747 -0.3020 -0.0719  0.0189
    1W        W57050   2.518   4.716   7.035  0.1246  0.1877 -0.1552
    1W        W57051   4.592  22.674   1.770 -0.0683 -0.1587  0.0648
    1W        W57052  23.271  27.491   0.095 -0.1868 -0.0358 -0.0994
    1W        W57053  14.052  24.304   2.145  0.0792 -0.1023  0.1019
    1W        W57054   1.482  23.090   0.479  0.3007 -0.1258 -0.0337
    1W        W57055  10.270   4.269   7.919 -0.0466 -0.0043 -0.1278
    1W        W57056  19.764  11.819   1.572  0.1686 -0.1283 -0.1626
    1W        W57057  28.855  19.207   9.093 -0.1329  0.0559  0.2676
    1W        W57058  12.556  14.220   7.753  0.1484 -0.2882  0.1964
    1W        W57059   4.437  12.040   7.953 -0.1606  0.2521 -0.0003
    1W        W57060  26.202  11.590   6.722 -0.1390  0.0677 -0.1812
    1W        W57061  24.388   2.822   8.440  0.0242  0.1479 -0.0724
    1W        W57062  13.171   0.448   1.139 -0.1166 -0.0482  0.2171
    1W        W57063   4.704   0.043   2.429  0.2919 -0.2531  0.1313
    1W        W57064  11.281  19.743   0.680 -0.1735 -0.2346  0.0279
    1W        W57065   6.435  29.680   0.195 -0.1440  0.0319 -0.0190
    1W        W57066  15.514  19.638   2.634 -0.0345 -0.1268 -0.0775
    1W        W57067  20.623   6.842   3.064  0.0206  0.0929  0.2009
    1W        W57068  12.800  19.406   9.001  0.0614 -0.0036 -0.0518
    1W        W57069  24.622   0.981   8.673  0.0570  0.1035  0.1843
    1W        W57070  20.309   4.801   2.212  0.0322  0.0786 -0.0926
    1W        W57071  26.221  18.446   6.971  0.2083 -0.0160  0.0386
    1W        W57072  28.875  14.628   1.814 -0.0510  0.4053 -0.0921
    1W        W57073  13.371   2.885   1.258 -0.3337 -0.0069  0.0819
    1W        W57074   9.706  22.698   9.093 -0.0515 -0.1647  0.3021
    1W        W57075   2.612  17.696   1.305 -0.0077 -0.1500  0.1280
    1W        W57076  14.620  26.014   7.705 -0.1433 -0.1905  0.0873
    1W        W57077   9.693  25.374   0.148 -0.1704  0.1443  0.0079
    1W        W57078   1.010  26.262   0.952 -0.2493  0.2401 -0.0635
    1W        W57079  12.795  11.050   1.769 -0.0711 -0.0767  0.2914
    1W        W57080  18.623  15.256   2.137  0.0354  0.1068 -0.2689
    1W        W57081   8.670  11.179   1.164 -0.0027  0.0222 -0.0805
    1W        W57082   2.965  14.349   6.997 -0.1756 -0.1794  0.0428
    1W        W57083  21.817   9.994   2.422 -0.2327  0.0488 -0.2222
    1W        W57084  20.424   1.463   0.677  0.1212 -0.0745 -0.0694
    1W        W57085  15.771  16.356   7.877 -0.0254  0.0833 -0.0844
    1W        W57086   0.717  12.510   8.712  0.1727  0.1223 -0.0445
    1W        W57087  12.950  29.860   8.826 -0.1770  0.1429 -0.0531
    1W        W57088  15.504  28.083   1.852  0.0420  0.5914  0.3483
    1W        W57089  24.531  23.688   1.380  0.1684 -0.3656 -0.1053
    1W        W57090   7.590  25.875   6.253 -0.1426  0.3103 -0.2926
    1W        W57091  18.984   2.447   1.985 -0.1273  0.0602 -0.1119
    1W        W57092  28.466  25.283   7.673  0.1064  0.0474 -0.1432
    1W        W57093  16.114  25.464   8.049 -0.1334  0.0640 -0.2017
    1W        W57094   2.471   4.190   6.729  0.0102  0.0486  0.1359
    1W        W57095  18.156   2.430   2.352  0.1617 -0.1407 -0.0586
    1W        W57096  27.109   8.715   8.172  0.0911 -0.0661  0.2735
    1W        W57097  10.477  18.885   2.469 -0.1497  0.0180  0.0019
    1W        W57098   2.092  27.047   8.604  0.3065  0.0862  0.3797
    1W        W57099  23.592  24.563   3.255  0.1943 -0.3685 -0.0681
    1W        W57100  12.653   8.205   1.060 -0.1778 -0.0967  0.3066
    1W        W57101  20.919  16.838   0.172  0.0522  0.2896  0.1538
    1W        W57102  29.537   8.702   9.454 -0.1219 -0.1130  0.2334
    1W        W57103   8.408  10.570   8.815  0.0801 -0.0123  0.2066
    1W        W57104  29.339   7.749   0.783 -0.0869 -0.1939  0.0559
    1W        W57105   2.232   5.282   0.253  0.1453 -0.1311  0.2085
    1W        W57106  29.818  10.435   1.879  0.3034 -0.1275  0.3342
    1W        W57107  19.692  10.049   7.359  0.0537 -0.0181 -0.0030
    1W        W57108  12.123   9.065   0.894  0.4571  0.0615 -0.0193
    1W        W57109  21.153   3.682   2.253 -0.1851  0.3602  0.2291
    1W        W57110   1.924   3.266   0.387 -0.3774  0.1301 -0.0360
    1W        W57111   7.343  20.927   7.238 -0.1208 -0.2215 -0.1274
    1W        W57112   1.280  13.794   8.805 -0.1140 -0.1442  0.0210
    1W        W57113  21.235  21.051   8.666 -0.3492  0.0007  0.0523
    1W        W57114  26.832   2.639   2.775 -0.0084 -0.2557 -0.0048
    1W        W57115   0.519   8.521   0.777 -0.1894 -0.0839 -0.1386
    1W        W57116  19.715   3.986   0.609  0.1254 -0.0115  0.3287
    1W        W57117   7.631  21.442   0.833  0.1031  0.3738  0.1182
    1W        W57118   9.407   4.195   0.236  0.0998  0.3035  0.1117
    1W        W57119   1.220   1.396   6.774  0.4679  0.1610 -0.0190
    1W        W57120  14.879  27.288   0.090  0.0138  0.0848  0.2690
    1W        W57121  27.206   4.686   2.613  0.0642  0.2324 -0.2379
    1W        W57122   7.570  26.936   0.355  0.0013 -0.1528  0.3521
    1W        W57123   0.342  25.184   0.520 -0.0359  0.4057  0.1138
    1W        W57124  16.741   8.729   1.262 -0.2815  0.0467  0.2018
    1W        W57125  27.328   9.411   9.290 -0.1987 -0.6584 -0.0110
    1W        W57126  13.145  20.380   2.325 -0.1480 -0.0706 -0.2176
    1W        W57127  19.935   0.227   8.930 -0.1147  0.1961 -0.0018
    1W        W57128  23.835  29.488   1.751  0.2600 -0.2783  0.1213
    1W        W57129  29.322   6.103   9.217 -0.2748 -0.0676 -0.3688
    1W        W57130  19.384   5.923   2.423  0.3140  0.2073 -0.1512
    1W        W57131   5.190  25.251   6.950  0.2014 -0.0802 -0.2827
    1W        W57132  29.363   5.748   2.133  0.0619 -0.2192 -0.0236
    1W        W57133   7.835  10.780   0.812  0.2765 -0.2819  0.2285
    1W        W57134  26.246  15.556   8.754  0.1248 -0.0043 -0.1569
    1W        W57135  22.438  26.669   7.721 -0.1599  0.2273 -0.2389
    1W        W57136  24.293   8.989   2.466 -0.2913  0.0194 -0.1483
    1W        W57137   0.779  21.485   7.683  0.2066  0.1071  0.0554
    1W        W57138  20.485  20.335   7.387 -0.1304 -0.0436 -0.0620
    1W        W57139  10.862   0.272   8.721 -0.1849  0.1565 -0.1316
    1W        W57140  17.101   3.378   1.225  0.1880 -0.0945 -0.1500
    1W        W57141  12.812  19.118   0.509  0.3724  0.1902 -0.3689
    1W        W57142  17.107   7.692   7.959 -0.1476 -0.2869 -0.0772
    1W        W57143  18.798   1.749   8.577 -0.0536 -0.0523 -0.3184
    1W        W57144  12.034  11.163   0.536 -0.1869 -0.0343 -0.0042
    1W        W57145   6.892  16.948   6.630 -0.1384  0.0095  0.1313
    1W        W57146   9.664  19.186   1.379  0.0373  0.1192  0.0133
    1W        W57147  24.991  29.284   7.881 -0.1571 -0.1246  0.2395
    1W        W57148   5.038  16.721   5.981  0.2736  0.0842 -0.1947
    1W        W57149  14.693  14.056   1.071 -0.0984  0.0825 -0.1930
    1W        W57150  19.189   7.806   7.413 -0.2044 -0.0736 -0.1310
    1W        W57151  20.982  11.091   0.150  0.0313 -0.0325  0.1960
    1W        W57152  29.658   3.203   0.918 -0.0378 -0.0261 -0.0991
    1W        W57153  16.648   1.487   9.214  0.0135  0.1615  0.2156
    1W        W57154   0.182   5.349   7.564  0.0934  0.1346 -0.0153
    1W        W57155  27.763  21.375   1.256 -0.1809 -0.3476  0.1644
    1W        W57156  17.311   7.833   9.402  0.1517 -0.3234  0.3435
    1W        W57157  11.934  16.688   0.305  0.2202  0.2883 -0.1834
    1W        W57158  18.446  26.277   0.883  0.0063 -0.0555 -0.2477
    1W        W57159  19.422   0.013   7.970  0.0584  0.0914 -0.1794
    1W        W57160  13.291  14.131   7.375 -0.1770  0.0299  0.1265
    1W        W57161  10.343  14.489   1.257 -0.0873 -0.2310  0.1173
    1W        W57162  28.929   0.241   0.693  0.0673 -0.3944  0.2416
    1W        W57163   9.411  17.975   8.104  0.0642  0.2397 -0.0171
    1W        W57164   7.841  12.555   8.028  0.1289  0.0629  0.1379
    1W        W57165   2.696  11.564   6.655 -0.2897 -0.0717 -0.2005
    1W        W57166   6.790  14.510   2.054 -0.1894  0.3865  0.2944
    1W        W57167  25.871  25.533   0.078  0.0947 -0.2386  0.2987
    1W        W57168   1.990   0.067   7.921 -0.2979  0.1050  0.1871
    1W        W57169  12.647  11.160   1.269 -0.0244 -0.0561  0.2332
    1W        W57170  16.179  23.887   7.984  0.0193 -0.3320 -0.4186
    1W        W57171  25.255  23.162   2.373 -0.0613  0.0192 -0.0146
    1W        W57172  27.938  19.179   2.184 -0.1476 -0.1543  0.0501
    1W        W57173   9.179  25.787   2.376 -0.0058  0.0681  0.1460
    1W        W57174  11.582  23.115   6.455 -0.2198  0.1793 -0.1360
    1W        W57175   6.677  12.616   8.809  0.2251 -0.0493  0.2330
    1W        W57176  22.699  28.925   2.199  0.1694  0.1418 -0.4324
    1W        W57177  12.171  23.860   1.593 -0.1927 -0.2612  0.0300
    1W        W57178  29.026  25.581   2.035  0.1592 -0.2680  0.2233
    1W        W57179   0.828  23.685   5.594  0.0989  0.1236  0.0500
    1W        W57180  10.781   4.226   7.806 -0.0511  0.1018 -0.0135
    1W        W57181   8.726  18.817   1.705 -0.0313 -0.1154 -0.1245
    1W        W57182  14.589  26.838   7.995  0.0570 -0.4712  0.0719
    1W        W57183  28.099  29.206   0.926  0.1040  0.1427 -0.1228
    1W        W57184  19.959  24.752   8.927 -0.1504  0.1112 -0.0373
    1W        W57185   3.167  21.078   2.068 -0.1195 -0.2088 -0.0339
    1W        W57186  17.293  14.057   8.932  0.0426 -0.1015  0.1294
    1W        W57187  18.936  22.782   3.064  0.3294 -0.1457 -0.1584
    1W        W57188  28.526  28.006   9.243 -0.0527  0.3478 -0.1071
    1W        W57189   7.054  26.987   5.686 -0.0680  0.1893 -0.1830
    1W        W57190  12.550   2.725   8.963 -0.0208  0.1438  0.3593
    1W        W57191  12.404  21.082   0.355  0.0969  0.0201  0.1659
    1W        W57192   4.283  28.733   0.884 -0.1409 -0.0616 -0.2682
    1W        W57193  15.668   7.242   2.094 -0.0386 -0.0023  0.2146
    1W        W57194  11.482  25.957   0.237  0.0848  0.1237 -0.0541
    1W        W57195  15.896   5.441   2.656  0.2562 -0.2107  0.0019
    1W        W57196  19.295  25.666   8.913  0.0505 -0.1562  0.1194
    1W        W57197  18.708   5.238   1.733 -0.4279 -0.2980 -0.2817
    1W        W57198  23.974  25.158   0.731  0.0226 -0.1000  0.0503
    1W        W57199   3.130  27.669   8.038 -0.1712 -0.0232 -0.0358
    1W        W57200   4.725  17.805   6.646 -0.3342 -0.0563 -0.0990
    1W        W57201  26.422   7.687   1.384 -0.0832 -0.2196  0.1392
    1W        W57202  26.269  23.167   6.202  0.0488 -0.1741 -0.0415
    1W        W57203   3.074  14.799   8.602  0.0450 -0.2451 -0.0187
    1W        W57204  25.801   1.783   7.150 -0.0000  0.1223 -0.1961
    1W        W57205  13.155  28.629   0.860 -0.1073 -0.1624  0.1753
    1W        W57206  20.869   6.789   6.309  0.1488  0.1095 -0.0335
    1W        W57207   5.398  18.910   8.171  0.0808  0.2182 -0.1192
    1W        W57208  28.028   9.332   6.120  0.0910  0.0488 -0.3155
    1W        W57209  28.901  20.570   1.733  0.0779 -0.0233  0.0665
    1W        W57210  11.186  25.964   9.231 -0.0400 -0.0411 -0.3121
    1W        W57211   1.785  12.641   8.253  0.0609  0.1556  0.5321
    1W        W57212  28.989  28.856   9.297  0.1553  0.0220 -0.2950
    1W        W57213  15.659  26.862   7.106 -0.0489 -0.1858 -0.1003
    1W        W57214  25.628  17.374   6.563 -0.2612  0.0901 -0.0060
    1W        W57215  17.173  27.248   8.170  0.0956  0.2072 -0.1155
    1W        W57216   0.943  26.453   2.034 -0.0233  0.2393 -0.0116
    1W        W57217  10.153  24.266   2.173  0.0428 -0.2835  0.0914
    1W        W57218  14.583  26.385   7.164  0.2752  0.0670 -0.0629
    1W        W57219   4.772   4.274   8.611 -0.1527  0.0291 -0.1483
    1W        W57220  19.093  10.567   1.349  0.2235  0.1141  0.0953
    1W        W57221  27.463  27.836   6.318 -0.1522 -0.2529  0.0457
    1W        W57222  15.378  27.328   8.869 -0.1717  0.1042  0.0889
    1W        W57223  21.720  23.116   7.331 -0.2289 -0.1153 -0.0901
    1W        W57224   6.739   6.177   0.475 -0.3347 -0.0860  0.0376
    1W        W57225  18.964   1.704   7.042 -0.0523 -0.1942  0.2406
    1W        W57226  22.419   3.073   7.389  0.3324  0.0444 -0.2726
    1W        W57227  25.544  22.998   2.014 -0.1681 -0.0815  0.0157
    1W        W57228   9.615  16.631   9.149 -0.2846  0.0866 -0.0774
    1W        W57229  11.639   8.036   7.684 -0.2052  0.2090  0.0521
    1W        W57230   9.654   2.741   8.774 -0.1723 -0.0573 -0.0842
    1W        W57231   0.333  13.891   6.481  0.0834  0.0332 -0.2124
    1W        W57232  12.402   7.491   7.690  0.2035 -0.3682 -0.0712
    1W        W57233  10.182  19.611   7.944  0.0926 -0.0674 -0.1426
    1W        W57234  24.670   5.338   2.688  0.1598  0.4606  0.2605
    1W        W57235   7.556  27.823   1.475 -0.0731 -0.0923 -0.3505
    1W        W57236   4.564  19.874   0.791 -0.0482 -0.0882  0.2792
    1W        W57237  19.989   9.254   9.340 -0.1696 -0.2872  0.0030
    1W        W57238   4.649  19.982   1.778 -0.0437  0.0016  0.2543
    1W        W57239   5.157   1.970   1.526  0.1350  0.2053  0.0523
    1W        W57240  25.234   7.555   7.891  0.1075 -0.1535  0.1051
    1W        W57241  22.456   5.056   0.160  0.0563 -0.3903 -0.1040
    1W        W57242  20.775   6.316   0.752  0.2749 -0.0115 -0.1648
    1W        W57243   2.588   2.027   2.062 -0.0983  0.0486 -0.2178
    1W        W57244  14.282  17.630   7.956 -0.1436  0.4578  0.1088
    1W        W57245  29.681  22.791   8.788  0.0135 -0.0633 -0.0337
    1W        W57246  29.676   4.370   7.147 -0.6280 -0.3801 -0.2933
    1W        W57247   9.834   8.393   8.352 -0.1546 -0.0445 -0.0915
    1W        W57248   3.276   7.322   6.760 -0.1961  0.1133 -0.1366
    1W        W57249  20.916   0.069   0.612  0.0564 -0.3876  0.1908
    1W        W57250   6.659  21.280   0.212 -0.1719  0.2353 -0.0523
    1W        W57251   7.449   1.440   1.275  0.0563  0.0172  0.0837
    1W        W57252  23.553  21.147   9.400  0.0946  0.0486 -0.1430
    1W        W57253   3.690  26.766   0.591  0.0632 -0.2236 -0.3106
    1W        W57254   2.542   8.015   2.128  0.1787  0.1213  0.1590
    1W        W57255   9.141  15.272   1.035 -0.0752  0.2160  0.0745
    1W        W57256  23.107  21.573   8.117 -0.0116  0.0928 -0.2081
    1W        W57257  13.574   4.579   0.374  0.1185 -0.2044  0.1728
    1W        W57258   9.688   8.163   1.242 -0.2417  0.2949 -0.1834
    1W        W57259   4.217  27.375   0.001 -0.2262  0.1761  0.2763
    1W        W57260  20.183   9.857   0.784 -0.1474  0.1732 -0.0285
    1W        W57261  29.032  18.077   1.798 -0.3047 -0.0788 -0.1222
    1W        W57262   5.572   6.497   9.182  0.1416  0.1780  0.0474
    1W        W57263  17.723  18.315   1.374  0.1142 -0.0142 -0.1928
    1W        W57264  11.739   2.951   0.285 -0.3012  0.0398 -0.3871
    1W        W57265  22.245   1.695   2.552  0.2461  0.1019  0.2350
    1W        W57266  23.333  18.834   0.876 -0.3148  0.0643  0.3130
    1W        W57267  16.350  24.724   0.180 -0.0777  0.0507  0.3041
    1W        W57268  16.213  25.588   9.049  0.1015  0.2542  0.1682
    1W        W57269  28.029   9.991   0.007  0.1062 -0.3696  0.1978
    1W        W57270  25.759  16.321   7.112  0.0419  0.0573 -0.1738
    1W        W57271  20.220  17.628   8.779 -0.1816 -0.0277 -0.2246
    1W        W57272  14.748   0.267   0.159  0.0639  0.1294 -0.1360
    1W        W57273   7.252  27.461   3.251 -0.1619 -0.2060  0.0254
    1W        W57274  10.653  14.125   0.078  0.1293 -0.3897 -0.1946
    1W        W57275  21.414   7.242   8.272 -0.0032 -0.0419  0.0018
    1W        W57276  23.139  22.467   9.050 -0.1879  0.1435  0.2969
    1W        W57277  24.127   5.314   8.327  0.6328 -0.3304 -0.1070
    1W        W57278  27.081  20.219   9.385 -0.1326  0.2302  0.0129
    1W        W57279   7.376   6.280   8.889 -0.0161 -0.0513 -0.1245
    1W        W57280  27.590  10.309   6.587  0.0287 -0.0786  0.1331
    1W        W57281  27.880  14.080   1.401 -0.1354 -0.0361 -0.2018
    1W        W57282  12.665   7.264   1.565  0.1920 -0.0111  0.3329
    1W        W57283  21.770  16.103   8.250 -0.1746  0.0354  0.1689
    1W        W57284  24.715  23.838   7.203 -0.2598  0.1649 -0.0157
    1W        W57285  26.841   5.624   0.377  0.0295 -0.0300  0.1370
    1W        W57286  22.287   6.901   1.029  0.3604  0.1067 -0.3060
    1W        W57287   6.421   1.642   0.243  0.2238 -0.0944 -0.0100
    1W        W57288  15.395   9.030   1.288 -0.0171 -0.0904  0.3875
    1W        W57289   5.487  28.981   1.607  0.2519  0.0441  0.2742
    1W        W57290  18.803   7.022   1.068 -0.2123  0.1392 -0.0329
    1W        W57291   9.169   9.982   2.745 -0.5313  0.1855 -0.2778
    1W        W57292  14.063  26.495   8.814 -0.0433 -0.0935 -0.2295
    1W        W57293  12.458   4.596   6.494 -0.2379  0.1734  0.1795
    1W        W57294   1.462   5.512   8.411 -0.0156  0.1519  0.0833
    1W        W57295  20.009   9.456   0.591  0.0188 -0.3976 -0.1702
    1W        W57296  16.754  28.196   0.784  0.2369  0.0860 -0.2072
    1W        W57297  25.118  11.050   7.438 -0.1879  0.0246 -0.2060
    1W        W57298  23.040  20.564   6.867  0.3287  0.3256 -0.1381
    1W        W57299  10.089  12.401   9.296  0.1239 -0.1363  0.2525
    1W        W57300   4.784  26.422   1.400  0.2723 -0.1586 -0.0269
    1W        W57301  25.852  26.894   3.346 -0.0542 -0.0371  0.1901
    1W        W57302   4.160  29.066   7.974  0.0429 -0.0571 -0.0942
    1W        W57303  29.015  20.446   2.548 -0.0667 -0.0965  0.3735
    1W        W57304  26.306   8.246   8.015  0.0661  0.1334 -0.0585
    1W        W57305   7.759  11.669   6.828  0.2027 -0.1173  0.0974
    1W        W57306   5.904   7.557   1.618 -0.3763 -0.1620  0.2911
    1W        W57307  24.708  28.328   8.183  0.0088 -0.2180 -0.2587
    1W        W57308   2.541  23.942   1.729  0.1742 -0.0494 -0.0111
    1W        W57309  20.698   2.721   8.598  0.0257 -0.0100 -0.0036
    1W        W57310  20.645  20.199   0.054  0.1396  0.0750 -0.1689
    1W        W57311  12.793  25.198   9.279  0.0929  0.0190 -0.2002
    1W        W57312   2.839  20.993   9.144 -0.3972 -0.3622  0.0742
    1W        W57313  26.962   1.188   2.752 -0.0473  0.2002 -0.0160
    1W        W57314  10.449   6.708   2.226  0.2503  0.2198  0.1121
    1W        W57315  19.224   2.281   1.525 -0.1197  0.2384  0.0329
    1W        W57316  25.874   7.619   0.049 -0.0613 -0.1123 -0.0341
    1W        W57317  20.321  26.084   1.759  0.2528 -0.1698 -0.0530
    1W        W57318  13.170  25.194   2.795 -0.1729  0.0612  0.0438
    1W        W57319  24.279  19.600   7.343 -0.1093  0.0287  0.1757
    1W        W57320   9.374  26.930   7.352 -0.1989 -0.2036  0.0244
    1W        W57321  26.873  10.679   0.986 -0.1975  0.0991  0.0980
    1W        W57322  15.513  28.426   1.466 -0.1766  0.1734  0.2907
    1W        W57323  29.899  27.113   0.337  0.3924  0.1366  0.0058
    1W        W57324  12.447  10.488   8.005 -0.1733  0.2386  0.1034
    1W        W57325  17.151  17.141   8.320  0.0025 -0.0615  0.1291
    1W        W57326  23.241  19.736   2.604  0.1001 -0.0652  0.0089
    1W        W57327  24.232  25.625   7.712 -0.2178  0.1304  0.2952
    1W        W57328  26.090  18.622   8.175 -0.1742  0.2468 -0.0504
    1W        W57329   3.437   6.498   0.686  0.0001 -0.0134 -0.1054
    1W        W57330  24.456  23.787   0.896 -0.3106  0.0218 -0.2478
    1W        W57331  19.849   8.591   9.328 -0.0487  0.1047 -0.1893
    1W        W57332   9.810  20.508   2.003 -0.1708 -0.4173 -0.1065
    1W        W57333  21.431  23.980   6.318  0.1313  0.2532  0.2475
    1W        W57334   4.736  28.390   0.976  0.0881 -0.3568 -0.2114
    1W        W57335   2.678   6.579   1.305 -0.2453 -0.3141 -0.1055
    1W        W57336  24.552   2.537   9.384 -0.4542  0.0390  0.0116
    1W        W57337  29.671  26.128   6.065  0.0340 -0.1597  0.1176
    1W        W57338   8.686   7.990   2.579 -0.5102  0.0382  0.1089
    1W        W57339   6.353   9.461   8.862 -0.0809 -0.0388 -0.0694
    1W        W57340   4.838  22.930   5.969  0.0406  0.0099 -0.3223
    1W        W57341  23.982  21.801   0.575 -0.1377  0.0465 -0.1560
    1W        W57342  21.147  10.312   7.271  0.0405  0.1117  0.2431
    1W        W57343  12.197   4.487   0.747  0.1011 -0.0020  0.2337
    1W        W57344  15.167  15.871   1.191 -0.0843 -0.0720 -0.0881
    1W        W57345  10.296  15.267   1.735  0.1057 -0.0836  0.3766
    1W        W57346  17.347   0.002   0.228  0.1063 -0.2579 -0.0585
    1W        W57347  29.073   5.784   0.058 -0.0105 -0.1615  0.2689
    1W        W57348  13.092  11.108   7.873 -0.0200  0.2075 -0.0539
    1W        W57349  28.349  22.383   8.795 -0.2558 -0.2405 -0.0011
    1W        W57350   8.707  15.266   7.680  0.0486 -0.1686 -0.0030
    1W        W57351  15.141   6.182   1.161 -0.1214 -0.1546  0.1923
    1W        W57352   2.823  24.126   7.319  0.2135 -0.0496  0.1044
    1W        W57353  24.279  29.814   1.133  0.1876 -0.1239  0.2059
    1W        W57354  19.457  24.986   2.784  0.1158 -0.1958  0.0048
    1W        W57355  22.459  25.218   0.030 -0.2022  0.3516  0.0485
    1W        W57356  10.028  23.342   6.259  0.1681  0.2186  0.0231
    1W        W57357  17.278  18.666   7.194  0.3466  0.0463  0.0794
    1W        W57358  29.872  29.480   2.499 -0.2474  0.2940  0.1146
    1W        W57359  14.022  18.390   1.265 -0.0433 -0.3931 -0.0204
    1W        W57360   3.492   9.644   2.316 -0.2050 -0.1346 -0.0250
    1W        W57361  13.895   2.177   0.776  0.3358 -0.2667 -0.0251
    1W        W57362  21.400  19.528   1.776  0.0149 -0.0014  0.0316
    1W        W57363  15.567  16.010   7.465  0.1497 -0.0366 -0.0383
    1W        W57364   7.764  20.415   0.846 -0.0552 -0.1180  0.0079
    1W        W57365   5.062  23.462   1.964  0.0899  0.2585  0.1824
    1W        W57366  26.722  13.469   1.285 -0.0765 -0.3250 -0.0965
    1W        W57367  21.137   5.153   8.985  0.1122  0.0302 -0.2494
    1W        W57368  12.934  27.101   6.993  0.1616 -0.2453 -0.2668
    1W        W57369  12.419   1.763   2.879 -0.0413 -0.0424 -0.1420
    1W        W57370  11.957  11.853   7.435 -0.0060  0.3165 -0.0705
    1W        W57371   0.530  21.111   7.522  0.0590  0.1321  0.1109
    1W        W57372  15.479  10.153   8.920  0.0104  0.1449 -0.1747
    1W        W57373   4.591  10.851   1.939  0.1860 -0.0567 -0.1446
    1W        W57374   3.521  13.526   2.601  0.0168 -0.2605  0.0263
    1W        W57375  27.337   8.049   7.811 -0.0367 -0.1416 -0.3727
    1W        W57376   8.226   5.891   1.219  0.6152 -0.0944 -0.1317
    1W        W57377   2.096  26.868   2.052 -0.1499 -0.2439 -0.0370
    1W        W57378  22.644  12.788   0.902  0.1511 -0.2145  0.2929
    1W        W57379  17.971  29.004   9.253 -0.1150  0.2746 -0.0706
    1W        W57380   8.218  26.708   8.232  0.2378  0.0598  0.0771
    1W        W57381  14.526   5.593   2.934  0.0120 -0.0222  0.0580
    1W        W57382  17.557   6.731   7.851  0.1862 -0.3627  0.1305
    1W        W57383   1.558  22.876   2.334 -0.0045  0.1351 -0.1809
    1W        W57384   2.582  12.702   0.008  0.3586 -0.1368 -0.0200
    1W        W57385  17.757  10.757   0.409 -0.2015  0.3947  0.1561
    1W        W57386   1.826  11.912   6.926  0.1304  0.0517 -0.2951
    1W        W57387  10.228  25.289   8.073  0.1789 -0.2294 -0.0412
    1W        W57388   2.707  11.868   1.908  0.2389  0.2272 -0.0457
    1W        W57389  21.435   1.405   1.152  0.2442 -0.1034 -0.0722
    1W        W57390  20.044   6.686   0.955  0.0640 -0.0579 -0.3685
    1W        W57391   4.803  24.929   1.159 -0.0905 -0.0687  0.0214
    1W        W57392  25.765  23.228   6.337 -0.1537 -0.1727 -0.1885
    1W        W57393   5.638  16.304   1.878 -0.0020 -0.1212  0.2407
    1W        W57394  29.677   9.058   7.402 -0.1118  0.4271  0.0431
    1W        W57395  28.303   4.661   1.769  0.0850  0.0927 -0.2059
    1W        W57396   5.146  26.891   3.272  0.0918 -0.1014 -0.1628
    1W        W57397   3.843  24.346   6.855  0.1061 -0.3118 -0.0428
    1W        W57398   9.813  21.218   8.558  0.2280  0.2024  0.0981
    1W        W57399  29.644  23.375   7.730  0.0169  0.5784 -0.0566
    1W        W57400  14.498  25.764   8.304  0.0240  0.0154 -0.2515
    1W        W57401   6.798  11.405   8.772  0.0964  0.1117 -0.1041
    1W        W57402  24.033  23.093   2.407  0.0202 -0.0275  0.1684
    1W        W57403  26.163   2.606   2.063  0.1291 -0.2080 -0.3020
    1W        W57404   4.140  27.856   0.228 -0.0166  0.3177  0.0236
    1W        W57405   2.782   2.810   1.133 -0.0699  0.0397 -0.1075
    1W        W57406  13.502   9.102   2.915  0.3679 -0.1035  0.0669
    1W        W57407  23.201  23.417   7.583 -0.4101 -0.3890 -0.1004
    1W        W57408  22.340  19.499   9.253 -0.2850 -0.1753  0.1842
    1W        W57409  26.806  26.023   1.220  0.2531 -0.0902  0.3406
    1W        W57410   4.460   2.877   8.621  0.0744 -0.3930  0.0681
    1W        W57411  24.294  24.623   6.486  0.0733  0.3080 -0.2151
    1W        W57412  18.160   0.505   8.860  0.3144 -0.0003 -0.1195
    1W        W57413  13.305  21.921   2.237  0.2072 -0.0893 -0.0109
    1W        W57414  14.801  21.269   0.967 -0.0499 -0.0198  0.0966
    1W        W57415   0.361   6.000   2.972  0.1237 -0.0129  0.0360
    1W        W57416  15.634  16.994   0.271  0.0038  0.0688  0.0709
    1W        W57417  18.163   8.696   0.718  0.0994 -0.0616  0.3015
    1W        W57418  15.797  19.642   7.798  0.0271 -0.3532  0.0418
    1W        W57419   2.963  23.605   2.425 -0.4169 -0.3370  0.1951
    1W        W57420  14.520  15.406   8.067 -0.0263  0.2054 -0.2248
    1W        W57421  21.648  18.622   1.402  0.1468 -0.1816  0.2527
    1W        W57422  17.367   5.780   2.425  0.1698 -0.1588  0.0553
    1W        W57423  26.722   7.012   7.923 -0.1532 -0.1091 -0.2021
    1W        W57424  27.234  19.213   6.161 -0.2410  0.0102  0.1203
    1W        W57425   6.384  21.538   2.020  0.3540 -0.0324  0.0091
    1W        W57426   5.386   8.088   2.346  0.1726  0.1008 -0.0680
    1W        W57427   6.244   2.479   9.015  0.2740  0.0837  0.0866
    1W        W57428  23.234  26.264   7.624  0.0496 -0.1031  0.2632
    1W        W57429  17.068  28.599   2.353 -0.1530  0.1298 -0.2804
    1W        W57430  13.002   1.641   1.423 -0.4857  0.0283 -0.3284
    1W        W57431   2.291  24.972   0.907 -0.0842  0.1111  0.0478
    1W        W57432  25.405  24.053   6.733 -0.2537 -0.0338  0.0595
    1W        W57433  28.610  22.405   2.902  0.0884  0.0055  0.3637
    1W        W57434  28.189   3.331   8.297  0.1783 -0.1401 -0.0280
    1W        W57435  12.679  21.894   0.937  0.0668  0.0519  0.2556
    1W        W57436  23.835   9.653   8.878 -0.0860 -0.1036 -0.2789
    1W        W57437   1.790  18.602   0.559  0.2758  0.3254 -0.1428
    1W        W57438  18.615  14.273   9.305  0.0049  0.0953  0.0140
    1W        W57439   3.298  26.852   1.057 -0.2238 -0.0464 -0.1814
    1W        W57440  18.979  29.688   0.404 -0.0146 -0.4019 -0.0803
    1W        W57441  10.383  10.124   1.025  0.1082  0.3961 -0.1487
    1W        W57442  16.607   3.226   2.139  0.1821 -0.0850  0.0911
    1W        W57443   5.936   3.875   7.063 -0.1650 -0.0242 -0.2705
    1W        W57444   0.941   4.854   1.036 -0.3053 -0.0898 -0.4641
    1W        W57445   0.816   8.508   2.831  0.3688 -0.2590  0.1743
    1W        W57446  28.052   3.505   7.863 -0.0742  0.3056 -0.1477
    1W        W57447  16.002  19.027   9.166 -0.2933  0.1393 -0.1081
    1W        W57448   1.900  20.814   9.043  0.0478  0.1672 -0.1970
    1W        W57449  16.887  27.459   7.513 -0.0723  0.1066  0.3143
    1W        W57450   3.938  25.973   1.342  0.1071  0.1774  0.1309
    1W        W57451   1.403  10.205   7.469 -0.0446  0.3986 -0.0143
    1W        W57452  25.202   4.062   9.158  0.0169  0.2349  0.0966
    1W        W57453  13.313  28.794   8.550 -0.2694 -0.0848 -0.1246
    1W        W57454  29.244  19.090   1.290 -0.0867 -0.2250  0.3927
    1W        W57455   4.963  18.333   9.441  0.0108 -0.0397  0.1108
    1W        W57456   5.547  15.182   9.162 -0.3014  0.1137  0.3993
    1W        W57457   1.485   7.510   2.424 -0.0281 -0.1983  0.1339
    1W        W57458   9.415   5.700   2.196 -0.1984 -0.0038  0.2302
    1W        W57459  20.524   2.293   0.884  0.0648  0.2410 -0.0190
    1W        W57460   1.752  26.346   1.669 -0.3293  0.2864  0.3831
    1W        W57461   5.410  12.392   8.713 -0.1561  0.1662 -0.0960
    1W        W57462  19.262   3.331   8.525 -0.4638 -0.1853  0.0841
    1W        W57463  29.100   8.371   8.300  0.0509 -0.0425 -0.3685
    1W        W57464   4.523   3.314   8.928 -0.2063 -0.0744  0.0370
    1W        W57465  27.987   6.269   8.892  0.0312 -0.2369 -0.3589
    1W        W57466   7.374   1.085   1.975 -0.0696  0.1542 -0.0800
    1W        W57467   8.225  15.149   1.489  0.2118  0.1799  0.1863
    1W        W57468   5.919  10.136   8.280 -0.2121  0.2783  0.0883
    1W        W57469  11.065   9.713   8.190 -0.0585 -0.2250  0.0966
    1W        W57470  17.058  23.548   0.781  0.0273  0.0282 -0.3033
    1W        W57471  23.567   8.626   8.706  0.0027 -0.0555  0.0009
    1W        W57472   8.479   2.522   2.418  0.0529 -0.0084 -0.1491
    1W        W57473  13.999  29.220   3.658  0.1956 -0.1967  0.0634
    1W        W57474  29.704  21.163   8.044  0.2063 -0.3069 -0.0311
    1W        W57475  22.747  26.671   7.026  0.2238 -0.1432  0.5096
    1W        W57476   8.653  29.506   0.191  0.1309 -0.0182 -0.1765
    1W        W57477  28.936   3.838   2.557 -0.0729 -0.0598 -0.0361
    1W        W57478   2.406  11.898   6.456 -0.1465 -0.0513  0.0982
    1W        W57479   4.759   5.671   6.639  0.3132  0.1121 -0.1614
    1W        W57480   8.348  11.885   8.600 -0.0633  0.2833 -0.2175
    1W        W57481  20.121   9.125   7.539  0.0496 -0.3467 -0.1515
    1W        W57482  19.918   8.962   0.375 -0.1313  0.1403 -0.1051
    1W        W57483   2.204   6.094   6.607 -0.2552  0.0218  0.1205
    1W        W57484   3.806  26.608   7.778 -0.0784  0.2094  0.2749
    1W        W57485   2.156  22.475   1.426  0.0302 -0.0810 -0.0426
    1W        W57486  11.475  22.081   1.231  0.1467 -0.1077 -0.1253
    1W        W57487   1.506  18.600   1.091  0.0440  0.2455  0.1532
    1W        W57488  13.160  16.472   8.602 -0.0973 -0.2852 -0.0302
    1W        W57489  16.022  23.489   1.158  0.0984 -0.1931  0.0814
    1W        W57490   8.687  22.418   6.801 -0.1279 -0.2266 -0.2811
    1W        W57491  10.060   8.372   3.347  0.0449  0.3014  0.1753
    1W        W57492  27.395  27.681   1.343  0.2712  0.0643 -0.2042
    1W        W57493  12.044   5.792   0.615  0.3920 -0.2213  0.0183
    1W        W57494  18.850  18.353   7.598  0.0180 -0.0365  0.1318
    1W        W57495  25.699  22.765   1.573  0.2319  0.2530  0.0019
    1W        W57496  25.764  23.490   0.023 -0.0258 -0.1274  0.1830
    1W        W57497   6.190  13.950   1.566  0.0354  0.0844  0.0580
    1W        W57498  22.354   2.682   7.666  0.0981  0.0855  0.0577
    1W        W57499  22.566  17.120   1.469 -0.3013  0.1912 -0.1938
    1W        W57500   9.380   5.196   1.291 -0.2675  0.2188  0.1130
    1W        W57501  19.528  29.052   7.249 -0.2189 -0.3323 -0.3324
    1W        W57502  20.357  29.055   2.006  0.1034 -0.2519  0.1196
    1W        W57503  15.707  22.226   0.855 -0.2294  0.1350 -0.1192
    1W        W57504  29.743  29.015   1.781 -0.2201 -0.0711 -0.0329
    1W        W57505   3.052  13.334   1.745 -0.1978  0.1638 -0.0379
    1W        W57506   1.271   4.130   7.213  0.0826 -0.1454 -0.0182
    1W        W57507  12.659   1.261   0.707 -0.1327 -0.1439 -0.0005
    1W        W57508  12.037   7.141   7.808 -0.2574 -0.0917 -0.1155
    1W        W57509  19.423   4.609   7.686  0.0487  0.0746  0.0463
    1W        W57510  24.586   0.957   2.143  0.0426 -0.0745  0.0794
    1W        W57511  22.971  21.560   1.354 -0.1719  0.2994 -0.1181
    1W        W57512  27.327  11.153   9.288  0.0877 -0.3237 -0.1301
    1W        W57513  22.084   3.257   8.813  0.0578  0.4902  0.1647
    1W        W57514  26.409   9.056   2.133  0.0342 -0.1518  0.1397
    1W        W57515  25.069  28.198   0.007 -0.1301 -0.1228 -0.2263
    1W        W57516   7.962  20.640   6.461  0.0544 -0.0967 -0.0652
    1W        W57517  10.454   0.458   2.581  0.2645  0.1806  0.1045
    1W        W57518  20.694  11.763   7.609  0.0909  0.1608 -0.0446
    1W        W57519   4.787   7.247   0.213  0.1157 -0.1411  0.3067
    1W        W57520   5.145  10.286   1.311  0.0768  0.0716 -0.1648
    1W        W57521   4.939  14.109   1.182 -0.0536  0.0227 -0.1141
    1W        W57522  17.555  26.808   3.690  0.2710 -0.0082  0.0541
    1W        W57523  19.269  10.603   7.875  0.1110 -0.0725 -0.3670
    1W        W57524  29.239   8.691   9.077  0.3821 -0.0946 -0.0551
    1W        W57525   5.800  18.156   5.676  0.1789 -0.5857  0.4041
    1W        W57526  20.910  20.328   8.276 -0.3390  0.2246 -0.3040
    1W        W57527  16.779   6.848   2.245 -0.1596  0.1011 -0.1709
    1W        W57528  24.526   2.879   7.943 -0.2896  0.2203  0.0015
    1W        W57529  10.984   9.237   0.539  0.1262 -0.0074  0.0824
    1W        W57530  21.254  16.541   7.583  0.0511 -0.1972  0.0990
    1W        W57531  28.717  24.666   8.742  0.0989 -0.1108 -0.0421
    1W        W57532  13.745  21.794   8.122 -0.3686  0.1286  0.2603
    1W        W57533   9.394  18.436   7.504 -0.1110 -0.0512 -0.1090
    1W        W57534  10.030   8.053   2.151  0.3191 -0.1842 -0.0713
    1W        W57535   8.359  21.629   7.885 -0.0296 -0.2887  0.1055
    1W        W57536  26.831  17.104   8.021 -0.0735  0.2464 -0.3090
    1W        W57537   4.478   2.358   9.307 -0.0277 -0.0404  0.2237
    1W        W57538  11.510  27.855   8.352 -0.0244  0.0431  0.1066
    1W        W57539  14.042   7.875   3.093 -0.0260  0.0090 -0.0692
    1W        W57540  29.813   1.455   5.734 -0.0050  0.1082 -0.1874
    1W        W57541  11.756  17.260   0.529 -0.2657  0.2882  0.0204
    1W        W57542   3.444  26.403   0.751  0.1313 -0.0874 -0.3361
    1W        W57543  25.801   7.688   0.592  0.0043  0.0786 -0.0211
    1W        W57544   4.675   3.477   1.638 -0.0491  0.0686 -0.2857
    1W        W57545   2.282  28.826   8.323 -0.0114  0.0608 -0.0711
    1W        W57546  24.823  15.889   1.850  0.2114  0.0291  0.0275
    1W        W57547  12.470  24.364   8.236 -0.1688  0.1368 -0.2035
    1W        W57548  25.876  17.762   8.609  0.1701  0.1133 -0.3660
    1W        W57549   4.264  17.157   7.916 -0.0232 -0.1327  0.1110
    1W        W57550  16.257  29.090   7.736  0.0235 -0.0572 -0.1261
    1W        W57551  19.402   6.898   9.382  0.1784  0.0401 -0.2533
    1W        W57552  24.293  22.962   0.072 -0.0033 -0.1541  0.0254
    1W        W57553  17.333   6.911   2.192  0.0441 -0.2626 -0.2202
    1W        W57554  20.774   0.303   7.647  0.0582  0.1460  0.2914
    1W        W57555  12.058   0.101   2.967  0.3167  0.1505  0.0428
    1W        W57556   8.625  25.817   8.516  0.0347  0.0843 -0.0409
    1W        W57557  10.783  14.102   7.755 -0.2454 -0.1002 -0.2306
    1W        W57558  19.622  10.866   8.826  0.0690  0.4747  0.2903
    1W        W57559  16.775  27.013   1.645 -0.1553 -0.1802 -0.1176
    1W        W57560   1.567  29.323   1.854 -0.2863  0.2097  0.2204
    1W        W57561   0.637  23.467   1.377 -0.4076  0.0588 -0.1064
    1W        W57562   0.842  14.223   6.757 -0.4694  0.0803  0.2161
    1W        W57563  10.594  10.750   1.608  0.2355 -0.1768 -0.0606
    1W        W57564  25.758  21.202   8.977  0.1080 -0.0394  0.0941
    1W        W57565  21.582   7.260   8.802  0.0536  0.1342  0.0016
    1W        W57566  24.623  15.692   7.494 -0.2970 -0.2162 -0.0394
    1W        W57567  12.690  14.612   0.701 -0.1397  0.1195  0.1455
    1W        W57568   7.767   7.412   7.589  0.1524 -0.4301 -0.1162
    1W        W57569  29.372  23.928   0.485  0.1165  0.2946 -0.1526
    1W        W57570  21.504  11.862   6.872  0.5082 -0.1627  0.3189
    1W        W57571  20.065  29.600   0.184 -0.1956  0.1909 -0.2596
    1W        W57572  23.084   5.319   7.495  0.4140 -0.3239  0.0930
    1W        W57573  15.883   2.734   0.914  0.0168  0.1373  0.0068
    1W        W57574  26.946  24.233   1.353  0.1421  0.0621 -0.2620
    1W        W57575  17.675  21.914   8.721 -0.0062 -0.0067 -0.1565
    1W        W57576   7.382   3.285   1.909 -0.1967 -0.2994 -0.1071
    1W        W57577   4.094  15.305   8.727  0.0499 -0.2360  0.0172
    1W        W57578  22.513  27.479   1.137 -0.2280  0.1664  0.0603
    1W        W57579  26.702  14.776   1.905 -0.1632 -0.5851  0.0879
    1W        W57580  20.208  13.668   1.301  0.0958  0.1294 -0.2409
    1W        W57581  23.032  11.004   6.039 -0.2977  0.1133  0.0595
    1W        W57582  18.632   0.343   7.545 -0.0714 -0.2805  0.1540
    1W        W57583  22.556  22.865   2.181 -0.2554 -0.1184  0.1117
    1W        W57584  23.996   6.273   7.637 -0.1535 -0.1471 -0.2274
    1W        W57585  25.988  11.880   0.716  0.0716  0.1397  0.1994
    1W        W57586  10.600  20.932   8.906 -0.2075  0.0398 -0.2809
    1W        W57587  14.207  13.786   0.857  0.2190  0.0707  0.1803
    1W        W57588   3.944   6.287   2.429  0.1617 -0.1856 -0.0941
    1W        W57589  28.646  28.867   7.501 -0.0362 -0.0330  0.0469
    1W        W57590  23.879   2.596   2.715 -0.0202 -0.0799  0.2469
    1W        W57591   0.152  14.446   8.723 -0.0950  0.0862  0.0288
    1W        W57592  26.034   0.669   1.200 -0.0726  0.2589 -0.0394
    1W        W57593  14.045  17.362   8.745 -0.0566 -0.1976 -0.0290
    1W        W57594  25.820  22.190   8.140 -0.0296 -0.1942  0.0728
    1W        W57595  11.453  12.539   8.168 -0.0726 -0.0567 -0.0131
    1W        W57596  17.016   1.872   2.551 -0.0525 -0.2479 -0.0833
    1W        W57597  22.544  24.604   1.607 -0.0169 -0.1330  0.0243
    1W        W57598  29.491  18.624   7.099 -0.0455  0.2220 -0.2802
    1W        W57599  21.714   9.109   7.787  0.1968  0.2530 -0.1143
    1W        W57600  21.486   0.943   7.445 -0.1782 -0.0509 -0.0142
    1W        W57601  12.697  16.495   7.807 -0.0810 -0.1973 -0.1310
    1W        W57602  21.158   5.001   7.329  0.1141  0.1010  0.1460
    1W        W57603   0.115  27.369   3.052 -0.1918  0.1121 -0.2220
    1W        W57604  24.141   3.818   8.593  0.1323 -0.0138  0.2555
    1W        W57605  21.199  16.197   9.260 -0.0207 -0.4480 -0.4607
    1W        W57606  18.469  22.582   8.645  0.1696 -0.1401 -0.1163
    1W        W57607  11.919  16.858   8.639  0.2072  0.2396 -0.0384
    1W        W57608   2.477  26.921   9.022 -0.1531  0.0240 -0.0275
    1W        W57609   5.233  16.748   9.348  0.2170  0.0690 -0.0606
    1W        W57610  15.490  23.724   6.906 -0.0343 -0.0350 -0.0166
    1W        W57611  21.748  16.354   0.046 -0.2854  0.0229 -0.3696
    1W        W57612  21.074  14.833   0.777 -0.1655 -0.1203 -0.0830
    1W        W57613  27.983  13.343   0.321 -0.0348 -0.2273  0.0166
    1W        W57614  22.470  20.624   9.243  0.0807  0.1540 -0.0629
    1W        W57615   2.764  28.393   0.337 -0.0600 -0.0787  0.0224
    1W        W57616   9.007  18.169   7.848  0.0036 -0.1128  0.0305
    1W        W57617  26.907  13.937   1.066  0.0446 -0.0703 -0.1085
    1W        W57618  26.085  28.840   2.796  0.0826 -0.3687 -0.1621
    1W        W57619  20.640  28.138   9.400 -0.1147 -0.1960 -0.2021
    1W        W57620  14.081  13.966   7.928  0.1090 -0.1249 -0.3291
    1W        W57621   3.287   9.204   2.478 -0.0936 -0.1562  0.1575
    1W        W57622   8.767  23.479   8.700  0.1151 -0.1162  0.0630
    1W        W57623  23.109   2.757   7.175  0.2925 -0.3061 -0.2834
    1W        W57624  11.179   1.828   2.997  0.1841  0.0178 -0.0010
    1W        W57625  12.377  28.244   0.780 -0.1338  0.1267 -0.0904
    1W        W57626   9.189   0.907   2.255 -0.0440 -0.0728  0.0792
    1W        W57627  24.314  28.088   0.680  0.3382  0.2073 -0.0045
    1W        W57628   6.325  19.731   9.190 -0.1047  0.1345 -0.1096
    1W        W57629   1.465   7.031   0.213 -0.2685 -0.2246 -0.1693
    1W        W57630   0.065   8.650   0.417  0.0848 -0.0768 -0.0569
    1W        W57631   2.249  20.503   9.143  0.0187 -0.0728 -0.2334
    1W        W57632  26.019  10.558   8.668 -0.1735 -0.0047  0.3590
    1W        W57633  26.964   9.750   9.006 -0.2868 -0.2353 -0.1565
    1W        W57634  22.760  27.531   0.007 -0.1220 -0.1360  0.0550
    1W        W57635  21.215  19.857   7.341  0.0124 -0.1803 -0.1253
    1W        W57636  28.351   5.931   0.086 -0.1268 -0.2077 -0.1933
    1W        W57637  11.409  29.132   8.164 -0.0440  0.1056  0.0164
    1W        W57638  29.830  16.626   7.560  0.1080 -0.1072  0.0151
    1W        W57639  14.972   2.531   7.493 -0.4161 -0.1592  0.1089
    1W        W57640  22.974  24.023   2.662 -0.3251  0.1601 -0.0416
    1W        W57641   8.674  22.045   7.869  0.3490  0.1567 -0.2731
    1W        W57642  19.270   8.133   1.606  0.3372  0.1735 -0.1849
    1W        W57643   8.185   0.284   2.812 -0.0055  0.2130  0.2039
    1W        W57644  27.744  21.617   7.256 -0.1689 -0.0592  0.1236
    1W        W57645  14.205  22.545   8.442 -0.0313  0.2467 -0.0993
    1W        W57646  13.023   0.572   2.340 -0.2195 -0.0903 -0.2334
    1W        W57647   9.424   9.309   1.616 -0.1380  0.0789  0.1366
    1W        W57648   2.549  10.638   7.082  0.0565 -0.3492  0.0523
    1W        W57649  23.648  22.105   0.261 -0.2106 -0.0838  0.0533
    1W        W57650  28.384  22.379   7.982  0.0179  0.0998  0.2775
    1W        W57651  25.368   0.642   7.943 -0.0727  0.2381 -0.2380
    1W        W57652  20.148  12.310   8.733  0.1741  0.1346  0.1977
    1W        W57653   9.696   2.689   7.846 -0.1370 -0.0383  0.2809
    1W        W57654   4.442  14.923   1.101 -0.0621  0.0053 -0.3641
    1W        W57655  18.521  27.443   0.635  0.2760 -0.0570  0.2226
    1W        W57656  16.879  22.260   8.479 -0.0698  0.1292  0.3668
    1W        W57657  15.972  20.654   8.201 -0.1573 -0.2578  0.2718
    1W        W57658  26.130   7.579   9.042  0.0227 -0.3061 -0.1790
    1W        W57659   3.280  25.392   1.935  0.1534  0.0198  0.0864
    1W        W57660   1.326  15.060   7.831  0.1319 -0.1376 -0.2390
    1W        W57661   8.310  16.272   7.304 -0.0731 -0.1631  0.0110
    1W        W57662  11.782  25.968   6.810  0.0527 -0.2312 -0.0092
    1W        W57663   8.286  16.733   8.662  0.3290 -0.2043 -0.0723
    1W        W57664  27.123   9.817   0.037 -0.0204  0.0127  0.0986
    1W        W57665  26.410   9.851   1.091  0.0013  0.1774 -0.1737
    1W        W57666   8.133  21.347   9.032 -0.0292 -0.2117  0.1548
    1W        W57667  11.362   3.774   8.778 -0.2009  0.1762 -0.1864
    1W        W57668  29.418  11.377   1.942 -0.0906 -0.0333 -0.1973
    1W        W57669  12.433  15.242   8.276  0.4196  0.2814 -0.2169
    1W        W57670   0.681  20.142   6.946 -0.4752  0.0204 -0.2009
    1W        W57671   9.549  26.248   8.352 -0.1798 -0.3856 -0.0739
    1W        W57672   0.932   7.654   6.320  0.2173 -0.2348  0.1505
    1W        W57673  29.519  14.747   8.798 -0.1359  0.3321 -0.3255
    1W        W57674  29.548   2.115   1.938 -0.0277  0.0691 -0.0435
    1W        W57675  25.741  29.296   8.369 -0.1483  0.4165  0.0034
    1W        W57676  12.692  28.652   8.379 -0.0606 -0.0405 -0.0899
    1W        W57677  17.292  13.418   1.633  0.1040 -0.1377  0.0160
    1W        W57678  17.342  14.298   1.737 -0.1628 -0.0618 -0.1266
    1W        W57679  20.199   0.432   1.666  0.0680  0.1295 -0.0335
    1W        W57680  28.086  15.033   8.114  0.2371 -0.0348  0.0407
    1W        W57681  13.099   0.303   9.213  0.0439 -0.2167 -0.0018
    1W        W57682  13.093  15.381   1.064  0.0221 -0.2310 -0.0595
    1W        W57683  24.168   7.645   8.102 -0.0227  0.1850  0.0685
    1W        W57684  17.723   1.611   7.350 -0.3408 -0.2766 -0.0245
    1W        W57685  19.544  25.379   3.107 -0.2831  0.1868 -0.0283
    1W        W57686  16.722  26.445   7.246  0.0559 -0.2307 -0.1417
    1W        W57687   9.947   2.356   1.304  0.1128  0.0806  0.1367
    1W        W57688  15.542   8.190   7.234  0.2219  0.0741  0.3245
    1W        W57689  23.506  22.298   2.926 -0.0737  0.1274  0.0080
    1W        W57690  14.738  15.606   7.628 -0.0487  0.0722 -0.0530
    1W        W57691  25.547   0.298   1.099  0.1935  0.3812 -0.0975
    1W        W57692   6.423   1.199   9.233  0.0865  0.0362 -0.0745
    1W        W57693   3.763  26.936   1.363 -0.0653  0.0917  0.0850
    1W        W57694  15.791   6.218   0.548 -0.0529 -0.2356  0.0790
    1W        W57695   7.321  13.458   0.465  0.1751  0.1205 -0.0629
    1W        W57696   2.450   3.683   9.130 -0.1658  0.0726  0.0615
    1W        W57697  22.901  24.401   1.904  0.4401 -0.5021 -0.1268
    1W        W57698   0.106   8.888   8.359  0.0741 -0.1802 -0.1910
    1W        W57699  26.517  19.377   8.042  0.1671 -0.1708 -0.2035
    1W        W57700  22.367   6.177   2.662  0.1604 -0.2037 -0.3201
    1W        W57701   2.081   5.373   7.232 -0.0897  0.1389 -0.0580
    1W        W57702  18.098  19.770   2.599  0.0809  0.2479  0.4117
    1W        W57703  21.101   1.707   1.489  0.1555 -0.3860  0.0210
    1W        W57704  23.229   2.225   6.611 -0.1454 -0.2296 -0.0180
    1W        W57705  23.107   1.766   0.091 -0.3815  0.0271  0.2282
    1W        W57706  15.829   0.387   0.517 -0.1202 -0.1731 -0.2858
    1W        W57707   9.292  28.657   2.952  0.4698 -0.0163 -0.1131
    1W        W57708   3.545  12.374   6.888 -0.3442 -0.3295  0.1753
    1W        W57709  17.265  26.604   7.344 -0.1535 -0.1066 -0.0248
    1W        W57710  19.835  29.421   1.835 -0.3231  0.1292 -0.4402
    1W        W57711   3.889  24.058   7.900 -0.1850  0.3004 -0.1105
    1W        W57712   6.008   0.784   1.450 -0.6514 -0.0580  0.0136
    1W        W57713  27.255   4.691   0.282  0.2104 -0.3744  0.1307
    1W        W57714  15.346   4.433   0.230 -0.0815 -0.1110  0.1739
    1W        W57715   2.735  10.288   2.130 -0.1522  0.1024 -0.1617
    1W        W57716  28.744   6.802   1.109 -0.0482  0.2238 -0.1342
    1W        W57717   2.926   9.698   7.416 -0.0724 -0.0810 -0.0904
    1W        W57718  27.343   7.722   6.470  0.0415  0.1709 -0.1208
    1W        W57719   2.066  18.225   7.641  0.0966 -0.2189 -0.0854
    1W        W57720  26.691  14.875   0.040 -0.1126 -0.2229  0.0291
    1W        W57721   4.564  10.990   2.461 -0.0381  0.1739 -0.0691
    1W        W57722  24.706  18.046   5.983 -0.0852  0.0207  0.0269
    1W        W57723  11.228  11.963   1.276 -0.0213  0.4362  0.0110
    1W        W57724  27.157  18.153   7.935 -0.0905 -0.0207  0.0239
    1W        W57725  20.497  25.490   2.871  0.0408  0.2011  0.1595
    1W        W57726   5.484   4.705   8.059 -0.1338 -0.2724 -0.0650
    1W        W57727  10.321  26.150   8.024  0.1415  0.3968 -0.0492
    1W        W57728  21.718   7.335   7.879 -0.2806 -0.1035 -0.0797
    1W        W57729  28.923  29.807   6.806 -0.0380  0.1929  0.1231
    1W        W57730  16.168   3.984   8.880 -0.1931  0.2669 -0.1923
    1W        W57731  19.975   0.696   0.295 -0.0885  0.0645 -0.1134
    1W        W57732  14.221   6.853   2.156  0.1934 -0.3774  0.1060
    1W        W57733  19.394   2.998   2.593  0.1495  0.0138  0.1323
    1W        W57734  20.026   9.117   2.866  0.0117  0.1490  0.0540
    1W        W57735   1.431  22.135   1.256 -0.0974  0.1878  0.2669
    1W        W57736   1.258   8.302   9.004 -0.2347  0.0266  0.2622
    1W        W57737   5.585   7.833   9.077 -0.0296  0.0372 -0.0855
    1W        W57738  19.975   7.627   8.050 -0.2468  0.0847  0.1272
    1W        W57739   7.750  20.047   7.187 -0.1106  0.4915  0.1610
    1W        W57740   5.378  10.776   1.679  0.1201  0.0771 -0.0403
    1W        W57741  21.420  24.621   1.901  0.0275  0.0184  0.2182
    1W        W57742  12.793   1.439   7.407  0.1867 -0.0682 -0.3903
    1W        W57743  18.093  26.238   2.532 -0.1260 -0.1457  0.0374
    1W        W57744  23.202  24.077   7.410  0.0314  0.0339 -0.0769
    1W        W57745  17.915   5.610   8.228 -0.0064  0.0660  0.2826
    1W        W57746   8.783  13.735   9.030  0.0648 -0.2737 -0.0286
    1W        W57747  23.073  22.741   2.519 -0.0588 -0.1208  0.1171
    1W        W57748   2.931   7.060   7.053 -0.2027 -0.3926 -0.0426
    1W        W57749  20.287  29.888   1.962 -0.0302 -0.2785  0.0770
    1W        W57750   3.159  16.598   7.473  0.1054 -0.2329 -0.0590
    1W        W57751  10.099  27.631   7.373  0.0685  0.1781 -0.1256
    1W        W57752   4.096  28.524   6.964 -0.1438 -0.1956  0.2748
    1W        W57753  14.859  13.571   7.744  0.1287  0.1495  0.0431
    1W        W57754  23.617   9.801   8.022 -0.1452 -0.2237  0.0251
    1W        W57755  26.326  21.728   0.119  0.1491 -0.0971 -0.0405
    1W        W57756  21.612   7.908   1.460 -0.0445  0.1227 -0.1695
    1W        W57757  18.408  26.118   9.335 -0.2413 -0.2335 -0.0537
    1W        W57758   2.128  18.888   2.437 -0.1802 -0.0449 -0.3826
    1W        W57759   7.510  18.367   7.240 -0.2142 -0.0187 -0.0573
    1W        W57760   9.085  17.031   9.156 -0.1791  0.0878  0.0082
    1W        W57761  28.297  22.887   8.742  0.2225 -0.3575  0.3037
    1W        W57762  10.729  17.607   8.398  0.2124 -0.2711  0.2533
    1W        W57763  24.534  11.647   1.943  0.0481 -0.0399  0.1316
    1W        W57764   4.594  10.918   9.124  0.0458  0.2428  0.0545
    1W        W57765  22.578   9.602   0.566 -0.1555 -0.1350 -0.0508
    1W        W57766   0.845  22.596   8.963  0.1505 -0.1441  0.0770
    1W        W57767   6.080  13.462   7.385 -0.0217  0.0799 -0.0470
    1W        W57768  29.520   0.688   7.470 -0.0818  0.3090 -0.3799
    1W        W57769  17.140  26.523   6.839  0.0554  0.4373 -0.3472
    1W        W57770  20.533  21.238   1.114 -0.1210  0.1134 -0.0954
    1W        W57771  18.040  21.422   1.933 -0.0769  0.0795  0.3658
    1W        W57772  11.862   9.354   8.072  0.1600 -0.1797 -0.0469
    1W        W57773  11.154  16.077   0.482 -0.2355 -0.0245  0.0542
    1W        W57774  10.684   1.889   6.982 -0.1489  0.0839  0.1447
    1W        W57775  27.184   0.864   3.089  0.1689 -0.1533  0.2419
    1W        W57776  22.528  21.008   8.167 -0.0375  0.1100 -0.1352
    1W        W57777  21.409   8.117   7.070 -0.1394 -0.3287  0.0619
    1W        W57778  12.363  13.515   2.020 -0.2553  0.2610  0.2287
    1W        W57779  26.437  20.403   1.017  0.0778 -0.1472 -0.0749
    1W        W57780  19.192  20.242   7.576  0.1243 -0.3636  0.0480
    1W        W57781  23.575   3.148   7.804  0.2384 -0.2072 -0.0284
    1W        W57782   7.509  28.232   1.120  0.1413 -0.0450 -0.0783
    1W        W57783  14.573  28.918   0.251 -0.2092 -0.1238  0.0559
    1W        W57784   0.977   9.583   0.387 -0.1570  0.1520  0.0285
    1W        W57785  25.108  28.212   3.138 -0.0127  0.2076 -0.3452
    1W        W57786  22.162  11.289   2.016 -0.3832  0.1723  0.1363
    1W        W57787  21.298  23.690   6.796  0.0542  0.0107  0.0700
    1W        W57788  18.294   8.111   7.801 -0.0468 -0.1785  0.0892
    1W        W57789   6.285  11.680   8.781  0.1066 -0.0524  0.0834
    1W        W57790   3.900  21.665   0.084 -0.0087  0.0508  0.2056
    1W        W57791   4.541  17.369   0.794 -0.0658 -0.0389  0.0332
    1W        W57792   5.043  11.768   2.393 -0.1316 -0.0552 -0.0646
    1W        W57793  17.457   3.043   2.666  0.4275  0.0275  0.0419
    1W        W57794  18.408  29.467   6.909 -0.2940  0.0683  0.3658
    1W        W57795  14.714  16.755   9.338  0.2866  0.2642 -0.0455
    1W        W57796  17.096   4.250   0.702 -0.0227  0.3357 -0.3241
    1W        W57797  28.914  21.337   2.178  0.2496  0.4865 -0.1273
    1W        W57798   4.797   7.704   7.572 -0.2744 -0.0131  0.2684
    1W        W57799  13.680  26.867   6.431  0.1811  0.1763  0.1879
    1W        W57800  13.069  28.137   0.719  0.1337 -0.2659 -0.3826
    1W        W57801  12.322  14.953   1.979 -0.2343  0.2069  0.1305
    1W        W57802  20.225  23.154   0.889 -0.0418  0.0132  0.0062
    1W        W57803  26.661   5.380   7.110  0.0320  0.1446  0.1611
    1W        W57804  13.670  17.714   2.272  0.0540  0.2680 -0.1029
    1W        W57805  27.049  16.620   9.266  0.1166 -0.0911  0.0922
    1W        W57806  11.805  29.038   8.836 -0.3115 -0.2539 -0.1635
    1W        W57807  14.699  20.132   8.693  0.3365  0.1704  0.1783
    1W        W57808  24.691   9.445   1.758  0.3097 -0.1384  0.0927
    1W        W57809   2.382   0.087   8.850 -0.1340 -0.1456 -0.3665
    1W        W57810  22.333  11.154   8.197  0.0973 -0.0559  0.1192
    1W        W57811   1.413  18.862   7.434 -0.1531 -0.0857  0.1035
    1W        W57812  26.459  23.717   7.171  0.1955  0.1449  0.2517
    1W        W57813  23.408  17.932   7.357  0.1716 -0.0684 -0.1238
    1W        W57814   0.122  19.636   0.555  0.0181  0.2289  0.0986
    1W        W57815  12.039  14.665   1.250 -0.1425 -0.1492 -0.1508
    1W        W57816  23.691  14.733   0.652 -0.1955 -0.2971  0.2074
    1W        W57817  13.276  29.670   7.929  0.0894 -0.1384 -0.0690
    1W        W57818  14.812   0.643   8.057  0.0226  0.1831 -0.0230
    1W        W57819  23.044  16.648   0.176 -0.0192 -0.2039 -0.2596
    1W        W57820  17.554  14.238   0.807  0.0098 -0.1655 -0.1077
    1W        W57821  12.912   4.681   3.258  0.2116 -0.1283 -0.1390
    1W        W57822  20.191   3.962   7.704  0.1734  0.0306 -0.2825
    1W        W57823  25.647  16.942   1.977  0.0873 -0.1573 -0.1167
    1W        W57824   7.385  25.189   6.368  0.0220  0.0601  0.2342
    1W        W57825  27.673   5.957   2.180  0.1444 -0.0320  0.1685
    1W        W57826   6.615  15.831   7.114  0.2532 -0.1309 -0.1832
    1W        W57827  14.355  25.412   7.474  0.0952  0.0973 -0.2101
    1W        W57828  16.114  17.598   1.034 -0.0010 -0.2597  0.1182
    1W        W57829  11.526   2.153   1.753 -0.0749 -0.0939 -0.0154
    1W        W57830   0.121  24.565   6.785 -0.0619 -0.2409 -0.0573
    1W        W57831  10.069   3.705   4.010  0.1577 -0.1133 -0.0369
    1W        W57832  23.744  20.334   3.401  0.1327  0.0953 -0.1860
    1W        W57833  19.316  19.078   2.153  0.1453 -0.5693  0.1534
    1W        W57834  10.259   6.310   3.043  0.0588 -0.0827  0.0697
    1W        W57835  12.267  28.127   2.467  0.1388 -0.1353  0.1741
    1W        W57836   3.485   4.081   7.526 -0.3309 -0.1943 -0.2758
    1W        W57837   0.410  28.824   1.046  0.0462  0.1669  0.1513
    1W        W57838  15.611  17.076   8.175 -0.0788  0.1932 -0.0398
    1W        W57839   0.937  24.657   7.167  0.3173  0.2449 -0.1322
    1W        W57840  12.068   6.342   7.548  0.0415 -0.0412  0.1952
    1W        W57841   2.957  10.066   1.307 -0.0985  0.1858 -0.0569
    1W        W57842  12.706  10.365   1.632 -0.1926  0.0961 -0.1047
    1W        W57843  22.467   0.442   8.074  0.5791 -0.0539  0.1954
    1W        W57844   2.467   8.908   3.333  0.0120 -0.0979  0.0147
    1W        W57845   2.449  29.425   0.568 -0.0649 -0.2500 -0.1785
    1W        W57846  19.472  21.576   1.940 -0.4213 -0.3583  0.0127
    1W        W57847  10.305  28.890   9.108 -0.1156  0.2388  0.4983
    1W        W57848   2.150   9.446   1.243 -0.1200 -0.1540 -0.1504
    1W        W57849  16.423  23.888   7.337  0.0213  0.2040  0.1551
    1W        W57850  18.307   2.168   0.833  0.0202 -0.0782 -0.1909
    1W        W57851  27.330   0.350   8.724 -0.3001  0.0166  0.2344
    1W        W57852  24.697   8.346   0.197  0.1314 -0.3605  0.0234
    1W        W57853  12.697  27.866   7.722 -0.2083 -0.3493  0.2158
    1W        W57854   6.488  14.632   1.116 -0.0547 -0.1509  0.1033
    1W        W57855   3.511   8.682   6.612  0.2200  0.2910  0.1059
    1W        W57856  27.184  21.261   7.976 -0.0987  0.2929  0.2466
    1W        W57857  12.725   4.409   9.315  0.0051  0.6842  0.0268
    1W        W57858  14.047  20.462   7.267  0.1131  0.4199 -0.1742
    1W        W57859   4.714   9.278   2.042 -0.1743  0.0237  0.2283
    1W        W57860  15.871  19.794   0.308  0.0711  0.1132 -0.2298
    1W        W57861   4.305  25.655   6.772  0.0483  0.1921  0.0406
    1W        W57862  27.416  29.758   9.271 -0.2175 -0.0149 -0.2105
    1W        W57863   7.005   6.579   8.661 -0.1868 -0.3219 -0.2217
    1W        W57864  16.241  25.335   0.341 -0.1012 -0.0602 -0.0103
    1W        W57865  26.303  11.565   0.942  0.2581 -0.0309  0.1496
    1W        W57866  19.232  13.779   8.888  0.2110 -0.1329 -0.3448
    1W        W57867  23.215   2.107   1.574  0.1052 -0.0356  0.1615
    1W        W57868  12.775   3.626   8.981 -0.5021  0.1888 -0.2403
    1W        W57869  11.551  14.780   1.177  0.1405 -0.2616  0.2330
    1W        W57870   2.425  15.473   0.324 -0.2914  0.1239 -0.1412
    1W        W57871  25.749  10.283   0.104 -0.1388 -0.0298  0.2197
    1W        W57872  23.788  10.512   1.487 -0.1097 -0.2206  0.1730
    1W        W57873   9.936   7.381   0.889  0.0590 -0.1195  0.1201
    1W        W57874   3.155  20.663   6.789  0.2217  0.0092 -0.0264
    1W        W57875   6.799   9.621   0.854 -0.0500  0.0332  0.3746
    1W        W57876  24.989   6.572   2.511  0.2122  0.1830 -0.1020
    1W        W57877   3.567  29.432   8.774 -0.1479  0.1296 -0.1044
    1W        W57878   0.057   6.555   7.386  0.0696  0.1295  0.0640
    1W        W57879   7.558  15.098   8.377 -0.1073 -0.3595  0.1936
    1W        W57880  16.941   2.635   0.924  0.1565  0.0730 -0.3492
    1W        W57881  13.318  21.019   7.521 -0.1227  0.0053 -0.1103
    1W        W57882  22.442   7.916   1.222 -0.2613 -0.1661  0.2574
    1W        W57883  15.695  11.556   8.144  0.1735  0.2686  0.3264
    1W        W57884  10.622   0.301   9.329  0.0789  0.2221  0.2559
    1W        W57885  27.044   8.771   2.870 -0.0338  0.1220 -0.1510
    1W        W57886  25.166  29.690   0.956 -0.2380  0.1881 -0.0718
    1W        W57887   4.710   6.840   7.004  0.0705  0.0189  0.3283
    1W        W57888   2.859  26.934   6.723 -0.3150  0.0551  0.1016
    1W        W57889  29.073   8.827   8.588  0.3298 -0.1726 -0.3923
    1W        W57890  26.946  22.338   2.453 -0.0251 -0.1432  0.4606
    1W        W57891  23.786   5.179   6.788 -0.2790  0.0305 -0.3240
    1W        W57892  22.549   1.304   2.372  0.0510 -0.2165 -0.1675
    1W        W57893   0.331  28.145   7.418  0.1347  0.3664  0.2788
    1W        W57894   1.682  19.923   1.260 -0.1030  0.1989 -0.0291
    1W        W57895  29.881   8.095   8.990  0.1400  0.0295  0.0433
    1W        W57896  13.205  15.892   1.180 -0.1891  0.0073 -0.1863
    1W        W57897  15.069  10.411   1.007 -0.0665  0.1423  0.0646
    1W        W57898  14.862  17.377   8.595  0.1232 -0.1357  0.2127
    1W        W57899   0.315  15.948   0.794  0.1749  0.0940  0.0614
    1W        W57900  14.918  17.290   0.581 -0.1316 -0.0379  0.2143
    1W        W57901  17.847  17.456   0.836  0.2742  0.0176  0.0613
    1W        W57902   5.307   1.149   1.934  0.1711 -0.1821 -0.1453
    1W        W57903  16.419  10.886   6.679 -0.0716  0.1895 -0.0890
    1W        W57904  11.820  21.186   9.323 -0.2196 -0.1574 -0.1765
    1W        W57905  10.603  16.519   1.609 -0.0398 -0.1375 -0.1297
    1W        W57906   2.601  13.038   7.274  0.2019 -0.0488 -0.1758
    1W        W57907  27.367  12.216   0.095  0.1809 -0.0865 -0.0417
    1W        W57908  21.747  25.087   7.432 -0.0067 -0.4905 -0.0856
    1W        W57909  22.051   8.780   7.833 -0.1957  0.2198 -0.1347
    1W        W57910   5.839  26.433   8.086  0.1333  0.2060 -0.1443
    1W        W57911   7.394  19.831   8.586 -0.0208  0.1687 -0.2169
    1W        W57912  19.345  13.525   1.350 -0.0047 -0.4343  0.1293
    1W        W57913  13.346   6.675   0.089 -0.1412  0.1588 -0.0616
    1W        W57914  15.043  18.251   1.497 -0.0434  0.4419 -0.0190
    1W        W57915  28.012  24.841   0.757  0.1070 -0.0812 -0.1128
    1W        W57916  12.759   0.919   7.249 -0.1229 -0.0185  0.1639
    1W        W57917  26.534  26.442   0.356  0.1777  0.2415 -0.1767
    1W        W57918  22.971  26.589   9.156 -0.0415  0.0794 -0.0486
    1W        W57919  29.721   9.916   0.901  0.3630 -0.0549 -0.1324
    1W        W57920  18.363  29.270   8.522 -0.2304  0.4396 -0.0877
    1W        W57921  25.940  23.685   0.426 -0.0627  0.0085 -0.3932
    1W        W57922  23.658  13.208   0.919  0.2049 -0.0038 -0.3440
    1W        W57923   1.094  15.784   0.153  0.1064  0.1033 -0.0050
    1W        W57924  20.814   3.523   0.384 -0.3764 -0.3493  0.0453
    1W        W57925  19.210  24.579   8.234 -0.1856 -0.1434 -0.0618
    1W        W57926   7.535  18.959   8.325 -0.0706 -0.3793 -0.1705
    1W        W57927  12.816  27.480   2.870 -0.0990 -0.0354 -0.4217
    1W        W57928   0.273   4.407   7.335 -0.1101 -0.2764  0.0160
    1W        W57929  19.936  19.050   8.997  0.0922  0.2126  0.1444
    1W        W57930  12.868   1.868   8.218 -0.0294 -0.3103  0.0825
    1W        W57931  21.581  24.911   9.053  0.1875  0.0198  0.2568
    1W        W57932  28.556  29.853   2.844 -0.2482  0.0816 -0.1992
    1W        W57933  26.471  28.912   6.683 -0.0361 -0.1006 -0.1229
    1W        W57934  12.590  12.656   0.404 -0.2334  0.1651  0.0920
    1W        W57935  15.746   0.277   1.631  0.0588 -0.0756  0.1425
    1W        W57936  22.070   7.232   0.218  0.0209  0.2368  0.1667
    1W        W57937   7.697   6.991   8.886  0.1043  0.0169 -0.0199
    1W        W57938  20.780   3.113   7.298  0.1332 -0.0163 -0.0750
    1W        W57939   3.661   9.462   2.790 -0.1326  0.0734 -0.0051
    1W        W57940   6.697  28.390   9.225 -0.0336  0.0141  0.0315
    1W        W57941   8.491   1.642   6.899 -0.0086 -0.1002  0.0003
    1W        W57942   7.136  27.359   6.841  0.0242  0.1258 -0.2213
    1W        W57943  21.841  19.058   6.505 -0.2965  0.2182  0.1103
    1W        W57944  17.109  13.071   7.511  0.1813  0.2967 -0.2907
    1W        W57945   8.020  24.261   0.153 -0.0990  0.1315  0.0654
    1W        W57946  26.750   7.061   2.031 -0.0763 -0.0541  0.0697
    1W        W57947  28.836  20.686   6.788 -0.2033 -0.3442 -0.1527
    1W        W57948  28.091  18.101   1.278  0.3960  0.1323  0.0993
    1W        W57949  22.118   2.804   2.270 -0.1832 -0.1136  0.2709
    1W        W57950  25.983  14.880   7.740  0.2391 -0.0530  0.1152
    1W        W57951   8.688  16.254   7.632 -0.0820  0.1574  0.0385
    1W        W57952   7.306  14.743   8.695 -0.0748 -0.1175 -0.0180
    1W        W57953  19.204  19.228   1.007 -0.2926 -0.1438  0.0878
    1W        W57954  10.841  27.791   1.061  0.0243  0.1027  0.2230
    1W        W57955  11.684  26.354   0.903  0.0339 -0.1609 -0.0222
    1W        W57956  25.442  29.756   2.503 -0.0419  0.0951  0.1292
    1W        W57957   7.977  21.705   8.303  0.0517 -0.1983  0.1419
    1W        W57958  20.807   5.693   2.275 -0.2718  0.1414  0.0971
    1W        W57959  12.351  15.080   8.926  0.4222  0.2768  0.1387
    1W        W57960  12.394   4.942   1.674  0.0741  0.1208  0.1565
    1W        W57961  14.020  15.075   6.768  0.0880 -0.0407  0.0097
    1W        W57962   6.201  23.572   8.292 -0.0745  0.0165  0.1172
    1W        W57963  21.558   4.910   1.830  0.0064 -0.0605 -0.1112
    1W        W57964   3.706   9.934   0.225  0.1334 -0.3087  0.1128
    1W        W57965  10.805   2.280   2.207 -0.0114 -0.1867 -0.2179
    1W        W57966  16.329  24.838   0.721  0.1486 -0.0533  0.0379
    1W        W57967   8.516   3.127   2.421  0.1774 -0.0907 -0.0472
    1W        W57968  26.072  29.311   2.623  0.0643  0.0043 -0.0898
    1W        W57969   0.581  22.172   0.154 -0.3021  0.0407  0.0545
    1W        W57970  14.089  13.299   6.806 -0.3789  0.1155 -0.0008
    1W        W57971   9.648  25.358   2.514  0.0673  0.1736  0.3446
    1W        W57972  21.064   9.450   6.687  0.2501 -0.0005  0.1301
    1W        W57973   9.682  19.519   8.075  0.4490 -0.0867 -0.2078
    1W        W57974   1.493  25.501   1.766  0.4003 -0.0868  0.0404
    1W        W57975   6.468  10.614   8.829  0.0471 -0.1114  0.1617
    1W        W57976  16.908   6.599   6.976  0.0411  0.0727 -0.3969
    1W        W57977  15.047  13.329   1.746  0.0072 -0.2174  0.0262
    1W        W57978  27.184  21.066   9.253  0.0642  0.2492 -0.1233
    1W        W57979   4.053   7.306   0.900 -0.2075 -0.2225  0.3495
    1W        W57980   3.478  23.585   0.748  0.0292 -0.0441  0.0592
    1W        W57981  13.370  15.756   8.379 -0.3301  0.0613 -0.2385
    1W        W57982  28.525  24.249   6.319  0.0587  0.1319  0.1375
    1W        W57983  10.807  14.931   8.179 -0.0365  0.0603  0.0207
    1W        W57984  16.355  10.471   7.579  0.1232 -0.0061  0.0339
    1W        W57985  10.629   7.265   2.670 -0.1163  0.0464  0.1303
    1W        W57986  28.782   7.404   1.601 -0.0171  0.4137  0.1247
    1W        W57987  11.055  20.599   0.870  0.1119 -0.0929  0.1911
    1W        W57988   0.421  14.765   2.691  0.0621 -0.2713 -0.3758
    1W        W57989  14.522   7.247   7.767 -0.1452  0.2551 -0.0255
    1W        W57990  25.966  13.310   8.831 -0.1324  0.0051 -0.1090
    1W        W57991  22.889   4.963   1.994  0.0295 -0.0753 -0.1189
    1W        W57992   0.715  26.366   6.895  0.2398 -0.1143  0.1555
    1W        W57993   4.017   4.671   1.552 -0.2202 -0.2321  0.0472
    1W        W57994  21.991  28.032   9.045  0.0287  0.0621  0.3125
    1W        W57995   1.283  26.842   7.998 -0.0298 -0.3558  0.0131
    1W        W57996   3.882   6.269   0.812 -0.0760 -0.0037  0.1222
    1W        W57997  20.302  25.802   7.475 -0.2117 -0.0724 -0.1509
    1W        W57998  10.886  10.754   2.529  0.1625  0.1589 -0.0222
    1W        W57999  27.884  26.757   8.325  0.0870 -0.1047 -0.1952
    1W        W58000   0.527  11.080   0.268  0.2766  0.0257 -0.1987
    1W        W58001  17.719  16.033   8.407 -0.0193 -0.1776 -0.0398
    1W        W58002  26.442  28.460   6.873  0.1067  0.2243  0.1064
    1W        W58003   9.218   5.305   9.064  0.4094 -0.3260  0.2846
    1W        W58004  13.261   5.153   9.156  0.1102 -0.2765  0.0913
    1W        W58005  17.033  16.831   8.676  0.0980 -0.0125  0.0154
    1W        W58006   7.005  15.598   0.913 -0.0050 -0.2305  0.3319
    1W        W58007  24.120  28.474   8.798  0.1540 -0.1395 -0.2427
    1W        W58008  28.453  23.724   2.230 -0.2241  0.0962 -0.1526
    1W        W58009  26.283  24.858   9.193  0.2573 -0.1140 -0.0946
    1W        W58010   0.536  15.151   0.336 -0.1361 -0.0007  0.0336
    1W        W58011  27.420   2.113   0.837  0.3314 -0.1804  0.0568
    1W        W58012   0.098   0.609   6.801  0.2788 -0.3304 -0.1382
    1W        W58013   0.609  25.041   8.991 -0.5142  0.3652 -0.0947
    1W        W58014   1.398  11.137   7.085 -0.1115  0.4118  0.1109
    1W        W58015  18.718  24.082   1.925 -0.0220  0.1293  0.0629
    1W        W58016  16.991   3.510   9.431 -0.2021  0.0732 -0.2059
    1W        W58017  25.696  14.264   6.806 -0.0487 -0.0910  0.0862
    1W        W58018  21.571   7.813   7.436  0.2967 -0.1771  0.0467
    1W        W58019   5.062  12.568   9.186  0.0998 -0.1911  0.0713
    1W        W58020  24.200  18.243   7.454 -0.3284  0.2255 -0.1079
    1W        W58021   1.100  23.732   6.007 -0.1664 -0.1375  0.0377
    1W        W58022  22.056  15.328   7.682  0.1146 -0.1564  0.0272
    1W        W58023  28.790  24.372   9.163  0.0687  0.0793 -0.0156
    1W        W58024  12.486   7.063   0.703  0.0491  0.3208 -0.1796
    1W        W58025   5.699  26.180   7.654 -0.1340  0.2343  0.0856
    1W        W58026  13.040  25.626   7.717  0.0649  0.0099 -0.0947
    1W        W58027  11.875   3.538   2.522 -0.2996  0.3784  0.2001
    1W        W58028  22.811   1.325   0.338  0.2037  0.0038  0.0868
    1W        W58029  15.174   6.488   9.159 -0.0510  0.1448 -0.0409
    1W        W58030   3.053   9.166   1.257  0.3886 -0.0188  0.1917
    1W        W58031   1.020   6.281   8.692  0.2996  0.0582 -0.1798
    1W        W58032  28.767  25.864   1.488 -0.2796 -0.0396 -0.1733
    1W        W58033  11.102   6.993   1.670 -0.2349 -0.0806 -0.0992
    1W        W58034  10.540  20.836   7.916 -0.1765  0.1723 -0.4106
    1W        W58035  24.024  25.523   8.254  0.1942  0.0940  0.0476
    1W        W58036  28.284   5.587   7.481  0.0719 -0.2451  0.2119
    1W        W58037  27.890  19.671   2.228 -0.0349  0.0712 -0.0426
    1W        W58038   0.750  13.022   0.087 -0.0405 -0.2746  0.1284
    1W        W58039  23.794  16.816   9.375  0.1922  0.2134 -0.1958
    1W        W58040  15.640   3.826   8.486  0.1458  0.2973 -0.2194
    1W        W58041  23.614   2.199   8.860 -0.1647 -0.3887 -0.2038
    1W        W58042  13.504  17.369   6.955 -0.1084  0.2544 -0.2568
    1W        W58043  17.620   0.083   1.776 -0.2517  0.2438 -0.2022
    1W        W58044  27.378  12.739   7.259  0.0646  0.1201  0.1667
    1W        W58045  14.611   8.037   8.777 -0.0128  0.0480  0.0571
    1W        W58046  25.600  26.225   8.814  0.2376 -0.1632  0.1249
    1W        W58047  27.382  23.560   7.601 -0.0217  0.3495  0.1183
    1W        W58048  10.664  21.970   1.548 -0.2700  0.1275 -0.0446
    1W        W58049  14.851  24.991   1.240 -0.2112 -0.4810 -0.0982
    1W        W58050   7.833  18.854   2.612  0.0021 -0.0366 -0.1860
    1W        W58051  18.011  15.026   6.627  0.2005 -0.0224  0.0563
    1W        W58052  15.259   1.378   8.585  0.1226 -0.1463 -0.2316
    1W        W58053  20.000  16.344   8.299 -0.2057  0.0017  0.2158
    1W        W58054  16.926   8.283   1.608  0.0027  0.0757  0.0369
    1W        W58055  18.667   3.277   2.406 -0.0242 -0.0661 -0.3941
    1W        W58056  16.155   0.958   8.744  0.0248 -0.0651 -0.0214
    1W        W58057  13.474  11.703   1.176 -0.0871 -0.0479 -0.2573
    1W        W58058  21.466   0.657   8.591  0.1621  0.0033  0.1375
    1W        W58059   8.875   6.320   7.917  0.0627 -0.0546 -0.4280
    1W        W58060  26.666  26.017   1.687  0.0620  0.1399  0.1006
    1W        W58061   0.644  24.842   0.855 -0.0118 -0.0461 -0.3821
    1W        W58062   0.223  29.452   8.368  0.0006  0.1104 -0.1168
    1W        W58063  13.811  26.868   2.311  0.0607  0.1053 -0.1169
    1W        W58064  25.823  14.096   8.070 -0.0054 -0.1785  0.1592
    1W        W58065   9.104  25.309   7.305 -0.0350 -0.1455  0.0591
    1W        W58066  19.175  20.951   0.815 -0.0917  0.2080  0.2406
    1W        W58067   8.657   7.013   7.673 -0.0024 -0.1899  0.1897
    1W        W58068   1.486  17.450   7.234  0.3891 -0.2110  0.1749
    1W        W58069  14.415  19.300   1.475 -0.2118  0.0392 -0.0614
    1W        W58070   7.126   8.521   2.533  0.2084 -0.1141  0.1124
    1W        W58071   1.920  28.815   0.381  0.2784  0.0201  0.2587
    1W        W58072  27.266  18.250   0.098 -0.1857  0.0767  0.0984
    1W        W58073  25.823  26.995   8.310  0.0414 -0.0838  0.0512
    1W        W58074  22.240   8.769   0.826  0.1695  0.0985 -0.0005
    1W        W58075  16.543   2.145   2.420 -0.1833  0.0126 -0.2592
    1W        W58076   5.095  15.814   7.516  0.1100 -0.1358  0.1800
    1W        W58077  26.473  17.922   0.839  0.2158 -0.1358 -0.0245
    1W        W58078  19.303   3.625   6.829 -0.1326 -0.1439  0.2622
    1W        W58079   1.177   7.799   9.406  0.0203 -0.0901 -0.0088
    1W        W58080  11.525  28.467   2.755 -0.3783 -0.2952 -0.0148
    1W        W58081  18.480   0.739   2.699 -0.0430 -0.0339  0.2199
    1W        W58082   1.167  16.699   0.605 -0.4370  0.1704  0.0753
    1W        W58083  24.151   5.547   2.808  0.2078 -0.2584 -0.0649
    1W        W58084  23.414   3.148   0.844 -0.2955 -0.1092 -0.1068
    1W        W58085  12.858   6.820   2.407  0.2317 -0.2420  0.1541
    1W        W58086   8.040  29.645   6.884  0.2539 -0.4846  0.0632
    1W        W58087   7.375  29.115   2.746 -0.1739  0.1431  0.3958
    1W        W58088   6.429  14.969   2.274  0.1913  0.0831 -0.0861
    1W        W58089  19.331  25.024   8.196  0.3320 -0.1543 -0.0012
    1W        W58090  28.464  13.085   7.763 -0.0692  0.1336  0.4645
    1W        W58091  13.309  14.887   7.873  0.0461 -0.0665 -0.0534
    1W        W58092   6.633  13.730   3.185  0.1924 -0.0232 -0.1140
    1W        W58093  23.353   4.174   7.517 -0.0944 -0.2790 -0.1349
    1W        W58094  19.424  25.263   9.154  0.1061 -0.2805  0.1121
    1W        W58095  14.524  28.911   7.091  0.1386  0.0067 -0.1992
    1W        W58096  14.662   4.658   1.279  0.1271 -0.3747 -0.0986
    1W        W58097   4.431   6.611   2.560  0.0931 -0.2055  0.0848
    1W        W58098  28.633  14.317   1.075  0.4072  0.3945  0.3068
    1W        W58099   0.139  22.893   6.816  0.1207  0.0192  0.0830
    1W        W58100   5.359  14.353   8.041  0.1551 -0.0356  0.5069
    1W        W58101   2.581  18.530   8.274  0.1674 -0.1512 -0.1422
    1W        W58102  21.328  17.169   7.916  0.0521  0.1879 -0.0473
    1W        W58103   5.907   2.315   9.337 -0.0089  0.0936 -0.1880
    1W        W58104  14.511   8.296   1.291  0.1247 -0.0253 -0.0127
    1W        W58105   3.440   0.166   7.658  0.0147  0.2071 -0.2804
    1W        W58106  27.081   4.464   7.425 -0.0967  0.2201  0.0820
    1W        W58107  25.559  12.557   1.982  0.1154  0.0020 -0.1061
    1W        W58108  28.163  23.850   8.514 -0.2292  0.4456 -0.4329
    1W        W58109  22.692  19.324   8.504  0.2023  0.0699 -0.0187
    1W        W58110   1.847  10.539   7.212  0.1257 -0.1115  0.1276
    1W        W58111  16.969  15.989   6.925 -0.1004 -0.0065 -0.1457
    1W        W58112  28.442   0.758   6.682  0.0383  0.1212  0.1890
    1W        W58113   2.939  23.895   0.586  0.2752  0.1172  0.2130
    1W        W58114  23.395   5.120   7.076  0.3665  0.0966 -0.1315
    1W        W58115  24.991  21.598   2.592 -0.2269 -0.1033 -0.0490
    1W        W58116  21.835   6.838   8.094 -0.2255 -0.0260  0.0710
    1W        W58117  16.891  10.929   6.917 -0.0974  0.3200  0.1155
    1W        W58118   5.193   3.343   2.953  0.0761  0.0436 -0.0923
    1W        W58119   4.793   5.917   1.388 -0.0702  0.0883  0.1264
    1W        W58120   2.693   5.228   7.215  0.0929 -0.0389 -0.0887
    1W        W58121   4.674  10.002   8.612 -0.0594 -0.1862 -0.0353
    1W        W58122  15.664  15.838   7.912  0.1834  0.0194  0.0630
    1W        W58123  17.639   8.864   8.266  0.1564  0.0519  0.2678
    1W        W58124  25.409  18.630   2.313  0.2348 -0.2311 -0.0672
    1W        W58125  25.537   3.548   0.702  0.0163 -0.1616 -0.0320
    1W        W58126  14.846   2.768   8.798  0.0420 -0.4883 -0.1317
    1W        W58127  20.081  23.872   1.586  0.0187  0.3357  0.2360
    1W        W58128  23.678  14.187   1.728 -0.1678 -0.0991  0.0099
    1W        W58129  14.611  22.818   6.723  0.2058  0.2148  0.0549
    1W        W58130   4.609   7.613   1.249 -0.1557 -0.0676 -0.1515
    1W        W58131  24.325  13.179   7.965  0.3851  0.2085 -0.2016
    1W        W58132   6.573  11.331   1.154 -0.2863  0.0857 -0.4471
    1W        W58133   8.308  13.057   7.830  0.1848 -0.1662  0.0967
    1W        W58134  29.642   6.680   7.034  0.0210  0.0000 -0.0867
    1W        W58135  22.446  10.684   7.296  0.2612 -0.1314  0.1087
    1W        W58136  22.975  20.692   1.710 -0.2162 -0.0242  0.0375
    1W        W58137  28.632  26.202   7.294 -0.2220  0.2102  0.0914
    1W        W58138  10.268  23.973   1.417 -0.1795  0.0697  0.2839
    1W        W58139   3.446   9.456   0.361  0.0603  0.1380  0.4236
    1W        W58140  16.763  28.694   0.814 -0.0614  0.3111 -0.1936
    1W        W58141  14.109  23.630   6.220  0.0995 -0.0915 -0.1982
    1W        W58142  23.991   3.900   8.084 -0.0772 -0.1225  0.2529
    1W        W58143   6.379   3.029   0.620 -0.1063  0.1275  0.1055
    1W        W58144   1.017  25.471   6.402 -0.2211 -0.0106 -0.0624
    1W        W58145  11.411  29.859   7.460 -0.1543  0.1334 -0.0313
    1W        W58146  14.150   8.580   7.435 -0.0666  0.0588  0.0979
    1W        W58147  29.464  21.288   0.714 -0.3518  0.2930  0.3842
    1W        W58148  23.070   3.017   2.072  0.1819 -0.0570 -0.3316
    1W        W58149  27.571  28.959   8.695 -0.0503  0.2577  0.0346
    1W        W58150  24.097   6.008   2.387 -0.1130  0.0615 -0.1673
    1W        W58151  22.071   7.904   6.360 -0.0747  0.0005  0.2325
    1W        W58152   9.753  27.655   1.214  0.2917 -0.1936 -0.1301
    1W        W58153   7.581  28.065   8.567 -0.2378 -0.3149  0.3086
    1W        W58154   2.043   6.048   1.919 -0.1268  0.1190 -0.0696
    1W        W58155   5.598  14.987   6.429  0.0763 -0.0795  0.1816
    1W        W58156  10.775   0.110   8.271 -0.1644 -0.2443 -0.0952
    1W        W58157   2.215  12.850   8.592 -0.1859 -0.1714 -0.1370
    1W        W58158  27.750  24.598   6.582  0.1553  0.3177  0.2243
    1W        W58159  17.177  17.632   0.049  0.1325  0.2640 -0.0740
    1W        W58160   8.750  12.432   7.289  0.0409 -0.0539  0.1189
    1W        W58161   5.637  18.505   6.891 -0.0391  0.1548 -0.1041
    1W        W58162  29.520  17.909   1.375  0.2446 -0.2617  0.0602
    1W        W58163  18.827  21.629   2.057 -0.2643 -0.1022  0.3540
    1W        W58164   9.942  17.978   8.879  0.0653 -0.1148  0.1313
    1W        W58165  25.077  17.611   0.335 -0.1985 -0.1707 -0.1158
    1W        W58166   8.923  13.482   1.692 -0.0789 -0.3173 -0.1653
    1W        W58167  27.390  29.122   1.723  0.1644  0.2880 -0.0188
    1W        W58168   5.793   5.581   2.364 -0.0779  0.2186  0.2933
    1W        W58169   3.085  14.059   6.582  0.2263  0.0451  0.0381
    1W        W58170  12.704  11.601   1.825 -0.2098  0.0005  0.0394
    1W        W58171   0.743  15.382   7.839  0.1885 -0.1188  0.0813
    1W        W58172  25.121  24.618   9.193 -0.2002 -0.2529 -0.3774
    1W        W58173  20.627  12.889   1.104  0.2802 -0.1666  0.0704
    1W        W58174  15.206   6.509   6.726  0.3967  0.1369  0.2884
    1W        W58175  22.847   2.573   1.211 -0.2938 -0.0883  0.1269
    1W        W58176  29.031   1.921   2.334 -0.2591  0.0172  0.0750
    1W        W58177  24.872   3.512   7.463  0.0918 -0.0552 -0.1738
    1W        W58178  19.528  16.247   6.739 -0.2480  0.0931 -0.1254
    1W        W58179  12.943  16.344   1.205 -0.2119 -0.2808  0.0827
    1W        W58180  23.244  21.943   8.956  0.1207  0.2541  0.0492
    1W        W58181  29.774  26.192   8.387 -0.3272  0.2351 -0.0511
    1W        W58182   7.665  24.712   6.385 -0.1436 -0.2192  0.2293
    1W        W58183   3.457   2.514   8.274  0.1807 -0.0253 -0.2283
    1W        W58184  15.657  23.067   1.921 -0.0036 -0.1278 -0.0786
    1W        W58185   4.347   2.462   7.696  0.2869 -0.1816  0.0986
    1W        W58186  28.834  23.713   1.348  0.0890  0.2672 -0.2511
    1W        W58187  13.163   3.247   7.951 -0.1751 -0.1095  0.0929
    1W        W58188  25.078  19.231   1.329 -0.0120 -0.0511  0.0349
    1W        W58189  20.840  20.706   2.570  0.0029 -0.1456 -0.1423
    1W        W58190  13.191   6.315   3.147 -0.0898  0.2633 -0.3772
    1W        W58191  13.660  10.941   2.216 -0.2274  0.1640 -0.2398
    1W        W58192  15.823  21.480   1.497 -0.0234 -0.0616 -0.1814
    1W        W58193  20.999   2.088   2.064 -0.1432 -0.0670 -0.2012
    1W        W58194   0.028  16.828   3.122 -0.3102 -0.1508  0.2242
    1W        W58195  18.512  15.764   0.373 -0.0428  0.0922 -0.0602
    1W        W58196  16.034  18.460   2.076  0.1874  0.0849  0.1330
    1W        W58197  12.121   6.308   2.258 -0.1191  0.2204 -0.0798
    1W        W58198  25.507  21.976   1.850 -0.2246  0.2263  0.2734
    1W        W58199  21.565  24.629   1.027 -0.0256 -0.0416  0.2497
    1W        W58200   3.762  17.374   7.661 -0.2184  0.0378  0.1126
    1W        W58201  28.163   6.997   1.818  0.0881 -0.0879  0.4072
    1W        W58202  22.469  15.712   0.157 -0.2333  0.1664  0.0626
    1W        W58203  14.728   1.835   0.533 -0.0549  0.0579  0.0517
    1W        W58204  10.056  24.098   2.679  0.1681 -0.0992 -0.0646
    1W        W58205  11.500  27.781   2.938  0.1924 -0.0471 -0.0198
    1W        W58206  12.246  10.324   1.492  0.1132 -0.0287  0.1131
    1W        W58207  14.418   3.341   0.019  0.2942 -0.2780 -0.2702
    1W        W58208  14.250  16.567   0.157  0.1097  0.0921  0.0841
    1W        W58209   3.271  25.118   0.328  0.0814  0.1907 -0.0290
    1W        W58210  26.189  19.068   7.878 -0.0296 -0.1388  0.1189
    1W        W58211   8.925  29.832   7.744 -0.0011  0.0020  0.3301
    1W        W58212   4.266   4.991   9.209 -0.3791  0.0401 -0.0968
    1W        W58213   7.778   3.045   1.804  0.1444 -0.0716  0.2582
    1W        W58214  19.841   5.987   2.190 -0.1513 -0.0796  0.1630
    1W        W58215   8.148  15.884   1.398  0.1537 -0.0692  0.1106
    1W        W58216   8.501  25.885   7.366  0.2246  0.0375  0.2883
    1W        W58217  19.342   5.615   7.441 -0.3322 -0.3685 -0.4608
    1W        W58218  17.692  12.069   8.846  0.0092  0.1358 -0.0471
    1W        W58219  18.115  11.174   0.497  0.0365  0.1845 -0.0875
    1W        W58220   7.446  15.939   6.073 -0.0322  0.1240  0.0852
    1W        W58221  28.022   3.243   0.959  0.1593  0.0809 -0.0059
    1W        W58222   0.986   3.203   0.696  0.0401  0.0632 -0.1573
    1W        W58223  21.329  25.872   1.358  0.3153  0.0036  0.3905
    1W        W58224  16.437  25.249   9.385 -0.1371 -0.2320  0.1493
    1W        W58225  18.816  21.696   7.752 -0.0035 -0.2362  0.0306
    1W        W58226  17.354   9.022   0.130  0.1043  0.4006 -0.1038
    1W        W58227  25.914   5.537   0.042 -0.0442 -0.1638  0.2915
    1W        W58228  11.554  22.353   7.571  0.2780  0.2652 -0.0928
    1W        W58229   5.860  13.832   0.209  0.4247  0.0398 -0.1547
    1W        W58230   6.509   6.871   0.589  0.0781 -0.0007  0.0525
    1W        W58231   1.876   5.034   1.242  0.3076 -0.0294  0.2545
    1W        W58232  24.474  29.885   0.238 -0.0388 -0.0293 -0.2302
    1W        W58233  18.975   5.905   7.317 -0.1297 -0.1163  0.1908
    1W        W58234   5.563  19.025   8.653 -0.1678  0.3036  0.2040
    1W        W58235  16.157   5.217   9.004 -0.0048  0.0772  0.3097
    1W        W58236   9.064   1.063   7.548 -0.2179 -0.0326  0.3286
    1W        W58237  13.743  23.081   6.347  0.1142  0.2062  0.2212
    1W        W58238   5.596   8.339   1.785  0.1459  0.0051 -0.1030
    1W        W58239  18.747  18.844   7.712 -0.0376 -0.1272  0.0309
    1W        W58240  17.203   0.439   1.461 -0.1735 -0.2893 -0.0358
    1W        W58241  19.027   0.346   7.904  0.0691  0.1469  0.2486
    1W        W58242  11.207  26.097   8.739  0.2237  0.0083 -0.2489
    1W        W58243  21.525  29.359   7.604 -0.2997  0.1065  0.0439
    1W        W58244   8.672   2.218   1.638  0.1488  0.2183 -0.4307
    1W        W58245  25.081   0.925   0.062 -0.0987  0.0706 -0.0700
    1W        W58246   4.166   9.899   8.695  0.0609  0.0281 -0.0705
    1W        W58247  22.638  11.069   1.826  0.3055  0.0637  0.0922
    1W        W58248  27.481   8.988   6.932 -0.0001 -0.0395  0.1369
    1W        W58249  10.930  19.567   7.936 -0.1642  0.0681 -0.1646
    1W        W58250  10.194  22.063   0.072  0.0836  0.1555  0.0626
    1W        W58251  13.551  17.029   8.742  0.1415 -0.1457 -0.0948
    1W        W58252  18.696   4.647   8.313  0.0450 -0.2441 -0.2867
    1W        W58253   6.185  12.075   0.163 -0.0692  0.0976 -0.1104
    1W        W58254   7.816  26.212   2.586 -0.2342 -0.0540 -0.0152
    1W        W58255  19.648  17.573   2.437  0.3899  0.2651 -0.0032
    1W        W58256  10.332  23.413   7.423  0.1072  0.2162 -0.0510
    1W        W58257   2.812  19.920   7.312  0.2803  0.0087  0.5844
    1W        W58258  14.897  28.855   2.852 -0.1844  0.0157  0.3761
    1W        W58259  12.149   7.125   8.787  0.0776  0.1668 -0.1655
    1W        W58260   1.676  26.579   2.182  0.0217  0.1864  0.2024
    1W        W58261   3.509  12.450   8.104 -0.0986  0.0742 -0.0142
    1W        W58262  28.031  11.863   7.797 -0.0249  0.1391 -0.4450
    1W        W58263  25.404   5.983   1.654  0.1607 -0.1117 -0.0849
    1W        W58264   8.137  19.559   6.069 -0.1258  0.2675  0.4152
    1W        W58265  29.710  14.710   1.895  0.0125 -0.0508 -0.1051
    1W        W58266  27.491  12.401   1.853 -0.1542 -0.1740 -0.2086
    1W        W58267  17.494   1.672   2.598 -0.2310 -0.0003  0.1981
    1W        W58268  13.913  27.596   2.148  0.0953 -0.0421 -0.2349
    1W        W58269  22.795  23.792   3.025 -0.1843  0.0344  0.2872
    1W        W58270  23.540  24.758   1.380  0.3434 -0.1852  0.2762
    1W        W58271  23.967  28.803   8.407 -0.0025  0.1287  0.1064
    1W        W58272  23.408  18.830   1.693 -0.5075 -0.3535  0.2134
    1W        W58273  21.302  14.079   0.338  0.0008 -0.1541 -0.2220
    1W        W58274   7.751  21.038   1.355  0.3442 -0.0393 -0.0378
    1W        W58275   8.007   2.320   8.325 -0.2021 -0.1206  0.1081
    1W        W58276  21.295   3.277   1.399  0.1107  0.3242  0.0635
    1W        W58277  12.502  27.060   1.002 -0.0381  0.0942 -0.1780
    1W        W58278   9.988  26.950   8.236  0.0438 -0.1277  0.2526
    1W        W58279  29.831  16.156   7.017  0.0243 -0.1581  0.0068
    1W        W58280  15.131   5.486   2.308  0.2300 -0.1396 -0.0017
    1W        W58281  13.887   3.444   0.675  0.3929  0.0403 -0.0304
    1W        W58282  26.580  22.754   8.732  0.2402 -0.1583 -0.2020
    1W        W58283  18.200  29.171   7.392 -0.3996 -0.2349  0.2536
    1W        W58284  19.082   2.849   7.908  0.1015 -0.0785 -0.0688
    1W        W58285  28.441  15.504   0.436 -0.1232 -0.0693 -0.0290
    1W        W58286   7.322  12.623   8.967  0.2428 -0.2944 -0.1052
    1W        W58287   2.405  23.955   6.790  0.0389 -0.0204 -0.0865
    1W        W58288  27.715  14.527   5.921 -0.4784 -0.0855 -0.0405
    1W        W58289   3.188   1.642   1.034 -0.3534  0.1996  0.2034
    1W        W58290   9.938   9.139   1.680  0.3135  0.2295  0.0686
    1W        W58291  13.677  21.025   1.243 -0.3390  0.1344 -0.2584
    1W        W58292   3.808   3.140   6.258  0.3513  0.3373 -0.0040
    1W        W58293  20.444   9.204   0.531  0.0086  0.0399 -0.2270
    1W        W58294   6.275  21.743   6.899  0.0951  0.0099 -0.0114
    1W        W58295  18.643  27.200   1.509 -0.1658 -0.1226  0.3125
    1W        W58296  25.921  14.858   6.232  0.2028 -0.1964 -0.0056
    1W        W58297  20.608  25.919   6.945 -0.0609 -0.0933 -0.2869
    1W        W58298   4.253  13.855   0.499  0.0910 -0.0210 -0.1092
    1W        W58299  29.017  27.326   7.441  0.1866 -0.0191  0.0134
    1W        W58300   8.870  15.629   0.724  0.1728 -0.0318 -0.4201
    1W        W58301  24.662  16.890   1.814 -0.2241 -0.0381 -0.1779
    1W        W58302   9.500   5.711   2.712 -0.0361 -0.2396 -0.1691
    1W        W58303  17.197  28.116   7.209 -0.0874 -0.0852  0.5759
    1W        W58304   7.673   7.323   1.172 -0.1264 -0.1798 -0.2068
    1W        W58305   6.154   3.407   1.385 -0.2602  0.0186 -0.3105
    1W        W58306  12.098   0.165   2.063 -0.0285  0.1714 -0.0435
    1W        W58307  15.560  10.292   0.644 -0.0695  0.1271 -0.0264
    1W        W58308  26.056   8.892   1.775 -0.1939 -0.1262  0.3061
    1W        W58309   0.903  19.578   7.828  0.2294 -0.1520  0.0910
    1W        W58310   5.437   0.226   6.974  0.0286 -0.1573 -0.2344
    1W        W58311   9.557  27.436   0.689  0.0317  0.0012 -0.0119
    1W        W58312   9.039  29.798   3.967 -0.0759  0.0270 -0.1670
    1W        W58313  25.610   6.605   2.558  0.0510  0.1945 -0.1398
    1W        W58314  13.504  27.203   2.099  0.0392  0.1953  0.1096
    1W        W58315   7.928   4.331   7.827 -0.0886  0.3336  0.2044
    1W        W58316   9.579  21.713   8.935 -0.0147  0.3504 -0.1649
    1W        W58317  10.706  26.786   6.930 -0.0013 -0.0058  0.2594
    1W        W58318  15.728   2.552   8.949 -0.4420 -0.2345  0.2742
    1W        W58319  28.741   8.809   8.131  0.4303 -0.1381  0.0433
    1W        W58320  13.949   3.941   0.068 -0.0540  0.0672 -0.0117
    1W        W58321   8.036  11.107   8.149 -0.1718  0.2324  0.1678
    1W        W58322   3.385  18.125   7.700  0.1699  0.0476 -0.1962
    1W        W58323  29.350  10.570   2.896 -0.2841  0.0325 -0.1438
    1W        W58324   3.446   1.842   8.371 -0.3308 -0.0974  0.1305
    1W        W58325  20.754  25.657   7.442 -0.0328  0.3617 -0.0907
    1W        W58326  14.761  19.835   1.718  0.0808 -0.1958  0.1266
    1W        W58327  28.148  28.339   1.518 -0.1230  0.2303 -0.1081
    1W        W58328   4.273  29.624   8.126 -0.0092  0.1560  0.0138
    1W        W58329  28.169  28.079   2.350 -0.0366  0.1773  0.2871
    1W        W58330  14.408  26.441   2.429 -0.0997  0.1344 -0.0355
    1W        W58331  15.228  29.263   2.688 -0.0870 -0.0794 -0.1897
    1W        W58332  10.149  15.289   9.430  0.1811 -0.1360  0.4659
    1W        W58333  10.166  23.142   8.374  0.0668  0.1522 -0.1466
    1W        W58334   7.904  22.103   8.904 -0.0273 -0.0542  0.0088
    1W        W58335  19.985  23.046   7.089 -0.0836  0.0120  0.2405
    1W        W58336  14.857  17.801   0.799 -0.1588 -0.1074  0.0104
    1W        W58337  10.064  27.574   2.101  0.3898 -0.2098  0.0040
    1W        W58338   1.908  15.567   7.254 -0.1309 -0.2583 -0.0162
    1W        W58339  13.690   7.293   2.389  0.0881 -0.3914  0.2916
    1W        W58340  23.220  13.123   6.093  0.1888 -0.1721  0.1159
    1W        W58341   7.093  19.690   1.418 -0.4598 -0.1359 -0.2313
    1W        W58342   7.336  20.315   8.492 -0.0885  0.0690  0.0829
    1W        W58343   4.088  15.524   1.639 -0.2518  0.0154  0.1204
    1W        W58344   7.863  24.183   6.251 -0.1063  0.2075 -0.1945
    1W        W58345  19.596   8.141   9.199  0.1303  0.1447  0.2177
    1W        W58346  29.209  19.816   8.748  0.0893 -0.3408  0.1832
    1W        W58347   4.250  24.544   2.295 -0.1523 -0.0744 -0.1967
    1W        W58348  15.014  22.311   2.408  0.0401  0.0987  0.1939
    1W        W58349  15.432  11.056   7.294  0.2789 -0.2773 -0.2376
    1W        W58350  26.878   3.084   1.129  0.0432  0.1918 -0.1457
    1W        W58351   6.917  26.702   0.014  0.4319  0.0184 -0.2481
    1W        W58352  16.028   8.892   2.790  0.0107  0.0889 -0.0685
    1W        W58353  29.143  18.905   8.054 -0.0582 -0.4572  0.0287
    1W        W58354   4.105  28.973   5.817 -0.2732 -0.3367 -0.2040
    1W        W58355  15.661  12.356   0.339  0.0165  0.0742  0.0208
    1W        W58356  10.866  21.898   0.768 -0.1805 -0.0463 -0.0344
    1W        W58357   6.106   8.848   0.936 -0.0826 -0.0041  0.1584
    1W        W58358   1.214  16.297   2.160  0.2389 -0.1567  0.0219
    1W        W58359  21.181  25.790   8.316  0.1021  0.3337  0.2517
    1W        W58360  14.346  28.534   3.077  0.1104  0.1910  0.0943
    1W        W58361  10.380   6.826   8.752 -0.0962  0.0970  0.4098
    1W        W58362  25.999   7.976   1.429 -0.0135 -0.1011 -0.0610
    1W        W58363  10.572   8.913   0.241 -0.1390 -0.1696  0.2235
    1W        W58364  17.449  22.744   2.238  0.0319 -0.1744  0.3487
    1W        W58365   5.399  15.982   2.727 -0.3504 -0.0849  0.0215
    1W        W58366  21.518  23.669   7.627 -0.2545 -0.0890  0.1837
    1W        W58367  10.727  24.121   9.203 -0.2890 -0.1960 -0.0001
    1W        W58368   7.103   6.274   2.277  0.0211  0.2510  0.1661
    1W        W58369  19.948  27.080   0.029  0.1196 -0.0072 -0.1537
    1W        W58370  25.225   5.141   1.158 -0.1057 -0.0586  0.4149
    1W        W58371  21.929   6.374   1.505 -0.2615 -0.1109  0.1003
    1W        W58372  24.045   9.250   1.370  0.1024  0.2163 -0.1372
    1W        W58373  25.401  14.377   6.441 -0.3685  0.1712  0.2210
    1W        W58374  28.915  14.135   8.983 -0.3873  0.0928 -0.1527
    1W        W58375  26.659   4.118   7.526  0.4089  0.0925 -0.2023
    1W        W58376  18.339   3.657   6.173 -0.1310  0.0325  0.1510
    1W        W58377  17.448  24.738   7.009 -0.1034 -0.2055 -0.0572
    1W        W58378  10.387   7.800   2.807 -0.0720 -0.0072 -0.3449
    1W        W58379   7.023   1.657   8.913 -0.1641 -0.0868 -0.0581
    1W        W58380  29.410   7.630   6.863  0.1489  0.3759  0.0834
    1W        W58381   2.855  12.286   6.710  0.2754  0.0749  0.1038
    1W        W58382  18.764  17.364   7.094  0.0434 -0.3082 -0.0133
    1W        W58383  10.161  28.760   8.108 -0.0515 -0.3317 -0.3144
    1W        W58384  18.573  26.290   0.373 -0.1189 -0.1175  0.2275
    1W        W58385  24.078  14.828   1.918  0.1491 -0.1073 -0.0257
    1W        W58386   3.728  10.070   2.149 -0.1361 -0.0700 -0.0887
    1W        W58387   8.668   0.579   8.755 -0.1631 -0.1048  0.2425
    1W        W58388   6.747   8.557   3.978 -0.3232  0.0927 -0.0711
    1W        W58389  22.801  15.166   1.210  0.0507  0.3629 -0.0586
    1W        W58390   4.582  12.362   9.029 -0.0473  0.1740 -0.1647
    1W        W58391   3.185  27.275   6.421  0.0756  0.0177 -0.0807
    1W        W58392   7.461  22.920   0.554 -0.3777  0.0141 -0.0703
    1W        W58393   3.051   8.079   2.154 -0.3303  0.2291 -0.1935
    1W        W58394  11.323   1.223   7.283  0.2039 -0.2198 -0.1095
    1W        W58395  22.567  20.394   8.233  0.0486 -0.3042 -0.0156
    1W        W58396  29.491   3.271   2.227  0.0978 -0.0141  0.0102
    1W        W58397  23.984  28.513   7.782 -0.3400 -0.2188  0.3658
    1W        W58398  16.838   7.305   1.372 -0.3253 -0.0171  0.0770
    1W        W58399  21.802  20.821   0.270 -0.0191 -0.0405  0.0118
    1W        W58400  14.061  16.103   9.045  0.1468 -0.1902  0.0048
    1W        W58401   5.306  21.074   8.642  0.2132  0.2660  0.1876
    1W        W58402  26.602   4.994   6.748 -0.0617  0.2176 -0.2288
    1W        W58403  24.325  12.053   1.310  0.2417  0.1390 -0.2841
    1W        W58404  22.956  25.947   6.810 -0.1272  0.2544 -0.1824
    1W        W58405  13.341  26.526   7.300  0.0770  0.0015 -0.0839
    1W        W58406   1.300  24.858   0.645  0.0997  0.3351 -0.2570
    1W        W58407  24.897  16.255   7.463  0.0934 -0.1571  0.2351
    1W        W58408  29.787   3.832   7.090 -0.4455 -0.2193 -0.1492
    1W        W58409  15.877   9.870   8.961  0.0924  0.0831  0.1822
    1W        W58410   5.035  20.333   6.870 -0.0854 -0.0147 -0.2045
    1W        W58411   0.158  16.611   6.394  0.2177 -0.1511 -0.1862
    1W        W58412   9.902  10.166   8.880  0.1302 -0.1876  0.3564
    1W        W58413   1.221  14.706   0.907  0.0385  0.1156 -0.2192
    1W        W58414  25.805  23.705   1.235 -0.0585 -0.4905  0.0122
    1W        W58415  27.359   1.271   8.170  0.1062  0.0512  0.1054
    1W        W58416  22.192  26.379   1.166  0.0814 -0.2346 -0.1761
    1W        W58417   3.024   4.073   9.266  0.0589  0.0457 -0.0817
    1W        W58418  17.154  14.980   8.113  0.0971  0.1154 -0.0417
    1W        W58419  27.308  18.424   1.024  0.2255  0.0808 -0.2178
    1W        W58420   6.301  14.711   7.994  0.2447 -0.0717  0.2862
    1W        W58421  27.616   5.984   6.919 -0.2287 -0.0039 -0.0455
    1W        W58422  16.406  25.435   2.721  0.4187 -0.0617  0.0424
    1W        W58423  19.995   2.646   8.013  0.0934 -0.0460  0.1387
    1W        W58424  21.520  19.005   1.176  0.1617  0.3635 -0.0196
    1W        W58425  17.723   3.133   7.403 -0.2998 -0.1700  0.3722
    1W        W58426  13.098   2.384   8.205 -0.0236  0.0546  0.2049
    1W        W58427   1.804   8.428   7.532 -0.0118  0.0867 -0.2104
    1W        W58428   5.410   9.255   2.754 -0.1572 -0.0843  0.3803
    1W        W58429  12.740  26.022   0.950  0.1270 -0.1334 -0.1804
    1W        W58430   0.947  12.462   7.239 -0.1087 -0.0014 -0.3504
    1W        W58431  13.409   0.612   2.710  0.0512 -0.0993 -0.1360
    1W        W58432   5.688  24.454   6.901 -0.2273 -0.0213  0.1042
    1W        W58433  23.649   2.023   2.637 -0.0392 -0.0118 -0.0882
    1W        W58434  10.746   0.410   3.070 -0.1139  0.1620 -0.0607
    1W        W58435  26.152  15.760   1.501 -0.4358 -0.1925  0.3877
    1W        W58436  18.583  14.934   0.356  0.1401  0.3024  0.1092
    1W        W58437  27.056  13.756   1.577 -0.1999 -0.1758 -0.0534
    1W        W58438  12.006  29.110   1.734  0.2110 -0.0261  0.0093
    1W        W58439  22.361  15.806   7.549  0.2276  0.1961 -0.5331
    1W        W58440   6.094   8.370   1.085  0.1285 -0.0064  0.0328
    1W        W58441  18.188   5.486   8.925  0.0139 -0.1159  0.1912
    1W        W58442  26.212   4.315   2.525  0.1532  0.0646 -0.1205
    1W        W58443  14.848  13.400   7.053 -0.0268 -0.3956  0.0745
    1W        W58444  16.196   5.703   7.769 -0.1591 -0.1922 -0.1179
    1W        W58445  28.956  29.422   1.396 -0.0455  0.0223  0.1567
    1W        W58446  28.933  28.762   0.362 -0.1865 -0.1696 -0.0690
    1W        W58447  13.870  15.823   1.504 -0.3787 -0.0505 -0.0167
    1W        W58448  23.649  27.522   8.718  0.3111 -0.3480 -0.2205
    1W        W58449  21.904  26.980   0.685  0.1877  0.0158 -0.0968
    1W        W58450  27.902   8.905   7.927 -0.1348  0.0458  0.0373
    1W        W58451  24.574  26.597   2.012 -0.1569  0.0353 -0.0749
    1W        W58452  12.361   3.999   0.687 -0.1951  0.1437  0.2243
    1W        W58453  23.105  17.159   0.519 -0.0124  0.1574 -0.0418
    1W        W58454  22.807  16.191   1.411  0.2283  0.1058  0.2822
    1W        W58455  21.071   0.693   7.737 -0.2683 -0.1725  0.0796
    1W        W58456   6.117  20.282   2.481 -0.3143  0.0922 -0.1624
    1W        W58457   1.825  11.085   9.154 -0.1302  0.0605 -0.1647
    1W        W58458  24.768  22.249   7.493 -0.2007  0.0387 -0.2194
    1W        W58459  29.042  28.306   1.688  0.1073 -0.1803 -0.1994
    1W        W58460  12.946   4.937   2.710  0.2626 -0.0695 -0.1907
    1W        W58461  17.726  23.371   1.238  0.1937  0.1063  0.1049
    1W        W58462  27.001  21.316   3.252 -0.0557 -0.1130  0.3055
    1W        W58463   3.119  17.803   1.454 -0.0730 -0.1755 -0.0831
    1W        W58464  20.239   2.725   2.337 -0.0409  0.0860  0.0803
    1W        W58465   6.378  24.126   0.794 -0.4919 -0.2526 -0.2615
    1W        W58466  26.738  10.876   7.009 -0.0202 -0.0415  0.0637
    1W        W58467  28.598  18.637   9.295 -0.3559 -0.2158 -0.0308
    1W        W58468   6.046  27.789   8.845 -0.4868  0.1802  0.1390
    1W        W58469   3.049  23.549   9.317  0.2872  0.0445  0.1794
    1W        W58470  13.177  14.395   7.781  0.2138 -0.1668  0.2332
    1W        W58471   2.696  12.179   0.176 -0.0688 -0.0556  0.1008
    1W        W58472   1.700   7.155   2.947  0.2198  0.1344  0.4437
    1W        W58473  10.720  17.692   0.614 -0.2104 -0.1647  0.1115
    1W        W58474  17.505  12.988   1.698 -0.1334 -0.1632 -0.1464
    1W        W58475  21.048  19.606   0.291 -0.0131  0.1549 -0.2422
    1W        W58476  26.529  13.862   1.613  0.2604 -0.1102 -0.2391
    1W        W58477   5.016   7.376   1.135 -0.4005  0.0257  0.1814
    1W        W58478   4.363   4.703   0.697  0.1999 -0.1144 -0.0763
    1W        W58479   3.139   9.910   8.628  0.0418  0.2146  0.0113
    1W        W58480   3.406   9.664   8.237  0.0240 -0.2048 -0.2470
    1W        W58481   2.411   3.492   6.659 -0.0051  0.1363  0.0301
    1W        W58482   7.141  14.149   8.871  0.0947 -0.0005 -0.0853
    1W        W58483   8.076  17.728   7.152  0.4871  0.3716  0.4018
    1W        W58484   7.594   0.370   0.949 -0.3143 -0.2138  0.0256
    1W        W58485  23.805   5.178   1.249 -0.0290  0.0764 -0.6155
    1W        W58486   7.340   3.251   0.313 -0.2216  0.0522 -0.0572
    1W        W58487   8.341   1.663   0.903 -0.0730  0.1327  0.2203
    1W        W58488  21.081  11.416   0.670 -0.0160  0.3693 -0.2571
    1W        W58489   4.547  27.140   2.677 -0.0810  0.1194 -0.3478
    1W        W58490  12.548  25.686   7.544  0.2177 -0.3995 -0.1905
    1W        W58491  18.505   6.894   2.884 -0.0862  0.3719  0.0056
    1W        W58492  12.500  21.246   6.292 -0.0624 -0.0343 -0.0299
    1W        W58493  16.515   8.292   1.211  0.4216  0.0524  0.2304
    1W        W58494  27.397   9.769   1.502  0.1784  0.2006  0.2057
    1W        W58495  27.372  11.343   7.879  0.3920 -0.2600  0.2161
    1W        W58496   8.000  27.843   8.203 -0.0028 -0.1249 -0.1162
    1W        W58497   5.915  24.529   1.850  0.2092 -0.0746 -0.1552
    1W        W58498   6.700   7.691   1.704 -0.1655 -0.1044  0.2291
    1W        W58499   2.719  10.780   1.995  0.2788  0.0754 -0.2207
    1W        W58500  25.360  14.095   0.961 -0.2885  0.0119  0.0881
    1W        W58501   2.430  17.667   8.218 -0.0870  0.0540  0.3504
    1W        W58502   7.539   4.724   0.218 -0.0880  0.1170 -0.1922
    1W        W58503  20.710  22.428   7.211  0.0014 -0.0031 -0.1315
    1W        W58504  11.554   1.772   7.568  0.0084 -0.3256  0.1534
    1W        W58505  25.539   4.653   0.332 -0.0717  0.2473  0.2319
    1W        W58506  23.753   4.240   8.433  0.3687 -0.0860 -0.1614
    1W        W58507  27.315  20.310   0.440  0.0353  0.1551 -0.1869
    1W        W58508  11.027  18.054   1.865  0.4530 -0.1571 -0.1342
    1W        W58509  22.137  11.188   1.456  0.0914  0.1216  0.4142
    1W        W58510  28.337  15.566   1.750 -0.1280 -0.1807  0.0746
    1W        W58511   7.344  21.766   1.670  0.0076  0.0733 -0.3953
    1W        W58512  11.942   9.478   8.798 -0.0216 -0.1834  0.0892
    1W        W58513   2.474   5.940   1.532  0.4959 -0.1694 -0.2107
    1W        W58514  29.749  22.156   7.647 -0.0540 -0.3935  0.2044
    1W        W58515   0.963  22.935   9.326 -0.3369 -0.4970  0.3161
    1W        W58516   4.900  18.758   8.278 -0.1718 -0.0685 -0.1244
    1W        W58517  17.001   0.197   2.395  0.1728  0.0956  0.2535
    1W        W58518  16.806  22.759   1.953 -0.1898 -0.0411 -0.0037
    1W        W58519   0.836  23.740   0.982  0.0200  0.1937 -0.0660
    1W        W58520  24.476   2.098   7.720  0.2414 -0.1556  0.1131
    1W        W58521   6.489  12.821   9.449  0.0749 -0.2418  0.1546
    1W        W58522  28.329  26.613   2.356  0.0279  0.1909  0.5229
    1W        W58523  25.560  22.518   1.049 -0.4664  0.2401  0.1184
    1W        W58524  12.527  21.730   8.826  0.3091 -0.0558 -0.2810
    1W        W58525  10.658   3.719   2.916 -0.0563  0.0252  0.0073
    1W        W58526  17.850  25.278   2.772 -0.1305 -0.0385 -0.1418
    1W        W58527   0.968  19.080   6.845 -0.3011  0.0378 -0.2473
    1W        W58528  11.411  25.076   8.422 -0.0459 -0.0415 -0.0243
    1W        W58529  22.412  28.621   1.905  0.1109 -0.0222 -0.0093
    1W        W58530  21.158  15.236   7.463  0.1307  0.3350 -0.0020
    1W        W58531   1.217  27.429   2.322  0.1212  0.2474  0.3255
    1W        W58532   0.717  22.722   0.277  0.0940  0.4508 -0.2181
    1W        W58533   5.567  16.122   8.872 -0.1727  0.0910 -0.1066
    1W        W58534  24.070   7.475   3.601 -0.1473 -0.1119 -0.1829
    1W        W58535   7.457  29.276   6.724 -0.1218  0.2917 -0.1433
    1W        W58536   7.478  13.048   6.366  0.0934 -0.0832 -0.3793
    1W        W58537  12.846   6.615   9.201  0.0247 -0.1616 -0.0295
    1W        W58538  12.721  28.405   1.194 -0.2314 -0.0630 -0.0478
    1W        W58539  23.605  20.324   0.839 -0.0780 -0.5437  0.0866
    1W        W58540   2.887   7.015   2.235 -0.1020 -0.2231  0.0628
    1W        W58541   6.448  15.737   8.762  0.1354 -0.0094 -0.2415
    1W        W58542  10.402  16.149   6.140  0.0763  0.0309  0.0491
    1W        W58543  15.928  12.070   1.459 -0.0635  0.0378 -0.2042
    1W        W58544  12.018  27.832   1.608 -0.0813  0.1523 -0.1120
    1W        W58545   2.940  29.449   0.895 -0.0130 -0.0347 -0.3099
    1W        W58546   1.399  19.064   2.764  0.2012 -0.1956  0.0055
    1W        W58547  26.469  21.589   6.975 -0.0030  0.1447 -0.1479
    1W        W58548   8.935  27.094   1.564 -0.4019 -0.1708  0.3580
    1W        W58549  13.184  13.649   1.909 -0.1969  0.0490 -0.0488
    1W        W58550   1.844  14.508   7.577 -0.1512 -0.1536  0.0331
    1W        W58551  13.697   0.601   1.347  0.0493 -0.0553 -0.2284
    1W        W58552   2.923  24.992   5.747 -0.0602  0.0397 -0.1138
    1W        W58553  23.419  10.407   8.849 -0.1477 -0.2317 -0.0566
    1W        W58554  17.347  19.110   0.372 -0.2119  0.2485  0.0174
    1W        W58555   9.015   0.031   3.474 -0.0011 -0.0056  0.2812
    1W        W58556  28.900   1.845   8.000  0.0512  0.1769 -0.0498
    1W        W58557  16.770   3.185   8.951 -0.1492  0.0205 -0.2565
    1W        W58558  11.478   6.770   8.401 -0.2303  0.1150  0.0338
    1W        W58559  22.437  14.694   0.165 -0.1449  0.0405 -0.2746
    1W        W58560  13.862  15.687   9.342  0.1406 -0.0954  0.0449
    1W        W58561  26.952   6.420   7.964  0.2148  0.1349 -0.0179
    1W        W58562  11.324  21.422   5.975  0.2267  0.1164 -0.0366
    1W        W58563  18.577   4.257   6.643  0.0176  0.0179  0.0717
    1W        W58564  18.293   0.778   7.536 -0.3865  0.1774 -0.0324
    1W        W58565  15.630   7.112   0.349 -0.0572  0.1618 -0.1535
    1W        W58566  11.433  17.786   6.647 -0.1377 -0.0984  0.2125
    1W        W58567   5.253   8.434   0.257  0.1843 -0.0782  0.2230
    1W        W58568   4.767  24.540   7.610 -0.1834  0.1438  0.1936
    1W        W58569   4.630  19.165   8.515  0.2067  0.2930  0.1980
    1W        W58570  19.421  20.542   0.170 -0.0446 -0.3019 -0.2071
    1W        W58571  13.791  20.826   0.627  0.0417  0.1999  0.1010
    1W        W58572  24.185   1.747   1.256  0.1102  0.0493 -0.1197
    1W        W58573  28.904  11.736   8.110 -0.0383  0.0515  0.0373
    1W        W58574  24.247   1.612   9.325 -0.3959 -0.2740 -0.0207
    1W        W58575  12.498  22.988   9.091 -0.0948  0.3957 -0.4007
    1W        W58576   8.233   8.348   8.620 -0.0543  0.0387 -0.0774
    1W        W58577   3.255  25.009   7.055  0.0813  0.2521 -0.1238
    1W        W58578   5.272   0.386   2.117  0.3288 -0.3991 -0.1217
    1W        W58579  22.299   1.991   0.686  0.3665 -0.0015 -0.1924
    1W        W58580  11.168  11.761   0.846 -0.1990  0.1814 -0.1599
    1W        W58581   2.522  20.336   7.211  0.1635  0.2691 -0.0101
    1W        W58582  27.169  29.704   2.856 -0.0055 -0.1363  0.0934
    1W        W58583  24.449   2.726   8.942 -0.2116 -0.2766 -0.3020
    1W        W58584  10.536  23.864   7.221 -0.0322  0.0973 -0.1448
    1W        W58585  13.755   4.960   9.437  0.1416 -0.2544  0.0491
    1W        W58586  26.554  26.543   0.822 -0.0736 -0.0690 -0.0010
    1W        W58587  15.750   5.550   7.525  0.1891 -0.2615 -0.1864
    1W        W58588  29.582  26.727   1.247 -0.0290 -0.3998  0.2052
    1W        W58589   5.478   7.838   1.543 -0.0693 -0.1960  0.1849
    1W        W58590  10.836  10.392   2.012 -0.0780  0.0682 -0.1193
    1W        W58591  12.550  13.198   7.623 -0.1110  0.1690  0.0396
    1W        W58592   5.588  18.122   7.309 -0.1309  0.3030 -0.2518
    1W        W58593  12.785  14.931   0.273 -0.3965 -0.1094  0.0727
    1W        W58594  26.090   3.867   2.265 -0.1109 -0.1582 -0.1861
    1W        W58595   1.776  14.428   6.108 -0.1111 -0.1606  0.0321
    1W        W58596  27.035   0.275   0.334 -0.0251 -0.3420  0.0260
    1W        W58597  17.408   0.074   2.801  0.1058  0.2836  0.1875
    1W        W58598  14.369  17.601   1.465 -0.1315  0.3102 -0.5874
    1W        W58599   7.709   0.770   2.279 -0.1321 -0.1801 -0.0073
    1W        W58600  17.609   7.575   0.287 -0.0661  0.1661  0.0950
    1W        W58601   5.529   5.797   0.353  0.3016 -0.3233 -0.0661
    1W        W58602  27.057  24.585   8.237 -0.0589 -0.0353  0.0642
    1W        W58603   2.082   6.652   1.192 -0.1276 -0.1283  0.0600
    1W        W58604  28.780  14.881   9.313 -0.2109  0.3405  0.2737
    1W        W58605   9.294  17.393   7.051 -0.1729  0.0779  0.2132
    1W        W58606  10.035  21.328   1.632 -0.0842  0.0864 -0.0251
    1W        W58607  12.101  13.329   0.644  0.4242  0.1814 -0.0436
    1W        W58608  22.337  24.999   6.852  0.2989 -0.0126  0.0046
    1W        W58609   6.152  10.382   7.337  0.0284  0.2660 -0.2822
    1W        W58610   6.626   9.741   8.087 -0.2567  0.1259  0.2662
    1W        W58611  20.468  16.035   6.295 -0.1198 -0.0035 -0.2853
    1W        W58612  17.151  26.496   1.073 -0.4085 -0.1670 -0.1414
    1W        W58613  10.180   8.004   8.961 -0.0023  0.1469  0.0671
    1W        W58614  27.856  20.696   6.731  0.0843  0.1823  0.2293
    1W        W58615  17.836   7.637   6.991 -0.0982  0.0449  0.3438
    1W        W58616   4.492  25.521   0.413  0.2861 -0.1125 -0.0396
    1W        W58617   7.852  14.944   7.685 -0.1877  0.2700  0.0522
    1W        W58618   9.881  16.318   6.376  0.0018 -0.0071 -0.2360
    1W        W58619  20.883   6.069   1.878 -0.0092  0.2200 -0.0269
    1W        W58620  24.502   0.191   8.150  0.0014 -0.0227  0.1293
    1W        W58621  23.946  11.611   1.359 -0.0274  0.4261  0.2468
    1W        W58622  28.965  28.038   2.819 -0.1683 -0.1218  0.1283
    1W        W58623  16.999  17.635   1.343 -0.0942  0.0308 -0.0425
    1W        W58624  16.439  27.267   2.798  0.1391 -0.0565  0.0929
    1W        W58625  20.617  12.897   1.760  0.3261  0.0042 -0.0373
    1W        W58626  15.927  28.292   1.206  0.2897 -0.0184 -0.2495
    1W        W58627  28.735  26.268   2.470  0.0833  0.0426 -0.0936
    1W        W58628  25.052  28.653   1.986 -0.0177  0.2918 -0.1475
    1W        W58629  26.858  18.864   0.977  0.2849  0.0539  0.0387
    1W        W58630  25.394  14.650   0.797  0.2536  0.0459 -0.0116
    1W        W58631  26.912  19.889   6.957  0.0783 -0.1077 -0.0110
    1W        W58632  14.583   4.703   8.877 -0.4289  0.1643  0.2436
    1W        W58633  29.345  16.890   7.621  0.0413 -0.0611  0.3223
    1W        W58634  15.403  18.543   0.280  0.0334  0.0230  0.1768
    1W        W58635  19.446  26.386   2.501 -0.1873  0.3024 -0.1644
    1W        W58636  20.046  13.997   8.725  0.2725 -0.2827  0.0845
    1W        W58637   7.046  12.034   8.600 -0.0351 -0.0095  0.3581
    1W        W58638  16.373  16.011   8.898  0.0061  0.1386 -0.1733
    1W        W58639  21.451   7.743   1.959 -0.1863  0.2015  0.0426
    1W        W58640  29.325   3.995   7.028  0.1744  0.1036  0.1475
    1W        W58641   5.917  27.963   7.956 -0.0623 -0.0387 -0.4169
    1W        W58642  11.333  13.193   6.907  0.0315  0.0562  0.2111
    1W        W58643  20.482  24.636   1.143 -0.0995  0.0429 -0.0914
    1W        W58644  14.161  21.341   8.950 -0.2562 -0.1217  0.2407
    1W        W58645   6.114  11.571   8.299 -0.0118 -0.1050 -0.0735
    1W        W58646   9.341  21.707   7.112  0.2917  0.1661  0.0040
    1W        W58647  20.623   7.967   6.097  0.0023 -0.1909  0.1623
    1W        W58648   5.382   6.939   8.098 -0.4810 -0.3021  0.0886
    1W        W58649   3.030  24.126   7.780  0.2696 -0.0900 -0.3379
    1W        W58650  21.532  29.623   0.044  0.2461 -0.5080  0.2529
    1W        W58651   6.203  12.976   7.188  0.0545  0.0588 -0.1646
    1W        W58652   3.217  19.056   9.099  0.1119 -0.0786  0.0839
    1W        W58653  28.603  21.291   8.942  0.0530  0.0965  0.0201
    1W        W58654  18.357  22.500   7.635  0.1145 -0.0235 -0.2016
    1W        W58655  15.391   2.041   1.993 -0.2385  0.2917  0.0962
    1W        W58656  15.860  25.686   3.124  0.1547 -0.0819  0.0694
    1W        W58657   1.717  22.133   2.872  0.1383  0.2300 -0.3318
    1W        W58658  26.357   7.346   8.494  0.0478  0.2434 -0.2488
    1W        W58659  17.214  28.462   0.777  0.1747 -0.0141 -0.1838
    1W        W58660   7.354  25.375   1.987  0.2218 -0.3879  0.1526
    1W        W58661  21.441   2.091   2.484  0.2016  0.0366  0.3422
    1W        W58662   1.629  10.623   0.553 -0.0529 -0.0054 -0.2202
    1W        W58663   0.310   2.615   2.158  0.0381 -0.4749  0.3522
    1W        W58664  10.766  10.072   7.751 -0.0853 -0.1671 -0.1401
    1W        W58665   4.749   6.665   0.657 -0.0846  0.0597 -0.1044
    1W        W58666  17.345  21.481   2.484 -0.1626  0.0162  0.4782
    1W        W58667   6.361  14.417   2.429  0.3523  0.0442 -0.0179
    1W        W58668   7.000  16.787   7.878 -0.1035  0.0684 -0.1775
    1W        W58669  21.923  23.343   2.230  0.1052  0.1528  0.1369
    1W        W58670  23.847  26.021   9.210 -0.1312 -0.4358  0.1519
    1W        W58671  19.983   4.191   0.137  0.0048  0.2246  0.0974
    1W        W58672  23.779   9.007   7.667  0.2445  0.0767 -0.2426
    1W        W58673  10.199  13.972   7.757 -0.3449 -0.3272 -0.0289
    1W        W58674   3.950   6.852   2.511 -0.1270  0.0941  0.0945
    1W        W58675  22.988  25.702   9.248  0.4563  0.3717  0.2722
    1W        W58676   3.630   2.564   2.581 -0.1913  0.0730  0.0718
    1W        W58677  11.965   2.446   0.337  0.1443 -0.2785 -0.1724
    1W        W58678   7.755  21.296   5.783  0.1020  0.0503 -0.0756
    1W        W58679  23.659  26.481   8.408  0.0720  0.0351  0.0459
    1W        W58680  23.934   2.039   6.887 -0.2152  0.2024  0.0909
    1W        W58681  20.728   4.516   2.310  0.1640  0.1066  0.0170
    1W        W58682   0.011  22.568   5.784 -0.0836 -0.0852  0.1396
    1W        W58683  25.707  10.212   8.884 -0.3680  0.0019  0.1169
    1W        W58684  26.832  19.350   1.122  0.0120  0.2521  0.0725
    1W        W58685  13.586   4.456   2.054  0.2925 -0.0195 -0.2909
    1W        W58686   6.495  26.446   0.531 -0.2624  0.0121  0.0596
    1W        W58687   3.009   2.945   7.065 -0.1863  0.1648 -0.2207
    1W        W58688  29.573   9.494   7.140  0.1514 -0.0278  0.0081
    1W        W58689   8.202  15.901   0.263  0.2311 -0.1770  0.1380
    1W        W58690  26.097  29.828   8.316  0.1653  0.2836  0.0392
    1W        W58691  21.083  25.750   0.149 -0.0444  0.1983 -0.0913
    1W        W58692   0.901  14.728   7.782 -0.1458 -0.0122  0.1871
    1W        W58693  23.673  17.729   1.353 -0.2725  0.0081  0.1627
    1W        W58694   7.033  16.328   5.975 -0.3187 -0.2032 -0.0336
    1W        W58695   2.951  23.093   5.966 -0.5026  0.0409  0.3258
    1W        W58696  18.393   8.146   1.937  0.1840 -0.3183  0.3036
    1W        W58697   4.774   1.038   8.029 -0.0014 -0.2532 -0.0450
    1W        W58698   5.907  24.075   9.046 -0.0879 -0.2188 -0.2688
    1W        W58699  22.175  10.928   0.512 -0.0397 -0.4538  0.1303
    1W        W58700  21.726   2.365   8.950 -0.1655  0.3603 -0.1961
    1W        W58701   7.987  13.820   8.139 -0.0605 -0.2972 -0.1804
    1W        W58702  11.184  29.227   1.712 -0.3654 -0.0690 -0.0849
    1W        W58703  26.553   1.497   8.318  0.0598 -0.1781  0.0741
    1W        W58704  17.883   4.973   9.317  0.1093 -0.0081 -0.2019
    1W        W58705  25.815  21.050   2.841 -0.1730  0.0172 -0.0809
    1W        W58706   2.755  25.637   6.361 -0.0797 -0.1272 -0.0153
    1W        W58707  15.699   2.424   9.457  0.0385  0.2873 -0.1839
    1W        W58708  27.090   1.719   8.651  0.1329  0.0144 -0.1250
    1W        W58709   7.494   2.674   2.139  0.1886 -0.2653 -0.1475
    1W        W58710  21.051   9.971   6.418 -0.0911 -0.0546  0.0211
    1W        W58711   4.158  25.203   2.215  0.0575  0.1016 -0.2323
    1W        W58712  10.626   2.506   9.050 -0.1168  0.2257 -0.0912
    1W        W58713   0.345  29.697   7.038  0.1813  0.0075  0.0141
    1W        W58714  13.735  25.608   0.895 -0.3067  0.0693  0.1300
    1W        W58715  21.535   6.293   1.982  0.1307  0.1640 -0.3442
    1W        W58716   8.361  11.478   7.988  0.0111 -0.1424  0.3157
    1W        W58717  22.784   2.493   6.763  0.3537 -0.1851 -0.2450
    1W        W58718  20.926  23.605   8.756  0.1700  0.3209 -0.1221
    1W        W58719   1.992  13.342   0.402 -0.3279 -0.1515 -0.0277
    1W        W58720  12.303  11.321   9.149 -0.1987 -0.0591  0.1167
    1W        W58721   6.872   7.726   1.158  0.0738  0.0838  0.1813
    1W        W58722  17.789  19.013   7.303 -0.0318 -0.1995 -0.1042
    1W        W58723  22.916  27.556   0.869 -0.0928 -0.0175  0.0835
    1W        W58724  29.636  28.809   7.167 -0.0787  0.1951 -0.0655
    1W        W58725   0.500  20.906   5.839  0.0355  0.2764  0.0910
    1W        W58726  19.002  11.746   0.393  0.1629 -0.0439 -0.5729
    1W        W58727   7.384  10.047   0.759 -0.0769  0.1070 -0.1401
    1W        W58728   6.827  28.694   8.121 -0.0822  0.0913  0.2882
    1W        W58729  21.593  18.110   7.547  0.0445 -0.1612 -0.1164
    1W        W58730  10.382  21.838   8.038  0.0046  0.1098  0.0583
    1W        W58731  22.397  23.717   7.252  0.2822  0.1226 -0.1806
    1W        W58732  26.136  26.137   8.670 -0.1815 -0.2899 -0.2510
    1W        W58733   4.037  14.729   0.865  0.0161  0.1563 -0.1621
    1W        W58734   1.836  11.434   0.982  0.1523  0.4939 -0.0284
    1W        W58735  22.479   5.645   0.975  0.0189  0.3447  0.1590
    1W        W58736  26.788   8.980   2.491  0.0031 -0.3060  0.0174
    1W        W58737  24.844  11.659   6.898 -0.0555  0.2492  0.3556
    1W        W58738  10.899   9.078   8.924  0.1948  0.0653  0.1938
    1W        W58739  16.176  27.228   7.956  0.2240 -0.1999 -0.1076
    1W        W58740   1.047  11.940   0.358 -0.2649  0.0517  0.1581
    1W        W58741  29.662  29.355   9.259  0.1698  0.0497 -0.1336
    1W        W58742  19.505  28.099   7.255 -0.3068 -0.1935 -0.1996
    1W        W58743  13.437   5.437   2.140  0.0898  0.0874 -0.0960
    1W        W58744   2.389  25.962   0.576 -0.0194  0.1602  0.0007
    1W        W58745  14.522  17.150   8.805 -0.1070  0.0327 -0.2176
    1W        W58746   5.085   9.381   7.046  0.0607  0.1446 -0.3015
    1W        W58747  12.497  13.722   7.955  0.1046  0.1382 -0.0425
    1W        W58748   3.510  19.203   0.179 -0.1186 -0.0174 -0.0133
    1W        W58749  14.438  18.728   9.303 -0.3798 -0.0088  0.1357
    1W        W58750   0.443   1.999   8.503  0.1980  0.1581 -0.1395
    1W        W58751  12.851  13.656   0.775  0.2523  0.0018  0.0931
    1W        W58752   3.194  12.724   9.431 -0.0736 -0.0581  0.0534
    1W        W58753   0.443  27.894   2.410  0.0108  0.0465 -0.0650
    1W        W58754   8.319   8.427   7.725 -0.0592 -0.2208  0.1668
    1W        W58755  22.656   0.606   0.896  0.1847  0.0893 -0.1372
    1W        W58756  17.804   5.768   0.926 -0.1157 -0.0283  0.0138
    1W        W58757   7.167   7.742   8.445 -0.0107  0.0626 -0.0681
    1W        W58758  23.445  19.456   8.284  0.0071  0.0945 -0.0365
    1W        W58759   9.834  20.781   8.787 -0.0054  0.0533  0.2344
    1W        W58760  26.981  10.568   1.475 -0.1305 -0.2360  0.0888
    1W        W58761  19.148  16.667   8.708 -0.1175 -0.0135  0.1821
    1W        W58762  13.969  23.019   2.004  0.0981 -0.1542 -0.1705
    1W        W58763   3.415  25.172   6.611 -0.1523  0.2054  0.2102
    1W        W58764  24.727   4.399   6.823 -0.2828  0.2585 -0.0714
    1W        W58765   3.717   1.174   2.130  0.1936  0.0393 -0.0634
    1W        W58766  10.499   0.248   2.022  0.0799 -0.0292 -0.0588
    1W        W58767  26.532  23.247   7.098 -0.2830  0.3541 -0.0994
    1W        W58768  19.810   2.796   6.258 -0.0221 -0.0239  0.1887
    1W        W58769  10.203  13.846   0.006  0.1378 -0.0132 -0.1449
    1W        W58770  24.412  19.269   1.418  0.0196  0.0701  0.2742
    1W        W58771  27.674  20.078   8.506 -0.2648  0.2038 -0.0085
    1W        W58772  17.767  21.294   0.938  0.0306  0.2620  0.0236
    1W        W58773  27.549  23.542   1.791  0.1211  0.2113  0.3931
    1W        W58774  21.409  26.055   2.662 -0.1605 -0.2271 -0.2135
    1W        W58775  27.625  14.647   6.422 -0.0021  0.3138 -0.2254
    1W        W58776   2.759  18.968   8.485 -0.2507  0.3830  0.0223
    1W        W58777  15.966   0.215   2.723  0.2757  0.0755 -0.1756
    1W        W58778  13.919  13.839   1.271  0.4055 -0.0570  0.2394
    1W        W58779   3.629   9.006   8.415  0.0254 -0.0791  0.0374
    1W        W58780  25.499  15.812   6.813  0.1033  0.1155 -0.0918
    1W        W58781  23.233  23.290   2.530  0.0453 -0.2115 -0.5460
    1W        W58782   1.346  28.273   7.605 -0.1708  0.2100 -0.2748
    1W        W58783   2.893  26.533   6.268  0.3764 -0.0040 -0.1761
    1W        W58784  27.281  18.369   7.137  0.2041  0.1164 -0.3277
    1W        W58785   9.269   4.582   3.458  0.1423  0.0138 -0.0174
    1W        W58786   4.160   9.506   0.963 -0.1922 -0.1118  0.1595
    1W        W58787   0.914  12.319   1.525 -0.1120  0.2572 -0.2056
    1W        W58788  22.697   0.077   2.761 -0.1328 -0.0905  0.2615
    1W        W58789   8.642  15.733   7.504 -0.2203 -0.1792 -0.2447
    1W        W58790  12.062  21.258   8.786 -0.2004 -0.0652  0.3685
    1W        W58791   2.128  23.666   8.220 -0.0665 -0.1677  0.1535
    1W        W58792  22.586  22.666   8.437 -0.0135  0.2636 -0.0282
    1W        W58793   0.340  20.887   1.704 -0.1322 -0.2305  0.5291
    1W        W58794  21.819   4.470   3.094  0.1274 -0.3582 -0.0282
    1W        W58795  13.567   8.567   3.173 -0.2442  0.0361  0.5005
    1W        W58796  28.943   4.196   7.844 -0.0197 -0.1106  0.2139
    1W        W58797  18.120  27.032   1.895 -0.1201 -0.0930 -0.2107
    1W        W58798   6.436  18.859   2.513 -0.1528 -0.0679 -0.1229
    1W        W58799  23.742   9.013   2.629  0.0411 -0.0771  0.0125
    1W        W58800  16.886  23.952   9.299 -0.1591 -0.1131 -0.3792
    1W        W58801   7.813   6.800   7.414 -0.3414  0.1754 -0.1884
    1W        W58802   9.867  26.214   1.740  0.1379 -0.2618  0.0717
    1W        W58803  26.577  23.159   3.017  0.1600  0.1547 -0.1924
    1W        W58804  28.513  14.462   8.899  0.2020  0.1042 -0.1047
    1W        W58805   2.196   9.302   9.301 -0.0629  0.1352 -0.2165
    1W        W58806  14.302   1.103   7.482 -0.1254 -0.2523 -0.1608
    1W        W58807   0.097   0.208   2.470  0.2252  0.1854 -0.1124
    1W        W58808   0.146  19.207   1.081 -0.0888 -0.0729  0.1127
    1W        W58809  23.589   1.644   0.049  0.0200 -0.1026  0.5911
    1W        W58810   4.704   6.299   8.802 -0.1230 -0.3260 -0.6181
    1W        W58811  11.614  29.278   3.167  0.1004  0.0594  0.1292
    1W        W58812  23.118  19.325   0.167 -0.1099  0.2099 -0.0884
    1W        W58813   4.412  25.315   1.169  0.2990  0.0756  0.0511
    1W        W58814  10.612  22.869   8.312  0.0848  0.0577 -0.0177
    1W        W58815   6.557  23.478   0.835  0.1110 -0.0511  0.1291
    1W        W58816   8.283   0.007   1.933  0.0921 -0.0383 -0.0200
    1W        W58817  17.833  23.573   1.723 -0.0021 -0.0324  0.1587
    1W        W58818  28.301  13.858   1.756 -0.1919  0.1408 -0.1559
    1W        W58819   3.262  28.798   2.418  0.0903  0.1033  0.2013
    1W        W58820   4.365  18.029   8.169 -0.1923 -0.1494  0.3905
    1W        W58821  10.045  11.033   1.366  0.0767 -0.0473  0.0796
    1W        W58822   2.948  13.413   7.996  0.0968 -0.0067  0.0392
    1W        W58823  20.721  17.904   0.058 -0.1217  0.0305  0.1881
    1W        W58824  23.085  14.101   9.400  0.1598  0.2592 -0.2267
    1W        W58825  12.973  15.979   8.686 -0.1541  0.2497 -0.0582
    1W        W58826   4.382   0.450   7.321  0.2098  0.1935 -0.2460
    1W        W58827  11.087  29.433   0.502  0.3207  0.0410 -0.3099
    1W        W58828   1.051  15.054   6.079  0.0024 -0.0301  0.1119
    1W        W58829   7.298  12.204   1.722  0.0895  0.0421 -0.0935
    1W        W58830  12.408  26.736   0.458 -0.2804  0.1860 -0.1361
    1W        W58831   5.354  14.196   0.736  0.0648  0.1839 -0.3611
    1W        W58832   3.551  18.065   6.169  0.1571  0.1054  0.6182
    1W        W58833  26.296  12.967   0.466 -0.0160 -0.4178 -0.3778
    1W        W58834  14.949   0.284   2.124  0.0254  0.1460 -0.0371
    1W        W58835   8.378  28.182   8.391  0.0887 -0.1559  0.0706
    1W        W58836  13.140   1.333   0.747  0.1248 -0.0960  0.2154
    1W        W58837   2.077  19.429   0.026 -0.1102  0.1159 -0.0143
    1W        W58838  26.759  14.090   0.551 -0.2510 -0.2691 -0.1172
    1W        W58839  12.746   5.896   0.159 -0.2430  0.0554 -0.0162
    1W        W58840  19.081  18.233   7.191 -0.0550 -0.1092  0.0404
    1W        W58841   6.364   4.613   2.999 -0.0395  0.0466  0.0959
    1W        W58842  28.508  18.098   9.441  0.0335 -0.1631 -0.2078
    1W        W58843  13.654  21.136   1.747 -0.0120 -0.1294 -0.1241
    1W        W58844  23.457   6.957   6.977 -0.2368  0.0804  0.0437
    1W        W58845  24.656  18.513   8.173 -0.0596 -0.0211 -0.2632
    1W        W58846  14.746  21.831   7.156 -0.1631 -0.0765 -0.0731
    1W        W58847  13.697  27.755   0.635  0.0980  0.1494 -0.0986
    1W        W58848  21.795   8.949   0.441 -0.0947  0.0501 -0.2276
    1W        W58849   6.313   9.530   7.656  0.0249  0.1307 -0.0183
    1W        W58850   1.077  23.386   1.640 -0.0703  0.1368 -0.0445
    1W        W58851  11.782   6.939   1.123  0.2456 -0.0379  0.0900
    1W        W58852  25.305  18.786   1.238  0.1514 -0.0576 -0.0550
    1W        W58853  15.819   1.094   2.932 -0.3115 -0.1549 -0.0714
    1W        W58854  20.948   2.667   7.598  0.2221  0.2009 -0.0535
    1W        W58855   3.969  24.397   8.287  0.2177 -0.3323 -0.1331
    1W        W58856  10.390   2.960   9.026  0.3294  0.1015 -0.1821
    1W        W58857  11.043  17.783   0.968  0.1218  0.0660 -0.0671
    1W        W58858   1.676  12.314   9.194 -0.0826 -0.3622  0.2823
    1W        W58859  17.428   4.453   7.394  0.0417 -0.1216  0.3986
    1W        W58860   9.896   1.939   1.118  0.0446  0.2629  0.2719
    1W        W58861  16.429  10.113   1.173 -0.1320 -0.0799  0.2820
    1W        W58862  21.273  22.602   8.619  0.3601 -0.1532  0.0543
    1W        W58863  14.151  14.061   1.991 -0.1921  0.0783  0.0209
    1W        W58864   8.884   8.894   8.026 -0.3240  0.0471  0.0954
    1W        W58865  17.253  25.705   0.282  0.2743 -0.1976 -0.0989
    1W        W58866  16.336  26.944   3.294 -0.0508 -0.1416 -0.1219
    1W        W58867  29.611   4.843   7.253  0.0933 -0.1922 -0.0520
    1W        W58868  14.015  25.255   2.114  0.0320  0.3945  0.1078
    1W        W58869  28.123   5.944   3.458 -0.1506 -0.2716  0.0986
    1W        W58870   9.412   6.834   0.436  0.2721  0.2513  0.2111
    1W        W58871  23.911   4.091   6.679  0.4030  0.1789 -0.0191
    1W        W58872   4.597   8.053   6.316  0.0722  0.2342  0.4043
    1W        W58873  27.491   8.631   7.730 -0.1125  0.2037 -0.0980
    1W        W58874  16.339   9.434   9.141 -0.1389  0.0400 -0.2684
    1W        W58875   7.651   4.708   9.212  0.0524  0.1539  0.0959
    1W        W58876   4.091  14.151   0.145 -0.1131  0.0439  0.1363
    1W        W58877  15.077  22.337   8.661  0.2409 -0.1903  0.3283
    1W        W58878  12.612  19.489   2.639  0.3011  0.1337  0.1501
    1W        W58879  16.107   5.978   0.182 -0.1141  0.2042 -0.4985
    1W        W58880   1.013  23.177   1.199  0.1716 -0.0409 -0.0962
    1W        W58881  27.286  23.158   0.037  0.1770  0.1645 -0.0249
    1W        W58882  23.074   3.395   2.843  0.1301  0.2192 -0.0759
    1W        W58883   4.287  24.079   2.018  0.4380  0.3580 -0.0734
    1W        W58884   7.444  17.589   1.744 -0.0271  0.2829  0.2256
    1W        W58885  25.069  25.381   7.537  0.2309  0.0453 -0.2583
    1W        W58886  14.737  23.475   7.381 -0.0008  0.2932  0.1481
    1W        W58887  17.618   8.157   9.082 -0.5192 -0.1629  0.0003
    1W        W58888  28.476   1.282   2.242 -0.0542  0.0778  0.0166
    1W        W58889  14.407  17.453   0.489 -0.2478 -0.0640 -0.1127
    1W        W58890  11.559   3.497   7.673  0.0653  0.2891  0.3013
    1W        W58891  10.702  19.499   0.916 -0.2780 -0.1679 -0.1650
    1W        W58892   6.730   7.579   6.777 -0.5318 -0.1687 -0.1089
    1W        W58893  27.494   1.865   2.750 -0.1992  0.0279 -0.1205
    1W        W58894   5.415  28.465   1.508  0.1255  0.1977  0.3561
    1W        W58895   1.266  13.677   1.083  0.1682  0.3897  0.0280
    1W        W58896  10.862  22.223   6.559  0.1018 -0.0357  0.1204
    1W        W58897  22.420  19.285   2.001 -0.1734  0.0045 -0.0333
    1W        W58898  12.205   9.256   2.400 -0.2063  0.0071  0.0334
    1W        W58899  14.219  29.719   0.865 -0.2243 -0.0608 -0.3208
    1W        W58900   3.624  10.781   0.904  0.0795 -0.0293  0.2148
    1W        W58901  23.599   5.031   8.299 -0.0731 -0.1640  0.0867
    1W        W58902   8.029   3.943   0.279  0.0711 -0.0792 -0.0162
    1W        W58903  27.732  28.874   8.265 -0.0396  0.0109 -0.0075
    1W        W58904   0.361  27.482   9.374  0.0592 -0.2918 -0.0811
    1W        W58905  24.618  29.212   1.838  0.1145  0.0834  0.1715
    1W        W58906   2.003   5.412   2.962 -0.0142  0.2078 -0.0640
    1W        W58907   6.762   2.890   1.465 -0.1334 -0.2153 -0.0205
    1W        W58908  11.342  19.046   2.085  0.0697 -0.0058  0.0774
    1W        W58909  26.745   4.285   3.552 -0.0385  0.1881  0.3057
    1W        W58910  14.529   0.125   3.099 -0.0510  0.1188 -0.3825
    1W        W58911  10.427  13.932   0.494  0.1514  0.0747  0.2725
    1W        W58912  28.205   7.487   0.834 -0.2429 -0.0352  0.1667
    1W        W58913  24.539  20.034   7.019  0.4100  0.0665 -0.0502
    1W        W58914  13.167  23.784   8.455  0.1725  0.1219 -0.0780
    1W        W58915  17.371   4.166   6.960 -0.1144  0.0740  0.2281
    1W        W58916  23.598  11.043   7.471 -0.0233 -0.1596 -0.0775
    1W        W58917  23.751   3.508   9.070  0.1723  0.0049  0.3180
    1W        W58918   0.431   8.687   1.224  0.0983 -0.1208  0.1054
    1W        W58919  29.330  23.942   8.357 -0.0221 -0.0384 -0.2328
    1W        W58920  17.861   5.770   7.371  0.1201 -0.0151 -0.3395
    1W        W58921   4.292  11.501   8.886 -0.2010 -0.0848 -0.1145
    1W        W58922  29.318  15.862   0.153 -0.1460  0.3188 -0.1424
    1W        W58923   0.321  27.918   1.399 -0.0507 -0.1576  0.2164
    1W        W58924  19.399  13.111   6.883 -0.2464 -0.0226 -0.2657
    1W        W58925   1.252   1.910   7.382  0.0257 -0.1248 -0.1733
    1W        W58926  22.940   2.467   2.794  0.1053 -0.0954 -0.4407
    1W        W58927  14.194  27.740   7.528  0.2103  0.0644  0.3734
    1W        W58928  10.494  25.549   9.040  0.2108 -0.0840 -0.2869
    1W        W58929   0.530  10.282   7.958  0.0146  0.2959  0.2671
    1W        W58930  17.417  28.038   3.096  0.1625  0.2008 -0.2672
    1W        W58931  15.385  14.930   7.839  0.0665  0.4078  0.2465
    1W        W58932   4.248   8.583   1.422  0.2145 -0.3131  0.0763
    1W        W58933  19.695  29.012   9.162 -0.2337  0.0042 -0.0607
    1W        W58934   2.345  12.323   1.126 -0.2336  0.1349 -0.1491
    1W        W58935  27.947  11.941   6.461  0.0989 -0.0936 -0.1552
    1W        W58936  19.922   9.463   1.098 -0.1297 -0.1314 -0.1520
    1W        W58937  26.507  19.644   6.843 -0.1960 -0.0384 -0.1738
    1W        W58938   7.267   8.944   7.352  0.0901  0.0633  0.1562
    1W        W58939  26.182   5.428   1.253 -0.0929  0.2225 -0.0763
    1W        W58940  20.054  26.958   8.970  0.1105 -0.1059 -0.2872
    1W        W58941  20.186   1.436   3.032 -0.0323 -0.1851  0.0211
    1W        W58942  28.230  20.848   1.897  0.2791 -0.0076  0.1412
    1W        W58943   7.254   5.494   2.572  0.0677  0.0409 -0.3021
    1W        W58944  16.272   0.808   0.406 -0.1535  0.0491  0.1655
    1W        W58945  10.656  20.161   0.031  0.1216 -0.0870 -0.1225
    1W        W58946  25.744   0.236   8.524  0.0954  0.2737  0.1237
    1W        W58947   5.509  29.107   7.768 -0.0804  0.0221 -0.0225
    1W        W58948   1.252  21.955   2.872 -0.3171  0.1786  0.1940
    1W        W58949  19.588  21.313   1.106 -0.2670 -0.1748 -0.0553
    1W        W58950   6.077  13.171   2.961  0.0360 -0.1442  0.0646
    1W        W58951   8.007  27.846   8.696  0.4775 -0.1283  0.0430
    1W        W58952  14.514  15.029   9.012  0.1135  0.0291 -0.1159
    1W        W58953   8.914  23.533   2.207  0.2136 -0.3655  0.0149
    1W        W58954  12.473  26.344   2.721 -0.1369  0.3489  0.2367
    1W        W58955   5.101   5.564   8.057  0.0341 -0.1885 -0.2226
    1W        W58956   2.073  21.526   5.709  0.1114  0.2474  0.0693
    1W        W58957  16.222  27.553   6.816 -0.0238 -0.1206 -0.0237
    1W        W58958   0.493  20.386   1.918  0.2309  0.1660 -0.0163
    1W        W58959  16.947   1.777   0.525 -0.2061 -0.1289 -0.1886
    1W        W58960  26.573  11.685   9.169  0.0098  0.0065  0.1267
    1W        W58961  21.458   9.965   8.070 -0.0441  0.2323 -0.2129
    1W        W58962  18.392   5.358   6.699  0.1351  0.0213  0.1626
    1W        W58963  15.619   8.163   7.852 -0.0075 -0.0384 -0.0956
    1W        W58964  10.684  18.918   7.421 -0.1827 -0.3603 -0.5385
    1W        W58965  22.240  10.731   1.366 -0.3194  0.1019 -0.1857
    1W        W58966   1.534  24.811   7.629  0.3500 -0.0030  0.4791
    1W        W58967  29.072  11.372   8.548  0.0674 -0.0934 -0.1227
    1W        W58968  22.920  20.535   8.987 -0.1220  0.2579  0.0996
    1W        W58969  21.139  21.774   9.199 -0.1852 -0.1537  0.0166
    1W        W58970   4.215  13.518   0.889  0.2250  0.0969 -0.0723
    1W        W58971  16.914   9.453   8.475 -0.0249 -0.2041 -0.0599
    1W        W58972  15.287  24.300   9.213 -0.0895 -0.4854 -0.2179
    1W        W58973  29.577  26.939   7.058  0.2070 -0.1811  0.0264
    1W        W58974  28.903  22.881   2.062 -0.2397 -0.1788  0.1368
    1W        W58975   3.959  27.125   7.555  0.0281  0.3432  0.0861
    1W        W58976  16.673  13.174   1.086 -0.0682 -0.0812  0.0671
    1W        W58977  19.162   1.065   2.226  0.2484  0.1653 -0.0760
    1W        W58978  11.864  22.234   9.257  0.1614  0.0734  0.1516
    1W        W58979  17.766   6.526   8.764  0.0088  0.1070  0.0360
    1W        W58980  28.718  24.327   0.679 -0.2148 -0.3545  0.1528
    1W        W58981  19.314  28.116   9.131  0.0855 -0.1010  0.1664
    1W        W58982  22.491  10.173   1.200 -0.0066  0.0810  0.0456
    1W        W58983  15.593  16.259   9.232  0.2019  0.1844  0.2447
    1W        W58984   3.416  19.498   9.247 -0.2292  0.0716  0.3293
    1W        W58985  14.791  29.672   0.896  0.2049  0.0462 -0.0289
    1W        W58986  25.546   9.515   0.719  0.1209  0.1582  0.0307
    1W        W58987   7.800  11.231   7.731 -0.2616  0.3851  0.0945
    1W        W58988  22.064  11.733   2.291 -0.1248  0.1777 -0.0234
    1W        W58989  12.230   9.147   9.058 -0.0323  0.2638  0.2125
    1W        W58990  13.645  26.096   7.175  0.0225  0.1711  0.0459
    1W        W58991  19.112   3.946   2.130  0.0726 -0.5000 -0.0057
    1W        W58992   4.038  25.152   7.960 -0.1400  0.0967 -0.0399
    1W        W58993  18.626  23.541   3.145  0.2428 -0.0284  0.1429
    1W        W58994   3.977  12.603   8.917 -0.0221 -0.0908 -0.0140
    1W        W58995  21.956   0.278   6.764  0.0555  0.1588 -0.0377
    1W        W58996   6.623   8.390   8.022  0.1718  0.1568  0.3017
    1W        W58997   7.641   4.128   3.377 -0.0595  0.1711  0.2329
    1W        W58998  27.670   4.781   0.598 -0.0621  0.1318  0.0755
    1W        W58999  20.831   7.458   2.340  0.0882 -0.0786 -0.3417
    1W        W59000  16.590  13.710   0.680  0.2413 -0.1380 -0.0094
    1W        W59001   1.855  23.980   1.083  0.1383  0.1458  0.1679
    1W        W59002   5.425  27.478   9.032 -0.0407  0.0590 -0.0714
    1W        W59003  26.237  17.401   8.740 -0.1929 -0.0577  0.1047
    1W        W59004   0.901   3.390   8.323 -0.0744 -0.1233  0.0136
    1W        W59005   5.536  28.760   2.715 -0.2938  0.0003 -0.2002
    1W        W59006  25.554  25.952   6.515  0.1252  0.1307  0.0833
    1W        W59007  11.057  10.903   7.880 -0.1222 -0.0249  0.1205
    1W        W59008  10.608   6.405   0.085  0.1821  0.2261 -0.2352
    1W        W59009  23.973  27.266   1.035  0.2110 -0.2120  0.0617
    1W        W59010   7.536   8.418   8.092 -0.1034  0.0382  0.1518
    1W        W59011   5.376   8.081   0.642  0.0214  0.2199 -0.0383
    1W        W59012  25.188  13.881   6.172  0.1891  0.0087  0.3165
    1W        W59013  16.783   3.661   2.323 -0.1327 -0.1122  0.0722
    1W        W59014   2.236  14.536   6.394 -0.0775  0.0447  0.3413
    1W        W59015   1.451   2.649   6.375 -0.0326  0.2614 -0.0213
    1W        W59016   2.336  17.058   8.228  0.1066  0.1167 -0.3687
    1W        W59017   7.953  18.138   1.907  0.0370 -0.0408 -0.0247
    1W        W59018  18.174  20.808   7.752  0.0885  0.0386  0.0491
    1W        W59019  24.429  23.031   8.038  0.2410  0.0429  0.1305
    1W        W59020  23.852  16.329   9.117  0.2317 -0.0446 -0.1018
    1W        W59021   4.080  23.627   9.049 -0.1176 -0.1755  0.3081
    1W        W59022  12.634   7.497   2.468 -0.2437  0.1290 -0.1892
    1W        W59023  25.863   3.786   0.346  0.1897  0.1518  0.0015
    1W        W59024  21.124  25.206   2.604 -0.2141  0.2447 -0.0849
    1W        W59025   4.782   2.108   0.585 -0.0981  0.0002 -0.3835
    1W        W59026  16.084  13.812   1.837  0.0388  0.0039  0.3295
    1W        W59027  22.528  12.239   5.764  0.2188 -0.2025  0.0021
    1W        W59028  26.804  13.004   1.458  0.1664  0.0225  0.1036
    1W        W59029  22.785  25.561   0.249  0.4897  0.2050 -0.0705
    1W        W59030  24.386  17.019   1.288 -0.1584  0.2114  0.1295
    1W        W59031  22.919  17.354   1.856 -0.0893  0.2031  0.1366
    1W        W59032   8.443   7.871   2.081 -0.0322  0.0312 -0.1380
    1W        W59033  10.901  29.000   7.177 -0.2263 -0.1214  0.1282
    1W        W59034  14.242  13.362   2.321  0.1000 -0.0802 -0.0463
    1W        W59035   4.371  12.634   8.015 -0.2981 -0.1270 -0.1072
    1W        W59036  28.551  27.434   8.165 -0.2370  0.4922 -0.0241
    1W        W59037  28.827  19.806   8.298 -0.2255  0.0333  0.3144
    1W        W59038   9.229  24.767   2.643 -0.2933  0.0862 -0.4182
    1W        W59039   4.531   7.147   1.069  0.0781 -0.0843  0.1933
    1W        W59040   0.765  16.455   8.861 -0.3498 -0.2208  0.2368
    1W        W59041   2.294   8.304   6.485  0.1184 -0.0793 -0.2129
    1W        W59042  21.937  27.724   7.077 -0.0495 -0.2245  0.3225
    1W        W59043  13.978  18.713   8.666 -0.0460  0.0571  0.0510
    1W        W59044   7.376   2.229   0.218 -0.0224  0.1160 -0.1698
    1W        W59045   8.232  10.065   1.406  0.1126  0.1754  0.1577
    1W        W59046   8.385  14.665   8.600  0.0749  0.1409  0.2446
    1W        W59047   8.622  19.863   1.577  0.0713  0.3426 -0.1726
    1W        W59048  29.659  16.838   2.065 -0.0453 -0.0246  0.2003
    1W        W59049  29.516   1.731   2.368 -0.2495  0.1663 -0.2501
    1W        W59050  20.327  25.929   2.258  0.4130 -0.0565  0.0660
    1W        W59051  16.422  23.138   9.432  0.3315 -0.2949 -0.1376
    1W        W59052  28.301  29.861   0.131  0.1567 -0.2171 -0.0056
    1W        W59053   0.422  14.184   8.290  0.0453  0.0091 -0.2453
    1W        W59054   9.474   2.210   2.542  0.4598 -0.2324 -0.0839
    1W        W59055  10.985   0.203   2.297 -0.1532 -0.2306 -0.3056
    1W        W59056  20.972  12.114   0.741 -0.3338  0.0356  0.3927
    1W        W59057   8.412  27.741   1.284 -0.0546 -0.0452  0.3183
    1W        W59058  15.744  21.002   7.712 -0.1366 -0.1309 -0.2093
    1W        W59059  26.424   5.718   8.248 -0.0155 -0.0100  0.0060
    1W        W59060   0.164  10.668   0.258  0.0830  0.1553 -0.1308
    1W        W59061  15.575  20.207   0.418  0.5621  0.2821  0.0018
    1W        W59062  26.819   5.905   1.709 -0.1730 -0.2047 -0.1207
    1W        W59063  15.280  14.284   0.350 -0.0655  0.1302  0.1374
    1W        W59064  28.765  18.657   0.334  0.1499  0.0784  0.1070
    1W        W59065   8.131   1.651   2.706 -0.0659  0.1954  0.1417
    1W        W59066  25.355  14.027   7.235  0.0573  0.1361 -0.2090
    1W        W59067   3.354   2.798   2.106 -0.3271  0.2752  0.2386
    1W        W59068   0.496   2.868   2.697  0.1774  0.0689 -0.2554
    1W        W59069  23.422   8.909   1.403  0.0637  0.0748  0.0766
    1W        W59070   0.409   9.999   8.425  0.0298 -0.1456 -0.1121
    1W        W59071  18.038  28.865   0.323 -0.4577  0.3726  0.0459
    1W        W59072   2.166  10.987   8.755  0.1933 -0.3191 -0.0227
    1W        W59073   2.456   3.469   2.079  0.0009  0.0219 -0.0851
    1W        W59074  17.854  27.019   6.428 -0.0007 -0.2289 -0.2385
    1W        W59075   4.854  28.465   7.551  0.0029  0.1069 -0.0298
    1W        W59076  18.545  26.294   3.676 -0.2765  0.0626 -0.1584
    1W        W59077  27.705   3.226   7.229 -0.0034  0.3413 -0.0250
    1W        W59078  29.345  22.096   2.442  0.1397 -0.2246 -0.1110
    1W        W59079  24.662  25.508   6.850 -0.2233 -0.1223  0.0241
    1W        W59080  16.892  25.962   0.646 -0.2668  0.1230 -0.0252
    1W        W59081  11.115  19.956   0.008  0.1567 -0.0088 -0.0575
    1W        W59082  11.929  23.017   7.424 -0.0769 -0.0454  0.3614
    1W        W59083   9.825  16.991   1.803  0.0001  0.1202 -0.0212
    1W        W59084   7.314  11.697   1.796  0.0898 -0.0321  0.3171
    1W        W59085  27.916   2.765   7.122 -0.2434 -0.0369 -0.2019
    1W        W59086   9.960  20.385   8.327 -0.1307 -0.0676 -0.1750
    1W        W59087  24.179   5.919   0.957  0.0083  0.0478 -0.0473
    1W        W59088  23.844  19.395   7.468  0.1423 -0.1121 -0.4461
    1W        W59089  12.867  20.053   7.318 -0.5283 -0.2080 -0.0587
    1W        W59090  28.612   9.679   2.007  0.1275 -0.2565  0.0683
    1W        W59091  27.250  15.701   0.790 -0.1982 -0.1506 -0.1903
    1W        W59092  25.190  16.207   6.919 -0.3383  0.1987  0.2308
    1W        W59093  19.135  27.274   2.679 -0.2348  0.4297 -0.1473
    1W        W59094   7.652   8.520   7.489  0.1935  0.3486 -0.3862
    1W        W59095   4.233  27.610   8.482  0.2898  0.1940 -0.1780
    1W        W59096  18.935  25.198   2.857  0.0294 -0.0172 -0.1492
    1W        W59097   8.369  22.435   7.207 -0.1846  0.0427  0.4596
    1W        W59098   4.092  14.758   5.860 -0.2682 -0.1416 -0.2364
    1W        W59099  29.514  13.198   6.970 -0.1891  0.0497  0.0709
    1W        W59100  16.390  21.366   7.571  0.4382 -0.0435  0.2175
    1W        W59101  24.380  16.113   7.332 -0.2309 -0.2193 -0.0914
    1W        W59102   0.943  24.738   2.069 -0.1366 -0.1455  0.1020
    1W        W59103   5.878  21.769   7.689 -0.1382  0.0248 -0.0650
    1W        W59104   6.301  26.228   6.539  0.2995 -0.2539  0.0055
    1W        W59105   5.618  20.678   0.844 -0.1553 -0.1808 -0.2378
    1W        W59106  24.221  15.251   6.360  0.3028  0.1989  0.3349
    1W        W59107   4.064  24.575   0.748 -0.2566  0.1641 -0.0103
    1W        W59108  11.805  14.142   2.015  0.1110  0.3119  0.3314
    1W        W59109  19.140  15.640   1.063 -0.1054 -0.0037 -0.0108
    1W        W59110   6.448   3.558   9.301 -0.0189 -0.0040 -0.1180
    1W        W59111  26.483   9.315   1.235  0.0227  0.0424 -0.1635
    1W        W59112   9.798  26.077   7.944 -0.1573 -0.0462 -0.0451
    1W        W59113  15.781   4.667   7.927 -0.2394 -0.0228 -0.2410
    1W        W59114  23.632  18.092   6.943 -0.2551  0.2594 -0.1548
    1W        W59115  14.817  23.156   1.161  0.3251  0.1272 -0.0804
    1W        W59116   3.046  26.972   9.208  0.0916 -0.0150 -0.0617
    1W        W59117  12.849  22.353   1.794  0.1601 -0.2968 -0.0488
    1W        W59118   7.702  19.202   9.149  0.0425  0.1013  0.1978
    1W        W59119  26.535  26.161   2.137  0.2127  0.0185  0.0001
    1W        W59120   3.389   2.491   7.150  0.1177  0.0752 -0.2009
    1W        W59121  10.634   4.012   3.329 -0.1068  0.2005  0.1017
    1W        W59122   9.086  18.234   0.027  0.1247  0.1140  0.1735
    1W        W59123  27.005   1.846   0.390 -0.1014  0.0130 -0.3851
    1W        W59124   4.265  18.298   1.146 -0.0592  0.1608 -0.0029
    1W        W59125  11.434  21.200   0.443  0.2238 -0.2389 -0.0030
    1W        W59126   2.255   0.784   0.635 -0.0192 -0.0055  0.2169
    1W        W59127  29.673   1.492   6.733  0.1564  0.1040  0.2250
    1W        W59128  19.556   0.807   2.134 -0.0905  0.0526  0.3667
    1W        W59129  26.398  12.777   9.011  0.2590 -0.1657 -0.1170
    1W        W59130   7.366  10.675   1.618 -0.0017  0.0098 -0.2927
    1W        W59131  18.379  11.936   7.272  0.1523 -0.0072  0.1734
    1W        W59132  16.836   5.070   6.869  0.0306 -0.1714 -0.0012
    1W        W59133   0.495  22.037   1.118  0.0502  0.1366 -0.1167
    1W        W59134  27.212   4.099   7.716  0.0469  0.1383  0.4857
    1W        W59135  10.691  28.854   7.578  0.0090 -0.0917 -0.2905
    1W        W59136  10.891  18.826   0.651 -0.1761 -0.1267  0.1462
    1W        W59137  12.210  25.375   8.723  0.0676 -0.1516  0.2036
    1W        W59138   4.956  24.839   8.695 -0.2635 -0.3720 -0.0505
    1W        W59139   4.979   7.702   0.100 -0.1330 -0.1034  0.0169
    1W        W59140   8.820  14.256   6.831  0.2515 -0.4748 -0.2528
    1W        W59141   8.376  19.369   1.475 -0.5427  0.0480  0.1034
    1W        W59142  17.592  23.911   9.204 -0.1473 -0.0952  0.4960
    1W        W59143   4.705  13.140   0.895 -0.1671  0.0799  0.0200
    1W        W59144  26.913   5.370   1.839  0.0450  0.2090  0.4770
    1W        W59145  24.955  10.865   2.364  0.0018  0.0504 -0.2356
    1W        W59146  29.656  10.929   1.413 -0.0901 -0.2483  0.0268
    1W        W59147   7.701   1.536   2.850 -0.2530  0.1809 -0.0846
    1W        W59148  18.809   9.695   7.469 -0.0583 -0.0473  0.1610
    1W        W59149   9.403  25.069   9.292  0.1801 -0.2486  0.1163
    1W        W59150  24.948  20.261   0.460 -0.0627  0.0662 -0.0980
    1W        W59151  24.617  17.852   0.172  0.2329 -0.0599 -0.3014
    1W        W59152  10.934   4.945   1.106 -0.1819 -0.0316 -0.0237
    1W        W59153  26.245  23.363   6.696 -0.1420  0.1129  0.1448
    1W        W59154  14.543   9.332   7.656  0.1679  0.2687 -0.2629
    1W        W59155  17.911  20.856   1.920  0.0839 -0.1965 -0.0906
    1W        W59156  21.312  15.649   7.168 -0.2909 -0.1264 -0.0620
    1W        W59157  24.360  14.149   6.188  0.0383 -0.1142 -0.0355
    1W        W59158   4.205  16.955   8.403  0.0633  0.1666 -0.0213
    1W        W59159  29.532  22.283   8.824 -0.1161  0.0246 -0.1147
    1W        W59160  11.940  15.417   8.159  0.2319 -0.0120  0.3683
    1W        W59161  13.930   4.521   7.459 -0.0954 -0.0030 -0.1399
    1W        W59162  12.575  21.420   2.660 -0.1373 -0.2378  0.0458
    1W        W59163  26.279  21.776   0.775  0.1636  0.3550  0.0347
    1W        W59164   2.812  20.741   7.181 -0.0307  0.1211  0.0164
    1W        W59165   5.089   6.439   3.029 -0.3270 -0.2282  0.2497
    1W        W59166  17.578  18.755   7.638 -0.1454  0.1541  0.1521
    1W        W59167  14.712   2.003   2.057 -0.0477 -0.3602  0.3268
    1W        W59168  26.668  11.881   1.703 -0.2098  0.1029 -0.2412
    1W        W59169  14.046  17.366   2.250 -0.2085 -0.1150  0.0664
    1W        W59170  18.233  13.951   7.806  0.1347  0.1750 -0.0003
    1W        W59171  13.473  29.893   0.164  0.3116 -0.0739  0.1265
    1W        W59172  29.337  26.143   8.589 -0.0808  0.1345 -0.1906
    1W        W59173   0.448   0.485   7.593 -0.1277  0.1745  0.0348
    1W        W59174   1.177  29.530   9.244 -0.0280 -0.0973 -0.0173
    1W        W59175  12.501   7.403   1.069 -0.1020 -0.0491 -0.0557
    1W        W59176  20.735   6.058   8.288  0.0193 -0.2025  0.0669
    1W        W59177  17.420  11.471   7.981 -0.0295  0.0377  0.2123
    1W        W59178   2.706  28.562   7.940 -0.0478 -0.1308  0.0502
    1W        W59179  25.246  10.104   8.694  0.0371 -0.1270  0.1758
    1W        W59180   4.626  26.067   7.403  0.2594 -0.0442  0.2344
    1W        W59181  25.217   8.246   8.465 -0.1396 -0.2757  0.0299
    1W        W59182   7.461  23.960   7.421 -0.0487  0.0854  0.1349
    1W        W59183   1.020  24.338   8.484  0.2943  0.0277  0.0920
    1W        W59184  24.426  24.211   0.141  0.0507 -0.1278 -0.0889
    1W        W59185  17.331  25.287   6.976 -0.1266 -0.1189 -0.0286
    1W        W59186  25.728   5.170   0.267 -0.0739  0.0591  0.1061
    1W        W59187  26.589   9.891   8.705  0.3815 -0.2784 -0.1574
    1W        W59188  18.179  28.267   2.749 -0.0531  0.1042  0.1274
    1W        W59189  11.827   3.987   7.443 -0.0191 -0.2417 -0.2341
    1W        W59190  12.857   0.503   3.337 -0.3288  0.1373  0.1647
    1W        W59191  21.803  20.730   1.352 -0.1303 -0.1625 -0.0455
    1W        W59192  26.659  25.462   1.508 -0.1127 -0.1480  0.3912
    1W        W59193  13.830   1.075   1.051  0.0287 -0.1028  0.2944
    1W        W59194   3.105  10.103   3.099 -0.0803 -0.0324 -0.0081
    1W        W59195  23.516  15.864   0.905  0.2329 -0.3245  0.1019
    1W        W59196  28.268   9.981   6.627 -0.1629  0.2323 -0.1026
    1W        W59197  14.022   9.098   9.297  0.0638  0.1755 -0.0879
    1W        W59198   2.908   2.641   7.465  0.2320  0.1314  0.2927
    1W        W59199  24.593  18.932   9.066 -0.1659  0.2213 -0.0443
    1W        W59200   1.684   5.773   3.035 -0.0798  0.0887 -0.1807
    1W        W59201  26.026   6.905   0.299 -0.2178  0.1245  0.1864
    1W        W59202  12.053   3.696   1.756  0.1355 -0.1186 -0.0315
    1W        W59203  18.452   5.563   8.476 -0.1010 -0.1844 -0.0680
    1W        W59204  10.717  29.681   0.771  0.0034  0.1301 -0.1193
    1W        W59205   0.477  25.075   7.612  0.2341  0.0623  0.4149
    1W        W59206  20.557  25.637   1.894  0.0264  0.1862  0.1008
    1W        W59207   4.341   6.055   2.660  0.2495  0.1916  0.1025
    1W        W59208  22.903  29.097   8.277  0.0576 -0.0837 -0.0750
    1W        W59209   5.368  25.451   7.385 -0.3823  0.2886  0.0840
    1W        W59210   8.857  24.457   8.450  0.0390  0.2367 -0.1932
    1W        W59211   0.750   2.411   0.236  0.1007 -0.1862  0.0284
    1W        W59212  20.679  12.218   7.766  0.0644  0.2832 -0.1566
    1W        W59213  26.768  13.809   2.078  0.0695  0.0140  0.0083
    1W        W59214   1.799  21.491   9.077 -0.1292 -0.0251 -0.1717
    1W        W59215  29.192   4.123   0.859  0.1131 -0.2100 -0.1204
    1W        W59216   5.227  13.478   1.427  0.2031  0.0537 -0.1365
    1W        W59217  12.080   0.975   8.431 -0.0093 -0.0878 -0.0758
    1W        W59218  29.512   5.464   0.618 -0.2139  0.0371 -0.1399
    1W        W59219   7.750   5.526   1.382 -0.2218 -0.1316 -0.1865
    1W        W59220   7.021   9.216   0.532 -0.5213 -0.1801  0.2453
    1W        W59221   9.842  17.632   8.421 -0.2036  0.0271  0.1053
    1W        W59222  12.920   7.461   8.676  0.0646  0.3090  0.1668
    1W        W59223  24.509  29.650   8.345 -0.1127  0.1044 -0.0023
    1W        W59224   8.373   3.851   0.650  0.1589  0.2428  0.0414
    1W        W59225  23.322  26.953   2.357 -0.0801  0.1895  0.1074
    1W        W59226  22.337   4.494   7.638  0.2596 -0.0172 -0.2465
    1W        W59227   5.369  18.178   0.849  0.0397 -0.0587 -0.0924
    1W        W59228   1.796  10.905   6.814  0.0519  0.0429 -0.0289
    1W        W59229   4.387   5.623   0.952 -0.3896  0.0524  0.0696
    1W        W59230  19.754   8.176   1.833 -0.1311 -0.1169  0.2802
    1W        W59231  16.763  24.646   0.720  0.0406 -0.1149 -0.1248
    1W        W59232   6.530  26.808   7.497 -0.0078  0.0620  0.2165
    1W        W59233  22.289  22.485   0.862  0.2227 -0.1200 -0.0026
    1W        W59234  20.901  16.600   0.978 -0.0113 -0.0952 -0.3579
    1W        W59235  13.333   7.369   7.076 -0.4396 -0.0919  0.4084
    1W        W59236  10.333  27.603   2.566 -0.0611 -0.1075 -0.2137
    1W        W59237   8.000  23.641   8.914  0.2562 -0.0524  0.1956
    1W        W59238  18.480   2.152   9.226 -0.2556  0.0578 -0.0613
    1W        W59239  12.696  21.799   6.352  0.0950  0.2157  0.0256
    1W        W59240  27.145  20.671   3.124  0.0621  0.0364 -0.0949
    1W        W59241  18.557  25.614   0.094 -0.0409  0.1393 -0.0653
    1W        W59242  17.827  19.702   1.397  0.1948 -0.1469 -0.1446
    1W        W59243   2.054  15.269   2.342 -0.1510  0.1052 -0.1300
    1W        W59244  10.817   1.376   2.874  0.1317  0.1055 -0.1987
    1W        W59245  16.663  22.640   0.823  0.0046 -0.0771  0.3398
    1W        W59246  28.952  27.428   8.542  0.2962 -0.0574  0.0692
    1W        W59247   1.608   8.888   3.208 -0.0296  0.0020  0.0789
    1W        W59248  14.720   5.150   8.203  0.0413 -0.1226 -0.1945
    1W        W59249   0.747   9.146   6.998  0.2483 -0.1886  0.0641
    1W        W59250   3.140   3.782   8.693 -0.2195  0.0585 -0.0614
    1W        W59251  21.066   4.115   2.037  0.1094 -0.0329 -0.1222
    1W        W59252  27.638   1.866   7.626 -0.1915  0.0858  0.2248
    1W        W59253   3.911  19.519   0.077  0.1579 -0.0294 -0.1899
    1W        W59254  24.202  18.258   2.689 -0.0548 -0.0818  0.0123
    1W        W59255  22.716  11.284   2.750 -0.0434  0.3346 -0.0045
    1W        W59256  10.215   1.277   1.863 -0.1541  0.0513  0.0374
    1W        W59257  12.436  26.849   2.779 -0.2202  0.1564 -0.0315
    1W        W59258  14.150  10.813   2.087  0.0760  0.0001 -0.2539
    1W        W59259  21.604   7.861   6.564  0.0256 -0.1958 -0.0777
    1W        W59260  24.070  13.719   1.606 -0.1932 -0.3071 -0.1382
    1W        W59261  29.189  28.145   7.760  0.2432 -0.0442 -0.1980
    1W        W59262  12.386  26.307   0.750  0.3101 -0.0024  0.0967
    1W        W59263  24.742  29.238   8.482  0.2153 -0.0141 -0.2433
    1W        W59264  22.261  25.102   1.582  0.1077  0.0774 -0.2048
    1W        W59265   3.038  28.594   7.318 -0.0909 -0.0005  0.1867
    1W        W59266  28.008  21.577   8.091 -0.1442 -0.0111  0.0671
    1W        W59267   6.046  18.368   0.034 -0.0261 -0.2505  0.2248
    1W        W59268   1.677  10.715   7.860 -0.0655 -0.1487 -0.3391
    1W        W59269   9.078  16.017   7.470 -0.1013 -0.2712 -0.0736
    1W        W59270  17.477   0.945   7.197  0.3278  0.0339 -0.0623
    1W        W59271  15.883  10.139   1.146  0.2485  0.1477  0.1559
    1W        W59272   3.408  14.329   0.383 -0.0316 -0.0885 -0.1978
    1W        W59273  18.414   4.637   7.760  0.3509  0.4560  0.1488
    1W        W59274   5.034  18.745   6.592 -0.4244 -0.0689 -0.2788
    1W        W59275  23.473   0.010   1.618 -0.1272 -0.0290  0.2712
    1W        W59276   4.924   5.995   2.158 -0.1418 -0.1469 -0.2583
    1W        W59277   0.574   4.940   9.299 -0.4455 -0.2906 -0.2339
    1W        W59278  16.838  19.439   1.378 -0.0582  0.1562  0.2237
    1W        W59279  29.877  25.172   2.083 -0.0469 -0.2979  0.0550
    1W        W59280  15.793   8.782   8.686  0.2760  0.1126  0.0425
    1W        W59281  24.059  11.222   7.530  0.0176 -0.1595 -0.0489
    1W        W59282  22.726  26.435   1.916 -0.2744 -0.4231  0.1664
    1W        W59283  18.627  21.372   0.886  0.4430 -0.0017 -0.1209
    1W        W59284  23.797  14.703   1.447  0.1336 -0.0767  0.0186
    1W        W59285  11.658  13.311   7.894  0.3007  0.0932 -0.0556
    1W        W59286  19.243  29.003   0.738 -0.2759 -0.1831  0.0532
    1W        W59287   4.849  20.889   2.070  0.1155  0.1883 -0.0940
    1W        W59288   8.697  16.691   9.295  0.1576  0.0824 -0.1353
    1W        W59289  21.387   9.100   8.231  0.2581  0.0213 -0.0037
    1W        W59290  23.031   8.829   1.788 -0.0845 -0.2598  0.1496
    1W        W59291  14.718   6.397   2.817  0.1620  0.2948 -0.1243
    1W        W59292  25.510  19.439   6.623  0.0827 -0.1120  0.0945
    1W        W59293   6.941   5.480   1.834  0.1016  0.3053 -0.0838
    1W        W59294  11.692   8.084   6.664 -0.3500 -0.0129  0.1505
    1W        W59295  13.024  21.278   8.475 -0.0631 -0.1811  0.0643
    1W        W59296  18.518  26.000   8.793 -0.1499 -0.0066 -0.1216
    1W        W59297  18.850  18.962   0.824 -0.1972  0.2628  0.1567
    1W        W59298  10.414  18.522   0.952  0.1622 -0.3274  0.5373
    1W        W59299   1.317  22.883   0.901 -0.1064 -0.0649  0.0715
    1W        W59300   2.018  16.921   7.814  0.2487 -0.1632  0.1348
    1W        W59301  23.325  16.671   8.155  0.1256 -0.0278  0.0117
    1W        W59302   0.843   3.297   6.602  0.4272 -0.2988  0.0351
    1W        W59303  29.005  24.238   1.079  0.0201 -0.2092 -0.3532
    1W        W59304  25.178  25.396   8.069  0.3576 -0.0798  0.1160
    1W        W59305  13.494  22.406   7.000 -0.1277  0.1122 -0.0935
    1W        W59306  26.997   7.744   6.880  0.1505  0.2689  0.1215
    1W        W59307  17.246   6.420   0.495 -0.3438  0.1146  0.2897
    1W        W59308  19.535  18.533   0.839 -0.1775 -0.0215 -0.0525
    1W        W59309  28.083  25.549   7.398  0.3613 -0.0969 -0.0567
    1W        W59310   4.335  20.521   7.462  0.2441 -0.0193 -0.2127
    1W        W59311  18.042   7.227   9.427 -0.2566  0.1314 -0.3500
    1W        W59312  25.891  13.085   0.165 -0.2117 -0.0073 -0.0859
    1W        W59313  27.938  25.849   9.407  0.0085 -0.0044 -0.4995
    1W        W59314  11.896  13.927   8.161 -0.4032 -0.2805  0.0821
    1W        W59315  10.626  20.793   2.239 -0.1926  0.1274  0.0284
    1W        W59316  26.975  13.053   0.479 -0.2660 -0.0289  0.2367
    1W        W59317  22.362  24.580   7.157  0.1905  0.1722  0.1454
    1W        W59318   7.943  14.399   0.292  0.0592 -0.1325  0.3515
    1W        W59319   2.227  13.429   6.708  0.2714 -0.3455  0.1573
    1W        W59320  27.702   8.240   8.136  0.1020  0.0336 -0.0184
    1W        W59321   1.568  26.628   0.162  0.0346 -0.0954  0.1473
    1W        W59322   9.708   5.361   3.383  0.1063 -0.1244 -0.0529
    1W        W59323  27.437  13.856   8.448  0.0637  0.0296 -0.1918
    1W        W59324  19.964  22.707   9.413  0.1758 -0.1744  0.2880
    1W        W59325   1.629   3.926   8.172  0.4590  0.5459  0.0630
    1W        W59326  17.443  27.572   2.748  0.0667 -0.0220  0.0072
    1W        W59327  19.809   1.465   8.595  0.1685  0.1719 -0.0662
    1W        W59328  20.066  17.446   7.493  0.1369  0.2402 -0.1803
    1W        W59329   7.626  15.105   8.868 -0.4884 -0.2843  0.1393
    1W        W59330   2.975   7.875   3.132  0.2031  0.0566  0.2802
    1W        W59331  15.081  16.381   9.342 -0.1637 -0.2624 -0.0366
    1W        W59332  10.274  18.299   7.981  0.3975 -0.4226 -0.1549
    1W        W59333  26.035   4.366   8.443 -0.1100  0.4163 -0.4083
    1W        W59334   2.013   8.205   8.019 -0.1051  0.0608  0.0533
    1W        W59335  25.956   9.278   9.066  0.0450 -0.2774 -0.3113
    1W        W59336  18.711  29.644   9.242  0.0995  0.0436 -0.3670
    1W        W59337  18.988   9.146   7.652 -0.1061 -0.2557  0.0098
    1W        W59338   3.653  27.793   8.060 -0.1810 -0.1697 -0.0312
    1W        W59339  18.439   6.228   6.209  0.2605 -0.2142  0.2797
    1W        W59340  17.283   2.437   8.176 -0.3923 -0.2446 -0.2611
    1W        W59341   5.070  28.501   9.365 -0.1271  0.1369  0.2552
    1W        W59342  23.181   0.408   7.860  0.0989  0.0516 -0.0885
    1W        W59343  18.829   4.304   1.013  0.0880  0.2636  0.3525
    1W        W59344   3.071  10.495   2.698  0.2021  0.0091  0.3577
    1W        W59345   5.328  23.887   2.221  0.1993  0.1170  0.0265
    1W        W59346  20.108  13.970   0.815 -0.1207  0.4930  0.0467
    1W        W59347  26.757  27.777   1.030 -0.2734  0.0769  0.1216
    1W        W59348   0.003   3.171   6.669 -0.0804  0.3772  0.1703
    1W        W59349   9.901  26.323   9.437 -0.0506 -0.1747 -0.4430
    1W        W59350   1.718  11.585   8.367  0.0363 -0.3857  0.1278
    1W        W59351   9.222  25.966   6.705  0.1760 -0.0769  0.2283
    1W        W59352  17.241   9.709   6.711  0.0922 -0.2770  0.0400
    1W        W59353   7.227  13.566   7.064 -0.0881  0.0674 -0.1982
    1W        W59354  10.301  23.219   1.890 -0.2348  0.0471 -0.2111
    1W        W59355  11.194  19.667   1.181 -0.2885  0.2288  0.1940
    1W        W59356  14.612   8.024   7.944  0.0784  0.1769 -0.1344
    1W        W59357   9.920  17.785   6.720 -0.2257 -0.2527 -0.0127
    1W        W59358  17.777   9.710   1.655 -0.1065  0.2486 -0.3369
    1W        W59359   1.930  28.136   0.604 -0.0905  0.3547 -0.0110
    1W        W59360  16.309  21.802   7.889 -0.1234  0.1916 -0.0160
    1W        W59361   3.734  13.016   1.117 -0.0227 -0.0594 -0.0359
    1W        W59362   5.515  10.972   8.537 -0.0299 -0.3795  0.0250
    1W        W59363  21.937   3.964   9.349  0.0094  0.1391 -0.0494
    1W        W59364  16.283   9.115   7.390  0.0777 -0.0761 -0.2379
    1W        W59365  27.707  24.433   7.031 -0.1261  0.2287  0.0230
    1W        W59366  13.067  25.045   8.721 -0.2231  0.2185  0.2290
    1W        W59367  13.455   1.483   1.210  0.3740 -0.0877 -0.0495
    1W        W59368  22.170  14.303   9.397  0.1849  0.0789  0.0719
    1W        W59369  24.065  26.835   9.094 -0.0737 -0.0206  0.2339
    1W        W59370  28.777   1.446   8.406  0.1298 -0.2267 -0.2331
    1W        W59371  22.102   7.543   6.684 -0.2146 -0.0504 -0.1764
    1W        W59372   8.831  13.010   7.703 -0.2970  0.0185  0.0552
    1W        W59373  20.938  27.326   4.427 -0.0239  0.2146  0.0065
    1W        W59374  26.142  19.921   1.232 -0.4098 -0.2452  0.1337
    1W        W59375  26.836  26.110   8.744 -0.0913  0.0291  0.4089
    1W        W59376   1.951   8.890   8.585 -0.1369  0.1304  0.0075
    1W        W59377   9.257   1.470   0.329  0.1740 -0.0539 -0.1434
    1W        W59378  26.726   3.436   7.573  0.1032  0.2399  0.0844
    1W        W59379  21.701   6.960   7.553  0.2148  0.4641  0.0375
    1W        W59380  14.328  19.903   0.985 -0.1660 -0.1726  0.0924
    1W        W59381  22.945   4.513   0.654 -0.2067 -0.2990  0.0605
    1W        W59382  26.689   4.558   8.865 -0.0616 -0.2834  0.0419
    1W        W59383   5.920   7.977   0.757 -0.1293 -0.0023  0.0390
    1W        W59384   1.054   8.570   6.966 -0.0116  0.2040 -0.1299
    1W        W59385   9.609  24.287   6.412 -0.2337  0.1201 -0.0101
    1W        W59386  13.224  22.169   1.534 -0.0590 -0.0413 -0.0408
    1W        W59387   1.679  13.069   7.317  0.1109 -0.1029  0.3279
    1W        W59388   7.224  27.600   7.903  0.1986 -0.1942  0.2747
    1W        W59389  10.038   5.896   2.826  0.0779 -0.3725  0.2235
    1W        W59390  25.756  18.827   7.760 -0.0753  0.1010 -0.1680
    1W        W59391  23.640  27.096   1.793  0.4623  0.1953 -0.4291
    1W        W59392   7.677  21.514   6.623 -0.1089 -0.1718  0.0050
    1W        W59393  27.199  24.614   2.884 -0.0995 -0.1317  0.3192
    1W        W59394  15.196  22.021   1.256 -0.3162 -0.0882  0.1328
    1W        W59395  20.384  10.440   6.809  0.1699 -0.1501 -0.2411
    1W        W59396  27.843   1.143   6.813  0.0724  0.4135  0.1331
    1W        W59397  25.741  26.073   8.237  0.1452 -0.2526 -0.1141
    1W        W59398  11.058  22.248   7.803 -0.2415 -0.1591 -0.0942
    1W        W59399  13.266  19.033   8.432  0.0876  0.1359 -0.0286
    1W        W59400  20.139   6.225   7.924  0.0221  0.1030  0.0068
    1W        W59401   3.724   0.445   1.996  0.0866 -0.1618  0.5093
    1W        W59402  14.771  26.222   8.208  0.0701  0.1705  0.0154
    1W        W59403   7.756   7.498   2.688  0.0117 -0.3294  0.2016
    1W        W59404  12.756  21.072   0.746 -0.1609 -0.1438  0.1927
    1W        W59405   3.135  10.848   8.891 -0.0871  0.4557 -0.2516
    1W        W59406   1.034   7.690   0.754 -0.2667 -0.0616 -0.0549
    1W        W59407  25.054  26.847   1.740 -0.1712  0.2736 -0.1022
    1W        W59408  25.310  19.119   7.540 -0.0579  0.2650  0.0186
    1W        W59409  17.289   8.823   2.356 -0.3186  0.1704 -0.3032
    1W        W59410  22.327  25.487   3.081 -0.3546 -0.0195 -0.2345
    1W        W59411   2.831   4.465   0.060  0.3276 -0.0431  0.3805
    1W        W59412   4.157  23.407   6.404  0.0946  0.0039 -0.0710
    1W        W59413  13.207  13.167   2.263  0.0981 -0.0836 -0.3047
    1W        W59414   5.087  13.776   0.733 -0.0066 -0.5947  0.0917
    1W        W59415   6.942  15.660   1.900  0.1730  0.0306  0.0562
    1W        W59416  26.181  29.534   7.413  0.1522 -0.0111 -0.0576
    1W        W59417  12.798  19.039   9.460 -0.0549 -0.1779 -0.1191
    1W        W59418   1.543  11.297   6.628  0.1489  0.1506  0.1845
    1W        W59419  27.713  26.771   6.341  0.4419 -0.0545  0.0708
    1W        W59420   3.622  12.435   9.279  0.0011 -0.1935 -0.0104
    1W        W59421   1.627  25.374   8.481  0.1071 -0.1187 -0.3346
    1W        W59422  22.720  20.693   7.839 -0.2354  0.1438  0.0193
    1W        W59423  20.040  21.055   1.009  0.1239 -0.3279 -0.0794
    1W        W59424   3.478  27.216   0.783  0.0986 -0.1588 -0.3625
    1W        W59425  11.558  19.643   8.500  0.1113 -0.1983 -0.0299
    1W        W59426   7.359   3.273   2.974  0.2892 -0.0306  0.0327
    1W        W59427   5.576   3.003   3.141  0.1133 -0.0070 -0.1353
    1W        W59428  21.492  12.857   6.644  0.0959  0.2821 -0.0601
    1W        W59429   4.834   4.243   0.096 -0.0146  0.0933  0.0208
    1W        W59430  24.891   5.974   1.630 -0.0721 -0.0677  0.5693
    1W        W59431  29.470  28.438   2.063 -0.2866 -0.0978  0.1765
    1W        W59432  20.707  15.070   1.945 -0.0601  0.0397 -0.1171
    1W        W59433  12.830  26.306   7.237 -0.0114 -0.1754 -0.0279
    1W        W59434  15.253  14.164   1.292  0.2846  0.0862 -0.1285
    1W        W59435  14.674  16.077   1.208 -0.3250 -0.1631 -0.1186
    1W        W59436  21.183  19.865   9.318 -0.0628  0.0271 -0.0434
    1W        W59437  23.889   8.809   2.134  0.5013  0.1655 -0.0437
    1W        W59438   6.103   3.871   0.215  0.2911  0.0086  0.2255
    1W        W59439  26.732  12.900   5.661  0.3252 -0.2457  0.2116
    1W        W59440  11.180  22.687   5.695  0.1255 -0.0104  0.0881
    1W        W59441  24.302  26.180   2.805  0.1238 -0.1138 -0.1763
    1W        W59442   5.447  18.494   6.426 -0.0157 -0.0086  0.2777
    1W        W59443   2.049  29.108   1.762  0.2085 -0.0293  0.0249
    1W        W59444  22.554  29.346   7.013  0.1949  0.0613  0.2816
    1W        W59445   8.459   3.507   8.249 -0.4236 -0.1662 -0.0569
    1W        W59446  23.096   0.406   2.331  0.2358 -0.4229 -0.0500
    1W        W59447   5.694   6.843   8.786 -0.3047 -0.0957 -0.1937
    1W        W59448   7.710  20.376   2.000  0.1253  0.0370 -0.0917
    1W        W59449   9.256  22.628   8.767  0.0673 -0.0404 -0.0729
    1W        W59450   6.814  11.321   7.704  0.2355  0.1749  0.0020
    1W        W59451  15.088  22.097   1.845 -0.1730 -0.0582  0.3418
    1W        W59452  29.482   8.163   9.215  0.2638 -0.0215  0.1134
    1W        W59453   5.631   0.572   1.048  0.1899  0.0500 -0.0328
    1W        W59454   3.194  15.251   7.614 -0.2961 -0.4130  0.1338
    1W        W59455  17.361  21.899   7.856  0.4238 -0.0977  0.1891
    1W        W59456   2.394   3.757   7.408 -0.0485  0.0800 -0.2949
    1W        W59457   0.209  27.625   7.230  0.0173  0.0052 -0.3212
    1W        W59458  19.315  29.209   6.445 -0.0897 -0.1644  0.0972
    1W        W59459  16.777  19.159   8.688 -0.2191 -0.2671 -0.0089
    1W        W59460   4.195  29.879   0.812  0.3276  0.3653  0.2187
    1W        W59461  18.332  17.461   0.503  0.0806  0.0204 -0.0799
    1W        W59462   2.007  12.295   2.581 -0.0556 -0.4918 -0.0166
    1W        W59463  26.133  18.629   6.524 -0.0530  0.0588  0.3653
    1W        W59464   5.359   1.979   2.032  0.0465 -0.0715 -0.1338
    1W        W59465  28.238   8.283   2.258 -0.0065  0.0665  0.0988
    1W        W59466   5.436   3.268   2.534 -0.0281 -0.3745 -0.2974
    1W        W59467  14.146   0.524   0.405 -0.0533 -0.0205 -0.4702
    1W        W59468  19.975  21.242   2.551  0.2574  0.0908 -0.1647
    1W        W59469  18.357  16.424   7.334  0.0654  0.2794 -0.1582
    1W        W59470  18.954  15.190   1.429  0.2129 -0.2058 -0.2664
    1W        W59471  11.438   4.804   1.209  0.1337 -0.0242 -0.2143
    1W        W59472   9.846  26.799   9.104  0.2704  0.0244  0.1931
    1W        W59473   0.207  23.205   7.693  0.2035 -0.1945 -0.3029
    1W        W59474  21.735  13.959   0.660  0.2404  0.1991 -0.2582
    1W        W59475  20.803   2.430   1.354  0.0431 -0.1134 -0.1099
    1W        W59476  26.177   2.148   0.237  0.4437 -0.1842 -0.0150
    1W        W59477   4.809  28.737   2.363  0.2579 -0.1960 -0.0535
    1W        W59478   3.583  15.902   8.130  0.1049 -0.0297  0.0093
    1W        W59479   9.572  24.268   1.424 -0.0050  0.0892  0.0366
    1W        W59480  24.428   3.360   8.308  0.0141 -0.1119  0.0012
    1W        W59481  28.701   7.314   1.011 -0.1295 -0.0466 -0.0769
    1W        W59482  22.379  12.658   6.182 -0.0521 -0.0988  0.0678
    1W        W59483   1.119   9.790   6.795 -0.0707 -0.0108 -0.1650
    1W        W59484  11.277  14.937   8.497 -0.0328 -0.3545 -0.0560
    1W        W59485  21.466  26.057   8.073 -0.2178 -0.2251  0.1079
    1W        W59486   1.210   1.421   7.803 -0.1368 -0.3306 -0.0994
    1W        W59487  28.125  19.650   8.203  0.2764 -0.0141  0.1358
    1W        W59488  15.969  15.325   7.842  0.0963 -0.0286  0.2561
    1W        W59489   3.783   2.715   3.564  0.5451  0.1199  0.0586
    1W        W59490  19.049  29.558   0.891 -0.1450  0.2560 -0.0551
    1W        W59491  15.783   6.053   7.380 -0.0192  0.3618 -0.0022
    1W        W59492  12.777  16.404   8.915  0.1156  0.1569  0.1732
    1W        W59493  12.820  27.193   9.150  0.1865 -0.0670  0.0191
    1W        W59494  12.888  20.893   6.277  0.4053 -0.1584  0.1132
    1W        W59495   4.640   3.889   3.007 -0.0771  0.0110  0.0197
    1W        W59496  14.533   6.429   2.056  0.2935  0.2181  0.1258
    1W        W59497   9.386  14.210   7.316 -0.1820  0.1961 -0.1398
    1W        W59498   3.284   4.946   1.878 -0.1844 -0.0712 -0.2557
    1W        W59499   8.011   5.790   2.160 -0.0816  0.1670  0.0158
    1W        W59500  19.535  21.165   2.193 -0.1327 -0.1432  0.0966
    1W        W59501  12.711  29.813   9.355  0.2446 -0.1150 -0.1813
    1W        W59502  23.686   2.046   8.352 -0.0616  0.1376 -0.2418
    1W        W59503  25.089  21.170   8.113 -0.0597  0.2793  0.3144
    1W        W59504   9.972  28.457   7.170  0.1203 -0.3764 -0.1470
    1W        W59505   4.301   6.089   8.203 -0.1738 -0.0539 -0.1544
    1W        W59506   9.864   0.437   8.308 -0.3269 -0.0081 -0.1096
    1W        W59507  17.626  10.690   0.914  0.1720 -0.3178  0.1732
    1W        W59508   7.888  21.877   6.343  0.1699 -0.2820  0.3102
    1W        W59509  26.073  13.648   9.437  0.1678  0.0573  0.0945
    1W        W59510  26.523   5.434   6.511 -0.0370  0.0240 -0.0609
    1W        W59511  14.337   1.690   0.834 -0.0852 -0.1473  0.1391
    1W        W59512  21.972  19.695   0.540 -0.0805  0.2472  0.1640
    1W        W59513   2.396  10.812   0.449 -0.2587  0.0569 -0.0291
    1W        W59514  28.965  25.327   2.828 -0.2365 -0.1711  0.0886
    1W        W59515  27.696   9.409   1.895 -0.0253 -0.1905  0.2690
    1W        W59516  23.913  29.910   8.297  0.2404 -0.2527 -0.1948
    1W        W59517  18.444   2.900   0.891 -0.0472 -0.0945 -0.1682
    1W        W59518  13.035   5.462   3.558 -0.0834  0.0065  0.0334
    1W        W59519  21.577  10.150   6.685  0.0201 -0.2134  0.0430
    1W        W59520  26.512  26.884   7.435 -0.2102 -0.2820 -0.1124
    1W        W59521  17.602  24.963   2.224 -0.2321 -0.0147 -0.0416
    1W        W59522  26.461  16.657   6.600  0.0682  0.0538  0.1454
    1W        W59523  16.739   2.788   0.461  0.3104 -0.0830 -0.0819
    1W        W59524  20.429   1.847   9.212 -0.1406  0.0898 -0.4298
    1W        W59525   1.151   3.486   0.157  0.2518 -0.3731  0.0628
    1W        W59526   9.357  27.331   2.594  0.1058 -0.0556 -0.2462
    1W        W59527  18.742  19.862   1.260 -0.1304 -0.0462  0.0712
    1W        W59528  28.076  22.067   5.876 -0.3284  0.1406 -0.0071
    1W        W59529  16.525  16.043   9.457  0.1450 -0.0755  0.0091
    1W        W59530  23.859   9.976   8.457  0.1669  0.4745 -0.3053
    1W        W59531   4.315  11.434   1.186  0.1622 -0.3346  0.2493
    1W        W59532  28.581   1.636   3.072 -0.2595  0.1605  0.1780
    1W        W59533   9.364   0.924   1.661  0.0979 -0.1137 -0.2169
    1W        W59534  24.351  23.346   1.701  0.3184  0.0911 -0.2000
    1W        W59535   7.174   0.784   9.132 -0.0530  0.2596 -0.1389
    1W        W59536  20.916   3.295   9.398 -0.1302  0.0878 -0.3231
    1W        W59537   2.995  27.740   6.972  0.0056  0.1181  0.0877
    1W        W59538  19.106  29.857   1.331  0.3589  0.1468  0.1927
    1W        W59539  26.617  28.105   9.360  0.2922  0.0583  0.2918
    1W        W59540  10.229  19.625   2.324  0.0291 -0.1738 -0.0780
    1W        W59541  27.168  12.771   1.774  0.1518 -0.0189  0.1086
    1W        W59542  17.272  21.136   0.212  0.2002  0.3383  0.0669
    1W        W59543  20.209  17.952   0.269  0.1155  0.1491  0.0845
    1W        W59544  23.028  11.486   7.348  0.3106 -0.0849 -0.1980
    1W        W59545   9.439   4.747   7.617  0.0109 -0.0296 -0.5240
    1W        W59546  28.410   8.439   7.014 -0.0564  0.3324  0.1990
    1W        W59547  16.933   0.472   7.659  0.1007  0.2729  0.2801
    1W        W59548  16.554   2.318   1.147  0.0744 -0.1555  0.0241
    1W        W59549  16.315   0.442   8.992 -0.2061  0.0236 -0.1282
    1W        W59550   7.754  11.273   0.973 -0.2352  0.0341 -0.0628
    1W        W59551  16.545  27.632   7.808  0.0438  0.3321  0.0721
    1W        W59552  17.228   8.021   2.410  0.2144  0.2674 -0.1940
    1W        W59553   6.373  17.637   7.227 -0.2199 -0.0697  0.0269
    1W        W59554   3.968   9.504   0.497 -0.1334 -0.2290 -0.2304
    1W        W59555   5.873  10.871   9.380 -0.2160 -0.1153  0.0394
    1W        W59556  29.517   0.437   7.973 -0.0812  0.0315 -0.2189
    1W        W59557  17.804  19.369   2.465  0.0807  0.1849 -0.0305
    1W        W59558  14.826  17.836   1.324  0.2528  0.0106  0.2899
    1W        W59559  12.115  21.637   6.661  0.0704  0.2926  0.2484
    1W        W59560  20.084  29.729   6.599 -0.0471 -0.1073 -0.0083
    1W        W59561  18.173  24.662   2.334  0.1501 -0.1115 -0.2393
    1W        W59562  10.915  22.731   7.356  0.0788  0.1293 -0.4364
    1W        W59563  28.117  19.953   1.479  0.1626 -0.3155  0.0417
    1W        W59564  25.398  24.720   2.733  0.0972  0.1230 -0.0730
    1W        W59565   9.550  16.844   0.801  0.1070 -0.4803  0.0787
    1W        W59566  18.606   0.316   8.684 -0.0397  0.0252 -0.0086
    1W        W59567  19.185  12.218   7.084  0.1309 -0.2451  0.1321
    1W        W59568   1.618  11.563   2.615 -0.0083 -0.0854 -0.0071
    1W        W59569  15.505   8.006   8.318 -0.0726 -0.1789 -0.0753
    1W        W59570  26.871   5.637   8.580  0.1021 -0.0045  0.1696
    1W        W59571   4.591  10.620   8.255  0.0018  0.2971  0.0048
    1W        W59572   6.641  16.169   8.579 -0.0215 -0.0643 -0.0874
    1W        W59573  11.015  11.926   9.369  0.0079  0.4861  0.0797
    1W        W59574  24.329  29.396   7.134  0.2315  0.0876 -0.0067
    1W        W59575   5.713   2.991   2.194  0.1398  0.3034  0.3975
    1W        W59576  26.697  12.939   7.501 -0.2271 -0.1996  0.1416
    1W        W59577  24.338   3.104   0.706 -0.1986  0.2125  0.0316
    1W        W59578  27.261  29.432   0.968 -0.1696  0.1050  0.1289
    1W        W59579   3.460  16.275   0.405  0.0774 -0.1385 -0.0614
    1W        W59580   5.472  13.636   0.406  0.1502  0.2296  0.2251
    1W        W59581  23.372  21.349   7.198  0.0450  0.0980 -0.2307
    1W        W59582  22.235  24.843   8.944  0.0525  0.0787  0.0198
    1W        W59583  10.517  11.185   2.619 -0.0751  0.2433  0.1466
    1W        W59584   3.236   4.733   2.789  0.0398  0.2674  0.1671
    1W        W59585   8.267   0.533   7.599 -0.1997 -0.1150 -0.2236
    1W        W59586   4.779  15.973   8.253  0.1627  0.0225  0.2656
    1W        W59587   1.236  13.267   0.175 -0.0102 -0.1149  0.0292
    1W        W59588  12.641   2.199   3.017 -0.1089 -0.3511 -0.0832
    1W        W59589  23.879  12.328   1.673  0.1755 -0.0128  0.0163
    1W        W59590  17.872  28.218   1.452 -0.0415 -0.1102  0.0468
    1W        W59591   3.303  21.905   6.349  0.0692  0.4180 -0.2279
    1W        W59592  11.969  17.883   1.953  0.2442  0.3259  0.1715
    1W        W59593   2.687  20.182   9.262 -0.1900 -0.0609 -0.1999
    1W        W59594  14.929  27.714   2.992  0.0400  0.2486  0.1432
    1W        W59595  28.815  21.979   0.357  0.2162 -0.4776 -0.0852
    1W        W59596   6.934  26.660   7.865  0.2896  0.1824 -0.0217
    1W        W59597  29.787  15.359   1.377 -0.0797 -0.5172  0.1152
    1W        W59598  27.029  14.503   7.341 -0.1668 -0.0690 -0.3280
    1W        W59599  11.192  15.127   7.961  0.0503 -0.0138  0.0579
    1W        W59600   8.644  19.360   8.388  0.0804  0.2512  0.1066
    1W        W59601  16.033   9.062   8.332 -0.1293 -0.1389 -0.2095
    1W        W59602  10.641  15.682   8.647  0.1599 -0.0302  0.1421
    1W        W59603  27.891  29.144   7.220  0.0169 -0.0162 -0.3143
    1W        W59604  26.028  12.302   9.103  0.1657  0.0932  0.0339
    1W        W59605  20.517   0.712   8.127 -0.2781  0.1330  0.1776
    1W        W59606   0.612   3.941   9.019 -0.0958 -0.0666  0.1397
    1W        W59607  24.625  20.478   0.767 -0.1946  0.1224 -0.0625
    1W        W59608  22.664  11.341   9.189 -0.1341 -0.1271  0.1535
    1W        W59609  23.610   1.077   8.478 -0.2422  0.3532  0.0453
    1W        W59610   2.479  24.936   6.606  0.3642 -0.1121  0.0316
    1W        W59611  20.631  27.061   7.140  0.0172  0.0366  0.3254
    1W        W59612  25.114  23.576   1.544  0.0949 -0.1669 -0.2691
    1W        W59613   8.787  11.380   0.651 -0.0128 -0.0257 -0.1969
    1W        W59614  27.133  13.579   0.188 -0.1582 -0.1083  0.0990
    1W        W59615  12.047   4.188   1.483  0.2569 -0.2304 -0.1654
    1W        W59616   0.271  28.136   8.843 -0.1339 -0.1071  0.1488
    1W        W59617  15.077  22.121   6.720  0.2318 -0.0561  0.2149
    1W        W59618   4.867  28.209   9.033 -0.1551 -0.0173  0.3319
    1W        W59619   6.243  16.365   8.763 -0.0038 -0.2301  0.2604
    1W        W59620  14.185  15.970   1.943 -0.1290  0.2928  0.0691
    1W        W59621  27.902  23.032   0.353 -0.1531 -0.2421  0.0590
    1W        W59622   4.489   5.356   2.733  0.2114 -0.4420  0.2642
    1W        W59623   0.822  17.953   1.018 -0.0058 -0.0914 -0.1024
    1W        W59624   9.001  11.014   2.386 -0.1315 -0.2344 -0.1973
    1W        W59625  28.700  12.860   6.052 -0.0979  0.3922  0.1778
    1W        W59626   6.023  12.126   9.148  0.3556  0.0470  0.0499
    1W        W59627  25.494  21.296   8.519  0.0489 -0.0794  0.1858
    1W        W59628  19.461   0.045   9.029  0.0275  0.2362 -0.5425
    1W        W59629  17.270   0.451   1.998 -0.2259 -0.0762  0.1716
    1W        W59630  26.843   1.137   9.324  0.1503 -0.1712 -0.0554
    1W        W59631  16.891  24.159   0.909 -0.0172 -0.1281  0.2997
    1W        W59632  23.119  18.448   9.382 -0.1197  0.1344  0.0765
    1W        W59633  20.394  25.086   1.386  0.0726 -0.0613 -0.2408
    1W        W59634  26.429   9.533   7.394  0.0288  0.0619 -0.0421
    1W        W59635  26.327   1.951   2.160  0.0242  0.1758  0.2094
    1W        W59636  11.857  19.858   1.926 -0.0287 -0.1432  0.1074
    1W        W59637  19.252  20.725   7.754  0.1932 -0.0859 -0.1630
    1W        W59638   6.742   5.715   7.835  0.2716 -0.0471  0.0984
    1W        W59639  16.937  11.402   7.120 -0.0523  0.1156 -0.0953
    1W        W59640   8.078  10.562   1.192 -0.0357  0.2116 -0.0024
    1W        W59641  23.429  15.754   6.746 -0.0173 -0.1551 -0.0124
    1W        W59642  19.482  29.898   8.513  0.1345  0.2575  0.0469
    1W        W59643   9.996  21.183   1.114  0.0709  0.1884  0.1347
    1W        W59644  23.667  16.175   7.073  0.1492  0.2811 -0.2073
    1W        W59645  27.995  24.308   6.213  0.1033 -0.2306  0.0636
    1W        W59646  29.727  26.642   5.819  0.2286  0.1757 -0.3601
    1W        W59647   5.134  26.838   1.379 -0.0198  0.0231 -0.0474
    1W        W59648   7.513   3.767   8.830 -0.2265 -0.2492  0.0302
    1W        W59649  27.704  11.884   7.109 -0.0094  0.1634 -0.0627
    1W        W59650   7.430  17.617   2.233  0.1561 -0.0841  0.2453
    1W        W59651  25.408  19.972   3.329 -0.2856  0.0219 -0.1396
    1W        W59652  24.557   5.495   1.732 -0.1705 -0.2805 -0.0868
    1W        W59653  13.383  28.792   7.985 -0.0028 -0.1146  0.1665
    1W        W59654  21.804   0.162   9.400 -0.1610  0.0582 -0.2538
    1W        W59655   1.603   5.278   2.111 -0.0884 -0.0769  0.2777
    1W        W59656  25.756  19.997   2.043  0.1297  0.2600 -0.0199
    1W        W59657   7.265   1.109   8.180  0.1580 -0.1112  0.0028
    1W        W59658   7.513  12.523   7.149 -0.1850  0.1158 -0.2791
    1W        W59659  19.782  13.219   1.250 -0.1312 -0.1325 -0.1075
    1W        W59660  13.191  13.678   1.189  0.0792 -0.2261  0.3702
    1W        W59661  10.296   5.343   1.559  0.0971  0.0915 -0.0371
    1W        W59662  14.880  27.395   8.056 -0.1160 -0.0898  0.0381
    1W        W59663  12.687  25.955   0.476  0.0053 -0.1972 -0.0872
    1W        W59664  18.881  17.540   8.148  0.2706 -0.2292  0.0292
    1W        W59665  20.767  28.560   6.805 -0.0947 -0.2449 -0.1834
    1W        W59666   8.165  13.396   1.261  0.1421 -0.1705  0.0559
    1W        W59667  16.482  16.064   6.682 -0.3874  0.1827 -0.1549
    1W        W59668  17.748  29.687   0.056 -0.0499  0.0030 -0.0006
    1W        W59669  20.902   4.073   2.486  0.3850  0.3011  0.0051
    1W        W59670   2.102  19.613   1.886  0.0494  0.1079 -0.1427
    1W        W59671  19.202  16.653   0.958  0.2490  0.3147 -0.2840
    1W        W59672   8.059  19.001   8.343  0.0480  0.0204  0.0763
    1W        W59673   1.904   7.831   0.663  0.0940 -0.0375 -0.1768
    1W        W59674  22.594  21.052   8.951  0.2139 -0.1046  0.6169
    1W        W59675  19.338  29.447   8.221 -0.3616  0.0907 -0.0027
    1W        W59676  23.655  25.046   1.783 -0.2785  0.0426  0.1676
    1W        W59677  11.214  13.694   2.477  0.1497 -0.0773  0.0068
    1W        W59678  27.767  26.440   8.742 -0.1250  0.1971 -0.1499
    1W        W59679  25.560   3.306   2.945 -0.0282 -0.1306 -0.1939
    1W        W59680  27.422   9.656   7.015  0.0705  0.0827 -0.2221
    1W        W59681  24.367  26.429   1.082  0.1409  0.0558  0.2244
    1W        W59682  17.068  13.376   6.556  0.1147  0.0535  0.0011
    1W        W59683   0.398  11.767   9.080 -0.2525  0.5390  0.0856
    1W        W59684   0.736  26.979   0.588 -0.0458  0.1382 -0.1244
    1W        W59685  17.564  22.852   1.350 -0.0078  0.1583 -0.2117
    1W        W59686  15.066   2.551   2.736 -0.0545  0.1280 -0.2196
    1W        W59687  15.132  15.548   1.634 -0.2790 -0.0866  0.2117
    1W        W59688   3.550  26.683   1.744 -0.2957 -0.1652 -0.3154
    1W        W59689  27.193  27.620   2.362  0.2373  0.0107  0.1559
    1W        W59690  29.336  10.778   8.721 -0.2360  0.1810 -0.1093
    1W        W59691   9.181   1.199   6.792 -0.0432 -0.0686  0.2682
    1W        W59692  27.695   0.701   0.997  0.1371 -0.1548 -0.1915
    1W        W59693   4.498  10.194   7.461 -0.0870 -0.1531 -0.2206
    1W        W59694  18.427  26.888   1.164 -0.0807 -0.1385 -0.1324
    1W        W59695  15.811  27.245   2.889 -0.1986 -0.1680 -0.1070
    1W        W59696  24.012   7.524   1.042  0.0481 -0.0599 -0.1318
    1W        W59697  13.009  27.729   2.017  0.0474 -0.2763 -0.4348
    1W        W59698   1.921  10.233   2.517  0.1729 -0.2917 -0.2480
    1W        W59699   2.274   7.716   1.807 -0.0209 -0.1510 -0.1753
    1W        W59700  26.692  28.260   0.996  0.0911 -0.5523  0.0307
    1W        W59701  24.611   9.534   1.063 -0.0290 -0.1333 -0.2432
    1W        W59702  10.776  27.369   2.545  0.0669 -0.0686 -0.0804
    1W        W59703  17.100  19.522   0.025 -0.2196 -0.0654  0.1416
    1W        W59704   5.730  10.199   8.797  0.0484  0.0335  0.0135
    1W        W59705  29.844  25.210   7.388  0.2320  0.4859  0.0755
    1W        W59706  18.730  20.754   1.706 -0.1115  0.0722  0.0886
    1W        W59707  17.897  21.382   9.460 -0.0730  0.1363  0.2169
    1W        W59708  13.157  25.169   7.386  0.1326  0.0916 -0.1184
    1W        W59709   2.502  26.274   0.990 -0.1530 -0.2392 -0.1127
    1W        W59710   9.895  20.158   0.212  0.3948  0.0519 -0.1369
    1W        W59711  11.145  11.110   9.182 -0.2025  0.0419  0.2131
    1W        W59712   6.318   4.120   2.993  0.1314 -0.1306  0.0658
    1W        W59713  26.542  10.977   9.323  0.0102 -0.1020 -0.1443
    1W        W59714   9.514   4.703   8.375  0.0515  0.2665 -0.0421
    1W        W59715   4.142   1.423   9.032 -0.2282  0.2449  0.1622
    1W        W59716   6.185  22.243   5.303  0.1133 -0.1565  0.2336
    1W        W59717  19.062  19.327   2.748 -0.0133 -0.0293  0.0115
    1W        W59718   1.737   4.291   9.046  0.0062 -0.1960  0.0888
    1W        W59719  16.267  16.421   7.007 -0.0912  0.1700 -0.3582
    1W        W59720   7.682  21.291   7.133 -0.2821  0.0690 -0.3596
    1W        W59721  22.166   6.288   9.270  0.4498  0.1453 -0.1084
    1W        W59722  24.526  25.478   9.459 -0.0474 -0.1790  0.1410
    1W        W59723   6.825  24.387   0.769 -0.2219  0.0502 -0.0928
    1W        W59724  11.301  12.316   0.165 -0.1299  0.0043 -0.0123
    1W        W59725  29.541  20.927   1.023 -0.0780  0.0366  0.0259
    1W        W59726   4.183   2.057   2.834 -0.3128  0.1914 -0.4133
    1W        W59727  11.283  28.130   7.998  0.2707  0.1329  0.3462
    1W        W59728   6.884  24.563   9.253 -0.0178 -0.1342 -0.1022
    1W        W59729  19.642   0.391   2.506 -0.0372  0.1373 -0.2005
    1W        W59730  12.941  28.394   8.795  0.2227  0.0194  0.1744
    1W        W59731  27.134  27.804   0.655  0.0554 -0.0679 -0.3545
    1W        W59732   3.228  26.349   5.916  0.0343  0.0893 -0.1858
    1W        W59733  12.230   3.249   7.220 -0.2457  0.1763 -0.0921
    1W        W59734   3.932   0.529   0.227  0.1979  0.3891 -0.0950
    1W        W59735  18.356  13.474   7.718 -0.0288 -0.3681 -0.2239
    1W        W59736  16.496   8.783   0.260  0.0063 -0.0689 -0.0492
    1W        W59737   8.482   3.803   9.182  0.0587  0.0295  0.0708
    1W        W59738   9.082  21.090   1.225  0.1714  0.1628  0.0279
    1W        W59739  19.873   7.653   1.893 -0.0812  0.0861 -0.2952
    1W        W59740  22.739  10.801   9.231 -0.1221 -0.1955  0.0924
    1W        W59741  24.124  13.837   9.104  0.0436 -0.4450  0.0886
    1W        W59742  15.029  26.534   0.392 -0.1658  0.1567 -0.1801
    1W        W59743  28.078  29.695   1.201 -0.1499 -0.3152 -0.0203
    1W        W59744  22.010  16.523   7.682 -0.2233  0.0881  0.0500
    1W        W59745  16.202   5.991   0.722 -0.0664  0.0780 -0.0714
    1W        W59746   2.777  12.948   1.891  0.2276  0.0949  0.2135
    1W        W59747  29.611  17.215   6.253 -0.0988  0.0923 -0.2542
    1W        W59748  15.984   4.733   2.326 -0.0558  0.1836 -0.1072
    1W        W59749  13.510  12.003   8.615 -0.1231 -0.0699  0.1406
    1W        W59750  21.056  25.721   1.760  0.3902  0.2047  0.0039
    1W        W59751  29.805   7.734   0.376 -0.1818 -0.0327 -0.2066
    1W        W59752   7.264  26.282   0.083 -0.2093 -0.1820  0.3495
    1W        W59753   5.430   0.848   1.425 -0.1049  0.2617 -0.3918
    1W        W59754   8.589  15.637   8.092  0.1225 -0.1225 -0.3409
    1W        W59755  26.713  11.814   0.191  0.0057  0.0265  0.1431
    1W        W59756  12.088  12.762   9.075 -0.1443 -0.2287  0.1002
    1W        W59757   9.840   5.119   8.388  0.1188  0.2406  0.0007
    1W        W59758  14.016   2.952   0.022 -0.2628 -0.0003 -0.1276
    1W        W59759  16.130  17.045   0.058 -0.1579  0.0361  0.1748
    1W        W59760  12.668  22.258   1.323 -0.1445  0.0587 -0.2489
    1W        W59761  13.257   9.576   0.244  0.1767 -0.1231  0.0297
    1W        W59762   1.107   9.011   7.291 -0.1248  0.2702 -0.2934
    1W        W59763  11.896   0.864   1.368 -0.1157  0.1850  0.1207
    1W        W59764   8.233  24.055   1.964  0.3372  0.3590  0.0153
    1W        W59765  14.043  24.079   7.165  0.1885 -0.0410 -0.1851
    1W        W59766  27.871   5.886   9.329 -0.0332 -0.0672 -0.0921
    1W        W59767  14.880  24.012   8.910 -0.2599 -0.0297 -0.2678
    1W        W59768  15.705  28.816   0.008  0.1661  0.2496  0.2989
    1W        W59769  21.976   9.548   7.120 -0.2241  0.3215  0.3474
    1W        W59770  25.808  11.086   1.688 -0.2068  0.0440 -0.0554
    1W        W59771  12.991   5.513   0.433  0.3245 -0.0033 -0.3041
    1W        W59772  11.058  11.347   8.188  0.2678  0.1336 -0.1331
    1W        W59773  25.662  18.574   6.680  0.1341 -0.1084  0.0364
    1W        W59774   8.017   8.129   7.467 -0.0495 -0.0282 -0.1663
    1W        W59775   5.996   2.406   0.391 -0.1242  0.3594 -0.1001
    1W        W59776   1.590   1.819   7.787 -0.0946 -0.4074 -0.2411
    1W        W59777  23.986  15.821   1.707  0.2046 -0.1369 -0.1722
    1W        W59778   5.082   5.643   7.577 -0.1312  0.0120  0.0826
    1W        W59779   7.369  11.388   8.686  0.0386 -0.1922 -0.0817
    1W        W59780  13.306   8.132   2.547 -0.2174  0.1304 -0.1110
    1W        W59781  24.953   4.882   2.873  0.5586  0.4113  0.1675
    1W        W59782  24.691   1.246   3.358 -0.4294  0.2057 -0.0802
    1W        W59783   3.976   6.554   8.108 -0.0251  0.0595  0.1799
    1W        W59784  25.934  28.640   3.231  0.1174 -0.0824  0.6013
    1W        W59785   1.739  18.491   7.222  0.0249 -0.1909  0.1038
    1W        W59786  18.587  17.983   1.145  0.1969 -0.1201 -0.0253
    1W        W59787  13.297  15.622   7.539 -0.1118 -0.0404  0.0721
    1W        W59788   5.614  21.329   8.378 -0.1075 -0.1416  0.3389
    1W        W59789   5.958  23.362   1.633  0.0029  0.1065  0.0918
    1W        W59790  18.124  16.400   7.774  0.0084 -0.1466  0.2658
    1W        W59791  12.959  11.801   9.398  0.1770 -0.1144 -0.3038
    1W        W59792  17.676  24.410   8.081  0.4715 -0.4629 -0.1866
    1W        W59793  22.798  27.148   6.843  0.0819 -0.1051 -0.2824
    1W        W59794  17.594  28.569   2.600  0.0808  0.2104  0.4011
    1W        W59795  26.650  16.067   0.260 -0.1587  0.2357 -0.0009
    1W        W59796  11.863  20.271   1.626 -0.3148  0.1210  0.0317
    1W        W59797   2.607   2.367   0.255 -0.3205 -0.0494  0.0059
    1W        W59798  20.265  11.644   1.233  0.0248  0.2538  0.3315
    1W        W59799  28.064  13.798   8.885 -0.0270  0.0079  0.2811
    1W        W59800  28.986  18.846   7.617 -0.1210  0.2607  0.1894
    1W        W59801  24.890   1.609   9.302 -0.3397 -0.2913 -0.0835
    1W        W59802  14.869   5.377   2.698  0.2924  0.2479  0.0728
    1W        W59803   2.652  23.668   7.306 -0.1492 -0.2968 -0.0177
    1W        W59804  28.341   2.289   7.168 -0.0534 -0.2301  0.2842
    1W        W59805  26.320  26.876   0.418 -0.0863  0.0362 -0.1160
    1W        W59806  27.034  25.603   2.387 -0.0680 -0.1849  0.3107
    1W        W59807  24.279  21.829   8.839 -0.2529 -0.4137  0.3445
    1W        W59808  17.642  20.867   0.053 -0.2616 -0.0888 -0.0981
    1W        W59809   5.023  24.969   0.403  0.1538  0.1671 -0.1573
    1W        W59810  26.157  15.469   2.416  0.0882 -0.3471 -0.1860
    1W        W59811  22.190   1.528   8.560 -0.0692 -0.2012  0.2065
    1W        W59812   0.367  16.393   6.767  0.0003  0.2019  0.2113
    1W        W59813  13.862  17.082   9.152  0.3883 -0.0262  0.1843
    1W        W59814   6.123   4.411   8.425 -0.1958  0.0190 -0.0029
    1W        W59815   6.953   9.680   1.862 -0.0544 -0.0898 -0.2104
    1W        W59816  14.267  29.046   2.830 -0.2724  0.0617  0.0549
    1W        W59817  27.283  28.013   8.684  0.2335  0.1692 -0.1472
    1W        W59818  28.083  12.734   2.209  0.0947  0.0848  0.0268
    1W        W59819   6.582   4.745   7.692 -0.0537  0.0454  0.0962
    1W        W59820   4.156  24.771   6.896 -0.1198 -0.1068 -0.1535
    1W        W59821   5.704  13.825   1.674 -0.2079 -0.0237 -0.2616
    1W        W59822  18.981  22.393   0.322 -0.0960  0.2360  0.3125
    1W        W59823  26.269  10.438   8.196 -0.0704  0.1557  0.2325
    1W        W59824  17.290  10.927   1.768 -0.1359 -0.2710  0.0651
    1W        W59825   9.723  13.650   1.166  0.2683 -0.0651 -0.2804
    1W        W59826   1.046  11.997   6.855 -0.0531 -0.1406 -0.1608
    1W        W59827   4.492  12.583   1.677 -0.4060  0.2490 -0.2923
    1W        W59828   3.807   0.864   1.136  0.1025 -0.0621  0.0228
    1W        W59829  10.788  21.567   1.188  0.1255  0.0355 -0.0823
    1W        W59830  11.201   3.874   1.176  0.0930 -0.1886  0.1377
    1W        W59831   2.297  18.037   1.958 -0.1063 -0.1550  0.0722
    1W        W59832  16.827   4.272   6.939  0.0020  0.1347  0.0384
    1W        W59833  10.059  16.922   7.183 -0.2465  0.0628 -0.1918
    1W        W59834  18.260  19.684   9.253 -0.0473 -0.3677  0.0087
    1W        W59835   9.370  20.111   0.574 -0.1216  0.1656  0.1740
    1W        W59836   5.660  19.351   7.511 -0.2507  0.1626 -0.0325
    1W        W59837  11.822   8.718   1.711  0.1943 -0.0513 -0.0571
    1W        W59838  17.216  14.992   2.360  0.0194  0.1023 -0.0470
    1W        W59839  11.617  12.932   1.317 -0.0190  0.2139 -0.0321
    1W        W59840   4.607  13.531   0.557 -0.1665  0.0265 -0.1731
    1W        W59841  22.737   1.383   8.250  0.1157  0.0097  0.0253
    1W        W59842   3.980  20.359   1.146 -0.1109  0.0879 -0.0956
    1W        W59843   1.628  18.157   0.462  0.0332  0.0470 -0.2455
    1W        W59844  20.097  23.720   1.070  0.0884 -0.0532 -0.4573
    1W        W59845  16.302  17.492   8.704  0.2657  0.0494 -0.0661
    1W        W59846   1.372   4.550   1.605  0.2904  0.0123 -0.1741
    1W        W59847  17.913  16.905   2.082  0.2368 -0.2982 -0.2774
    1W        W59848   5.733  23.796   1.470  0.1376  0.2410 -0.1451
    1W        W59849  21.639  15.851   0.158  0.0540  0.0132 -0.0368
    1W        W59850   8.701  22.682   7.718 -0.1173  0.0638 -0.2228
    1W        W59851  27.121  23.192   7.157 -0.1278 -0.0446 -0.1236
    1W        W59852  29.201  15.473   7.660 -0.1691  0.0557 -0.1255
    1W        W59853   8.900  11.660   9.431 -0.2527  0.0197  0.4365
    1W        W59854  14.422   8.159   9.233 -0.0800  0.1579 -0.1205
    1W        W59855  17.437   7.622   2.703  0.0055 -0.0901 -0.1253
    1W        W59856   1.083  27.880   2.121 -0.1666  0.0661 -0.0469
    1W        W59857  18.910   6.724   2.007  0.5125 -0.1562  0.0602
    1W        W59858  15.228  15.444   9.343 -0.1068 -0.2388  0.1846
    1W        W59859  21.020   3.928   8.323 -0.0127  0.2703  0.0816
    1W        W59860  11.183   6.911   6.922 -0.1823 -0.1587 -0.1336
    1W        W59861  19.235  13.993   7.959  0.0750 -0.2494 -0.0143
    1W        W59862  18.085   6.966   8.769 -0.3007  0.3438  0.0702
    1W        W59863  29.385  12.529   8.376 -0.1119  0.1314 -0.0289
    1W        W59864   2.923  10.706   7.381 -0.1028  0.2345  0.2391
    1W        W59865  14.932  16.868   7.774  0.0709  0.0403  0.1566
    1W        W59866   6.307  12.251   1.775 -0.0034  0.0557  0.1022
    1W        W59867  28.058   2.317   2.038  0.0787  0.1404 -0.1277
    1W        W59868   5.558  15.828   1.901 -0.1266  0.1337  0.2694
    1W        W59869  11.398  11.629   2.367  0.2289  0.3635  0.0316
    1W        W59870  19.333  18.417   7.587 -0.2193  0.1731 -0.3310
    1W        W59871  27.728   2.463   0.032 -0.3343 -0.1168  0.1721
    1W        W59872  19.549   4.959   6.302 -0.2848  0.3106 -0.0648
    1W        W59873   3.416   6.195   2.532  0.0110 -0.2308  0.1584
    1W        W59874  17.888   2.885   9.036  0.2067  0.4021  0.1859
    1W        W59875  26.180   3.522   6.873 -0.1382  0.0005 -0.1785
    1W        W59876  14.560   8.413   0.228 -0.1518  0.1246 -0.0512
    1W        W59877  13.154   0.495   0.186  0.0889  0.0868 -0.1815
    1W        W59878  17.388  25.887   0.861  0.0249 -0.0767 -0.0960
    1W        W59879  15.304  27.061   6.776 -0.0241  0.2303 -0.1938
    1W        W59880  25.769   0.568   7.593  0.0560  0.0628 -0.1864
    1W        W59881   7.703  24.357   0.639 -0.1466  0.0908 -0.0343
    1W        W59882  26.843   7.940   1.407 -0.0755 -0.0007  0.0655
    1W        W59883   3.701  18.469   6.650  0.1910 -0.0458  0.0998
    1W        W59884  15.428   4.502   2.547  0.3391 -0.0984 -0.0533
    1W        W59885  13.430  22.416   7.537 -0.0621  0.2310 -0.2654
    1W        W59886  18.547  20.266   7.730  0.3527 -0.1406 -0.1461
    1W        W59887  14.005  18.533   0.042 -0.0124 -0.2358  0.3916
    1W        W59888  20.595  14.959   1.447 -0.0046 -0.0416 -0.0040
    1W        W59889  27.660  11.585   7.552 -0.0293  0.0556 -0.1770
    1W        W59890  20.262   4.717   9.182  0.1124 -0.2061 -0.2417
    1W        W59891  21.049  17.519   9.386 -0.2795  0.0207 -0.2690
    1W        W59892   1.603   9.868   2.695 -0.0361  0.4142  0.0010
    1W        W59893  17.752  22.080   8.167 -0.0590 -0.2911 -0.3227
    1W        W59894   7.391   1.597   1.873  0.3826  0.0706 -0.0298
    1W        W59895   4.609  22.280   1.273 -0.1702 -0.0061  0.2186
    1W        W59896  15.156  28.042   1.492  0.0206  0.1751 -0.4051
    1W        W59897   7.866  26.678   9.458 -0.1850 -0.0428  0.0635
    1W        W59898  18.071  15.719   0.756  0.1583  0.0511 -0.2950
    1W        W59899  15.626  26.369   9.141  0.2228 -0.0875 -0.1629
    1W        W59900   1.290  21.329   1.713  0.0202 -0.0181 -0.0713
    1W        W59901  24.757  14.111   6.952 -0.0756 -0.0660 -0.3278
    1W        W59902  18.788  12.912   8.783  0.0927  0.1313  0.4330
    1W        W59903   9.604   0.629   2.292 -0.0947 -0.1563  0.3097
    1W        W59904   4.885  14.552   0.914  0.1484  0.2265  0.0824
    1W        W59905   6.937   6.160   7.847 -0.1381  0.1476 -0.4190
    1W        W59906  21.557  19.600   8.912 -0.0656  0.3176 -0.2349
    1W        W59907   2.962  26.142   8.811  0.0692 -0.2447 -0.1043
    1W        W59908  24.825  13.157   1.632  0.1760  0.2194 -0.1395
    1W        W59909  10.350  13.608   1.998  0.0556  0.1801  0.2769
    1W        W59910  23.188  16.731   8.641 -0.0474 -0.2191 -0.0801
    1W        W59911  26.096  17.092   2.769  0.1332 -0.1373  0.2053
    1W        W59912  12.954  12.323   8.598 -0.0431 -0.4162  0.1770
    1W        W59913  14.602  21.407   9.154  0.0592 -0.0667 -0.4310
    1W        W59914  22.520  18.795   0.524  0.2786  0.0391 -0.2401
    1W        W59915   5.795  12.794   1.378 -0.0825 -0.1398 -0.0012
    1W        W59916  14.750  17.927   0.134 -0.0473 -0.4564  0.1371
    1W        W59917   6.502  15.551   1.034  0.0534 -0.3449 -0.0158
    1W        W59918  25.707   4.988   8.097 -0.1738  0.0552 -0.0555
    1W        W59919   1.137   1.518   0.336 -0.3359 -0.3332  0.2036
    1W        W59920  11.483   3.146   2.055  0.1516  0.1948 -0.1299
    1W        W59921   1.185  21.777   1.897  0.0021 -0.4169 -0.1097
    1W        W59922   9.530   5.264   6.582 -0.0623  0.0909  0.3583
    1W        W59923  13.589  24.376   2.309 -0.0589  0.2350  0.2013
    1W        W59924   9.171  24.079   9.086  0.0023 -0.3385 -0.1578
    1W        W59925  26.928  14.228   1.903 -0.0132 -0.1538 -0.0445
    1W        W59926  24.430  22.797   0.908 -0.1333  0.2829 -0.1602
    1W        W59927  13.683  18.251   8.798  0.1568 -0.1275 -0.0367
    1W        W59928  10.273  10.018   1.542  0.1640 -0.1866 -0.0955
    1W        W59929  22.680  15.260   7.513  0.3256 -0.0204 -0.2619
    1W        W59930   3.830  23.308   0.541  0.2954 -0.2043 -0.0598
    1W        W59931   4.676  28.233   0.075 -0.1118 -0.0308  0.1532
    1W        W59932  11.514  16.197   1.537  0.1078 -0.2583  0.2180
    1W        W59933   8.720  13.160   1.349  0.0349  0.0029  0.1461
    1W        W59934   0.908   4.237   6.888  0.2444  0.1594 -0.1519
    1W        W59935  29.646  10.060   7.391  0.1996  0.1595  0.1270
    1W        W59936  20.978  26.993   9.460 -0.2765  0.2334  0.3859
    1W        W59937   3.405  22.870   6.264  0.1930 -0.0516  0.0469
    1W        W59938  12.931  26.939   7.473 -0.1175 -0.1302 -0.2729
    1W        W59939  24.971  19.026   6.924  0.0085 -0.0943 -0.3212
    1W        W59940  13.113   4.030   9.270  0.2082  0.0346 -0.0520
    1W        W59941   0.835  10.006   1.004  0.0348 -0.0822  0.1155
    1W        W59942  28.754  22.595   9.048  0.2955 -0.0629  0.1054
    1W        W59943   8.720  22.128   6.437  0.0105 -0.2417  0.0834
    1W        W59944   4.878  14.833   1.428 -0.0598  0.0208  0.0772
    1W        W59945   0.882  27.629   2.623 -0.0072 -0.5352 -0.3298
    1W        W59946  27.662  13.214   7.099  0.1330 -0.1157 -0.0230
    1W        W59947  17.853  27.554   1.926  0.0800 -0.2457 -0.4327
    1W        W59948  19.236  29.904   6.809 -0.0434 -0.0131  0.0702
    1W        W59949   4.176   3.274   8.478  0.1976 -0.0217  0.1351
    1W        W59950   0.286   6.437   2.167  0.0245 -0.0436  0.3781
    1W        W59951  10.176   9.309   8.486  0.3493 -0.1594  0.0124
    1W        W59952  11.728   5.719   0.195  0.1733 -0.0937 -0.3101
    1W        W59953  16.996   1.297   0.349  0.2601 -0.1209  0.1313
    1W        W59954  29.257  10.789   7.878 -0.0764  0.1026  0.0840
    1W        W59955   8.562   1.511   7.418 -0.3228 -0.2563 -0.2974
    1W        W59956   3.052  19.009   1.000 -0.2381 -0.1718  0.0551
    1W        W59957  16.917  16.879   2.480 -0.0449 -0.0322 -0.1195
    1W        W59958  23.770  25.461   2.090 -0.0454 -0.2371  0.0776
    1W        W59959   0.016  28.496   0.252  0.0471  0.0380  0.1081
    1W        W59960  21.877  19.573   3.147  0.1082 -0.2537 -0.0253
    1W        W59961  14.526   3.349   3.120 -0.2764 -0.0036  0.2257
    1W        W59962  19.774  14.869   7.116  0.4080  0.0296 -0.0192
    1W        W59963  18.459   2.381   7.212 -0.1272 -0.1291 -0.2751
    1W        W59964  22.327  15.270   0.041  0.2009  0.0634  0.0987
    1W        W59965   5.296  19.763   0.835  0.4027  0.1648 -0.1829
    1W        W59966  14.813   8.451   1.953  0.0666  0.2295 -0.3935
    1W        W59967   1.680   6.631   2.589  0.0848  0.1306  0.1589
    1W        W59968   0.645   0.186   7.247 -0.0075 -0.2082  0.0530
    1W        W59969   0.939   3.149   1.909 -0.1146  0.1268  0.1983
    1W        W59970   0.672  12.774   2.649 -0.0038  0.0335  0.0726
    1W        W59971   0.497  26.680   8.850  0.1261 -0.2594  0.0967
    1W        W59972  17.052  21.307   9.212  0.3385 -0.2648  0.0922
    1W        W59973  22.442  17.341   0.103  0.3669 -0.0158 -0.1230
    1W        W59974  27.706  10.590   1.958 -0.0565 -0.3400  0.1915
    1W        W59975  15.453  21.707   0.714 -0.0012 -0.4079  0.1959
    1W        W59976  23.481  23.997   0.850 -0.2462 -0.3272  0.0131
    1W        W59977   5.148  20.451   9.069 -0.0979  0.1849  0.0484
    1W        W59978  29.399  17.517   8.174 -0.0680 -0.0384  0.2156
    1W        W59979   9.218  11.040   7.989 -0.1754  0.2772 -0.2892
    1W        W59980   9.090   8.012   0.599 -0.2422 -0.0570  0.0956
    1W        W59981   8.827  28.220   1.319 -0.0242  0.1678  0.4046
    1W        W59982  12.192  23.282   1.131  0.0767 -0.1856  0.3671
    1W        W59983   4.651   2.659   2.465 -0.2300  0.1584 -0.0634
    1W        W59984  16.767   1.493   8.229 -0.0489  0.4802 -0.2945
    1W        W59985  26.153   5.095   6.551  0.2522  0.2840 -0.4581
    1W        W59986  29.557   1.037   8.952  0.0353 -0.2594  0.0616
    1W        W59987  10.587  14.209   1.675 -0.0289 -0.1053  0.1597
    1W        W59988  20.849  20.861   0.878 -0.0244 -0.3725  0.0206
    1W        W59989   5.620  21.861   2.254  0.0779 -0.0408  0.1069
    1W        W59990  22.455   7.738   8.657 -0.2798 -0.2028  0.2003
    1W        W59991   4.804  14.770   7.850 -0.0986  0.1069 -0.0822
    1W        W59992  15.547   7.286   8.751  0.1735  0.0732 -0.1084
    1W        W59993   6.026  23.401   2.188  0.0121 -0.2429 -0.1352
    1W        W59994   8.689   2.675   0.496 -0.0202  0.0888  0.0306
    1W        W59995  25.117  11.050   1.236  0.2905  0.1504 -0.2346
    1W        W59996   1.126  26.605   7.034 -0.0141 -0.0759  0.0092
    1W        W59997  14.864   6.377   1.526 -0.1295 -0.3099 -0.0361
    1W        W59998   2.302   7.464   0.339  0.1322 -0.2329 -0.0684
    1W        W59999  11.624   9.073   8.520 -0.0918 -0.0464  0.4448
    1W        W60000  26.465  15.494   6.041 -0.0004 -0.1092 -0.0196
    1W        W60001  13.437   1.873   3.051  0.1850  0.2537  0.0740
    1W        W60002   1.785  28.336   9.093 -0.1015 -0.1763  0.1781
    1W        W60003  27.375  19.754   2.309  0.2558  0.3316  0.2223
    1W        W60004   3.597   1.596   1.840 -0.1618  0.1291 -0.2288
    1W        W60005   1.017  18.516   7.649 -0.0380  0.3975 -0.2856
    1W        W60006   5.762  19.898   0.595 -0.2615  0.1663  0.3800
    1W        W60007  17.331  14.737   1.062 -0.0815 -0.2962 -0.0045
    1W        W60008   3.592  10.346   0.601 -0.0407 -0.0600 -0.0430
    1W        W60009  27.274   6.593   0.424 -0.1691 -0.0306  0.1676
    1W        W60010  25.119  19.473   0.089  0.0811 -0.0163 -0.2261
    1W        W60011  24.305  16.052   0.819  0.0193  0.0288  0.0293
    1W        W60012  22.586   2.169   2.534 -0.0652  0.1935 -0.1301
    1W        W60013  12.595   3.676   7.877  0.0139 -0.3440 -0.4937
    1W        W60014   7.654  12.701   2.493 -0.1456  0.2485 -0.0405
    1W        W60015  15.638  20.517   6.291 -0.2538  0.3577 -0.0020
    1W        W60016  20.157   4.478   1.782 -0.0517 -0.1393  0.1171
    1W        W60017  29.816  11.929   9.118 -0.1499  0.1688  0.4272
    1W        W60018  10.731  25.765   0.737  0.0259  0.0197  0.0431
    1W        W60019  15.056  14.386   9.309 -0.0409  0.1318  0.0365
    1W        W60020   2.782  27.334   6.126  0.0697 -0.1120  0.1872
    1W        W60021   7.047  20.200   7.543  0.2430 -0.0777  0.2500
    1W        W60022   6.717  16.077   8.105 -0.1678 -0.1158  0.1600
    1W        W60023  13.249  12.014   2.413 -0.0140  0.0555  0.0340
    1W        W60024  24.708  14.706   0.065 -0.1271 -0.0154  0.0153
    1W        W60025  20.834  12.071   0.183  0.2665 -0.1090  0.3826
    1W        W60026  24.992  28.715   3.281 -0.2619 -0.1864  0.0343
    1W        W60027  24.319  24.307   7.853 -0.3611  0.3517  0.0402
    1W        W60028   7.947  19.766   6.790 -0.1105  0.0962  0.3780
    1W        W60029  22.175   2.913   6.961 -0.2207  0.2687  0.1524
    1W        W60030  25.166   4.992   7.369  0.1656  0.2975  0.0448
    1W        W60031  15.861  18.869   0.181 -0.0938 -0.0368  0.0253
    1W        W60032  17.871  28.370   7.529 -0.4711 -0.0453  0.2727
    1W        W60033  12.519  29.228   1.021  0.0522  0.4946  0.0165
    1W        W60034  12.494  14.016   0.015  0.2804 -0.2380 -0.0353
    1W        W60035   0.836  28.674   2.507 -0.2474  0.1806 -0.1791
    1W        W60036   9.011  27.757   0.398  0.2504 -0.0407  0.1297
    1W        W60037  16.078  27.105   0.978 -0.0601 -0.1047 -0.0499
    1W        W60038  26.029  19.412   6.738 -0.1823  0.2135  0.2730
    1W        W60039  24.319  26.360   6.783  0.1387  0.1126  0.0864
    1W        W60040  11.215  11.319   8.671 -0.2769  0.1839 -0.1892
    1W        W60041   0.113  11.389   8.838  0.1009  0.1123 -0.2046
    1W        W60042  21.399   0.584   9.086  0.1462 -0.0572 -0.1379
    1W        W60043  10.290   0.001   1.188 -0.4282  0.2404 -0.1549
    1W        W60044  26.846  13.594   0.670  0.2748  0.0941 -0.1125
    1W        W60045   0.883  21.769   0.220 -0.4086  0.1032 -0.1474
    1W        W60046  15.901   4.050   2.897 -0.1342  0.4302  0.0004
    1W        W60047   1.849  15.982   7.508 -0.2165 -0.1761  0.1821
    1W        W60048  29.431  20.525   1.855 -0.0603 -0.0051 -0.0280
    1W        W60049  29.046  12.715   1.738  0.0479 -0.3086  0.1261
    1W        W60050  14.783   6.280   6.599  0.1641 -0.0249  0.0207
    1W        W60051  12.114  21.635   1.685  0.0322 -0.1365  0.3488
    1W        W60052  21.033  11.967   6.883 -0.1897 -0.1069 -0.1988
    1W        W60053  15.788  15.634   7.115 -0.0186 -0.2098 -0.0335
    1W        W60054   9.248  26.049   0.677  0.0712 -0.1154  0.2685
    1W        W60055  28.849   7.244   8.932  0.0795 -0.2076  0.3804
    1W        W60056  15.037  24.490   1.784 -0.1181 -0.3543  0.1003
    1W        W60057  14.373   4.440   7.989  0.1956 -0.2843 -0.0112
    1W        W60058   8.521  29.618   8.173  0.2463 -0.2382  0.2446
    1W        W60059   2.652  22.430   7.645  0.3672 -0.3081  0.6454
    1W        W60060  25.653  20.379   8.496 -0.0854 -0.3737  0.2025
    1W        W60061   2.433  19.287   0.377  0.1895 -0.1843  0.0443
    1W        W60062  15.060   7.584   1.580  0.1493  0.1297 -0.0565
    1W        W60063  15.750  17.492   0.046 -0.3064  0.1590 -0.4367
    1W        W60064  20.839   5.072   6.511 -0.4078 -0.1681 -0.2953
    1W        W60065   5.473   5.049   1.149 -0.1506 -0.0854  0.1730
    1W        W60066   5.422  25.610   8.980 -0.1306 -0.0347 -0.1797
    1W        W60067   2.763   3.847   7.765  0.3253  0.0279  0.1724
    1W        W60068   4.387  13.370   6.881  0.1338  0.1870  0.1862
    1W        W60069   1.348   9.436   1.815  0.2482 -0.3332  0.3629
    1W        W60070  23.265   8.515   9.182  0.0365 -0.0117  0.1620
    1W        W60071  27.373  15.092   1.338  0.0490 -0.0275 -0.1902
    1W        W60072  26.912  17.411   6.784  0.1018  0.0378  0.0422
    1W        W60073  25.617   8.898   2.531 -0.1339  0.2428 -0.1688
    1W        W60074  27.566  21.220   7.565 -0.0172  0.1320 -0.0599
    1W        W60075  14.626   9.623   2.368 -0.1132  0.1776  0.0947
    1W        W60076  12.945  25.614   1.297 -0.3949 -0.1252 -0.1402
    1W        W60077   2.852   8.493   8.773 -0.3906 -0.2580 -0.1898
    1W        W60078  21.149  12.978   1.044 -0.1379 -0.0181  0.1024
    1W        W60079  23.732   9.570   7.058 -0.0893  0.1467 -0.1978
    1W        W60080  28.424  15.791   2.669  0.2644  0.0196  0.0080
    1W        W60081  26.507  22.941   6.559 -0.0920 -0.0127  0.0349
    1W        W60082   4.804   0.858   2.871  0.1036 -0.0846  0.2387
    1W        W60083   0.872  27.375   6.424  0.1085  0.1034 -0.0104
    1W        W60084  20.881  22.105   7.723 -0.1675  0.1469  0.1217
    1W        W60085  28.594  20.279   8.395 -0.0227 -0.0739  0.1204
    1W        W60086  25.807   2.975   6.417 -0.1906 -0.1131 -0.1315
    1W        W60087  18.058  21.745   8.411 -0.3306 -0.1700 -0.0553
    1W        W60088  25.189  19.036   6.483 -0.4066 -0.1001 -0.1184
    1W        W60089  18.265  21.787   0.023 -0.0421 -0.4086 -0.2430
    1W        W60090  19.242  15.757   2.141  0.0368 -0.0003 -0.0467
    1W        W60091   5.788   8.933   7.514  0.1376  0.0491  0.2331
    1W        W60092  15.952  16.628   7.359  0.0432 -0.3010 -0.2879
    1W        W60093  13.723  25.594   6.942 -0.4187 -0.0716 -0.4048
    1W        W60094  29.585  25.337   8.904 -0.1042 -0.0193 -0.1861
    1W        W60095   0.493  23.132   9.351 -0.4760 -0.0941  0.0388
    1W        W60096  27.189  12.572   6.836 -0.1540 -0.0381  0.4639
    1W        W60097   8.059  12.379   0.053  0.1981  0.1013 -0.2224
    1W        W60098  27.168   3.647   7.872 -0.0758  0.1445 -0.3851
    1W        W60099   2.728   6.713   2.637 -0.1304 -0.0252  0.0458
    1W        W60100  19.031   9.611   7.909  0.1902  0.0060  0.0443
    1W        W60101  23.321   8.613   0.611 -0.0788 -0.0372  0.3746
    1W        W60102  22.600  16.533   9.429 -0.0555  0.0940  0.3582
    1W        W60103  28.386   0.102   7.907 -0.0830  0.1676  0.0441
    1W        W60104   7.401  17.075   1.121  0.0389  0.0438  0.0248
    1W        W60105  11.260  23.280   2.071 -0.3712  0.2887  0.1822
    1W        W60106  19.900  24.108   3.870 -0.3185 -0.1400 -0.2152
    1W        W60107  11.453  11.224   2.076 -0.0723 -0.0057  0.1295
    1W        W60108   1.433  25.087   2.070 -0.1510 -0.1826  0.0039
    1W        W60109  26.673  11.451   2.014  0.0393  0.0605  0.2728
    1W        W60110  23.051   1.710   3.276  0.1608  0.2598 -0.1298
    1W        W60111  23.962   8.631   2.824  0.0194  0.1680 -0.1468
    1W        W60112  17.520   0.494   0.189  0.1323 -0.2385 -0.0650
    1W        W60113  27.177   0.186   8.216  0.0899  0.0127  0.0099
    1W        W60114  10.325   6.098   1.804 -0.4097 -0.1109 -0.0124
    1W        W60115  29.100  21.389   1.119 -0.0607  0.1679  0.0717
    1W        W60116  24.450  29.792   7.366 -0.1072  0.1407 -0.0018
    1W        W60117  15.347   7.604   1.021 -0.1406  0.1885  0.2510
    1W        W60118   5.918   5.466   3.933  0.0055  0.0664 -0.0454
    1W        W60119   3.869   1.771   8.768 -0.0695 -0.1510  0.0753
    1W        W60120   6.697  26.679   0.990 -0.2274  0.0248 -0.0112
    1W        W60121   2.716  19.514   8.422  0.4913 -0.2094 -0.1511
    1W        W60122   6.322  10.338   0.202 -0.2185  0.2296 -0.0370
    1W        W60123  13.270  12.668   8.347 -0.1629  0.0843  0.2222
    1W        W60124  18.063   9.885   1.105  0.3009 -0.0590 -0.0393
    1W        W60125   1.520  20.963   7.720 -0.1426  0.0443 -0.1213
    1W        W60126   4.981  28.974   9.012  0.0208  0.1606 -0.2820
    1W        W60127   4.256  14.409   9.207 -0.0261 -0.1715  0.1499
    1W        W60128   7.414   6.026   9.290  0.0987  0.0562  0.0730
    1W        W60129  27.432   1.305   2.897  0.0012 -0.0038 -0.1631
    1W        W60130   3.859   1.710   0.847  0.0195  0.0169  0.0014
    1W        W60131  27.148  28.297   9.345  0.0179  0.1121 -0.4353
    1W        W60132  10.891   2.815   8.239 -0.0303  0.0912 -0.0848
    1W        W60133  27.190   2.102   7.745 -0.1185 -0.0533  0.0359
    1W        W60134  19.598  21.354   9.455 -0.0694  0.1513 -0.1417
    1W        W60135  20.629  25.539   0.416  0.1965  0.0650  0.2537
    1W        W60136  15.048  23.600   1.075 -0.2700  0.0245 -0.0369
    1W        W60137   6.749   1.787   9.288  0.0311  0.1263 -0.1450
    1W        W60138   3.823  20.316   0.150 -0.0742  0.2694 -0.1242
    1W        W60139  27.353  28.642   6.760 -0.0044 -0.2633  0.1754
    1W        W60140  28.457  25.141   9.077  0.0059 -0.0559 -0.0709
    1W        W60141  28.196  11.582   5.652 -0.1366  0.1540  0.1050
    1W        W60142  23.268  24.314   1.613  0.1332 -0.0539  0.0688
    1W        W60143   6.044  12.783   6.671  0.1057  0.0635  0.3912
    1W        W60144  14.182   4.359   2.226 -0.2694  0.4368 -0.2118
    1W        W60145  28.102   5.123   1.953 -0.3218 -0.2200 -0.1670
    1W        W60146  26.301   2.810   9.058 -0.0013  0.0274  0.2434
    1W        W60147   7.229   4.567   8.442  0.1764  0.2458  0.1984
    1W        W60148  25.727  16.694   1.020  0.2068 -0.0781 -0.1220
    1W        W60149  29.694   7.361   0.679 -0.0778  0.0994  0.1025
    1W        W60150  19.848  12.565   6.665 -0.4033 -0.1041  0.3237
    1W        W60151  21.020  21.771   8.246  0.1749 -0.0261 -0.2184
    1W        W60152  18.116  11.431   2.045 -0.2330  0.0542  0.0386
    1W        W60153  12.296  26.862   8.417  0.0290 -0.0846 -0.0837
    1W        W60154  19.213  11.088   7.673 -0.0894  0.1591  0.0776
    1W        W60155   7.574  19.555   7.169  0.0284  0.0330  0.1172
    1W        W60156   9.725  13.939   8.488 -0.1156  0.0894 -0.2017
    1W        W60157  29.416  24.480   1.239  0.3220 -0.0427 -0.0595
    1W        W60158  23.248  20.736   0.259 -0.1158 -0.1855 -0.0395
    1W        W60159   5.553   0.145   8.674  0.0043 -0.1562 -0.0279
    1W        W60160   6.766   5.312   1.371  0.0725 -0.0977  0.0833
    1W        W60161   6.122  20.269   6.751 -0.1284 -0.0370  0.0902
    1W        W60162  21.980  10.537   7.484  0.1431  0.0030  0.1656
    1W        W60163   4.253  19.380   6.716 -0.2537  0.0101  0.2052
    1W        W60164  17.579  13.881   1.323  0.2237  0.0884  0.1112
    1W        W60165   4.296  22.252   2.565  0.2249  0.0287  0.2350
    1W        W60166   0.198  28.905   7.518  0.3013 -0.1103 -0.1627
    1W        W60167   6.189  21.534   0.094 -0.1679 -0.0306  0.1985
    1W        W60168   6.183  22.939   9.211 -0.1759 -0.0745  0.0245
    1W        W60169   8.045  26.074   7.635 -0.1120  0.1040 -0.0019
    1W        W60170  16.506   7.049   8.964  0.1618 -0.1425 -0.1084
    1W        W60171   1.095  16.930   1.049  0.0004  0.0026  0.3156
    1W        W60172  21.126  10.392   6.753  0.1687 -0.1184 -0.1756
    1W        W60173  29.547  16.261   1.359 -0.1322  0.2384 -0.1293
    1W        W60174  27.193  14.414   0.547 -0.1181 -0.0613  0.1556
    1W        W60175   4.853   1.081   1.455 -0.4013 -0.3662 -0.1773
    1W        W60176   3.340  23.869   6.228  0.2151 -0.1022 -0.0145
    1W        W60177   0.094  16.228   6.111 -0.3498  0.1036  0.2190
    1W        W60178   6.053  27.623   2.754 -0.0588  0.0435 -0.0983
    1W        W60179  24.074   3.019   3.591 -0.3810 -0.0855 -0.0646
    1W        W60180  19.281  25.468   7.381  0.0162  0.2269  0.0151
    1W        W60181  24.596  19.640   2.194  0.0451  0.1162 -0.0767
    1W        W60182   1.170  28.829   7.439 -0.0941 -0.3000  0.1544
    1W        W60183  28.595  13.645   2.114 -0.0729  0.0521 -0.1276
    1W        W60184   8.911   4.960   0.402  0.2081 -0.0167 -0.1185
    1W        W60185  11.858   9.558   2.465 -0.1237 -0.0934  0.0907
    1W        W60186  10.220  27.936   8.551 -0.1996 -0.4671 -0.0280
    1W        W60187   9.731   2.582   2.174  0.0698 -0.1330 -0.0747
    1W        W60188  15.951   0.374   2.211  0.0116  0.1529 -0.0632
    1W        W60189  24.684  19.432   8.798 -0.0981  0.0253 -0.3056
    1W        W60190   2.768  23.450   8.372  0.2975 -0.1866 -0.0638
    1W        W60191   6.339   0.551   2.109 -0.0006 -0.1325  0.1999
    1W        W60192   0.130   0.262   7.241 -0.0391  0.0267 -0.0051
    1W        W60193  12.460  12.814   7.113 -0.2143  0.0727  0.1297
    1W        W60194   2.327  10.316   9.294 -0.1633 -0.3367  0.1180
    1W        W60195   6.601   0.559   8.106 -0.0286  0.1845 -0.0632
    1W        W60196  28.140  21.900   7.604  0.1411 -0.0922 -0.2533
    1W        W60197  22.890   5.464   2.279  0.1301  0.0696  0.1857
    1W        W60198  28.597  29.055   0.110  0.0122 -0.0770  0.1373
    1W        W60199  22.916  19.753   7.655  0.2281 -0.1150 -0.0638
    1W        W60200   3.634  26.324   9.394 -0.0082  0.3109  0.2567
    1W        W60201   8.731   0.575   2.662  0.2859 -0.0411  0.1329
    1W        W60202   4.201   8.385   0.908 -0.1615 -0.1059 -0.0834
    1W        W60203  13.967  12.357   8.724  0.1693 -0.2579  0.0059
    1W        W60204  19.175  13.996   7.447  0.4627  0.0593  0.1528
    1W        W60205  22.054   9.169   7.395  0.1836 -0.2829  0.0374
    1W        W60206   3.681   6.033   0.456  0.1071  0.1570 -0.0740
    1W        W60207   7.702  27.449   8.507  0.1455  0.2024 -0.3668
    1W        W60208   4.807   1.969   8.600 -0.1553 -0.0039  0.3275
    1W        W60209  24.864  21.838   8.959  0.0300 -0.0660  0.1149
    1W        W60210   9.421  22.096   6.788  0.1068 -0.1056 -0.0068
    1W        W60211  14.579  16.269   9.170 -0.0076  0.3559 -0.0180
    1W        W60212   7.468   8.023   3.894 -0.1169  0.0707 -0.2590
    1W        W60213  15.031   9.475   8.024  0.0916  0.1734 -0.1313
    1W        W60214  12.028   5.018   1.993  0.0210  0.1578 -0.2488
    1W        W60215  12.994  13.898   6.552 -0.1324 -0.0081  0.1731
    1W        W60216   1.965   2.207   7.747 -0.0648 -0.0715 -0.0580
    1W        W60217  27.444   8.679   0.939 -0.1883  0.2140  0.1412
    1W        W60218   7.885  14.022   7.483 -0.0232  0.2627 -0.0925
    1W        W60219  12.512  21.950   0.313 -0.0746 -0.2058 -0.0271
    1W        W60220  26.164  25.341   1.259  0.1027  0.0222  0.0711
    1W        W60221   3.263   5.067   0.542  0.2322 -0.3363 -0.0390
    1W        W60222  12.897  28.733   7.348  0.0767  0.1435 -0.0724
    1W        W60223   1.382  13.715   9.316 -0.1076 -0.3612  0.1814
    1W        W60224  14.787   4.881   2.542 -0.2023 -0.1917  0.1839
    1W        W60225  12.094  11.397   7.196  0.0269  0.0839  0.0096
    1W        W60226  20.638  27.980   2.750 -0.2457 -0.0466 -0.2091
    1W        W60227  18.207  25.111   2.484  0.3345  0.1460  0.2155
    1W        W60228  12.569   9.064   1.202 -0.0823 -0.4092 -0.0475
    1W        W60229  23.197   9.786   9.305  0.1125  0.0483  0.0539
    1W        W60230  26.759  15.112   6.591 -0.0990 -0.0761  0.1217
    1W        W60231  25.217   4.652   6.908  0.0097  0.1150  0.3437
    1W        W60232   0.219  12.777   1.775  0.1203 -0.0462  0.0043
    1W        W60233  26.664  12.474   8.720  0.0316 -0.1106 -0.0736
    1W        W60234  11.121  12.911   1.578 -0.1174 -0.1197  0.0004
    1W        W60235   7.284  27.157   7.766  0.2532  0.0594  0.2699
    1W        W60236  24.535  10.108   2.004 -0.2745 -0.1249 -0.0670
    1W        W60237  21.388   5.511   7.236 -0.0934  0.0442  0.1140
    1W        W60238  22.140  27.662   2.990  0.1173 -0.1988 -0.0880
    1W        W60239  21.198   6.895   7.307  0.2432  0.0923  0.0956
    1W        W60240   6.499  28.889   1.426  0.2278 -0.1616  0.0039
    1W        W60241  26.465   1.288   3.517  0.1296  0.0721  0.1969
    1W        W60242   8.065  20.967   1.795  0.0464 -0.1492 -0.1240
    1W        W60243  21.779   9.467   0.448 -0.0761 -0.2437  0.3139
    1W        W60244  21.780  13.514   7.067  0.0537 -0.2502 -0.0456
    1W        W60245  15.423   7.962   1.510  0.1516 -0.1643  0.2698
    1W        W60246  21.312  14.095   1.320 -0.0121 -0.0649  0.3032
    1W        W60247  18.142   4.724   8.498  0.1308  0.0701 -0.0709
    1W        W60248  22.354  23.804   2.657 -0.1817 -0.2074 -0.1384
    1W        W60249   0.828  15.345   8.443  0.0519 -0.0471 -0.1239
    1W        W60250   8.136  27.008   0.368  0.0652 -0.1170 -0.3250
    1W        W60251   6.324   7.410   2.822  0.2578 -0.1793  0.1525
    1W        W60252  26.885  23.488   0.638  0.0856 -0.4273 -0.0492
    1W        W60253  18.353  17.142   0.853 -0.1398  0.0619 -0.0627
    1W        W60254  11.914  13.648   1.752 -0.0639 -0.0342 -0.0371
    1W        W60255  15.186   8.925   7.966  0.0835 -0.2444  0.0284
    1W        W60256   8.500   6.171   7.620  0.1466  0.0855  0.3123
    1W        W60257  24.044   1.062   0.432 -0.0798 -0.2932  0.0019
    1W        W60258  22.793  24.177   1.443  0.1379  0.0854  0.3458
    1W        W60259  23.217  28.981   1.552  0.2072 -0.1629 -0.1832
    1W        W60260   7.134  10.538   0.867  0.3167  0.0756 -0.0218
    1W        W60261  22.485  28.926   0.481 -0.1430 -0.2824  0.0221
    1W        W60262  12.247  14.719   8.520  0.0990 -0.1265 -0.0368
    1W        W60263  17.486   0.104   8.505 -0.0412 -0.1460 -0.1606
    1W        W60264   1.386  22.209   6.931  0.1014  0.0839  0.2779
    1W        W60265  11.300  24.825   0.720  0.2417  0.0290  0.1684
    1W        W60266  12.018   7.267   7.271 -0.0516 -0.0899 -0.0823
    1W        W60267   6.928  17.264   7.735  0.2477 -0.2883 -0.0788
    1W        W60268  25.767   8.187   8.374  0.0813 -0.1404 -0.3596
    1W        W60269  25.930  13.044   6.739  0.0541  0.1214 -0.0274
    1W        W60270  19.059   0.757   0.409  0.1556 -0.0878  0.0850
    1W        W60271  23.427   3.866   0.361 -0.1106 -0.0406 -0.0585
    1W        W60272   8.699   9.167   2.561 -0.2301 -0.2835  0.0375
    1W        W60273  26.483   4.280   3.099 -0.0503  0.4353 -0.2819
    1W        W60274  11.644   0.903   1.785  0.1263  0.0599  0.0937
    1W        W60275  18.537  26.509   9.068 -0.4979 -0.0780 -0.5361
    1W        W60276  10.815  26.462   1.882 -0.3993  0.1596  0.2358
    1W        W60277  21.929  17.882   8.302 -0.1358 -0.0424 -0.0039
    1W        W60278  22.298  12.128   6.310  0.0799  0.1280  0.1601
    1W        W60279  13.520  12.720   0.328 -0.0550 -0.3485  0.0348
    1W        W60280  10.687  24.393   2.063 -0.0131  0.1004 -0.3105
    1W        W60281  20.122  29.232   9.307  0.0075  0.1142 -0.3091
    1W        W60282   7.672  28.662   0.259  0.1782  0.1244 -0.0847
    1W        W60283  16.324  29.784   7.861  0.1815  0.2995 -0.0297
    1W        W60284   3.599  23.736   0.231  0.0302  0.1656  0.0269
    1W        W60285   6.399   3.414   7.967  0.1820 -0.0158  0.0679
    1W        W60286  18.493   6.677   1.622  0.2571  0.3098 -0.2656
    1W        W60287  14.425  18.904   1.063 -0.2263 -0.1238  0.1625
    1W        W60288  10.496   3.450   7.309  0.1645 -0.1957  0.2495
    1W        W60289  17.892   2.109   1.870 -0.0928 -0.2956 -0.1623
    1W        W60290  17.275  21.894   8.440  0.0513  0.2080 -0.2859
    1W        W60291  26.075  11.504   2.376  0.2516 -0.3477 -0.1230
    1W        W60292  21.080  15.333   0.640 -0.0312 -0.1143  0.0429
    1W        W60293  27.014  17.952   8.969  0.0973 -0.1332 -0.1248
    1W        W60294   4.919   3.612   0.643 -0.0664  0.1379 -0.1211
    1W        W60295  20.976  17.994   2.054  0.3587 -0.1931 -0.0175
    1W        W60296  17.616   9.368   7.333 -0.0726  0.1582 -0.1385
    1W        W60297  24.417  10.331   8.104 -0.2445  0.0836  0.3013
    1W        W60298  17.254   3.525   7.518  0.6770 -0.2528  0.1962
    1W        W60299  13.912  28.495   1.774  0.0481 -0.1530  0.1221
    1W        W60300  14.085   0.697   7.668 -0.0401  0.2219 -0.3822
    1W        W60301   8.152  18.160   0.640  0.4162  0.1535  0.0684
    1W        W60302   5.043  29.805   8.569 -0.1611  0.1374  0.2266
    1W        W60303   3.765   5.474   7.034  0.0861  0.2221  0.2447
    1W        W60304  18.174   5.777   1.276  0.0325  0.0297 -0.2020
    1W        W60305   4.092  23.522   0.059  0.3061 -0.1092 -0.1112
    1W        W60306   6.969  21.568   1.364  0.1079  0.2322 -0.1845
    1W        W60307  18.967   5.901   2.700  0.2077  0.1464 -0.1786
    1W        W60308  20.960  24.408   8.042  0.1584 -0.2878 -0.2456
    1W        W60309  12.380   1.844   1.558 -0.0875 -0.4524  0.1878
    1W        W60310  13.357  25.867   0.972 -0.1463  0.0051 -0.0748
    1W        W60311   8.328  16.795   0.254  0.0813 -0.0826  0.0557
    1W        W60312  19.277  16.125   7.181  0.1404 -0.2028  0.0820
    1W        W60313  27.605  13.681   1.413  0.1892  0.0226  0.1298
    1W        W60314  19.871   6.008   8.316 -0.0253  0.0717 -0.1014
    1W        W60315   0.291  28.005   7.886  0.0697  0.1694  0.2193
    1W        W60316  11.116  26.504   8.496  0.3649  0.3809  0.0343
    1W        W60317  19.123  20.846   8.244  0.2985 -0.0641 -0.0550
    1W        W60318  17.450   7.407   7.112 -0.2876  0.2485  0.0278
    1W        W60319  18.360  12.496   8.088  0.0121  0.1153  0.0400
    1W        W60320  25.058   9.009   2.166  0.1350 -0.1791  0.0377
    1W        W60321  28.645   3.441   8.506  0.2000 -0.4035 -0.2577
    1W        W60322  21.687  17.645   1.914 -0.2819  0.0097 -0.2200
    1W        W60323  29.328  27.215   9.187  0.0754  0.1111 -0.1500
    1W        W60324  11.741  10.083   8.578  0.0751  0.1795 -0.0595
    1W        W60325  16.207   8.541   0.821 -0.0643  0.0367 -0.0053
    1W        W60326   5.764   7.178   8.358  0.0817  0.0895  0.0831
    1W        W60327   9.975   3.824   8.562 -0.1476  0.1446 -0.3290
    1W        W60328  19.528   6.779   6.327  0.3660  0.2134  0.2680
    1W        W60329  19.964  25.474   1.606  0.0211 -0.2903  0.1287
    1W        W60330   4.465   8.497   8.065  0.0242  0.3097  0.2234
    1W        W60331  22.482   8.472   8.779  0.0326 -0.0202  0.0793
    1W        W60332  21.472   0.427   1.310  0.0749 -0.4677  0.0020
    1W        W60333  11.219  14.442   8.491 -0.1149  0.1881 -0.1414
    1W        W60334   0.678  26.541   0.356 -0.0446 -0.3447  0.0840
    1W        W60335  19.574  19.623   7.156  0.0955 -0.0569  0.0934
    1W        W60336  18.284   1.041   2.373 -0.2238 -0.2107  0.1076
    1W        W60337   8.214  24.140   9.062 -0.0600 -0.2913  0.1414
    1W        W60338  25.006   4.450   0.178 -0.0459  0.0003 -0.2340
    1W        W60339  16.841   5.123   0.331 -0.1796 -0.0893 -0.2656
    1W        W60340  20.186   3.586   8.055 -0.2069  0.2664  0.0683
    1W        W60341  19.581  25.600   8.225  0.1049  0.0737 -0.2845
    1W        W60342   2.225  18.327   0.615  0.1369  0.0724 -0.3254
    1W        W60343  18.651   0.691   7.904  0.1772 -0.2916  0.0355
    1W        W60344   8.737  10.373   0.424  0.1186 -0.0785 -0.0633
    1W        W60345  23.370   5.093   1.930 -0.0359  0.0176  0.1335
    1W        W60346   9.807   5.027   7.882 -0.0866 -0.2402  0.1665
    1W        W60347   6.613  16.463   0.271  0.1034 -0.0318 -0.1585
    1W        W60348  11.853   6.327   8.298  0.1193 -0.3067 -0.1058
    1W        W60349   5.557  25.536   6.082 -0.2086  0.0668 -0.0713
    1W        W60350   5.751  28.183   2.607  0.0552  0.0405  0.1947
    1W        W60351  28.548  21.177   6.636 -0.0065 -0.0579 -0.0007
    1W        W60352   4.071  21.442   6.177 -0.0883  0.0269  0.0618
    1W        W60353  10.300  21.300   8.807  0.2324 -0.0329 -0.0623
    1W        W60354   8.390   7.541   2.443 -0.1200 -0.1292 -0.1626
    1W        W60355  15.834  25.530   0.412  0.1889  0.0812 -0.2096
    1W        W60356  29.575  26.705   8.146  0.2612  0.1304 -0.0530
    1W        W60357  19.395  24.323   0.820 -0.2959 -0.0563  0.2039
    1W        W60358  22.350  18.302   0.798  0.1213 -0.1054 -0.2628
    1W        W60359  23.684  23.463   9.380 -0.0689  0.1315 -0.1939
    1W        W60360  19.795  17.611   7.989  0.0790  0.1020 -0.2673
    1W        W60361  29.666  11.566   6.709  0.0330 -0.4014  0.1662
    1W        W60362  26.916  12.282   0.247  0.2126  0.3419  0.1247
    1W        W60363   2.383  23.728   1.304 -0.0371 -0.0597  0.3151
    1W        W60364   5.075   3.771   1.642 -0.1657 -0.0241  0.1276
    1W        W60365   3.522  17.926   0.273 -0.1346 -0.0412 -0.1696
    1W        W60366  25.733   0.454   0.654 -0.0527  0.4453  0.0609
    1W        W60367  19.986   9.668   7.736 -0.3015 -0.0150  0.2430
    1W        W60368   1.692   2.325   2.124  0.1292 -0.0147  0.0769
    1W        W60369   8.581  17.045   6.949 -0.1533 -0.0295  0.0336
    1W        W60370  23.028  12.897   8.652 -0.1961  0.2256  0.0649
    1W        W60371  15.245  29.903   1.828  0.2598  0.3256  0.1171
    1W        W60372  16.809  21.302   0.373  0.0370  0.2435 -0.3857
    1W        W60373  28.090  12.144   2.550 -0.0057 -0.0741  0.2051
    1W        W60374  16.585  25.830   8.743  0.1401  0.3082 -0.5785
    1W        W60375  22.890  13.695   9.205  0.1824  0.1621 -0.0164
    1W        W60376   4.784  11.544   7.347 -0.1007 -0.0326 -0.0229
    1W        W60377  28.325  19.774   7.481 -0.1088 -0.0399 -0.1368
    1W        W60378   1.895   4.798   2.379 -0.2049 -0.1255 -0.0592
    1W        W60379  26.394  25.968   6.071 -0.0250  0.0459  0.0391
    1W        W60380   9.557   9.410   7.359 -0.2319 -0.0708  0.0091
    1W        W60381   9.870  16.168   9.070 -0.2008 -0.2092  0.3081
    1W        W60382  15.143  18.953   6.889  0.1654  0.0884 -0.1539
    1W        W60383   8.661  15.945   6.729 -0.0885  0.2355 -0.0608
    1W        W60384   9.069   6.931   1.243  0.1809  0.1181  0.0540
    1W        W60385  27.871  14.041   7.610  0.0493  0.2239  0.2925
    1W        W60386  23.737  15.023   1.102 -0.0392 -0.3199 -0.3672
    1W        W60387   7.942   3.512   8.773 -0.0031  0.0565 -0.0358
    1W        W60388  10.103  27.959   2.863  0.2886 -0.2455  0.1671
    1W        W60389  10.141   4.595   1.208 -0.1824  0.0268 -0.5259
    1W        W60390  16.247   4.024   0.402 -0.0711  0.1161 -0.1769
    1W        W60391  22.780  13.835   6.746  0.1708  0.1579 -0.0181
    1W        W60392  27.143  23.118   1.603 -0.1716  0.0662 -0.2294
    1W        W60393   7.399   7.184   2.871  0.0558 -0.2639  0.0727
    1W        W60394   9.154  27.860   8.889 -0.0512 -0.0166  0.0135
    1W        W60395   8.097  25.068   6.754  0.0802  0.0597 -0.3046
    1W        W60396  14.584   4.711   8.373 -0.1250 -0.1456  0.0926
    1W        W60397  27.380   2.168   1.371  0.0141 -0.0147 -0.2139
    1W        W60398  15.118  27.016   8.554  0.1514  0.1777 -0.0896
    1W        W60399  11.113  19.599   2.548 -0.2039 -0.0194 -0.0669
    1W        W60400  28.133   3.750   6.862  0.0542 -0.1563  0.1091
    1W        W60401   4.779   1.987   1.981  0.2382 -0.0917 -0.0617
    1W        W60402  23.387   6.720   1.055 -0.0998 -0.2468 -0.1693
    1W        W60403  10.789  28.120   7.988 -0.2561  0.2498 -0.0099
    1W        W60404   3.247   1.744   7.739  0.1079 -0.0945 -0.1570
    1W        W60405  27.340   0.345   1.159  0.2234  0.3393 -0.1906
    1W        W60406  11.121  16.976   7.193  0.0760  0.0832 -0.0785
    1W        W60407  24.395  17.321   0.842  0.0263  0.2775 -0.0375
    1W        W60408   7.424   6.704   6.831 -0.0684 -0.0581  0.0361
    1W        W60409  15.800   8.675   1.568  0.4074  0.2151 -0.1244
    1W        W60410  28.645   4.387   7.396 -0.0679 -0.1274  0.4039
    1W        W60411   4.469  12.439   5.868  0.2043  0.0764  0.3552
    1W        W60412  10.147   5.899   3.373  0.4573  0.1093 -0.2142
    1W        W60413   8.372   6.978   3.550 -0.0204  0.3013 -0.1354
    1W        W60414   5.777  18.977   7.093 -0.0914  0.1598  0.0896
    1W        W60415  18.085   7.715   0.257  0.0741  0.1751  0.1694
    1W        W60416  19.566  18.032   7.256 -0.2676  0.2230  0.2612
    1W        W60417  12.596   9.289   2.055  0.0235 -0.1320  0.1676
    1W        W60418   8.903   0.289   0.775  0.0956 -0.3560  0.0509
    1W        W60419  17.390  21.463   8.830 -0.3069  0.0132  0.0542
    1W        W60420   4.066  20.142   7.744  0.2114 -0.1029  0.0084
    1W        W60421  27.011  29.651   2.384 -0.1307  0.1795 -0.1401
    1W        W60422  28.340  15.168   7.170  0.0576 -0.3567 -0.4564
    1W        W60423  13.912  14.592   1.957  0.1599 -0.0336  0.1719
    1W        W60424   6.484   8.037   3.097  0.0049 -0.1053  0.0505
    1W        W60425  20.002  16.161   0.759  0.0225  0.1421  0.1364
    1W        W60426   3.511   0.819   9.019 -0.1647 -0.0203 -0.2436
    1W        W60427  17.683  11.777   8.416 -0.2009 -0.0324  0.0474
    1W        W60428  21.849   0.666   2.610  0.2319  0.5229 -0.2346
    1W        W60429  14.669   6.448   7.837  0.2028  0.0884  0.0063
    1W        W60430  28.986  25.380   0.074  0.2247 -0.2392 -0.1964
    1W        W60431   6.314  20.654   0.625 -0.1888  0.2217  0.0857
    1W        W60432   6.309  26.825   2.242  0.2594 -0.0532  0.4072
    1W        W60433   0.897   6.714   3.248  0.0887 -0.1440 -0.2824
    1W        W60434  28.429  25.084   2.001  0.0620  0.0304 -0.3706
    1W        W60435  26.482  10.767   1.389 -0.1974 -0.0128  0.2956
    1W        W60436  17.257   4.701   9.021 -0.1129 -0.2239 -0.0808
    1W        W60437  18.971  16.551   8.190  0.0608  0.1033  0.3631
    1W        W60438   0.081   1.594   2.010  0.0726 -0.1478 -0.2699
    1W        W60439  12.943  23.861   6.932 -0.3060  0.0101 -0.0069
    1W        W60440  14.833   7.438   1.128 -0.5255  0.1805 -0.4508
    1W        W60441  15.118  26.559   2.031 -0.0326 -0.2194 -0.5348
    1W        W60442  29.541   9.950   7.960  0.0033  0.2099  0.1574
    1W        W60443   9.883   3.894   2.318  0.0469  0.2774  0.2957
    1W        W60444  21.738   1.559   2.717  0.0064 -0.0323  0.5452
    1W        W60445  10.456  14.739   0.361 -0.2527  0.2337 -0.0474
    1W        W60446  24.948  24.960   0.871  0.4107 -0.1278  0.2438
    1W        W60447  28.527  15.751   7.142  0.0369  0.0741  0.1003
    1W        W60448  20.399  25.729   0.884 -0.1370 -0.0341 -0.1269
    1W        W60449  22.771  11.092   0.689 -0.0522 -0.0745 -0.0260
    1W        W60450  27.827   3.063   1.433  0.0123 -0.0260 -0.0895
    1W        W60451  29.103  10.733   7.024 -0.2100  0.2693  0.1572
    1W        W60452  28.435   6.621   8.430 -0.0001 -0.0069 -0.0518
    1W        W60453  16.086   5.258   7.182  0.3057  0.2547  0.1919
    1W        W60454   9.665   4.367   1.138  0.0454  0.0169  0.2893
    1W        W60455   5.309  23.468   7.870 -0.1912 -0.0196 -0.3293
    1W        W60456  20.230  14.738   0.674 -0.0922  0.3575 -0.4413
    1W        W60457  12.454  25.854   6.255  0.1443  0.0018  0.1201
    1W        W60458   9.309   9.633   0.109  0.1306  0.2987  0.0282
    1W        W60459   7.337   0.895   2.762 -0.1041  0.0197 -0.2686
    1W        W60460   2.025  26.345   1.273  0.0422 -0.0346  0.1777
    1W        W60461  22.861  25.500   1.654 -0.2488  0.0984 -0.1482
    1W        W60462   9.091   9.800   8.124  0.1645  0.0634 -0.0237
    1W        W60463   0.774   8.572   9.142 -0.1537  0.1457 -0.1889
    1W        W60464  25.704   1.875   0.975  0.0397 -0.2053  0.1797
    1W        W60465  14.429   0.597   9.421 -0.1245  0.1539 -0.1416
    1W        W60466   5.210   1.779   7.620  0.1038  0.1434  0.0954
    1W        W60467   8.770   8.114   0.968  0.0573  0.0674  0.1878
    1W        W60468  11.142  14.144   0.161  0.0593 -0.1968 -0.0660
    1W        W60469  17.723  22.388   0.516 -0.1644 -0.0573  0.2365
    1W        W60470  15.328   4.386   7.084 -0.0266  0.0606  0.3265
    1W        W60471   6.085   1.186   2.476  0.2699 -0.3088 -0.1243
    1W        W60472   3.209  14.718   7.456  0.1723 -0.2215  0.2649
    1W        W60473  11.076  13.556   7.728  0.1912 -0.2974  0.0670
    1W        W60474   5.471  18.943   6.224  0.1772  0.2042  0.1716
    1W        W60475  25.630   8.148   8.849 -0.1430  0.3118 -0.0232
    1W        W60476  17.190  24.709   0.544  0.0776 -0.5351  0.1177
    1W        W60477  23.706  20.959   0.351  0.0215  0.1130  0.0410
    1W        W60478   3.938  28.854   0.468  0.0831  0.0138 -0.2285
    1W        W60479   3.251  23.183   8.986 -0.0616 -0.0939 -0.1260
    1W        W60480  27.191   7.683   1.041  0.0054  0.0730  0.1544
    1W        W60481  15.788   7.710   1.692 -0.3484  0.0472 -0.0662
    1W        W60482   1.306  11.357   1.092  0.5087  0.1047  0.0037
    1W        W60483   6.256  11.676   9.316 -0.2442 -0.0711  0.1165
    1W        W60484   5.908  21.337   5.936  0.1363  0.0034  0.0091
    1W        W60485   5.373  24.842   6.692 -0.1297 -0.2148  0.0523
    1W        W60486  24.472  26.091   9.268  0.1492 -0.6426 -0.3377
    1W        W60487   0.189   0.878   9.120 -0.2070  0.0791  0.3971
    1W        W60488  27.456  20.758   7.315  0.1714 -0.0480 -0.4408
    1W        W60489  12.562  23.053   8.319  0.1144  0.1397  0.2105
    1W        W60490   0.152   6.581   9.035 -0.5170  0.4138  0.0412
    1W        W60491   1.736  26.662   7.877  0.0053 -0.2465  0.0399
    1W        W60492  27.807  15.347   1.499 -0.3808  0.1277  0.0592
    1W        W60493   1.385   3.349   1.878  0.1765  0.1747 -0.0003
    1W        W60494   4.499  17.129   8.799 -0.1163  0.2273 -0.0324
    1W        W60495  11.155   1.605   0.550 -0.2515  0.0686 -0.2367
    1W        W60496  22.531  14.132   7.122  0.3382  0.3372 -0.3054
    1W        W60497  19.651   5.779   7.761  0.0089 -0.2114 -0.2001
    1W        W60498   0.921  23.219   8.342  0.1996 -0.3413  0.0243
    1W        W60499  24.920  11.778   9.184  0.1547  0.3640  0.0385
    1W        W60500  16.832  12.480   7.040  0.1868 -0.0738 -0.1697
    1W        W60501   3.677   0.755   6.937  0.4258  0.0258  0.2147
    1W        W60502  27.406  29.277   8.164 -0.1423  0.3030 -0.2236
    1W        W60503  21.733   4.466   9.426 -0.3636 -0.1183 -0.0391
    1W        W60504  14.993  25.358   1.866  0.0868  0.2787 -0.0501
    1W        W60505  29.289   3.292   1.223 -0.2217  0.1061  0.0972
    1W        W60506  28.439  28.969   3.417  0.0800  0.1059 -0.0618
    1W        W60507  23.373   3.310   7.392  0.0511 -0.0594 -0.1727
    1W        W60508  29.248  18.533   0.991 -0.2911  0.1478 -0.2172
    1W        W60509  23.991  20.085   9.287  0.1874 -0.1011 -0.0832
    1W        W60510   4.201   2.406   8.440 -0.2976 -0.1308 -0.0933
    1W        W60511  12.577   3.565   0.826  0.1086 -0.2062  0.0144
    1W        W60512  29.142   8.014   7.150 -0.1758 -0.0926  0.0793
    1W        W60513   5.290  11.621   9.249  0.1548 -0.0729  0.0151
    1W        W60514  11.557  22.618   0.524  0.0935  0.1453  0.1627
    1W        W60515   1.280   9.805   6.338  0.1203  0.0221  0.2282
    1W        W60516  24.847  21.442   2.159  0.0360  0.1648  0.1067
    1W        W60517   1.871  26.825   6.931 -0.2109 -0.0010 -0.1455
    1W        W60518  26.072  22.869   8.844 -0.1798  0.1477  0.1895
    1W        W60519  29.383  16.601   2.498  0.1842 -0.0105  0.0639
    1W        W60520  27.092   2.192   1.864 -0.3078 -0.0050 -0.0917
    1W        W60521  17.074   3.104   2.337  0.0501 -0.2682  0.0569
    1W        W60522   4.633  27.094   1.821  0.0939 -0.1743  0.0031
    1W        W60523  14.015  12.068   9.367  0.1494  0.1717 -0.0266
    1W        W60524  15.045  23.836   8.404 -0.1807  0.2609  0.1642
    1W        W60525   2.633  18.845   0.695 -0.0723  0.1585 -0.0895
    1W        W60526   3.793  28.315   0.180  0.3259 -0.0024 -0.0554
    1W        W60527  27.070  26.248   6.799 -0.2525 -0.1677  0.0836
    1W        W60528  10.724  14.167   1.104  0.1686 -0.1255  0.0325
    1W        W60529  13.059  26.370   9.175 -0.1361 -0.1498 -0.2117
    1W        W60530  20.697  23.347   1.768 -0.2434 -0.0267 -0.2969
    1W        W60531  15.097  21.506   8.824 -0.0747 -0.5914 -0.0085
    1W        W60532   8.345  19.133   8.793 -0.0313 -0.0689 -0.2359
    1W        W60533  14.745  22.873   1.577  0.1120  0.2780  0.1370
    1W        W60534   7.578  18.633   7.630  0.2040 -0.0114  0.1328
    1W        W60535  22.621  21.918   2.237 -0.2363  0.0182 -0.0945
    1W        W60536  18.931  13.905   1.530  0.1123  0.0059  0.1116
    1W        W60537  20.871  16.232   8.401 -0.1710 -0.0296  0.0879
    1W        W60538   6.942  19.911   2.152 -0.0024  0.0192 -0.3884
    1W        W60539  16.543   7.593   1.601  0.2946  0.1824 -0.1427
    1W        W60540   6.803   0.983   1.915 -0.2555  0.1438  0.0638
    1W        W60541  25.471  12.880   6.711 -0.0711  0.0168 -0.0829
    1W        W60542  26.305   9.854   8.296 -0.1691 -0.0685  0.3009
    1W        W60543   0.409  14.028   8.792  0.2531 -0.2712  0.2496
    1W        W60544  26.149   6.192   7.611 -0.1020 -0.0953 -0.2863
    1W        W60545  12.416  12.253   2.827 -0.0868  0.2507 -0.0128
    1W        W60546  22.698   3.958   8.939 -0.0747  0.2063 -0.1671
    1W        W60547  21.269  27.646   6.415 -0.0123 -0.1812  0.0147
    1W        W60548   0.840  29.650   7.452  0.0334  0.2136  0.2460
    1W        W60549  11.016  18.325   6.415 -0.0392  0.2316 -0.4180
    1W        W60550   1.338   7.497   0.398 -0.0248 -0.3118  0.2018
    1W        W60551  17.059  12.581   1.687  0.0323 -0.0635  0.0910
    1W        W60552   4.942   5.367   2.513 -0.1638 -0.2481  0.2106
    1W        W60553   2.236  12.909   6.572  0.0295  0.0420 -0.2467
    1W        W60554   9.697   7.882   0.849  0.1894 -0.3142 -0.0178
    1W        W60555  23.508  15.043   7.681  0.2744  0.0091  0.0926
    1W        W60556  22.473  21.644   0.052  0.0185 -0.1675 -0.1399
    1W        W60557  21.618  18.991   0.163 -0.3881  0.0935  0.2759
    1W        W60558  15.328  10.777   0.570 -0.2421  0.1483  0.1962
    1W        W60559   0.168  21.329   9.314  0.1301 -0.1092 -0.0145
    1W        W60560  24.662  29.302   3.712  0.1078  0.1801  0.0562
    1W        W60561   6.922  14.424   2.539 -0.2672 -0.1398  0.1773
    1W        W60562  14.471  24.047   2.326  0.0415  0.1895 -0.2939
    1W        W60563   9.960  24.927   9.062  0.0863  0.1565 -0.1418
    1W        W60564  27.064   4.567   9.322 -0.0393  0.2501 -0.1319
    1W        W60565  23.013   4.008   0.637 -0.2123  0.2772  0.2056
    1W        W60566  21.661  10.959   7.687 -0.2822  0.4009  0.0767
    1W        W60567  12.660  25.713   9.284 -0.0468 -0.0151 -0.2278
    1W        W60568  21.251   8.363   2.662  0.0511  0.0357  0.1637
    1W        W60569   4.771  16.370   6.370  0.0628  0.0558 -0.1992
    1W        W60570  21.526  17.191   0.492 -0.0940  0.2426 -0.0022
    1W        W60571   3.441  27.223   0.224  0.2134 -0.0813 -0.0031
    1W        W60572  27.129   0.619   7.673  0.0955  0.0046 -0.3202
    1W        W60573  16.352  10.054   6.862  0.0660 -0.0576  0.1491
    1W        W60574  15.296  26.933   0.171  0.1011 -0.0382  0.2442
    1W        W60575  18.000  15.951   7.995  0.1612  0.1259  0.0587
    1W        W60576   8.533  17.047   8.348 -0.1947  0.4198 -0.5392
    1W        W60577  29.892  11.290   2.345  0.2158  0.0267 -0.0119
    1W        W60578  26.648   7.435   1.767  0.1031  0.0558  0.1074
    1W        W60579  15.555   2.660   8.476 -0.0918  0.1046  0.1334
    1W        W60580   8.213   1.992   7.430 -0.1832 -0.4127  0.0723
    1W        W60581   5.925  11.225   8.708 -0.0375  0.1275  0.1766
    1W        W60582   2.637  24.803   2.069 -0.0357 -0.1015 -0.0911
    1W        W60583  17.921  18.721   8.008  0.3870  0.1129 -0.4502
    1W        W60584   5.531   9.290   9.367 -0.3914  0.0080 -0.5580
    1W        W60585  16.503  18.203   7.608 -0.0628  0.2310  0.3957
    1W        W60586  21.553  21.976   8.964  0.0554 -0.1947  0.0151
    1W        W60587   1.976   4.058   7.433 -0.6079  0.1508 -0.2100
    1W        W60588  15.022  19.415   0.047 -0.1146 -0.0409 -0.0212
    1W        W60589   4.662   1.900   1.455 -0.1732  0.0926 -0.0707
    1W        W60590   4.204   9.998   0.016  0.1084  0.0224  0.0808
    1W        W60591  23.196  23.774   6.801  0.1547  0.1476 -0.0984
    1W        W60592  22.674   4.605   8.751  0.0368 -0.1312 -0.1485
    1W        W60593  23.158   6.413   0.789 -0.0535  0.0109 -0.0722
    1W        W60594  17.396  26.048   9.317 -0.2705  0.4690  0.1080
    1W        W60595  28.373  11.827   6.014  0.0063  0.0872  0.1505
    1W        W60596  12.831  12.901   7.887 -0.0556 -0.4409 -0.2700
    1W        W60597  26.859  12.933   6.149 -0.1668  0.2140  0.0339
    1W        W60598  15.202   1.411   0.057  0.1036  0.0361 -0.1194
    1W        W60599  18.211  25.896   7.554 -0.0610 -0.0480 -0.0118
    1W        W60600  16.104   6.383   1.056 -0.1493  0.1365  0.2360
    1W        W60601   1.303  22.858   5.782  0.0261  0.2195  0.0472
    1W        W60602  19.755  24.444   0.471 -0.2007 -0.0377 -0.0692
    1W        W60603  11.236   8.143   8.996 -0.3049 -0.2106 -0.2508
    1W        W60604  20.806  17.524   7.442 -0.0228 -0.0049 -0.2229
    1W        W60605  12.713  14.161   1.612 -0.3974  0.3103  0.1772
    1W        W60606  26.239  17.785   9.060  0.2343 -0.0684  0.2891
    1W        W60607  16.688  19.664   0.418  0.2767 -0.3119 -0.1869
    1W        W60608  28.905  13.752   0.570 -0.0089 -0.3260 -0.0135
    1W        W60609   1.465   0.723   1.253  0.3479 -0.3565  0.1707
    1W        W60610   7.883  11.764   0.707 -0.2625  0.2701  0.2465
    1W        W60611  29.159  28.022   6.935 -0.0105  0.3065  0.0062
    1W        W60612  29.113  15.102   9.020  0.1766  0.3398  0.1475
    1W        W60613  24.263   6.823   8.816 -0.2474 -0.0276  0.1552
    1W        W60614  20.782  16.685   7.270 -0.2007 -0.0614  0.0374
    1W        W60615   1.379  23.464   2.036 -0.1272  0.0172 -0.0037
    1W        W60616  21.677  22.005   1.644 -0.3601  0.0872  0.0324
    1W        W60617   2.719  19.067   1.437  0.2650 -0.0821  0.3024
    1W        W60618  16.262  22.677   0.049  0.1544 -0.0726 -0.1037
    1W        W60619  24.188   4.048   1.365  0.0397  0.0304 -0.0732
    1W        W60620  28.099  18.700   1.245  0.2445  0.0904 -0.5608
    1W        W60621  13.053   8.045   9.121  0.1720  0.1198  0.1389
    1W        W60622   6.446   0.008   7.732 -0.1157 -0.0364  0.0813
    1W        W60623  29.334  16.100   7.148  0.2740  0.0515 -0.0035
    1W        W60624   5.182   0.462   1.284  0.3183 -0.4660 -0.1035
    1W        W60625   5.634   0.305   7.878 -0.3913 -0.0381  0.1334
    1W        W60626  12.481  29.105   8.477 -0.0048 -0.1077 -0.1376
    1W        W60627  14.430   4.860   2.174 -0.0955  0.1364 -0.1033
    1W        W60628  26.306  17.439   0.515  0.0185  0.0744  0.1793
    1W        W60629  27.684  12.796   6.819 -0.2373 -0.2401  0.3017
    1W        W60630  14.349   0.027   8.654 -0.1688 -0.0623 -0.2990
    1W        W60631  20.252  25.072   7.393  0.0990 -0.1375  0.0890
    1W        W60632  21.307   0.748   1.705 -0.2376 -0.0215 -0.0547
    1W        W60633   9.867  19.707   6.982  0.2094 -0.0059  0.1275
    1W        W60634  10.996   8.592   2.245 -0.4310  0.1118 -0.0076
    1W        W60635   7.100  26.702   6.314  0.0108  0.2685 -0.2109
    1W        W60636   7.588   0.912   7.806  0.1153  0.0925 -0.0703
    1W        W60637  20.957   4.695   0.453 -0.0249  0.1245 -0.0377
    1W        W60638   5.909  18.211   6.546  0.0186  0.1902 -0.5994
    1W        W60639  20.436  20.068   7.797  0.1120  0.3251 -0.0119
    1W        W60640  16.901   0.848   8.049  0.0288  0.0673 -0.1183
    1W        W60641   0.369  28.007   9.414 -0.0973 -0.0429 -0.1219
    1W        W60642   0.401  12.724   9.023 -0.0437 -0.1801 -0.2309
    1W        W60643  18.058  11.879   2.335  0.0186  0.1339 -0.0348
    1W        W60644  20.154   5.103   8.833 -0.3472  0.0065  0.0958
    1W        W60645  15.517   7.366   1.486 -0.1628  0.0754  0.1153
    1W        W60646   7.528  10.407   1.215  0.0425  0.0269  0.1204
    1W        W60647  27.994  24.795   1.857 -0.0200  0.0598  0.0549
    1W        W60648  14.102  22.698   6.470  0.1894  0.2117 -0.1750
    1W        W60649  26.752  27.052   2.633  0.1847 -0.0164 -0.0104
    1W        W60650  10.403  26.708   7.332  0.2662  0.0986  0.0961
    1W        W60651  20.151  15.824   7.685 -0.0233 -0.0192  0.2210
    1W        W60652   9.282   8.183   7.873 -0.0143  0.0298  0.0818
    1W        W60653  22.601  24.710   2.899 -0.1232  0.0758  0.0181
    1W        W60654  25.232   6.075   7.219 -0.2501 -0.2287  0.0187
    1W        W60655  28.848  13.391   0.199  0.2391  0.3146 -0.1706
    1W        W60656   3.777   5.071   1.675 -0.1335 -0.1806 -0.1301
    1W        W60657  29.563   7.355   7.315  0.3536  0.0341  0.1127
    1W        W60658  23.979  26.469   2.491 -0.0232  0.2459 -0.1087
    1W        W60659  26.879  18.443   2.271 -0.0662 -0.0199  0.1949
    1W        W60660  24.913  17.009   8.131  0.0865  0.0687  0.2436
    1W        W60661  14.633   7.082   2.074 -0.0459 -0.0679  0.2436
    1W        W60662  23.587   6.315   0.013 -0.0970  0.3073 -0.3810
    1W        W60663   9.828  29.538   1.139 -0.2762 -0.0780 -0.2276
    1W        W60664  10.347   4.200   1.470  0.0657  0.0649 -0.3525
    1W        W60665  28.300  14.055   7.915 -0.2212 -0.0895  0.0366
    1W        W60666  29.886  27.256   7.872 -0.0954 -0.2725  0.0776
    1W        W60667   8.741  22.988   6.692  0.1111  0.0018  0.3223
    1W        W60668  19.096  27.784   6.734  0.1105  0.0370  0.1225
    1W        W60669   1.917   8.042   2.902 -0.3769  0.2952 -0.3179
    1W        W60670  16.582  23.176   8.273  0.1896 -0.0328  0.3160
    1W        W60671  18.508  20.847   0.522 -0.1031 -0.2124 -0.2497
    1W        W60672  28.763  26.516   1.960 -0.0470  0.1678 -0.0967
    1W        W60673  11.388  15.158   0.883 -0.1871  0.1305  0.2065
    1W        W60674  11.031  23.404   9.039 -0.0162 -0.4556  0.2540
    1W        W60675  23.608  17.728   2.198  0.1294  0.0529 -0.1204
    1W        W60676  20.247  15.182   1.827 -0.0955  0.1866 -0.1450
    1W        W60677   7.455  10.881   9.216 -0.2157  0.1383 -0.2364
    1W        W60678  24.202   4.459   0.496  0.2439  0.0641 -0.1189
    1W        W60679  14.231   8.301   2.514 -0.1728 -0.2827 -0.1606
    1W        W60680  26.302  24.706   7.524 -0.1013 -0.0460  0.1563
    1W        W60681   1.291  18.234   8.951 -0.0342  0.2128 -0.1983
    1W        W60682   2.885   1.262   7.413 -0.2792  0.0115 -0.0614
    1W        W60683   6.775  19.384   6.133  0.0018 -0.0094  0.0475
    1W        W60684   0.052  20.528   0.481  0.2032 -0.1561 -0.1370
    1W        W60685   9.549   8.937   1.308 -0.1196  0.2761  0.1263
    1W        W60686  29.848  29.418   1.241 -0.0645 -0.1094 -0.1532
    1W        W60687   7.676   2.540   7.277  0.0053  0.0251  0.1704
    1W        W60688  19.778  16.613   8.987  0.2096 -0.0847  0.3777
    1W        W60689  15.078  20.511   2.042  0.0044 -0.1776 -0.0810
    1W        W60690  26.342   2.313   8.693  0.1091  0.4173 -0.1044
    1W        W60691  15.884  27.465   7.578  0.2136  0.3216 -0.1707
    1W        W60692  22.573  19.682   8.861  0.1483  0.0743 -0.0282
    1W        W60693  16.738  18.140   1.367 -0.0364 -0.2440  0.0788
    1W        W60694   0.245  17.647   9.067 -0.2642 -0.0414 -0.0656
    1W        W60695  25.692  26.591   2.122 -0.0835 -0.0528 -0.0697
    1W        W60696   5.114  11.208   2.563 -0.1088  0.0761  0.0308
    1W        W60697  12.397  19.462   1.276  0.2430 -0.0483 -0.0862
    1W        W60698   4.992  14.274   0.423  0.0924  0.1227 -0.1808
    1W        W60699  26.324  12.282   6.280 -0.1293  0.3150  0.0698
    1W        W60700  16.347  28.070   3.181 -0.5213  0.3729  0.1277
    1W        W60701  28.116   7.169   3.024  0.0436  0.4200  0.1296
    1W        W60702   6.896   2.365   8.373 -0.2649 -0.0369 -0.0069
    1W        W60703   7.613  28.472   1.599  0.1828 -0.2197  0.3452
    1W        W60704  19.660  28.753   3.577  0.0117 -0.2560 -0.0974
    1W        W60705  15.247   2.416   8.944 -0.0962  0.1594  0.0308
    1W        W60706  11.948  19.852   8.056 -0.2090  0.0242 -0.1954
    1W        W60707  17.284  23.949   1.080  0.2193  0.0288 -0.3991
    1W        W60708  24.610  23.745   1.882  0.1067 -0.2829  0.1459
    1W        W60709   2.951  15.294   2.124  0.1095 -0.0394 -0.0980
    1W        W60710  12.633   3.593   2.579 -0.0049 -0.1582 -0.1675
    1W        W60711  18.919   0.437   1.427 -0.0903  0.1805 -0.0882
    1W        W60712   9.076  25.888   1.454 -0.1578 -0.1357 -0.0324
    1W        W60713   4.488  17.509   6.990 -0.0572  0.0362  0.1355
    1W        W60714  22.270   1.787   7.689 -0.2351 -0.1627  0.1607
    1W        W60715  23.358  25.615   6.808 -0.1260 -0.2455  0.1807
    1W        W60716   4.331  10.899   8.694  0.1141  0.1149 -0.0861
    1W        W60717  24.397  14.389   6.706 -0.1318  0.0525  0.1019
    1W        W60718  14.146  15.051   1.055  0.0548 -0.2189 -0.0183
    1W        W60719  19.383  18.374   2.299  0.4305 -0.2615  0.0198
    1W        W60720  22.476  23.971   1.092 -0.1785  0.2719  0.3171
    1W        W60721   3.276  13.718   9.291 -0.1448  0.0475  0.0353
    1W        W60722   2.186  15.751   6.330  0.1099  0.0596 -0.1626
    1W        W60723  16.527  16.461   9.117  0.2843  0.0208 -0.2587
    1W        W60724   6.809   3.881   3.474 -0.1803 -0.2248  0.0313
    1W        W60725  21.849  26.307   8.907 -0.2980  0.0524  0.1239
    1W        W60726   0.882   7.843   2.075 -0.1676  0.2743  0.0096
    1W        W60727  15.759   6.116   1.398  0.2112  0.1171  0.0513
    1W        W60728  23.574   3.998   2.629  0.0325  0.2094 -0.0971
    1W        W60729  25.368   1.975   7.655 -0.1658  0.0216 -0.0969
    1W        W60730  21.259  22.098   8.614 -0.0707  0.1675  0.3071
    1W        W60731   0.848   3.619   2.117  0.1170 -0.1110  0.1467
    1W        W60732  10.685  22.295   9.388 -0.1301  0.1054  0.2253
    1W        W60733  16.946  24.211   6.583  0.0212 -0.0707  0.0606
    1W        W60734  20.899  15.843   9.229 -0.1194  0.1161 -0.4320
    1W        W60735  15.741   9.884   2.590 -0.2060  0.1060 -0.0508
    1W        W60736   0.076  27.009   7.486  0.1065 -0.2807 -0.0943
    1W        W60737  17.347  13.135   8.827 -0.1442 -0.0754  0.1883
    1W        W60738  21.704   8.430   2.766  0.1363  0.0257  0.0704
    1W        W60739  14.824  21.586   1.324  0.3226 -0.3100 -0.2901
    1W        W60740   5.806  19.777   9.213 -0.1988  0.3006 -0.1776
    1W        W60741  11.435  18.478   9.376  0.0803  0.2289  0.3054
    1W        W60742   0.573  10.632   0.513 -0.0758  0.2215  0.0443
    1W        W60743   5.950  25.150   9.236 -0.0226  0.2058  0.0909
    1W        W60744  21.364  20.781   0.470 -0.0332  0.1044  0.1737
    1W        W60745  24.332  13.797   1.006  0.2000 -0.2273 -0.0379
    1W        W60746  11.153  23.853   0.813  0.2849  0.0526 -0.3066
    1W        W60747  12.731  13.567   9.434  0.0091  0.0587  0.1523
    1W        W60748  15.296   2.827   9.409 -0.0266  0.2222 -0.1262
    1W        W60749  27.353   2.759   1.571 -0.0556 -0.2680  0.0617
    1W        W60750  13.814  21.172   8.237 -0.0426  0.1354 -0.1043
    1W        W60751  14.447   3.060   2.714  0.1153 -0.0254  0.0675
    1W        W60752  24.874   1.772   7.542 -0.0037  0.2461  0.2038
    1W        W60753  10.624   0.780   2.238  0.0295 -0.0216  0.0990
    1W        W60754  21.487  22.977   3.537  0.0121 -0.0114  0.0412
    1W        W60755   5.276  14.561   8.669 -0.2840 -0.0357  0.1888
    1W        W60756  20.401   0.948   7.182  0.3116 -0.2742 -0.1893
    1W        W60757   5.056  14.582   0.050  0.0412  0.2131  0.3204
    1W        W60758   1.327  27.571   6.529  0.3090 -0.1254 -0.0308
    1W        W60759  29.248  14.273   9.332  0.0110 -0.0210 -0.2111
    1W        W60760  22.197  15.894   8.409 -0.0871  0.1664  0.0207
    1W        W60761  22.258  25.575   1.809  0.1298 -0.0608 -0.1911
    1W        W60762   1.798   4.702   8.715 -0.0573 -0.3722 -0.2303
    1W        W60763   7.989  23.770   0.335 -0.1127 -0.1046 -0.2759
    1W        W60764   8.452  27.554   9.318  0.1647 -0.0736 -0.1307
    1W        W60765   2.229   6.411   7.318 -0.1535  0.0110 -0.1790
    1W        W60766   7.364   2.301   7.579  0.4477  0.0765 -0.2221
    1W        W60767  14.940  19.143   1.350  0.4609  0.1302  0.1376
    1W        W60768  28.004  10.889   8.390  0.0952  0.0086 -0.4372
    1W        W60769  20.206  27.320   2.450 -0.1093 -0.1408 -0.2544
    1W        W60770   2.415  25.374   6.891  0.2594 -0.0189  0.0109
    1W        W60771  18.783   6.169   9.445 -0.0714  0.1096  0.0573
    1W        W60772   7.324  20.376   9.355  0.2080  0.0166 -0.0429
    1W        W60773   3.217  20.734   6.239  0.1127  0.2457  0.1837
    1W        W60774   7.941   1.228   1.513  0.0964  0.1924  0.0743
    1W        W60775  12.181   7.984   1.668 -0.2317 -0.2558  0.1164
    1W        W60776  14.725  15.962   6.580  0.3716 -0.1205 -0.2135
    1W        W60777   6.308  12.685   1.407 -0.2093 -0.0352  0.2323
    1W        W60778   4.619   4.171   1.908  0.1661  0.2019 -0.0996
    1W        W60779   4.701  15.596   9.343 -0.2044  0.0513  0.1680
    1W        W60780  19.717  26.909   1.236  0.1818 -0.3632 -0.0191
    1W        W60781  17.696   0.344   8.019 -0.3935  0.2666  0.2107
    1W        W60782   5.019  12.079   8.892 -0.1419  0.0708 -0.1312
    1W        W60783  28.307  11.860   1.633  0.1326  0.0589  0.0115
    1W        W60784   4.116  25.654   2.432  0.2683 -0.0721 -0.1158
    1W        W60785   2.910  27.129   0.953 -0.3324 -0.2922 -0.0755
    1W        W60786  25.750  19.267   9.329  0.1226 -0.2573 -0.0727
    1W        W60787  23.730  27.319   0.230 -0.1711 -0.0635 -0.0277
    1W        W60788   6.809   4.393   6.986  0.1184 -0.3858  0.1352
    1W        W60789  15.304  17.234   0.061 -0.1218  0.0686 -0.0982
    1W        W60790   1.496   2.060   9.227 -0.2297  0.0344  0.1917
    1W        W60791   0.087  29.256   8.853  0.1526  0.1060  0.2362
    1W        W60792  27.543  12.194   6.708  0.0787  0.0306 -0.0285
    1W        W60793  17.078  16.138   9.450  0.2139 -0.0681 -0.0774
    1W        W60794  15.000  26.492   7.782  0.1131 -0.1008 -0.1069
    1W        W60795   3.378   5.917   6.968  0.0661 -0.2321  0.0942
    1W        W60796  27.507  10.078   0.188 -0.2216  0.0529 -0.1055
    1W        W60797  13.194  17.848   7.614  0.1129 -0.4726 -0.1975
    1W        W60798  23.195  24.619   6.568 -0.0567  0.0025  0.5136
    1W        W60799  16.484  14.171   1.138  0.0918 -0.1414  0.0153
    1W        W60800  27.877  20.003   7.951 -0.3439  0.0624  0.1698
    1W        W60801   5.089   7.369   7.787 -0.0248  0.2166  0.3277
    1W        W60802  26.851  28.645   6.658 -0.1535 -0.1368 -0.0365
    1W        W60803   3.055   6.117   8.145 -0.2229  0.1542  0.0310
    1W        W60804   9.321  14.794   7.567  0.0770 -0.0336  0.3619
    1W        W60805  25.168  22.098   3.199  0.0773 -0.3235 -0.2338
    1W        W60806  14.455  11.027   7.355  0.2720  0.2245  0.1837
    1W        W60807  20.820   8.793   0.271  0.1413 -0.1879 -0.1354
    1W        W60808  10.515   6.720   7.428 -0.0047 -0.1485 -0.1841
    1W        W60809   0.744  20.649   1.443 -0.2149  0.0998 -0.2580
    1W        W60810   5.680  28.152   7.481 -0.3601  0.0841 -0.1864
    1W        W60811  19.950  29.389   7.542  0.0175  0.0046 -0.0964
    1W        W60812   6.087   6.252   8.338 -0.1798  0.4527 -0.1276
    1W        W60813  19.230  14.827   0.603 -0.1918 -0.0973 -0.0306
    1W        W60814  22.841   8.735   0.876  0.0133  0.1472 -0.0534
    1W        W60815  17.222  18.152   0.023  0.0778  0.1216  0.0025
    1W        W60816  23.341  16.285   1.157 -0.0828  0.0257  0.1468
    1W        W60817   0.996  29.647   8.793 -0.0224  0.1192 -0.0146
    1W        W60818   7.842  19.508   7.613 -0.0758 -0.1008  0.2014
    1W        W60819  27.088  29.115   1.272  0.1120 -0.2869  0.0931
    1W        W60820   4.747   2.118   6.992 -0.3624 -0.1343 -0.0897
    1W        W60821  25.791  18.053   1.641 -0.0245 -0.0301 -0.2108
    1W        W60822   7.032   4.900   0.358 -0.0871 -0.0936  0.0362
    1W        W60823  28.907  12.007   0.707  0.0961  0.0870 -0.1385
    1W        W60824   1.591   1.875   2.072  0.3065 -0.0217 -0.1420
    1W        W60825  15.325   0.663   7.160 -0.1747 -0.1799  0.0712
    1W        W60826  26.357   2.985   0.091 -0.2109  0.0727  0.2346
    1W        W60827  29.342   5.968   7.101  0.0076  0.0751 -0.1924
    1W        W60828  13.785  12.097   6.745  0.1827  0.0639  0.1378
    1W        W60829  20.275  22.417   9.095 -0.1549 -0.0826 -0.0286
    1W        W60830  24.569  29.048   2.356 -0.0424  0.0074 -0.1239
    1W        W60831  19.143  22.960   0.337 -0.0572 -0.2029  0.0009
    1W        W60832  13.259  16.993   7.329  0.0143 -0.0108  0.0894
    1W        W60833  21.995  18.980   6.952 -0.0716 -0.2163 -0.1384
    1W        W60834   0.568   7.331   2.409 -0.0179 -0.0378 -0.0003
    1W        W60835  10.546  16.872   9.295 -0.0628 -0.2152  0.1318
    1W        W60836  12.908  29.670   2.947 -0.1034  0.1873  0.1177
    1W        W60837   9.930  24.154   1.084  0.0876 -0.0262  0.1704
    1W        W60838   3.350   1.668   9.430  0.3005  0.0497 -0.0287
    1W        W60839   0.162  25.055   6.721  0.0763 -0.0078 -0.1990
    1W        W60840  26.515  28.773   2.094  0.1046  0.1905 -0.1890
    1W        W60841   0.418  17.365   8.644 -0.1372  0.2032 -0.1586
    1W        W60842  18.359   2.919   8.939 -0.3671  0.2933  0.2426
    1W        W60843   5.171  17.650   7.596 -0.0434 -0.0190  0.1443
    1W        W60844  18.298  14.681   0.033 -0.0030 -0.1227  0.1616
    1W        W60845  10.034   9.249   7.301 -0.0007 -0.0600  0.2769
    1W        W60846   1.900   1.841   8.779  0.0393  0.0107  0.1705
    1W        W60847  27.280  14.072   7.930 -0.2063  0.1303  0.1412
    1W        W60848   3.505  20.055   0.468 -0.0366  0.2756 -0.3366
    1W        W60849  29.363  26.065   0.557  0.1996  0.4103  0.1586
    1W        W60850  29.848   8.703   1.525  0.1537 -0.3176  0.0672
    1W        W60851   4.965   2.079   9.059  0.0125 -0.1491  0.1124
    1W        W60852   0.858  15.034   0.793  0.0360 -0.1234 -0.1460
    1W        W60853   0.467  26.616   6.479  0.2741  0.0796  0.0344
    1W        W60854  25.716  29.872   1.503  0.1490  0.2550 -0.1310
    1W        W60855   9.110  27.032   8.164 -0.0273 -0.3096 -0.0663
    1W        W60856  22.544   3.322   1.359 -0.0157  0.0380  0.1590
    1W        W60857   8.204  29.157   0.937 -0.1168  0.4268 -0.5211
    1W        W60858   2.895   8.790   7.628  0.0085  0.1578 -0.0445
    1W        W60859  10.183   5.446   3.172  0.1851  0.0749 -0.0034
    1W        W60860   4.276  28.103   2.886 -0.0184 -0.1283  0.2068
    1W        W60861  29.520   4.708   8.257  0.0346 -0.2502  0.0051
    1W        W60862  17.781   5.825   8.923 -0.0013 -0.0505 -0.1874
    1W        W60863   0.032  15.011   8.572  0.0896  0.0488 -0.0488
    1W        W60864  29.288  16.766   6.652 -0.0495 -0.0677  0.2489
    1W        W60865  21.511  24.743   0.099  0.0775  0.1949  0.1795
    1W        W60866   6.063   8.674   8.736  0.2269 -0.1027 -0.0529
    1W        W60867  27.135  28.226   2.317 -0.1015  0.1289 -0.0333
    1W        W60868  23.819  15.493   7.038 -0.0475  0.4255  0.0857
    1W        W60869   9.856   0.653   7.796  0.0091  0.0435  0.0597
    1W        W60870  26.634  19.904   2.878 -0.0655  0.2330  0.0527
    1W        W60871  22.730   8.135   8.449 -0.0240  0.1490  0.0904
    1W        W60872  25.380  11.579   1.228  0.0021  0.0754  0.1407
    1W        W60873  17.786   3.409   2.527 -0.3978 -0.2527  0.0020
    1W        W60874   3.885  22.816   1.271 -0.0101  0.1578 -0.2389
    1W        W60875  16.364  29.790   0.404 -0.0851  0.0106  0.1817
    1W        W60876  29.809  20.566   8.176 -0.2676 -0.0902  0.0822
    1W        W60877  23.382  12.088   9.286  0.0620 -0.1451  0.4819
    1W        W60878   2.524  13.510   0.373  0.1129 -0.3683 -0.0827
    1W        W60879  17.680   0.575   2.259  0.0414  0.1735  0.1472
    1W        W60880   2.350   4.892   2.894 -0.1481  0.1207 -0.0803
    1W        W60881  11.740   0.403   8.517 -0.0902  0.2030  0.1402
    1W        W60882   5.187  18.279   8.160  0.1771 -0.0945  0.0599
    1W        W60883  11.301  28.047   3.282 -0.2926 -0.0107 -0.2318
    1W        W60884  18.114  18.568   2.180  0.2697  0.1609 -0.0030
    1W        W60885   4.845   0.518   0.341  0.0768 -0.0848  0.1777
    1W        W60886  13.318   9.673   8.017 -0.0831  0.1253 -0.6159
    1W        W60887   5.887   9.634   2.049 -0.1354  0.1640 -0.1784
    1W        W60888   6.392   5.195   9.083  0.3146 -0.0922  0.1906
    1W        W60889   2.888   6.966   1.675  0.1021 -0.1872  0.0363
    1W        W60890  25.463  19.588   9.092 -0.0937  0.1010  0.0297
    1W        W60891  15.978  27.269   7.148 -0.3272 -0.1690 -0.3222
    1W        W60892  14.775  29.237   9.373  0.0823 -0.2560  0.0376
    1W        W60893   6.993  29.553   6.571 -0.2195  0.0898  0.2645
    1W        W60894  18.412  16.621   8.184 -0.1480  0.1827  0.2890
    1W        W60895   2.721  22.970   8.089  0.1551  0.0776 -0.0657
    1W        W60896  18.629  17.819   9.026  0.3332  0.1439 -0.1431
    1W        W60897  17.108  24.604   1.539 -0.5789  0.1453  0.0729
    1W        W60898   3.872   3.170   8.894 -0.2033  0.3453  0.2606
    1W        W60899   1.505  13.184   1.118  0.2080  0.0399  0.3201
    1W        W60900  28.331   8.796   2.170  0.1820  0.1176  0.0228
    1W        W60901  26.403  10.578   9.044 -0.1701 -0.1662 -0.0791
    1W        W60902  10.390   4.575   0.078  0.0101  0.0702 -0.0465
    1W        W60903   3.990  20.160   7.237 -0.1041  0.2046  0.1858
    1W        W60904  23.116  17.788   7.721 -0.0801 -0.1507 -0.0100
    1W        W60905  20.471  22.665   2.293 -0.1084  0.0999  0.2120
    1W        W60906  23.577  23.121   6.964 -0.0333 -0.1085  0.0857
    1W        W60907  22.902   7.950   2.088  0.3621 -0.0207  0.2937
    1W        W60908  14.063   0.912   8.668  0.1703 -0.0352 -0.1170
    1W        W60909  26.692   1.020   2.289  0.4994 -0.3010 -0.0388
    1W        W60910   0.846   8.159   9.438  0.1119  0.0474 -0.1430
    1W        W60911   1.154  24.285   9.376  0.2116  0.0065 -0.0687
    1W        W60912  22.401  12.547   0.554 -0.1631 -0.0742  0.0402
    1W        W60913  29.576   0.648   8.680 -0.0236  0.0447  0.0701
    1W        W60914  10.300   6.939   2.679 -0.0947  0.0224  0.1509
    1W        W60915  21.999   6.262   7.096 -0.7576 -0.0514  0.0354
    1W        W60916  13.517  25.511   7.535  0.3982  0.2257 -0.1334
    1W        W60917   4.001   9.682   9.126  0.2240  0.1744 -0.1247
    1W        W60918  20.062   8.676   1.775 -0.0023  0.2091  0.0207
    1W        W60919  24.682  13.927   0.113  0.3736 -0.0806 -0.3651
    1W        W60920  10.374   1.705   1.199  0.1960  0.3080  0.0313
    1W        W60921  28.826  10.543   8.002  0.1660  0.2707  0.0695
    1W        W60922  16.940   8.937   0.413  0.2464 -0.0059 -0.1584
    1W        W60923   4.034  27.936   2.136  0.2540  0.2755  0.0088
    1W        W60924  24.643  28.383   8.751 -0.2064  0.2001 -0.0073
    1W        W60925   8.796  23.738   7.723  0.2924  0.2643  0.0616
    1W        W60926  21.496  12.524   0.222  0.2222 -0.2191 -0.2079
    1W        W60927  26.658  27.711   0.356  0.1532  0.2746  0.0088
    1W        W60928  29.580   2.994   2.600  0.3008  0.0204  0.0436
    1W        W60929   4.008  15.052   1.942 -0.0147 -0.2289  0.0924
    1W        W60930   0.919  21.936   6.958 -0.0771 -0.2450 -0.0132
    1W        W60931   1.823   5.687   0.978 -0.2735 -0.0352  0.0816
    1W        W60932   9.362  21.061   8.691 -0.2815  0.3571  0.1031
    1W        W60933  11.745  28.104   2.531 -0.1601  0.0685  0.1260
    1W        W60934  26.571  27.557   7.544  0.2208 -0.0531 -0.0593
    1W        W60935   9.355  25.753   8.167  0.1861  0.3190 -0.2261
    1W        W60936   5.337   3.626   6.962 -0.2274  0.1172  0.0241
    1W        W60937  20.792  23.591   0.341 -0.1825 -0.0483 -0.0360
    1W        W60938  12.149  25.600   1.857 -0.2263  0.0309  0.0568
    1W        W60939  25.986  28.119   9.133 -0.1435  0.1105 -0.1048
    1W        W60940   1.732   7.820   8.322 -0.2834 -0.2030 -0.0556
    1W        W60941  15.014  13.020   9.314 -0.0295 -0.1363  0.0313
    1W        W60942  19.606  15.794   6.968 -0.0822 -0.0738 -0.1089
    1W        W60943  28.114  18.967   3.105  0.0776 -0.0991  0.4270
    1W        W60944   4.379   7.015   2.875 -0.3456 -0.1160  0.2869
    1W        W60945  29.320   2.620   8.193  0.0351 -0.1275  0.1632
    1W        W60946  20.750   9.544   1.408  0.0945  0.1989  0.0948
    1W        W60947  18.884   8.775   7.358  0.1173  0.2099  0.1644
    1W        W60948  12.788  13.424   2.325  0.0466  0.1633  0.2811
    1W        W60949   1.905   7.417   7.533  0.3416  0.0618  0.1004
    1W        W60950   4.568  15.320   0.786 -0.1092 -0.1080  0.3716
    1W        W60951  29.616  23.119   6.792 -0.0460 -0.4053 -0.1069
    1W        W60952  10.262   7.869   0.785  0.1344  0.0981 -0.1816
    1W        W60953   8.299  12.851   1.239 -0.0350  0.0637 -0.1794
    1W        W60954  10.493   6.996   1.762 -0.0154  0.0671 -0.1212
    1W        W60955  21.203   0.215   1.699  0.2348 -0.2028 -0.0055
    1W        W60956  17.696  23.812   8.193 -0.0454  0.2959  0.1078
    1W        W60957  17.552  17.119   8.619 -0.1474  0.2293  0.0831
    1W        W60958  12.806   3.276   8.317  0.0016 -0.1487 -0.1590
    1W        W60959   8.023   0.936   8.060  0.0963  0.1408  0.2348
    1W        W60960  20.600   1.385   7.323 -0.2708  0.1478 -0.3365
    1W        W60961   6.992  10.335   1.325 -0.2360 -0.1020  0.3068
    1W        W60962  29.824  13.950   8.918  0.0138 -0.2419 -0.2025
    1W        W60963  14.916  29.225   0.427  0.2476 -0.1806 -0.3366
    1W        W60964  13.963  28.248   7.420  0.0180 -0.1733  0.1155
    1W        W60965   5.931  20.314   0.820  0.1204  0.2894  0.1250
    1W        W60966   1.670  27.728   9.041  0.2896  0.0358  0.2192
    1W        W60967   7.933  13.056   8.290  0.1244  0.0098 -0.0219
    1W        W60968  22.779  12.003   6.638  0.0716 -0.2725  0.2809
    1W        W60969  26.986  25.252   6.539 -0.0004  0.1204  0.1643
    1W        W60970  25.485  23.988   2.889 -0.0305 -0.0281  0.0391
    1W        W60971  14.957   1.885   0.032  0.2900 -0.1152 -0.2176
    1W        W60972  19.545   9.189   0.705 -0.0290  0.2690 -0.1986
    1W        W60973  23.671  11.586   7.402  0.0547 -0.0811 -0.0476
    1W        W60974   3.705  14.495   9.401  0.1546  0.0614 -0.1067
    1W        W60975  25.532  22.892   7.684 -0.1487 -0.0898  0.0744
    1W        W60976  10.643  21.224   8.364  0.0233  0.0215  0.0087
    1W        W60977   3.856   0.320   9.289 -0.0421  0.1432 -0.2146
    1W        W60978  17.400  15.824   0.366 -0.1938  0.0962 -0.2701
    1W        W60979   1.112  13.569   5.977 -0.1959 -0.1681 -0.0461
    1W        W60980   5.878  14.288   7.923  0.0802  0.1689 -0.0949
    1W        W60981  25.484  16.684   6.919  0.1229  0.1985  0.2206
    1W        W60982  10.277  14.432   0.726 -0.0335 -0.1524 -0.0191
    1W        W60983  22.619  27.632   2.632  0.3941 -0.0323 -0.1853
    1W        W60984  10.769  17.226   7.552  0.1436 -0.1777 -0.1008
    1W        W60985   6.805  24.216   2.150  0.1207  0.2109  0.1404
    1W        W60986   6.916  18.868   8.818  0.1295 -0.1521  0.0135
    1W        W60987  20.262  26.263   7.781 -0.2030  0.3734  0.0516
    1W        W60988  18.583   9.411   0.601 -0.0176 -0.3122  0.0727
    1W        W60989  24.098  22.835   9.119  0.1338  0.2338  0.4097
    1W        W60990  17.106  13.015   1.339  0.3608  0.2793  0.1076
    1W        W60991  29.579  29.185   8.113  0.2510 -0.0032 -0.0008
    1W        W60992   8.842  28.135   1.956  0.4599 -0.2502  0.0420
    1W        W60993   2.616  22.209   1.517 -0.1482 -0.0561  0.2606
    1W        W60994  15.532  18.039   7.342  0.0791 -0.0893  0.0808
    1W        W60995  23.145   7.172   2.587 -0.2257 -0.2042 -0.2577
    1W        W60996  24.051  15.319   8.545  0.2482 -0.0526  0.1960
    1W        W60997   3.527  21.452   9.256 -0.2431 -0.1084 -0.2307
    1W        W60998  22.252  21.072   2.501 -0.2064 -0.2931  0.0769
    1W        W60999  19.162   8.008   7.852 -0.2259 -0.1408 -0.1075
    1W        W61000   1.737  13.048   8.686 -0.2631  0.3582  0.3266
    1W        W61001  23.695   9.118   8.713 -0.4405  0.1565  0.1171
    1W        W61002   0.441   5.802   6.268  0.0176 -0.0702  0.1196
    1W        W61003  26.573  21.139   1.582 -0.0929 -0.3155 -0.2517
    1W        W61004   0.896   6.896   1.519  0.2091  0.2856  0.2139
    1W        W61005  13.543  24.850   1.430  0.1237 -0.1830  0.1220
    1W        W61006  20.576  17.076   9.300 -0.1041  0.2249  0.0148
    1W        W61007  11.554  18.272   1.731 -0.0987  0.0823  0.0862
    1W        W61008   3.824  17.538   5.621  0.0586 -0.0245  0.3335
    1W        W61009  11.849  13.417   1.200  0.1158 -0.1101  0.0770
    1W        W61010  10.910   4.167   7.042  0.0041  0.2088 -0.1602
    1W        W61011   5.927   3.983   8.681 -0.1014 -0.2244 -0.2366
    1W        W61012  10.385  13.952   8.636  0.4139 -0.0845 -0.0976
    1W        W61013  19.499   7.678   8.278 -0.4561 -0.1520  0.0852
    1W        W61014   1.473  18.676   7.898 -0.2350 -0.3103 -0.0045
    1W        W61015  24.358   3.140   1.197 -0.0383  0.1513  0.1046
    1W        W61016  23.003  25.071   8.395 -0.0026  0.0388 -0.1422
    1W        W61017  20.445  22.991   8.259  0.0668 -0.1079 -0.0180
    1W        W61018   4.926  10.422   9.299 -0.0637  0.0479 -0.2175
    1W        W61019   0.643  11.953   2.771 -0.0274  0.2159 -0.1237
    1W        W61020  26.833  19.711   0.638 -0.0906 -0.1719 -0.2090
    1W        W61021   0.522  22.390   6.087  0.1045  0.0375 -0.0452
    1W        W61022   8.347   7.666   9.114  0.1735  0.3249 -0.0100
    1W        W61023   0.120  17.428   0.604 -0.0152 -0.0356  0.0917
    1W        W61024  16.268  13.630   0.277  0.2656  0.1335  0.2265
    1W        W61025  27.522  13.031   8.657 -0.0391  0.1004 -0.1055
    1W        W61026  24.354   7.522   2.252 -0.0727 -0.1021  0.1828
    1W        W61027  28.094  15.280   0.743 -0.0017 -0.0119 -0.1352
    1W        W61028   9.615  15.075   9.370 -0.1051  0.2624  0.0183
    1W        W61029   8.142  12.114   0.480 -0.0359  0.2111 -0.2564
    1W        W61030   9.426  28.816   8.643 -0.0908  0.3221 -0.2101
    1W        W61031  28.251  24.123   8.036 -0.0280 -0.0293 -0.0375
    1W        W61032  23.371  22.369   2.371 -0.1632  0.3561  0.0070
    1W        W61033  28.095   9.417   6.717  0.2423 -0.3209 -0.2079
    1W        W61034  10.155   2.442   8.836  0.2194 -0.2609  0.0319
    1W        W61035  13.712  16.526   8.882  0.2773 -0.1171 -0.2385
    1W        W61036   0.005  11.384   1.778  0.1454 -0.3230 -0.1536
    1W        W61037  11.296   7.766   7.864  0.1183 -0.1818  0.0358
    1W        W61038  18.482  28.376   1.348 -0.0890  0.2247 -0.3006
    1W        W61039  28.071  13.781   9.458 -0.2664  0.0433  0.5345
    1W        W61040   4.148  16.955   1.019 -0.1497 -0.0038  0.1653
    1W        W61041  14.869   3.737   8.074 -0.2342  0.0943 -0.1918
    1W        W61042   2.198   5.362   0.948  0.1607 -0.3996 -0.0724
    1W        W61043   2.049  22.278   6.294  0.0127 -0.1813  0.2955
    1W        W61044  22.818  23.083   8.194  0.1978 -0.2066 -0.0619
    1W        W61045  17.708  26.054   1.226 -0.0782 -0.3693  0.0244
    1W        W61046  25.205  27.362   1.628 -0.0720 -0.1379 -0.4895
    1W        W61047   3.311   0.995   7.202 -0.1552  0.0758  0.0724
    1W        W61048   2.989  28.071   9.307 -0.2942 -0.0281  0.3259
    1W        W61049   1.362  28.643   6.697  0.0098  0.3025 -0.2454
    1W        W61050  10.011  16.073   2.483  0.1242  0.0915  0.0930
    1W        W61051  26.034  25.894   6.490 -0.1335  0.2817  0.1928
    1W        W61052   4.333   7.865   7.749  0.1100 -0.1656  0.0646
    1W        W61053  14.112   4.562   8.735  0.2475  0.2070  0.0619
    1W        W61054  22.989  17.139   0.042  0.0072 -0.0701 -0.1824
    1W        W61055  23.592  26.574   6.415  0.3801 -0.2217 -0.0176
    1W        W61056   2.599  20.524   1.836 -0.3460 -0.3421  0.0872
    1W        W61057   3.051  22.232   7.757  0.0476 -0.1018  0.0595
    1W        W61058  26.938   5.206   0.086 -0.1276  0.0617  0.2295
    1W        W61059   0.278   8.654   6.873 -0.0309  0.0666  0.0336
    1W        W61060  24.541  11.074   1.995  0.2788  0.1493  0.0119
    1W        W61061   1.084  18.541   0.043  0.0331  0.3164 -0.1139
    1W        W61062  11.514  20.552   9.087  0.2130  0.2257 -0.0286
    1W        W61063   9.535  29.742   7.176 -0.1379 -0.0982  0.0725
    1W        W61064   9.544  22.426   1.205  0.2215 -0.1418  0.1914
    1W        W61065  18.843  25.156   7.467  0.2908 -0.2062 -0.0411
    1W        W61066  20.392   3.226   2.073 -0.0223 -0.0481  0.0335
    1W        W61067   7.053   1.092   0.577  0.5463  0.2775  0.0167
    1W        W61068  15.874  21.911   7.658  0.3324 -0.4579 -0.0613
    1W        W61069  14.037  18.576   8.205  0.0587  0.2719 -0.2046
    1W        W61070  28.114  14.208   5.787  0.2919  0.0718  0.0222
    1W        W61071  12.321  27.224   0.347  0.1853 -0.2311 -0.3225
    1W        W61072  28.786   6.073   9.075  0.0055 -0.1891 -0.4040
    1W        W61073   6.620  20.426   5.985 -0.0970 -0.2061 -0.2557
    1W        W61074   6.374  21.501   8.793  0.2113  0.0678  0.0288
    1W        W61075   4.658  12.021   7.320  0.2528  0.1450 -0.0438
    1W        W61076  22.409   3.269   8.359 -0.0133  0.0719 -0.0034
    1W        W61077  15.223   4.889   7.243  0.1885  0.0272 -0.0135
    1W        W61078  17.404  24.930   1.254 -0.2137  0.0363  0.1132
    1W        W61079  23.496  25.695   9.093 -0.1312  0.0455  0.2175
    1W        W61080   6.467  18.544   0.780 -0.2037 -0.2359  0.2152
    1W        W61081   9.579   1.053   7.738 -0.1827  0.2382 -0.1458
    1W        W61082  19.854   7.427   7.222  0.0335 -0.2264 -0.1662
    1W        W61083  19.469  20.599   7.196 -0.0295  0.0771  0.1227
    1W        W61084   4.640  16.693   0.105  0.0009  0.0096 -0.1547
    1W        W61085  19.274  27.571   7.147 -0.2921  0.0030 -0.1649
    1W        W61086  23.133   6.230   8.486 -0.1876 -0.3534  0.0653
    1W        W61087  24.246  26.360   7.297 -0.0964  0.0975 -0.2700
    1W        W61088   7.351   2.830   3.412 -0.1605  0.0563 -0.4804
    1W        W61089   0.864  10.912   9.168 -0.1611 -0.3066  0.0362
    1W        W61090  13.587  23.379   7.383 -0.1149  0.1411 -0.1562
    1W        W61091  13.256   1.950   1.867 -0.0740  0.1186 -0.0350
    1W        W61092  23.855   9.677   1.465  0.2443  0.1719 -0.0395
    1W        W61093   9.952  22.062   1.122 -0.2594  0.0418  0.1596
    1W        W61094  13.140  26.854   8.957  0.3194 -0.0274  0.2694
    1W        W61095   8.649  13.267   2.059 -0.1488  0.1118  0.0566
    1W        W61096  29.030  21.601   0.607 -0.1114  0.0574 -0.2122
    1W        W61097   5.726  10.462   6.075  0.1441  0.1065 -0.2249
    1W        W61098   5.640   4.689   3.560 -0.0378 -0.3010 -0.2437
    1W        W61099  22.591   7.759   9.128  0.1888 -0.1158 -0.2538
    1W        W61100  25.994   6.057   0.625 -0.2532  0.0212 -0.1349
    1W        W61101  15.562  16.185   1.538 -0.1527  0.0318 -0.0242
    1W        W61102   2.492  22.089   8.178 -0.0669 -0.1539 -0.0699
    1W        W61103   0.717  29.511   1.487  0.3878 -0.1132  0.0306
    1W        W61104   0.048   1.258   8.006 -0.1584  0.2107 -0.0491
    1W        W61105   5.026   3.464   6.561 -0.0199  0.0235 -0.0617
    1W        W61106  28.747  14.496   7.641 -0.1185 -0.2351 -0.0245
    1W        W61107  10.265   1.830   9.393  0.0418  0.2781  0.0181
    1W        W61108  18.366  19.149   1.076 -0.1110  0.0480 -0.2487
    1W        W61109   4.364   2.993   2.675 -0.2157  0.0239 -0.1235
    1W        W61110  11.166  14.443   1.167  0.3875 -0.3808  0.2420
    1W        W61111  27.072   0.700   2.587  0.0122  0.3909 -0.3454
    1W        W61112   1.595  19.642   6.460  0.1177 -0.1119 -0.2871
    1W        W61113  27.520   4.685   7.127  0.0382  0.3781 -0.0891
    1W        W61114  18.864   6.421   6.429  0.0273  0.1678  0.1672
    1W        W61115   5.122  29.670   0.138  0.1417  0.1482  0.0210
    1W        W61116  19.642   0.587   9.216 -0.0898 -0.0473 -0.0065
    1W        W61117   3.752  15.377   9.152  0.1438 -0.4007  0.2675
    1W        W61118   0.883   6.876   6.957  0.2149  0.2822 -0.3344
    1W        W61119  20.696   9.580   7.025  0.2111 -0.0767  0.3165
    1W        W61120  27.872   6.645   8.552  0.1795 -0.2207  0.0702
    1W        W61121  25.164  27.248   0.344  0.0036 -0.1090  0.4547
    1W        W61122   4.497  13.645   0.061 -0.1918 -0.2694 -0.0113
    1W        W61123  11.276  25.088   6.715  0.0567  0.1416  0.2187
    1W        W61124  15.251   9.011   7.262  0.2163  0.1977  0.0463
    1W        W61125  27.439  29.465   8.791 -0.0142  0.3052  0.1452
    1W        W61126  12.493   8.069   0.140 -0.1770  0.3353 -0.0207
    1W        W61127   8.553  15.757   1.097  0.2163  0.0640 -0.1708
    1W        W61128  29.042  18.311   6.279  0.0854 -0.2003  0.0755
    1W        W61129  19.271   1.386   2.615  0.0271  0.1096 -0.0672
    1W        W61130  26.014  12.202   1.628 -0.0669  0.3819 -0.1335
    1W        W61131  20.981  24.401   1.092  0.2186 -0.1634 -0.0812
    1W        W61132   0.415  11.125   2.016  0.0307  0.0782  0.0942
    1W        W61133   1.069   5.633   9.424 -0.1138  0.0741 -0.0685
    1W        W61134   5.574  23.130   6.379  0.4523  0.2450 -0.1511
    1W        W61135  10.640   4.090   2.551 -0.2228 -0.0359  0.0173
    1W        W61136  19.228  28.547   1.888 -0.4934  0.0080  0.1224
    1W        W61137  23.360  16.763   1.024  0.1234  0.0535  0.1474
    1W        W61138   3.358   9.418   8.639 -0.0353  0.2530 -0.2043
    1W        W61139   8.347   0.419   0.536  0.0849 -0.0821 -0.1901
    1W        W61140  25.854  16.957   8.842 -0.2565  0.1746 -0.0195
    1W        W61141  20.353  28.324   8.866 -0.0853 -0.0326 -0.0318
    1W        W61142  13.507  16.202   8.462 -0.0057 -0.1834  0.2574
    1W        W61143   0.154   9.534   0.714 -0.1545 -0.2017 -0.1335
    1W        W61144  16.510  22.296   1.259  0.0719 -0.3054 -0.2066
    1W        W61145  24.939  26.684   2.848 -0.3185 -0.0893 -0.2064
    1W        W61146  10.915  11.683   8.518 -0.1362  0.0039 -0.0339
    1W        W61147   5.110   8.160   7.571 -0.0036 -0.0068 -0.3203
    1W        W61148  15.273  18.350   7.842 -0.2218  0.3649  0.1076
    1W        W61149  20.283  16.507   9.108 -0.0175 -0.0988  0.1519
    1W        W61150  16.450  28.591   2.527  0.0257 -0.0926  0.0292
    1W        W61151  28.629  10.976   1.509  0.1036 -0.1533 -0.0066
    1W        W61152   8.160   1.355   7.688  0.0648  0.0880 -0.1297
    1W        W61153  16.713  24.232   7.031  0.3364 -0.0991 -0.1483
    1W        W61154  28.165   6.381   0.347 -0.0580  0.0379 -0.1325
    1W        W61155  12.419   2.374   2.547  0.0066  0.0735  0.0169
    1W        W61156   0.307  11.189   8.433  0.0096 -0.0400 -0.1742
    1W        W61157  28.213   2.204   6.159  0.0123  0.0728  0.0933
    1W        W61158   9.132   6.097   9.436  0.1807  0.0161 -0.0021
    1W        W61159  29.852  23.416   2.987  0.1174  0.0813  0.1248
    1W        W61160  22.938  17.576   1.429  0.2513  0.0029 -0.0704
    1W        W61161  29.183  19.023   6.858 -0.2866 -0.2620  0.2332
    1W        W61162   0.577  18.610   7.156 -0.2697 -0.1488 -0.2563
    1W        W61163  14.064  16.131   7.547  0.1631 -0.1299 -0.1767
    1W        W61164  25.952  14.455   3.006  0.1618 -0.1895 -0.2851
    1W        W61165  11.657  10.398   1.462  0.0997 -0.1563  0.1766
    1W        W61166  28.006   1.136   6.341 -0.0624  0.2715 -0.0879
    1W        W61167  24.050  14.165   1.265  0.2516 -0.1046  0.1858
    1W        W61168  16.850   5.108   8.842 -0.1137 -0.1309 -0.0485
    1W        W61169  26.454   5.573   9.443 -0.0904  0.0764 -0.0033
    1W        W61170   9.476  21.638   8.358 -0.0395 -0.2832  0.0904
    1W        W61171  23.849  22.821   7.212  0.1079  0.0015 -0.0116
    1W        W61172  10.308  12.869   1.138  0.0436 -0.1248 -0.2663
    1W        W61173   3.752  19.769   6.878 -0.2094  0.0379  0.1366
    1W        W61174   8.792  10.236   7.391 -0.0115  0.0913  0.2372
    1W        W61175  10.467   4.953   3.044 -0.0447 -0.0246 -0.1432
    1W        W61176   5.562  17.896   6.834 -0.2868 -0.0962  0.2412
    1W        W61177  10.666  28.598   8.099  0.2506 -0.2536 -0.0596
    1W        W61178   6.536  10.882   1.500  0.2132  0.1436  0.3694
    1W        W61179  23.384   5.918   6.889  0.4203 -0.1443  0.1080
    1W        W61180  13.324  16.899   1.083  0.1699 -0.1182  0.0598
    1W        W61181   0.138  11.532   0.035  0.1921  0.0429  0.2013
    1W        W61182  22.646   1.705   0.027 -0.1665 -0.5901 -0.3004
    1W        W61183   6.877  27.584   0.256 -0.1275 -0.1047  0.1040
    1W        W61184   6.490  10.994   8.515 -0.1105  0.0810 -0.0696
    1W        W61185   0.000   9.811   1.961  0.0412 -0.3729  0.1993
    1W        W61186  21.570  15.625   0.657 -0.0930 -0.3275  0.0393
    1W        W61187  26.401  26.516   3.427  0.0098  0.0397  0.1512
    1W        W61188   6.910  21.361   0.826 -0.2032 -0.1751  0.0284
    1W        W61189  13.303  21.292   9.331 -0.2350  0.3208  0.1019
    1W        W61190   3.242  15.382   6.778 -0.1014 -0.0479 -0.1005
    1W        W61191  22.914  14.955   7.875 -0.0324 -0.1318  0.1417
    1W        W61192  12.794  26.485   3.068  0.1212  0.0912 -0.1109
    1W        W61193   4.994  29.237   0.418  0.1698  0.2253  0.0489
    1W        W61194   5.239   9.685   9.410 -0.4927  0.1489 -0.2614
    1W        W61195  17.312  28.721   1.955 -0.1278 -0.1691  0.1005
    1W        W61196   3.911  19.481   1.347  0.1791  0.3068 -0.0667
    1W        W61197  12.450  17.645   1.474  0.0453  0.0443  0.0648
    1W        W61198  13.706   6.440   9.266 -0.1192  0.2697 -0.4757
    1W        W61199  10.735   5.376   1.310 -0.0696 -0.1837 -0.1073
    1W        W61200   0.527   6.922   2.080  0.3786  0.0434 -0.0392
    1W        W61201   7.199  29.376   2.362 -0.1510 -0.0179  0.1571
    1W        W61202   6.846   8.307   2.125  0.1622  0.2323 -0.0487
    1W        W61203  15.769  11.386   1.942  0.0066  0.0816  0.1414
    1W        W61204   1.398  19.158   8.823  0.0450  0.0915  0.1517
    1W        W61205   6.470  27.595   1.841  0.2960 -0.0099  0.1367
    1W        W61206   5.065  13.625   2.378 -0.0803 -0.0881 -0.0142
    1W        W61207  23.720  12.763   7.018 -0.1809  0.0679 -0.0358
    1W        W61208  21.192  18.317   1.646  0.2114  0.0115  0.1360
    1W        W61209  16.073  19.730   8.156 -0.1843 -0.1917  0.0532
    1W        W61210   9.376  27.006   9.322  0.1602  0.1165  0.0680
    1W        W61211  10.151   7.401   2.597 -0.1284  0.3459  0.2147
    1W        W61212  16.212  16.873   6.850 -0.0929 -0.1671  0.0019
    1W        W61213  26.473  25.682   8.824  0.0736 -0.1246  0.0651
    1W        W61214   8.728  12.842   2.273  0.1535 -0.1366  0.1616
    1W        W61215  23.083   6.172   8.983 -0.0465  0.0393 -0.1042
    1W        W61216  25.928   5.701   7.710  0.1623  0.1995 -0.0653
    1W        W61217  27.682  16.566   6.079 -0.0548  0.0843 -0.1402
    1W        W61218  24.753   5.073   7.711 -0.2532  0.1262  0.2061
    1W        W61219  13.257  14.244   1.619  0.1362 -0.4114 -0.1397
    1W        W61220  26.836   7.622   8.146 -0.0575  0.0007  0.1566
    1W        W61221  18.786  19.484   0.964 -0.4252 -0.1244 -0.2412
    1W        W61222  21.356  12.360   7.735  0.0889 -0.2953 -0.0316
    1W        W61223  16.247  26.299   3.033  0.3001  0.0490  0.0971
    1W        W61224  13.668  13.843   8.213 -0.1049  0.1300  0.0370
    1W        W61225  19.647   3.446   2.319  0.2086  0.1225  0.1895
    1W        W61226  28.898  24.140   0.129  0.0042  0.4115  0.2220
    1W        W61227  24.970   0.804   0.553 -0.1280  0.1694  0.2130
    1W        W61228   3.297  12.947   2.506  0.0286 -0.2175 -0.1533
    1W        W61229  13.710   3.667   8.737 -0.1483  0.1279  0.2091
    1W        W61230  13.274  14.135   8.202 -0.0019  0.0334 -0.1608
    1W        W61231   9.141  14.024   6.469  0.2071  0.2148 -0.0184
    1W        W61232  10.005  21.248   6.390 -0.1367 -0.0723  0.0610
    1W        W61233   6.290  29.893   9.188  0.1293 -0.2514 -0.0785
    1W        W61234   2.125   4.551   7.490  0.0470 -0.0165 -0.4655
    1W        W61235  20.736  16.512   0.467  0.1882 -0.2378  0.0214
    1W        W61236  15.144   2.709   8.085  0.1244  0.0383  0.1357
    1W        W61237  23.806   1.164   7.446 -0.0523 -0.0134  0.2896
    1W        W61238  29.003   3.323   7.361 -0.0969 -0.0165  0.5142
    1W        W61239   4.538  20.135   1.235 -0.0654 -0.1573 -0.0585
    1W        W61240  28.286  15.945   8.386  0.1361 -0.1702  0.1329
    1W        W61241   1.909  13.213   8.250 -0.1375 -0.1923 -0.3084
    1W        W61242  19.870  19.384   7.520 -0.3418 -0.0504 -0.2600
    1W        W61243  24.199   1.185   2.577 -0.0315 -0.1438 -0.3182
    1W        W61244  18.553  18.925   2.244  0.3895 -0.1180  0.3535
    1W        W61245   9.346  13.101   1.762 -0.0659  0.1663  0.2089
    1W        W61246   7.860  18.696   7.122  0.0713 -0.4223 -0.0251
    1W        W61247  22.397  12.318   9.365  0.1052  0.1649 -0.0178
    1W        W61248  19.007  19.634   7.222 -0.2133 -0.0155  0.1066
    1W        W61249  13.807   2.934   0.801 -0.1591  0.0337 -0.0407
    1W        W61250  14.220   3.073   8.074 -0.0259 -0.2048 -0.0595
    1W        W61251  23.379   9.037   2.105  0.0618 -0.0343 -0.2329
    1W        W61252   4.193   5.255   7.301 -0.0655 -0.1613 -0.1470
    1W        W61253  12.826  12.331   0.680 -0.0990  0.0559  0.1797
    1W        W61254  22.241  26.302   0.273 -0.0295 -0.1413 -0.0027
    1W        W61255  10.706  26.622   0.390  0.0480 -0.2324  0.0689
    1W        W61256   8.781  12.298   8.224  0.2738 -0.1553 -0.0863
    1W        W61257   9.566   3.253   7.855  0.2543 -0.0644 -0.2389
    1W        W61258  27.855   8.836   9.276  0.3346  0.3043 -0.0979
    1W        W61259   2.839  10.582   9.207  0.0474  0.0348 -0.2845
    1W        W61260  16.939  11.092   0.868  0.2023  0.1202  0.4555
    1W        W61261  22.925  22.418   3.988 -0.1717  0.0889  0.0718
    1W        W61262   6.488  25.491   2.146  0.1977 -0.0468 -0.1233
    1W        W61263  22.659  29.662   0.385  0.0228 -0.2189  0.0135
    1W        W61264  11.467  25.370   0.549  0.1851  0.3284 -0.3364
    1W        W61265  28.026  25.463   3.264 -0.1865 -0.1182  0.1728
    1W        W61266  11.505  22.130   7.106  0.2272 -0.2201  0.0788
    1W        W61267   4.125  27.781   1.419 -0.2929 -0.3886  0.1996
    1W        W61268   4.029  15.274   1.164  0.0062 -0.2708 -0.0884
    1W        W61269  14.374  11.907   9.031 -0.3488 -0.1460  0.0554
    1W        W61270  17.770  23.327   8.295  0.1486 -0.0817  0.2244
    1W        W61271  11.976  27.090   2.698  0.0216  0.1201  0.0342
    1W        W61272   9.524  12.788   0.531 -0.1701  0.0668  0.2997
    1W        W61273  13.839  16.396   1.672  0.1665 -0.1866  0.0468
    1W        W61274  25.021   4.484   3.216  0.2855  0.1942  0.1186
    1W        W61275  25.878   9.835   9.141 -0.0336 -0.0819 -0.0695
    1W        W61276  10.234  29.257   1.806 -0.0542  0.0866  0.2122
    1W        W61277  11.500  19.578   1.594  0.0923  0.1802  0.1578
    1W        W61278  29.330  11.886   2.217 -0.1528 -0.0275  0.0135
    1W        W61279   3.856  23.487   6.784  0.2913  0.0561 -0.1792
    1W        W61280  10.158  12.995   8.797 -0.1289  0.0167  0.0072
    1W        W61281   3.442  19.707   6.329 -0.1593  0.1859 -0.2032
    1W        W61282   0.726   1.490   8.016 -0.2781  0.0938  0.1012
    1W        W61283   0.739  29.214   7.196 -0.1397 -0.0465  0.1109
    1W        W61284  16.967  22.213   1.081  0.1776 -0.0237  0.4192
    1W        W61285   9.523   8.668   2.868  0.1758 -0.0528 -0.2317
    1W        W61286  26.175  26.798   7.822  0.0602 -0.0083  0.0794
    1W        W61287  11.799  24.669   5.778  0.1749 -0.2361  0.1595
    1W        W61288   4.788  22.465   0.539  0.1881  0.1255 -0.2798
    1W        W61289  16.520   0.035   9.373  0.0677  0.1150 -0.4268
    1W        W61290   7.707  29.820   1.033 -0.0631 -0.0689 -0.3043
    1W        W61291  10.666  12.576   1.746 -0.0421 -0.0840 -0.0692
    1W        W61292   7.487  16.606   1.298  0.1042  0.2729  0.0440
    1W        W61293  28.178  15.478   8.247 -0.0127 -0.1154  0.0701
    1W        W61294  18.563  23.051   7.675 -0.1186  0.0394  0.3327
    1W        W61295   6.805  10.483   2.333  0.2288 -0.1455 -0.0315
    1W        W61296  25.368  10.120   7.738 -0.0992 -0.1153 -0.3320
    1W        W61297   4.959   8.466   2.431  0.1115 -0.2644 -0.1817
    1W        W61298  24.092  10.825   6.631  0.1859 -0.2612 -0.2218
    1W        W61299  20.228  27.133   7.364 -0.3574  0.0657 -0.2842
    1W        W61300  27.334  10.620   0.183 -0.0878  0.2735  0.2596
    1W        W61301   0.040  12.223   7.500 -0.3458  0.0623  0.0182
    1W        W61302  16.793   6.439   0.211 -0.2330  0.1571 -0.0191
    1W        W61303  17.506  28.377   3.517 -0.1474 -0.0767 -0.1779
    1W        W61304  21.018  14.110   7.092 -0.2131  0.3199  0.0702
    1W        W61305  10.454  26.056   6.658 -0.0563  0.0454  0.2750
    1W        W61306   2.429   7.936   1.410  0.4776 -0.0142  0.0343
    1W        W61307  20.035   4.940   1.607  0.0365  0.1189 -0.1886
    1W        W61308  22.764  11.667   2.439 -0.1001 -0.3639 -0.2814
    1W        W61309  26.540  18.668   1.775  0.1679  0.1457  0.2769
    1W        W61310  20.580  21.154   2.574  0.1419 -0.0068  0.0053
    1W        W61311   7.810  20.609   5.958  0.0605 -0.0054 -0.1107
    1W        W61312  14.053  24.082   0.944  0.0602 -0.1988  0.3312
    1W        W61313  20.666   4.016   7.782  0.0405 -0.1232  0.2190
    1W        W61314   0.248   1.713   0.041  0.3130 -0.0973  0.1008
    1W        W61315  18.277  14.293   2.023 -0.0172 -0.2954 -0.0889
    1W        W61316   6.010  23.353   6.269 -0.2863  0.0297  0.2188
    1W        W61317  13.300  11.564   8.289 -0.3195 -0.2649 -0.3089
    1W        W61318   7.933  12.947   1.615  0.1366 -0.1046  0.0846
    1W        W61319  18.160  25.963   3.954 -0.1102  0.0969  0.3739
    1W        W61320  14.164  14.315   7.549 -0.0178 -0.0064 -0.1004
    1W        W61321  26.647  16.184   8.340  0.0629  0.2820 -0.1973
    1W        W61322   4.229   3.786   1.846 -0.0478 -0.2785 -0.1644
    1W        W61323  12.844  23.978   2.231 -0.0688 -0.1898  0.4522
    1W        W61324   9.019   8.162   3.688  0.1389 -0.0855 -0.1399
    1W        W61325  14.108  13.839   7.424  0.4400 -0.0943  0.2281
    1W        W61326  24.659   5.547   2.237  0.1347  0.2128  0.1351
    1W        W61327  13.610  16.858   7.887  0.2389  0.0433  0.0536
    1W        W61328  21.564   6.527   7.085 -0.0528 -0.1132  0.0558
    1W        W61329   9.526   5.132   3.784 -0.0779 -0.0419 -0.2195
    1W        W61330   9.797  14.132   9.412 -0.1218 -0.1280 -0.2960
    1W        W61331  24.549  14.793   0.936  0.0570  0.1420 -0.1703
    1W        W61332  29.532  14.929   1.497 -0.1153  0.0059  0.0608
    1W        W61333  20.163  10.921   0.086 -0.0854  0.1705 -0.0905
    1W        W61334   4.377  12.889   8.981  0.1384  0.1574  0.3061
    1W        W61335  14.847  20.887   2.317  0.2655 -0.0992  0.0727
    1W        W61336   0.163   9.996   2.714 -0.0429 -0.2915  0.0884
    1W        W61337   9.498   9.776   8.593  0.2238 -0.0408 -0.0745
    1W        W61338   4.207  22.583   6.930  0.2894  0.1119  0.1900
    1W        W61339  24.520   0.356   7.678 -0.2938 -0.0203  0.2083
    1W        W61340  14.824  10.733   0.637 -0.0872  0.1353  0.3330
    1W        W61341   9.045  16.566   7.573  0.1774  0.0933  0.0757
    1W        W61342  22.420  23.971   8.634  0.1003 -0.2185 -0.0562
    1W        W61343  13.657   0.461   0.245 -0.2491  0.1563  0.2277
    1W        W61344  29.154  22.561   6.531 -0.3612  0.1842 -0.2228
    1W        W61345  18.598  15.465   0.019  0.5479  0.0865 -0.0969
    1W        W61346   6.861   5.348   7.466  0.1503 -0.0388 -0.1716
    1W        W61347  10.919   5.369   8.035  0.1579 -0.1591 -0.0606
    1W        W61348   3.042  20.157   7.673  0.1801  0.1157  0.0005
    1W        W61349   2.984   9.922   0.827 -0.3662  0.0072 -0.2051
    1W        W61350  19.450   6.574   7.166  0.1104  0.4344 -0.1214
    1W        W61351   8.556  14.403   7.747 -0.1589 -0.0250 -0.2453
    1W        W61352  28.350  22.716   9.250  0.2273 -0.0409  0.0111
    1W        W61353  10.571  15.719   1.804  0.1071  0.0090  0.2415
    1W        W61354   6.808  12.819   0.512 -0.3949 -0.0754  0.2451
    1W        W61355  10.610  27.877   0.150  0.2142 -0.1410 -0.1411
    1W        W61356  18.498  25.054   0.349 -0.0086  0.0554  0.1496
    1W        W61357  24.668  29.212   7.484 -0.0376  0.1101 -0.2492
    1W        W61358  24.687   1.842   8.845  0.0349  0.2398 -0.0011
    1W        W61359  18.312  12.011   0.839 -0.3048  0.3394  0.2119
    1W        W61360  17.184  15.761   8.425 -0.0635  0.1606 -0.1462
    1W        W61361  15.656   8.559   2.151  0.1161 -0.1467 -0.0805
    1W        W61362   7.266  27.185   2.542  0.0642  0.2077 -0.0559
    1W        W61363  19.581  18.192   1.290 -0.0482 -0.0937 -0.0750
    1W        W61364  14.307  29.507   8.262 -0.1607 -0.1942 -0.3384
    1W        W61365  20.251  18.188   2.580 -0.2001 -0.1656 -0.2112
    1W        W61366  20.403   2.638   9.052 -0.1226  0.2939  0.0471
    1W        W61367  24.784  17.622   8.679  0.2239  0.0414  0.0392
    1W        W61368  27.048  29.131   2.718  0.0137 -0.2074 -0.2118
    1W        W61369  25.500  29.280   7.911 -0.0120 -0.2232 -0.1892
    1W        W61370   7.886  25.385   7.061  0.1317  0.2847 -0.0636
    1W        W61371  14.484  18.300   7.330  0.1160  0.0076  0.0395
    1W        W61372   0.451  21.747   2.266 -0.2593  0.1573  0.3306
    1W        W61373  20.612  19.249   0.152 -0.0894 -0.2833 -0.1490
    1W        W61374   9.843   4.537   0.720 -0.2754  0.2668  0.0145
    1W        W61375  11.257  29.449   7.278  0.0177  0.1266 -0.0515
    1W        W61376   9.697  19.038   0.032 -0.0700  0.1547  0.0295
    1W        W61377   7.919  21.606   1.458 -0.0719  0.1574 -0.0970
    1W        W61378  27.238   8.692   7.241 -0.1120 -0.1478 -0.1733
    1W        W61379   8.272   2.627   1.860 -0.1449 -0.4043 -0.0903
    1W        W61380  24.933   4.558   2.435  0.0109  0.1427 -0.0696
    1W        W61381  25.250  19.961   0.178 -0.2072 -0.0212 -0.7464
    1W        W61382   4.553  18.250   6.532 -0.0028 -0.0768  0.1004
    1W        W61383  21.564   6.807   1.845  0.1229  0.2444 -0.0529
    1W        W61384  28.326   2.305   0.628 -0.1082 -0.3106 -0.1249
    1W        W61385  18.925   5.439   0.817 -0.1099 -0.2746 -0.0858
    1W        W61386  12.156   4.195   3.160 -0.3460  0.0875  0.3371
    1W        W61387  29.580   7.105   2.146 -0.1575  0.0821 -0.2206
    1W        W61388  22.410   7.680   2.775 -0.0004  0.0441 -0.1150
    1W        W61389   5.036   9.835   9.010  0.1450 -0.0545  0.1490
    1W        W61390   8.205  28.212   7.867  0.2345 -0.2897  0.0923
    1W        W61391  17.640   4.535   8.196  0.0651 -0.0428 -0.0320
    1W        W61392  15.234   6.876   9.462 -0.1272 -0.0454  0.0457
    1W        W61393   7.243  10.607   2.105 -0.1176  0.1611  0.2137
    1W        W61394  11.507  13.341   1.607 -0.0703  0.1341  0.0233
    1W        W61395  20.400   7.351   7.379  0.0110 -0.3433 -0.1273
    1W        W61396  13.079  16.871   8.321  0.0973 -0.0971  0.0156
    1W        W61397  18.691  19.643   8.300  0.1522  0.2575 -0.2533
    1W        W61398  17.279  26.965   8.577 -0.3371  0.0851 -0.2563
    1W        W61399  26.004   1.047   3.458  0.2993 -0.1423 -0.2024
    1W        W61400  16.779   4.727   9.284 -0.1899 -0.0424  0.3286
    1W        W61401  28.342  27.017   8.254  0.1419 -0.1615 -0.2879
    1W        W61402  20.840  15.760   8.280  0.0086 -0.1224 -0.1323
    1W        W61403  23.558  23.680   7.334 -0.0660  0.2774 -0.2770
    1W        W61404   3.158  14.853   0.835 -0.2469 -0.1125  0.0487
    1W        W61405  14.118  25.972   6.920 -0.1021 -0.2790 -0.1031
    1W        W61406   8.307  20.572   6.790  0.1427  0.1136  0.0344
    1W        W61407  14.640   1.250   0.640 -0.2901 -0.0308 -0.3597
    1W        W61408  11.910  15.378   1.232 -0.1233 -0.0197  0.3238
    1W        W61409  11.913   6.380   9.174  0.2548 -0.2670 -0.2483
    1W        W61410  10.132   5.178   2.150  0.0159 -0.2472  0.3275
    1W        W61411  13.729   8.519   7.867  0.2084  0.1044  0.0970
    1W        W61412   3.079  11.844   3.323 -0.0731  0.1712  0.0731
    1W        W61413  19.996  28.860   1.157 -0.1026 -0.2679  0.1706
    1W        W61414   8.038  27.397   6.103 -0.4924  0.1385  0.1394
    1W        W61415  20.784  10.877   1.628 -0.2154  0.0414  0.0338
    1W        W61416  18.168  19.898   7.193 -0.0384  0.1149 -0.2063
    1W        W61417   1.752   3.629   7.782  0.0712  0.0083 -0.0893
    1W        W61418  20.217  15.059   1.133  0.2498 -0.2286 -0.3825
    1W        W61419  13.693   8.784   7.328 -0.2713 -0.1761 -0.1621
    1W        W61420  24.976  17.388   7.812  0.3468  0.4099 -0.2167
    1W        W61421  23.859  16.282   2.160 -0.0504 -0.3755 -0.0114
    1W        W61422   7.156  12.714   1.758 -0.1997 -0.0833 -0.1590
    1W        W61423  29.850  17.620   8.032 -0.1446  0.2910  0.3675
    1W        W61424  24.709  12.829   8.336 -0.0389 -0.0678 -0.0573
    1W        W61425  28.731   2.635   0.385  0.0021 -0.4596 -0.0397
    1W        W61426  28.101   6.953   0.762  0.0762  0.1882  0.1929
    1W        W61427   2.891  24.965   8.183  0.0508 -0.0373 -0.1000
    1W        W61428  19.148  21.036   1.471  0.1563  0.2069  0.0047
    1W        W61429  12.860   4.697   0.258  0.0730 -0.0008  0.1940
    1W        W61430  25.135  20.494   2.335  0.0547 -0.1541  0.0690
    1W        W61431  26.865  24.733   8.714 -0.4231 -0.0503 -0.1442
    1W        W61432   4.107  25.992   7.192  0.0206  0.1029  0.1729
    1W        W61433   2.648   1.990   6.835 -0.1472  0.0244  0.0991
    1W        W61434  22.424  25.766   6.638 -0.1332 -0.0329  0.2140
    1W        W61435   0.545  23.737   0.520 -0.0474  0.4082 -0.0296
    1W        W61436   9.175  25.419   6.818 -0.3323 -0.1223 -0.3449
    1W        W61437  25.112  13.102   1.136  0.0405  0.1533  0.0209
    1W        W61438  11.313  15.762   8.039  0.0950  0.0678 -0.0972
    1W        W61439  23.360  28.464   2.711 -0.0921  0.1438 -0.0605
    1W        W61440  19.698  12.677   2.046 -0.3962 -0.1733  0.0240
    1W        W61441  18.047  11.563   7.491  0.0365 -0.2172 -0.1555
    1W        W61442   2.412  27.134   1.702 -0.0607  0.1481 -0.1705
    1W        W61443   0.625  25.816   6.865 -0.0399  0.0277 -0.1268
    1W        W61444  17.355  21.582   0.398 -0.1206 -0.1358  0.1396
    1W        W61445   5.125  18.037   6.389  0.0297 -0.0940  0.0613
    1W        W61446  17.685   3.041   2.176 -0.1506 -0.1548 -0.0737
    1W        W61447  16.544  26.757   9.308 -0.1485  0.1370 -0.0799
    1W        W61448   4.746  15.311   2.257  0.1398 -0.1302  0.2358
    1W        W61449  27.710  27.682   8.691 -0.0666 -0.3907 -0.0291
    1W        W61450  24.000   3.757   7.564 -0.2802 -0.1383  0.2881
    1W        W61451  25.947  19.469   2.134  0.0586  0.2265 -0.1296
    1W        W61452  13.839   6.485   0.756  0.0887 -0.0724 -0.1524
    1W        W61453  25.684   9.388   1.194 -0.3899  0.1562 -0.2095
    1W        W61454  18.027  13.133   7.762  0.1986  0.2106  0.0104
    1W        W61455  15.147  20.577   1.161  0.1975 -0.1675 -0.2806
    1W        W61456  18.046   3.768   8.425  0.0403 -0.1313 -0.0440
    1W        W61457  25.054  24.739   6.850  0.1766 -0.1075 -0.0180
    1W        W61458   8.343  15.806   7.110  0.1691 -0.0140  0.2820
    1W        W61459   8.414   2.209   8.597 -0.0898 -0.1735  0.2747
    1W        W61460   7.795   2.359   7.849  0.2180 -0.0371  0.0153
    1W        W61461  15.299  27.463   7.709 -0.2983 -0.1714  0.1880
    1W        W61462  11.543  12.055   7.777 -0.1355 -0.5480  0.2337
    1W        W61463   9.734  12.804   0.972 -0.0226  0.3773 -0.0379
    1W        W61464  19.983  11.500   0.041 -0.0874 -0.0121 -0.2593
    1W        W61465  16.582  17.079   8.459  0.0188 -0.0422 -0.0708
    1W        W61466  20.695  13.681   7.932  0.0882  0.1915  0.2396
    1W        W61467  10.905   3.901   8.491  0.0935  0.1944 -0.3106
    1W        W61468  23.975   9.355   2.304  0.1849 -0.0017 -0.2161
    1W        W61469  27.398  29.010   7.247 -0.4311  0.0291 -0.2559
    1W        W61470  22.745   6.475   8.129  0.0195  0.0836 -0.1472
    1W        W61471   3.902   7.773   7.931  0.0575 -0.0160  0.4434
    1W        W61472  28.769  18.707   8.839  0.0889  0.2277  0.0451
    1W        W61473  13.782  29.557   8.088 -0.2261  0.2991 -0.2672
    1W        W61474  20.179   8.044   8.329  0.2174  0.0057  0.0542
    1W        W61475   9.266  24.331   8.715 -0.0702  0.1285 -0.0796
    1W        W61476   1.342   3.941   0.897  0.1187 -0.2921 -0.1239
    1W        W61477   7.870  12.076   8.276  0.2230 -0.0768 -0.1934
    1W        W61478  20.817  24.534   0.645 -0.0576 -0.2864 -0.0422
    1W        W61479   8.610  16.243   0.238  0.1311  0.1707 -0.4025
    1W        W61480   8.550   8.117   8.181  0.0267  0.0185 -0.3579
    1W        W61481   4.883  10.638   6.619 -0.0798 -0.2112  0.3972
    1W        W61482  15.990  23.747   6.937 -0.1973 -0.1464  0.1322
    1W        W61483  27.446  14.444   7.675  0.0651  0.1526  0.2652
    1W        W61484  24.021   7.012   8.242 -0.1351  0.0080 -0.1270
    1W        W61485   2.993   7.299   2.646 -0.2021  0.3113  0.2691
    1W        W61486   0.585  12.275   7.607  0.4199  0.0392  0.1853
    1W        W61487   0.281  29.797   1.530  0.1304  0.0236  0.1052
    1W        W61488  14.038  27.390   0.340  0.0782  0.0704  0.1464
    1W        W61489  11.737  17.379   7.498 -0.2614  0.0780  0.2246
    1W        W61490   4.674   3.263   8.368 -0.2035 -0.4184 -0.0700
    1W        W61491  27.502  12.859   2.111 -0.0327  0.0584 -0.2325
    1W        W61492  11.063  11.107   1.507 -0.1526 -0.1202 -0.1920
    1W        W61493   2.526  14.094   6.334  0.2343  0.2387 -0.0517
    1W        W61494  23.144  13.120   6.973  0.0420  0.4071 -0.0719
    1W        W61495  16.156   8.416   6.618 -0.2313 -0.3382  0.0541
    1W        W61496  21.628  24.365   9.069  0.0862 -0.2739 -0.0676
    1W        W61497   1.943  21.408   8.293  0.1602  0.3311 -0.3917
    1W        W61498  16.452  29.136   1.648  0.3974 -0.0742 -0.0777
    1W        W61499  23.442   4.395   6.889  0.2319  0.0225  0.1458
    1W        W61500  23.557  20.817   7.039  0.1751 -0.3063 -0.0450
    1W        W61501  22.544   8.710   3.150  0.0218 -0.0771 -0.1350
    1W        W61502  14.673   3.580   7.591 -0.2344 -0.0965 -0.2441
    1W        W61503  20.056  13.254   7.476  0.0226  0.2724  0.0402
    1W        W61504  15.728   0.853   8.072  0.3021  0.0452  0.0947
    1W        W61505  18.603  26.831   3.686 -0.3131 -0.1933  0.1749
    1W        W61506  14.338  18.005   9.267 -0.3197 -0.0515 -0.2370
    1W        W61507  21.208  17.551   1.975 -0.2491  0.1098  0.1205
    1W        W61508   3.786  28.740   1.955 -0.0678 -0.1195 -0.0686
    1W        W61509   0.718  29.217   9.170 -0.0709 -0.1373 -0.0738
    1W        W61510  25.314  17.779   8.578 -0.1264 -0.0434 -0.1777
    1W        W61511   1.924  13.025   2.275 -0.0127 -0.2931  0.0049
    1W        W61512  17.872   6.252   9.138  0.1525  0.4759  0.1421
    1W        W61513  28.356  29.396   0.417 -0.1674  0.1848  0.1148
    1W        W61514   2.874   8.786   0.954  0.0110 -0.2449  0.1537
    1W        W61515  26.789  24.176   2.247  0.1103  0.1935 -0.2581
    1W        W61516  23.038  29.639   0.929  0.0946 -0.1267  0.3284
    1W        W61517   2.921   0.264   7.662 -0.0392  0.1599  0.1478
    1W        W61518   2.353  16.612   8.602  0.0167  0.0081  0.3323
    1W        W61519  15.535   6.105   8.215 -0.1331 -0.0786 -0.0078
    1W        W61520  19.539   2.609   7.610  0.1624 -0.1831  0.2551
    1W        W61521   5.014  16.969   2.749  0.2980  0.1185 -0.3353
    1W        W61522  15.033  14.136   0.712  0.2258 -0.3112  0.2918
    1W        W61523   2.078   2.958   7.415 -0.0331  0.2654  0.1713
    1W        W61524  10.453  13.827   2.486  0.1397  0.1956  0.0646
    1W        W61525  26.750   7.762   0.049  0.4593 -0.0296 -0.0823
    1W        W61526  16.810   9.197   8.910  0.0229  0.0927 -0.1034
    1W        W61527   4.240   9.886   7.115 -0.1878  0.2308 -0.1577
    1W        W61528  12.650  18.552   9.325  0.4712  0.1144  0.1046
    1W        W61529   1.860   9.195   7.775 -0.0105  0.1360 -0.2309
    1W        W61530   8.913  25.671   0.591  0.2584 -0.0933 -0.0797
    1W        W61531  28.891   1.447   7.630  0.2960 -0.2409  0.2071
    1W        W61532   6.681   3.607   1.587 -0.0254  0.0360 -0.1806
    1W        W61533  15.546  28.609   7.445  0.0925 -0.1962  0.0361
    1W        W61534  27.995  19.528   1.608  0.0680  0.2514  0.0310
    1W        W61535   0.522  10.595   1.978  0.0081 -0.0444 -0.2812
    1W        W61536   2.112   2.412   7.240  0.0820 -0.4450  0.3135
    1W        W61537  13.233   0.651   1.762  0.0796 -0.0215 -0.1636
    1W        W61538  18.043  22.313   3.117  0.1835 -0.1457 -0.0651
    1W        W61539  13.969   1.845   7.474  0.0757  0.2360  0.0653
    1W        W61540   5.095   3.122   0.477 -0.0729  0.1559  0.1196
    1W        W61541  26.068   4.893   7.583 -0.1187 -0.1724 -0.0490
    1W        W61542  20.771  22.922   1.075 -0.2165  0.2718  0.1568
    1W        W61543  20.920  25.629   1.137  0.0402  0.1175  0.1197
    1W        W61544   4.943   4.729   6.666  0.1797  0.0104 -0.1415
    1W        W61545  13.689   5.095   1.813  0.1279  0.2810 -0.3084
    1W        W61546  19.312  11.347   6.712  0.0983 -0.0230  0.1749
    1W        W61547   1.721  20.518   6.573 -0.1134 -0.0778 -0.0323
    1W        W61548   9.038  16.982   7.268 -0.2068 -0.2640 -0.1627
    1W        W61549  28.631  15.141   0.849 -0.1198  0.2166 -0.1041
    1W        W61550  20.895  12.105   9.166 -0.0276 -0.2170  0.1800
    1W        W61551   4.476   6.237   2.227 -0.2644 -0.0778  0.1605
    1W        W61552  21.140  20.356   2.317  0.1336  0.2211  0.1972
    1W        W61553   1.682  25.191   7.943  0.2078 -0.3008 -0.0844
    1W        W61554  24.797  26.165   2.782 -0.0233  0.0914 -0.0738
    1W        W61555   9.466  21.955   0.907  0.0039 -0.1419 -0.1491
    1W        W61556   5.837   4.662   1.242 -0.2284  0.1575  0.0463
    1W        W61557   8.107  27.688   2.176  0.0803  0.3741  0.0513
    1W        W61558   1.953  21.626   1.645 -0.3741  0.1773 -0.2138
    1W        W61559  26.720  26.467   7.520 -0.2117  0.1430  0.3376
    1W        W61560  17.590   8.644   0.437  0.0053  0.0219 -0.0444
    1W        W61561  23.108  18.960   7.281  0.1284 -0.1201  0.1123
    1W        W61562   0.145  16.542   8.180  0.0646  0.3232 -0.2391
    1W        W61563  10.605   6.844   0.351 -0.2582  0.1871 -0.2132
    1W        W61564  13.924  12.532   9.409  0.0392 -0.1544  0.3673
    1W        W61565  10.531  24.145   7.792 -0.0608 -0.0188  0.2978
    1W        W61566  16.516  13.811   7.798  0.1248 -0.3129 -0.3357
    1W        W61567  21.583  14.888   0.071  0.1263  0.0997  0.1256
    1W        W61568   9.605  15.083   1.189 -0.1339  0.2880  0.0904
    1W        W61569   6.854   2.968   6.828  0.1246  0.3791  0.1205
    1W        W61570   4.708   9.094   9.417  0.0105 -0.1350 -0.1069
    1W        W61571   2.286   8.446   0.320 -0.1675  0.0301 -0.0351
    1W        W61572   4.886   7.440   1.995  0.3763  0.2773 -0.1257
    1W        W61573   1.500  28.420   8.629 -0.0666 -0.2518  0.0453
    1W        W61574  25.661  27.932   8.633  0.0906 -0.0416 -0.2032
    1W        W61575  25.977   5.084   0.757 -0.3074 -0.1215 -0.0051
    1W        W61576  26.124   7.099   9.350 -0.2398  0.3397 -0.0368
    1W        W61577  13.056  28.884   0.307  0.1721  0.1292  0.1406
    1W        W61578  13.898   6.595   2.906  0.0591 -0.1681 -0.1438
    1W        W61579  28.384  25.095   2.521 -0.1228  0.1060  0.0440
    1W        W61580   5.446  10.498   0.872 -0.1464 -0.1555  0.0031
    1W        W61581  17.765  14.866   7.038 -0.2234  0.0712 -0.2388
    1W        W61582   0.785   0.618   1.307  0.5320  0.0216  0.4026
    1W        W61583  18.483   1.192   0.150  0.0992 -0.2589 -0.1788
    1W        W61584  18.970  10.094   7.064  0.4730  0.0417  0.0949
    1W        W61585  16.318   3.224   6.143  0.0748  0.0736 -0.1794
    1W        W61586  25.036  23.973   2.726 -0.0969  0.1033 -0.0736
    1W        W61587  11.741   5.892   9.188 -0.0433 -0.2183 -0.2675
    1W        W61588  27.676  20.296   7.554 -0.1889 -0.2925 -0.1166
    1W        W61589   8.563  20.068   0.037 -0.2223  0.2347 -0.0896
    1W        W61590   4.110  23.798   2.379  0.0060  0.0623 -0.2797
    1W        W61591  19.564  29.786   0.089 -0.1967 -0.0212 -0.2340
    1W        W61592  23.170  24.167   2.227 -0.2962 -0.0689 -0.1488
    1W        W61593  13.875  20.062   1.206  0.0470  0.0803 -0.1760
    1W        W61594   7.417   6.159   7.697  0.3799 -0.2670  0.2690
    1W        W61595  27.214  12.660   8.838 -0.0165  0.0520 -0.3022
    1W        W61596   3.805  13.715   0.641 -0.0769  0.0307 -0.2119
    1W        W61597   4.120  29.750   5.887 -0.1100 -0.1339  0.1845
    1W        W61598   2.150   3.328   7.752 -0.0718 -0.0984  0.0054
    1W        W61599  26.554  27.657   6.976  0.0606 -0.0425 -0.1749
    1W        W61600  29.023  14.989   2.257 -0.1128  0.1319 -0.1029
    1W        W61601   1.024  13.412   8.604 -0.1464 -0.1160 -0.0041
    1W        W61602   8.509  21.715   1.129 -0.0147 -0.0146 -0.1763
    1W        W61603  29.036  10.149   1.775 -0.1587 -0.0741  0.0606
    1W        W61604  27.998  21.841   3.257  0.3725  0.1633  0.0424
    1W        W61605  25.434  29.067   0.376 -0.1518  0.1884  0.0535
    1W        W61606   7.818  11.196   8.612 -0.1255  0.2114  0.2118
    1W        W61607  21.538  19.295   8.071  0.0310 -0.0893 -0.0102
    1W        W61608  24.207   7.086   0.985  0.0609 -0.1071  0.3673
    1W        W61609  26.897  20.338   8.844 -0.0631  0.1530  0.3559
    1W        W61610   9.110   3.698   3.764  0.2418 -0.2739 -0.1508
    1W        W61611  23.559  23.894   1.959  0.0475  0.0873  0.0046
    1W        W61612  13.201  11.356   9.284 -0.1955 -0.0927  0.3564
    1W        W61613  13.369  21.212   7.953 -0.0722  0.1698  0.1105
    1W        W61614  21.500  15.703   6.650 -0.0092 -0.0280  0.0804
    1W        W61615  27.651  29.322   9.190 -0.3923  0.0024 -0.1706
    1W        W61616  20.753  10.837   8.117  0.0247  0.0786 -0.1869
    1W        W61617   2.474  14.193   0.643 -0.1279 -0.1293 -0.3034
    1W        W61618  10.520  24.971   1.557  0.1907 -0.2040  0.1290
    1W        W61619  16.080  24.353   9.447  0.2645 -0.0073 -0.1064
    1W        W61620   6.128  18.095   8.650  0.2597  0.2917  0.1046
    1W        W61621   2.020   7.528   2.713  0.0431  0.0834 -0.4714
    1W        W61622  15.459  13.886   8.557 -0.1609  0.1257 -0.0635
    1W        W61623  24.915   6.338   1.943  0.2110  0.1865  0.0035
    1W        W61624  15.593  13.385   6.455 -0.2925  0.0844 -0.2858
    1W        W61625  11.013  21.159   2.072  0.1685  0.0682  0.2969
    1W        W61626  20.190  28.885   7.454 -0.0091 -0.0824 -0.1932
    1W        W61627  28.040  10.111   8.970  0.1777 -0.0692 -0.1213
    1W        W61628  11.807   7.718   0.481  0.0719 -0.0072  0.2594
    1W        W61629  26.094  20.787   1.324  0.2073  0.1526 -0.1084
    1W        W61630  16.311  26.602   1.822 -0.1513 -0.3306 -0.2141
    1W        W61631   5.396  20.752   6.296 -0.0105  0.4684  0.2439
    1W        W61632  22.578  14.952   6.100  0.1926 -0.0922 -0.1988
    1W        W61633  19.255   7.184   8.979  0.1013  0.2615  0.0951
    1W        W61634   8.280  29.245   2.782  0.0333  0.1590  0.2326
    1W        W61635  26.727  19.885   1.871 -0.1795  0.0738 -0.1586
    1W        W61636   0.616  20.500   0.180  0.0843 -0.2089  0.2215
    1W        W61637   9.658  27.410   7.383  0.0290 -0.1009 -0.1603
    1W        W61638   1.170   7.275   8.688  0.2287 -0.0476  0.3976
    1W        W61639  10.733   5.026   1.630 -0.0846 -0.0200 -0.0855
    1W        W61640   5.982   8.450   7.473 -0.0945 -0.2733  0.1610
    1W        W61641  21.209   2.612   7.178 -0.1492 -0.2505  0.0352
    1W        W61642  29.512  15.769   8.602  0.0568  0.0620 -0.1789
    1W        W61643  13.250   2.373   1.162  0.3976  0.0531  0.0939
    1W        W61644  10.053  23.017   7.872 -0.1648 -0.2146 -0.3742
    1W        W61645  23.769  25.832   1.788 -0.3062 -0.0927 -0.0601
    1W        W61646  20.477   0.308   2.294  0.2146  0.2727  0.2007
    1W        W61647  17.605  26.998   8.100 -0.1769  0.0585  0.4599
    1W        W61648  21.228  24.606   8.862  0.1044  0.4946 -0.2862
    1W        W61649  15.287   3.365   3.185  0.2844  0.1517  0.2368
    1W        W61650   5.434  13.947   1.194  0.2068 -0.0540  0.0681
    1W        W61651  13.895  27.811   0.171  0.0977 -0.0432 -0.0205
    1W        W61652  26.540  22.294   2.203 -0.0412 -0.1977  0.1741
    1W        W61653  18.150  12.394   7.172 -0.2737 -0.0077 -0.2736
    1W        W61654  24.115   1.044   8.732 -0.1880  0.1818 -0.1437
    1W        W61655   1.900   0.174   9.023  0.4026  0.1817  0.3124
    1W        W61656  28.063  17.460   8.357 -0.1590  0.0025 -0.1558
    1W        W61657   5.631   3.735   0.106 -0.0292  0.1652 -0.2965
    1W        W61658   3.024   2.045   0.155 -0.0683 -0.0283  0.2021
    1W        W61659  19.694  12.173   6.993 -0.0895 -0.1247  0.2361
    1W        W61660  29.556   9.426   8.152 -0.0981 -0.3816 -0.1707
    1W        W61661   1.856  15.216   5.701  0.0015 -0.2495  0.1700
    1W        W61662  13.512  29.817   2.121  0.0683  0.2528  0.0838
    1W        W61663  26.973   2.514   1.359 -0.0203 -0.2007 -0.3339
    1W        W61664  29.458  18.142   2.373  0.0875 -0.1097  0.0443
    1W        W61665  26.484  20.196   1.527 -0.2694 -0.1540  0.0527
    1W        W61666  29.788  26.041   6.570 -0.0294  0.0751  0.0909
    1W        W61667   2.923  19.231   0.547  0.3659  0.1518 -0.0870
    1W        W61668  20.368  20.974   0.134 -0.3240  0.2978 -0.0616
    1W        W61669  27.193  21.469   2.384 -0.2049  0.2471 -0.1435
    1W        W61670   1.868  23.574   8.836 -0.0682 -0.1376  0.0331
    1W        W61671   3.227  21.125   6.982  0.0864  0.2297  0.1618
    1W        W61672  20.882  21.344   2.150 -0.2751 -0.0254  0.1022
    1W        W61673  28.190  10.010   7.820 -0.1413 -0.1341  0.0280
    1W        W61674  15.748   7.150   2.547 -0.0122  0.0929 -0.1421
    1W        W61675  23.408   4.665   7.727 -0.0778  0.1837 -0.0755
    1W        W61676   5.062  12.614   6.677  0.4697 -0.0598 -0.0746
    1W        W61677   1.754  21.857   6.181  0.2512  0.2347 -0.0789
    1W        W61678  25.931   5.213   8.503 -0.3698 -0.1180  0.2086
    1W        W61679  12.367  13.496   1.018 -0.2700  0.0059 -0.0275
    1W        W61680   8.183   5.249   3.468  0.1585 -0.0636  0.1480
    1W        W61681  11.229  28.599   8.192  0.4986  0.0993  0.1459
    1W        W61682  24.666  15.858   6.911 -0.0483  0.0580  0.0926
    1W        W61683  18.233   5.926   7.036  0.0565  0.0410  0.0178
    1W        W61684  22.876   6.853   6.591 -0.0733 -0.2013 -0.0891
    1W        W61685  16.009   9.391   8.766  0.0268 -0.4826  0.0513
    1W        W61686   1.243  17.509   2.162  0.1859  0.2392 -0.1079
    1W        W61687  23.102  10.818   1.949 -0.1050 -0.1744 -0.0524
    1W        W61688  25.252  22.059   0.290 -0.0605  0.0660 -0.2150
    1W        W61689  16.613  11.434   8.413 -0.2276 -0.2068 -0.1651
    1W        W61690  10.317  20.023   0.481  0.2841 -0.1170 -0.1602
    1W        W61691   3.394  17.221   8.062  0.1278 -0.1920 -0.0698
    1W        W61692   4.815  14.053   7.235  0.3010  0.2011  0.0239
    1W        W61693   2.367  12.409   6.533  0.0246  0.1130  0.0667
    1W        W61694   2.350   7.229   0.896  0.1551  0.0182  0.0889
    1W        W61695   6.606  10.032   2.198 -0.0755 -0.1974 -0.0487
    1W        W61696   8.419  21.976   8.318 -0.2288 -0.0788  0.1800
    1W        W61697  29.870  25.576   2.446  0.0637 -0.1385  0.0156
    1W        W61698  29.751   1.876   0.408  0.3690  0.1749 -0.2744
    1W        W61699  16.576  28.232   8.425 -0.1355  0.0640 -0.1056
    1W        W61700  20.278   2.202   1.357  0.1964  0.0486  0.1688
    1W        W61701   7.152  11.281   1.014  0.2885 -0.0729 -0.0076
    1W        W61702  21.388  26.335   0.660  0.0224 -0.0128  0.2485
    1W        W61703  14.344  12.114   1.518  0.0775 -0.1513  0.0612
    1W        W61704  29.686   0.059   9.332 -0.1354  0.1750  0.2222
    1W        W61705   7.198  29.738   7.985 -0.0653 -0.1695  0.1453
    1W        W61706  14.747  19.404   7.103 -0.1933 -0.4996  0.0068
    1W        W61707  13.828  21.331   9.302  0.0673  0.0369 -0.1244
    1W        W61708   5.059   7.983   1.958  0.5018  0.0708  0.0852
    1W        W61709  26.657  11.263   6.677 -0.0074 -0.1032 -0.2277
    1W        W61710  16.674   3.686   9.024  0.0669 -0.2373  0.1514
    1W        W61711  14.787   5.609   9.164  0.0859 -0.2190  0.0776
    1W        W61712   6.632  11.301   9.261  0.1853  0.3104  0.0362
    1W        W61713  29.722   2.897   1.338 -0.0304  0.1233 -0.1231
    1W        W61714  27.077  21.095   2.802 -0.1386 -0.1062 -0.0017
    1W        W61715  29.269  17.834   0.285  0.2208  0.1703 -0.1092
    1W        W61716   7.444   5.427   7.956 -0.1842 -0.2421 -0.1435
    1W        W61717   3.588   3.680   2.007 -0.0124  0.1747 -0.0586
    1W        W61718  12.605   8.242   8.053  0.0126  0.0532  0.0087
    1W        W61719   0.253   5.859   6.845  0.2074 -0.0401 -0.1627
    1W        W61720   9.457  29.411   9.217  0.3688 -0.0771 -0.2712
    1W        W61721  11.940   8.790   7.355  0.2145 -0.0917  0.2339
    1W        W61722  28.056   5.407   1.335  0.0981 -0.1266 -0.0552
    1W        W61723  27.603   7.675   5.874 -0.1495 -0.0133  0.0372
    1W        W61724   2.533  23.587   9.342  0.1165  0.1315 -0.0514
    1W        W61725  10.426  11.707   8.569  0.1354 -0.0474 -0.0447
    1W        W61726  11.164   0.369   9.149  0.1173 -0.0918 -0.3648
    1W        W61727  11.999  17.980   8.734 -0.0422  0.0557 -0.1417
    1W        W61728  16.467  15.842   0.592  0.1994 -0.0615 -0.2682
    1W        W61729  18.875  26.724   1.310  0.0179 -0.2717  0.1706
    1W        W61730  25.838   8.612   6.801 -0.0720  0.2233  0.4203
    1W        W61731  17.129  11.725   2.096 -0.1695  0.1541 -0.0381
    1W        W61732   1.314  23.391   9.136  0.1310 -0.1247 -0.3025
    1W        W61733  23.032  29.148   0.969  0.2449 -0.2228  0.1191
    1W        W61734   1.381  10.891   9.023  0.2065  0.2982 -0.3073
    1W        W61735  22.616  22.885   3.158 -0.0936  0.0185  0.0460
    1W        W61736  12.799   6.103   0.596  0.0254 -0.0459  0.0649
    1W        W61737  16.568  23.594   7.772  0.3382  0.0386  0.1271
    1W        W61738   1.134  29.738   1.486  0.1197 -0.1323 -0.1260
    1W        W61739  25.555  25.564   0.703 -0.3114  0.1163 -0.0713
    1W        W61740  20.971  22.346   2.927  0.1078 -0.4497  0.0124
    1W        W61741   0.680   0.295   6.083  0.0189  0.1141 -0.0679
    1W        W61742  15.926   3.028   6.998  0.0723 -0.0384 -0.4043
    1W        W61743   2.319  23.220   1.344 -0.2843 -0.0835 -0.1150
    1W        W61744  10.770   8.342   2.603  0.5654 -0.0312  0.2656
    1W        W61745   4.368   7.112   1.796 -0.0096 -0.3262  0.0578
    1W        W61746   4.454   4.948   1.224 -0.0351  0.3468 -0.3952
    1W        W61747  11.973  17.318   8.318 -0.3234 -0.0027  0.1202
    1W        W61748  19.953   0.093   7.639 -0.1019 -0.0258 -0.0118
    1W        W61749  20.824  10.582   0.852  0.1964  0.2965 -0.0143
    1W        W61750  26.913  24.332   3.140 -0.1475 -0.1967  0.1545
    1W        W61751  10.549  26.041   7.160 -0.0833  0.1365  0.3679
    1W        W61752  16.637  24.333   8.332  0.2294  0.1094  0.1114
    1W        W61753  25.541  27.853   0.136  0.1840 -0.0096 -0.0361
    1W        W61754  27.714   1.410   7.765  0.1877  0.1054 -0.0960
    1W        W61755  28.514  18.699   1.539  0.1451 -0.1284 -0.0418
    1W        W61756  12.272   9.222   7.459 -0.5054 -0.2582 -0.2909
    1W        W61757   1.848  16.099   8.132 -0.0274 -0.1510  0.0613
    1W        W61758   4.239  23.603   0.937 -0.1272 -0.3012  0.1886
    1W        W61759  28.984   3.860   7.373  0.0355  0.2907  0.0376
    1W        W61760  18.002  12.790   8.187  0.1048  0.2412  0.0465
    1W        W61761  23.233   6.940   2.028 -0.0476 -0.1009 -0.1000
    1W        W61762   5.159  25.447   0.568  0.1956 -0.1954  0.1782
    1W        W61763   1.002  24.019   7.365 -0.0651 -0.2312 -0.0234
    1W        W61764   4.284  20.504   0.321 -0.1533 -0.1276 -0.2424
    1W        W61765   8.417  10.842   1.465  0.0483  0.0416  0.1816
    1W        W61766  12.196  27.674   2.192 -0.1558 -0.0108 -0.2518
    1W        W61767   5.260   0.646   3.067 -0.0230 -0.0635  0.1505
    1W        W61768  20.386  17.861   1.350 -0.1487 -0.1380 -0.3133
    1W        W61769  27.314  24.699   9.051  0.1895  0.0035 -0.1094
    1W        W61770  21.298   2.169   8.965  0.0696  0.0542  0.1971
    1W        W61771   3.005  19.482   1.030  0.0147  0.0222  0.0864
    1W        W61772  27.441  21.531   6.736  0.0711  0.1094  0.1023
    1W        W61773  14.987  11.232   1.952  0.1719 -0.0315 -0.0544
    1W        W61774  20.523  24.139   0.975  0.2911  0.0821  0.2853
    1W        W61775  27.330  28.696   1.388 -0.1577 -0.1101  0.2012
    1W        W61776   4.338   6.061   7.619 -0.3921  0.2146 -0.0763
    1W        W61777   6.549   3.464   7.387  0.2097 -0.0837  0.1848
    1W        W61778  22.972   9.221   7.279  0.0445 -0.1316  0.1779
    1W        W61779  27.158  16.341   1.565 -0.1196 -0.0816  0.0149
    1W        W61780   6.011  23.678   0.016  0.0012 -0.0132 -0.3705
    1W        W61781  10.564  21.938   6.205 -0.2527 -0.1783 -0.2751
    1W        W61782   6.567   8.426   1.006  0.3085 -0.1632 -0.0077
    1W        W61783  24.331  12.371   6.509 -0.4568 -0.3163  0.1661
    1W        W61784  23.956  13.754   7.146  0.1533 -0.2307 -0.2609
    1W        W61785  15.857  27.692   3.603  0.1663  0.1415  0.0233
    1W        W61786  15.380  27.872   8.794  0.0330  0.1558 -0.2185
    1W        W61787   9.648  19.441   7.344  0.0611  0.0089 -0.1391
    1W        W61788   5.554   8.318   9.286 -0.1030  0.3233 -0.1311
    1W        W61789  17.080  20.795   9.364 -0.0181 -0.0420 -0.2738
    1W        W61790  28.012   8.405   2.781  0.2405  0.1938 -0.0672
    1W        W61791   8.114  23.592   6.595 -0.1615 -0.2976 -0.2478
    1W        W61792   4.547  23.369   7.396  0.5846  0.1154  0.0365
    1W        W61793  25.666   4.677   8.547 -0.1006 -0.4788 -0.0984
    1W        W61794   9.863  20.117   9.151 -0.3222 -0.1150  0.0517
    1W        W61795   2.330  23.852   8.634 -0.5302  0.0276 -0.0035
    1W        W61796  23.857   7.650   1.570  0.0637 -0.1791  0.2526
    1W        W61797  26.538   6.889   0.049  0.1403  0.3490  0.1504
    1W        W61798  10.743   9.598   9.235 -0.2173 -0.0535  0.0675
    1W        W61799   4.621   1.521   8.773  0.1731 -0.1938  0.0077
    1W        W61800  28.625   0.438   8.159  0.3106  0.1356  0.0539
    1W        W61801   8.372  13.946   9.284 -0.0873  0.0777  0.2076
    1W        W61802   3.240   9.680   2.806  0.1438  0.1459 -0.0218
    1W        W61803   0.579  22.188   9.105  0.0352 -0.2485  0.0767
    1W        W61804   5.530  12.158   1.515 -0.0125 -0.0408  0.1599
    1W        W61805  16.361   4.100   3.411 -0.0209 -0.0312  0.2676
    1W        W61806  22.710  20.758   8.586 -0.1243 -0.0918 -0.0141
    1W        W61807   6.849  29.501   0.647  0.0021  0.0870  0.0310
    1W        W61808  17.419  25.420   1.011 -0.0819  0.1754 -0.1661
    1W        W61809  25.163  12.541   6.818  0.0636  0.0903  0.1884
    1W        W61810   4.967   4.585   2.830  0.0958  0.1210 -0.3659
    1W        W61811   9.115   4.953   8.686  0.1457 -0.1883 -0.1636
    1W        W61812   4.441  11.294   8.370  0.3984  0.1477 -0.0719
    1W        W61813   1.297  13.927   8.292 -0.4215  0.0634 -0.2168
    1W        W61814  14.065  20.899   9.180 -0.0608 -0.1141  0.0920
    1W        W61815   4.786   9.608   3.705 -0.0888 -0.0146 -0.0123
    1W        W61816  10.372   7.354   0.637  0.3161 -0.2992 -0.2163
    1W        W61817  17.007  21.856   0.698  0.1713 -0.1567 -0.4359
    1W        W61818  28.523  27.429   6.352  0.1976  0.0570  0.1545
    1W        W61819  12.003  28.292   1.144  0.0983 -0.2077  0.1199
    1W        W61820  13.260  18.598   8.775 -0.1467 -0.2020  0.1035
    1W        W61821  20.060   0.072   2.597  0.2046  0.0432 -0.2174
    1W        W61822   9.842  26.695   8.606  0.1087  0.0735  0.0127
    1W        W61823  18.770  15.754   8.515  0.1950  0.0203  0.1652
    1W        W61824  16.716  19.938   7.652  0.2096 -0.0286 -0.1669
    1W        W61825   7.181   6.825   8.176  0.1491  0.0160 -0.2450
    1W        W61826  29.455  20.684   7.865 -0.3739  0.0666 -0.0757
    1W        W61827  10.134  28.438   1.452 -0.2483 -0.1166 -0.1221
    1W        W61828  23.600   4.483   9.293  0.0411 -0.1934 -0.0684
    1W        W61829  16.472  18.387   0.381  0.0147 -0.1100  0.1217
    1W        W61830   9.602  18.061   0.596  0.1516 -0.2680 -0.0643
    1W        W61831  15.906  17.770   8.386 -0.2514  0.0565  0.0391
    1W        W61832  22.657  27.335   8.896  0.0652  0.0568 -0.0399
    1W        W61833  11.569  23.383   0.638  0.1329 -0.0266 -0.2369
    1W        W61834  28.975  12.445   6.880  0.1994 -0.0832  0.0444
    1W        W61835  15.978   8.343   1.221  0.1877  0.0772 -0.2257
    1W        W61836  28.855   4.291   0.565  0.0198  0.0836 -0.1486
    1W        W61837   6.019  27.766   7.483 -0.1390 -0.0802  0.3332
    1W        W61838  17.295  29.443   2.788 -0.1177  0.0277 -0.0496
    1W        W61839  27.997  23.052   1.233  0.1462 -0.3024  0.2911
    1W        W61840   7.601   5.454   1.826 -0.1512 -0.0469 -0.0286
    1W        W61841  28.672   3.982   9.003  0.1022 -0.1223  0.0180
    1W        W61842  11.742   9.911   0.865 -0.1514 -0.3456  0.1402
    1W        W61843   4.127   7.959   9.035 -0.0291  0.0659 -0.1479
    1W        W61844  18.162   0.697   1.564 -0.2012  0.1148 -0.0985
    1W        W61845  10.297   0.685   1.181 -0.1843  0.3594  0.0680
    1W        W61846  21.007  19.114   1.122  0.1072 -0.1405 -0.2091
    1W        W61847  29.893  19.674   7.997  0.1660  0.3868  0.1422
    1W        W61848  28.222   8.003   8.807 -0.1805 -0.1032  0.1092
    1W        W61849  10.650  18.135   1.319  0.0871 -0.0238  0.5544
    1W        W61850  23.840  23.815   9.024 -0.1491 -0.1169 -0.0623
    1W        W61851  26.557   8.387   6.406 -0.1510 -0.0187 -0.0625
    1W        W61852  22.389  25.856   0.319  0.1927 -0.0408 -0.0266
    1W        W61853   1.806   4.734   6.646 -0.4057 -0.0586 -0.0336
    1W        W61854  19.206   5.843   9.302  0.0000  0.0733 -0.1047
    1W        W61855  10.307  21.595   1.195  0.0688  0.0365  0.0462
    1W        W61856  24.140  15.741   7.756 -0.2818 -0.1007 -0.0640
    1W        W61857   2.314  21.872   1.390 -0.3475 -0.0231  0.0734
    1W        W61858  27.843  28.001   2.772 -0.1070 -0.2304 -0.0592
    1W        W61859   6.816   7.283   1.413 -0.2520  0.1054 -0.1493
    1W        W61860   8.107  20.094   9.215 -0.1364 -0.0566  0.5282
    1W        W61861  19.569  15.893   2.586  0.3218 -0.1651 -0.0065
    1W        W61862   7.880   4.008   8.609  0.0206  0.2650 -0.1731
    1W        W61863  25.869   1.628   1.429 -0.2298  0.3174 -0.2099
    1W        W61864   5.675  15.731   7.355 -0.3507  0.2549 -0.1173
    1W        W61865  21.592   9.691   0.869 -0.1902  0.2310 -0.0726
    1W        W61866  26.778  13.857   5.706  0.0653 -0.1730  0.1641
    1W        W61867  11.316  25.171   7.923  0.2697 -0.0392  0.2223
    1W        W61868  19.421   3.758   8.272  0.0450 -0.3515  0.0583
    1W        W61869  10.099   6.923   8.250 -0.1590  0.1040 -0.0262
    1W        W61870   1.419  19.108   1.229 -0.1022  0.2302  0.1843
    1W        W61871  11.137   1.045   1.533 -0.0344 -0.0892  0.0804
    1W        W61872  22.808  12.297   7.019 -0.3506  0.1308 -0.1852
    1W        W61873   6.796  26.638   2.172  0.0668  0.0395  0.2058
    1W        W61874   6.567  10.263   2.807  0.1489 -0.0961 -0.1338
    1W        W61875   7.852  12.511   9.007  0.3657 -0.2689  0.1376
    1W        W61876  25.143  22.981   2.818 -0.2880  0.1813 -0.1916
    1W        W61877  20.575  14.428   7.693 -0.2595  0.2075  0.0162
    1W        W61878  19.187   8.661   1.364 -0.4657 -0.1390 -0.1777
    1W        W61879  11.543   4.190   7.020  0.1216  0.2541 -0.1479
    1W        W61880  13.170  25.680   7.207  0.1707 -0.0475  0.2709
    1W        W61881  11.641  22.150   8.766 -0.1833  0.0555 -0.1219
    1W        W61882   3.876   6.447   6.808  0.0003  0.4714 -0.2418
    1W        W61883  26.810   7.145   6.815 -0.0899 -0.1039 -0.1032
    1W        W61884  22.597   6.032   7.814 -0.3139 -0.2449 -0.2388
    1W        W61885  19.482  26.081   1.132 -0.1974 -0.0211 -0.1342
    1W        W61886   0.722  19.214   6.431  0.0257 -0.0262 -0.0963
    1W        W61887   0.705  14.473   0.363  0.1507  0.1475  0.0609
    1W        W61888  12.362   6.825   2.230  0.2002  0.0002 -0.2118
    1W        W61889  23.464  10.615   1.053  0.1677  0.0317 -0.0394
    1W        W61890  10.584  22.636   6.404  0.0627  0.1123 -0.2055
    1W        W61891   0.397  21.956   7.078 -0.0534  0.1747 -0.1366
    1W        W61892  11.146  22.436   6.894  0.0690 -0.0758  0.0893
    1W        W61893  20.090   3.438   8.894  0.0306  0.2989 -0.0045
    1W        W61894   2.936   6.545   7.929 -0.0840  0.1085 -0.0953
    1W        W61895   4.816  10.611   7.757  0.2480  0.4173 -0.0603
    1W        W61896  11.522  22.219   0.206 -0.0346 -0.2576 -0.0727
    1W        W61897  15.055  28.603   0.668 -0.3028  0.0260  0.3196
    1W        W61898  23.656   5.948   7.776 -0.2046  0.1265 -0.1602
    1W        W61899  22.632  12.096   1.507  0.2693  0.0726  0.0041
    1W        W61900   1.061  11.088   6.721 -0.2317 -0.0787 -0.0593
    1W        W61901  12.078  26.703   7.636 -0.2906  0.0438  0.2090
    1W        W61902   2.008   8.860   1.233 -0.4320 -0.1042 -0.3004
    1W        W61903   3.047   0.745   9.048  0.1170  0.2314  0.1860
    1W        W61904   6.960  23.387   1.983 -0.2309  0.0371  0.0222
    1W        W61905   2.667  13.187   1.139 -0.3492  0.2319  0.2622
    1W        W61906   0.995   4.709   7.979 -0.1711  0.2092 -0.1142
    1W        W61907  23.602  24.673   7.955  0.0978  0.2990 -0.1990
    1W        W61908  20.532  21.893   7.365 -0.0319  0.0935  0.0040
    1W        W61909  29.865   6.012   5.906  0.3025  0.1303  0.1032
    1W        W61910   2.256  19.910   0.120  0.0529 -0.2723  0.5041
    1W        W61911   8.114   7.450   8.674 -0.1330  0.2875  0.0041
    1W        W61912  11.791  21.380   0.896 -0.1059 -0.0373 -0.1336
    1W        W61913  23.749  20.321   2.068  0.3064  0.1157 -0.2073
    1W        W61914  22.383  12.400   6.742 -0.1117  0.0824 -0.2253
    1W        W61915  15.168   0.570   7.690 -0.0333  0.1353 -0.4771
    1W        W61916  14.491   2.895   1.301  0.1643  0.3372 -0.0047
    1W        W61917  29.083   9.079   9.458 -0.1870 -0.0321  0.0799
    1W        W61918  21.679  14.438   9.355 -0.0689  0.2505  0.0398
    1W        W61919  20.534  28.737   2.460 -0.0244  0.3839  0.2206
    1W        W61920   7.999   4.031   9.084 -0.0171  0.2585 -0.3290
    1W        W61921  21.484  10.347   8.936  0.0193  0.1132  0.1356
    1W        W61922  16.975  15.141   6.697 -0.0898 -0.0519  0.0847
    1W        W61923   0.634  15.660   9.373  0.0721 -0.0167 -0.1215
    1W        W61924  18.152   9.565   0.241  0.0313  0.0836 -0.0607
    1W        W61925   5.258   6.406   7.379 -0.3858 -0.0030  0.1020
    1W        W61926   4.425  24.386   8.479 -0.1142  0.1124 -0.0175
    1W        W61927  19.194  27.040   7.380 -0.0010 -0.0983  0.2887
    1W        W61928  23.276   0.301   2.988 -0.5376 -0.1658 -0.0536
    1W        W61929  13.975  21.733   1.050  0.0382 -0.1465  0.0570
    1W        W61930  28.215   1.959   2.926  0.0671  0.0153  0.2725
    1W        W61931  18.459  13.446   1.559  0.0584 -0.0287  0.1220
    1W        W61932   2.177  14.168   2.033 -0.0077 -0.2505  0.0262
    1W        W61933   8.783  21.655   1.961  0.0924  0.2467 -0.0817
    1W        W61934   3.347   0.423   9.365 -0.3934 -0.2408  0.1146
    1W        W61935   4.955   7.753   6.564  0.2847  0.0720  0.2161
    1W        W61936   9.737  23.385   8.580 -0.0578 -0.2010 -0.1430
    1W        W61937  25.117   1.565   7.902 -0.0697  0.0527  0.1424
    1W        W61938   3.516   8.280   1.185 -0.0013 -0.2318 -0.0191
    1W        W61939  25.958  29.022   7.497 -0.2390  0.0660  0.1061
    1W        W61940  24.839  22.295   0.099  0.2179 -0.1959  0.0689
    1W        W61941  14.035  29.166   2.389 -0.1089 -0.1389 -0.1320
    1W        W61942  27.945  27.344   1.609 -0.2514  0.0014 -0.0593
    1W        W61943   2.640  25.357   1.389  0.0212  0.3787  0.0430
    1W        W61944  22.105   4.785   8.024  0.1232 -0.2204 -0.1340
    1W        W61945  19.930  15.854   8.136  0.0524 -0.1716 -0.1189
    1W        W61946  15.920  21.463   7.450 -0.0865  0.0600 -0.1517
    1W        W61947   4.638  19.087   6.781 -0.2729  0.0926  0.0913
    1W        W61948  20.553  19.921   1.525 -0.1903  0.0869 -0.1489
    1W        W61949  23.613  17.100   7.473  0.1475  0.1545  0.1753
    1W        W61950   4.373  16.049   8.049  0.0457 -0.0962 -0.0031
    1W        W61951   1.072   4.050   3.186 -0.1687 -0.0882 -0.0290
    1W        W61952  28.617  14.918   6.727 -0.1254 -0.1289  0.1753
    1W        W61953  21.274  10.856   1.462  0.3442 -0.3786 -0.2469
    1W        W61954  11.540  14.413   9.422  0.1933  0.1670  0.1295
    1W        W61955   5.235   0.246   3.347 -0.2472 -0.1343  0.1141
    1W        W61956   0.419  21.887   6.187  0.0207  0.1201 -0.0447
    1W        W61957   4.120  24.123   8.870 -0.0092  0.1199  0.0333
    1W        W61958   3.254   5.599   7.354 -0.1887  0.2525 -0.2759
    1W        W61959  14.404  17.094   7.865 -0.1351 -0.1239  0.1566
    1W        W61960   9.007  24.588   7.693  0.2877 -0.2571  0.2356
    1W        W61961   8.512  14.058   8.182  0.0620 -0.1563 -0.0791
    1W        W61962   1.142  28.962   9.299 -0.1093  0.2617  0.2930
    1W        W61963   0.852  10.983   8.655  0.0913 -0.1274 -0.0061
    1W        W61964   5.520  16.968   8.830  0.1125  0.2809 -0.0097
    1W        W61965   7.066  23.642   0.937 -0.1883  0.0530  0.1321
    1W        W61966   4.911  15.735   6.407  0.2268  0.0502  0.1661
    1W        W61967  10.138  13.329   9.195 -0.3225 -0.0159  0.4281
    1W        W61968  25.550  19.311   7.902  0.2844 -0.0085 -0.0289
    1W        W61969  16.526  19.127   9.105  0.2073  0.1399 -0.0347
    1W        W61970  27.562  27.857   7.809 -0.1109 -0.0910  0.0778
    1W        W61971  19.093   5.228   0.401 -0.0552 -0.1004 -0.0356
    1W        W61972  29.157   3.541   8.250 -0.1392 -0.2610  0.0886
    1W        W61973   0.566   3.681   3.253  0.0567 -0.0368 -0.1593
    1W        W61974  13.220  28.070   8.531 -0.1332  0.0671  0.0102
    1W        W61975   4.847  24.654   2.046 -0.1066  0.1954  0.1474
    1W        W61976  16.306  10.462   1.490 -0.3417  0.0855 -0.1908
    1W        W61977  28.723   4.108   0.005 -0.0296  0.1258 -0.1970
    1W        W61978  16.685  25.329   8.916  0.0952 -0.3359 -0.1653
    1W        W61979   4.000  27.256   6.665  0.0304 -0.0788  0.0947
    1W        W61980   6.418  28.361   0.283 -0.1447  0.2563  0.1483
    1W        W61981  28.496   5.324   1.021 -0.1655  0.1089 -0.2244
    1W        W61982   5.124  29.412   6.999  0.0888 -0.2283 -0.0751
    1W        W61983  18.124   9.035   2.163 -0.0290 -0.1713 -0.0537
    1W        W61984  24.366  17.283   8.754  0.2913  0.1606 -0.0382
    1W        W61985  20.003   0.212   9.463  0.1656  0.2056  0.1939
    1W        W61986  18.881   0.604   0.900 -0.4453  0.0218 -0.5400
    1W        W61987  22.710  22.603   1.135 -0.1333 -0.0028  0.2895
    1W        W61988  17.447   5.903   0.577 -0.0550  0.1820 -0.0136
    1W        W61989   1.455   9.411   2.676  0.0275 -0.3443  0.1938
    1W        W61990  24.732  15.429   6.567 -0.1423 -0.2056 -0.1098
    1W        W61991  26.379  19.784   6.063  0.2021 -0.0241  0.1504
    1W        W61992  24.604  15.679   7.986  0.2061 -0.0150 -0.1646
    1W        W61993   4.910  16.443   1.364  0.3020 -0.1282 -0.1328
    1W        W61994  27.592   1.506   1.769  0.1731  0.2000  0.1751
    1W        W61995   5.895  20.810   5.543  0.2287 -0.1409 -0.3361
    1W        W61996  22.222   0.672   7.457 -0.1702 -0.3608  0.2355
    1W        W61997  22.132  26.717   9.350  0.0537  0.1362  0.1689
    1W        W61998  27.650   0.921   0.430 -0.0595  0.2106 -0.1689
    1W        W61999  16.982  26.824   8.911  0.1460  0.0851 -0.0386
    1W        W62000   5.518   4.229   2.449  0.1936 -0.2195 -0.0621
    1W        W62001  20.063  25.969   9.325  0.1773  0.1439  0.3164
    1W        W62002   4.835   4.901   2.493  0.2949 -0.0344  0.3259
    1W        W62003  28.326  22.779   0.442 -0.1001  0.2473 -0.1850
    1W        W62004   6.452  17.645   6.377  0.1944  0.1137 -0.0194
    1W        W62005  18.825  13.825   6.977  0.2764  0.1180  0.0019
    1W        W62006   8.905  13.248   0.173  0.0992  0.0503  0.1374
    1W        W62007  21.792  10.796   1.579 -0.1225  0.2323  0.0355
    1W        W62008   8.298  22.818   5.834  0.1127 -0.1748  0.0834
    1W        W62009  28.799  18.888   7.151  0.0499 -0.0149 -0.0734
    1W        W62010  17.979  22.867   1.659  0.2709 -0.0116  0.1295
    1W        W62011   2.510  20.911   8.805  0.1629 -0.0519 -0.1230
    1W        W62012  29.555   0.526   9.141 -0.1786 -0.1411 -0.0981
    1W        W62013   2.156  18.768   0.857 -0.4366 -0.0394  0.0276
    1W        W62014  12.880  16.286   1.911 -0.1181 -0.0198 -0.1120
    1W        W62015  15.366   1.560   2.354 -0.0666 -0.0610 -0.0943
    1W        W62016   2.618   1.507   1.159 -0.1537 -0.0980  0.3200
    1W        W62017   9.011   6.455   3.339 -0.3861 -0.0229 -0.0384
    1W        W62018  18.989  29.857   8.892  0.0221  0.1078  0.2583
    1W        W62019   7.896  29.526   8.158  0.4845 -0.0466 -0.2053
    1W        W62020   8.142  28.812   8.663 -0.3547 -0.0610  0.1257
    1W        W62021  10.576   5.020   8.056  0.0359  0.3736  0.3565
    1W        W62022   5.918  14.066   7.343 -0.0022  0.2673  0.2650
    1W        W62023  22.192  29.854   7.753 -0.1921 -0.0606  0.1038
    1W        W62024   2.415   5.058   0.650 -0.3286 -0.2435 -0.1973
    1W        W62025  13.474   1.185   8.013  0.0271 -0.4432  0.1487
    1W        W62026  11.762  20.169   7.765 -0.1798 -0.0107 -0.0320
    1W        W62027   0.623  26.148   8.328  0.1815  0.3879 -0.0637
    1W        W62028  29.267   7.935   8.534  0.1418  0.0302 -0.0647
    1W        W62029   7.825  10.664   2.472  0.2064  0.1430 -0.0114
    1W        W62030  13.800   6.515   7.154  0.0516 -0.1240 -0.1233
    1W        W62031   7.811  19.057   7.932  0.1505 -0.0347 -0.1624
    1W        W62032   6.208  18.503   8.321 -0.0278  0.2609 -0.0772
    1W        W62033  14.438  12.211   2.038  0.2208 -0.0526  0.0646
    1W        W62034  20.282  14.827   7.742  0.1528 -0.0752 -0.3603
    1W        W62035  26.174  27.022   2.885  0.2442 -0.0633 -0.3372
    1W        W62036  12.181  13.931   0.946  0.0470 -0.0175  0.1799
    1W        W62037   2.642  28.397   6.012 -0.0564 -0.2805 -0.3122
    1W        W62038   2.498  28.947   7.689 -0.1908  0.1115  0.3775
    1W        W62039  14.465  29.024   0.735 -0.1591 -0.0475  0.2569
    1W        W62040   5.461  23.147   8.677 -0.0652  0.1874 -0.2325
    1W        W62041  14.694   0.394   8.502 -0.3406 -0.1991 -0.3151
    1W        W62042  15.913  16.800   7.825 -0.2961 -0.2522  0.0247
    1W        W62043   8.773   0.091   1.645 -0.2437 -0.2961  0.2054
    1W        W62044   9.104  28.624   2.015  0.1294  0.2318 -0.1322
    1W        W62045  19.062   6.206   6.882 -0.1405 -0.1574  0.0155
    1W        W62046   7.795  21.466   7.848 -0.3532  0.0697  0.0803
    1W        W62047   3.750  28.680   2.485 -0.1265 -0.2558  0.2275
    1W        W62048  24.215   5.203   8.902  0.1828  0.0209  0.1504
    1W        W62049  14.809  12.416   1.723  0.0331  0.2078 -0.1493
    1W        W62050   1.623  19.366   0.361 -0.0409 -0.0227 -0.0238
    1W        W62051  26.389  11.885   5.905  0.1855 -0.0557 -0.2440
    1W        W62052  28.775   0.120   2.409 -0.0590  0.1524  0.1096
    1W        W62053   6.159  11.770   7.283  0.1792 -0.1532 -0.0726
    1W        W62054  16.880  25.526   2.474  0.2089 -0.0942 -0.1723
    1W        W62055  22.088  14.545   6.997 -0.1909  0.2537  0.2726
    1W        W62056   4.984  18.939   1.964 -0.0932  0.0356  0.1325
    1W        W62057  13.332  11.586   7.785 -0.1232  0.1331  0.0675
    1W        W62058   3.236  14.751   0.264  0.0349 -0.2159 -0.2511
    1W        W62059   7.482  29.086   8.865 -0.0456  0.1245  0.0863
    1W        W62060   8.045   1.803   8.481 -0.1356  0.0456  0.1338
    1W        W62061  29.796  25.211   0.664 -0.3606 -0.1349  0.1214
    1W        W62062   3.095  23.917   6.986 -0.2117 -0.1313  0.2737
    1W        W62063  21.467  14.788   1.192  0.3006 -0.1655 -0.2625
    1W        W62064  15.273  23.530   8.660 -0.1078  0.0694 -0.1062
    1W        W62065   0.917   4.361   8.975 -0.0008  0.0557 -0.1073
    1W        W62066  16.848  21.219   2.575 -0.0253  0.0238 -0.4197
    1W        W62067  21.057  23.072   8.587 -0.1834 -0.1161  0.0863
    1W        W62068  17.360   2.967   9.156  0.0382 -0.3802 -0.0214
    1W        W62069  28.065  19.524   1.109 -0.0049  0.1094  0.3292
    1W        W62070  20.263  27.298   8.148 -0.2211 -0.1155 -0.0789
    1W        W62071   8.623  24.409   6.428  0.2588  0.0965  0.3203
    1W        W62072  10.779  12.472   6.979 -0.0338  0.0107 -0.3371
    1W        W62073   3.582  20.834   7.189  0.2285  0.3351  0.2089
    1W        W62074  20.977  14.523   1.307  0.2235  0.0491 -0.0862
    1W        W62075  10.251  19.521   1.306 -0.1726 -0.0722  0.1560
    1W        W62076   8.052  19.714   1.268  0.1066 -0.0442 -0.1743
    1W        W62077   5.029  24.558   2.909 -0.2376  0.3362 -0.0824
    1W        W62078  10.612  23.729   5.685 -0.0446 -0.0721 -0.4550
    1W        W62079   3.361  23.463   6.739 -0.0934  0.1508  0.1765
    1W        W62080  10.985  22.477   0.632 -0.0276  0.4495  0.2228
    1W        W62081   8.062   1.142   2.487 -0.0790  0.0763 -0.1127
    1W        W62082   9.415   6.083   1.221  0.1382 -0.1988  0.2036
    1W        W62083  19.452  12.255   7.488 -0.0268 -0.2356  0.0541
    1W        W62084  26.891  27.299   6.853 -0.0278 -0.2268 -0.1732
    1W        W62085  18.906  17.902   7.774 -0.1263  0.1939 -0.2099
    1W        W62086  28.084  13.375   6.717  0.0884 -0.4011 -0.0190
    1W        W62087  29.304   8.704   1.548  0.1004 -0.0316 -0.1261
    1W        W62088  17.322  28.957   2.772 -0.2047 -0.1221  0.0090
    1W        W62089  29.421   5.776   1.621  0.1432  0.1514 -0.0499
    1W        W62090  14.775  14.063   0.208 -0.0233  0.0143 -0.2852
    1W        W62091  10.183  25.763   7.732 -0.0595 -0.0735 -0.4149
    1W        W62092  15.115   4.094   8.346 -0.0618 -0.2068  0.2464
    1W        W62093  20.652   6.208   2.431  0.0236 -0.1461 -0.0691
    1W        W62094   1.652   1.947   2.607 -0.0694 -0.0188 -0.1049
    1W        W62095  16.986  28.962   0.295  0.4373  0.0359  0.0759
    1W        W62096  18.432   7.666   1.191 -0.3316 -0.0657 -0.0678
    1W        W62097  27.465   9.134   7.996  0.0426  0.1491 -0.2919
    1W        W62098  29.275  18.378   0.442  0.0735  0.2077  0.5115
    1W        W62099  15.288   0.806   2.414 -0.0714  0.0424  0.1127
    1W        W62100  24.718  17.185   0.395 -0.0737  0.1693 -0.2360
    1W        W62101  14.883  28.484   8.572 -0.0323 -0.0585 -0.0723
    1W        W62102  18.700   0.295   9.166 -0.0583  0.1013 -0.0410
    1W        W62103  23.564   2.705   0.764 -0.3311 -0.4863  0.0095
    1W        W62104  27.162   6.083   2.215 -0.6310 -0.1691 -0.2306
    1W        W62105   9.744   1.500   7.875  0.2073  0.2149 -0.0026
    1W        W62106  29.450   8.757   3.258  0.1271  0.0562  0.4286
    1W        W62107  24.671   6.976   9.073 -0.1176  0.0977 -0.2276
    1W        W62108   2.809  27.588   1.119 -0.1197  0.3997 -0.0713
    1W        W62109  17.893  17.395   1.810 -0.0325 -0.0187  0.0541
    1W        W62110  16.376   3.542   0.728  0.0997 -0.0732 -0.0375
    1W        W62111  14.167  24.652   9.233  0.2750 -0.4596 -0.0600
    1W        W62112  21.867  28.464   1.711 -0.0893  0.1070  0.2394
    1W        W62113  13.497  23.749   7.024 -0.1368  0.0424  0.0106
    1W        W62114  29.329   8.404   6.875  0.2199  0.2929  0.1013
    1W        W62115  17.126   5.536   8.841 -0.0043  0.1665 -0.3147
    1W        W62116  20.416   1.021   0.421 -0.0247 -0.2326 -0.0184
    1W        W62117  13.027  20.639   7.177  0.0879 -0.0035 -0.0184
    1W        W62118  23.472  11.913   1.264 -0.0230  0.1285 -0.0127
    1W        W62119  14.183   4.607   1.395  0.2089 -0.0291  0.2340
    1W        W62120  28.407  15.246   9.169 -0.0982  0.2257  0.0684
    1W        W62121  20.266   2.273   7.834 -0.0859  0.0765 -0.2384
    1W        W62122  14.732   8.342   0.829 -0.1625 -0.1881 -0.2577
    1W        W62123   3.083  29.905   7.226 -0.3657  0.3421 -0.1057
    1W        W62124  23.607  27.381   1.377 -0.1273  0.0974  0.0994
    1W        W62125  23.280  20.721   8.608 -0.1061 -0.2188  0.0028
    1W        W62126  19.533  22.226   8.328  0.1964  0.1511 -0.1919
    1W        W62127   0.496  19.154   8.335  0.0511 -0.2646  0.3128
    1W        W62128  11.677   9.956   2.727 -0.2174 -0.0622 -0.0071
    1W        W62129  19.085  17.934   1.983  0.3280  0.0188 -0.0271
    1W        W62130  26.163  17.627   7.436  0.0258 -0.0101  0.2121
    1W        W62131   1.985  17.729   7.945 -0.0333  0.2775  0.0507
    1W        W62132  28.429  13.125   1.023 -0.0328  0.0347  0.1001
    1W        W62133  11.869  20.388   1.048 -0.1883  0.0379 -0.2333
    1W        W62134  21.126  10.328   0.137 -0.1185  0.2910  0.1822
    1W        W62135  18.376   9.816   7.202 -0.4480 -0.0077 -0.0222
    1W        W62136  17.382   9.155   0.655 -0.4377  0.0959 -0.0452
    1W        W62137   1.834  13.772   2.015 -0.2525 -0.2541  0.2767
    1W        W62138  19.819  29.540   9.133 -0.1021 -0.2865  0.0186
    1W        W62139   0.942  10.952   7.204 -0.0444 -0.0357 -0.1977
    1W        W62140   6.120  28.059   2.948 -0.0325 -0.2293 -0.2658
    1W        W62141   2.364   3.373   1.586  0.1098 -0.4274 -0.1172
    1W        W62142  19.608  20.652   8.112 -0.3073  0.2919  0.1168
    1W        W62143  15.654  14.064   7.436  0.1049  0.0245 -0.0170
    1W        W62144   3.898   5.446   6.508  0.3248 -0.0549  0.0164
    1W        W62145   6.171  23.115   1.221 -0.1686  0.3502  0.1306
    1W        W62146  15.804  22.813   9.058 -0.2448 -0.0675  0.2840
    1W        W62147  22.099  23.467   0.886 -0.1388 -0.2529 -0.1158
    1W        W62148  24.295   1.673   6.924  0.0959 -0.5652 -0.0462
    1W        W62149   2.837  23.175   7.496  0.0086  0.0420 -0.0539
    1W        W62150  24.414   9.168   0.761  0.0842  0.0208  0.2348
    1W        W62151  20.818  19.835   8.153 -0.2053  0.1014 -0.1182
    1W        W62152  10.983  15.728   7.170  0.1225  0.1677 -0.0872
    1W        W62153  22.845  15.477   8.034 -0.0822 -0.3171  0.1814
    1W        W62154  14.344  29.834   1.775  0.1633  0.5015 -0.0726
    1W        W62155  11.383  19.833   8.017 -0.2914 -0.1650  0.1616
    1W        W62156  11.225  10.325   2.450 -0.0635  0.1744  0.1138
    1W        W62157   3.162  10.906   1.202  0.0033 -0.1001 -0.0758
    1W        W62158   7.918  22.875   0.759  0.1994 -0.2913 -0.0082
    1W        W62159  21.410  25.532   8.706  0.2744  0.0325 -0.0987
    1W        W62160  14.949  19.571   7.544  0.0372 -0.1086  0.0343
    1W        W62161   8.538  29.150   8.915  0.1277  0.0867  0.1534
    1W        W62162  17.111   0.626   8.594  0.0553  0.0953 -0.0646
    1W        W62163  27.961  23.242   7.802 -0.0748 -0.1112  0.2011
    1W        W62164   1.853  13.301   9.376 -0.3610  0.0543 -0.0851
    1W        W62165  10.609  19.789   6.977  0.0815  0.2450 -0.3211
    1W        W62166  21.729   2.912   1.981 -0.0180 -0.1379 -0.2268
    1W        W62167  29.859  11.200   5.891  0.0076  0.0054 -0.3454
    1W        W62168  23.237  22.100   6.893  0.2543 -0.0893 -0.2181
    1W        W62169   5.870  14.636   7.281 -0.1151 -0.2151  0.0803
    1W        W62170  16.833   8.038   8.165 -0.1299  0.1377 -0.2852
    1W        W62171  28.302   8.067   0.936  0.3748  0.3006 -0.1436
    1W        W62172  10.632   4.590   1.419  0.0480  0.2199  0.3205
    1W        W62173  25.734  23.339   7.694 -0.4235 -0.0396  0.0927
    1W        W62174   1.615   1.526   9.064  0.2116 -0.0765  0.1251
    1W        W62175   2.012  19.204   0.664 -0.0349 -0.1058  0.1956
    1W        W62176   8.588  17.983   7.159  0.3282  0.0154  0.0863
    1W        W62177  23.404  12.206   1.785 -0.0439 -0.1714 -0.0044
    1W        W62178   9.835  14.324   7.493 -0.1282  0.4066  0.0389
    1W        W62179   2.998  16.511   7.055 -0.0170 -0.0027  0.0170
    1W        W62180  26.559   8.226   9.245  0.2360 -0.0107  0.1062
    1W        W62181  28.817  22.384   1.863 -0.0503 -0.1795 -0.1360
    1W        W62182   2.027  22.803   0.018  0.0316  0.1312 -0.3172
    1W        W62183  26.685   1.375   8.841 -0.3736  0.0505  0.1233
    1W        W62184  22.960  25.188   9.384  0.0104  0.0677 -0.0674
    1W        W62185   6.734   2.730   0.874 -0.0248  0.0499 -0.0461
    1W        W62186  13.746  26.338   1.069  0.1639 -0.0925  0.1296
    1W        W62187  22.239   0.077   0.297 -0.0147  0.0673  0.2053
    1W        W62188  13.789  25.706   1.822 -0.2551 -0.0009  0.0600
    1W        W62189  28.121  29.684   2.689 -0.2807 -0.2803  0.0760
    1W        W62190  12.160  18.284   7.008 -0.1603 -0.0014 -0.5282
    1W        W62191   7.694  24.698   8.164  0.1311  0.1655 -0.1918
    1W        W62192   4.831  28.153   2.056 -0.0124  0.0755 -0.0507
    1W        W62193  21.417   1.984   7.302  0.2283 -0.0622 -0.1610
    1W        W62194   7.334  14.560   2.149 -0.0687  0.0572  0.0885
    1W        W62195   7.467   1.193   2.439 -0.0910 -0.1360  0.3366
    1W        W62196  24.018   4.797   1.564  0.0525 -0.0437 -0.0987
    1W        W62197  11.447  20.031   1.750 -0.1685  0.3778 -0.1500
    1W        W62198   1.816  16.415   1.293  0.2823  0.0478 -0.0584
    1W        W62199  16.358   4.460   8.216 -0.1012  0.1854 -0.2377
    1W        W62200   1.987   6.502   8.525 -0.0312  0.1187  0.0449
    1W        W62201  16.220   4.382   0.737  0.1325  0.0860  0.0250
    1W        W62202  15.571  11.136   8.501  0.0412 -0.0469 -0.0865
    1W        W62203  28.063  18.131   7.911 -0.0888  0.1697  0.6216
    1W        W62204  26.250  14.295   8.571 -0.2688 -0.0130  0.0013
    1W        W62205   1.129   0.434   8.236  0.1821 -0.0663  0.2663
    1W        W62206  29.887  18.675   8.704  0.4626  0.0760 -0.0464
    1W        W62207  29.794   9.807   6.409  0.1151  0.0397 -0.1516
    1W        W62208  18.749   0.080   1.013 -0.1686  0.1186 -0.3576
    1W        W62209   2.418  10.845   9.397 -0.1246 -0.0724 -0.3620
    1W        W62210  10.479   8.842   8.766 -0.1501  0.0550 -0.1746
    1W        W62211   2.384   9.908   8.157  0.0843 -0.0973 -0.2004
    1W        W62212   8.575  20.297   9.047 -0.0999  0.0306  0.1159
    1W        W62213  14.216   3.281   1.043 -0.0310  0.0319 -0.1729
    1W        W62214  29.287  10.126   1.134 -0.1446  0.0125  0.1695
    1W        W62215  18.735   3.292   0.683  0.0831  0.1959  0.2760
    1W        W62216  16.110  12.428   7.730 -0.1028 -0.0283 -0.2529
    1W        W62217   2.920  12.376   9.126  0.2433 -0.1853 -0.3151
    1W        W62218  27.511   4.929   3.463 -0.1572 -0.2090  0.3321
    1W        W62219  19.090   4.923   1.815 -0.1967  0.0120  0.0498
    1W        W62220   8.596   0.022   3.161  0.2778  0.2245  0.2953
    1W        W62221  12.104   1.343   1.625  0.1340  0.1225 -0.0174
    1W        W62222   3.539  14.124   1.846  0.3790  0.1307 -0.0001
    1W        W62223  17.319  19.532   6.981 -0.1869  0.1982  0.3343
    1W        W62224   7.847   9.059   0.370 -0.1193 -0.1375 -0.1947
    1W        W62225   4.020  11.246   2.329 -0.0330 -0.0367 -0.1365
    1W        W62226   1.476  24.497   0.296 -0.1012 -0.0258 -0.0478
    1W        W62227   6.944  13.313   9.184  0.0590 -0.3964 -0.0906
    1W        W62228  24.202   6.836   7.689  0.3668 -0.0124 -0.0859
    1W        W62229   7.535  19.333   6.536 -0.1218 -0.1420  0.2519
    1W        W62230  20.896   1.790   8.864 -0.0712 -0.0043  0.4213
    1W        W62231  24.662  21.861   1.959  0.2017 -0.0605  0.1045
    1W        W62232  14.763   3.772   8.676  0.1193  0.2348  0.0431
    1W        W62233  15.256  24.361   2.930  0.0190 -0.1456  0.0760
    1W        W62234   0.549  12.258   9.147 -0.0865 -0.2739 -0.1084
    1W        W62235  28.432  29.699   8.705  0.2438  0.1789 -0.0662
    1W        W62236   7.671   8.081   1.337 -0.2495  0.1599  0.0286
    1W        W62237  14.205  11.465   7.338  0.0691 -0.0206  0.1685
    1W        W62238   4.255   9.240   9.207  0.0061  0.0883  0.0002
    1W        W62239  20.463   4.141   7.185  0.0678 -0.0728 -0.2121
    1W        W62240  20.757  15.595   7.331  0.0389  0.1061 -0.0525
    1W        W62241  15.375   6.335   1.630 -0.0320  0.0400 -0.1485
    1W        W62242  23.965  22.492   0.115  0.0784  0.0391 -0.1507
    1W        W62243  10.612  27.774   1.538  0.0260  0.1853  0.2466
    1W        W62244  22.960  24.001   8.333 -0.0893 -0.0635  0.0022
    1W        W62245   9.184  16.224   0.135 -0.3863 -0.0020 -0.0399
    1W        W62246  18.777  19.847   9.272 -0.4567  0.0337 -0.2271
    1W        W62247  11.023   4.708   3.669  0.2334  0.2367 -0.0862
    1W        W62248  20.833   9.355   0.230  0.2121 -0.0404  0.0692
    1W        W62249   6.231  19.930   7.556  0.2342  0.0672 -0.1471
    1W        W62250   6.910  17.807   6.207  0.1193  0.1174 -0.0873
    1W        W62251   4.318  21.432   0.225 -0.2500  0.3822  0.0356
    1W        W62252  27.843  25.372   2.811  0.1242 -0.0056  0.0966
    1W        W62253  13.218  24.488   0.021  0.0959 -0.1134  0.3808
    1W        W62254  18.284  24.236   7.264 -0.1088  0.0646  0.0422
    1W        W62255  15.655   2.135   0.553 -0.4890 -0.0049  0.1586
    1W        W62256  13.621  11.065   0.043 -0.1650  0.1354  0.3539
    1W        W62257  11.344  14.717   8.985  0.1049  0.3277  0.0096
    1W        W62258  12.153   3.572   7.668  0.1072  0.1601  0.0313
    1W        W62259  19.315  22.550   2.571 -0.1125 -0.0560 -0.1360
    1W        W62260  27.536   6.483   2.032 -0.2098 -0.1054 -0.0598
    1W        W62261  28.065   4.595   6.572 -0.0218  0.1250 -0.2199
    1W        W62262   3.576  14.940   7.684  0.3954  0.0427 -0.0276
    1W        W62263  21.917  27.143   1.733  0.0309 -0.3406  0.1662
    1W        W62264  20.672  14.571   1.727  0.1935 -0.1838  0.1411
    1W        W62265  11.092   3.810   3.297 -0.0655  0.0952  0.0021
    1W        W62266   5.086  23.951   8.180  0.1067 -0.2902 -0.0434
    1W        W62267  14.246  14.112   8.885  0.2688  0.1782 -0.3703
    1W        W62268  14.469   2.857   3.196  0.3392 -0.0600 -0.0807
    1W        W62269  17.509  27.506   1.070 -0.0423  0.0687  0.0551
    1W        W62270  20.070  22.081   7.388  0.2172  0.0111 -0.1820
    1W        W62271  24.944  19.777   0.519 -0.0773  0.0255 -0.0486
    1W        W62272   9.332  19.341   7.757 -0.0936  0.1137  0.2509
    1W        W62273   9.047  24.825   6.688 -0.0361  0.1902 -0.0139
    1W        W62274  23.846  12.417   6.622  0.0713 -0.0213  0.1017
    1W        W62275  19.791  20.319   9.344  0.0777  0.1089  0.1796
    1W        W62276  18.675  24.891   7.004 -0.0237  0.2220 -0.0961
    1W        W62277  15.575   8.033   2.064 -0.0453  0.1103 -0.0002
    1W        W62278  22.331  14.401   7.489 -0.1243 -0.0597  0.0609
    1W        W62279  27.905   1.731   8.768  0.2925 -0.2283 -0.2154
    1W        W62280  15.964  19.321   8.408 -0.0029 -0.3203  0.2416
    1W        W62281   2.980   6.565   0.401 -0.2295  0.0569  0.2823
    1W        W62282  20.155  22.395   2.612  0.0459 -0.1083  0.0790
    1W        W62283  22.092  12.710   8.466 -0.1149 -0.2873 -0.1603
    1W        W62284  27.770  20.581   0.214  0.0981 -0.1838 -0.0078
    1W        W62285   9.512   8.448   3.344 -0.0434  0.1209 -0.1912
    1W        W62286  18.301  26.699   7.811  0.2606  0.0863  0.2142
    1W        W62287   2.029  25.721   5.656  0.1885 -0.1429  0.0123
    1W        W62288   4.853   6.821   2.762 -0.1484 -0.0570  0.2075
    1W        W62289  26.808  10.977   5.799 -0.1275  0.0936  0.0229
    1W        W62290  16.634  23.816   8.178  0.2970  0.0592  0.1030
    1W        W62291  22.144   5.183   7.632 -0.0326 -0.0375 -0.1771
    1W        W62292   1.325   5.888   3.326  0.2583 -0.0155  0.0882
    1W        W62293  28.702   7.388   2.918 -0.0796  0.2971  0.0518
    1W        W62294   0.976  22.736   8.054 -0.0647 -0.0506  0.2268
    1W        W62295   1.144  12.896   7.150  0.0139 -0.1081  0.2844
    1W        W62296  12.262  10.682   0.608  0.1739 -0.1985  0.0002
    1W        W62297   6.051   6.500   8.761  0.0963 -0.1352 -0.0086
    1W        W62298  21.159   4.035   7.738  0.2188 -0.0130 -0.1878
    1W        W62299   4.525  24.807   9.239 -0.1028 -0.1294  0.0103
    1W        W62300  21.002   7.966   7.667 -0.0536  0.1803 -0.1359
    1W        W62301  16.918  29.798   2.999  0.1945  0.0164 -0.2754
    1W        W62302   3.121  20.637   1.808 -0.0253 -0.4034  0.3093
    1W        W62303  18.728  13.829   7.829  0.1553  0.2517  0.1374
    1W        W62304  19.737   3.400   7.065 -0.0228  0.0168 -0.0341
    1W        W62305  14.420   8.985   2.746  0.1062  0.1802 -0.0368
    1W        W62306   3.875  16.821   9.356  0.2109 -0.0916 -0.1812
    1W        W62307   0.737   5.595   6.699  0.1675 -0.0429  0.2222
    1W        W62308  20.435  28.601   0.876 -0.1872 -0.0079  0.0902
    1W        W62309  12.011  18.467   8.636  0.1420  0.3640  0.0003
    1W        W62310   1.541   0.701   7.216  0.0306  0.1706  0.2276
    1W        W62311  28.379  14.637   7.968  0.3194 -0.0615 -0.0801
    1W        W62312   0.554   5.557   0.305  0.0843 -0.2830  0.1614
    1W        W62313  26.193  29.057   0.754  0.2785  0.3033 -0.0685
    1W        W62314  19.998  22.553   7.028  0.1279 -0.0608 -0.1665
    1W        W62315   6.103  19.459   7.185  0.1949 -0.2996  0.1408
    1W        W62316   4.301   9.030   0.212  0.0356 -0.0461  0.1817
    1W        W62317   1.727   7.359   8.130  0.0788 -0.0125  0.0886
    1W        W62318  11.401  23.760   6.264  0.0077 -0.1032 -0.1687
    1W        W62319   7.378   9.812   2.489 -0.0419 -0.0692 -0.0833
    1W        W62320   9.189   6.814   7.299  0.1764  0.0352 -0.1081
    1W        W62321   9.200   1.636   3.343  0.0745  0.3436  0.2445
    1W        W62322   3.602  17.053   6.746 -0.0800  0.0427  0.2101
    1W        W62323   6.344   6.265   0.824  0.2628  0.0875 -0.2308
    1W        W62324  22.002  26.362   7.773  0.1158  0.3763  0.1455
    1W        W62325   0.338  12.387   1.530  0.1174  0.2062 -0.1224
    1W        W62326  22.119   7.967   8.294 -0.0819 -0.0127  0.0000
    1W        W62327  21.653  20.328   2.293  0.2713 -0.0005 -0.2007
    1W        W62328  13.983  29.255   0.608 -0.1072 -0.0923 -0.0799
    1W        W62329  14.674  16.409   0.345  0.1163 -0.2223 -0.0274
    1W        W62330  23.299   9.024   7.583 -0.0087  0.1321  0.1871
    1W        W62331   3.954   1.937   8.223  0.2596  0.2900  0.1674
    1W        W62332  15.190  28.628   1.742  0.2896  0.2593 -0.1142
    1W        W62333  26.638  23.681   9.049  0.4181 -0.0729  0.1163
    1W        W62334  18.094  10.460   1.242  0.0950  0.0234 -0.0752
    1W        W62335  11.093  24.181   1.943  0.1221  0.1941 -0.1599
    1W        W62336   5.322   2.694   0.471 -0.2128  0.0813  0.1430
    1W        W62337   1.022  23.101   2.259  0.0532  0.1759 -0.0506
    1W        W62338  26.934   1.630   8.075 -0.2680  0.0636  0.1765
    1W        W62339   4.376  29.513   3.516  0.1296  0.0500  0.3127
    1W        W62340  19.932   8.517   0.820 -0.0782  0.0242  0.0223
    1W        W62341  27.666  27.129   6.720  0.0377 -0.4810  0.0070
    1W        W62342  22.814  25.295   0.797 -0.2177 -0.1018  0.0462
    1W        W62343  18.598   6.765   7.892  0.1055 -0.0489  0.4157
    1W        W62344  17.417  22.383   8.591 -0.3064 -0.1861 -0.1277
    1W        W62345  25.139   8.600   0.948  0.3248  0.1271  0.0353
    1W        W62346   0.962  27.196   7.401  0.2386  0.0364 -0.0728
    1W        W62347   9.949  13.440   8.535  0.1061 -0.0027  0.2588
    1W        W62348   1.311  18.171   0.847 -0.0713 -0.2570 -0.1761
    1W        W62349  12.079  27.996   2.918  0.1930 -0.0818  0.3852
    1W        W62350   8.931   4.066   8.934  0.2598 -0.0705  0.3614
    1W        W62351   2.603  26.812   1.199 -0.0486 -0.2338  0.1236
    1W        W62352  21.386  13.427   0.970  0.0428  0.0645 -0.0473
    1W        W62353   9.459  23.965   1.772 -0.0303 -0.0231  0.1016
    1W        W62354  22.685  14.024   0.794 -0.3695 -0.0497  0.2412
    1W        W62355   9.968   0.306   2.145 -0.0437 -0.1720  0.0724
    1W        W62356  24.187   9.055   7.018  0.0820  0.1993  0.4290
    1W        W62357  16.175  13.464   7.782  0.3251  0.1533 -0.0559
    1W        W62358  29.252   0.153   2.522  0.0501  0.0723  0.0164
    1W        W62359  22.048  25.435   7.062 -0.1077  0.0712  0.1105
    1W        W62360  16.810  11.638   7.909 -0.1074 -0.1295 -0.0080
    1W        W62361  29.280   4.026   1.865  0.2271  0.0856  0.0944
    1W        W62362  29.680  26.996   6.557  0.0482  0.0809  0.3040
    1W        W62363  15.138  25.896   7.000  0.2481  0.2647 -0.1125
    1W        W62364   1.570  21.145   1.290 -0.1893  0.2975  0.0713
    1W        W62365   4.835   0.328   7.524 -0.1337  0.0901  0.2541
    1W        W62366   6.973  25.195   6.793  0.1088  0.2512 -0.1358
    1W        W62367  25.436  10.573   8.540 -0.2000 -0.1575 -0.0512
    1W        W62368  20.780  16.483   7.784  0.3229 -0.0619 -0.0092
    1W        W62369   7.382  21.189   7.669 -0.2343 -0.2572  0.1845
    1W        W62370  28.428   1.150   2.747 -0.4354  0.1813  0.0933
    1W        W62371   7.976   1.748   1.329  0.0186  0.0057 -0.0085
    1W        W62372  17.633  10.187   7.367 -0.2361 -0.3837 -0.3463
    1W        W62373   3.482  22.362   1.677  0.1433 -0.0190  0.1528
    1W        W62374  20.175  13.424   6.922 -0.0454  0.0491 -0.0655
    1W        W62375  20.606   4.649   0.965  0.2652  0.1282  0.0430
    1W        W62376   4.914  28.914   3.405  0.0355  0.1387 -0.0425
    1W        W62377   5.217  18.053   2.409 -0.3631 -0.1179  0.1227
    1W        W62378  16.365  28.004   0.942 -0.1165 -0.1653  0.2096
    1W        W62379  27.219  18.313   1.515  0.1757 -0.4082  0.0625
    1W        W62380  12.468  27.164   8.785 -0.3509 -0.2048 -0.2645
    1W        W62381  21.089  21.110   2.551 -0.3156  0.1622 -0.0640
    1W        W62382   3.341  24.104   8.483 -0.1972 -0.2607  0.0606
    1W        W62383  16.196  16.209   0.332  0.0781 -0.0735  0.1766
    1W        W62384  29.663   8.908   2.390 -0.0314  0.0083 -0.2021
    1W        W62385  20.409  11.797   6.344 -0.0514 -0.1175  0.1956
    1W        W62386  25.639  16.042   1.500 -0.1139 -0.1010  0.1114
    1W        W62387   0.745  16.957   1.754 -0.0057  0.1946 -0.0383
    1W        W62388  28.581   4.829   8.175  0.5317  0.0170 -0.0302
    1W        W62389   4.850   0.636   8.321  0.2687 -0.0895 -0.1162
    1W        W62390  20.353  21.420   2.137 -0.2232  0.2170  0.0399
    1W        W62391  21.122  25.077   8.926  0.1418  0.0217 -0.0632
    1W        W62392  17.037  18.591   8.607  0.1944 -0.0184  0.0259
    1W        W62393  27.264   5.226   2.283  0.0328 -0.1260  0.1588
    1W        W62394  11.501  21.317   7.480 -0.0726  0.0318 -0.0046
    1W        W62395   8.290  23.619   2.788 -0.0473 -0.0449 -0.0775
    1W        W62396  11.055  16.819   9.205  0.3175 -0.1715  0.0465
    1W        W62397   9.773  11.144   3.278 -0.0598  0.3840  0.3288
    1W        W62398  24.148  25.410   0.319  0.0666 -0.1033 -0.2410
    1W        W62399  11.457  25.199   1.956  0.0353 -0.0151  0.0827
    1W        W62400   1.902  21.785   7.549 -0.1391  0.1900  0.0052
    1W        W62401  17.746  24.259   0.130  0.1407  0.3962 -0.1311
    1W        W62402   6.402   5.281   0.117 -0.3465 -0.0796 -0.0730
    1W        W62403  24.969  24.088   9.371 -0.0029  0.3102 -0.0056
    1W        W62404   1.155   1.068   1.232  0.3374 -0.0934  0.1394
    1W        W62405  25.879   6.353   8.462  0.1833 -0.1832  0.0523
    1W        W62406   7.414  25.191   6.980 -0.2157  0.1214  0.3689
    1W        W62407  20.623  12.151   6.668  0.0599 -0.0317 -0.0049
    1W        W62408  12.721   8.934   1.685  0.1696  0.0662 -0.2250
    1W        W62409  16.855  17.894   0.285 -0.0468 -0.0021 -0.0403
    1W        W62410   3.250  28.389   0.176 -0.1457 -0.4164  0.1997
    1W        W62411  17.764  18.635   8.523 -0.0427 -0.0313  0.2226
    1W        W62412  26.169   1.387   7.228  0.0399 -0.1854  0.2764
    1W        W62413  16.279  12.735   0.518  0.1237 -0.2687 -0.0489
    1W        W62414  25.616  12.813   8.459 -0.2724  0.0945  0.0878
    1W        W62415  14.012   2.652   8.951 -0.2181  0.2572  0.1547
    1W        W62416   0.799  28.154   2.626 -0.1756 -0.2869 -0.1071
    1W        W62417  24.431  10.340   9.292 -0.0141  0.1032  0.3677
    1W        W62418   2.708  28.851   0.602  0.3812 -0.0521 -0.0576
    1W        W62419  12.826  17.881   6.993 -0.1105 -0.1463  0.1608
    1W        W62420   0.907  17.199   8.557  0.1495 -0.4218 -0.0376
    1W        W62421  14.245  16.572   6.775  0.4173 -0.3267  0.3715
    1W        W62422  28.875  19.427   2.595 -0.1890 -0.1638 -0.0950
    1W        W62423  16.379  13.759   1.450  0.2219  0.2069  0.0095
    1W        W62424  16.640  12.101   8.116 -0.3058  0.0802  0.1354
    1W        W62425  14.752  10.747   0.106  0.3694 -0.1239  0.1424
    1W        W62426  18.390   8.786   6.322  0.2577 -0.0146 -0.2739
    1W        W62427  20.400  27.121   0.257  0.2636  0.1817  0.2011
    1W        W62428   5.453  13.249   2.343 -0.1112  0.0857  0.1337
    1W        W62429  21.869  14.046   8.554 -0.1284  0.1175 -0.0427
    1W        W62430  28.593  20.878   8.584 -0.0303 -0.2121 -0.0374
    1W        W62431  25.202   8.460   8.948  0.0861 -0.0072  0.3020
    1W        W62432  17.408  16.880   9.028 -0.0711  0.1208 -0.0515
    1W        W62433  16.029  16.033   1.648  0.2580  0.0834 -0.1380
    1W        W62434   3.574   5.297   8.535  0.4190 -0.0088 -0.2264
    1W        W62435   9.997   7.008   9.009  0.1316  0.1413  0.0343
    1W        W62436   5.993  17.174   6.466  0.2861 -0.3111 -0.0906
    1W        W62437   5.741  24.289   7.389  0.0118  0.4429  0.1295
    1W        W62438  10.460   7.230   2.186  0.0561  0.1595  0.0941
    1W        W62439  13.415  26.490   8.646 -0.0856  0.0452  0.0623
    1W        W62440   8.620  26.941   8.455  0.6638 -0.4454  0.2140
    1W        W62441  15.817   0.585   3.704 -0.2972  0.1122  0.0699
    1W        W62442  19.695  25.041   7.369 -0.1830  0.0225 -0.1408
    1W        W62443  17.187   3.073   7.337  0.3958 -0.2253  0.0293
    1W        W62444   0.099   2.843   0.913 -0.0525 -0.2940 -0.0115
    1W        W62445   9.344  12.603   8.360  0.0615 -0.0596  0.0215
    1W        W62446   2.775   4.745   7.430  0.1549  0.0727 -0.0452
    1W        W62447   3.533  21.696   1.702  0.0848 -0.0362 -0.1559
    1W        W62448  18.991  19.269   7.684 -0.1159 -0.1299 -0.0181
    1W        W62449   9.013  29.167   0.013 -0.1018 -0.1358 -0.3057
    1W        W62450  22.987  19.538   8.092 -0.2050 -0.0214 -0.2319
    1W        W62451   5.759  17.700   6.341  0.3593  0.0051  0.0988
    1W        W62452  11.153   5.963   6.967 -0.1829 -0.2106  0.0323
    1W        W62453  29.608   1.539   8.750 -0.1633 -0.3257  0.1967
    1W        W62454   5.270  23.019   2.273 -0.1975  0.1217  0.0267
    1W        W62455  28.932  26.406   6.447 -0.0244  0.1291 -0.0875
    1W        W62456   4.253   2.031   1.672  0.4481  0.1450 -0.1142
    1W        W62457  29.641  23.562   7.179  0.0359 -0.2841 -0.0168
    1W        W62458  25.969  16.520   6.674  0.0201  0.3420 -0.5065
    1W        W62459  24.181  10.939   0.527 -0.0103 -0.1280 -0.1146
    1W        W62460  18.673   2.492   0.069  0.1191 -0.2547 -0.2214
    1W        W62461   6.562  24.333   0.340 -0.2229  0.1876 -0.0448
    1W        W62462  26.512  16.796   7.596  0.1143 -0.3497  0.2888
    1W        W62463  15.101   2.124   3.012 -0.3044  0.0406 -0.1028
    1W        W62464  10.368  17.182   0.194 -0.1415 -0.0278  0.2230
    1W        W62465  29.218   4.033   8.265  0.0235 -0.0687  0.3040
    1W        W62466  26.239   6.699   2.005  0.2006  0.1261  0.0496
    1W        W62467  20.435   6.709   0.642 -0.0243  0.0359 -0.0327
    1W        W62468  23.517  14.146   1.268 -0.1527  0.2069  0.1172
    1W        W62469   0.985  11.987   0.851 -0.3328 -0.1917 -0.1386
    1W        W62470   6.714  12.934   8.477  0.0910 -0.1563  0.0195
    1W        W62471  24.269  11.626   6.450 -0.1635  0.0216 -0.1931
    1W        W62472  19.672  12.409   7.925 -0.2189  0.1694 -0.3067
    1W        W62473   3.883   1.677   2.850 -0.2932 -0.0219 -0.0429
    1W        W62474  12.252  11.586   0.264  0.1700  0.0180 -0.2868
    1W        W62475   1.619  15.098   6.705 -0.1979 -0.3563  0.2671
    1W        W62476  24.495   0.067   2.192  0.2480 -0.0452  0.0106
    1W        W62477  25.627  22.666   0.496  0.0870 -0.2335  0.3468
    1W        W62478  15.913  24.795   2.846  0.0124  0.2439 -0.0999
    1W        W62479  11.093  27.034   9.165 -0.1243  0.2963 -0.2985
    1W        W62480  29.052  14.492   1.324  0.1751 -0.0122  0.1537
    1W        W62481   0.864   5.240   2.418 -0.0110  0.0866  0.4497
    1W        W62482  20.847  18.722   0.598 -0.0331 -0.1341  0.1066
    1W        W62483  11.787  27.548   1.229 -0.0786  0.1433 -0.0841
    1W        W62484  27.354  24.098   1.118  0.2076 -0.2485 -0.1014
    1W        W62485  11.077   6.540   2.330  0.2437 -0.1331  0.1205
    1W        W62486  13.939   2.198   9.151  0.0314  0.2287  0.2732
    1W        W62487  29.824   4.120   7.536 -0.3184  0.3775 -0.3936
    1W        W62488  22.722  26.370   0.985  0.2368 -0.2589 -0.2049
    1W        W62489  17.751  21.991   1.260  0.0804 -0.0614  0.0589
    1W        W62490  12.583  26.342   2.198 -0.1023  0.1022 -0.2207
    1W        W62491  12.357  20.623   0.764 -0.1908 -0.1058 -0.3027
    1W        W62492  19.131   8.926   2.272 -0.3059 -0.0214 -0.1871
    1W        W62493  13.379   9.966   1.220  0.0978 -0.1712  0.1823
    1W        W62494   8.240  26.015   1.090  0.3409 -0.3994 -0.2099
    1W        W62495  27.403   3.718   1.949 -0.0632  0.0380  0.0040
    1W        W62496  20.766   3.858   1.667  0.1994  0.2983  0.0448
    1W        W62497  16.857  15.472   8.172  0.0555  0.0681 -0.1183
    1W        W62498  21.092  19.108   0.207 -0.0871 -0.2119  0.2199
    1W        W62499  13.823  26.364   1.573 -0.1760  0.0308 -0.2750
    1W        W62500  11.486  25.261   2.756 -0.0005  0.1987 -0.1298
    1W        W62501   4.739  17.500   5.848 -0.1399  0.0369 -0.1172
    1W        W62502   3.265  17.818   6.545  0.0668 -0.1636  0.1495
    1W        W62503  17.086   0.798   0.093 -0.1509 -0.0612  0.3035
    1W        W62504   5.721   2.229   3.354 -0.0667  0.1779 -0.0515
    1W        W62505  21.314  22.715   3.075  0.1915 -0.1436 -0.2602
    1W        W62506  24.851  12.753   7.126  0.2321 -0.2043  0.0412
    1W        W62507  26.489   6.607   7.730 -0.0227 -0.0665  0.1732
    1W        W62508  27.627  10.746   6.854  0.1400 -0.1698  0.0432
    1W        W62509   2.955  19.020   1.988 -0.0600 -0.1664 -0.4207
    1W        W62510  15.273   9.365   9.383 -0.1955  0.0611  0.0422
    1W        W62511  11.488  16.799   8.858  0.3209  0.3446 -0.0959
    1W        W62512  26.424   5.423   1.659 -0.3381 -0.0520  0.3906
    1W        W62513  19.328  14.455   2.261 -0.2808 -0.2182 -0.3074
    1W        W62514  25.184  11.767   1.642  0.1656 -0.0470 -0.1254
    1W        W62515  13.687   3.065   8.842  0.1844  0.3785  0.0906
    1W        W62516  24.175  22.480   6.944  0.0178  0.0725  0.1013
    1W        W62517  14.582   4.450   2.549 -0.3056  0.0405  0.1761
    1W        W62518  21.342   0.090   9.213 -0.1159  0.4682 -0.1951
    1W        W62519  20.272  18.439   0.732 -0.0618  0.1197 -0.4291
    1W        W62520   3.217  14.354   9.297  0.0089 -0.0078 -0.0541
    1W        W62521   2.059  11.452   2.340 -0.0930 -0.1344 -0.1510
    1W        W62522  19.332  21.565   1.493  0.1362  0.1842  0.0559
    1W        W62523  17.562   4.379   1.462  0.2721 -0.2119 -0.1685
    1W        W62524  22.712  27.386   8.165 -0.0803 -0.2132 -0.2077
    1W        W62525   6.013  21.913   8.730  0.0876 -0.0930  0.0636
    1W        W62526  21.996  17.212   0.876  0.1912 -0.2059 -0.1945
    1W        W62527  17.671  13.958   9.275 -0.0455  0.2035  0.2855
    1W        W62528   1.697  14.348   8.374 -0.2846  0.3861 -0.1452
    1W        W62529  19.200   7.284   1.236 -0.2846 -0.2286  0.1689
    1W        W62530  13.431  25.906   1.495 -0.0608 -0.0745  0.2944
    1W        W62531   4.207  21.352   2.297 -0.0612  0.0066 -0.1463
    1W        W62532  19.659   1.485   7.615 -0.3434 -0.0883 -0.2196
    1W        W62533  14.911  21.068   8.586  0.1338  0.2664  0.1958
    1W        W62534  21.207   0.777   0.521 -0.2910  0.1655  0.0283
    1W        W62535  25.668  22.726   6.495 -0.2074  0.1087 -0.1263
    1W        W62536  12.070  22.503   7.544 -0.2541  0.0219  0.0646
    1W        W62537  10.743   1.649   9.121  0.4012  0.2983 -0.0675
    1W        W62538  14.576  17.826   1.866 -0.0213 -0.3898  0.0456
    1W        W62539  29.679  13.818   1.703 -0.1654  0.1206  0.2068
    1W        W62540  16.514  14.318   1.644  0.0673  0.2529  0.1260
    1W        W62541  15.773  21.165   0.111 -0.0473  0.0429  0.3132
    1W        W62542  15.816  19.360   9.464 -0.3257  0.0503 -0.3597
    1W        W62543  16.546   3.663   6.174 -0.1597  0.1506  0.2814
    1W        W62544  12.700  27.931   1.021  0.1429 -0.2557 -0.3083
    1W        W62545   2.295   5.624   2.223  0.0912 -0.0668 -0.0814
    1W        W62546   2.526   9.064   2.535 -0.3007  0.0004  0.1586
    1W        W62547  15.119  17.102   7.349  0.0236 -0.0125  0.0727
    1W        W62548  26.949   1.179   6.905  0.1878  0.1031 -0.1319
    1W        W62549   5.415  20.366   0.573 -0.2499 -0.0149 -0.1206
    1W        W62550  16.571  23.981   8.872  0.3769  0.2506  0.0933
    1W        W62551   8.329  23.925   7.960 -0.0267  0.0622 -0.0106
    1W        W62552  14.829  29.907   8.702 -0.1478  0.0086 -0.0986
    1W        W62553  22.780  28.414   0.481  0.0620  0.1148 -0.1694
    1W        W62554  25.489  20.448   7.058  0.3620  0.2555 -0.0574
    1W        W62555   8.410  27.246   1.165 -0.1912  0.1105 -0.1262
    1W        W62556  29.317  19.803   0.554  0.1584 -0.0399 -0.2451
    1W        W62557  16.861   3.581   0.818  0.1600 -0.0852 -0.0614
    1W        W62558  15.850  28.636   6.602 -0.1642  0.2258  0.1109
    1W        W62559   2.750  10.781   0.959  0.1279  0.1218 -0.0484
    1W        W62560   2.366  28.048   7.718  0.1849 -0.0645 -0.3884
    1W        W62561  15.833  27.766   7.108 -0.2523  0.3248  0.0085
    1W        W62562   4.846  12.507   0.418  0.1012 -0.1445  0.0090
    1W        W62563  20.746  27.095   8.213  0.0659 -0.0996 -0.2950
    1W        W62564  23.365   1.058   7.679  0.0103 -0.2450 -0.4047
    1W        W62565   3.556  24.660   0.756 -0.0119  0.2530 -0.1623
    1W        W62566  18.560  12.963   6.462  0.0035  0.0674  0.5531
    1W        W62567  24.132  24.842   7.907  0.0293  0.0693 -0.0713
    1W        W62568  29.699  16.052   1.845 -0.0871 -0.1685 -0.1679
    1W        W62569  18.489  24.466   0.540 -0.1994  0.2465  0.1628
    1W        W62570  23.858   1.429   9.083  0.0797  0.0411 -0.0876
    1W        W62571  11.740  24.506   0.811 -0.1883  0.1890 -0.1159
    1W        W62572  20.559  17.329   2.682  0.0023  0.0072 -0.2314
    1W        W62573   4.695  27.374   2.258 -0.0184 -0.2219  0.1092
    1W        W62574  12.196   9.893   8.798  0.1492  0.0007 -0.0321
    1W        W62575   4.708  11.046   1.145 -0.1853 -0.3021  0.2448
    1W        W62576  15.375   0.512   0.483  0.0787 -0.1093  0.0469
    1W        W62577  10.894   5.795   8.470 -0.2890  0.0191  0.1130
    1W        W62578  25.909  20.333   6.805  0.0683  0.3821  0.2608
    1W        W62579   9.291  25.726   0.119  0.0320 -0.1486 -0.0371
    1W        W62580  18.935  23.534   1.050 -0.1590 -0.0017  0.4231
    1W        W62581  11.642  15.031   0.390  0.0026 -0.0435  0.0158
    1W        W62582  18.629   5.764   8.878 -0.2348 -0.0985 -0.0628
    1W        W62583  26.235  11.715   0.302  0.0286  0.0447 -0.0582
    1W        W62584   2.099   1.694   9.251 -0.1067  0.3059  0.2282
    1W        W62585  13.724  14.902   7.130  0.0167  0.3332  0.2669
    1W        W62586  25.007   4.659   7.806  0.2042 -0.1302  0.4197
    1W        W62587  14.945  15.045   0.195 -0.1759  0.1321 -0.2650
    1W        W62588  10.078  22.081   0.651 -0.1635 -0.0643  0.1563
    1W        W62589   0.852   9.380   1.461  0.0913 -0.3792  0.3003
    1W        W62590   6.669  16.145   5.691  0.0101 -0.1621 -0.0947
    1W        W62591  12.647   7.024   8.640  0.0599 -0.1662 -0.0594
    1W        W62592   3.551  13.302   6.955 -0.0818  0.1551  0.0990
    1W        W62593  26.381  12.813   6.200  0.0993 -0.2711  0.1139
    1W        W62594   4.077  19.950   9.339  0.1705  0.2994 -0.1228
    1W        W62595  25.519  10.707   9.466  0.3122  0.4418  0.2479
    1W        W62596  27.062  20.594   6.313 -0.0614 -0.2451  0.2174
    1W        W62597   0.051   9.468   6.847  0.0323  0.1569 -0.0270
    1W        W62598  29.800  11.443   2.875  0.4802  0.2000 -0.1238
    1W        W62599  19.625  18.826   9.407  0.0838  0.0359  0.2012
    1W        W62600  14.232   9.676   7.490  0.2039  0.2971  0.0199
    1W        W62601   7.279   1.274   9.341 -0.1854  0.0422 -0.4459
    1W        W62602  25.046   3.298   1.374  0.3085  0.1017 -0.0521
    1W        W62603   4.979   7.130   7.314  0.1340  0.1511 -0.1903
    1W        W62604  10.409  13.463   8.734 -0.2819 -0.1099 -0.1674
    1W        W62605   2.274  11.830   1.092 -0.0460  0.0885  0.3187
    1W        W62606  21.552   0.640   8.083  0.1076 -0.1461 -0.2670
    1W        W62607  17.640  15.064   8.340  0.2558 -0.1040 -0.0473
    1W        W62608  24.627  21.399   8.889  0.0231 -0.2659 -0.1638
    1W        W62609  29.676  13.545   8.101 -0.1588 -0.1349 -0.2976
    1W        W62610  29.869   9.304   2.219 -0.1449  0.1395 -0.0149
    1W        W62611   9.846   6.168   1.541  0.0096 -0.0274  0.1378
    1W        W62612  12.570  18.337   1.995  0.0686 -0.0093  0.1210
    1W        W62613   4.686   8.732   3.202 -0.0431  0.0052 -0.0194
    1W        W62614   4.266   4.574   0.060  0.1417 -0.1617  0.2935
    1W        W62615   6.062  24.654   8.168 -0.1001  0.1664 -0.0820
    1W        W62616  11.594  15.353   7.731 -0.2495 -0.1442  0.0407
    1W        W62617  16.418  20.447   7.562 -0.1316 -0.2715  0.0849
    1W        W62618   8.091  11.254   2.910 -0.0583  0.1666  0.3302
    1W        W62619   2.920  17.310   7.662  0.1307  0.3308  0.3634
    1W        W62620  29.528   7.762   8.898  0.0659 -0.1245 -0.2530
    1W        W62621  28.006   3.397   9.207 -0.2039 -0.0529  0.2032
    1W        W62622  16.203  18.937   8.081  0.1571  0.3217 -0.0732
    1W        W62623   2.964  20.126   0.433 -0.2135  0.1034  0.0115
    1W        W62624   4.356  20.543   1.525 -0.0938 -0.0257 -0.1478
    1W        W62625   6.790   7.909   8.052  0.0444  0.0209 -0.0475
    1W        W62626  14.978  14.094   7.706 -0.0311  0.2290 -0.0949
    1W        W62627  25.999   7.161   8.840  0.1640  0.1482  0.0570
    1W        W62628  27.239  22.780   7.982  0.0331  0.1360 -0.0099
    1W        W62629  19.018  14.370   0.764  0.0462  0.2996  0.0505
    1W        W62630  27.644  13.444   8.470 -0.1001 -0.0384  0.0171
    1W        W62631   8.948   0.490   3.414  0.0511  0.6075 -0.2785
    1W        W62632  26.076  27.120   8.748  0.0071  0.0623  0.4871
    1W        W62633  16.295   6.503   2.351 -0.1043 -0.2302  0.3106
    1W        W62634  11.058   5.458   0.948  0.3261  0.3790 -0.1795
    1W        W62635  13.953  19.330   2.153  0.0311  0.2632 -0.1388
    1W        W62636  24.075   0.139   1.555 -0.0643  0.1182 -0.0958
    1W        W62637  12.085  24.204   5.783  0.0623 -0.0236 -0.1536
    1W        W62638  11.426   9.484   7.899  0.1992  0.0413  0.0647
    1W        W62639  16.514   0.447   7.975  0.2967  0.2704 -0.0075
    1W        W62640  21.155  25.765   2.276 -0.1559 -0.0160 -0.0350
    1W        W62641   7.199   0.775   8.601  0.0994 -0.0437 -0.3353
    1W        W62642  27.665  16.249   6.484 -0.0851  0.0731  0.0447
    1W        W62643   5.580   8.833   9.135  0.0277 -0.3391  0.0779
    1W        W62644   0.981  19.306   8.305  0.0089  0.1845  0.3591
    1W        W62645   2.159  25.968   8.465 -0.2837 -0.0806 -0.3246
    1W        W62646  25.599  28.157   0.770 -0.0750 -0.3384  0.0263
    1W        W62647   1.969  17.621   8.568 -0.2607  0.1122  0.3003
    1W        W62648  28.009  25.459   9.118 -0.2667 -0.0366 -0.0855
    1W        W62649   6.398  28.529   7.203  0.0419 -0.1096 -0.1102
    1W        W62650  18.209  20.725   6.989  0.1303  0.0585 -0.2335
    1W        W62651   7.139  14.192   9.376 -0.0347  0.0696 -0.4431
    1W        W62652  16.877  22.541   1.522 -0.0479  0.2409 -0.1168
    1W        W62653  12.032   0.623   8.056 -0.0280 -0.1636 -0.0270
    1W        W62654   6.974   1.403   1.577  0.2616 -0.2568 -0.0565
    1W        W62655  12.045   3.804   3.423  0.1166 -0.4338  0.2308
    1W        W62656  14.751  10.571   7.620  0.1604  0.0469 -0.3712
    1W        W62657  27.913  20.868   7.668  0.1104 -0.2048 -0.2257
    1W        W62658  17.759   4.752   6.500 -0.2782  0.0313  0.3849
    1W        W62659   7.834  20.523   1.535 -0.1089  0.1484  0.0237
    1W        W62660  27.140  12.692   0.072 -0.3001 -0.0127  0.3016
    1W        W62661   4.776  15.939   2.183  0.0998  0.1266 -0.1572
    1W        W62662  27.948  19.296   2.698 -0.0748  0.2102 -0.0854
    1W        W62663  28.201  24.783   8.753 -0.0623 -0.0231  0.0943
    1W        W62664   4.024  21.434   7.120  0.0535  0.1131 -0.0204
    1W        W62665  27.053  21.647   6.448 -0.0941  0.2693 -0.2128
    1W        W62666  18.467   2.477   1.220 -0.4436 -0.1711  0.3276
    1W        W62667  20.627   6.509   8.057  0.1129 -0.0256  0.0989
    1W        W62668   4.674  26.553   0.551  0.0405 -0.2653  0.1287
    1W        W62669  27.605  22.206   0.033 -0.2706  0.2114  0.2212
    1W        W62670   0.841  27.670   0.671 -0.1588  0.1413 -0.0613
    1W        W62671  28.836  10.456   8.576 -0.0367 -0.1266  0.0277
    1W        W62672  13.550   0.975   3.040  0.0894  0.1633 -0.3174
    1W        W62673   2.684  10.145   8.980 -0.1319 -0.1967 -0.0254
    1W        W62674  26.893  15.531   9.025 -0.0870  0.1313  0.0067
    1W        W62675  10.894   4.155   2.939 -0.3919 -0.3834 -0.3509
    1W        W62676   5.579  20.341   8.315  0.1707 -0.1864 -0.0476
    1W        W62677   9.811  16.656   8.730 -0.1461 -0.0029  0.0581
    1W        W62678   6.821   6.171   1.879  0.0059 -0.0248 -0.0780
    1W        W62679  27.929   2.020   7.176 -0.0902 -0.1747  0.3140
    1W        W62680  12.848  13.239   1.876 -0.1295 -0.0283 -0.0192
    1W        W62681  24.564  17.363   1.588 -0.1269  0.0099 -0.2452
    1W        W62682  10.297  22.215   6.598 -0.3454 -0.0360 -0.2714
    1W        W62683   2.854  12.601   1.162  0.1292 -0.0938 -0.0777
    1W        W62684  19.278  22.766   1.688  0.0520 -0.3443 -0.1386
    1W        W62685  27.608  23.128   9.141 -0.0012  0.1833 -0.1255
    1W        W62686  19.767   9.710   1.476  0.1773  0.3264 -0.0417
    1W        W62687  18.352  21.543   2.242 -0.0413 -0.1887 -0.2069
    1W        W62688  14.817   0.726   8.960  0.0864  0.0946  0.0576
    1W        W62689  25.510  29.738   8.734  0.0619 -0.2902 -0.1719
    1W        W62690  16.488  24.101   1.279  0.0996 -0.1285 -0.1206
    1W        W62691  29.612   5.394   7.272 -0.1719  0.1001 -0.1516
    1W        W62692   0.230  12.444   6.657 -0.3475 -0.0508  0.1523
    1W        W62693   8.131  21.817   7.464  0.1434 -0.0274 -0.0444
    1W        W62694  16.855   2.955   9.437 -0.0204  0.1159  0.1911
    1W        W62695  15.959   6.854   6.805 -0.0330  0.0199 -0.4099
    1W        W62696  11.096  26.983   2.553  0.1613  0.0264 -0.1337
    1W        W62697  23.779  16.755   1.379  0.0279 -0.0032  0.2701
    1W        W62698   1.086  16.809   8.965 -0.1519  0.5428  0.2303
    1W        W62699  18.403  13.244   0.039  0.0015  0.0657  0.0453
    1W        W62700   1.955  18.430   1.264  0.1827  0.1485  0.3130
    1W        W62701  12.237   2.885   9.292  0.0094  0.0001 -0.1725
    1W        W62702   2.817  12.040   1.455  0.1884 -0.2512 -0.0453
    1W        W62703  11.973  14.612   0.329 -0.2874 -0.1849  0.1832
    1W        W62704  23.684  19.954   2.409 -0.1560 -0.1124 -0.0300
    1W        W62705  24.922  12.245   9.117 -0.4384 -0.0251  0.1874
    1W        W62706   4.718  26.486   6.558 -0.0761 -0.0475 -0.3053
    1W        W62707  10.160   5.678   7.191 -0.1823  0.2179 -0.0023
    1W        W62708  12.567  16.863   0.566 -0.1102  0.0897  0.0337
    1W        W62709  24.256  22.102   0.261 -0.0189  0.0812  0.0336
    1W        W62710  17.318  18.625   9.457  0.1390  0.0937  0.2306
    1W        W62711   0.538   1.423   3.241  0.3394 -0.1872  0.0004
    1W        W62712  29.668  23.097   0.801 -0.1016  0.0304  0.0156
    1W        W62713  27.538  14.718   0.812 -0.0682 -0.1943 -0.0394
    1W        W62714  18.392  24.178   1.537  0.3459  0.0123  0.0315
    1W        W62715  13.797   0.202   1.069  0.0198  0.2813  0.0080
    1W        W62716  20.654  17.879   6.542 -0.1654 -0.1646 -0.0497
    1W        W62717  11.811  22.621   6.565 -0.0482  0.0959 -0.0334
    1W        W62718   9.699  27.798   1.785 -0.0608 -0.0380  0.1051
    1W        W62719  21.209   6.145   2.355  0.0035  0.2764  0.1328
    1W        W62720  19.850   3.096   1.247  0.1246 -0.1505 -0.1840
    1W        W62721   0.587   8.664   8.321  0.2804  0.0176  0.1655
    1W        W62722   5.841  27.598   9.408 -0.0068  0.3577  0.1594
    1W        W62723   7.506  10.876   1.183 -0.0041  0.2585 -0.2308
    1W        W62724  14.895  15.479   8.891 -0.2413  0.3104 -0.1756
    1W        W62725  26.801   9.643   8.012  0.3443 -0.3409 -0.2840
    1W        W62726   1.571  18.192   6.874 -0.2044 -0.0863  0.0886
    1W        W62727  27.423   1.967   7.130 -0.3670  0.4501 -0.2700
    1W        W62728  26.837  17.158   0.384 -0.0137  0.4055 -0.0818
    1W        W62729   6.962  25.945   8.078 -0.1478 -0.0320 -0.0512
    1W        W62730  22.637  13.093   0.448  0.3709  0.0136  0.0083
    1W        W62731   2.644  16.900   6.456 -0.0303  0.0142  0.0074
    1W        W62732  16.805  14.673   7.633  0.4062 -0.0028 -0.0356
    1W        W62733   6.843   1.823   7.824  0.1895 -0.1249  0.1277
    1W        W62734  15.182  20.498   0.093 -0.1472  0.0029  0.0580
    1W        W62735  21.183  15.860   7.614  0.1582  0.3712 -0.1035
    1W        W62736  17.818  11.833   1.816  0.3631  0.1130 -0.0954
    1W        W62737   0.007  14.567   2.467 -0.1126 -0.1141  0.3054
    1W        W62738  23.304  20.755   7.689  0.2015  0.0391 -0.2261
    1W        W62739  19.182   0.578   9.391  0.0708  0.0236  0.0069
    1W        W62740  14.013  25.617   8.253 -0.3199 -0.1750  0.0363
    1W        W62741   9.911   1.439   2.434 -0.1038  0.0205  0.0798
    1W        W62742  12.398  11.092   7.555  0.0905  0.1214  0.0682
    1W        W62743  20.332  26.892   2.280 -0.2053 -0.3130 -0.2500
    1W        W62744  22.025  11.974   9.112  0.2602  0.0748  0.0939
    1W        W62745  16.263  14.068   2.254  0.1752  0.1280 -0.1184
    1W        W62746   4.853  22.210   1.702  0.0413  0.1525 -0.2551
    1W        W62747  28.182  10.904   1.768  0.0200  0.0182 -0.4568
    1W        W62748  18.316  20.513   0.856  0.3316  0.0628  0.2340
    1W        W62749   8.363   6.266   1.636  0.1006  0.1626 -0.0556
    1W        W62750  19.415   0.422   6.995  0.2120  0.0642 -0.3665
    1W        W62751  28.165   4.775   9.348  0.1778 -0.1912  0.2824
    1W        W62752   9.565   6.677   8.204 -0.1422 -0.4510 -0.2563
    1W        W62753  16.818  26.874   1.113 -0.0487 -0.1620 -0.0317
    1W        W62754  18.663   5.609   7.033  0.0860 -0.0497  0.1812
    1W        W62755   5.662   8.880   8.568  0.1836 -0.0391  0.0072
    1W        W62756  28.335  26.386   8.216 -0.0073 -0.1770  0.1269
    1W        W62757  27.790  22.845   6.781 -0.1964 -0.0514  0.2418
    1W        W62758  11.079   5.298   0.432  0.4642 -0.0728  0.0267
    1W        W62759  25.911  20.411   9.020  0.4673  0.0749 -0.1575
    1W        W62760  21.980  25.348   7.961 -0.1645  0.1664 -0.3627
    1W        W62761  19.987   9.027   0.875  0.1937  0.0428  0.1025
    1W        W62762  29.810   2.315   0.662  0.1658  0.1781 -0.1068
    1W        W62763  24.833   9.571   6.791  0.3072 -0.1740 -0.0118
    1W        W62764   9.425  28.285   1.981 -0.0362  0.2347  0.0349
    1W        W62765   5.124  26.609   8.907  0.0723  0.2498  0.2545
    1W        W62766  14.599  16.937   7.371 -0.2165 -0.1292 -0.0709
    1W        W62767   4.227  11.689   0.760  0.2874 -0.0025 -0.2064
    1W        W62768  25.086   1.187   2.092  0.0493  0.1418 -0.0472
    1W        W62769   5.628   6.408   2.969  0.1551  0.0109  0.1276
    1W        W62770   1.159   4.950   2.037  0.2079 -0.0147 -0.0176
    1W        W62771  14.129   3.460   7.805 -0.0745  0.0653  0.2135
    1W        W62772  16.160   4.912   8.090  0.1542 -0.0035 -0.0638
    1W        W62773  21.118  23.539   3.613  0.2070 -0.0926  0.0563
    1W        W62774  23.638  22.598   9.153  0.3978  0.0769 -0.3681
    1W        W62775  28.296  28.705   7.189 -0.2079 -0.1553 -0.2075
    1W        W62776  13.346  27.219   9.236 -0.1591  0.3662 -0.2350
    1W        W62777   1.945  28.804   2.639  0.0263 -0.2626 -0.1808
    1W        W62778   9.616  24.130   7.551 -0.2487 -0.4837 -0.0816
    1W        W62779  16.233  22.122   1.740 -0.0763  0.1006  0.0058
    1W        W62780   8.798   2.798   2.715  0.2764  0.5306  0.1980
    1W        W62781  27.289   5.119   0.546  0.0413  0.1110  0.0459
    1W        W62782   7.398  24.500   0.032  0.0754  0.3299 -0.1459
    1W        W62783  18.919   1.145   0.816 -0.1534 -0.2649 -0.2420
    1W        W62784   5.752  14.133   9.048 -0.0965 -0.0035  0.0960
    1W        W62785  27.840  18.949   6.430  0.0828  0.0507 -0.2099
    1W        W62786  19.310  20.106   6.357  0.0823 -0.0881 -0.2951
    1W        W62787  29.739  22.293   9.453  0.1933 -0.0537  0.1498
    1W        W62788   3.041  19.553   7.533  0.0170 -0.0418 -0.0006
    1W        W62789   1.785  24.696   8.840  0.1287  0.1173  0.0027
    1W        W62790  27.321  27.517   9.036 -0.2147  0.0614 -0.1126
    1W        W62791  12.253  20.246   7.901  0.1485 -0.1849  0.0130
    1W        W62792  20.704  27.291   2.671  0.0031  0.0093 -0.4677
    1W        W62793   9.928   0.794   0.192 -0.2020 -0.1203 -0.1013
    1W        W62794  20.043  28.610   8.596 -0.2619 -0.0258 -0.0756
    1W        W62795  22.130   8.029   2.528 -0.0876  0.2755 -0.0258
    1W        W62796   1.168  29.843   0.161 -0.0806  0.3492  0.0060
    1W        W62797  11.636   4.158   3.260  0.0411 -0.0397  0.1415
    1W        W62798  18.778  10.628   8.110  0.1348  0.2123  0.0410
    1W        W62799  21.342  12.181   7.295  0.0526 -0.0368  0.1013
    1W        W62800  18.885   0.340   6.299 -0.1477 -0.2197  0.2973
    1W        W62801  10.554   1.790   0.320 -0.0296 -0.2424 -0.1638
    1W        W62802  12.334  12.626   8.338  0.0895 -0.0586 -0.0248
    1W        W62803  10.180  14.308   8.304 -0.0449  0.1207 -0.0643
    1W        W62804  25.986  12.122   7.269  0.0658  0.0420  0.1372
    1W        W62805   3.627  26.443   1.306 -0.0975  0.3698  0.1987
    1W        W62806   6.871  20.126   8.394  0.1145  0.2168 -0.1704
    1W        W62807  22.832  14.314   8.671 -0.0484 -0.0048 -0.0712
    1W        W62808   0.521  10.678   7.087 -0.0537 -0.1726  0.0482
    1W        W62809  15.225   4.656   3.423 -0.0157  0.1753  0.0923
    1W        W62810   7.480  18.086   1.812 -0.1980  0.3508  0.3852
    1W        W62811   6.785  11.663   2.261 -0.2562 -0.0150 -0.2512
    1W        W62812  28.222   9.747   8.214 -0.2387  0.3836 -0.3115
    1W        W62813  15.693  26.196   0.981  0.0326  0.0854 -0.2566
    1W        W62814   6.941  28.118   2.393  0.1982 -0.1623 -0.1899
    1W        W62815  16.195  14.520   0.376 -0.2056 -0.0230  0.1170
    1W        W62816   6.900  12.331   2.195  0.1194  0.0234  0.3368
    1W        W62817  22.618  10.561   0.565 -0.0226  0.1103  0.0944
    1W        W62818  24.157   2.015   2.998 -0.0626  0.1200 -0.0171
    1W        W62819  27.394   9.596   8.780 -0.0991  0.1316 -0.2523
    1W        W62820   5.695  16.876   0.248  0.0534  0.1924 -0.3360
    1W        W62821   4.631   3.458   7.530 -0.1739 -0.0622 -0.2289
    1W        W62822   4.323  24.319   0.372 -0.0604 -0.2890 -0.1213
    1W        W62823  20.244  20.013   9.273  0.1036  0.1155  0.0986
    1W        W62824   4.491   7.125   8.305  0.0485  0.2642 -0.0023
    1W        W62825  10.118  25.952   9.232 -0.2806 -0.1834  0.0426
    1W        W62826   3.285  17.222   1.356 -0.2124  0.0815 -0.4385
    1W        W62827   2.242  14.737   2.017  0.2711  0.3120  0.1030
    1W        W62828  23.662   4.220   7.932  0.1557 -0.2863 -0.1134
    1W        W62829   4.251  21.876   7.025 -0.0141 -0.1138 -0.1201
    1W        W62830   1.296  16.518   9.317 -0.3614 -0.0870 -0.1858
    1W        W62831   9.930  28.573   2.898  0.0413  0.1003  0.0576
    1W        W62832  27.605  18.942   0.420 -0.0383 -0.6234  0.0010
    1W        W62833   6.849  25.801   8.532  0.2685  0.2433  0.1654
    1W        W62834  21.355   7.743   9.191  0.1942  0.2263 -0.2706
    1W        W62835  26.105  25.273   2.405 -0.0654 -0.1170  0.0458
    1W        W62836  25.013   2.184   2.995 -0.3465 -0.0622  0.2242
    1W        W62837   2.047  24.924   6.205 -0.1643 -0.2598  0.0007
    1W        W62838  12.481  11.790   9.303  0.0592  0.2283  0.2842
    1W        W62839  14.677  21.600   0.439 -0.2319  0.1700 -0.3724
    1W        W62840  16.410  22.185   7.533 -0.0178  0.1449  0.2802
    1W        W62841  10.507  28.895   0.053  0.1085  0.1328  0.3618
    1W        W62842  25.641   3.586   8.364 -0.0425  0.0291  0.2637
    1W        W62843   1.924  28.359   1.106 -0.0390  0.0123  0.1185
    1W        W62844   1.837   1.030   7.597 -0.1451 -0.2634  0.3549
    1W        W62845  14.136  20.821   0.990 -0.0280  0.1225 -0.0524
    1W        W62846   2.823   7.163   8.612 -0.3213 -0.0853 -0.2334
    1W        W62847  17.134  17.340   8.900  0.1624  0.1876 -0.1009
    1W        W62848   4.178  23.595   1.922 -0.0968  0.2992  0.1606
    1W        W62849  13.094  13.345   0.482  0.0543 -0.4599 -0.2446
    1W        W62850  18.383  25.861   0.550 -0.0623  0.1638 -0.1123
    1W        W62851   8.205  19.724   7.274  0.0430  0.3270  0.0301
    1W        W62852   7.963  20.295   5.461 -0.0601 -0.1176 -0.1633
    1W        W62853  12.637  23.494   6.687  0.6017 -0.1270  0.0283
    1W        W62854  27.954  25.698   7.838  0.1380 -0.2628 -0.2335
    1W        W62855  23.275  21.201   0.338 -0.0146 -0.1677  0.0202
    1W        W62856   4.050  26.969   2.664 -0.2960  0.2660  0.0114
    1W        W62857  21.556  17.108   1.875  0.0321 -0.0453 -0.1690
    1W        W62858   2.260  27.626   9.374  0.1129 -0.0122 -0.2491
    1W        W62859   4.733  27.678   2.746 -0.0769  0.0153  0.0234
    1W        W62860  24.166   3.696   1.893 -0.1388 -0.2931 -0.1117
    1W        W62861   5.168  22.430   9.043 -0.0349  0.0683  0.1529
    1W        W62862   5.189  26.356   0.622 -0.1332 -0.0515  0.1692
    1W        W62863  29.152   9.256   8.905  0.3544  0.2492 -0.1859
    1W        W62864  16.477   5.555   0.264  0.2178 -0.1046 -0.1422
    1W        W62865   5.438   1.546   1.396 -0.0316 -0.2198  0.0900
    1W        W62866  25.474  21.522   7.969  0.7009 -0.1215 -0.2634
    1W        W62867  19.330  21.131   9.018 -0.1949  0.0001 -0.5094
    1W        W62868  28.461   1.195   7.515  0.1146 -0.1645 -0.1970
    1W        W62869  17.805  24.474   8.630 -0.0504  0.1494  0.0649
    1W        W62870  13.100   4.266   0.272  0.0214 -0.1311 -0.1665
    1W        W62871   3.713   3.815   0.145 -0.5007  0.1986 -0.2171
    1W        W62872  28.304  22.115   0.941 -0.1297 -0.0821  0.4187
    1W        W62873  21.236   9.716   0.125 -0.1083 -0.1484 -0.1338
    1W        W62874  12.649  14.365   2.059  0.3572  0.0320  0.3625
    1W        W62875   2.589   9.276   7.353 -0.4755 -0.1089 -0.1802
    1W        W62876  15.791  19.295   1.735 -0.0099  0.3916  0.4869
    1W        W62877  25.733   7.050   2.859  0.1457  0.2538  0.2665
    1W        W62878   1.298   8.168   7.250  0.0284  0.0156  0.0293
    1W        W62879  26.375   8.795   6.714 -0.0889 -0.2016 -0.3809
    1W        W62880   7.269   9.929   9.169 -0.0994 -0.0895  0.0313
    1W        W62881   0.549  16.074   0.199  0.0701 -0.1866 -0.2561
    1W        W62882   3.817  24.329   0.363 -0.0708 -0.0262  0.2183
    1W        W62883   6.929  23.540   2.478  0.0496  0.3436 -0.0699
    1W        W62884   5.857  24.852   6.714  0.0107 -0.0362  0.0719
    1W        W62885   3.594  25.212   2.278 -0.0034 -0.0533 -0.0949
    1W        W62886  18.123   8.708   1.741 -0.0964  0.2336  0.3612
    1W        W62887  18.027  18.756   1.232  0.0803  0.0027 -0.0480
    1W        W62888   0.504   9.598   1.118  0.0599  0.0946 -0.1749
    1W        W62889  25.246   2.239   1.166  0.2033  0.1765  0.1357
    1W        W62890   8.307  16.475   0.701  0.0092  0.0400  0.1027
    1W        W62891  12.134   5.933   8.322  0.1612  0.0801  0.0249
    1W        W62892  18.489  12.791   9.184 -0.2845 -0.0090  0.1283
    1W        W62893   2.377  18.424   9.241 -0.4239 -0.0784  0.1681
    1W        W62894  29.753  11.273   8.152  0.0708  0.2562 -0.0410
    1W        W62895  13.328  25.333   1.079 -0.1610 -0.1520  0.1215
    1W        W62896   6.467  26.951   3.041  0.0959  0.0410 -0.2727
    1W        W62897   1.972  21.464   1.181  0.0064 -0.0413 -0.1115
    1W        W62898  15.158  17.709   0.365 -0.0334  0.0412 -0.0606
    1W        W62899   1.030  24.710   0.149  0.0323 -0.0576  0.1628
    1W        W62900  24.625   7.771   0.521 -0.2227  0.1357 -0.1373
    1W        W62901  19.270  23.472   2.361  0.0554  0.3306 -0.2636
    1W        W62902  26.385  27.902   2.791 -0.1051  0.1775  0.2630
    1W        W62903   0.438  22.893   0.724 -0.1070  0.0092  0.3905
    1W        W62904  14.617  25.334   8.624 -0.2545  0.1661 -0.1593
    1W        W62905  12.490   4.945   2.789  0.0758 -0.0768 -0.2908
    1W        W62906  20.468   7.097   9.136 -0.0534  0.2022 -0.0439
    1W        W62907  28.322   0.871   1.398  0.2903  0.2886 -0.0321
    1W        W62908   5.736   4.794   7.639  0.2862  0.3842  0.1913
    1W        W62909  18.594   5.328   0.444 -0.5692  0.0043  0.0420
    1W        W62910  17.419  14.936   7.458 -0.0172 -0.0198  0.1582
    1W        W62911  22.480  11.468   0.714  0.2037 -0.1802 -0.1669
    1W        W62912  17.862   2.288   2.704  0.0636  0.3148 -0.1796
    1W        W62913  26.973  17.812   0.149 -0.1601  0.3010 -0.0323
    1W        W62914  12.729   9.802   2.020  0.4280 -0.1200 -0.6085
    1W        W62915   0.180  26.618   1.965  0.0732 -0.0049  0.1692
    1W        W62916  24.624  25.459   2.895  0.0437  0.1290  0.0622
    1W        W62917   7.262   8.887   2.149  0.0741  0.1138 -0.0839
    1W        W62918  29.189   3.165   7.915  0.0280  0.0023  0.0152
    1W        W62919   6.025  17.159   5.610 -0.1185  0.0418  0.0076
    1W        W62920   7.557   7.561   8.189  0.0861  0.1192 -0.2380
    1W        W62921   8.779   8.361   8.701 -0.0038 -0.0059  0.1826
    1W        W62922  17.626  16.623   0.430 -0.0656 -0.1911 -0.1694
    1W        W62923  24.953   7.903   8.270  0.0218  0.1311 -0.0829
    1W        W62924   6.398  18.497   7.445  0.1704  0.0644  0.0831
    1W        W62925  23.862  19.496   6.578  0.3096  0.2731 -0.1142
    1W        W62926  12.067   1.383   2.854 -0.2049  0.0486 -0.0246
    1W        W62927  17.606   0.248   1.296  0.1385 -0.1998  0.2346
    1W        W62928  19.449  24.920   2.177 -0.1979  0.1377  0.0194
    1W        W62929  28.692  15.289   1.335 -0.0473 -0.0388 -0.0330
    1W        W62930  16.973   5.797   1.948  0.3023  0.1193 -0.4492
    1W        W62931  25.394  27.268   0.810 -0.0090 -0.1614  0.3811
    1W        W62932   3.161   3.059   0.159 -0.2071 -0.1253 -0.0338
    1W        W62933   9.237  19.163   1.063 -0.2931 -0.2159  0.0159
    1W        W62934  11.790  11.394   8.980 -0.2425  0.0201  0.1341
    1W        W62935  15.872  27.739   8.572 -0.1230  0.3042 -0.1409
    1W        W62936   3.240  28.777   6.476  0.1602 -0.1260  0.0203
    1W        W62937  11.211  10.550   9.259 -0.3200 -0.2518 -0.3510
    1W        W62938  23.359  18.926   9.389 -0.1256 -0.2541  0.1503
    1W        W62939   5.478  11.527   2.233  0.0608 -0.0721  0.0353
    1W        W62940  26.381  15.630   1.965  0.3311 -0.0084 -0.0337
    1W        W62941  23.460  24.348   0.222 -0.1506  0.1412 -0.2905
    1W        W62942  10.544   3.351   9.278  0.1558 -0.0800 -0.0722
    1W        W62943  13.617   7.427   8.013 -0.1165  0.0598 -0.0221
    1W        W62944  12.917   0.834   9.352 -0.1300 -0.0877 -0.0981
    1W        W62945   5.114  23.876   6.577  0.0136 -0.0143  0.3447
    1W        W62946  19.175  25.018   3.296 -0.1008 -0.3953  0.1404
    1W        W62947  12.336   8.234   0.641 -0.0646 -0.0084  0.4135
    1W        W62948  18.930   6.903   8.233 -0.1450 -0.0180 -0.0453
    1W        W62949  22.005   4.049   2.419 -0.0462  0.2366  0.0005
    1W        W62950  16.099   8.844   6.996 -0.1447  0.0000  0.0287
    1W        W62951   3.014   4.002   7.369  0.2407 -0.0544 -0.2671
    1W        W62952   8.032  19.317   6.557  0.0853  0.3816 -0.1109
    1W        W62953   8.117   9.498   8.071 -0.0399  0.0507 -0.2914
    1W        W62954  25.308  26.980   8.412 -0.0920 -0.1155  0.1048
    1W        W62955  18.900  21.763   0.286 -0.4689  0.0051 -0.2441
    1W        W62956  23.027   8.239   0.754 -0.0928  0.1800  0.0728
    1W        W62957   5.033  10.179   6.595  0.0964 -0.1930  0.2481
    1W        W62958   0.458  10.555   2.786 -0.0916  0.2571  0.2529
    1W        W62959   9.683  23.719   2.653  0.0061  0.2524  0.0032
    1W        W62960   7.421  29.340   1.400 -0.4193 -0.3094  0.2452
    1W        W62961   8.959  10.985   2.902 -0.2988  0.0246  0.3799
    1W        W62962   6.919  16.210   0.560  0.3371 -0.1557  0.0072
    1W        W62963  10.795   6.094   1.196  0.1670 -0.2817 -0.0322
    1W        W62964  23.945  26.592   2.998 -0.2529 -0.1892 -0.2075
    1W        W62965  25.834  12.523   7.639  0.0581  0.2181 -0.1254
    1W        W62966  11.876  10.314   0.529 -0.0630 -0.0306  0.1253
    1W        W62967  22.952  26.945   8.717 -0.0912  0.0141 -0.0147
    1W        W62968  13.635  14.491   0.232  0.1569 -0.3464  0.1676
    1W        W62969  10.259  27.439   0.381 -0.1486  0.0795 -0.0714
    1W        W62970  21.482  26.843   9.160 -0.0103 -0.2248  0.1846
    1W        W62971  23.371  15.995   9.365 -0.1866  0.1023  0.2234
    1W        W62972  19.192  19.140   9.259 -0.0818 -0.1504 -0.0450
    1W        W62973  23.290   5.345   1.305  0.0936  0.1212  0.1851
    1W        W62974  28.560  18.024   7.721  0.1305 -0.1796 -0.0803
    1W        W62975  13.054  27.928   2.524  0.0572  0.0647 -0.1661
    1W        W62976   0.400   3.156   8.547 -0.1920  0.2221  0.0395
    1W        W62977  28.653  10.094   7.056  0.4409 -0.1499  0.2223
    1W        W62978   7.040  21.183   8.060  0.0310 -0.1340  0.1027
    1W        W62979  27.499   2.788   0.553 -0.1496 -0.2383  0.2066
    1W        W62980   8.361   1.366   3.573 -0.2682 -0.0464  0.0157
    1W        W62981   7.774   5.120   0.037  0.3281  0.1085 -0.0044
    1W        W62982  19.628   0.660   6.473  0.0939  0.0399  0.3566
    1W        W62983   1.707  14.791   8.072 -0.1340 -0.3863  0.0719
    1W        W62984  24.220  23.639   8.718  0.2155 -0.0436  0.0742
    1W        W62985  23.967  29.688   0.234  0.3225  0.0491 -0.0123
    1W        W62986  23.723  25.518   7.289  0.0021  0.0566  0.1620
    1W        W62987   5.989  14.848   9.239  0.2393 -0.1537  0.3923
    1W        W62988   4.623  11.496   2.503 -0.1178 -0.0481  0.2461
    1W        W62989  19.776  20.334   8.417  0.2628  0.1770  0.0397
    1W        W62990   6.270  20.019   0.656 -0.4305 -0.5757 -0.0556
    1W        W62991  18.637  22.721   1.004 -0.0242 -0.1288  0.1642
    1W        W62992  27.536  11.705   6.688 -0.1501  0.0096 -0.1809
    1W        W62993   8.990  11.496   8.371 -0.0976  0.3292 -0.1484
    1W        W62994  24.749  17.454   9.400 -0.2156  0.2617 -0.0835
    1W        W62995   6.744   9.904   1.480 -0.0236 -0.0003  0.0623
    1W        W62996   6.163  15.712   7.472  0.1710 -0.2663 -0.0255
    1W        W62997   1.609  26.666   8.967 -0.2010  0.1611  0.1751
    1W        W62998  29.893  15.497   8.473 -0.1103  0.1896 -0.0671
    1W        W62999  14.521   7.674   9.102 -0.0815  0.2543  0.1598
    1W        W63000  14.732  18.367   7.771 -0.0704 -0.1560 -0.0928
    1W        W63001  14.908  16.702   6.338 -0.2601 -0.0699 -0.0959
    1W        W63002  25.613  20.285   2.439  0.1674  0.0745 -0.3413
    1W        W63003   3.169  23.539   0.333  0.2098  0.1885  0.2844
    1W        W63004   4.677  23.371   1.017  0.0312 -0.0833  0.2434
    1W        W63005  10.811  26.599   1.339 -0.1087  0.3436 -0.2652
    1W        W63006  26.552   0.113   3.048 -0.2373 -0.1655  0.1122
    1W        W63007   3.430  19.423   6.767 -0.3092  0.1597 -0.0188
    1W        W63008  18.896  24.249   8.546  0.2267  0.2884 -0.1217
    1W        W63009  15.914   3.024   1.344  0.0866 -0.0944 -0.2422
    1W        W63010  27.149  23.104   0.478  0.1750  0.1440 -0.0406
    1W        W63011  12.729   4.123   8.750 -0.1435 -0.1435 -0.2804
    1W        W63012   7.640  25.365   9.361 -0.0567 -0.1024 -0.0008
    1W        W63013   9.452  22.674   1.722 -0.2196 -0.2848  0.0934
    1W        W63014   0.737  16.778   7.565  0.1816  0.0892 -0.1690
    1W        W63015   6.904  11.936   1.858  0.1063  0.0731 -0.0206
    1W        W63016   5.449  23.498   8.341 -0.0743 -0.0292 -0.1879
    1W        W63017   7.852  25.618   1.887 -0.2574 -0.0151  0.3197
    1W        W63018   9.776   2.225   7.087  0.0288 -0.0828  0.1903
    1W        W63019   3.496  12.872   9.007 -0.0190 -0.1199 -0.0967
    1W        W63020   5.538   5.720   1.266 -0.2646 -0.1117  0.0275
    1W        W63021  11.022  10.134   0.174  0.0453  0.3289 -0.0685
    1W        W63022  24.603   5.562   8.364  0.0288 -0.0293  0.2438
    1W        W63023  21.612  11.154   6.399  0.2294 -0.3260 -0.2763
    1W        W63024  19.077  11.130   1.411  0.0278  0.1583  0.1144
    1W        W63025   5.879  26.490   6.664 -0.0996  0.2855 -0.0772
    1W        W63026  23.912   7.293   7.864  0.1224 -0.0109  0.2001
    1W        W63027  12.559  26.804   1.995 -0.1489 -0.0865 -0.0319
    1W        W63028  23.696   6.314   8.178 -0.2616  0.1043 -0.0097
    1W        W63029   8.560  18.080   2.142 -0.0376 -0.1729  0.1769
    1W        W63030  18.298  17.639   1.757 -0.2612  0.0973  0.4397
    1W        W63031   6.965  13.773   1.330  0.2720 -0.1500  0.0366
    1W        W63032  15.121   4.338   1.650 -0.0851  0.0489 -0.0152
    1W        W63033  25.220   1.064   2.967 -0.1171  0.0141 -0.0741
    1W        W63034   6.940  26.201   0.517  0.2327 -0.3278 -0.1307
    1W        W63035  14.535  14.220   8.135 -0.1325  0.0461 -0.1828
    1W        W63036   2.387  17.243   1.192  0.0903 -0.4030  0.0033
    1W        W63037  23.740  25.145   7.859 -0.1634 -0.2485 -0.1650
    1W        W63038   2.627   2.300   2.558 -0.4365  0.2803 -0.1285
    1W        W63039   9.503   8.843   1.814  0.2823 -0.0860 -0.3186
    1W        W63040   0.957  20.922   9.014 -0.1036 -0.1236 -0.0637
    1W        W63041  28.382  25.089   0.979  0.1722  0.1165 -0.2713
    1W        W63042  13.788   7.720   7.643 -0.2313  0.0460  0.1884
    1W        W63043  18.550   9.736   1.055  0.1576  0.2753 -0.1292
    1W        W63044  21.649   9.912   8.641 -0.3918  0.1383 -0.0090
    1W        W63045   1.583  22.889   1.803 -0.0647 -0.2346 -0.0266
    1W        W63046  15.953  11.094   8.098  0.0198  0.0810  0.1409
    1W        W63047   4.158  18.598   7.654  0.0060  0.1614 -0.4003
    1W        W63048  24.502   6.433   7.752  0.1291 -0.0749 -0.0599
    1W        W63049   5.303  29.571   1.599  0.0105 -0.0866 -0.4184
    1W        W63050  15.838  12.717   7.429 -0.2512 -0.2293  0.0880
    1W        W63051  18.146  17.965   1.388  0.2998  0.1763 -0.6679
    1W        W63052   0.331  22.065   7.638 -0.0147 -0.0293  0.0825
    1W        W63053   9.547   3.119   1.616 -0.0089  0.0006 -0.1052
    1W        W63054  14.645  19.995   7.818  0.0484 -0.1421  0.1683
    1W        W63055   2.279   0.162   1.407 -0.1472 -0.3650  0.0245
    1W        W63056  26.022   4.791   0.311  0.0917  0.0389 -0.2368
    1W        W63057  16.457  15.477   7.827 -0.0023 -0.1705 -0.0849
    1W        W63058   8.478   5.952   2.020  0.2167 -0.0320  0.1960
    1W        W63059  25.676   1.375   0.903 -0.3412 -0.0941  0.2655
    1W        W63060  10.741  12.350   9.293  0.2370 -0.2035 -0.2141
    1W        W63061   7.257   1.059   7.345  0.1144 -0.1881 -0.1615
    1W        W63062  16.611   1.130   0.077 -0.2749 -0.2828 -0.2595
    1W        W63063   4.209  13.352   0.359  0.1553  0.2432 -0.0537
    1W        W63064  26.314  25.285   8.569 -0.1868  0.1652  0.0567
    1W        W63065   6.567  17.608   1.985  0.0528 -0.0649 -0.0258
    1W        W63066   9.642  14.667   7.102  0.2003 -0.1058  0.3193
    1W        W63067  16.955   8.934   6.806 -0.0897 -0.3098  0.0556
    1W        W63068  17.220  15.217   8.607  0.2297  0.1965 -0.2975
    1W        W63069   6.800  25.892   6.692  0.2163  0.0438 -0.1705
    1W        W63070  13.279  28.574   2.600 -0.0107 -0.2234  0.1702
    1W        W63071  29.070  11.113   2.777  0.0252  0.0062 -0.2993
    1W        W63072  15.597  24.026   0.090  0.1059  0.2509  0.0456
    1W        W63073   9.130  24.713   0.765  0.0431 -0.0522  0.1834
    1W        W63074  10.331  17.493   8.712  0.4100  0.1065  0.0419
    1W        W63075  29.306  27.871   0.884  0.2138 -0.0157  0.3592
    1W        W63076  22.565  19.609   0.676  0.2771 -0.0906  0.6505
    1W        W63077   7.510   3.099   8.051  0.3729  0.3980 -0.3414
    1W        W63078  19.136  21.997   9.365 -0.0225  0.0883  0.0684
    1W        W63079  21.648   2.384   1.622  0.3190  0.5275  0.2731
    1W        W63080  11.380  21.712   0.624 -0.0101  0.0180 -0.2865
    1W        W63081  15.615  27.245   3.758 -0.0830 -0.0874 -0.1208
    1W        W63082   0.110   0.284   8.997 -0.0521 -0.0917 -0.1653
    1W        W63083  15.757   5.023   7.613 -0.1317  0.1578  0.0986
    1W        W63084  19.951  22.430   0.613  0.0854  0.1139  0.1464
    1W        W63085  22.421  12.625   7.273 -0.3892 -0.0677  0.0290
    1W        W63086  10.953   1.061   7.630 -0.0203  0.1836  0.0010
    1W        W63087  11.936  11.290   0.052 -0.0907  0.0794  0.0199
    1W        W63088  16.305  13.916   8.866 -0.1562  0.4201 -0.1789
    1W        W63089  27.884   2.655   7.632 -0.0965  0.2506 -0.0251
    1W        W63090  26.879   7.589   0.494 -0.0622  0.0031 -0.2924
    1W        W63091  15.188   7.229   9.077  0.0265  0.0613  0.0191
    1W        W63092  11.767  15.825   7.804 -0.0442  0.0183  0.3115
    1W        W63093  29.215  17.079   2.132  0.1936  0.0721 -0.2815
    1W        W63094  11.441   9.799   0.451  0.0320 -0.0944 -0.0171
    1W        W63095  29.877  21.961   8.087 -0.0248  0.0338  0.0703
    1W        W63096  15.914   3.706   2.547  0.2688  0.0363 -0.0428
    1W        W63097   2.768  28.008   1.349 -0.2383 -0.1988 -0.1452
    1W        W63098  24.234  27.243   0.049  0.3711  0.0583 -0.0344
    1W        W63099  20.751  28.705   2.002 -0.0357  0.1604  0.1227
    1W        W63100   1.554   2.387   1.592 -0.0919  0.1729 -0.2060
    1W        W63101   4.629   6.412   7.919  0.1722  0.1294  0.2177
    1W        W63102  18.166  29.552   3.276 -0.2686  0.1540  0.3240
    1W        W63103  12.882   6.869   1.212  0.3187  0.1028 -0.0922
    1W        W63104  20.995  14.385   8.848 -0.3458 -0.0657  0.0929
    1W        W63105  11.573  15.533   9.411  0.0155 -0.0848  0.0486
    1W        W63106   9.626  12.200   1.621  0.0800 -0.3414 -0.0381
    1W        W63107  25.456  11.727   6.257  0.1076 -0.3382  0.3604
    1W        W63108  13.997   3.078   2.425  0.1916 -0.1712 -0.2308
    1W        W63109  19.189   9.629   1.383 -0.0845  0.2689  0.1044
    1W        W63110  19.798   5.059   9.243 -0.0770  0.2909  0.2759
    1W        W63111  10.037  25.722   2.624 -0.0946  0.1742  0.0952
    1W        W63112   5.513   3.450   1.874  0.0343  0.0732  0.0941
    1W        W63113   3.456   9.280   1.947  0.3941  0.0063  0.0571
    1W        W63114  13.576  14.515   8.031  0.0175  0.1766  0.1122
    1W        W63115   9.738   3.332   3.254 -0.1437 -0.0424 -0.1900
    1W        W63116  14.790   9.139   1.126 -0.3299  0.0766 -0.1413
    1W        W63117   4.398  14.592   1.869  0.0692  0.0969 -0.1378
    1W        W63118  18.812   9.681   8.353 -0.2738 -0.0427  0.0929
    1W        W63119   0.534  19.964   8.440 -0.1197 -0.1170 -0.2070
    1W        W63120   6.597  10.232   8.324 -0.0286 -0.1642 -0.4815
    1W        W63121  17.111   4.345   9.332 -0.0138  0.2730  0.0766
    1W        W63122  21.771  14.095   1.186  0.0638  0.0268 -0.1487
    1W        W63123  17.572  27.724   2.285  0.0164 -0.1981  0.0019
    1W        W63124  29.102  13.364   6.019  0.1223 -0.3227  0.0003
    1W        W63125  12.629   9.662   8.213 -0.0430 -0.0957 -0.1500
    1W        W63126  23.737   5.988   8.625 -0.2125 -0.0632 -0.3275
    1W        W63127  14.665  28.487   2.093 -0.0538 -0.2382 -0.1575
    1W        W63128  17.534  17.382   0.361 -0.0036  0.2202 -0.0650
    1W        W63129  16.758  10.431   1.028 -0.2187  0.1420  0.0235
    1W        W63130  18.106  19.928   0.287 -0.0081 -0.0189  0.0503
    1W        W63131  25.102  27.177   2.719  0.2045 -0.2037 -0.0313
    1W        W63132  15.595   5.984   2.976  0.1765 -0.2911 -0.0818
    1W        W63133   3.361  26.099   8.514  0.0186  0.2247  0.1077
    1W        W63134  23.904   8.212   1.822 -0.2592 -0.1987  0.1465
    1W        W63135   1.305   9.961   1.811 -0.1297  0.1477 -0.2479
    1W        W63136   3.213   4.519   7.792 -0.0278 -0.2172  0.0222
    1W        W63137   6.211  11.173   0.097  0.1728  0.3004  0.1010
    1W        W63138  23.256  27.144   9.106 -0.0073 -0.1325 -0.4598
    1W        W63139   7.037   3.912   9.145 -0.3238  0.2490  0.1182
    1W        W63140   5.529   7.671   1.029  0.0600 -0.0899  0.2143
    1W        W63141   6.955  10.302   7.932 -0.2902  0.4640 -0.0101
    1W        W63142  19.291  25.685   2.837 -0.0405 -0.0866  0.1334
    1W        W63143  21.982   4.916   0.765 -0.0165 -0.3449 -0.4166
    1W        W63144  27.514  27.976   9.174  0.0722 -0.3799 -0.1675
    1W        W63145  28.933  14.411   6.686 -0.0617  0.1024 -0.0276
    1W        W63146   4.575  18.823   6.388  0.1989 -0.1958 -0.2393
    1W        W63147   9.689   8.324   2.552 -0.1040 -0.0460  0.0468
    1W        W63148  29.352  28.520   0.495  0.0549  0.1163  0.0804
    1W        W63149  20.786   7.908   1.444  0.2002  0.0466 -0.0919
    1W        W63150   5.315  20.491   1.212 -0.0779 -0.0897 -0.0058
    1W        W63151   5.164  28.228   1.123 -0.0577 -0.2457  0.0390
    1W        W63152  14.921  28.022   0.965 -0.1616  0.0595  0.0262
    1W        W63153  10.849   6.988   2.233  0.1901  0.1083  0.0161
    1W        W63154  28.052   5.098   0.945  0.0480  0.2797  0.2505
    1W        W63155  19.851  11.326   1.437  0.1667 -0.1887 -0.0367
    1W        W63156   8.841  11.046   7.651 -0.3728 -0.0787  0.1953
    1W        W63157  26.787  26.938   1.038  0.1980 -0.0075  0.0334
    1W        W63158  19.920  20.652   8.885 -0.5908  0.2754  0.0049
    1W        W63159  23.295  28.799   6.411  0.1186  0.0566 -0.1315
    1W        W63160  24.000   6.563   7.179 -0.0521  0.4156  0.2848
    1W        W63161  11.903  10.549   1.976  0.2125  0.3731 -0.0186
    1W        W63162  24.461  11.636   1.423  0.0221 -0.2510  0.0522
    1W        W63163  28.110   3.687   1.186  0.1207  0.0814  0.1047
    1W        W63164   3.503  26.490   8.203 -0.1560  0.1408 -0.2488
    1W        W63165  21.328  29.276   6.664 -0.1653  0.0932  0.0377
    1W        W63166  21.042  12.271   8.087 -0.2922  0.0466 -0.0910
    1W        W63167  14.118   4.372   2.832 -0.0457  0.0072 -0.1303
    1W        W63168  13.043  23.054   8.620  0.0021  0.0718 -0.1233
    1W        W63169   7.229  12.659   6.762 -0.3246  0.2748  0.2519
    1W        W63170  26.866  25.512   8.558 -0.2258 -0.1073  0.4100
    1W        W63171  27.993  26.045   8.999 -0.1783 -0.0225 -0.0047
    1W        W63172   4.991  15.262   6.268  0.0990  0.0015  0.2460
    1W        W63173  16.856   7.007   6.658 -0.3162  0.0197 -0.0401
    1W        W63174   1.642   5.452   7.515 -0.1402 -0.2931  0.0553
    1W        W63175  29.533  19.708   9.178  0.0609 -0.0150 -0.3214
    1W        W63176  18.187  19.190   1.563 -0.0481  0.1622 -0.0867
    1W        W63177   9.389  28.247   8.429 -0.1203 -0.2976 -0.0198
    1W        W63178  27.304  17.138   6.964 -0.2159 -0.1463  0.3101
    1W        W63179  28.611   4.325   8.223 -0.0438  0.1224  0.1609
    1W        W63180  29.264  25.885   7.690  0.2173  0.0049  0.1237
    1W        W63181  28.338  23.377   1.345  0.1386  0.1539 -0.0602
    1W        W63182  13.234  19.851   2.225  0.2003  0.0284  0.0100
    1W        W63183   7.320   8.908   7.869 -0.1517 -0.0893 -0.2609
    1W        W63184  19.119  21.358   9.430  0.2506 -0.2380  0.0659
    1W        W63185  24.946   4.713   1.403 -0.0016  0.0634  0.0065
    1W        W63186  26.353  19.471   0.956 -0.0412 -0.1596  0.2833
    1W        W63187  17.123   3.488   8.942 -0.2344 -0.0122  0.2087
    1W        W63188   0.934  26.484   1.364 -0.2110 -0.0110  0.0525
    1W        W63189  10.775  25.960   6.323  0.1613  0.2754  0.0813
    1W        W63190  25.912  11.021   0.878 -0.1267 -0.0040 -0.2147
    1W        W63191   8.121   6.743   1.619 -0.0153  0.1527  0.1137
    1W        W63192  25.798  13.509   0.589  0.2141  0.0672 -0.1684
    1W        W63193  26.547  17.353   2.019 -0.0517 -0.1730 -0.0509
    1W        W63194  25.832  26.453   0.324 -0.1571  0.0217 -0.0529
    1W        W63195  19.690  25.697   9.242 -0.1627 -0.0082  0.1499
    1W        W63196   0.072  17.323   7.646 -0.1545  0.1414  0.0580
    1W        W63197  22.575   9.259   0.172 -0.0037 -0.2758 -0.1912
    1W        W63198   9.536  17.935   2.011 -0.1939  0.2813  0.0119
    1W        W63199  20.587  10.849   9.276  0.0035  0.1954  0.1307
    1W        W63200  18.772   2.795   7.150  0.0308 -0.0278 -0.0616
    1W        W63201  12.967   8.533   8.929  0.2050 -0.1509  0.6037
    1W        W63202  25.382  18.431   7.596  0.1072 -0.0956  0.2718
    1W        W63203  28.276  25.873   1.660  0.0231  0.0411 -0.0102
    1W        W63204   0.066  16.048   6.526  0.0257 -0.2972  0.1010
    1W        W63205  13.515  25.345   0.021  0.0599  0.2846 -0.1709
    1W        W63206   3.195   2.879   2.536  0.0127 -0.1579 -0.1925
    1W        W63207   9.320  12.197   2.025 -0.1941  0.0524  0.2997
    1W        W63208  15.651  24.574   0.065  0.2160  0.3146 -0.2067
    1W        W63209  22.521  20.201   7.720 -0.0178  0.2985  0.0638
    1W        W63210  28.657   6.699   6.867 -0.1071  0.1110 -0.0221
    1W        W63211  11.669  19.663   7.611 -0.1701 -0.2100  0.1278
    1W        W63212   4.996  23.652   7.433  0.0003  0.1169  0.1801
    1W        W63213  24.726  18.945   1.177  0.3169 -0.3239  0.1891
    1W        W63214  15.665  24.050   2.013  0.3012  0.0835  0.1915
    1W        W63215  16.737  23.461   7.264  0.1420 -0.0307 -0.4091
    1W        W63216   4.670   1.503   0.617 -0.2067  0.0401 -0.0448
    1W        W63217  12.409  12.167   7.545 -0.0248 -0.3480 -0.1127
    1W        W63218  11.235  11.286   0.572  0.0427  0.0150  0.1466
    1W        W63219  23.087  20.890   7.222  0.0476  0.3692 -0.1763
    1W        W63220  14.520  23.976   8.476 -0.2959 -0.2414 -0.1021
    1W        W63221  17.499  23.187   7.883  0.0644  0.0386 -0.2109
    1W        W63222   4.051   0.614   2.355 -0.1095  0.0296  0.0429
    1W        W63223   3.906  11.249   0.772  0.2741  0.2423  0.0114
    1W        W63224  27.271  14.492   1.230 -0.1027 -0.1171  0.2678
    1W        W63225  29.567   6.816   9.245 -0.1034 -0.2035 -0.0203
    1W        W63226  28.937  19.972   2.671 -0.1994 -0.3454  0.0526
    1W        W63227   7.237   0.814   0.932  0.0120 -0.2323  0.0477
    1W        W63228  26.744  15.493   7.047  0.1050  0.4170  0.0359
    1W        W63229  20.643  11.415   0.988  0.0562  0.0590 -0.0673
    1W        W63230  11.399  15.078   9.361 -0.1858 -0.0812  0.0164
    1W        W63231   2.985  18.023   0.115 -0.0420  0.2044  0.0717
    1W        W63232  26.229   6.900   6.109  0.1756  0.1327  0.1856
    1W        W63233   5.614  26.053   8.959 -0.0592  0.0622 -0.1077
    1W        W63234  29.823  18.249   1.061  0.2454  0.2827  0.2258
    1W        W63235  11.330  26.611   8.957 -0.1421 -0.0473 -0.2295
    1W        W63236   8.994   1.334   2.459 -0.0007  0.0744  0.0927
    1W        W63237  24.864   4.016   8.758 -0.0570  0.2803  0.2325
    1W        W63238   0.867  24.061   6.354  0.2054  0.3562  0.0113
    1W        W63239  24.304  22.208   8.036  0.1654  0.0273 -0.1569
    1W        W63240   7.883  23.436   1.419 -0.1484  0.0524 -0.2922
    1W        W63241   7.233  17.260   8.569 -0.2148  0.1581  0.2203
    1W        W63242  16.440  28.524   6.889  0.0480 -0.0244  0.1931
    1W        W63243  16.752   9.996   2.335  0.0589  0.2581 -0.0433
    1W        W63244  11.010  22.876   8.762  0.0142  0.3095 -0.5161
    1W        W63245  24.295  10.507   7.099 -0.3919  0.0328 -0.0341
    1W        W63246  29.851  18.305   2.086 -0.3787  0.0094  0.2564
    1W        W63247   2.481  11.245   1.879  0.1481  0.0846 -0.0762
    1W        W63248   8.688  11.124   8.107 -0.0310 -0.3837  0.2344
    1W        W63249  23.099  23.676   2.186 -0.1413  0.1466 -0.1190
    1W        W63250  16.724  25.092   0.476  0.0166  0.1431 -0.2102
    1W        W63251  27.418  14.078   7.273  0.2850 -0.0706  0.2673
    1W        W63252  12.613  14.448   1.152  0.0260  0.0867 -0.0798
    1W        W63253  26.340   0.885   7.450  0.0270  0.1675 -0.0542
    1W        W63254  26.538  21.875   9.087  0.1740 -0.0423  0.3576
    1W        W63255  12.308  12.124   0.566 -0.0821  0.1155  0.2738
    1W        W63256  21.815  18.613   7.403  0.1991 -0.0152  0.2069
    1W        W63257  20.858  18.335   7.119 -0.1584 -0.0757  0.2642
    1W        W63258  27.202  28.195   6.575  0.3276 -0.0582  0.0430
    1W        W63259  16.023  29.208   2.461  0.1116  0.1044 -0.1296
    1W        W63260   0.148  15.740   6.900 -0.0491 -0.0929  0.0078
    1W        W63261  27.911  26.851   1.485 -0.2510  0.0650  0.1027
    1W        W63262  19.931  25.216   9.169 -0.0029 -0.0582  0.1629
    1W        W63263  19.354   9.102   8.068  0.3008 -0.0211 -0.0705
    1W        W63264   1.883  12.601   2.071 -0.3007  0.1113  0.2476
    1W        W63265  24.308  21.562   6.832 -0.1893 -0.1598 -0.1082
    1W        W63266   1.717  29.286   9.068  0.2827  0.0930 -0.1142
    1W        W63267   1.815  16.390   9.119 -0.0863  0.1008 -0.2284
    1W        W63268  18.137   9.155   8.729 -0.1152 -0.0651 -0.1579
    1W        W63269  19.265  16.082   9.390 -0.1183  0.1255 -0.2681
    1W        W63270   2.435  28.164   9.340  0.0108 -0.1314 -0.0574
    1W        W63271  11.127  16.228   7.296  0.2018 -0.3016 -0.0233
    1W        W63272   5.022  10.786   2.283 -0.1375 -0.0198  0.3661
    1W        W63273  24.136  22.270   8.562  0.1298  0.1897  0.0944
    1W        W63274  23.403  15.395   2.284  0.5381  0.4929 -0.1706
    1W        W63275  27.492  23.017   1.997  0.2375  0.1231  0.0167
    1W        W63276  14.453  18.789   7.932 -0.2525  0.1963 -0.0953
    1W        W63277   1.593  12.985   0.337 -0.2832  0.1111  0.1466
    1W        W63278  20.052   4.684   6.024 -0.0074 -0.1865  0.0621
    1W        W63279   2.720  27.264   7.116 -0.3685 -0.0284 -0.3558
    1W        W63280  26.341  19.930   0.735 -0.0687 -0.0593 -0.0353
    1W        W63281  17.691  21.546   8.137 -0.3313 -0.0340 -0.2036
    1W        W63282  25.410  28.233   1.820 -0.1322 -0.1307  0.2508
    1W        W63283   7.342  26.659   8.762 -0.0917  0.0596  0.1228
    1W        W63284  20.382  27.795   7.953  0.0700  0.1618 -0.0494
    1W        W63285  27.911  11.939   1.153  0.3533  0.1073 -0.2313
    1W        W63286  29.835   0.075   1.085  0.1024 -0.3734 -0.0539
    1W        W63287  18.663  25.077   1.610  0.2059 -0.0757 -0.1192
    1W        W63288   5.868  15.959   0.482 -0.0594 -0.0193 -0.2267
    1W        W63289  23.213  20.452   2.044  0.2256 -0.2603 -0.2146
    1W        W63290   8.589   1.024   2.478  0.1006 -0.1428  0.0349
    1W        W63291   0.089  28.527   1.965  0.1653  0.1708  0.0904
    1W        W63292  10.184  25.888   8.731  0.0053 -0.1279  0.1745
    1W        W63293  13.108   1.792   7.129  0.1720  0.1317  0.3150
    1W        W63294   2.051  21.992   8.453  0.2507 -0.0764  0.0019
    1W        W63295  13.366  14.660   2.009  0.1593  0.2181  0.2689
    1W        W63296   6.304  11.607   6.408  0.0402 -0.2140  0.2845
    1W        W63297  27.188  28.055   1.140 -0.1225 -0.0722  0.1231
    1W        W63298  11.920  22.951   0.282 -0.2059  0.0555 -0.2132
    1W        W63299   7.524  25.174   1.523 -0.3042  0.1024  0.0504
    1W        W63300  15.441  16.464   7.271  0.0290  0.1916  0.0313
    1W        W63301  17.708   8.838   0.953 -0.1266  0.1236  0.0427
    1W        W63302   5.683  25.279   1.150 -0.1082  0.2268  0.0543
    1W        W63303  14.271  25.270   0.610  0.1271  0.0570 -0.4429
    1W        W63304   4.169  12.690   2.040  0.1403  0.2435 -0.2833
    1W        W63305   5.652  10.433   3.450 -0.1468  0.3200 -0.3367
    1W        W63306  18.322  20.001   0.725 -0.0950  0.0784  0.0296
    1W        W63307  16.017  11.222   7.213 -0.0245 -0.0767  0.1797
    1W        W63308   2.805  28.933   1.093  0.1857  0.0940  0.2394
    1W        W63309   6.110  25.611   0.855 -0.0899 -0.0795  0.0348
    1W        W63310  24.728  28.443   9.238  0.2954  0.0826  0.3726
    1W        W63311  22.650  11.250   7.118  0.1412 -0.0468  0.2740
    1W        W63312  12.773  12.822   8.416  0.2027  0.0523 -0.2874
    1W        W63313   3.249  15.234   0.539 -0.1474  0.0779 -0.1457
    1W        W63314  12.412   2.800   3.258  0.0089  0.0077 -0.1815
    1W        W63315  26.791  17.514   8.439 -0.2535  0.2053 -0.3207
    1W        W63316  29.481  21.727   7.828 -0.1755 -0.1846  0.3027
    1W        W63317  22.036   6.791   7.206 -0.0274  0.2113 -0.1370
    1W        W63318  18.536  10.194   8.970 -0.1793 -0.1375 -0.1989
    1W        W63319   3.147   0.307   0.410  0.0763 -0.1145 -0.0964
    1W        W63320   5.546   3.467   3.415  0.0299 -0.0987 -0.1301
    1W        W63321   3.677   9.578   1.146  0.0959 -0.0263 -0.1061
    1W        W63322   0.508   7.888   1.614  0.4374 -0.1465  0.0411
    1W        W63323  15.217   9.133   2.146 -0.0922  0.1894  0.0614
    1W        W63324   2.926  15.140   7.214 -0.2258 -0.0170 -0.0748
    1W        W63325   4.536  27.867   8.794 -0.4309  0.0836 -0.0552
    1W        W63326   3.101  25.417   1.247  0.0687  0.0971 -0.0014
    1W        W63327  17.661   0.586   1.736  0.1777  0.0419  0.3204
    1W        W63328  18.559  20.250   0.245  0.0262 -0.1443 -0.1182
    1W        W63329  26.474   6.413   1.648  0.0368  0.2559 -0.4073
    1W        W63330   9.828  29.096   9.272  0.0853  0.0500 -0.1067
    1W        W63331  21.392  21.936   1.218 -0.0118  0.0802  0.2650
    1W        W63332   3.193   8.354   7.719  0.1227 -0.6580 -0.1053
    1W        W63333   6.413  10.158   9.192 -0.1505  0.2290 -0.2274
    1W        W63334   6.477   3.680   3.234  0.2044 -0.0004 -0.1918
    1W        W63335  21.543  29.724   2.650 -0.0959 -0.1744 -0.1420
    1W        W63336  17.861   7.700   9.268  0.0873  0.0472 -0.1320
    1W        W63337  11.970  17.459   0.909 -0.4586 -0.0587 -0.2275
    1W        W63338  12.839   3.142   8.793  0.0070 -0.1112 -0.3195
    1W        W63339   9.984  14.771   1.004 -0.4435  0.2635 -0.0238
    1W        W63340  10.677   7.889   1.113  0.2807  0.2302 -0.0252
    1W        W63341  14.391  10.802   7.877  0.1083 -0.1977 -0.2700
    1W        W63342  29.555  16.493   9.011 -0.2308  0.0497 -0.2936
    1W        W63343  25.845   4.561   0.752  0.2101 -0.2737  0.1929
    1W        W63344   9.056   3.877   2.641  0.0495 -0.0430 -0.1245
    1W        W63345  15.564  20.187   1.884 -0.2618 -0.2210 -0.0137
    1W        W63346  21.087  20.072   7.850  0.1478  0.2364  0.2247
    1W        W63347  25.472  14.256   9.174  0.1440 -0.3741  0.1596
    1W        W63348   2.725   0.837   9.390  0.0186 -0.0595  0.2008
    1W        W63349   6.773  19.169   1.419  0.0168 -0.0241  0.0426
    1W        W63350  21.345  25.813   6.831 -0.5668 -0.2250 -0.1845
    1W        W63351  20.593   7.435   9.440 -0.0365  0.0335 -0.0289
    1W        W63352   2.129   7.972   0.182 -0.1111  0.3015 -0.1444
    1W        W63353  24.083  25.161   7.481 -0.0047 -0.2416 -0.0034
    1W        W63354  13.357   9.624   9.256  0.1835 -0.0553  0.1563
    1W        W63355  12.381  18.188   0.053  0.1455  0.0441 -0.1867
    1W        W63356   6.503  20.268   8.765 -0.3557 -0.0071 -0.0541
    1W        W63357  26.988  26.065   6.357 -0.5667 -0.1317 -0.0237
    1W        W63358   5.825   5.248   0.087 -0.0731 -0.0955  0.2260
    1W        W63359  27.883  27.267   8.444 -0.3783  0.1106  0.1066
    1W        W63360  11.242   2.362   3.048  0.2813 -0.1957  0.0081
    1W        W63361  14.997  15.477   8.359 -0.0703 -0.1232 -0.0702
    1W        W63362  18.766  26.957   8.160 -0.3661  0.2820 -0.2048
    1W        W63363   2.271   2.021   2.862  0.0099  0.0880  0.2460
    1W        W63364  17.927  18.188   6.620 -0.1152 -0.3669  0.0316
    1W        W63365   4.920  10.640   7.116  0.0303  0.1340 -0.3020
    1W        W63366  29.575  15.610   1.850 -0.2219  0.0968 -0.0012
    1W        W63367   3.755  29.666   6.296 -0.1098 -0.1058  0.0820
    1W        W63368  26.483   4.964   7.249 -0.1899 -0.3402 -0.2547
    1W        W63369   5.045   0.156   1.711  0.2770 -0.1871 -0.2617
    1W        W63370  29.600  27.364   7.383  0.1401  0.0606  0.1552
    1W        W63371  11.048   5.524   3.633 -0.2037 -0.0074 -0.1286
    1W        W63372   6.233  11.053   9.037  0.0243 -0.1163  0.0118
    1W        W63373   7.129  27.329   9.177 -0.0632  0.0831 -0.1521
    1W        W63374  11.490   5.332   2.762  0.2354 -0.1568  0.0049
    1W        W63375  15.463   4.015   2.635  0.2369  0.0365  0.2137
    1W        W63376   0.127   5.146   7.131  0.0313 -0.1548  0.0775
    1W        W63377  28.694  12.295   0.328  0.0301 -0.0803  0.0598
    1W        W63378   9.098  21.800   0.583  0.0901 -0.1033 -0.0090
    1W        W63379   6.975   7.833   3.142 -0.0806  0.1146  0.1359
    1W        W63380   1.230  15.989   6.595  0.3663 -0.1230  0.2006
    1W        W63381  13.905  21.432   1.461  0.0272 -0.0385 -0.1330
    1W        W63382   3.806   2.152   1.947 -0.0512  0.0266  0.0067
    1W        W63383  16.317   0.151   8.360 -0.2976 -0.1236  0.0130
    1W        W63384   2.020  20.918   8.069  0.1107 -0.0076  0.2029
    1W        W63385  13.890  10.839   1.248 -0.0103  0.0926  0.0767
    1W        W63386  14.459  11.592   0.021 -0.1732  0.2822  0.2495
    1W        W63387  24.679  19.896   0.928 -0.1983  0.2301  0.0115
    1W        W63388  24.354  22.888   8.678 -0.0211  0.2083  0.1030
    1W        W63389  15.721  24.157   9.061  0.4072  0.0096 -0.0404
    1W        W63390  22.044  13.037   0.239 -0.0596  0.1648 -0.0322
    1W        W63391  19.047   5.372   2.568 -0.2100  0.1637 -0.1718
    1W        W63392  27.601  14.731   2.337  0.1835  0.2012 -0.0800
    1W        W63393  27.574  20.397   6.421 -0.1482  0.4040  0.3304
    1W        W63394  19.030  10.785   2.296  0.3060  0.1257  0.2239
    1W        W63395  23.553  18.639   7.873 -0.3105 -0.0677  0.1931
    1W        W63396   6.615  21.086   8.325  0.1688  0.1039  0.1733
    1W        W63397  12.780   2.891   3.577 -0.0762  0.2036  0.0863
    1W        W63398  25.715  19.738   2.482 -0.1574 -0.1698  0.0403
    1W        W63399   4.796  13.167   8.090  0.1868  0.2278 -0.3604
    1W        W63400  13.211  26.572   2.808 -0.2367  0.4111 -0.0164
    1W        W63401  23.672  15.961   0.323  0.1465 -0.0993  0.2304
    1W        W63402  19.277  17.017   1.729 -0.2276 -0.0850  0.0762
    1W        W63403  27.734  14.178   8.181 -0.2851 -0.0800 -0.1598
    1W        W63404  26.190   1.376   8.081 -0.0243 -0.0288  0.2140
    1W        W63405  13.654  11.318   0.459  0.0214  0.2799  0.0377
    1W        W63406   3.812   1.470   3.301  0.1729 -0.5803  0.0803
    1W        W63407  25.381   3.354   2.211 -0.1412 -0.1328 -0.1249
    1W        W63408  16.436  25.381   8.483 -0.1836  0.2326 -0.0167
    1W        W63409  16.048  16.077   9.338 -0.3337  0.3158 -0.1370
    1W        W63410   7.536  18.422   6.688 -0.1183  0.1013 -0.0927
    1W        W63411   7.185  29.496   7.160 -0.1287  0.2143 -0.0274
    1W        W63412  25.923  17.180   0.790  0.0302 -0.0308  0.2803
    1W        W63413  22.419   5.711   2.432  0.1100  0.2561  0.1479
    1W        W63414  10.294  14.312   9.183 -0.5251 -0.1909  0.3656
    1W        W63415  10.678  13.986   2.047  0.0026  0.4145 -0.1223
    1W        W63416  19.344   6.807   2.294 -0.0742  0.0292  0.1826
    1W        W63417   3.182  15.549   7.237 -0.0580  0.1127  0.1604
    1W        W63418  16.358  24.371   0.890  0.0306  0.2644  0.2913
    1W        W63419  28.494  10.477   2.570 -0.2096 -0.3148 -0.2825
    1W        W63420   7.034  29.383   8.376  0.0535  0.2701 -0.0566
    1W        W63421   8.316  13.786   0.712  0.4910  0.1020  0.4543
    1W        W63422   0.634  15.738   1.547  0.0578  0.2154  0.1428
    1W        W63423  10.223   5.391   1.091 -0.3654 -0.0016  0.0638
    1W        W63424  12.324  23.500   6.270 -0.2729  0.3326 -0.0698
    1W        W63425   5.669   2.468   0.748  0.1377  0.3096  0.2032
    1W        W63426  10.323  21.644   7.458 -0.0980 -0.0413  0.2292
    1W        W63427  22.822  15.382   8.669  0.0101  0.0629 -0.2410
    1W        W63428  12.305   6.200   0.526  0.1442 -0.0235 -0.2255
    1W        W63429  14.423   7.196   0.394  0.0653 -0.3058 -0.1906
    1W        W63430   3.827  10.654   8.575  0.0234  0.2165 -0.1034
    1W        W63431   5.239   2.250   7.658 -0.0870  0.2236 -0.0062
    1W        W63432  21.675  16.852   1.389 -0.2642 -0.2898 -0.2024
    1W        W63433  22.900  13.374   1.796 -0.1429  0.1557  0.1127
    1W        W63434   4.390   9.647   1.834  0.0822  0.2406 -0.1363
    1W        W63435  23.474  25.771   1.218  0.2634 -0.2527 -0.0686
    1W        W63436  15.616  20.586   7.330  0.0007 -0.0549  0.0513
    1W        W63437  16.801  27.457   1.905 -0.3545 -0.0729 -0.0129
    1W        W63438  17.192   8.516   6.958  0.2439 -0.0967  0.0681
    1W        W63439  19.930  20.984   0.311  0.1196  0.0624  0.0053
    1W        W63440  27.147  13.361   6.347 -0.1533 -0.0386 -0.2901
    1W        W63441   0.181   0.647   8.628  0.1023  0.1639 -0.1083
    1W        W63442  26.995   9.791   1.935 -0.0628  0.0325  0.1085
    1W        W63443   0.390   5.898   8.623  0.1788 -0.0915  0.2981
    1W        W63444   3.006   9.215   0.339  0.3547 -0.1696  0.2131
    1W        W63445  13.525   2.457   3.208  0.1355  0.0510  0.1097
    1W        W63446  11.172  21.363   1.609  0.2068 -0.1951  0.2421
    1W        W63447  18.995   4.436   7.986 -0.3881 -0.1252 -0.1653
    1W        W63448  10.256  20.340   7.914 -0.0132  0.0900 -0.1544
    1W        W63449   3.552  14.465   2.277 -0.2481  0.2753  0.0036
    1W        W63450  10.934  23.823   8.418 -0.2435  0.1383 -0.2584
    1W        W63451  19.048  21.361   1.138  0.1950  0.4211 -0.2265
    1W        W63452  19.034  12.233   1.293 -0.2669  0.0302  0.4951
    1W        W63453   6.645  23.780   1.991 -0.0746  0.2426 -0.2098
    1W        W63454  11.041  17.250   0.973  0.0507  0.0298  0.0572
    1W        W63455  29.084  24.003   7.851 -0.2226  0.1503  0.0061
    1W        W63456  10.721  24.047   0.551 -0.0180  0.1629  0.0005
    1W        W63457   7.578  14.130   1.340 -0.2018  0.1193  0.0224
    1W        W63458  10.423  20.518   1.753  0.3152 -0.3246 -0.5387
    1W        W63459  17.957  18.658   1.733 -0.0897 -0.2824 -0.1288
    1W        W63460  29.630  18.907   0.889  0.0776  0.2288 -0.2655
    1W        W63461  18.478  24.071   8.286  0.0996  0.0409  0.0156
    1W        W63462  14.951  15.913   9.187  0.0827 -0.1291 -0.2160
    1W        W63463  24.320  29.325   0.283 -0.1849 -0.1330 -0.0612
    1W        W63464  13.363  29.644   7.386 -0.2937  0.0864 -0.3164
    1W        W63465   5.109  11.967   8.408 -0.0910  0.3090  0.0557
    1W        W63466  15.867  15.917   0.752 -0.1541 -0.1915 -0.4452
    1W        W63467   7.914  23.704   8.287  0.0292 -0.2144  0.2405
    1W        W63468  19.561  19.641   2.305  0.0303 -0.0650  0.5648
    1W        W63469   7.851   3.694   2.680  0.0281 -0.1193  0.1464
    1W        W63470  19.595  18.052   7.815 -0.0537  0.2820  0.1157
    1W        W63471   5.031   5.928   7.064 -0.1021  0.2095 -0.3903
    1W        W63472  11.472   4.902   3.011  0.1363  0.0331 -0.3094
    1W        W63473   3.776   4.759   2.642  0.2124 -0.1598  0.0092
    1W        W63474  21.981  26.885   1.308 -0.0523 -0.0762 -0.1850
    1W        W63475  22.655  25.791   0.785  0.2003 -0.3498  0.3588
    1W        W63476  17.431   0.817   7.998 -0.1877 -0.0619 -0.1180
    1W        W63477   6.487   1.405   7.660 -0.0204 -0.0355  0.1114
    1W        W63478   2.870   5.007   6.815 -0.1240 -0.1267  0.0315
    1W        W63479  27.050   6.286   1.341  0.1330  0.2709  0.2535
    1W        W63480  13.968  10.897   9.146  0.0112  0.1354 -0.0463
    1W        W63481   7.613  21.904   9.249 -0.2721 -0.0752  0.0525
    1W        W63482  18.647  28.804   0.452 -0.1110  0.0030  0.1712
    1W        W63483   4.541  28.525   6.755  0.2118 -0.0342 -0.0588
    1W        W63484  21.703  29.870   7.699 -0.0939  0.2157 -0.0028
    1W        W63485  17.794  15.559   6.740  0.1415 -0.1143  0.0069
    1W        W63486  21.385  16.436   1.195  0.0612  0.3644  0.0324
    1W        W63487   2.326  12.051   1.577 -0.0938  0.1424 -0.1316
    1W        W63488  19.070  28.063   0.641 -0.0881 -0.1075 -0.0243
    1W        W63489  12.394  18.750   7.135 -0.4037  0.1600 -0.2577
    1W        W63490  26.788  29.626   3.194 -0.4199 -0.0346  0.0351
    1W        W63491  29.658  24.575   9.237  0.2116  0.0479  0.0034
    1W        W63492  17.189  22.771   7.874  0.2046 -0.0414  0.0698
    1W        W63493  20.387  29.874   1.473 -0.4193  0.1155  0.3958
    1W        W63494  11.701  10.418   2.466 -0.0946 -0.0294 -0.0585
    1W        W63495  22.604  28.971   1.623  0.0334  0.4544  0.0419
    1W        W63496   8.772  22.706   1.536  0.0083  0.1415 -0.0374
    1W        W63497  20.916   6.693   7.698  0.0040 -0.1088  0.1213
    1W        W63498  24.584  18.175   6.843  0.2628 -0.2146 -0.0337
    1W        W63499   2.853   8.362   7.301  0.2000 -0.1368  0.3480
    1W        W63500   2.390  15.365   1.028 -0.0911  0.5050  0.1920
    1W        W63501  13.399   4.974   2.289  0.0473 -0.0609 -0.1792
    1W        W63502  16.366  12.267   2.819 -0.2520  0.3146 -0.1956
    1W        W63503  10.245   7.750   9.428  0.0607 -0.1260 -0.3373
    1W        W63504   1.025  20.611   1.068  0.3126 -0.0871  0.2433
    1W        W63505  13.699  27.649   7.301  0.1774 -0.0477 -0.0152
    1W        W63506  25.490  20.527   0.432 -0.0296  0.3431 -0.4474
    1W        W63507   9.735  15.334   1.595 -0.0235  0.1074  0.1361
    1W        W63508   1.662  12.958   7.794 -0.3047  0.2473  0.3819
    1W        W63509  28.842   7.871   1.710 -0.0612 -0.0646 -0.2763
    1W        W63510  11.495  29.632   8.002  0.1619  0.3642 -0.0628
    1W        W63511  12.242   0.343   1.337  0.0536  0.0083  0.0582
    1W        W63512   0.533  19.285   0.487  0.3950 -0.0146  0.1846
    1W        W63513   4.885  19.853   7.213 -0.0652  0.0958  0.0639
    1W        W63514  21.153  29.595   8.844 -0.1022  0.3129 -0.3860
    1W        W63515  12.773  24.789   1.632  0.1494  0.2363 -0.0684
    1W        W63516  21.142  23.660   7.293 -0.3365  0.1606  0.1298
    1W        W63517  21.519   4.147   7.426 -0.2479 -0.0499  0.2597
    1W        W63518  11.364  29.022   0.420 -0.0189  0.0773 -0.0181
    1W        W63519  12.136   0.279   7.767 -0.2678 -0.1517 -0.3093
    1W        W63520  21.935  14.884   7.613  0.2487 -0.1834  0.0312
    1W        W63521  26.685   6.147   7.596 -0.1557 -0.0176  0.2706
    1W        W63522   5.917   8.179   8.956  0.0293  0.1536  0.2013
    1W        W63523   0.894  22.910   7.370  0.0615  0.1272  0.0213
    1W        W63524  24.555  17.391   8.251  0.0448  0.0804  0.2376
    1W        W63525  18.783  13.505   7.448 -0.0161 -0.0252  0.1849
    1W        W63526   0.370  11.630   2.020  0.0083 -0.4588  0.2127
    1W        W63527  21.180   5.896   8.442 -0.0782  0.0360  0.1538
    1W        W63528   2.779  20.675   0.030 -0.2009  0.2407 -0.1104
    1W        W63529  20.155   0.636   9.252  0.1825 -0.1272 -0.2068
    1W        W63530  18.086  28.091   8.558  0.1695 -0.1543 -0.1731
    1W        W63531  16.895  21.810   8.061 -0.0005 -0.1472 -0.0734
    1W        W63532  10.607  19.762   8.682 -0.1793  0.0130  0.1104
    1W        W63533  14.693  12.755   8.953 -0.2836  0.0080  0.0681
    1W        W63534   9.621  21.322   6.887  0.1856 -0.3661  0.1987
    1W        W63535   5.197  29.153   9.432  0.0394 -0.1025 -0.0430
    1W        W63536  18.940  27.474   8.378  0.0586 -0.0824  0.1382
    1W        W63537  20.471  16.018   0.477  0.2885 -0.1628  0.6492
    1W        W63538   1.163  26.272   5.753 -0.3419  0.1791  0.0115
    1W        W63539  22.055   4.291   8.087  0.2022  0.1633  0.2081
    1W        W63540  17.757  26.173   1.720 -0.4525 -0.1980  0.2631
    1W        W63541  28.839  27.074   6.969 -0.2402  0.1882  0.2321
    1W        W63542  16.171   8.506   9.007 -0.3343 -0.1717 -0.3572
    1W        W63543  25.920  12.268   2.185  0.1439 -0.1808  0.1882
    1W        W63544   8.343   2.940   7.463 -0.0784 -0.1228 -0.3535
    1W        W63545  24.576  28.589   1.930  0.0001  0.1654  0.1645
    1W        W63546  29.075  12.541   7.861  0.2111  0.2875  0.3090
    1W        W63547   3.910  20.531   0.682  0.1839 -0.1084 -0.1121
    1W        W63548  20.219  28.054   8.472 -0.1352  0.3384  0.1109
    1W        W63549   6.567  14.113   6.699  0.0774 -0.0817  0.1964
    1W        W63550   4.808  11.577   0.023  0.2912  0.2129  0.1916
    1W        W63551   4.485   1.903   9.100  0.3363  0.2004  0.2063
    1W        W63552  25.420  17.082   9.015  0.1903  0.1944  0.1662
    1W        W63553  27.144  13.053   8.300 -0.0349 -0.4904  0.0900
    1W        W63554  28.079  21.916   8.839  0.2071 -0.2436 -0.0520
    1W        W63555  28.675  14.383   0.485  0.1672  0.1374  0.0587
    1W        W63556  14.830   1.504   9.146 -0.1957  0.3470 -0.0532
    1W        W63557  29.139  25.608   8.689  0.0002 -0.0489 -0.1632
    1W        W63558   1.281  15.784   0.833  0.0639 -0.1454 -0.1529
    1W        W63559   6.874  22.011   7.620  0.0945 -0.0919 -0.0126
    1W        W63560   8.862  26.326   8.918 -0.1448  0.1287 -0.1168
    1W        W63561   8.354  16.342   1.376  0.0362  0.0483 -0.0039
    1W        W63562  22.091  23.422   7.588 -0.0388 -0.2003  0.2840
    1W        W63563  26.896  18.859   3.061 -0.1327 -0.1272 -0.0427
    1W        W63564   9.458  16.861   7.955  0.1074  0.3016  0.1363
    1W        W63565  18.510   5.743   1.847  0.1568  0.3241 -0.1716
    1W        W63566   8.994   5.761   8.147  0.2241 -0.1426  0.0606
    1W        W63567  17.022   4.641   0.368 -0.3070 -0.1534 -0.1339
    1W        W63568  14.750   0.741   3.238 -0.0564  0.0637  0.0213
    1W        W63569  29.198  15.068   0.620  0.0855  0.0725 -0.0697
    1W        W63570  23.460  29.893   1.069 -0.3746 -0.0560  0.1527
    1W        W63571  16.646   4.602   1.978 -0.0006 -0.1840 -0.0663
    1W        W63572   8.214  29.487   7.579  0.1005  0.0260 -0.1630
    1W        W63573  15.360  13.653   1.485 -0.0514  0.2973 -0.0865
    1W        W63574   5.688  12.672   8.387 -0.2475  0.3595  0.0820
    1W        W63575  15.219  13.680   0.438 -0.3568  0.1353  0.3774
    1W        W63576   2.414   4.649   1.530  0.0305 -0.4112  0.0212
    1W        W63577  29.638  20.128   0.762  0.2617  0.3970  0.0621
    1W        W63578   6.456   1.888   7.514  0.1643  0.0681 -0.0391
    1W        W63579  29.859  13.766   0.975 -0.0608  0.0558  0.1878
    1W        W63580  11.575   4.487   0.762  0.3729 -0.3177  0.0011
    1W        W63581  11.134   7.944   0.852 -0.3014 -0.1928  0.1275
    1W        W63582  28.052  21.359   7.635 -0.0272 -0.2205 -0.0036
    1W        W63583  22.069   8.193   1.117  0.0080 -0.0331  0.2538
    1W        W63584  26.533  27.365   3.077 -0.0420 -0.0172 -0.0003
    1W        W63585   3.618   2.938   2.961 -0.2258  0.3401 -0.0191
    1W        W63586   9.118  23.587   9.029  0.3295  0.3829 -0.0831
    1W        W63587  18.837   7.517   0.979 -0.0161  0.1152  0.1066
    1W        W63588   2.935   8.791   8.233  0.2740 -0.0397  0.0498
    1W        W63589   8.176   0.629   2.433 -0.2539  0.0590  0.0601
    1W        W63590   8.990   9.850   8.665  0.2496  0.3428  0.0782
    1W        W63591  12.226  25.107   0.209 -0.0268  0.1599 -0.0722
    1W        W63592   7.088  28.478   1.676  0.1107 -0.1081  0.0950
    1W        W63593  12.669  23.853   8.403 -0.0474 -0.2773 -0.0796
    1W        W63594   3.220  26.852   0.496  0.0001  0.1563  0.4035
    1W        W63595  16.542   4.750   0.258  0.1036 -0.1940  0.3145
    1W        W63596   7.385  10.013   3.438  0.0977  0.0505  0.0223
    1W        W63597  18.160   6.264   0.067  0.0287  0.0185  0.3699
    1W        W63598  11.611  16.553   8.372  0.1844 -0.1902  0.1408
    1W        W63599   6.664  14.257   9.132  0.0919 -0.4390 -0.0880
    1W        W63600  24.208   0.109   6.862  0.1344  0.1592 -0.0152
    1W        W63601  15.972  16.109   7.205 -0.1180  0.0144  0.3464
    1W        W63602  17.423   0.570   2.701  0.1698 -0.1186  0.4195
    1W        W63603   1.678  16.888   1.079  0.1855  0.1665 -0.2700
    1W        W63604   7.195  28.404   8.401  0.0599  0.1313  0.0577
    1W        W63605   8.896  29.122   1.973 -0.1944 -0.0240  0.0036
    1W        W63606  16.582   0.345   1.315 -0.2361 -0.0430 -0.1481
    1W        W63607  15.601  23.247   8.400  0.0667 -0.1074  0.0672
    1W        W63608  29.330  29.400   1.741  0.1299  0.3554 -0.0344
    1W        W63609  23.308  29.497   1.390 -0.0504 -0.1065 -0.0158
    1W        W63610  29.696   2.775   0.501 -0.0273  0.2896 -0.0542
    1W        W63611  25.062  27.718   3.008  0.1079  0.1453  0.1177
    1W        W63612   5.175   1.244   2.661  0.3331  0.1624  0.0895
    1W        W63613  12.456  24.097   6.774  0.0230  0.0274 -0.1133
    1W        W63614  29.722  15.639   9.402 -0.0220 -0.3303 -0.0417
    1W        W63615   0.196   1.739   7.890  0.0663  0.3967 -0.1557
    1W        W63616  23.443  11.057   2.281  0.1674 -0.3417  0.1871
    1W        W63617   6.974   2.785   1.971  0.2396 -0.0240  0.0015
    1W        W63618  26.103  15.955   8.484 -0.1592  0.0651 -0.0873
    1W        W63619   8.555   6.567   2.531 -0.0284  0.2403  0.2904
    1W        W63620  14.189  29.147   0.043 -0.1586  0.1970  0.1280
    1W        W63621  28.844  26.197   0.419 -0.1072 -0.0433 -0.1146
    1W        W63622  18.275  16.222   9.444  0.0542  0.0464  0.1246
    1W        W63623  19.176  13.862   2.319  0.3342  0.1165  0.3152
    1W        W63624   8.865  28.848   9.175  0.2410 -0.1600 -0.0095
    1W        W63625   1.467   2.332   7.210  0.1017 -0.2338 -0.2582
    1W        W63626  29.113   7.006   1.515  0.0266 -0.0279  0.0968
    1W        W63627   8.013   3.378   7.355  0.3953 -0.0931 -0.0194
    1W        W63628  11.081  26.639   0.034  0.2734  0.0934  0.0607
    1W        W63629  12.713  18.561   0.459 -0.0941 -0.3830  0.0238
    1W        W63630   0.196   8.274   1.498  0.1095 -0.1319  0.3100
    1W        W63631   5.903  10.921   0.469 -0.1263 -0.1370 -0.0134
    1W        W63632   4.449  10.520   0.827  0.1186  0.0767 -0.2788
    1W        W63633  21.792   2.779   7.864  0.3179 -0.2592  0.2490
    1W        W63634   7.749   9.896   1.524  0.0937  0.1132  0.1833
    1W        W63635  29.250   1.220   7.455 -0.0281  0.0117 -0.1264
    1W        W63636  24.490   9.488   8.196  0.4201 -0.0335  0.0690
    1W        W63637   5.983   1.414   0.515 -0.0266 -0.0246  0.0617
    1W        W63638  25.904  10.557   9.205 -0.0460 -0.3724 -0.0658
    1W        W63639   0.069   6.390   1.644 -0.2300  0.2075  0.1908
    1W        W63640  28.173   7.616   7.883 -0.1349 -0.1368  0.1176
    1W        W63641  23.722   1.859   0.583 -0.0861 -0.2693  0.2089
    1W        W63642   4.998  20.194   0.947 -0.2812  0.1743  0.3630
    1W        W63643   6.832  10.222   8.802  0.2981 -0.0165 -0.0168
    1W        W63644   7.218  21.628   7.987 -0.0927 -0.2300 -0.2427
    1W        W63645   8.560   7.138   0.501  0.0154  0.4774  0.2013
    1W        W63646   4.031   3.758   1.070 -0.1319 -0.0376  0.0538
    1W        W63647  21.463  29.270   2.320  0.0119 -0.2077 -0.2381
    1W        W63648   0.379  10.613   8.406 -0.1055 -0.1100  0.0007
    1W        W63649  25.510  12.289   0.919 -0.1761 -0.1068 -0.0341
    1W        W63650   5.703  10.741   7.937 -0.0783  0.1977 -0.0660
    1W        W63651  25.885  20.506   2.825 -0.2287  0.1299 -0.4144
    1W        W63652  25.975   4.561   7.946  0.3602 -0.1465  0.2240
    1W        W63653  22.154   6.852   0.507 -0.1852 -0.3668  0.1291
    1W        W63654   7.732  29.479   2.442 -0.1433 -0.3332 -0.1774
    1W        W63655   4.887  19.463   0.795  0.0895  0.0142  0.0282
    1W        W63656   1.576  26.508   7.250 -0.1152 -0.2092 -0.0893
    1W        W63657   8.522  29.664   7.068  0.3499  0.0553 -0.2541
    1W        W63658  14.471  17.351   6.956 -0.1036 -0.0451  0.1697
    1W        W63659  29.614  24.194   0.921  0.4606  0.0318  0.3513
    1W        W63660   2.669  23.169   9.111  0.1967 -0.4002  0.1501
    1W        W63661  14.739  20.566   0.920  0.1697 -0.2349  0.1352
    1W        W63662  25.419   5.016   2.670  0.2163  0.0655 -0.1352
    1W        W63663  14.292  16.820   1.783  0.1778  0.1646  0.1857
    1W        W63664  19.795   6.613   8.483  0.0664  0.0709 -0.1864
    1W        W63665  17.186   3.499   0.440  0.1846  0.3006 -0.2569
    1W        W63666  21.550  23.466   0.049 -0.1609  0.1738  0.0538
    1W        W63667  22.495  18.536   9.435 -0.2392 -0.0130 -0.0914
    1W        W63668   3.878  23.293   8.058  0.0043 -0.0080 -0.2815
    1W        W63669  25.008  25.215   7.002 -0.1835  0.0217  0.1947
    1W        W63670  24.924  27.043   7.873 -0.3312  0.1536  0.4538
    1W        W63671   3.834  29.456   1.166  0.0756 -0.1538 -0.1249
    1W        W63672  24.068   8.843   0.519 -0.0141  0.1112 -0.1129
    1W        W63673   4.246   9.960   8.167 -0.3014 -0.2923 -0.2915
    1W        W63674  14.510   2.815   0.188 -0.1149  0.1613 -0.2451
    1W        W63675  26.394  15.152   7.466  0.0457 -0.4847 -0.0545
    1W        W63676   5.205  21.346   0.244 -0.1159  0.0667  0.1827
    1W        W63677  26.219   9.014   8.569  0.0357 -0.0892  0.2038
    1W        W63678  26.598  20.135   7.546  0.0487 -0.1056  0.2351
    1W        W63679  14.491  14.985   1.414 -0.1643  0.0969  0.0498
    1W        W63680  19.245   1.703   7.496 -0.0658 -0.1119  0.1292
    1W        W63681   0.505  25.029   8.502 -0.0507 -0.1285  0.0502
    1W        W63682  18.123  15.064   1.709  0.1716 -0.4995  0.1865
    1W        W63683  26.607  10.235   0.739  0.1665 -0.1290  0.1359
    1W        W63684  19.448   4.199   7.924  0.1082 -0.4144 -0.1587
    1W        W63685  26.393   6.382   7.262  0.0283  0.2071  0.1201
    1W        W63686  18.011  15.233   8.682  0.0998  0.1062 -0.0841
    1W        W63687   4.401  22.799   0.253 -0.0025  0.1815  0.0066
    1W        W63688  22.953  29.787   1.737 -0.1802  0.0572 -0.1169
    1W        W63689  25.452  25.387   0.285  0.0194  0.1817  0.1596
    1W        W63690   6.981   9.476   9.344 -0.0759  0.0624  0.0398
    1W        W63691   0.030  22.110   6.595 -0.0770  0.0706  0.0472
    1W        W63692   6.584  20.522   6.756 -0.1802  0.0108 -0.0035
    1W        W63693   3.926  10.510   3.024 -0.1560 -0.0530 -0.1007
    1W        W63694  28.652  27.542   8.973  0.1689  0.0351  0.0505
    1W        W63695   7.303   2.852   1.619 -0.2163  0.4539  0.0411
    1W        W63696  21.717  19.037   1.787  0.1819 -0.0473  0.2068
    1W        W63697   4.198   6.681   0.948  0.0110 -0.0142  0.1780
    1W        W63698  28.751  11.226   9.402 -0.0247  0.1150  0.0156
    1W        W63699  27.251  15.022   1.983  0.1238 -0.1654 -0.3051
    1W        W63700  24.982  28.614   0.250 -0.3005  0.1190 -0.1036
    1W        W63701  26.912  21.044   0.171  0.2990 -0.0828  0.0599
    1W        W63702  21.201  23.933   7.974 -0.2842  0.0738 -0.0634
    1W        W63703  26.841  15.425   7.530 -0.0683 -0.1683  0.0436
    1W        W63704  13.307  16.903   2.231 -0.0472  0.0593 -0.1473
    1W        W63705  25.895  15.810   7.134 -0.0819  0.1342 -0.2239
    1W        W63706  27.518  25.985   7.630  0.4706  0.0849  0.1077
    1W        W63707   7.206   5.046   1.690  0.4013  0.1619  0.0290
    1W        W63708  17.629  22.440   1.900 -0.2530  0.0713  0.0160
    1W        W63709  24.095  22.493   7.683  0.0261 -0.0331 -0.1053
    1W        W63710  11.719   8.396   9.193 -0.0194 -0.1093  0.0593
    1W        W63711   8.302   9.766   0.499 -0.0775 -0.1998 -0.2998
    1W        W63712   0.128  20.896   7.820  0.0343 -0.0400  0.2088
    1W        W63713   1.094  27.619   9.151  0.0508  0.0692 -0.1011
    1W        W63714  16.343  27.130   9.027 -0.0857  0.3878 -0.1397
    1W        W63715  18.493  15.450   7.420 -0.1712  0.2277  0.0953
    1W        W63716  23.628  15.901   7.751 -0.0410  0.1748  0.0342
    1W        W63717   0.817  15.968   2.012 -0.0207  0.2576  0.1639
    1W        W63718  29.866   1.964   8.687 -0.0471 -0.0972 -0.0915
    1W        W63719   4.555   5.752   0.267  0.0361 -0.1218  0.3274
    1W        W63720  16.477  11.033   7.219  0.0537  0.0719 -0.0688
    1W        W63721  29.752   1.150   7.477 -0.0551 -0.0801 -0.0855
    1W        W63722  14.239   9.898   2.242 -0.0683 -0.0383 -0.1898
    1W        W63723  25.129   4.172   6.584 -0.3033  0.3337  0.1029
    1W        W63724   7.237  11.285   2.092  0.0507 -0.1189  0.0791
    1W        W63725  20.388  13.617   7.365 -0.0923 -0.0610 -0.0253
    1W        W63726   2.183   6.773   0.762 -0.0581 -0.0983  0.0141
    1W        W63727   4.507   0.580   7.797  0.0551  0.3875 -0.1861
    1W        W63728  25.368   3.793   7.412  0.1330 -0.3554  0.4082
    1W        W63729   8.380   6.750   0.163 -0.1707  0.2031  0.0461
    1W        W63730  24.602   1.815   0.245  0.0487 -0.0524  0.1374
    1W        W63731  20.966   2.055   7.003 -0.0483  0.1354 -0.2867
    1W        W63732  29.479  19.990   5.890  0.0812  0.0544 -0.1611
    1W        W63733   0.195  12.071   0.007  0.0096 -0.0094 -0.1310
    1W        W63734  27.001  22.060   1.990 -0.0151 -0.0720 -0.2432
    1W        W63735  28.903  23.094   8.826  0.2278 -0.2008  0.1729
    1W        W63736  12.535  20.227   9.322 -0.1568  0.0292  0.0980
    1W        W63737  13.535  28.149   1.522 -0.3838 -0.0871 -0.0099
    1W        W63738  16.106  24.136   1.638 -0.2502  0.1623  0.0720
    1W        W63739  16.774  18.079   9.236  0.1105  0.3398  0.2423
    1W        W63740  21.299  27.885   8.009 -0.2088 -0.5809 -0.0649
    1W        W63741  11.347   2.179   6.961  0.2554 -0.4251  0.3231
    1W        W63742  21.989  14.025   2.386 -0.0973  0.1999 -0.2009
    1W        W63743  28.359   2.001   9.149  0.0188 -0.3689  0.0246
    1W        W63744  19.108  14.168   1.878 -0.1173  0.2311 -0.0906
    1W        W63745   8.966   9.358   1.208 -0.3055  0.3751 -0.0844
    1W        W63746  11.593  22.544   8.061  0.0830 -0.2539  0.0771
    1W        W63747   6.351   4.834   8.234  0.0300 -0.2311 -0.2444
    1W        W63748   7.431   5.251   7.496  0.2439 -0.1455  0.0963
    1W        W63749   4.020  27.236   8.798  0.0853 -0.1181 -0.2740
    1W        W63750  22.602  23.308   7.217 -0.0757  0.0527 -0.1370
    1W        W63751  29.799   8.275   7.552  0.0270 -0.0249  0.2737
    1W        W63752  16.347  10.113   1.901 -0.2209 -0.0324  0.0734
    1W        W63753   4.286  18.366   2.073 -0.0044 -0.2187  0.0148
    1W        W63754  15.499   7.386   6.522  0.1280  0.2368 -0.0188
    1W        W63755  23.609  29.293   0.900  0.2459  0.2270  0.0265
    1W        W63756  28.825  29.259   0.537  0.2463 -0.0443  0.0502
    1W        W63757   1.111  22.286   1.657  0.2638 -0.0449  0.1236
    1W        W63758  28.702  29.536   0.118  0.0217  0.3804 -0.0797
    1W        W63759  20.494   0.537   8.634 -0.0613  0.2125 -0.0519
    1W        W63760  23.175  13.953   8.922  0.0757 -0.0881  0.0929
    1W        W63761   4.758   1.052   0.446 -0.0118 -0.0425 -0.2223
    1W        W63762  17.986  21.098   8.991  0.3324  0.0751 -0.2108
    1W        W63763   8.930  18.187   2.585 -0.1207  0.0952 -0.0292
    1W        W63764  22.888  17.463   9.211  0.0180  0.1126  0.2107
    1W        W63765  29.312  13.313   0.068 -0.2921  0.0430 -0.1037
    1W        W63766   1.015  14.101   0.081  0.3042  0.1805 -0.1044
    1W        W63767   5.864  24.212   7.901  0.1585 -0.0413  0.1002
    1W        W63768  24.289   6.374   9.033  0.1796  0.6650 -0.0206
    1W        W63769  13.294  26.781   6.820  0.0918  0.0636 -0.1848
    1W        W63770  15.408  22.949   9.434 -0.0735 -0.0315 -0.2329
    1W        W63771   4.392   7.685   7.256  0.2748 -0.2645 -0.2652
    1W        W63772   4.705  21.993   6.758 -0.0889 -0.2484  0.1337
    1W        W63773  20.432  17.134   7.476 -0.0839 -0.1817  0.1728
    1W        W63774  11.125   8.118   8.487  0.2309  0.0745  0.0296
    1W        W63775  20.560   4.762   1.440  0.1629 -0.0554 -0.0647
    1W        W63776   9.099   2.429   2.820 -0.1332 -0.1941  0.1718
    1W        W63777   4.807   4.114   3.507  0.1783 -0.2114 -0.2362
    1W        W63778  19.879   9.083   1.403  0.1249  0.0272 -0.0834
    1W        W63779  29.396  20.777   8.326 -0.0008 -0.3904 -0.2235
    1W        W63780  24.778  11.321   5.910  0.1434  0.0908  0.0381
    1W        W63781  21.929   4.341   7.195 -0.1804 -0.1799 -0.0663
    1W        W63782  17.737   4.904   1.476 -0.0745 -0.2202  0.4022
    1W        W63783  28.473  10.272   8.134  0.0694 -0.0756  0.2524
    1W        W63784   7.658   6.946   2.497 -0.0830  0.1794  0.0596
    1W        W63785   3.424   7.919   7.748 -0.1495 -0.4077  0.1801
    1W        W63786  19.401  18.265   1.761  0.1922 -0.1541  0.3470
    1W        W63787  21.397  25.040   2.238 -0.2228 -0.1181 -0.3254
    1W        W63788  11.514  20.889   2.662 -0.1412 -0.3278  0.0192
    1W        W63789  23.306  12.058   6.596 -0.3898 -0.5087 -0.2502
    1W        W63790  18.718  23.957   3.468 -0.2238 -0.0575  0.2579
    1W        W63791  21.472   2.261   8.519 -0.0347 -0.0998 -0.0612
    1W        W63792  18.445   4.806   2.563 -0.0197  0.2398  0.0418
    1W        W63793  26.121  23.234   1.322  0.1129  0.0950 -0.2638
    1W        W63794   4.814  19.735   1.237 -0.1600  0.1090  0.1313
    1W        W63795  12.256  16.497   8.608 -0.0523 -0.0555 -0.1623
    1W        W63796   1.681   5.927   7.393 -0.0488 -0.2152  0.0133
    1W        W63797   2.176  19.343   1.490  0.1657  0.1285 -0.2577
    1W        W63798  21.226  16.784   0.569  0.0219 -0.2481 -0.0475
    1W        W63799  15.955  23.381   2.770 -0.4622 -0.3690  0.2244
    1W        W63800  13.238   4.249   6.736 -0.0277  0.1839 -0.1377
    1W        W63801  23.852  20.222   1.267  0.3792 -0.0253 -0.1050
    1W        W63802  29.277  20.635   7.019  0.0757 -0.0107  0.0577
    1W        W63803   9.214  10.671   0.187 -0.1336  0.0828 -0.0696
    1W        W63804  27.602   4.680   9.204 -0.3032  0.0868 -0.4802
    1W        W63805  27.741  29.510   0.872  0.1461  0.3378  0.0736
    1W        W63806   9.246  19.715   0.843  0.3241 -0.1321 -0.3156
    1W        W63807  27.552  10.627   8.492  0.2233  0.1806 -0.0599
    1W        W63808  23.241   9.664   7.145 -0.0554 -0.0381 -0.1609
    1W        W63809  17.994   8.206   2.613 -0.1261 -0.2546  0.0408
    1W        W63810   9.975  23.072   8.899 -0.0109  0.2939 -0.1212
    1W        W63811  16.386  25.786   0.582  0.1308  0.1865 -0.4179
    1W        W63812  19.240  29.220   6.913  0.0258  0.1160 -0.3560
    1W        W63813  14.154  12.393   8.049  0.0280 -0.4024 -0.1844
    1W        W63814  29.756  23.956   7.524 -0.0238  0.0732  0.1778
    1W        W63815  23.784  21.693   6.659  0.3263 -0.0910  0.1331
    1W        W63816  25.148   7.418   1.218  0.1106  0.1682  0.0085
    1W        W63817   5.647  18.327   0.416  0.2123  0.0909 -0.1667
    1W        W63818   6.848   8.078   8.671  0.1120 -0.0168  0.3493
    1W        W63819  11.644   0.312   7.644 -0.0208 -0.1088  0.0537
    1W        W63820   1.637   3.744   2.069 -0.1206 -0.1096 -0.0987
    1W        W63821   9.174  29.284   7.486 -0.2907 -0.4872  0.2155
    1W        W63822  21.723   9.808   5.943  0.1116 -0.1449  0.2363
    1W        W63823   2.399   2.417   6.837 -0.0586  0.5105 -0.0812
    1W        W63824  21.953  19.089   8.273 -0.2301 -0.0132 -0.2985
    1W        W63825  24.536   8.736   7.201  0.1157  0.0884  0.2951
    1W        W63826   9.712  15.154   7.694 -0.1129  0.0481  0.0194
    1W        W63827   1.771   2.640   7.617  0.0669 -0.0353  0.0867
    1W        W63828  16.994  17.593   8.090  0.0902  0.3512 -0.1499
    1W        W63829  19.155   0.279   0.512  0.0201 -0.0118 -0.1394
    1W        W63830  14.721   4.201   2.132 -0.3125 -0.0107 -0.0119
    1W        W63831  22.468  24.221   2.874  0.1476 -0.0844 -0.1467
    1W        W63832  27.596  10.267   7.108  0.2208  0.2002  0.0717
    1W        W63833  13.632  14.151   2.058  0.1920 -0.1562 -0.2006
    1W        W63834  18.988  10.581   6.327  0.0357  0.1675  0.1723
    1W        W63835  13.398  16.543   7.588 -0.0348  0.1765 -0.1447
    1W        W63836   6.470  16.837   7.893  0.0128 -0.2955  0.2804
    1W        W63837  18.750  17.442   1.919  0.1897 -0.0375 -0.3616
    1W        W63838  20.693  18.899   7.737 -0.2008 -0.2799  0.3721
    1W        W63839  26.987  10.398   7.380 -0.0838 -0.0070  0.1527
    1W        W63840  13.296  17.826   1.814  0.0705  0.0619 -0.1617
    1W        W63841   2.944  28.602   2.079 -0.1727 -0.0812  0.0720
    1W        W63842  23.387   3.462   2.432 -0.0472  0.0400 -0.1777
    1W        W63843   0.342  13.258   7.100  0.0816 -0.2719 -0.2096
    1W        W63844  11.375  10.777   2.291  0.0921  0.1167  0.1493
    1W        W63845  18.218  24.753   8.611 -0.0288 -0.2832 -0.1595
    1W        W63846  16.047  17.924   2.263 -0.2028  0.0036 -0.1099
    1W        W63847  22.244   7.841   7.363  0.0247 -0.0661 -0.2538
    1W        W63848  12.346  27.098   9.293 -0.1019 -0.2113 -0.1893
    1W        W63849  17.562  15.720   9.360  0.1155  0.0419  0.0930
    1W        W63850  12.718  29.415   9.024  0.0081  0.1796  0.0248
    1W        W63851  26.844  19.595   6.142 -0.3205  0.2634  0.2168
    1W        W63852  12.333  16.292   8.147 -0.1376 -0.0632  0.0389
    1W        W63853   8.771  16.968   8.826 -0.2547 -0.1351  0.0157
    1W        W63854  16.554  29.328   9.182  0.0998  0.1081 -0.1066
    1W        W63855  15.230  22.221   0.777  0.0280  0.2642  0.1260
    1W        W63856  17.174  28.265   2.691  0.1670 -0.0857  0.1008
    1W        W63857  26.871  13.458   7.699 -0.0627  0.2072  0.1432
    1W        W63858   3.367   5.623   0.416 -0.4020  0.2156  0.0990
    1W        W63859  13.064   5.592   8.271 -0.0935 -0.1061 -0.0231
    1W        W63860  14.795   0.756   2.118 -0.0285  0.1625 -0.2114
    1W        W63861  29.093   0.130   1.513  0.2264 -0.3289 -0.1241
    1W        W63862  23.454  24.258   8.416  0.1351 -0.0316 -0.3751
    1W        W63863  23.917  16.019   1.188 -0.1532  0.3817 -0.1002
    1W        W63864  29.364   1.643   0.717  0.1390 -0.2767  0.0476
    1W        W63865  25.293   8.560   2.333  0.0481 -0.1484 -0.1363
    1W        W63866  22.652  23.599   8.389  0.3617  0.3538  0.0503
    1W        W63867  26.527  25.214   9.019 -0.0122  0.0649  0.1553
    1W        W63868  28.256  18.273   2.471 -0.1105  0.3612 -0.0966
    1W        W63869  21.284  10.042   1.054  0.0700 -0.3106 -0.0391
    1W        W63870  27.726   8.402   1.311  0.1305  0.0078 -0.1712
    1W        W63871  14.279  21.687   2.701  0.4365 -0.1205  0.2768
    1W        W63872  15.286  17.878   1.171  0.0977  0.0015 -0.4239
    1W        W63873   9.681  12.532   2.155 -0.2686  0.0577 -0.1758
    1W        W63874   5.978  19.825   6.829 -0.1942 -0.1538  0.2020
    1W        W63875  22.795  24.350   7.775 -0.0768  0.1725 -0.1638
    1W        W63876  15.386   1.871   8.276 -0.0294 -0.3734 -0.0240
    1W        W63877   5.452  19.012   6.731  0.0935 -0.1130 -0.0798
    1W        W63878  12.692   1.519   7.910 -0.0424 -0.1754 -0.4337
    1W        W63879  24.747  15.490   8.946  0.1830  0.1214 -0.3769
    1W        W63880  13.838   4.968   7.555 -0.1675 -0.2609 -0.0890
    1W        W63881   8.793  26.907   1.031 -0.0287 -0.2433 -0.0681
    1W        W63882  28.462  23.207   2.130 -0.0084  0.1909 -0.4012
    1W        W63883  15.600  28.943   2.499 -0.1159  0.1472 -0.0433
    1W        W63884  16.701  14.811   0.418  0.0592 -0.1794 -0.1043
    1W        W63885  13.431   3.232   2.636 -0.0064 -0.1729  0.1075
    1W        W63886   1.465  23.579   0.330 -0.2982  0.0904 -0.0693
    1W        W63887   7.807  27.259   0.861  0.3649 -0.0816 -0.3212
    1W        W63888   2.895  14.438   8.231 -0.1611 -0.0012  0.0487
    1W        W63889  22.280  12.502   1.742  0.2725  0.0061  0.1321
    1W        W63890  13.298  29.582   0.573 -0.1287 -0.1575  0.0192
    1W        W63891  28.397  26.001   0.175 -0.3837  0.0723  0.2299
    1W        W63892   7.852   8.189   2.249 -0.0925 -0.1586 -0.1037
    1W        W63893  16.612   9.695   8.861 -0.1506 -0.0016  0.1670
    1W        W63894   2.883  24.853   0.171 -0.0762  0.0028 -0.2159
    1W        W63895  23.168   8.037   8.107 -0.0393 -0.0951  0.0301
    1W        W63896  18.415  16.072   1.845  0.2833 -0.0672 -0.1248
    1W        W63897  25.920   1.317   2.701  0.1582 -0.1545  0.2579
    1W        W63898  15.224  17.548   8.835  0.0710 -0.3002 -0.0353
    1W        W63899  13.498   5.937   6.842 -0.0714  0.1236  0.1842
    1W        W63900   6.848   0.729   2.781  0.1666 -0.2923  0.1170
    1W        W63901  29.854   9.455   1.145 -0.0016 -0.0970 -0.0964
    1W        W63902  16.019  18.455   6.609  0.0252 -0.1417  0.0020
    1W        W63903  16.501  15.199   6.968  0.5682  0.1257 -0.0797
    1W        W63904  11.412  16.241   7.749 -0.0818 -0.1797  0.0624
    1W        W63905  29.759  20.453   7.047  0.0618  0.3577  0.0199
    1W        W63906  27.968  26.246   2.359  0.0551  0.2511 -0.2222
    1W        W63907   7.968   0.638   0.835 -0.1406 -0.1121 -0.1650
    1W        W63908  16.648   4.300   0.412 -0.2121  0.1346  0.0048
    1W        W63909   8.495   1.520   8.632 -0.0097 -0.1840 -0.0599
    1W        W63910  28.725   5.779   7.336  0.0335 -0.5696 -0.2127
    1W        W63911  22.824  26.692   0.498  0.2857  0.0706  0.2545
    1W        W63912  29.132  14.808   6.954  0.0349 -0.3681 -0.1025
    1W        W63913   9.080  25.835   8.616  0.0317  0.0134 -0.3325
    1W        W63914  29.033   6.119   7.492  0.1754 -0.0802  0.1950
    1W        W63915  13.001  19.940   9.127 -0.0640  0.1885 -0.2391
    1W        W63916  18.384   3.155   7.871  0.0112  0.2343 -0.0215
    1W        W63917  18.062  26.563   1.595  0.1949 -0.0034 -0.1848
    1W        W63918  21.800  22.250   0.928  0.0379  0.2560  0.1238
    1W        W63919  14.929   6.090   8.785 -0.1588  0.1706 -0.2507
    1W        W63920  14.792  29.599   7.914 -0.2116  0.3039  0.1013
    1W        W63921  13.990  24.495   1.242 -0.1609 -0.0374 -0.1616
    1W        W63922   2.483  16.643   5.949  0.2749  0.1245  0.0350
    1W        W63923   4.253  25.090   7.407  0.0844  0.1188 -0.0195
    1W        W63924  24.332   6.497   6.789 -0.0056 -0.0684  0.1071
    1W        W63925   8.523  24.729   7.573 -0.1593  0.1060  0.0773
    1W        W63926  21.125   8.629   1.599 -0.0917  0.0198  0.1650
    1W        W63927  13.564  10.171   7.968 -0.5058  0.1232 -0.2413
    1W        W63928  29.709  20.927   6.341  0.1055  0.0872 -0.1690
    1W        W63929  28.038   7.465   8.814  0.1538 -0.2328 -0.0984
    1W        W63930  16.024   9.843   2.139 -0.0024  0.0660  0.1208
    1W        W63931   4.101  18.263   7.271 -0.1703 -0.0501 -0.0082
    1W        W63932  16.272  17.763   7.041  0.0351 -0.0753  0.1185
    1W        W63933   6.423   2.359   8.570 -0.0640  0.0082 -0.0204
    1W        W63934  13.257  24.989   6.095  0.1394  0.0334  0.1031
    1W        W63935   5.767   9.110   0.552 -0.1049  0.0686 -0.0807
    1W        W63936  18.842   2.520   8.219 -0.3250  0.0663  0.0041
    1W        W63937   5.430  25.753   6.783  0.0719  0.1061 -0.0381
    1W        W63938   5.338   2.848   9.359 -0.0899  0.0985  0.0775
    1W        W63939   1.562  21.371   0.817  0.0068 -0.0081 -0.0904
    1W        W63940  15.233  14.557   1.593  0.1072 -0.2417 -0.2232
    1W        W63941  29.174   3.624   1.550  0.1419  0.1666 -0.0243
    1W        W63942  23.712  29.210   8.552 -0.1136  0.2804 -0.4883
    1W        W63943  25.351  29.333   7.022  0.1173  0.1929  0.0953
    1W        W63944   6.027  20.432   8.571  0.1505 -0.1833 -0.2286
    1W        W63945  25.038  28.177   2.140 -0.0228  0.0175  0.0465
    1W        W63946  13.278   7.861   0.655  0.1600  0.1015 -0.1411
    1W        W63947  26.880  23.504   2.924 -0.0163 -0.0723 -0.0495
    1W        W63948  10.911   6.528   6.872  0.0176  0.2576  0.1010
    1W        W63949  13.637   3.357   2.058  0.2781  0.3629 -0.0296
    1W        W63950  18.749   4.115   0.484 -0.0575 -0.0735 -0.0876
    1W        W63951   4.543  11.313   0.751 -0.1082  0.3367  0.0372
    1W        W63952   4.992   9.398   0.344  0.0554 -0.0492  0.4666
    1W        W63953   8.953  22.090   1.106 -0.0743 -0.2227 -0.0312
    1W        W63954  13.857  18.495   6.659  0.1790 -0.1673 -0.1204
    1W        W63955  11.988   1.804   3.139  0.0474 -0.0065  0.1954
    1W        W63956  23.472  22.566   6.992 -0.0110  0.0244 -0.2024
    1W        W63957  28.415  17.746   0.334  0.2569 -0.0455  0.5518
    1W        W63958  14.107   8.047   1.495  0.2669 -0.0864 -0.1396
    1W        W63959   2.181   9.917   2.843 -0.0028  0.0291  0.0659
    1W        W63960  13.747   6.958   1.990 -0.2349 -0.0514 -0.2244
    1W        W63961  14.281   9.848   1.294 -0.0220  0.2469  0.1715
    1W        W63962   0.207  22.107   1.552  0.1632 -0.1230  0.1758
    1W        W63963   7.532   0.731   0.004  0.4027 -0.2600 -0.2435
    1W        W63964  27.212  12.780   1.268  0.0217  0.2958  0.0201
    1W        W63965   2.581   1.493   8.737 -0.0831 -0.3519  0.0078
    1W        W63966  29.374  13.781   9.172 -0.2492  0.2687 -0.0848
    1W        W63967  27.739   2.914   6.657 -0.1075  0.0619  0.1905
    1W        W63968  27.105   2.227   2.697  0.2887 -0.0682 -0.0055
    1W        W63969   0.411  15.311   1.339 -0.1013  0.0241 -0.1340
    1W        W63970  17.268  14.237   1.194  0.0406 -0.3143  0.1968
    1W        W63971  19.484  24.837   0.448  0.2136 -0.1661  0.4145
    1W        W63972   1.277  21.762   0.533 -0.2099 -0.0732 -0.0972
    1W        W63973  23.618   7.364   8.234  0.0058  0.1313 -0.2534
    1W        W63974   8.468   7.849   8.648 -0.0232  0.0196  0.1511
    1W        W63975   3.737  19.981   1.429  0.1098  0.1358  0.2291
    1W        W63976   6.923  20.146   6.727  0.0607  0.0734 -0.1583
    1W        W63977   4.549  26.864   1.416 -0.1221 -0.1324  0.0120
    1W        W63978   1.667   4.743   3.653 -0.0601 -0.0357  0.0148
    1W        W63979   5.650   3.294   1.019  0.1737  0.2578 -0.2010
    1W        W63980  21.339  20.823   0.995  0.4173 -0.2062 -0.2987
    1W        W63981   1.611  14.840   1.914 -0.0017 -0.0641  0.1981
    1W        W63982  25.003  14.975   1.930  0.2557  0.4606  0.1534
    1W        W63983  25.257   6.781   2.072 -0.3918 -0.1047 -0.0839
    1W        W63984  14.090   4.453   0.138  0.0860  0.3318  0.1857
    1W        W63985  17.397   2.052   1.719 -0.1442 -0.1147  0.1104
    1W        W63986  12.709  11.519   8.942 -0.2336 -0.0739  0.0074
    1W        W63987  18.388  16.003   7.718 -0.1969  0.2383  0.0582
    1W        W63988   6.484  24.277   7.766 -0.1204 -0.1126  0.2743
    1W        W63989   0.906  26.668   5.746  0.0948 -0.3190 -0.2866
    1W        W63990  28.833   8.853   1.811  0.1548 -0.0962  0.0802
    1W        W63991  25.627  21.492   9.363 -0.1001  0.0576 -0.0933
    1W        W63992  20.910  13.025   0.546 -0.1818  0.1205 -0.0746
    1W        W63993  22.729  21.366   2.387  0.1966  0.0961 -0.2366
    1W        W63994  18.408  22.119   8.290 -0.2340  0.1872 -0.0629
    1W        W63995   8.297  29.661   2.407  0.1842 -0.1142 -0.0421
    1W        W63996   4.125  10.852   8.184 -0.0098  0.3589  0.0288
    1W        W63997   3.927  21.482   7.599 -0.1570 -0.2315 -0.1870
    1W        W63998   5.215   0.028   2.530 -0.0612 -0.0492 -0.0537
    1W        W63999   0.062   4.994   1.237  0.0249 -0.4093 -0.0399
    1W        W64000   2.608  19.428   7.824  0.0935  0.2310 -0.2199
    1W        W64001  21.008  13.732   1.996 -0.2213  0.0525  0.1955
    1W        W64002   9.272  28.944   1.713 -0.3672  0.2847 -0.0723
    1W        W64003  22.022   4.079   8.545 -0.2210 -0.2501 -0.1007
    1W        W64004   7.073  11.571   8.201 -0.0295 -0.1094  0.4385
    1W        W64005   4.999   2.471   2.758 -0.0008  0.3393  0.1685
    1W        W64006  11.292  25.498   7.555 -0.0584  0.0503  0.0341
    1W        W64007   4.718   0.674   0.785 -0.3820 -0.0392  0.0747
    1W        W64008  21.215  25.539   9.189  0.0568  0.0381 -0.2315
    1W        W64009  24.463  12.977   8.759 -0.0726 -0.2523 -0.1190
    1W        W64010   2.445  21.717   1.907  0.0793  0.0035  0.0788
    1W        W64011  26.733  11.230   7.303 -0.0230  0.0174 -0.1566
    1W        W64012  24.663   4.142   3.313 -0.1418 -0.1018  0.1781
    1W        W64013   5.746  20.378   6.249  0.0696  0.0418  0.0804
    1W        W64014  24.723   5.173   8.999  0.0057  0.0899 -0.3414
    1W        W64015  27.741   0.757   9.399  0.3054  0.0923 -0.4234
    1W        W64016  17.441   1.814   2.148  0.1968  0.0789  0.2483
    1W        W64017   1.115  12.510   6.751 -0.0686 -0.2026  0.0725
    1W        W64018  22.122  28.446   8.288 -0.0944  0.0813  0.1538
    1W        W64019   7.763   2.537   1.790 -0.3183 -0.2603  0.2405
    1W        W64020  28.538   1.448   7.967  0.1208 -0.0277 -0.1765
    1W        W64021  26.847   6.695   3.269 -0.0203 -0.1800  0.1185
    1W        W64022  27.957  15.596   8.722 -0.2257  0.0303  0.0820
    1W        W64023  12.619  13.230   0.667  0.3358  0.1576  0.0702
    1W        W64024  10.383   1.234   8.390 -0.0426  0.1298 -0.1202
    1W        W64025   0.033   7.803   7.408  0.3899  0.0653 -0.2483
    1W        W64026  20.864   5.737   7.137 -0.0000  0.1453  0.0312
    1W        W64027  29.759  24.515   7.404 -0.1344 -0.2175 -0.1490
    1W        W64028   2.832  26.660   8.881  0.1240  0.0909  0.3500
    1W        W64029  10.872  29.413   7.618 -0.0049  0.1974  0.1035
    1W        W64030  18.170   8.657   7.768  0.0987 -0.5428 -0.0416
    1W        W64031   2.686   8.346   7.778 -0.0351  0.1643 -0.1796
    1W        W64032  15.694  24.558   7.334 -0.2963 -0.2600  0.0971
    1W        W64033   3.169  27.655   9.032  0.0482 -0.2022 -0.0326
    1W        W64034   0.766  26.945   6.854  0.1713  0.2575 -0.1123
    1W        W64035   4.550   9.208   1.539  0.0538  0.2549 -0.0233
    1W        W64036  26.241   1.837   7.417  0.2900 -0.0516 -0.2833
    1W        W64037  21.494   7.186   0.067 -0.3007  0.0931  0.2401
    1W        W64038  19.213  14.808   7.027  0.1420 -0.3056  0.3967
    1W        W64039   8.098  27.237   1.892  0.0835 -0.0175 -0.3153
    1W        W64040  17.012  22.949   0.641 -0.0445 -0.1683 -0.0184
    1W        W64041   9.914  29.093   2.766  0.0276  0.1586 -0.2447
    1W        W64042   9.794   2.775   6.977 -0.1411  0.2955 -0.2374
    1W        W64043  12.366  24.247   9.281  0.1837 -0.2166 -0.0309
    1W        W64044  21.378   5.386   8.474 -0.0162 -0.0047  0.0427
    1W        W64045  12.793   9.155   8.225 -0.0436 -0.0926 -0.0700
    1W        W64046  23.918  24.653   1.681 -0.3100  0.1026  0.0811
    1W        W64047  20.400   4.817   7.935 -0.1465 -0.0268 -0.4157
    1W        W64048   5.968  28.736   6.388  0.0029 -0.1374 -0.1558
    1W        W64049   1.594  22.263   7.447  0.1692  0.3153  0.0499
    1W        W64050   5.868  26.321   7.260  0.0106  0.0278 -0.0612
    1W        W64051   3.962  20.576   2.164  0.1737 -0.0415  0.0004
    1W        W64052  28.952  13.897   2.516  0.0824  0.1239 -0.2381
    1W        W64053   9.437  17.424   7.543  0.1592 -0.0751  0.2454
    1W        W64054   6.019   5.917   7.958 -0.1960 -0.0062 -0.1192
    1W        W64055   6.531  24.899   9.029  0.1812  0.1740 -0.0170
    1W        W64056  26.924  20.849   8.788  0.0148 -0.0347 -0.0272
    1W        W64057  18.157  10.145   6.746  0.1808 -0.0334 -0.2986
    1W        W64058  29.885  23.915   8.444  0.0027 -0.0085  0.3399
    1W        W64059   8.320  16.338   9.290  0.0885 -0.2671  0.0808
    1W        W64060  21.128  22.580   7.765 -0.2713  0.0095 -0.1845
    1W        W64061  23.452   1.574   2.384 -0.2353  0.2386 -0.2454
    1W        W64062   4.811  16.830   1.724  0.1945  0.1233  0.0292
    1W        W64063   6.471  12.070   2.215 -0.0769 -0.0719  0.3228
    1W        W64064   4.039   4.151   0.809  0.1132  0.0850 -0.0063
    1W        W64065  24.296  15.832   0.370 -0.2080 -0.0321  0.0252
    1W        W64066  27.426  15.840   1.895  0.0074  0.5009 -0.1590
    1W        W64067   8.745  24.360   0.867  0.2181 -0.2778 -0.0048
    1W        W64068   3.610  25.488   0.361 -0.1985 -0.2411 -0.2024
    1W        W64069  22.079   3.203   2.568  0.0076  0.0513  0.1919
    1W        W64070   2.661  24.394   6.805  0.0393  0.0409  0.0729
    1W        W64071   2.840  16.519   8.735  0.3911 -0.0918 -0.1478
    1W        W64072  29.345   7.887   6.419  0.2560 -0.2651 -0.1493
    1W        W64073  11.452   5.626   0.684  0.1270  0.1219  0.0940
    1W        W64074  23.557  13.697   1.651 -0.0344 -0.0251 -0.1017
    1W        W64075  12.019   0.950   3.073 -0.1156  0.1662 -0.1699
    1W        W64076  17.355  22.391   7.604  0.0839 -0.1059 -0.1380
    1W        W64077   5.292  26.908   2.386 -0.1784  0.0366  0.1560
    1W        W64078  13.611   5.889   9.416 -0.1158 -0.3413 -0.1523
    1W        W64079  11.322  23.125   6.000  0.0417  0.3967 -0.1689
    1W        W64080   6.403   9.627   2.404  0.2078  0.2041 -0.3312
    1W        W64081  28.844   2.462   8.363  0.0324  0.0706  0.1188
    1W        W64082  27.291  10.021   7.482  0.1641 -0.3076 -0.0587
    1W        W64083   3.216  21.025   0.890  0.2307 -0.1950 -0.1624
    1W        W64084  27.851  20.549   1.830 -0.0969  0.0743  0.1030
    1W        W64085  10.137  25.238   7.561 -0.2568  0.2066  0.2946
    1W        W64086  27.016  16.199   5.556 -0.0806  0.0306  0.3589
    1W        W64087   8.725  27.375   7.085  0.0288  0.0155 -0.1671
    1W        W64088  10.703   3.222   7.763 -0.1216  0.0172  0.0175
    1W        W64089  26.266  27.780   2.281 -0.1095 -0.0511 -0.2829
    1W        W64090   0.324  11.384   8.010  0.0188  0.0251  0.0224
    1W        W64091  24.506  26.846   9.270 -0.0527 -0.0254 -0.3788
    1W        W64092   1.670  21.821   7.070  0.1453 -0.1984  0.2665
    1W        W64093  20.353  18.174   7.917 -0.1734  0.1222  0.0464
    1W        W64094  10.703  16.173   1.954  0.0578  0.0970  0.2191
    1W        W64095   7.815   1.516   8.129 -0.0742 -0.1576 -0.0858
    1W        W64096  26.799   6.504   0.284 -0.2164  0.0134  0.0246
    1W        W64097   5.290  29.194   6.568 -0.0064  0.2418  0.0807
    1W        W64098  23.929  16.125   8.074  0.1440 -0.1340  0.0067
    1W        W64099  24.755   6.884   2.222 -0.4213 -0.1020 -0.2930
    1W        W64100  19.894  18.469   1.628  0.1359  0.2490  0.0180
    1W        W64101  22.595  29.240   0.095  0.0070  0.0700  0.0429
    1W        W64102  23.287  22.982   9.095 -0.0883 -0.2889 -0.1185
    1W        W64103  20.206  28.247   8.049  0.4566  0.2017  0.3668
    1W        W64104  12.875  29.775   0.767 -0.1897  0.1497  0.0007
    1W        W64105  26.395  16.397   1.480  0.1827 -0.0004  0.1104
    1W        W64106   7.656   8.007   8.396 -0.2245  0.0970  0.1302
    1W        W64107   7.274   4.817   8.876 -0.0052 -0.2158  0.0070
    1W        W64108   9.104   3.027   1.311 -0.0803 -0.1168  0.1399
    1W        W64109   3.310   4.615   9.131 -0.1514  0.0555  0.3972
    1W        W64110  24.135  17.973   1.088  0.1003 -0.1222 -0.2597
    1W        W64111  24.193   2.355   8.198 -0.2348 -0.0536  0.0835
    1W        W64112   0.975  14.866   8.701  0.0547 -0.1126  0.0518
    1W        W64113  20.149   2.814   0.137  0.1590 -0.0804  0.0025
    1W        W64114   9.206  22.009   8.599  0.0890 -0.1000  0.0246
    1W        W64115   5.744  15.055   0.173  0.0298  0.4012  0.0883
    1W        W64116  16.046   0.862   0.966 -0.1735 -0.4887 -0.2785
    1W        W64117   8.282  21.756   8.792  0.0320 -0.0338  0.0142
    1W        W64118   2.728  21.540   8.170 -0.1002 -0.3611  0.1871
    1W        W64119  26.761  10.316   6.668  0.0241  0.2609 -0.0597
    1W        W64120  21.955  12.294   0.186  0.1148 -0.1937 -0.2023
    1W        W64121   0.908   9.416   8.728 -0.2310  0.2211 -0.0380
    1W        W64122  29.375  26.315   5.576  0.1016 -0.1789  0.2875
    1W        W64123  10.749  17.203   8.968  0.0517  0.0760 -0.3128
    1W        W64124  11.650   1.755   8.698 -0.2361 -0.5347 -0.0100
    1W        W64125  21.315  24.552   0.577 -0.0446 -0.0933 -0.1351
    1W        W64126  12.925   8.695   8.410  0.4904 -0.1635 -0.1239
    1W        W64127  11.175  21.883   1.580  0.1591 -0.2277  0.3350
    1W        W64128  26.828  15.014   7.248 -0.0743 -0.0142 -0.2122
    1W        W64129  19.286   2.341   2.559  0.1165 -0.1028 -0.1715
    1W        W64130   4.078  16.944   6.458  0.2828  0.1833  0.0643
    1W        W64131   7.339   8.348   2.113  0.1452 -0.0235  0.1554
    1W        W64132  23.477  15.983   2.449 -0.2289  0.1209 -0.1971
    1W        W64133   2.165  24.323   7.754  0.1058  0.1990 -0.1579
    1W        W64134   7.553  19.659   0.986  0.4272  0.3520 -0.1257
    1W        W64135   9.729   2.160   9.226 -0.1621 -0.1165  0.2182
    1W        W64136  14.394  28.293   1.733  0.1548  0.2805  0.0322
    1W        W64137  29.452  27.799   2.519  0.0243 -0.0132 -0.2462
    1W        W64138  27.936  11.503   1.528 -0.0418 -0.1216 -0.2269
    1W        W64139   7.509  10.130   7.829 -0.1677  0.1757  0.2411
    1W        W64140   6.417   3.479   0.885  0.1424 -0.1952 -0.2286
    1W        W64141  27.068   6.832   1.020 -0.2281 -0.0462 -0.1164
    1W        W64142   1.183  29.810   8.374  0.1041  0.0713  0.1528
    1W        W64143  24.869  25.685   1.152 -0.1269 -0.1895  0.3384
    1W        W64144  18.986  12.933   1.563 -0.2864  0.0753 -0.2055
    1W        W64145   2.575  20.627   6.774  0.3852 -0.1025  0.0011
    1W        W64146  11.408  20.932   9.461  0.0389  0.1632 -0.1946
    1W        W64147   0.952  20.220   6.491  0.1001 -0.1931  0.0438
    1W        W64148   9.104  29.270   0.518 -0.3849  0.1791 -0.0408
    1W        W64149  14.191  22.238   9.323  0.3156 -0.0541  0.0460
    1W        W64150  18.613  18.358   0.083 -0.0082  0.0645  0.0577
    1W        W64151  28.397  22.639   2.142 -0.1919 -0.1003 -0.0817
    1W        W64152  12.862   7.354   7.902 -0.0969 -0.0647  0.2596
    1W        W64153  14.062   0.949   3.124 -0.2480 -0.0788  0.1081
    1W        W64154   9.493   0.032   2.934  0.1353 -0.1124 -0.1408
    1W        W64155  27.584  17.465   7.248 -0.0676  0.1640  0.0736
    1W        W64156  24.522  16.598   7.548  0.0480 -0.1205  0.1200
    1W        W64157   5.979  14.481   0.155 -0.3419 -0.0493  0.0561
    1W        W64158  21.718  11.009   6.831 -0.1151 -0.1126 -0.2892
    1W        W64159   9.458   5.455   8.039  0.1479 -0.1258 -0.2010
    1W        W64160   3.303  21.506   7.843 -0.1688 -0.3297  0.1872
    1W        W64161   5.254  16.328   6.422 -0.1998 -0.1216 -0.0704
    1W        W64162   5.307  29.372   8.419  0.0722  0.1541 -0.2563
    1W        W64163  13.711  18.615   0.549  0.0922 -0.0412  0.3040
    1W        W64164  21.645   9.013   6.994 -0.1888 -0.0667  0.0714
    1W        W64165   6.840  22.692   5.637 -0.0829 -0.1290 -0.1376
    1W        W64166  23.902   1.651   7.707  0.2755  0.3270  0.0355
    1W        W64167   3.404  14.634   6.302 -0.2954  0.1877 -0.0939
    1W        W64168   7.980   0.628   0.274 -0.2209  0.1424  0.2891
    1W        W64169   7.391  14.510   1.660  0.1899 -0.2763 -0.2667
    1W        W64170  28.024  22.067   1.380  0.2968  0.1599  0.1484
    1W        W64171  11.802   0.415   1.681 -0.1800 -0.1742 -0.2204
    1W        W64172  24.908  17.126   9.020 -0.1286  0.1606 -0.0021
    1W        W64173  13.309  28.647   9.077  0.0588  0.1647 -0.1801
    1W        W64174   1.725  17.673   6.135  0.0632  0.0230 -0.0447
    1W        W64175  14.749  26.901   6.804 -0.3534  0.1570 -0.0927
    1W        W64176   2.453  24.935   1.581 -0.0848 -0.3030 -0.0058
    1W        W64177  29.539   9.626   7.623 -0.1247  0.2452 -0.0336
    1W        W64178  26.562   0.187   9.199 -0.1543 -0.1199  0.3736
    1W        W64179  25.606   7.832   7.071 -0.1270  0.1592  0.1132
    1W        W64180   8.375   8.297   2.393 -0.1387  0.3416 -0.1231
    1W        W64181  28.845  15.293   5.606  0.2040  0.1686  0.1310
    1W        W64182  16.167   2.907   2.212 -0.1508  0.1545  0.0057
    1W        W64183  23.353  29.681   3.420  0.0765  0.1295  0.1994
    1W        W64184  23.412  20.202   1.654  0.3546  0.1452  0.4100
    1W        W64185   1.151   5.745   2.831 -0.3772 -0.1763  0.0537
    1W        W64186  28.018   4.775   3.865  0.0606 -0.0638 -0.3380
    1W        W64187  22.320   6.109   2.158  0.0555  0.2651 -0.3107
    1W        W64188  24.828  24.628   1.408  0.1566  0.0567  0.1210
    1W        W64189  14.503  23.538   8.241  0.1227 -0.3183  0.0533
    1W        W64190  24.066  12.910   1.783  0.2437  0.0217 -0.0482
    1W        W64191  14.495  16.573   7.724  0.1890 -0.1575 -0.0106
    1W        W64192   5.382  12.304   0.756 -0.1364  0.0636  0.0682
    1W        W64193   6.613  26.253   8.741  0.2155 -0.0838 -0.1179
    1W        W64194  18.112  17.919   9.253 -0.0920  0.0241  0.1987
    1W        W64195  17.955  25.269   9.391 -0.2505  0.0960  0.0007
    1W        W64196   4.029  22.469   2.010  0.0866 -0.0911 -0.1048
    1W        W64197  18.164   5.196   8.412  0.0421  0.0139 -0.1511
    1W        W64198  12.145   4.858   7.428 -0.0144 -0.1634 -0.2728
    1W        W64199   6.554   4.925   2.596 -0.1052 -0.1496 -0.0718
    1W        W64200  18.611   2.743   7.662 -0.0407  0.2051 -0.2539
    1W        W64201  27.109   3.509   1.268 -0.1378 -0.1005 -0.2487
    1W        W64202  13.989  13.081   2.001  0.0692  0.0126  0.1380
    1W        W64203  15.209   0.280   2.637 -0.1551 -0.3973 -0.0903
    1W        W64204   4.666  10.120   0.665 -0.2801  0.1834  0.1527
    1W        W64205  20.712   9.971   7.446  0.0872 -0.3483  0.1625
    1W        W64206   2.882   4.805   1.453 -0.0039 -0.4443  0.2963
    1W        W64207  17.359  13.838   7.919 -0.1866 -0.3262 -0.1101
    1W        W64208  27.369   5.254   6.241 -0.2142 -0.1829 -0.0188
    1W        W64209  16.193  29.178   0.060  0.4360  0.2079  0.0963
    1W        W64210  13.219   8.983   8.648  0.2520  0.0071  0.0995
    1W        W64211  29.486  24.960   0.309  0.0060  0.5291  0.0572
    1W        W64212   0.655  15.854   7.601  0.1690  0.2234  0.0578
    1W        W64213  27.393   0.869   8.661  0.0514  0.0774  0.1832
    1W        W64214  10.056  28.949   0.920  0.0809  0.1033  0.0768
    1W        W64215   3.393  27.922   3.143  0.0942 -0.1130 -0.3123
    1W        W64216  21.079   6.004   0.984  0.0486  0.1676  0.3014
    1W        W64217   9.339   0.101   0.999  0.0173  0.0445 -0.1813
    1W        W64218  29.158  16.085   1.069 -0.2303  0.0306  0.1889
    1W        W64219  22.024   0.186   7.351  0.1430  0.1522  0.1782
    1W        W64220  19.839   4.962   6.881  0.1188 -0.2556 -0.0162
    1W        W64221  11.229   2.052   0.927 -0.0519 -0.1637  0.0906
    1W        W64222  14.853  19.015   9.247 -0.0426 -0.0336  0.1307
    1W        W64223   8.300  21.762   1.723  0.0793 -0.1057 -0.0570
    1W        W64224   8.782  17.918   1.297  0.1355 -0.1760 -0.0610
    1W        W64225  14.141  17.082   0.252  0.0498 -0.2052  0.1556
    1W        W64226   7.191  29.090   0.707 -0.0858 -0.1878  0.0969
    1W        W64227   0.031   8.182   3.119 -0.0333 -0.0947  0.1166
    1W        W64228   7.958   4.138   2.526 -0.0038 -0.2082  0.0747
    1W        W64229  29.533   0.116   8.803 -0.3359  0.2587 -0.2492
    1W        W64230   5.124  27.104   1.925 -0.2167  0.2620  0.2451
    1W        W64231  23.402   3.189   0.314 -0.1273 -0.0055 -0.1375
    1W        W64232  21.561  22.111   0.447 -0.0709 -0.1949 -0.3221
    1W        W64233  27.086  15.125   9.269  0.0087  0.0640 -0.2661
    1W        W64234   7.278  22.238   1.229 -0.0477  0.3172  0.2491
    1W        W64235  28.719   8.989   0.401 -0.3820  0.1464 -0.1930
    1W        W64236  21.000  26.017   9.059  0.0070 -0.0858 -0.1184
    1W        W64237  24.804  27.520   2.029 -0.0629  0.0608  0.0770
    1W        W64238  13.191  23.162   0.249  0.1463 -0.1347 -0.3330
    1W        W64239  25.694   5.192   7.641 -0.1363  0.3395 -0.1751
    1W        W64240  28.808  26.221   3.040 -0.0250  0.1324 -0.2242
    1W        W64241  10.788  26.830   0.903  0.1338  0.1596 -0.0938
    1W        W64242   6.139  14.569   0.787  0.1046  0.2300 -0.0881
    1W        W64243  10.074  27.696   3.411  0.2580  0.2585 -0.1443
    1W        W64244   2.688   1.026   0.424 -0.1122  0.2342 -0.3333
    1W        W64245  27.238   2.756   0.112 -0.1093 -0.1699  0.0893
    1W        W64246   0.251  11.110   9.280  0.0636 -0.1090  0.2789
    1W        W64247  12.308  19.599   1.728 -0.0835  0.2050  0.0501
    1W        W64248  27.037  18.515   8.251 -0.2059  0.2582 -0.6304
    1W        W64249  24.015  22.238   2.705  0.0399  0.1662 -0.2481
    1W        W64250   5.048  21.349   1.817  0.0619  0.0496 -0.2812
    1W        W64251  17.552  12.937   7.918 -0.0002  0.2621  0.2110
    1W        W64252  25.549   3.887   2.144  0.1468  0.2595 -0.0584
    1W        W64253  13.302   0.349   6.751  0.1949 -0.1782  0.3957
    1W        W64254  23.592  25.066   9.465  0.3449  0.0280  0.1482
    1W        W64255   8.259   9.719   1.037  0.1723  0.1208  0.0799
    1W        W64256  16.169   8.073   0.085 -0.0651 -0.1048 -0.1684
    1W        W64257  12.052  26.000   1.098  0.2099  0.3784 -0.0088
    1W        W64258   0.817   7.827   1.172  0.0716  0.5390  0.1918
    1W        W64259  16.654   5.165   2.107 -0.1819 -0.1909  0.1085
    1W        W64260  18.977   9.847   8.831 -0.1513 -0.2695  0.0442
    1W        W64261  18.002   3.414   1.950 -0.0321  0.0542 -0.1556
    1W        W64262   8.365  23.928   7.450  0.1585  0.0144 -0.0197
    1W        W64263  22.207  19.570   1.086 -0.0383  0.0428  0.0347
    1W        W64264  21.976   7.334   7.237 -0.0991  0.0444 -0.2372
    1W        W64265   1.865   9.831   1.291  0.0600 -0.0682  0.1409
    1W        W64266   2.284   0.852   0.142 -0.2971 -0.1664 -0.0279
    1W        W64267  15.015  25.169   7.495 -0.0364  0.2405  0.0655
    1W        W64268  14.758  25.326   9.132  0.0423  0.1928  0.0452
    1W        W64269  16.051  14.302   1.874 -0.0577 -0.0648  0.3247
    1W        W64270  29.374  12.758   9.211 -0.2644 -0.1066  0.3038
    1W        W64271   6.775  17.132   8.789 -0.0580  0.0372 -0.2792
    1W        W64272  16.256   1.263   2.202 -0.2382  0.2685  0.0678
    1W        W64273   6.919   2.800   0.370 -0.1411  0.0707  0.1952
    1W        W64274  14.991  21.414   2.352 -0.0263  0.1903  0.0017
    1W        W64275  29.151   7.822   8.043 -0.4244  0.2990 -0.3803
    1W        W64276  26.007  20.785   0.405 -0.2383  0.1117  0.0494
    1W        W64277  28.517  19.490   1.470 -0.0401  0.3279 -0.0338
    1W        W64278   2.239  11.182   6.738  0.0807  0.3544  0.1915
    1W        W64279  15.223  19.098   7.409 -0.1688 -0.5402  0.0670
    1W        W64280  26.237  22.017   7.886  0.0150 -0.2548  0.0216
    1W        W64281  17.124   2.335   1.394  0.0049  0.3455 -0.1524
    1W        W64282   3.057   5.416   2.664  0.2922 -0.1933  0.1107
    1W        W64283  19.846   4.105   2.407  0.0344  0.0603  0.3289
    1W        W64284   7.457  11.781   8.390 -0.1130  0.1007  0.1231
    1W        W64285  25.854  12.033   1.152 -0.1339  0.0336 -0.2671
    1W        W64286  16.384  12.197   2.305 -0.0282 -0.0516 -0.1529
    1W        W64287   2.334   2.353   8.200 -0.1725 -0.2747 -0.0636
    1W        W64288  19.554  22.619   8.737 -0.0008  0.0996 -0.1426
    1W        W64289  17.826   2.394   8.277 -0.5491  0.2878 -0.2241
    1W        W64290  29.842  11.788   2.117  0.1383  0.2345  0.4522
    1W        W64291   8.319   6.656   7.666 -0.0752 -0.1408 -0.0095
    1W        W64292  23.728  13.221   7.699  0.0010  0.0677 -0.0288
    1W        W64293   8.224  22.853   9.336 -0.0293  0.2513  0.2068
    1W        W64294   0.127  11.043   6.772 -0.1571 -0.3233  0.1300
    1W        W64295   5.667   8.894   1.845 -0.1155 -0.2153  0.0924
    1W        W64296  20.493   3.129   8.719 -0.0012  0.1755  0.0166
    1W        W64297  25.509   8.118   1.602 -0.3802 -0.1222 -0.0402
    1W        W64298   7.375  20.407   7.899  0.1486  0.1324  0.0983
    1W        W64299   7.539  29.538   8.485  0.1106  0.0583 -0.0653
    1W        W64300  26.020   7.478   8.143  0.0532  0.2142 -0.0990
    1W        W64301  25.545  28.755   7.534  0.0896  0.0070  0.3024
    1W        W64302   3.683  26.717   9.032 -0.3090 -0.4091  0.0428
    1W        W64303  29.106   3.940   6.532 -0.1037  0.0111 -0.0157
    1W        W64304  29.646   5.104   9.149  0.2089  0.1259 -0.0713
    1W        W64305  14.026   3.894   3.018  0.2368 -0.0507 -0.0275
    1W        W64306   4.404   9.525   0.114  0.4002  0.2075  0.1153
    1W        W64307  29.460  15.971   7.595 -0.0353  0.0413  0.0247
    1W        W64308   1.112  22.318   0.960 -0.2368 -0.1996  0.1204
    1W        W64309  19.660  23.916   7.422 -0.0393 -0.0391 -0.2532
    1W        W64310  28.877  23.768   1.850 -0.1248  0.1510  0.0171
    1W        W64311   0.075  22.518   7.364  0.0466 -0.0611  0.2090
    1W        W64312   2.274   3.004   1.867  0.1324 -0.0874 -0.5206
    1W        W64313  18.406   8.724   7.182  0.2149  0.1243 -0.1641
    1W        W64314  15.432  14.110   7.900  0.0301  0.0008 -0.3323
    1W        W64315  28.593  29.662   8.208 -0.1504  0.3569 -0.1587
    1W        W64316   2.807   4.784   0.513  0.3098 -0.0272 -0.0265
    1W        W64317   8.362   8.055   3.071  0.3092 -0.0582 -0.2175
    1W        W64318   7.605   9.073   8.739 -0.0709  0.3181  0.2889
    1W        W64319  14.137  20.920   1.524  0.0177  0.0414  0.1002
    1W        W64320   8.718  22.357   2.739 -0.0541  0.4247 -0.3103
    1W        W64321   2.307   4.682   6.521 -0.1290 -0.1981  0.0956
    1W        W64322  24.420  19.714   7.791 -0.0689  0.1849  0.1038
    1W        W64323   0.118  20.913   7.240  0.1454  0.0277 -0.2848
    1W        W64324   5.228   2.986   0.916  0.1409  0.2144 -0.4246
    1W        W64325  18.384  15.138   7.751  0.1219 -0.1613 -0.1927
    1W        W64326   5.560  24.699   2.237  0.0693 -0.0697 -0.3314
    1W        W64327   6.965  19.605   6.996 -0.2020  0.0426  0.0127
    1W        W64328   7.794  26.187   0.228 -0.1333 -0.0792 -0.4101
    1W        W64329  20.331  26.546   8.940 -0.1394  0.1105 -0.0018
    1W        W64330  19.267  21.463   6.925  0.0111  0.0257 -0.1501
    1W        W64331   7.193  25.390   2.442 -0.1701  0.0180 -0.2675
    1W        W64332   5.007  28.376   3.479 -0.3707 -0.1432 -0.0731
    1W        W64333   6.226  25.348   7.445  0.1774 -0.2603 -0.0404
    1W        W64334   3.333   1.914   6.528  0.1626 -0.0697  0.0048
    1W        W64335  23.100  27.422   2.501  0.3026  0.1219 -0.0157
    1W        W64336   0.337   1.699   1.596 -0.0125 -0.1104  0.1721
    1W        W64337  27.878  23.367   0.006 -0.0696 -0.0779 -0.2718
    1W        W64338  23.727  20.629   8.541  0.3988  0.2452 -0.0437
    1W        W64339   6.093  12.560   0.089 -0.0342 -0.0881  0.0733
    1W        W64340   4.298  27.458   0.531 -0.0643  0.0405 -0.1593
    1W        W64341  17.283  29.547   8.641 -0.0288 -0.0826 -0.0477
    1W        W64342   7.181   2.162   7.987 -0.0861  0.0784  0.1605
    1W        W64343   0.108  25.546   6.601  0.0472  0.3743 -0.0780
    1W        W64344   1.622  25.758   8.973 -0.3306  0.0773  0.0208
    1W        W64345  24.789  25.187   1.291  0.2496 -0.0320 -0.0998
    1W        W64346  10.157  18.957   7.391  0.0664 -0.1668 -0.2764
    1W        W64347  26.377  17.256   8.236  0.1810  0.1284  0.0690
    1W        W64348   0.629   7.744   6.722  0.1469 -0.2369  0.0149
    1W        W64349  12.914   0.351   0.672 -0.1001  0.2592  0.2412
    1W        W64350  15.600  11.145   0.758  0.0009  0.0629 -0.0659
    1W        W64351  24.285  25.914   7.092 -0.1184  0.0839 -0.2564
    1W        W64352  18.570  21.406   0.127 -0.0610  0.0958  0.1314
    1W        W64353  16.416  22.607   8.402 -0.2454  0.1057 -0.0199
    1W        W64354   5.251   6.012   2.707  0.0689 -0.2724 -0.1451
    1W        W64355  17.943   1.783   2.883 -0.2001  0.2223  0.2245
    1W        W64356  24.565  14.901   2.674  0.4572 -0.0020  0.2295
    1W        W64357   6.418  25.429   8.444  0.0137 -0.1857  0.1094
    1W        W64358  23.797  21.508   7.519  0.1146  0.0977  0.0377
    1W        W64359  12.376  28.873   7.622 -0.0434 -0.3592 -0.0173
    1W        W64360  10.060   3.527   7.541 -0.1169 -0.0676  0.0813
    1W        W64361  29.784  15.325   8.979 -0.1001 -0.0177  0.1547
    1W        W64362  29.146   0.928   9.197  0.1431 -0.2761 -0.3383
    1W        W64363   0.065  17.908   2.392 -0.2489 -0.0375  0.0225
    1W        W64364   7.513  10.491   0.562  0.1146  0.1208 -0.1170
    1W        W64365  16.948  28.642   7.354 -0.3570  0.4395  0.1024
    1W        W64366  21.449  21.393   2.244 -0.4263 -0.1617  0.0042
    1W        W64367  12.291  27.686   0.141  0.1655  0.0258  0.1643
    1W        W64368   5.001   9.054   1.672  0.2390  0.1313  0.0550
    1W        W64369   1.490   0.151   8.048  0.4695  0.1176 -0.1339
    1W        W64370  10.078  15.670   1.519  0.0653 -0.3728  0.1617
    1W        W64371  12.636  17.370   7.183 -0.1743 -0.1152 -0.0979
    1W        W64372   5.217  12.141   2.657  0.0420  0.0229  0.2115
    1W        W64373  17.616   1.128   1.032 -0.1683  0.0057 -0.0305
    1W        W64374   9.125   3.248   7.473  0.1098  0.0413 -0.0676
    1W        W64375   2.115  10.740   7.640  0.1065  0.1204  0.2082
    1W        W64376  25.302  20.710   6.078 -0.1818  0.3665 -0.4860
    1W        W64377   5.774  22.432   6.447  0.0872 -0.0720  0.1253
    1W        W64378  13.003  12.724   8.868  0.0619 -0.3749 -0.1538
    1W        W64379  13.026   1.362   8.247 -0.1836  0.0406 -0.2145
    1W        W64380  25.502  13.099   9.345 -0.2039 -0.0977  0.1131
    1W        W64381   0.009  19.124   8.470  0.0356  0.1841  0.1011
    1W        W64382   5.737  23.803   8.077  0.1250 -0.0003 -0.0430
    1W        W64383   9.198  13.438   9.295  0.1050 -0.0020  0.1130
    1W        W64384  14.908  18.566   0.128  0.1047 -0.3822 -0.1310
    1W        W64385  19.536   5.375   8.883 -0.1271  0.0942  0.3493
    1W        W64386  18.710  15.018   7.274  0.1236 -0.0331  0.1049
    1W        W64387  22.672  10.433   0.073 -0.0236  0.3039  0.1236
    1W        W64388   5.434  15.063   8.707  0.1244 -0.1480  0.0619
    1W        W64389  14.495  23.594   0.933 -0.0330  0.0939  0.0678
    1W        W64390  12.988  19.629   1.819 -0.1502  0.0841 -0.1033
    1W        W64391  16.401  16.603   0.106  0.2712  0.1696 -0.0800
    1W        W64392  20.482   3.540   0.773 -0.0053 -0.1485 -0.1520
    1W        W64393  23.578  18.253   0.020  0.1456 -0.2790 -0.1886
    1W        W64394  18.553   0.908   0.571 -0.0875  0.1552  0.1245
    1W        W64395   2.974  19.571   9.053  0.0746  0.1749 -0.0212
    1W        W64396   0.153  11.723   0.507  0.1798 -0.0666  0.2183
    1W        W64397  22.875   3.175   9.245 -0.2119 -0.3264  0.0163
    1W        W64398   3.278  22.000   2.099 -0.1904  0.3247  0.0617
    1W        W64399  11.259  18.020   9.424  0.0505  0.3779 -0.1816
    1W        W64400   7.939  16.415   8.952 -0.0942 -0.0407  0.3429
    1W        W64401  21.502  29.098   7.144  0.0824  0.5359  0.1064
    1W        W64402  10.352  27.217   2.254 -0.1393  0.0215 -0.1530
    1W        W64403   8.362   4.500   2.376  0.0836 -0.0522  0.1250
    1W        W64404  14.987  18.373   8.267  0.0932 -0.0376 -0.3116
    1W        W64405  25.754   9.010   6.470 -0.0079 -0.0438 -0.2697
    1W        W64406  26.514   3.194   7.053 -0.0268  0.0600 -0.1139
    1W        W64407  17.161  28.523   0.275 -0.2426  0.1848 -0.2207
    1W        W64408  13.993   7.774   9.275 -0.1110 -0.4548 -0.1984
    1W        W64409  28.414   6.339   9.235  0.1511  0.1065 -0.2010
    1W        W64410   5.642  23.276   5.819 -0.1246  0.1966 -0.1570
    1W        W64411   2.571   7.495   2.445  0.2489  0.1997 -0.0062
    1W        W64412  15.293  28.307   7.732  0.1126 -0.0522 -0.1252
    1W        W64413  11.625   1.311   1.387 -0.0553 -0.0896  0.2275
    1W        W64414  21.651   9.206   1.639  0.0447 -0.1603  0.1360
    1W        W64415  22.359   1.464   9.118 -0.1630  0.3055  0.4570
    1W        W64416   6.249  14.056   9.413 -0.1772  0.0687  0.0573
    1W        W64417  22.057  21.595   9.237 -0.0084  0.1178 -0.2712
    1W        W64418  24.026  12.890   6.652 -0.0053  0.1973  0.1506
    1W        W64419   6.763   5.810   1.542 -0.1061 -0.0303  0.1305
    1W        W64420   0.122  14.858   9.089 -0.2332  0.2060 -0.0606
    1W        W64421  23.036  29.385   2.308  0.0922  0.0067 -0.0865
    1W        W64422  23.299  27.802   7.551 -0.1557 -0.1034  0.0213
    1W        W64423   4.967  24.230   0.861 -0.2517 -0.0999  0.0082
    1W        W64424   7.040  20.771   7.719 -0.2227  0.0983 -0.1108
    1W        W64425  15.561  22.593   0.582 -0.0150 -0.1024 -0.0868
    1W        W64426   4.403  11.812   2.769 -0.0035  0.1608  0.1384
    1W        W64427   6.013   8.596   9.279  0.4088 -0.1424  0.3230
    1W        W64428  27.867  13.227   2.368  0.1019  0.3888  0.3569
    1W        W64429   8.573   3.200   7.087 -0.4790 -0.1516  0.1228
    1W        W64430  16.939  24.697   6.788 -0.1681  0.2135 -0.0163
    1W        W64431   6.534  18.147   6.264 -0.1303  0.1033  0.3090
    1W        W64432  27.233  27.386   1.898 -0.5154 -0.1359  0.1528
    1W        W64433  12.686  13.879   1.190  0.3591 -0.0301  0.1390
    1W        W64434  28.966   5.240   2.921  0.1948 -0.2379 -0.0692
    1W        W64435  25.687   6.575   0.368 -0.0186  0.3489  0.2322
    1W        W64436   7.332  12.098   7.438  0.0059  0.0563  0.2686
    1W        W64437  13.117   5.656   9.371 -0.2547  0.0399  0.2445
    1W        W64438   5.235  28.459   2.498 -0.1517  0.1452  0.1000
    1W        W64439   8.374   8.384   0.829 -0.1169 -0.0286 -0.2624
    1W        W64440  19.624  24.885   9.394 -0.0048  0.2841 -0.1035
    1W        W64441  12.753   9.542   1.079 -0.2278  0.0861  0.1589
    1W        W64442   5.235   6.887   7.644  0.3584 -0.2951 -0.2301
    1W        W64443  11.384  12.309   8.708  0.2916 -0.0756  0.3179
    1W        W64444  17.667   9.430   6.779  0.0608  0.1477 -0.0380
    1W        W64445  20.390   4.363   8.757  0.1049 -0.0483  0.4252
    1W        W64446  24.767  19.544   6.962 -0.1058  0.0822 -0.2268
    1W        W64447   1.252   3.090   3.149  0.1691 -0.1221 -0.0128
    1W        W64448  26.705  22.074   7.170 -0.0931 -0.0269  0.0592
    1W        W64449   6.144  14.632   8.466  0.1497 -0.0359 -0.2695
    1W        W64450  21.147   1.073   2.094  0.3697 -0.2085 -0.0336
    1W        W64451  17.758  20.404   2.083 -0.1262 -0.1210 -0.3010
    1W        W64452  17.026  28.277   7.656  0.0818 -0.6348 -0.0676
    1W        W64453  25.661  20.694   6.452  0.0817 -0.4626 -0.1910
    1W        W64454  24.728  25.752   8.970  0.0615  0.0382  0.0739
    1W        W64455  24.586  15.154   6.027  0.1141 -0.0880  0.2234
    1W        W64456  12.366   4.083   9.115  0.1112 -0.1029  0.0686
    1W        W64457   6.139   0.434   9.015  0.0133  0.0206  0.1653
    1W        W64458   2.929  15.217   0.146  0.2428 -0.0074 -0.0323
    1W        W64459  24.150   5.380   0.938 -0.0157  0.3563 -0.3139
    1W        W64460  29.143  21.329   9.071  0.1226  0.2085  0.0441
    1W        W64461  25.597  10.962   7.893 -0.0296 -0.0174 -0.1026
    1W        W64462  11.686  24.545   6.616  0.0291 -0.0913  0.0659
    1W        W64463   1.258  11.066   7.779  0.0765 -0.1746 -0.0809
    1W        W64464   0.228  19.045   7.931  0.0401  0.1997 -0.1553
    1W        W64465   4.282  12.893   7.038  0.1479 -0.2719  0.1061
    1W        W64466   0.012  13.247   8.446  0.1164 -0.4062 -0.2050
    1W        W64467   2.933  19.317   0.010  0.0029  0.2844 -0.0866
    1W        W64468  24.488  17.598   7.774 -0.1727 -0.0676  0.1257
    1W        W64469   1.469   8.813   7.677 -0.2254  0.0619 -0.1067
    1W        W64470  22.149  10.359   2.252  0.0301  0.2369 -0.1532
    1W        W64471  16.859   5.652   2.411  0.1516  0.0585  0.0064
    1W        W64472  17.304  19.694   1.174 -0.2405  0.0424 -0.2579
    1W        W64473  28.486   9.536   6.252  0.1532  0.2706 -0.2522
    1W        W64474  23.410  12.902   7.930 -0.1237  0.0971 -0.1383
    1W        W64475   9.915  27.237   1.036  0.1133 -0.4255 -0.0115
    1W        W64476  23.448   4.954   2.888  0.0364 -0.1250  0.0903
    1W        W64477   3.014  11.897   9.368  0.1379  0.0067 -0.0061
    1W        W64478  14.683  26.749   2.132  0.0290  0.2830  0.0495
    1W        W64479  27.188  25.649   8.061 -0.0338  0.0442 -0.0589
    1W        W64480  29.202   2.363   2.192  0.3759  0.2727 -0.2615
    1W        W64481  29.334  15.573   9.120 -0.1304 -0.0108 -0.1547
    1W        W64482  18.270   1.280   1.599 -0.4200 -0.0554  0.0352
    1W        W64483  23.961  12.855   1.220  0.1886  0.2969  0.3874
    1W        W64484   3.526  28.324   7.289 -0.2585  0.3155 -0.1729
    1W        W64485   3.251  25.552   5.878 -0.1198 -0.1597 -0.1183
    1W        W64486  19.883  21.969   1.942  0.2199 -0.0643 -0.0257
    1W        W64487  26.579  28.990   2.768 -0.1811  0.1230 -0.0658
    1W        W64488   5.870  25.956   0.513 -0.0756  0.0212 -0.0920
    1W        W64489   9.957  15.068   8.982 -0.2904 -0.1191  0.1521
    1W        W64490  26.890   3.559   0.724  0.3584 -0.2013 -0.3037
    1W        W64491  19.788   8.417   2.294  0.2336  0.1921  0.0868
    1W        W64492  13.456  14.362   0.739  0.0813 -0.0574 -0.2825
    1W        W64493  27.196  13.215   7.404 -0.0295  0.0032  0.2377
    1W        W64494  21.747   1.029   0.314 -0.5145  0.1791  0.0464
    1W        W64495  25.997  24.158   2.091 -0.2205  0.0542  0.4269
    1W        W64496   3.550  21.936   1.252 -0.1267 -0.1507  0.0487
    1W        W64497  23.858   2.864   3.143 -0.1041  0.2695  0.1290
    1W        W64498   7.736   9.881   9.331  0.0884 -0.1810 -0.1431
    1W        W64499  22.764  23.854   7.783 -0.0876  0.1005 -0.1687
    1W        W64500  29.592   8.275   7.997 -0.0245 -0.2764 -0.0419
    1W        W64501  22.245   4.523   0.972  0.0038  0.2143  0.0267
    1W        W64502   3.228  20.978   0.022 -0.1911  0.0080 -0.2198
    1W        W64503   0.452  11.549   1.522  0.1310  0.1435 -0.5999
    1W        W64504  17.001  21.637   2.802 -0.0302 -0.3155 -0.1475
    1W        W64505   2.459  16.192   1.891  0.2321 -0.1654 -0.0494
    1W        W64506  20.943  20.987   3.561 -0.1738  0.2540  0.0406
    1W        W64507  19.652   8.528   1.459  0.0318 -0.0371 -0.0826
    1W        W64508  21.314  23.369   8.991  0.1976  0.3721 -0.1116
    1W        W64509  18.897  28.608   2.216  0.3434 -0.0914  0.2821
    1W        W64510  17.223   5.339   2.188  0.2927 -0.1700  0.2180
    1W        W64511  20.184   9.542   6.828  0.4084  0.1614  0.2337
    1W        W64512   2.990   6.546   9.237  0.1229  0.0196  0.3438
    1W        W64513  23.719   7.107   3.382 -0.1422  0.2097 -0.2507
    1W        W64514  27.018  22.186   8.709 -0.0945 -0.1585  0.1705
    1W        W64515   3.787  26.309   8.712  0.2392 -0.0101  0.0218
    1W        W64516   7.183  15.089   9.089  0.1225  0.0343  0.3949
    1W        W64517   4.370  29.503   7.590 -0.0814 -0.2110  0.1878
    1W        W64518  12.498   3.517   1.806  0.0428  0.1653  0.3326
    1W        W64519  15.993   7.833   8.521  0.0976  0.0803 -0.2334
    1W        W64520  18.018  22.976   7.721 -0.5581  0.1346 -0.0049
    1W        W64521  12.958   5.485   7.397  0.0740  0.3681  0.0977
    1W        W64522  13.243   7.229   8.253  0.1402  0.4055  0.0628
    1W        W64523  19.205   9.227   9.274  0.1738  0.3364 -0.0965
    1W        W64524  15.734  23.555   6.524  0.0272 -0.1211  0.2664
    1W        W64525   5.605  28.348   0.967 -0.1259 -0.2581 -0.0791
    1W        W64526   4.115   3.330   7.448  0.1893  0.1295  0.0762
    1W        W64527  16.750  20.636   7.994 -0.1295  0.0454  0.0865
    1W        W64528   6.698   9.006   0.108 -0.0489 -0.1991  0.2175
    1W        W64529   4.204   8.349   7.657  0.2566  0.1281 -0.1793
    1W        W64530  27.880  23.560   0.995  0.0985  0.2246 -0.1655
    1W        W64531   3.414   3.432   6.363  0.2336 -0.3776 -0.0009
    1W        W64532  26.541  22.201   8.694  0.0108 -0.3795 -0.1453
    1W        W64533  21.192   4.535   7.613  0.4376 -0.0262 -0.3635
    1W        W64534   3.232  20.653   9.134  0.2148 -0.1211 -0.0203
    1W        W64535  12.011   8.373   7.726  0.3304  0.1571  0.0671
    1W        W64536  17.117  12.958   0.857  0.1485 -0.3705  0.0031
    1W        W64537   0.413   9.399   1.955  0.0919  0.1379  0.0170
    1W        W64538  22.909  18.576   0.825  0.3265 -0.2011  0.1491
    1W        W64539  13.673  12.161   0.196 -0.1382 -0.2985 -0.0682
    1W        W64540  27.031   0.319   9.276  0.2822 -0.1588  0.1806
    1W        W64541  27.829   0.229   0.780  0.0206  0.2563  0.3235
    1W        W64542  14.867   1.259   8.197 -0.0040 -0.2269 -0.0567
    1W        W64543  17.743  24.657   0.403 -0.0991 -0.1101 -0.0426
    1W        W64544  27.982   5.194   7.208  0.2368  0.0295 -0.1251
    1W        W64545  25.903  27.937   2.626 -0.0337 -0.0962  0.1556
    1W        W64546  24.480  25.339   8.182 -0.0136 -0.1253 -0.2759
    1W        W64547  18.495  21.956   1.022  0.0030 -0.1031  0.0731
    1W        W64548   5.097   0.899   1.056  0.4438  0.2354  0.1561
    1W        W64549   0.618  24.577   8.687 -0.0468 -0.2220 -0.0789
    1W        W64550  13.231  13.682   9.352  0.0842 -0.0176 -0.1152
    1W        W64551  21.787  17.475   8.619  0.1088 -0.2336  0.3496
    1W        W64552  26.296   1.877   6.903 -0.1060  0.1490  0.2916
    1W        W64553  29.612  16.698   6.253  0.2303  0.1233  0.2851
    1W        W64554   8.678  24.880   8.596 -0.0075  0.2018  0.0674
    1W        W64555  11.420  10.863   1.168 -0.2375 -0.0177 -0.0305
    1W        W64556   3.710   9.208   0.857  0.0070  0.0576  0.2299
    1W        W64557  25.283  10.528   7.495 -0.0292 -0.2680  0.2381
    1W        W64558  21.471   4.059   2.382  0.4073  0.0550 -0.0332
    1W        W64559  20.291  12.769   8.456  0.1783 -0.0803 -0.0091
    1W        W64560   1.421  17.071   2.023  0.0328 -0.0854 -0.1965
    1W        W64561  24.234  20.142   8.667  0.3227 -0.0780 -0.3592
    1W        W64562  14.663  29.016   8.596  0.2583 -0.1674  0.0810
    1W        W64563  25.838  27.870   8.101  0.3063 -0.0233 -0.0923
    1W        W64564  11.139  17.189   8.642  0.0653 -0.0041  0.2238
    1W        W64565   3.789  24.374   1.097 -0.0580  0.2353  0.0548
    1W        W64566  25.021  25.473   9.294 -0.1135  0.1826  0.0496
    1W        W64567  10.626   2.811   0.555 -0.1227 -0.0402 -0.0164
    1W        W64568  10.399  23.838   6.351  0.1003  0.0066 -0.2631
    1W        W64569  20.786  17.823   1.049  0.2027 -0.0790 -0.0318
    1W        W64570  12.603  23.822   1.272 -0.3883 -0.2520  0.3290
    1W        W64571   7.592  16.758   0.824  0.2406  0.3808  0.2311
    1W        W64572  24.395  10.033   7.607  0.0575  0.0897  0.2212
    1W        W64573  15.030   6.592   2.011 -0.0722 -0.0097  0.0856
    1W        W64574   6.863   3.220   7.980  0.0361 -0.5782 -0.2148
    1W        W64575  20.187  17.200   8.972  0.3678  0.0386 -0.0892
    1W        W64576   6.859  19.763   7.786  0.1557 -0.1514 -0.1429
    1W        W64577  17.639  13.811   7.299  0.0753  0.4478 -0.0030
    1W        W64578  12.279  28.740   8.133  0.1818  0.3218  0.0526
    1W        W64579   5.936  20.951   0.539 -0.1287  0.2360 -0.0262
    1W        W64580   6.497  26.056   2.744  0.0323 -0.2974  0.0429
    1W        W64581  12.547  20.932   1.159  0.0544  0.1983  0.0220
    1W        W64582   8.377   1.929   3.109  0.3170 -0.4771  0.0972
    1W        W64583  29.779  21.922   8.579  0.1763  0.4393 -0.2366
    1W        W64584   5.669  28.621   7.645 -0.1451  0.1211 -0.1383
    1W        W64585  15.418  26.799   2.350 -0.0102 -0.0236  0.1147
    1W        W64586   9.619  10.486   1.179  0.1325  0.2819  0.0181
    1W        W64587  13.371  25.520   0.532  0.0353 -0.1137 -0.0852
    1W        W64588  22.705  17.950   3.042  0.1957 -0.0145 -0.1108
    1W        W64589   5.931   9.943   7.534 -0.1931 -0.1370  0.1248
    1W        W64590  12.564  24.339   7.658  0.0163  0.0741  0.1473
    1W        W64591  29.511  10.129   2.102 -0.3404 -0.0313 -0.1592
    1W        W64592   7.691  18.935   6.702 -0.1723 -0.1084 -0.1881
    1W        W64593   2.106  13.217   7.554 -0.4318  0.1151 -0.1689
    1W        W64594  16.238   0.469   1.767 -0.0385  0.4099  0.0474
    1W        W64595   4.819  29.790   9.102  0.0011  0.0289  0.0355
    1W        W64596  20.542  28.133   6.902 -0.1073 -0.0811 -0.0393
    1W        W64597  17.561   4.282   1.001 -0.0344  0.0282  0.0045
    1W        W64598  22.308  21.149   9.425 -0.0041  0.0488 -0.0029
    1W        W64599  25.042  27.542   7.731 -0.1425 -0.1625  0.2749
    1W        W64600  12.307  22.592   6.459  0.0600  0.0583  0.0723
    1W        W64601  18.828  19.733   1.806 -0.2863  0.1840  0.1365
    1W        W64602  28.040  27.201   7.324 -0.1240  0.0569 -0.2102
    1W        W64603  23.811   8.079   7.493  0.1171  0.1871 -0.1188
    1W        W64604  21.394  28.765   2.518  0.1359 -0.0455  0.2151
    1W        W64605  13.211  22.423   2.217  0.3791 -0.0053 -0.1169
    1W        W64606  19.337  17.606   7.669  0.0243  0.1756  0.2120
    1W        W64607   4.339  11.602   1.636 -0.0854 -0.1762 -0.3303
    1W        W64608   9.571  20.668   1.481 -0.0373  0.1829 -0.1994
    1W        W64609  28.900   4.158   2.991 -0.1142 -0.2090 -0.0105
    1W        W64610   3.562   3.922   1.173 -0.0782  0.1879  0.0298
    1W        W64611   3.213  10.085   2.132  0.2221  0.2229  0.0070
    1W        W64612  19.386  25.907   2.358 -0.1205 -0.0882  0.0582
    1W        W64613  29.491  24.058   1.956  0.0718  0.2075  0.4251
    1W        W64614  28.004  11.389   9.111  0.0946 -0.2117  0.3716
    1W        W64615   7.663  28.962   2.238  0.0116 -0.3031  0.0563
    1W        W64616  11.704  12.000   0.166 -0.1525 -0.0903 -0.0254
    1W        W64617  12.148  29.262   7.438 -0.1324  0.2176  0.1742
    1W        W64618   4.081  22.076   7.914  0.0154 -0.2100  0.2574
    1W        W64619  19.017  26.954   1.805  0.0552  0.0679  0.0864
    1W        W64620  21.052  14.231   9.352 -0.2381  0.0475 -0.2931
    1W        W64621   1.897  26.818   7.447  0.0029 -0.2222 -0.1100
    1W        W64622  28.566   3.286   7.135  0.0616  0.1429 -0.3980
    1W        W64623   1.800   9.355   8.430  0.1687 -0.0104 -0.1367
    1W        W64624  12.786   7.940   8.691  0.0839 -0.2220 -0.3787
    1W        W64625   0.574  16.420   1.891 -0.0245  0.1411  0.0202
    1W        W64626   3.756   7.633   8.834 -0.1327 -0.1697  0.0599
    1W        W64627   2.296  15.288   7.523  0.3227  0.0301 -0.0988
    1W        W64628  18.511  11.945   6.273 -0.2511  0.1704  0.1090
    1W        W64629  22.400  13.644   7.007  0.1923 -0.0055 -0.1908
    1W        W64630  10.434  15.832   7.795 -0.1549  0.1435  0.0042
    1W        W64631  17.725   6.745   0.495  0.1958 -0.0161 -0.3613
    1W        W64632   4.986  19.728   8.124 -0.3703 -0.2319 -0.0171
    1W        W64633   0.291   6.118   9.040 -0.0386 -0.1688  0.0398
    1W        W64634  25.102  28.045   1.275 -0.1048 -0.3410 -0.3359
    1W        W64635  21.995  11.907   7.588 -0.2786 -0.1146 -0.1672
    1W        W64636   6.318  20.478   1.142  0.1962 -0.1849 -0.0332
    1W        W64637  21.104  26.532   2.628 -0.1901 -0.0199 -0.0253
    1W        W64638  16.709   1.482   1.250 -0.1300  0.1893 -0.0649
    1W        W64639  26.665  10.116   9.183  0.2594  0.3167 -0.2865
    1W        W64640  19.603  26.064   2.863 -0.0540 -0.0403  0.2065
    1W        W64641   3.528   2.027   1.528  0.0336 -0.1914 -0.2967
    1W        W64642  24.915  25.258   0.262  0.1028 -0.1602  0.2109
    1W        W64643  27.955  25.960   0.434  0.2529  0.1282  0.4612
    1W        W64644  21.576  13.619   1.375  0.1194  0.1982  0.1316
    1W        W64645   4.745  12.428   1.264  0.0144 -0.0191 -0.0397
    1W        W64646  22.589   5.479   7.562  0.1519  0.2707 -0.1139
    1W        W64647   7.750   2.102   8.687 -0.2044  0.2260 -0.1376
    1W        W64648  19.082   6.931   7.735 -0.1138 -0.0133  0.1133
    1W        W64649  20.353  18.930   0.468  0.1277  0.1726  0.1181
    1W        W64650  28.394  19.085   1.255  0.2553  0.2138  0.2753
    1W        W64651  19.532  13.099   7.385 -0.0461  0.0276 -0.0452
    1W        W64652  22.544  22.638   7.883  0.3401 -0.0097 -0.1863
    1W        W64653  27.440   1.389   1.310  0.0229 -0.1864 -0.1680
    1W        W64654   6.157  10.572   2.811 -0.0123  0.1306 -0.1621
    1W        W64655  13.552  29.310   2.122  0.1035 -0.0133  0.2111
    1W        W64656   3.499  21.472   6.819  0.1400  0.1139  0.0801
    1W        W64657  26.513  16.452   2.100  0.0179 -0.1466  0.0605
    1W        W64658  13.601  18.002   0.412  0.0508 -0.0892  0.0571
    1W        W64659   0.924  10.470   2.559 -0.2232  0.0897 -0.0532
    1W        W64660  27.234  12.393   6.372 -0.1817 -0.1621 -0.0567
    1W        W64661  27.574  22.454   7.528  0.3597 -0.0596  0.1341
    1W        W64662  21.779  25.088   1.906  0.0049  0.1166 -0.3289
    1W        W64663  29.238   6.621   1.215  0.1903  0.0362 -0.1575
    1W        W64664   5.020  22.380   6.571  0.0329  0.1395 -0.1956
    1W        W64665   6.251   3.364   4.075 -0.0087  0.2029  0.0239
    1W        W64666  22.620   0.023   0.936  0.1201  0.1737 -0.1899
    1W        W64667  19.882  20.478   0.379 -0.1505 -0.0194  0.0791
    1W        W64668  16.481  11.863   6.675  0.0354  0.1963 -0.1704
    1W        W64669  26.128  18.637   8.669 -0.2009  0.1857 -0.3313
    1W        W64670  28.563  21.764   9.078  0.0258 -0.1703  0.0120
    1W        W64671   3.612   5.929   7.441  0.0741 -0.1475  0.4855
    1W        W64672   7.758  25.727   7.944 -0.3015  0.1709  0.1012
    1W        W64673  28.474  14.971   7.691 -0.1958 -0.2042  0.1070
    1W        W64674  16.131   0.746   7.774 -0.1663  0.1339  0.1821
    1W        W64675  24.761  29.721   1.363 -0.0511 -0.3541 -0.1875
    1W        W64676   6.632  19.528   1.061  0.1746  0.0174 -0.0106
    1W        W64677   5.120  17.221   9.083  0.1234  0.0322  0.0290
    1W        W64678   4.873  24.745   8.204 -0.0858  0.0390  0.1252
    1W        W64679  17.079   1.190   9.219  0.0032  0.0789 -0.2713
    1W        W64680   4.851   5.602   1.056 -0.2096  0.3654  0.1591
    1W        W64681  29.297  29.244   0.447 -0.3559  0.2543 -0.0990
    1W        W64682  26.231  15.229   6.411 -0.0676 -0.1153 -0.5242
    1W        W64683   0.965   8.551   0.361 -0.1271 -0.2039  0.0340
    1W        W64684  24.234   0.980   3.453  0.0851  0.2261 -0.0539
    1W        W64685  14.490  20.403   9.046 -0.1183 -0.3783  0.0876
    1W        W64686   2.041  11.060   0.688 -0.1096 -0.0552  0.0430
    1W        W64687   7.866  19.196   1.331  0.0347 -0.2699 -0.5853
    1W        W64688  22.292  16.013   1.297  0.0088  0.0579 -0.1597
    1W        W64689  25.959   7.590   6.711 -0.1575 -0.2048 -0.0577
    1W        W64690  22.945   7.720   8.557 -0.1447  0.2892  0.3471
    1W        W64691  10.325   9.134   0.667 -0.2658 -0.1312 -0.1738
    1W        W64692   9.243  20.607   8.001 -0.0040 -0.1844 -0.2108
    1W        W64693   3.674  15.865   1.659  0.1442  0.2889  0.1437
    1W        W64694   6.706  25.570   0.253  0.2045  0.1168 -0.1442
    1W        W64695  11.429  14.820   7.595 -0.2986 -0.1992 -0.1036
    1W        W64696   2.489   7.047   3.557  0.0435  0.1718  0.0576
    1W        W64697   3.562  14.253   6.673  0.0456 -0.0377 -0.1852
    1W        W64698   9.427  16.283   1.556  0.2923 -0.1038 -0.2080
    1W        W64699  27.513  21.953   6.441 -0.3386  0.0594 -0.1720
    1W        W64700  20.741  10.352   9.308  0.0793  0.0041  0.0850
    1W        W64701  18.603  18.856   0.409 -0.0851  0.0965 -0.2382
    1W        W64702  20.472  10.956   7.283  0.0872 -0.1122  0.0389
    1W        W64703  17.514   4.660   0.527 -0.1916 -0.1185  0.0895
    1W        W64704  28.989  19.391   7.085  0.2186  0.0341 -0.4025
    1W        W64705  16.714  25.198   8.083  0.4466  0.0337 -0.2175
    1W        W64706   6.291  22.702   7.815 -0.1047  0.0071 -0.0087
    1W        W64707  17.919   8.343   8.102 -0.1457  0.1432  0.1933
    1W        W64708  18.477  14.190   6.851 -0.2010 -0.0504 -0.0032
    1W        W64709  20.901  27.581   7.801  0.1994 -0.1349  0.3048
    1W        W64710   7.230   7.263   0.250  0.1770  0.0514  0.1250
    1W        W64711   5.511  15.976   5.666  0.1244  0.1436 -0.2054
    1W        W64712  25.358   1.398   9.344  0.1949 -0.2267 -0.0517
    1W        W64713  18.790  22.801   1.836 -0.4898  0.2788  0.0083
    1W        W64714   9.216  15.670   0.336  0.0304  0.0031  0.0772
    1W        W64715  11.953  15.762   1.614 -0.0457  0.1713 -0.0116
    1W        W64716  18.675  13.699   1.144  0.2300  0.0083 -0.2426
    1W        W64717   1.936   3.528   7.248  0.3610 -0.1447  0.0104
    1W        W64718  23.180  27.972   9.362  0.0295  0.0330  0.1708
    1W        W64719   0.934   7.084   7.890 -0.0660 -0.1995 -0.0350
    1W        W64720   6.660  21.766   1.011  0.3769 -0.1860 -0.0149
    1W        W64721  14.692  11.532   7.188 -0.0843 -0.2580 -0.1076
    1W        W64722   7.744  13.032   8.819 -0.0243 -0.1531  0.1034
    1W        W64723   7.158   2.427   0.605 -0.3662  0.2499  0.2297
    1W        W64724  24.243  17.798   1.586 -0.2510 -0.1725 -0.1408
    1W        W64725   8.312  21.222   7.531  0.1126  0.1670  0.1527
    1W        W64726  21.414  22.138   7.733  0.3301 -0.0746  0.0704
    1W        W64727  17.635   4.642   6.971  0.1154  0.0945 -0.1181
    1W        W64728   7.432  27.579   0.065  0.2018  0.1731 -0.2956
    1W        W64729  26.255   9.843   1.999 -0.1489 -0.3159 -0.2238
    1W        W64730   5.951  29.783   7.908 -0.3370 -0.2687  0.0674
    1W        W64731  19.434  29.388   1.469  0.0592  0.2748  0.2511
    1W        W64732  22.682  28.136   0.070  0.0635  0.0354  0.0934
    1W        W64733  16.656  15.153   7.452 -0.0126  0.0682 -0.0971
    1W        W64734   9.773  22.145   6.377 -0.1026 -0.0182 -0.2924
    1W        W64735   1.652  19.590   7.342 -0.0225 -0.1367  0.0455
    1W        W64736   9.950  23.697   7.265 -0.0462 -0.0275  0.1691
    1W        W64737  26.141  16.678   7.204  0.0611 -0.0611  0.1024
    1W        W64738  24.052  14.714   6.494 -0.1358 -0.1692  0.1964
    1W        W64739  25.218  29.212   8.363 -0.1182  0.2003  0.1664
    1W        W64740  18.437  28.278   2.263 -0.4005  0.0795 -0.1132
    1W        W64741  21.848   5.574   7.409 -0.0356  0.1484  0.0909
    1W        W64742  19.488   7.450   9.452  0.1115  0.1815  0.2311
    1W        W64743   8.455  19.810   6.598 -0.1931 -0.1901 -0.1687
    1W        W64744   8.211   3.056   7.948 -0.0817 -0.3005 -0.2923
    1W        W64745  12.071  18.633   9.420 -0.4121  0.1168  0.4168
    1W        W64746  25.898   5.478   8.956 -0.3398 -0.1307 -0.0796
    1W        W64747  22.142  18.911   2.347  0.1963  0.0019  0.0972
    1W        W64748   9.989  13.692   8.130  0.0339 -0.0552  0.0449
    1W        W64749  10.311  26.111   0.244  0.0962  0.0032  0.2553
    1W        W64750  17.483   1.105   8.806  0.0792 -0.0059  0.0961
    1W        W64751  19.514  14.632   8.458  0.2446  0.1237 -0.0719
    1W        W64752  14.753  22.359   9.099 -0.0125  0.1287  0.2287
    1W        W64753   2.903  29.236   7.508 -0.0418 -0.4358  0.0978
    1W        W64754   1.882  28.237   1.906  0.4164 -0.1777  0.1227
    1W        W64755  24.018  18.467   7.864  0.0162  0.2431  0.3277
    1W        W64756  13.028   7.007   7.286 -0.3464  0.1922 -0.1106
    1W        W64757  22.847   4.377   9.210  0.0095 -0.0588  0.0485
    1W        W64758  15.578   0.104   1.194 -0.0380  0.0342 -0.0019
    1W        W64759  24.465  16.868   7.080  0.0026 -0.1169  0.3022
    1W        W64760   3.271   6.923   8.833 -0.0037  0.2332  0.0230
    1W        W64761   8.366  26.411   0.155  0.1522 -0.0976 -0.2486
    1W        W64762   8.532  22.741   6.309 -0.3599  0.0254  0.1277
    1W        W64763  29.575  25.642   2.111 -0.0153  0.1009 -0.0846
    1W        W64764  11.915   1.102   0.044 -0.1208  0.2329 -0.1221
    1W        W64765   0.705   0.242   0.867 -0.0124 -0.4254  0.0137
    1W        W64766  28.201  23.810   6.369  0.0246 -0.4575  0.1379
    1W        W64767   4.701  13.325   1.535  0.1614  0.2110 -0.0348
    1W        W64768   0.226  13.164   2.543 -0.2129  0.0101  0.0891
    1W        W64769  26.523  15.939   1.200 -0.2261  0.2163  0.3320
    1W        W64770   3.842  26.300   6.937  0.1000  0.3647 -0.4143
    1W        W64771  10.353  18.412   0.499 -0.0828  0.1021 -0.2818
    1W        W64772   2.582  23.585   6.197 -0.0631 -0.1542 -0.1930
    1W        W64773   8.697   3.535   2.803  0.1964  0.4796 -0.0881
    1W        W64774  19.218  14.653   9.395 -0.1847  0.1019  0.1241
    1W        W64775  29.902   7.910   7.908  0.0090 -0.0029 -0.1750
    1W        W64776   7.354   8.096   1.679 -0.1045 -0.2175 -0.0846
    1W        W64777  16.103  19.170   0.892  0.0120 -0.1046  0.2497
    1W        W64778   9.611   2.666   0.818  0.1533  0.1942 -0.2407
    1W        W64779  15.446   8.443   1.322  0.0930  0.1276 -0.3512
    1W        W64780   1.560  22.246   6.443  0.4133 -0.4113 -0.0415
    1W        W64781  17.768  22.243   2.348 -0.2418  0.0777  0.1222
    1W        W64782  11.992   7.703   7.914 -0.2267 -0.1731 -0.1570
    1W        W64783  16.034   7.055   8.738 -0.0256  0.0227 -0.3723
    1W        W64784   7.226   1.971   8.560  0.1395 -0.0594 -0.0559
    1W        W64785  26.173  26.619   8.938 -0.0103  0.2445  0.0713
    1W        W64786  19.943  29.424   1.341  0.1818  0.1001  0.0866
    1W        W64787  29.874  28.976   2.280  0.0219  0.0206 -0.2784
    1W        W64788  10.745   6.687   9.098  0.0989  0.0868 -0.0092
    1W        W64789  28.629   4.573   9.084 -0.2068 -0.1516 -0.2572
    1W        W64790   9.939  28.111   1.052  0.0193 -0.0023 -0.1247
    1W        W64791   3.525   9.847   0.671 -0.2765 -0.0271  0.0699
    1W        W64792  11.887   6.708   2.034 -0.0179  0.1007  0.1172
    1W        W64793  22.508  13.296   9.400  0.2783 -0.1261 -0.0492
    1W        W64794   0.273  13.720   1.415 -0.0772 -0.0540 -0.0820
    1W        W64795   3.284  25.997   2.082 -0.0368  0.0805  0.3360
    1W        W64796  23.465   7.569   6.715 -0.0312  0.0429 -0.1087
    1W        W64797  17.709   3.484   0.472  0.1712  0.0413 -0.0275
    1W        W64798   2.065  20.638   8.601 -0.2055 -0.0603  0.0523
    1W        W64799  27.944  24.374   9.365  0.2208 -0.0691 -0.4639
    1W        W64800   9.068  17.086   7.770  0.1219 -0.1522  0.1598
    1W        W64801  29.144   0.982   1.197 -0.0964  0.1614 -0.0706
    1W        W64802   5.442   9.256   0.907 -0.0537 -0.1387 -0.1637
    1W        W64803   4.133  11.324   7.994  0.1701 -0.2107  0.0157
    1W        W64804   7.205  21.645   9.188 -0.2443 -0.3207  0.2046
    1W        W64805   2.022   0.701   7.251 -0.0692  0.0260 -0.0390
    1W        W64806  12.100  15.396   0.220  0.2949 -0.1223  0.1793
    1W        W64807  17.161  14.206   6.733 -0.0764 -0.3252  0.0271
    1W        W64808  20.252   6.142   9.247  0.2709 -0.0151  0.0103
    1W        W64809  20.760  21.860   2.168 -0.1558 -0.0293  0.0340
    1W        W64810  24.171  26.851   7.068 -0.0408  0.3750 -0.2783
    1W        W64811   5.297   7.324   0.177  0.0226  0.2488  0.0833
    1W        W64812  29.572  13.000   8.037  0.1495 -0.1108 -0.4618
    1W        W64813  21.150   0.867   2.597  0.1775 -0.3787  0.3621
    1W        W64814  22.868  14.883   1.704  0.3013 -0.1337  0.0031
    1W        W64815   7.105  25.271   8.494 -0.2093  0.1777  0.3241
    1W        W64816  12.053  17.341   7.032 -0.2568 -0.2194  0.1132
    1W        W64817  21.351   6.858   9.025 -0.0271  0.3181 -0.2035
    1W        W64818  29.870  17.006   1.560 -0.1661 -0.0550  0.2073
    1W        W64819   2.678  14.902   8.299  0.0371 -0.3175  0.0296
    1W        W64820   5.550  29.586   8.789  0.4659 -0.0068 -0.1627
    1W        W64821   3.878   6.941   1.784  0.1330 -0.0809  0.0939
    1W        W64822  24.504   7.216   1.844 -0.1819  0.2002  0.0261
    1W        W64823  10.243  13.891   0.982  0.1013 -0.1819 -0.0573
    1W        W64824  16.861   9.252   9.405  0.2060  0.0185 -0.0241
    1W        W64825   5.691  12.588   9.119  0.1600  0.2210  0.0271
    1W        W64826   0.430  29.751   1.061 -0.2163  0.0662 -0.0957
    1W        W64827  10.251  18.900   0.471  0.0745  0.0104  0.2060
    1W        W64828  17.681  19.653   7.834 -0.2461 -0.1201  0.0822
    1W        W64829  11.738  10.450   9.386 -0.3111 -0.1923 -0.0150
    1W        W64830  19.037  10.243   9.317 -0.0986  0.2757 -0.0863
    1W        W64831   6.450   0.070   2.127  0.0920 -0.2505  0.2899
    1W        W64832  15.824   1.552   9.377 -0.1433  0.2272 -0.4983
    1W        W64833  26.550   9.386   8.701  0.1585  0.1880  0.5495
    1W        W64834  23.983  29.724   7.317  0.1275 -0.0294 -0.3202
    1W        W64835   1.179  19.356   6.480  0.0222 -0.0412  0.0505
    1W        W64836  27.603  19.968   1.910 -0.1721  0.0013 -0.5235
    1W        W64837  20.762  26.030   2.038 -0.1362 -0.1968  0.0784
    1W        W64838   9.548  22.015   1.546 -0.1033  0.0806  0.0716
    1W        W64839   1.542  15.475   0.400  0.3912 -0.0478 -0.0526
    1W        W64840  17.588  10.402   8.647 -0.1621  0.1534 -0.2154
    1W        W64841  13.812  15.690   7.519  0.1638  0.0507  0.0701
    1W        W64842  17.313  27.514   1.842 -0.1359 -0.0640  0.1284
    1W        W64843   2.229  18.046   1.420  0.1065  0.1486 -0.1015
    1W        W64844  12.212  21.638   0.822  0.1212 -0.1570 -0.0637
    1W        W64845  25.371  12.718   7.241  0.1928 -0.0237 -0.2613
    1W        W64846   9.394   6.536   0.851  0.2967  0.0806  0.1918
    1W        W64847   3.304   6.801   1.047 -0.1719 -0.1355  0.0341
    1W        W64848   4.832   6.288   2.592  0.1618  0.3323 -0.1029
    1W        W64849   7.058  27.582   1.768  0.0174 -0.1456 -0.0805
    1W        W64850   4.600  29.342   5.869 -0.3722  0.1896  0.0861
    1W        W64851  24.338   0.593   8.471 -0.2801 -0.0303  0.1379
    1W        W64852  21.293   7.616   7.846 -0.2485 -0.0406  0.2566
    1W        W64853  12.434  27.499   0.783 -0.1595  0.0115 -0.0876
    1W        W64854  11.447  10.270   8.940 -0.1265 -0.0102 -0.3250
    1W        W64855  12.025  19.107   1.368 -0.2703 -0.1331 -0.0843
    1W        W64856   9.221  22.320   0.397  0.0723 -0.0455 -0.1701
    1W        W64857  24.288  25.314   1.156 -0.2579  0.0013  0.0946
    1W        W64858   6.821  15.291   6.001 -0.0432 -0.0858  0.1317
    1W        W64859  13.879  19.841   0.671 -0.0081 -0.2458 -0.1474
    1W        W64860  11.498  28.203   0.327 -0.0130  0.0278 -0.0188
    1W        W64861  27.692  11.252   8.358  0.0011 -0.0458 -0.2250
    1W        W64862  18.753  16.032   9.433  0.0147 -0.0814  0.0891
    1W        W64863   9.866  15.629   9.033  0.2682 -0.4496 -0.0245
    1W        W64864   8.172   3.058   1.407 -0.2838 -0.0762 -0.1607
    1W        W64865  27.617   2.293   7.983  0.1126  0.1332  0.0275
    1W        W64866  19.994  10.912   1.690  0.1496 -0.1646 -0.0280
    1W        W64867   6.888   8.794   7.601  0.1474 -0.2123 -0.1356
    1W        W64868  25.526  25.113   8.408  0.0143 -0.3374 -0.4011
    1W        W64869  18.103  12.671   6.694  0.1079  0.0651  0.2824
    1W        W64870  28.989  11.047   1.041  0.0036  0.0882  0.2737
    1W        W64871   7.140  22.769   1.217  0.4382 -0.3509 -0.0328
    1W        W64872  26.732  20.902   1.096 -0.1663 -0.2056  0.1715
    1W        W64873  11.509  26.005   2.342  0.3612 -0.0553  0.0430
    1W        W64874   8.163  10.236   9.098 -0.0650 -0.2219 -0.2063
    1W        W64875  11.103   1.983   7.392  0.0288 -0.0100  0.0718
    1W        W64876  25.233   9.830   8.146 -0.0471  0.0596 -0.0435
    1W        W64877   5.176  19.365   6.541  0.0624  0.0963 -0.0928
    1W        W64878  29.569   6.406   8.312  0.0837  0.2033 -0.1400
    1W        W64879  26.947  13.400   1.898 -0.0180 -0.1067  0.0143
    1W        W64880   6.565   6.591   7.182 -0.1966  0.2211 -0.1077
    1W        W64881  10.376   5.601   1.975  0.0730  0.2706  0.0042
    1W        W64882  21.316  29.588   7.015  0.1577  0.2196 -0.0044
    1W        W64883   5.694  24.313   1.437 -0.1299 -0.1818 -0.0125
    1W        W64884   7.793   3.094   0.608  0.2460 -0.0937  0.0034
    1W        W64885   6.118  13.815   7.826  0.0669  0.1791 -0.1672
    1W        W64886   4.069  29.595   3.130 -0.1788  0.1988  0.0894
    1W        W64887  10.665  17.104   8.456 -0.0484 -0.1262 -0.2371
    1W        W64888  29.050  20.607   0.360 -0.2053  0.1224  0.2057
    1W        W64889   2.376   9.339   2.970  0.2090  0.3557 -0.0696
    1W        W64890   6.904   8.029   9.144  0.1093 -0.0697 -0.1208
    1W        W64891  18.521  11.049   8.939  0.1877 -0.2474  0.0359
    1W        W64892   8.949   4.228   0.012  0.0095 -0.1352  0.1317
    1W        W64893   8.972   3.063   0.635  0.0248 -0.2623  0.1926
    1W        W64894  12.573  10.899   7.140 -0.0866  0.0187 -0.2030
    1W        W64895  24.715  12.490   0.656 -0.0689  0.0100  0.1222
    1W        W64896  19.031   4.477   1.997 -0.1074  0.0771  0.0694
    1W        W64897  11.710   2.085   9.354  0.0215  0.1596 -0.0950
    1W        W64898   2.080  14.561   7.025 -0.0220  0.1663 -0.1796
    1W        W64899  29.293  10.351   8.220 -0.0631  0.1009 -0.1436
    1W        W64900  16.048  11.439   0.515  0.0344 -0.0845 -0.0411
    1W        W64901  21.549  19.917   1.551  0.0620  0.3867  0.1890
    1W        W64902  27.008   5.363   6.620 -0.2105 -0.3315 -0.0597
    1W        W64903  16.074  14.167   1.395 -0.2006  0.3355  0.0524
    1W        W64904  24.110  26.460   9.454 -0.0792  0.3600 -0.0644
    1W        W64905   9.191  22.856   1.368  0.1082 -0.2098  0.0596
    1W        W64906  10.008   3.140   0.602  0.2880  0.0750  0.0561
    1W        W64907  10.795  27.329   1.242 -0.2549  0.5055 -0.1361
    1W        W64908  12.391  27.181   6.230  0.0130 -0.0601 -0.2223
    1W        W64909  22.593  25.634   8.854 -0.0519 -0.2792  0.1824
    1W        W64910   6.769   7.018   8.432 -0.0112 -0.0039 -0.1163
    1W        W64911  24.162  27.292   0.536  0.1776  0.1590 -0.2263
    1W        W64912  29.622   8.040   7.113 -0.2071  0.2647 -0.0050
    1W        W64913   6.906   7.300   1.952  0.0083 -0.1614 -0.0006
    1W        W64914  10.106  15.992   7.119 -0.0731  0.1812  0.2636
    1W        W64915   9.362  22.822   0.418  0.2377 -0.2136  0.1842
    1W        W64916  17.081  21.016   8.814 -0.0761  0.0742  0.0465
    1W        W64917  28.719  27.311   0.385  0.1767  0.1019 -0.2243
    1W        W64918  26.268  14.320   6.837  0.1433  0.0857  0.2703
    1W        W64919  13.743  24.528   7.463  0.0554 -0.1733 -0.1421
    1W        W64920  27.056   5.917   8.044  0.1336 -0.2385  0.1273
    1W        W64921   5.619   9.975   6.594 -0.0733 -0.0878 -0.0789
    1W        W64922   9.151  24.319   1.148 -0.0170 -0.2074  0.3076
    1W        W64923  13.745   2.224   2.058  0.2225 -0.0998  0.3014
    1W        W64924   2.703  27.731   9.054 -0.3858 -0.3350  0.0513
    1W        W64925  14.333   7.253   7.287 -0.0832 -0.0225  0.0213
    1W        W64926   0.865   5.381   7.758  0.0556 -0.1691 -0.0401
    1W        W64927  25.047   0.321   1.157  0.1934  0.2717  0.0228
    1W        W64928  14.069  28.180   6.465  0.4018 -0.2273  0.0304
    1W        W64929  20.814  15.142   2.504 -0.2025 -0.0909 -0.2289
    1W        W64930  19.428  22.575   0.511 -0.1670 -0.1136 -0.0800
    1W        W64931   1.744  13.680   6.552 -0.1538  0.1382 -0.1699
    1W        W64932   8.342   5.624   1.599 -0.1466 -0.0448 -0.0954
    1W        W64933  27.666  11.678   8.620 -0.1219 -0.1525  0.1119
    1W        W64934  19.987  26.771   1.721  0.0102 -0.0736 -0.0564
    1W        W64935   9.573   3.517   7.407  0.1004 -0.2458 -0.4201
    1W        W64936  20.492  28.103   1.012 -0.0018 -0.1726 -0.1415
    1W        W64937   3.903   7.646   0.590  0.0506  0.0348  0.3334
    1W        W64938   7.849  16.132   6.309  0.0808  0.1568 -0.0420
    1W        W64939  20.468   3.744   1.201  0.0435 -0.1435 -0.1763
    1W        W64940  27.708   8.038   1.698 -0.1418 -0.1300  0.4579
    1W        W64941  10.394   4.490   2.817 -0.4072  0.1714  0.4066
    1W        W64942  26.039   6.425   2.818  0.0396  0.0710  0.0838
    1W        W64943  21.845   1.855   8.915  0.1577  0.0004  0.0784
    1W        W64944  23.608   1.771   1.560 -0.4196  0.1331 -0.3020
    1W        W64945  10.275  29.780   1.757 -0.0877 -0.1306 -0.1594
    1W        W64946   8.234  28.768   7.853  0.1319  0.3686 -0.1828
    1W        W64947   4.338   3.803   8.858 -0.0509 -0.2721  0.1110
    1W        W64948  22.673  21.207   1.011  0.1513 -0.1513  0.1295
    1W        W64949  27.771  20.447   8.801 -0.0903 -0.0200  0.2325
    1W        W64950  20.426  23.175   2.200  0.2114  0.0490  0.2240
    1W        W64951   8.411  23.444   9.175  0.2455  0.0146 -0.1398
    1W        W64952  20.854   5.585   8.254  0.2198 -0.3630 -0.0220
    1W        W64953  14.458  25.169   0.085  0.0232 -0.1458  0.2151
    1W        W64954  18.490   9.669   7.911  0.1364 -0.1391  0.0035
    1W        W64955  15.903   1.857   3.494 -0.1716 -0.0845  0.0693
    1W        W64956   0.471  16.232   8.499  0.0147  0.2553  0.1879
    1W        W64957  18.979  11.770   6.923 -0.0259  0.1373  0.0669
    1W        W64958   2.728  18.104   1.637  0.2020 -0.1313 -0.1638
    1W        W64959   5.804   4.284   0.161 -0.0712 -0.0540  0.2033
    1W        W64960  19.808  12.347   1.694 -0.2702  0.0923  0.0805
    1W        W64961   7.020   9.998   6.496  0.2628  0.2955 -0.4019
    1W        W64962  20.155  28.898   0.551  0.2716  0.0712 -0.0032
    1W        W64963  28.047  22.485   2.548 -0.3371  0.4265  0.0304
    1W        W64964   8.767   4.463   3.156  0.0246 -0.1529  0.0776
    1W        W64965  27.044   3.809   7.359 -0.1576  0.0142  0.2673
    1W        W64966   4.027   7.398   7.523 -0.4446 -0.0762 -0.3105
    1W        W64967   9.598  25.139   8.804  0.1654  0.1286 -0.2300
    1W        W64968   6.861  26.517   7.323 -0.0049 -0.2249 -0.1951
    1W        W64969   0.845   7.501   9.037  0.1430  0.2442  0.3037
    1W        W64970  11.960  27.789   9.123  0.2451 -0.1805  0.2913
    1W        W64971  28.213  23.695   7.048  0.2642 -0.1237 -0.1676
    1W        W64972  26.155  25.755   8.214 -0.1891  0.0297 -0.0698
    1W        W64973  18.065   9.390   7.666  0.1645  0.0253  0.1038
    1W        W64974  27.750   1.415   0.455 -0.0021  0.2569  0.2521
    1W        W64975  10.814  17.604   2.542 -0.1792  0.2209 -0.0654
    1W        W64976  14.721  19.047   1.842  0.2024  0.0231  0.4066
    1W        W64977  24.039   4.772   8.575  0.2405 -0.3977  0.0490
    1W        W64978  12.309  19.291   0.539  0.1976  0.3125 -0.0355
    1W        W64979   4.733   8.628   1.478  0.0780 -0.0545 -0.2835
    1W        W64980  17.680   8.503   7.109  0.1341  0.2107  0.3102
    1W        W64981  14.526   9.051   9.216  0.2104 -0.0995  0.1941
    1W        W64982  25.750  18.590   9.045 -0.0048 -0.2193  0.0570
    1W        W64983  24.487   1.298   8.323 -0.2083 -0.4820 -0.1001
    1W        W64984   4.407   2.405   0.454 -0.0921  0.0786  0.1047
    1W        W64985   2.452   5.642   6.918  0.0249 -0.1683  0.0393
    1W        W64986   6.499  18.955   0.441  0.0409  0.1706 -0.0563
    1W        W64987  23.619  18.154   7.742  0.1610  0.0846  0.0580
    1W        W64988  27.198   6.856   6.816 -0.0168 -0.1758  0.0571
    1W        W64989   3.396  13.061   7.999  0.0355 -0.1676 -0.2312
    1W        W64990   3.224  16.662   1.294 -0.0203  0.0210 -0.1359
    1W        W64991  28.151  10.401   1.661 -0.1681 -0.3083  0.0817
    1W        W64992  23.729   3.834   2.105  0.1582 -0.0045  0.1418
    1W        W64993  23.729  17.183   2.172 -0.1823 -0.0191 -0.1685
    1W        W64994   8.197  20.288   2.171 -0.0214 -0.2886 -0.0045
    1W        W64995  16.697  27.303   0.386 -0.2230 -0.2828  0.1326
    1W        W64996  29.217   0.141   1.991  0.2768  0.0525 -0.1435
    1W        W64997  12.163   1.682   8.780  0.1158  0.0036 -0.2956
    1W        W64998  25.143   2.038   8.436 -0.3458  0.2078  0.0203
    1W        W64999   7.694  20.963   8.990 -0.0146  0.1613 -0.0179
    1W        W65000   8.890  23.188   1.675 -0.0811 -0.0049 -0.3132
    1W        W65001  15.878  13.666   1.437 -0.2913  0.0409 -0.3564
    1W        W65002  24.988   2.803   6.674  0.3742  0.2572  0.0909
    1W        W65003  18.879  25.294   8.231  0.0855  0.0520 -0.0164
    1W        W65004  17.607   3.140   8.685 -0.0194 -0.0728 -0.2785
    1W        W65005   5.603   2.527   7.395 -0.0851 -0.0645 -0.0843
    1W        W65006  27.496  14.046   6.787 -0.1825  0.0071 -0.1200
    1W        W65007  21.008  28.646   8.865 -0.5236  0.2550 -0.2334
    1W        W65008   8.703  21.388   8.996 -0.1242  0.0956  0.2953
    1W        W65009  18.658  20.673   2.244 -0.2452  0.0681  0.1731
    1W        W65010  21.667   5.298   0.577 -0.0494 -0.2226  0.3823
    1W        W65011   6.797  16.529   6.874 -0.1124 -0.0103 -0.1927
    1W        W65012   7.840  22.697   6.986  0.1830 -0.2131 -0.0961
    1W        W65013  28.138   4.414   8.915 -0.1546 -0.1984  0.1683
    1W        W65014  13.806  18.205   2.353 -0.2424 -0.0091 -0.2993
    1W        W65015  28.746   4.227   1.064  0.0716  0.1760  0.3076
    1W        W65016   2.659  24.802   5.393 -0.0667 -0.1222 -0.2464
    1W        W65017  27.933  25.923   0.941 -0.0081  0.0485 -0.1701
    1W        W65018   9.223  19.552   8.872  0.1699  0.0018  0.0071
    1W        W65019  26.435  14.426   1.638  0.0408 -0.1213  0.0738
    1W        W65020  28.548  11.560   7.055  0.0337 -0.0932 -0.2448
    1W        W65021   0.851   2.995   1.389 -0.0958  0.0878  0.1258
    1W        W65022   2.461   5.758   0.361  0.0855  0.1206  0.0311
    1W        W65023   9.307  22.132   7.349 -0.1670 -0.2554 -0.1153
    1W        W65024  23.927  14.519   2.295  0.4109 -0.0187  0.3659
    1W        W65025   9.354   7.360   1.992  0.0718 -0.0541  0.0127
    1W        W65026  12.613   2.887   2.669 -0.1115 -0.0448  0.0834
    1W        W65027  21.007   8.412   7.975 -0.1681  0.0448 -0.1374
    1W        W65028   9.579  20.864   7.766 -0.2148 -0.1807  0.1741
    1W        W65029  20.526  10.316   2.278  0.1036 -0.0300 -0.0532
    1W        W65030   6.825  21.374   8.688 -0.0658 -0.0696  0.3145
    1W        W65031  19.259  18.875   7.818 -0.2338  0.0455 -0.0866
    1W        W65032  24.634  29.550   0.652  0.3243  0.0672 -0.1770
    1W        W65033  22.196  22.994   2.991  0.0801 -0.2689 -0.0779
    1W        W65034  11.900  10.835   0.952  0.1571 -0.0897 -0.0950
    1W        W65035  27.272   9.112   1.762  0.1360 -0.4793 -0.3067
    1W        W65036  21.368  21.743   0.732 -0.2544 -0.0105  0.1139
    1W        W65037  13.508  19.654   7.318 -0.1293  0.3571  0.2405
    1W        W65038   9.872  19.224   7.722  0.3014 -0.1015 -0.0279
    1W        W65039   0.188  13.572   8.876 -0.0195  0.3419  0.2546
    1W        W65040   6.307   3.074   9.142 -0.2448  0.0629  0.1520
    1W        W65041   7.237  24.857   2.651  0.2097 -0.0491 -0.1789
    1W        W65042  13.269  28.101   9.029 -0.0791 -0.4418 -0.4222
    1W        W65043   0.071  21.530   8.364  0.2589 -0.3229 -0.3886
    1W        W65044  26.707  15.982   6.940 -0.3278 -0.0105  0.2544
    1W        W65045   5.572  16.353   0.636  0.2058 -0.3743 -0.0553
    1W        W65046   3.340  15.260   8.450  0.1382  0.2108 -0.0223
    1W        W65047   2.300  15.545   1.462  0.0087 -0.0433 -0.0822
    1W        W65048  15.624   8.715   7.145  0.0953  0.2503  0.3751
    1W        W65049  13.931   2.678   1.801 -0.0632 -0.3088  0.0342
    1W        W65050   3.799   3.171   3.358  0.0750 -0.4471  0.1718
    1W        W65051   6.399   4.276   8.874  0.0064 -0.0980  0.1790
    1W        W65052   1.933  20.974   0.872  0.1676 -0.0802  0.2424
    1W        W65053  24.595  28.498   0.550 -0.0971 -0.1454  0.0485
    1W        W65054   0.911  26.535   8.518 -0.0961  0.1255 -0.0775
    1W        W65055  20.276  22.273   2.083  0.3458  0.0595  0.1869
    1W        W65056  17.460  23.578   2.098 -0.0174  0.1338  0.0618
    1W        W65057  27.424  11.240   1.409  0.1578 -0.0321  0.2247
    1W        W65058   0.624  25.376   6.690 -0.0716  0.1486 -0.1940
    1W        W65059   2.653   6.274   2.902  0.3285  0.1516 -0.1313
    1W        W65060  27.179   4.659   0.797  0.0550  0.2000  0.1393
    1W        W65061  22.889  18.310   2.145  0.0902 -0.0134 -0.2554
    1W        W65062  24.511   1.261   0.594 -0.0298  0.0582  0.1420
    1W        W65063  26.507  29.024   1.662  0.1173 -0.0041  0.0330
    1W        W65064   1.454  28.237   0.989 -0.1684 -0.0575 -0.0788
    1W        W65065  27.818   7.762   6.350  0.1946  0.0324 -0.4544
    1W        W65066   4.902   0.198   8.116 -0.0904 -0.0218 -0.0899
    1W        W65067  22.020  16.118   7.417  0.0821  0.2425  0.0347
    1W        W65068  21.210  23.985   8.955  0.1629 -0.3250  0.1437
    1W        W65069   2.763  23.642   8.860 -0.3712 -0.1046  0.3784
    1W        W65070  26.110   0.474   7.178 -0.2438  0.0327 -0.1952
    1W        W65071  13.372  20.364   9.211 -0.4649 -0.2844  0.0639
    1W        W65072   1.334  17.986   8.503 -0.0061  0.2091  0.1389
    1W        W65073  10.449  23.112   8.797  0.0710 -0.0095  0.0224
    1W        W65074  13.970  16.348   8.434  0.1418 -0.1576  0.2040
    1W        W65075  11.880   9.288   2.990 -0.0277  0.1414 -0.2552
    1W        W65076  22.012   6.431   1.989  0.1439  0.0248  0.0249
    1W        W65077  10.445   2.328   0.361  0.1226 -0.1006  0.0315
    1W        W65078  25.468  10.697   1.564  0.1117  0.1468 -0.0380
    1W        W65079  14.944  20.379   7.712  0.0981 -0.0917 -0.1439
    1W        W65080  26.236   5.509   6.870 -0.2258  0.0078 -0.0867
    1W        W65081  17.894   1.530   1.807 -0.1226  0.0933  0.1826
    1W        W65082  15.013  26.049   0.499  0.5607  0.2286 -0.2220
    1W        W65083   6.094   6.540   2.435 -0.0533  0.0657 -0.0052
    1W        W65084   7.426  12.301   8.167 -0.0398  0.1584 -0.0520
    1W        W65085   8.269  10.245   2.701 -0.2013 -0.0659 -0.1888
    1W        W65086  13.963  17.552   0.168  0.2415 -0.2326  0.1063
    1W        W65087   6.858  15.733   1.407  0.0534  0.1245 -0.0711
    1W        W65088   5.739  26.243   1.587  0.1647  0.0148 -0.4830
    1W        W65089   5.723  24.059   1.890  0.0154  0.0207 -0.0124
    1W        W65090   6.772  10.802   8.098  0.0391 -0.2472  0.2245
    1W        W65091  17.581  28.342   8.667 -0.2225 -0.0834  0.1397
    1W        W65092  29.605   2.194   2.453 -0.0538  0.1405  0.1490
    1W        W65093  29.561  21.656   2.753 -0.3540  0.1682  0.0151
    1W        W65094  22.859   6.390   0.255  0.0007 -0.2058  0.3000
    1W        W65095  22.732  26.554   8.398 -0.4374 -0.0360 -0.0725
    1W        W65096  25.571   3.528   6.166 -0.2289 -0.0305 -0.0883
    1W        W65097  24.989  17.503   1.828 -0.0998  0.0511 -0.2294
    1W        W65098  14.787  12.178   9.055 -0.0629 -0.0912  0.0426
    1W        W65099  13.608   8.156   0.935  0.2976  0.1528 -0.0378
    1W        W65100   8.724  22.744   7.148  0.1466 -0.2959 -0.1792
    1W        W65101  22.706  17.151   2.316  0.0047 -0.2282  0.2643
    1W        W65102  12.649   7.810   1.362  0.0004 -0.1546  0.0487
    1W        W65103  12.072   5.051   3.027 -0.1904  0.0236  0.0184
    1W        W65104  21.140  27.467   2.386 -0.1060  0.1470 -0.1697
    1W        W65105   6.676  11.333   2.663 -0.0361 -0.3268 -0.1635
    1W        W65106   1.842  11.206   0.212 -0.1274 -0.0584  0.0642
    1W        W65107   9.178   3.932   8.178 -0.0915 -0.1110 -0.0087
    1W        W65108  16.030  26.451   7.869  0.0504  0.1829  0.1941
    1W        W65109   9.924   9.071   0.994 -0.0427 -0.2182  0.4090
    1W        W65110  17.763  26.051   2.924 -0.2677  0.0874 -0.2266
    1W        W65111   8.306   0.288   8.944 -0.0155  0.1104 -0.0683
    1W        W65112  17.315  27.383   7.744 -0.2335  0.1643  0.1193
    1W        W65113  12.215  24.683   6.982  0.3717 -0.0846  0.1993
    1W        W65114  10.356   1.583   2.792 -0.0866 -0.6077 -0.1102
    1W        W65115  11.824   2.068   2.175  0.0545 -0.2860 -0.1968
    1W        W65116   8.609   1.503   2.759  0.0195 -0.1892  0.0783
    1W        W65117   0.916   2.388   1.410 -0.2290 -0.5038  0.0388
    1W        W65118   6.232   8.963   1.458 -0.4181 -0.3692  0.5034
    1W        W65119  16.003   1.257   7.851  0.0252 -0.2033 -0.1282
    1W        W65120  26.581  18.483   6.557  0.0862 -0.1116 -0.2622
    1W        W65121   3.963   6.823   9.071  0.1184 -0.3811  0.2065
    1W        W65122  20.823  18.782   7.282  0.0940  0.0592  0.0583
    1W        W65123  12.274  20.786   9.369 -0.1288 -0.0312 -0.2972
    1W        W65124  24.609   1.275   0.075 -0.2227 -0.1219  0.0803
    1W        W65125  22.214  26.027   0.834 -0.3446  0.1145  0.2705
    1W        W65126  12.351  10.713   1.785 -0.2123  0.3156 -0.1207
    1W        W65127  28.800  16.394   0.968  0.2024  0.0745 -0.3536
    1W        W65128  17.898  13.597   7.865 -0.1690  0.1678  0.1295
    1W        W65129  16.704   2.692   8.999 -0.2615 -0.2143 -0.4247
    1W        W65130   2.296   6.532   7.797  0.1631 -0.0829  0.0979
    1W        W65131  13.897  11.949   1.227  0.1325  0.2269 -0.1334
    1W        W65132  12.664   4.696   8.477 -0.0224  0.2231  0.1262
    1W        W65133   6.918   2.116   3.789  0.2232 -0.0644 -0.2017
    1W        W65134  14.461   5.393   7.111  0.2138 -0.2034  0.2404
    1W        W65135  24.268   0.575   8.963 -0.0024  0.0787 -0.0697
    1W        W65136  15.669  11.635   0.935  0.0088 -0.1837 -0.0303
    1W        W65137   6.924  23.078   9.337  0.0355  0.0539 -0.1902
    1W        W65138  25.270   3.745   1.645  0.1956 -0.4385 -0.2781
    1W        W65139  26.891   7.270   0.004 -0.2807  0.4650  0.3053
    1W        W65140  20.364  17.210   8.425 -0.2172 -0.1319  0.2427
    1W        W65141   2.639  15.901   1.444  0.0718  0.1534 -0.0583
    1W        W65142   9.426  16.471   0.517 -0.1817  0.0094  0.0404
    1W        W65143   7.680   2.535   2.761 -0.0461 -0.1085 -0.2480
    1W        W65144   7.801   4.831   7.722  0.0362 -0.1023 -0.0452
    1W        W65145  28.184  14.282   0.145  0.0009  0.0228 -0.0317
    1W        W65146  17.947   7.451   1.134  0.0411  0.1632  0.1051
    1W        W65147   0.085   6.207   1.051  0.0026  0.4513  0.3509
    1W        W65148   4.832  26.004   7.854  0.0192  0.1664 -0.1265
    1W        W65149  16.625  10.130   7.370 -0.0892 -0.0178  0.2456
    1W        W65150  12.131  25.274   2.729 -0.2031 -0.2151 -0.2367
    1W        W65151  21.923  24.441   0.031  0.2352  0.1132 -0.1367
    1W        W65152  24.116  20.727   8.163  0.2640  0.2473 -0.2784
    1W        W65153   7.208  21.557   6.511 -0.0436  0.1430 -0.1267
    1W        W65154   6.761  18.104   0.665  0.0258 -0.0851 -0.0869
    1W        W65155   6.520  25.184   1.773 -0.0847 -0.0234 -0.1233
    1W        W65156  13.159   9.234   1.891  0.0008 -0.0877 -0.3617
    1W        W65157  14.868   3.611   0.228 -0.1208  0.0039 -0.1635
    1W        W65158  17.912  22.828   0.621  0.0443 -0.1123 -0.1165
    1W        W65159  28.023   7.897   2.019 -0.3866  0.0246 -0.2437
    1W        W65160   3.138  24.176   1.530 -0.2461 -0.0140  0.0466
    1W        W65161  21.266  27.904   1.226  0.1891  0.3113 -0.0945
    1W        W65162   3.972   0.490   1.480  0.0851 -0.0706 -0.0011
    1W        W65163  10.457   8.375   0.705  0.2875 -0.2844 -0.1365
    1W        W65164  16.805  17.668   0.826 -0.4100  0.0767 -0.0235
    1W        W65165  15.302   4.149   2.099 -0.1784  0.0050 -0.1052
    1W        W65166  11.686  28.804   8.376 -0.1980  0.0153 -0.1246
    1W        W65167   3.084  26.713   1.483  0.1393 -0.2533  0.0964
    1W        W65168  28.649   5.058   0.024 -0.0793 -0.2570  0.0485
    1W        W65169  12.124  12.000   1.242  0.2569 -0.0195  0.1482
    1W        W65170   0.998  11.765   1.432 -0.4030  0.0016  0.0197
    1W        W65171  27.250  23.988   7.837 -0.0974  0.0036  0.0767
    1W        W65172   7.413  16.437   6.291 -0.0023 -0.2274  0.0869
    1W        W65173  26.644   8.458   2.503 -0.0464  0.0611 -0.0027
    1W        W65174   0.132  25.648   0.904 -0.4769 -0.1526  0.0363
    1W        W65175  23.780  13.150   9.255 -0.1085 -0.0975  0.1058
    1W        W65176  26.132  11.122   1.341 -0.0765  0.1500  0.1562
    1W        W65177  14.000   4.712   1.922 -0.2009 -0.1158 -0.1476
    1W        W65178  27.188  22.217   9.166  0.0514 -0.2334 -0.2540
    1W        W65179  19.150  28.462   8.541 -0.0707 -0.2043 -0.1016
    1W        W65180  17.090  15.336   1.645  0.0161  0.0341  0.0378
    1W        W65181  15.326  27.131   0.748 -0.1489 -0.1657  0.0844
    1W        W65182   5.916  24.709   0.119  0.0819 -0.1595 -0.1412
    1W        W65183   5.828   2.821   1.107 -0.1403  0.0328  0.0643
    1W        W65184  10.552  22.130   0.444  0.3042 -0.3292 -0.0257
    1W        W65185   8.006   1.813   8.996  0.0715  0.1098  0.1663
    1W        W65186  26.260   8.262   2.741 -0.0576 -0.1312 -0.3782
    1W        W65187   6.630  16.156   9.090  0.0836  0.2920 -0.0974
    1W        W65188   0.603  17.241   7.599 -0.3513  0.0979 -0.0969
    1W        W65189  17.594   7.787   7.994  0.3723 -0.0960  0.1102
    1W        W65190   4.007  15.154   7.763 -0.0687 -0.1164 -0.0675
    1W        W65191   4.343  20.345   1.984  0.0839  0.1749 -0.1043
    1W        W65192  28.437   3.797   8.183  0.5660  0.1706  0.0049
    1W        W65193  26.935  27.590   1.410 -0.1190 -0.1073 -0.1366
    1W        W65194  27.115  21.655   0.520 -0.3887  0.2048  0.1036
    1W        W65195  15.520  18.892   8.861  0.0046 -0.1497 -0.0771
    1W        W65196  17.870   3.823   0.862 -0.1551  0.0189 -0.0460
    1W        W65197   0.260  12.169   7.962  0.1069  0.0767  0.0035
    1W        W65198   5.527  14.453   7.560  0.2122  0.2856 -0.0351
    1W        W65199   4.583  29.194   8.843 -0.0627 -0.1843 -0.1180
    1W        W65200  12.435   0.480   0.819  0.1851 -0.0072 -0.0333
    1W        W65201  15.974  12.665   0.102  0.1601 -0.0348 -0.4240
    1W        W65202   4.816  11.320   9.006  0.0903  0.0562  0.0599
    1W        W65203  25.494  20.874   7.296 -0.0463 -0.1823 -0.2225
    1W        W65204   7.121   8.330   8.353  0.1024  0.3024  0.0429
    1W        W65205   1.430  14.423   1.703 -0.1825  0.0133 -0.2284
    1W        W65206   4.170  15.225   7.236 -0.0848 -0.2652 -0.3019
    1W        W65207  25.783  14.405   1.005 -0.0145  0.0391  0.0894
    1W        W65208  10.233  28.511   0.948 -0.4084 -0.0208  0.1071
    1W        W65209  10.046  21.981   5.960 -0.0674 -0.0862  0.0720
    1W        W65210   7.624  28.218   2.943 -0.0466  0.0862 -0.1083
    1W        W65211  22.912   9.273   6.373  0.0071  0.1398  0.1761
    1W        W65212  24.102   7.420   0.560  0.2424 -0.4082 -0.2475
    1W        W65213  25.449  11.915   2.060  0.0310 -0.1039 -0.0246
    1W        W65214  10.520  23.250   0.325  0.0118 -0.2333  0.1856
    1W        W65215   1.357  18.043   9.403 -0.3033 -0.0284  0.2254
    1W        W65216  22.768  21.528   1.936 -0.0030  0.1075 -0.1950
    1W        W65217   2.493  14.447   8.576 -0.1481  0.1775 -0.0908
    1W        W65218  26.579  10.419   7.773  0.1887  0.1756  0.2652
    1W        W65219  29.516  19.858   6.367 -0.0349  0.0443 -0.1046
    1W        W65220   3.776  23.374   5.528 -0.1190 -0.1337  0.0892
    1W        W65221  10.555   2.460   3.873 -0.0756 -0.1171  0.1967
    1W        W65222  12.164  16.946   7.361  0.1167 -0.2027 -0.3121
    1W        W65223  14.691  25.329   0.858  0.0566 -0.1447  0.0760
    1W        W65224  18.789  27.620   1.880 -0.0874  0.0336 -0.0371
    1W        W65225   7.474  28.739   3.136  0.0043  0.0343  0.4025
    1W        W65226  24.724  11.215   8.236  0.1295  0.1167  0.2261
    1W        W65227  19.344   6.328   1.005  0.2601 -0.1768 -0.2834
    1W        W65228  25.531   3.532   7.810  0.2093  0.2003  0.0730
    1W        W65229   9.080  18.555   9.107 -0.1373 -0.2151  0.0468
    1W        W65230   0.424   7.128   8.915  0.1237 -0.1491  0.3851
    1W        W65231   1.020  11.397   7.411 -0.0683 -0.1605  0.3114
    1W        W65232  17.689  29.500   3.116  0.2514  0.0458  0.0369
    1W        W65233  23.450  13.683   7.150  0.2377  0.0028  0.0154
    1W        W65234  26.812  18.455   7.569  0.1159  0.0074  0.1243
    1W        W65235  12.950   4.631   2.344 -0.3327  0.1104 -0.1136
    1W        W65236   0.883  29.442   6.322  0.1432  0.4820  0.0261
    1W        W65237  27.128  25.054   3.213  0.1110  0.0746  0.1143
    1W        W65238   0.654   6.183   2.057 -0.0114 -0.0870  0.1030
    1W        W65239  23.795  26.172   2.796 -0.0047 -0.0383 -0.2413
    1W        W65240  22.254  20.343   2.048 -0.2329 -0.2231  0.0887
    1W        W65241  15.789   1.742   1.285  0.2504  0.3502  0.0656
    1W        W65242  28.247  16.932   0.643 -0.1848 -0.2949 -0.0869
    1W        W65243  23.103  24.556   8.075 -0.3109 -0.1914 -0.1801
    1W        W65244  27.768  29.539   1.627  0.0115  0.1005 -0.0441
    1W        W65245  25.197  26.078   6.062  0.2532 -0.3003 -0.2307
    1W        W65246  21.123  21.644   2.483  0.0620 -0.1057  0.0902
    1W        W65247  14.543   2.401   8.408  0.1818 -0.1891  0.2164
    1W        W65248  25.106  22.211   1.308  0.1952  0.1467  0.3609
    1W        W65249  25.609  22.894   2.563 -0.0137 -0.1484  0.2330
    1W        W65250  25.840  15.394   6.693 -0.3332 -0.1918 -0.1014
    1W        W65251  21.332   0.819   6.944 -0.1952 -0.1698  0.2000
    1W        W65252   7.852   6.805   0.966  0.0526 -0.1680 -0.1771
    1W        W65253  13.788  19.143   7.476 -0.5386  0.0855 -0.0241
    1W        W65254   5.581  28.953   2.249 -0.1231  0.2975  0.0148
    1W        W65255   0.292   9.651   2.378  0.2974  0.2126 -0.0054
    1W        W65256  16.160   1.275   8.365  0.1267 -0.1027  0.0707
    1W        W65257  20.309  25.463   7.113 -0.0659  0.1664  0.1162
    1W        W65258  15.336  20.757   0.481  0.1637  0.2662  0.1490
    1W        W65259   3.685  14.620   7.081 -0.2397  0.2555  0.2031
    1W        W65260  11.561  23.962   1.117 -0.1246  0.2849 -0.1380
    1W        W65261   6.109   3.034   8.184 -0.0760  0.2035  0.0645
    1W        W65262  23.750  24.176   1.620 -0.3053 -0.4837  0.2470
    1W        W65263   2.951  17.649   0.587  0.2590 -0.2334 -0.1750
    1W        W65264   4.096   1.335   6.253 -0.2667 -0.0385  0.0637
    1W        W65265  13.940  25.704   1.361  0.2222  0.0923 -0.3340
    1W        W65266  22.404  25.411   0.536 -0.0661 -0.1483 -0.2737
    1W        W65267  12.285  12.445   0.982  0.0194 -0.0628 -0.1120
    1W        W65268   4.016   9.613   3.451  0.0413  0.0227  0.1798
    1W        W65269   6.946   6.117   8.399  0.0839 -0.0217  0.1452
    1W        W65270   3.585  10.975   2.260  0.1108  0.0323  0.1695
    1W        W65271  22.553  27.390   3.130  0.1427 -0.0502  0.0553
    1W        W65272   8.142  19.015   1.806 -0.0514  0.0004  0.1315
    1W        W65273  17.295   5.894   1.453  0.2495 -0.3138  0.2117
    1W        W65274  20.484   8.153   0.468 -0.2488 -0.0534 -0.2250
    1W        W65275  20.057  10.706   7.049  0.5189  0.1327 -0.1671
    1W        W65276  19.283   6.385   9.319 -0.2128 -0.0342  0.0604
    1W        W65277   7.326  18.651   2.605  0.1847  0.2069 -0.0778
    1W        W65278  26.009  29.552   8.720  0.2578  0.0087 -0.0548
    1W        W65279   1.361  27.355   8.242 -0.1625 -0.2083 -0.1691
    1W        W65280  14.176  26.855   9.209 -0.1896  0.2880 -0.0646
    1W        W65281  18.429  28.891   2.228  0.0439  0.3995  0.1855
    1W        W65282  26.520  25.032   1.292 -0.3533 -0.1737 -0.3643
    1W        W65283  21.364   2.891   3.212  0.2166  0.0675  0.0099
    1W        W65284   8.638  21.536   0.582  0.0403  0.1712  0.0996
    1W        W65285   1.784   2.742   8.994  0.1569 -0.0487  0.3034
    1W        W65286  10.982  17.568   1.482  0.1078  0.1370 -0.2797
    1W        W65287  21.891  14.342   0.432 -0.1291  0.1246  0.0353
    1W        W65288  21.662   6.073   7.393  0.1092  0.2553  0.0257
    1W        W65289  15.634   2.769   7.979  0.1397 -0.0489 -0.1626
    1W        W65290  20.231  12.429   6.927  0.1369  0.0308 -0.0051
    1W        W65291  18.830  12.011   0.843  0.2877  0.0005 -0.3173
    1W        W65292  12.415   2.774   8.058  0.0357  0.1049 -0.1227
    1W        W65293  25.053   5.631   1.921 -0.0875 -0.0467  0.0603
    1W        W65294   4.109  19.826   1.018 -0.2739 -0.1298  0.1678
    1W        W65295   6.806  27.601   3.308  0.2247 -0.4623  0.0517
    1W        W65296  28.629   6.939   1.648 -0.0946  0.0698 -0.0609
    1W        W65297   3.534  25.897   6.748  0.1326  0.2027  0.0385
    1W        W65298  26.681  21.151   7.213  0.3186 -0.1412 -0.0556
    1W        W65299  29.594  26.431   1.757 -0.0605 -0.0383  0.3079
    1W        W65300   2.777  13.181   0.639  0.2017 -0.0604 -0.0391
    1W        W65301   6.720  10.838   0.906 -0.3177 -0.1458 -0.1308
    1W        W65302  24.726  16.384   8.617 -0.0767  0.3519 -0.2927
    1W        W65303  21.900   8.943   8.286  0.2163  0.2058  0.1434
    1W        W65304   3.811   3.049   0.346 -0.3753  0.0624  0.0671
    1W        W65305  28.615   9.094   8.680  0.2887  0.0571  0.4807
    1W        W65306  24.496   5.968   2.032 -0.1357 -0.1091  0.0423
    1W        W65307  26.968   0.670   8.481  0.2623 -0.0241  0.0526
    1W        W65308  24.366  26.123   0.592 -0.0132 -0.0305  0.0528
    1W        W65309  10.022  15.550   7.466  0.0884  0.0515  0.1915
    1W        W65310  27.246  14.173   5.896  0.1356  0.2829  0.4263
    1W        W65311   1.577   5.149   6.362  0.0051 -0.2588 -0.0034
    1W        W65312  27.675  12.615   0.128  0.0462 -0.1102 -0.1312
    1W        W65313  29.032  28.901   8.017 -0.1498  0.0671  0.0818
    1W        W65314   2.491  24.499   0.055  0.2854  0.2365  0.3365
    1W        W65315  16.253   3.824   9.366 -0.1786 -0.0491 -0.0328
    1W        W65316  26.396   4.569   7.683  0.1811  0.0756 -0.0315
    1W        W65317   3.081  14.796   6.836  0.0006 -0.0870  0.1239
    1W        W65318   1.028  23.165   7.801 -0.4250  0.0814 -0.1246
    1W        W65319  24.128  26.789   2.111  0.2198 -0.0412  0.0222
    1W        W65320  28.502  27.589   1.848  0.0862  0.0448  0.2467
    1W        W65321  28.615   5.971   3.138 -0.1134 -0.0766  0.0188
    1W        W65322  21.932   1.515   1.187 -0.0063 -0.0693 -0.0878
    1W        W65323  20.640  22.887   0.623  0.0456 -0.0367 -0.2884
    1W        W65324  26.359   1.786   8.977  0.1449  0.3261  0.0757
    1W        W65325  13.083  13.830   2.822  0.1746 -0.0634 -0.0565
    1W        W65326  29.777  22.148   7.056 -0.0779  0.0359  0.0389
    1W        W65327  14.476  21.751   8.258 -0.2552  0.1969 -0.1560
    1W        W65328  15.061  25.011   0.766  0.0742 -0.0639 -0.2936
    1W        W65329   3.212  15.772   7.683 -0.2552  0.1834  0.1675
    1W        W65330  15.074   1.319   1.444  0.2692 -0.3537  0.4191
    1W        W65331   7.192  26.437   0.986 -0.2140  0.2433 -0.3235
    1W        W65332   3.673   6.964   8.150  0.1671  0.0068  0.0025
    1W        W65333  24.308   5.385   7.854  0.1778 -0.1653 -0.3221
    1W        W65334   1.454   9.124   8.094  0.0759 -0.3089 -0.2368
    1W        W65335  16.175  15.190   0.004  0.0138 -0.3687 -0.0604
    1W        W65336  13.875   1.533   3.044 -0.1786 -0.4244 -0.2221
    1W        W65337  23.909  21.947   1.049  0.0129  0.0571  0.0141
    1W        W65338   3.322  17.243   0.471 -0.3365  0.2025  0.1041
    1W        W65339  24.803  15.883   0.963 -0.1641  0.1569 -0.2291
    1W        W65340  22.107  16.921   6.805 -0.0799 -0.1437  0.1370
    1W        W65341  16.152  25.884   2.747 -0.0387 -0.0317 -0.3029
    1W        W65342  26.762   0.111   2.140  0.3615  0.0620 -0.3157
    1W        W65343  16.026   2.288   1.047 -0.0521 -0.0291 -0.1467
    1W        W65344  21.091  13.717   9.417 -0.3131  0.0312 -0.3697
    1W        W65345  19.064  13.082   6.478  0.4313  0.0842  0.2179
    1W        W65346  25.424   4.268   3.426  0.3007 -0.5430  0.0765
    1W        W65347  17.012  19.580   8.024  0.0730  0.4598  0.1789
    1W        W65348   8.951  23.896   0.937  0.1992 -0.0861 -0.0696
    1W        W65349  22.804  27.970   7.025  0.0910  0.3327 -0.0976
    1W        W65350  22.404   9.645   2.892 -0.2941 -0.2406 -0.1837
    1W        W65351  24.305  29.765   9.262 -0.1362  0.0235  0.1471
    1W        W65352  26.246   9.079   0.110 -0.0718 -0.0519 -0.4022
    1W        W65353  10.935   2.258   8.377 -0.0034  0.2824  0.0943
    1W        W65354  27.607   4.348   7.539 -0.0104  0.1156  0.0720
    1W        W65355   7.939  22.260   5.987  0.1419  0.0509 -0.0580
    1W        W65356  23.644   4.338   1.467  0.0476  0.0592 -0.0973
    1W        W65357  15.019   6.301   2.436  0.2979 -0.1297 -0.1865
    1W        W65358   5.731  29.433   1.896  0.3604  0.0899 -0.2809
    1W        W65359  22.687   5.461   6.153  0.2399  0.3164 -0.1348
    1W        W65360  24.985  17.989   1.088 -0.2753  0.0259  0.2847
    1W        W65361   5.691  14.887   2.133  0.1442  0.3052  0.0568
    1W        W65362   3.496   6.604   9.228  0.1665  0.0156  0.0916
    1W        W65363   1.268  17.939   7.295  0.0068 -0.1607  0.3267
    1W        W65364  28.186  22.149   9.312 -0.1332 -0.0727 -0.0174
    1W        W65365   3.431   3.329   8.958  0.1123  0.2174  0.3154
    1W        W65366   5.220  14.435   1.333 -0.1027 -0.2637 -0.0448
    1W        W65367  12.244  17.322   1.812  0.3150 -0.0813 -0.0784
    1W        W65368  28.241  18.131   3.032 -0.2200 -0.1703  0.0078
    1W        W65369  27.604   2.874   6.193  0.1185 -0.3526  0.2166
    1W        W65370   4.569   8.131   1.191 -0.0924  0.1496 -0.0188
    1W        W65371  29.697  27.900   8.601 -0.2629  0.0396 -0.1702
    1W        W65372  22.373  20.348   2.945 -0.1593 -0.1160 -0.0493
    1W        W65373  10.251  17.431   0.651  0.0129 -0.0084  0.2408
    1W        W65374  24.841   1.647   8.333 -0.1082 -0.0959 -0.1023
    1W        W65375  13.913  12.137   1.738  0.1545  0.0353 -0.1751
    1W        W65376   1.101  28.723   1.690  0.4246  0.0879 -0.3303
    1W        W65377  16.280   4.606   2.973 -0.1451  0.0892  0.0271
    1W        W65378  18.064   5.865   7.817 -0.1384 -0.0835 -0.0645
    1W        W65379   7.305   1.913   0.602 -0.1774 -0.1754  0.2442
    1W        W65380  24.184  17.928   7.028  0.0263  0.2431 -0.0437
    1W        W65381  21.685  21.238   0.560 -0.1220 -0.2025  0.3660
    1W        W65382   7.806   8.315   9.415 -0.1227  0.1990  0.0540
    1W        W65383   4.631   2.405   1.587  0.0515 -0.0462  0.0120
    1W        W65384   3.636   6.550   2.765 -0.3943 -0.1292 -0.3154
    1W        W65385  29.254   3.099   1.680  0.2213 -0.2136 -0.3323
    1W        W65386  25.460  25.752   2.687 -0.1646 -0.0862  0.1334
    1W        W65387  21.632  27.000   8.222  0.3122  0.1384 -0.0075
    1W        W65388   0.609   9.307   0.532 -0.0491 -0.0344 -0.4018
    1W        W65389  14.753  15.776   7.037 -0.0960 -0.1732  0.1564
    1W        W65390  10.058   3.230   7.988  0.0002 -0.1290 -0.0141
    1W        W65391   9.391   0.592   8.217 -0.1972  0.2489 -0.2229
    1W        W65392  11.648  21.316   8.280  0.0593 -0.0591 -0.1363
    1W        W65393  24.089  13.988   7.790  0.1539 -0.3233 -0.2475
    1W        W65394  17.997  23.748   0.085  0.1660 -0.1552  0.1102
    1W        W65395   6.257   6.546   7.958  0.0166  0.2141  0.1206
    1W        W65396  23.726  18.461   7.378 -0.1026  0.0993 -0.2118
    1W        W65397  16.166  23.224   7.712  0.2171  0.0838  0.0076
    1W        W65398   6.045  16.553   7.696  0.2009 -0.2606 -0.1066
    1W        W65399   8.369   0.474   9.454  0.3022 -0.2433 -0.0002
    1W        W65400  24.631   1.469   2.302 -0.0971  0.2609  0.2742
    1W        W65401  20.559  16.747   8.216 -0.2136 -0.3250  0.2262
    1W        W65402  17.708  14.113   7.668  0.1194  0.0034 -0.4742
    1W        W65403  19.905  21.547   2.207 -0.1131  0.0083  0.4722
    1W        W65404   8.064  18.127   8.160 -0.0756  0.2150 -0.0103
    1W        W65405  12.950  21.524   6.714  0.1598 -0.2485  0.0176
    1W        W65406  14.039  10.148   7.645  0.1442  0.1358  0.3628
    1W        W65407  19.580   1.388   0.094  0.1300 -0.2737  0.0504
    1W        W65408   3.500   2.713   8.744  0.0020  0.2867 -0.0404
    1W        W65409   1.695  20.443   6.076  0.5061 -0.0100 -0.0567
    1W        W65410  24.360   7.020   0.344  0.0454 -0.0390 -0.1831
    1W        W65411  26.048  14.420   0.236  0.1010  0.1213  0.0877
    1W        W65412  14.750   5.093   9.159 -0.0628 -0.3988 -0.1034
    1W        W65413   5.992  24.389   8.608 -0.3040  0.1521 -0.1295
    1W        W65414  14.870  11.674   9.150  0.3032  0.0232 -0.1471
    1W        W65415  13.092  22.746   9.450 -0.1278  0.0364  0.1080
    1W        W65416  18.083   1.896   6.422 -0.0543 -0.0279  0.1049
    1W        W65417  25.116  18.638   7.224  0.0375  0.1569  0.1509
    1W        W65418   1.941  22.356   5.358 -0.0290 -0.0123  0.0029
    1W        W65419   0.924   2.611   9.312  0.0597 -0.1062  0.0333
    1W        W65420  19.625  11.131   8.421  0.2594  0.2836 -0.3162
    1W        W65421  22.500   1.032   1.947  0.0354 -0.1084  0.1341
    1W        W65422   6.286   6.775   2.854  0.0382 -0.3219  0.1079
    1W        W65423  12.491  20.772   8.028 -0.1371  0.0679 -0.2394
    1W        W65424  12.261   0.725   1.690 -0.1805  0.1061  0.0152
    1W        W65425   8.011  19.748   2.235  0.0376  0.0037  0.1082
    1W        W65426  24.904   3.353   8.682 -0.0507 -0.2226  0.0160
    1W        W65427  12.416  14.888   1.030 -0.1677  0.0635  0.2590
    1W        W65428  21.610   4.352   7.856  0.3318 -0.1166  0.4600
    1W        W65429  16.294  21.498   8.349  0.0661  0.2469  0.2682
    1W        W65430   0.782   1.132   6.908 -0.2172  0.0247  0.3641
    1W        W65431  24.625   4.121   2.362 -0.1771 -0.1386  0.0284
    1W        W65432   4.126  27.737   9.026 -0.0922 -0.1006  0.0205
    1W        W65433  11.871  21.772   1.185 -0.1794  0.1456  0.1845
    1W        W65434   8.323  28.923   3.204 -0.0852 -0.5061 -0.0725
    1W        W65435   3.242  11.754   1.205 -0.0754  0.1512 -0.0283
    1W        W65436  21.205  13.605   7.224 -0.0012 -0.0638  0.2013
    1W        W65437   4.110   4.948   8.736 -0.0272  0.0980  0.3339
    1W        W65438   5.541   6.691   1.257 -0.1614  0.1763  0.0892
    1W        W65439  10.800   1.611   2.436 -0.0000  0.1467  0.2566
    1W        W65440  26.924   0.414   0.814 -0.1027 -0.1595 -0.1236
    1W        W65441  28.832   1.749   1.506 -0.2286  0.1609  0.0272
    1W        W65442   4.908   9.574   2.666 -0.0974 -0.1529  0.1019
    1W        W65443   6.371   9.502   1.368 -0.2471 -0.1074 -0.0423
    1W        W65444   0.652  13.081   2.108  0.1014  0.1546  0.4186
    1W        W65445   3.285   5.595   0.944 -0.0094  0.1446 -0.2502
    1W        W65446  29.521  24.745   6.992 -0.0283 -0.1364 -0.1378
    1W        W65447   5.592  11.844   7.441 -0.0889  0.1207  0.0592
    1W        W65448  18.023  15.529   1.808 -0.0355 -0.3224  0.0594
    1W        W65449  22.474   3.660   6.594  0.0851 -0.0977  0.0343
    1W        W65450  21.717   5.805   6.987 -0.3967  0.0213 -0.1425
    1W        W65451   6.724   9.365   8.450  0.2551 -0.1285 -0.0807
    1W        W65452  12.552  20.369   7.056  0.2760  0.0284  0.1134
    1W        W65453  19.486  25.267   6.884 -0.1143 -0.2070  0.0584
    1W        W65454   3.993   5.689   2.525 -0.0937 -0.0024  0.1930
    1W        W65455  29.885  16.632   7.005  0.3819  0.0219  0.1696
    1W        W65456  17.461   5.177   1.149 -0.0615  0.0698 -0.1257
    1W        W65457  13.256  10.107   2.773 -0.1270  0.3512 -0.1191
    1W        W65458  17.977   0.945   2.008  0.3746 -0.0139  0.1432
    1W        W65459  24.170  16.474   7.099 -0.2307  0.0948  0.1057
    1W        W65460  13.694  10.032   9.124 -0.0886  0.3651  0.3549
    1W        W65461   4.234   0.907   0.328 -0.1381  0.2349 -0.1098
    1W        W65462  11.582   5.740   7.188  0.3690 -0.2555  0.0171
    1W        W65463  19.349  24.743   7.624 -0.2901  0.2008  0.0235
    1W        W65464  17.522  23.022   7.001 -0.0809 -0.1052 -0.1614
    1W        W65465  22.706  21.278   0.330 -0.0696  0.1861 -0.0194
    1W        W65466   1.721   1.903   8.301  0.3331 -0.1004 -0.0713
    1W        W65467  14.890   2.924   2.360  0.0320 -0.0734  0.0362
    1W        W65468   0.997  12.833   1.768  0.1269  0.1041 -0.0170
    1W        W65469   3.445  24.658   1.384  0.1248  0.4019 -0.3857
    1W        W65470  18.669  13.191   1.086  0.1410 -0.2019  0.1134
    1W        W65471   5.851   2.012   2.115  0.0918  0.0867 -0.0563
    1W        W65472  26.569  25.953   0.632  0.0937  0.3444  0.2069
    1W        W65473   3.949  25.623   8.096  0.1163  0.0162  0.0909
    1W        W65474  29.052   8.187   0.657 -0.1854 -0.0538 -0.0657
    1W        W65475  21.386   8.402   7.496 -0.0079 -0.3657 -0.1819
    1W        W65476  19.515  11.865   7.836  0.0503 -0.2002  0.1526
    1W        W65477  17.413  27.025   1.144  0.2146 -0.2036 -0.3756
    1W        W65478  23.103  12.524   8.209 -0.0118 -0.0032  0.0820
    1W        W65479   8.637  26.880   6.961 -0.1592 -0.1226  0.0494
    1W        W65480   2.486  17.957   0.398  0.0882  0.1822 -0.0697
    1W        W65481  10.832   1.076   9.221  0.1599  0.4293  0.4802
    1W        W65482  20.960   8.826   8.225  0.2783  0.4196  0.1793
    1W        W65483  16.238  25.118   8.851 -0.0156 -0.0425 -0.2430
    1W        W65484  23.713  27.618   7.714  0.2197  0.0824  0.2544
    1W        W65485  16.848  26.858   8.231  0.0204  0.0811  0.1625
    1W        W65486  11.979  13.627   0.261  0.0090  0.2443 -0.3209
    1W        W65487  27.649   2.821   8.041  0.1406 -0.1190  0.0334
    1W        W65488   0.569  23.087   8.047 -0.0233  0.1990 -0.1391
    1W        W65489  22.010   9.883   1.191  0.0508  0.1442  0.2742
    1W        W65490  19.073  26.913   0.491 -0.0303  0.1068 -0.2132
    1W        W65491   0.688   9.093   1.116  0.1202  0.0940 -0.1007
    1W        W65492  26.575  15.924   8.906  0.2374  0.1021 -0.0005
    1W        W65493  21.978  17.922   7.795  0.0611  0.0603  0.2382
    1W        W65494   3.796  11.957   6.924 -0.0360  0.3523  0.2360
    1W        W65495  15.278   5.019   2.504 -0.3907 -0.0163  0.2467
    1W        W65496  21.677   0.622   0.690  0.0540 -0.1029 -0.2982
    1W        W65497  15.702  12.521   1.575  0.2492  0.1904 -0.2572
    1W        W65498   6.724  28.176   6.979  0.0784 -0.3554 -0.1810
    1W        W65499  21.385  29.180   0.270 -0.0839  0.0002  0.1168
    1W        W65500  21.286   2.655   8.752 -0.1247  0.1845 -0.0766
    1W        W65501  14.819  18.103   6.990 -0.0192 -0.2884 -0.0494
    1W        W65502   0.439  22.836   8.897  0.0641 -0.0048 -0.0409
    1W        W65503  21.496   1.060   9.346  0.0134 -0.0532 -0.2658
    1W        W65504   2.875  12.213   7.710 -0.0509  0.3757  0.3010
    1W        W65505   0.680  15.933   5.883 -0.1319 -0.1049  0.4957
    1W        W65506   1.423  11.823   1.100  0.2268  0.0167 -0.0972
    1W        W65507  11.447  19.560   2.152 -0.0053 -0.2971  0.0297
    1W        W65508   0.879  18.418   8.542 -0.0793 -0.0257 -0.0270
    1W        W65509   5.169   3.673   7.965 -0.0579 -0.0397 -0.0886
    1W        W65510  21.093  24.130   0.408 -0.1337  0.1172  0.1055
    1W        W65511   3.064   7.399   1.548 -0.0191  0.1189 -0.2761
    1W        W65512   2.451   2.983   8.133  0.0979 -0.0656 -0.2662
    1W        W65513  16.580   1.671   2.258  0.2443  0.1839 -0.2731
    1W        W65514   7.020   7.296   3.193  0.1357 -0.0661 -0.0933
    1W        W65515  18.329  19.203   8.924  0.0464 -0.0977  0.0028
    1W        W65516  17.410  23.737   1.474 -0.0677  0.0486 -0.0320
    1W        W65517  10.779  21.443   8.868 -0.1485 -0.0462 -0.2698
    1W        W65518  28.991   3.065   8.438  0.0076  0.2177 -0.0135
    1W        W65519  28.357  14.727   8.452 -0.1049  0.1310  0.0021
    1W        W65520   3.275  15.642   8.815 -0.0598 -0.1335  0.1896
    1W        W65521  21.388  13.154   7.128 -0.1907  0.1531  0.0139
    1W        W65522  26.973  28.725   2.261 -0.1409 -0.1695  0.0499
    1W        W65523  25.891   7.891   7.930  0.0595 -0.0680 -0.1215
    1W        W65524   9.909  16.098   8.118 -0.0692 -0.0286 -0.0209
    1W        W65525  23.095  29.054   0.071  0.0153  0.0869  0.1016
    1W        W65526  11.219   3.434   1.767 -0.0818 -0.2052  0.3160
    1WF      WF65527  13.539  19.546   7.999 -0.0699 -0.2901  0.1825
    1WF      WF65528   0.996   7.664   8.180  0.2354  0.2299  0.1861
    1WF      WF65529   4.297  21.394   0.862  0.2349  0.0947 -0.0856
    1WF      WF65530   9.641  11.531   8.760  0.2975  0.0669  0.0116
    1WF      WF65531   6.606   5.689   8.704  0.1106  0.2390 -0.0432
    1WF      WF65532  16.908   5.797   7.891  0.0853  0.2421 -0.1205
    1WF      WF65533  12.501   5.012   1.030  0.0169  0.0950 -0.0656
    1WF      WF65534  20.801  26.137   0.602  0.0986  0.0786 -0.2851
    1WF      WF65535  28.125  17.522   2.791  0.1077  0.1267 -0.0486
    1WF      WF65536  27.863  16.364   8.342  0.1308  0.0945 -0.0853
    1WF      WF65537  27.123   9.244   0.874  0.1505 -0.1825 -0.1620
    1WF      WF65538  22.760   7.052   1.553 -0.2772 -0.1541 -0.0272
    1WF      WF65539  12.440  13.729   8.560 -0.2702 -0.1841 -0.0832
    1WF      WF65540   2.227  14.316   8.007  0.2198 -0.2614  0.0134
    1WF      WF65541  25.477  19.736   8.319 -0.0032  0.1341  0.0058
    1WF      WF65542  22.561  29.388   2.763  0.0378  0.3291  0.0895
    1WF      WF65543  14.038  19.101   0.283 -0.0118 -0.0731 -0.0411
    1WF      WF65544  29.035   7.370   0.426 -0.0179  0.2560  0.0491
    1WF      WF65545   1.351  16.398   8.233  0.2167 -0.1183 -0.0669
    1WF      WF65546   5.395  10.001   1.766 -0.0917 -0.0457 -0.0744
    1WF      WF65547   4.441  25.706   9.173 -0.3729  0.2573  0.1397
    1WF      WF65548  26.190   0.741   9.251  0.0810  0.1172 -0.2535
    1WF      WF65549  29.893   4.160   0.834  0.4705  0.0647  0.0623
    1WF      WF65550   2.593   7.743   8.167  0.0132  0.2020 -0.3888
    1WF      WF65551  24.415   4.768   7.235  0.1981  0.1433 -0.3325
    1WF      WF65552   8.809   0.741   0.308 -0.4958 -0.2811  0.0620
    1WF      WF65553   1.676  25.069   0.153  0.1365 -0.2305 -0.1039
    1WF      WF65554   4.394  18.550   0.605  0.0069  0.0886 -0.0165
    1WF      WF65555  26.173  22.748   0.793 -0.0950  0.1324 -0.0281
    1WF      WF65556  28.996  16.570   8.064 -0.1655  0.1619 -0.0058
    1WF      WF65557  13.455   8.239   0.208  0.2093  0.2664  0.2891
    1WF      WF65558   1.212   4.010   9.370 -0.1333 -0.1027  0.3765
    1WF      WF65559  20.455  14.748   8.782  0.0879  0.1641  0.0298
    1WF      WF65560  16.655   2.086   9.122  0.1346 -0.1424  0.1943
    1WF      WF65561  19.693   0.794   8.682 -0.0374 -0.0011  0.0592
    1WF      WF65562   9.658  26.706   0.932  0.2046  0.0887 -0.4504
    1WF      WF65563  25.503  29.059   8.865  0.1544 -0.4967  0.0645
    1WF      WF65564   7.779  23.797   1.009  0.1833  0.2112 -0.0519
    1WF      WF65565  13.418   3.681   1.597 -0.0333 -0.3579  0.2106
    1WF      WF65566   0.423   0.722   0.518 -0.0308 -0.3582 -0.1604
    1WF      WF65567  26.774   8.108   8.657  0.0333 -0.0906 -0.1303
    1WF      WF65568  21.706  29.117   9.240  0.0229 -0.0782  0.0575
    1WF      WF65569  15.839   2.095   8.598  0.2013  0.1110 -0.0638
    1WF      WF65570   8.809  21.598   7.462  0.0251  0.0429 -0.0423
    1WF      WF65571   7.576   8.798   3.715  0.4666  0.1843 -0.0923
    1WF      WF65572  19.342  16.595   7.685 -0.0114  0.0611 -0.1726
    1WF      WF65573   1.846  16.712   6.747 -0.1065  0.2001  0.2722
    1WF      WF65574  25.615   5.567   0.659  0.0511 -0.2775 -0.0600
    1WF      WF65575  20.998  12.588   6.984 -0.1466  0.4357  0.1000
    1WF      WF65576  19.907  28.210   1.016 -0.0031 -0.2386  0.0684
    1WF      WF65577   3.310  28.258   7.892  0.1984 -0.2208 -0.0397
    1WF      WF65578  24.065  21.932   1.672 -0.1855  0.3233 -0.1042
    1WF      WF65579  21.333  11.717   6.277  0.1505  0.2432  0.0720
    1WF      WF65580  10.148   4.204   9.081  0.1863 -0.2874 -0.1991
    1WF      WF65581   8.983  14.847   8.566  0.1510  0.4008 -0.0044
    1WF      WF65582   1.801   1.148   1.006  0.1788  0.1292 -0.0064
    1WF      WF65583  29.785  26.190   2.250 -0.0974 -0.0358  0.1693
    1WF      WF65584  23.649  27.142   8.140 -0.0959  0.1345 -0.1153
    1WF      WF65585  16.342   1.975   8.459  0.0492 -0.0889 -0.1494
    1WF      WF65586  10.729   4.488   2.049  0.0845 -0.1252  0.2151
    1WF      WF65587  22.236  17.069   7.739  0.1710  0.1958 -0.3392
    1WF      WF65588  10.986  13.498   1.744  0.1232  0.0483 -0.2544
    1WF      WF65589  19.631  19.869   0.415 -0.3190  0.3404  0.0777
    1WF      WF65590  17.616  18.423   0.424 -0.6095  0.2201 -0.3450
    1WF      WF65591   0.758  28.382   8.381 -0.4848  0.3003  0.0359
    1WF      WF65592   8.691  22.457   0.108 -0.0852  0.1642  0.0842
    1WF      WF65593   2.215  16.767   2.563 -0.3010  0.3210  0.0729
    1WF      WF65594  15.913  16.925   1.068 -0.0869 -0.3117  0.2846
    1WF      WF65595  29.869  13.638   9.432  0.1471  0.3356 -0.4302
    1WF      WF65596  20.938   0.621   0.003  0.2471  0.0186  0.3038
    1WF      WF65597  28.804  29.106   2.115 -0.0026 -0.1423 -0.3262
    1WF      WF65598  10.632   8.172   9.424  0.1401 -0.1753 -0.3381
    1WF      WF65599   1.481   7.819   1.364  0.0933  0.0870 -0.0971
    1WF      WF65600   5.315  21.827   9.372  0.3624 -0.2242  0.2108
    1WF      WF65601   5.085  12.727   7.589 -0.1473 -0.0031 -0.1457
    1WF      WF65602  23.484  15.210   8.817 -0.0853  0.2538  0.2300
    1WF      WF65603  11.870  26.982   1.056 -0.0408  0.1769 -0.1899
    1WF      WF65604  28.175  17.861   8.994  0.1099  0.0453 -0.1711
    1WF      WF65605   9.247   0.448   0.221  0.1586 -0.1020 -0.0462
    1WF      WF65606   8.252   2.276   3.689  0.0681 -0.0046  0.1543
    1WF      WF65607  23.263   2.894   8.257  0.3713 -0.0200  0.1478
    1WF      WF65608  23.390  17.545   8.766  0.0135 -0.4119 -0.2534
    1WF      WF65609   4.283  23.808   8.265  0.2798  0.2838 -0.4132
    1WF      WF65610   8.279  28.257   0.918 -0.1864  0.2114 -0.1277
    1WF      WF65611  23.131  13.462   7.606  0.1129  0.1509 -0.2981
    1WF      WF65612  12.354   3.716   8.454 -0.2259  0.0246  0.0801
    1WF      WF65613   0.900   6.464   0.611 -0.5006  0.0743 -0.1540
    1WF      WF65614  13.835  26.164   8.307  0.0108  0.1149  0.0377
    1WF      WF65615  26.478  20.359   6.260  0.0058 -0.0568  0.0243
    1WF      WF65616  15.802  14.564   8.011 -0.0186  0.0721  0.3367
    1WF      WF65617  25.856   2.419   8.216  0.0025  0.0298  0.0141
    1WF      WF65618  27.309  17.599   1.654 -0.2100 -0.3309  0.2297
    1WF      WF65619   9.041   4.427   1.225  0.0812  0.0116 -0.1615
    1WF      WF65620  11.351  24.594   2.624  0.0564  0.1638 -0.1307
    1WF      WF65621  13.525  19.085   1.349 -0.1426  0.0143  0.2400
    1WF      WF65622  24.795   0.947   6.960  0.0529 -0.1216 -0.2476
    1WF      WF65623   7.418  16.097   0.892 -0.2600 -0.2431  0.0582
    1WF      WF65624  24.970   8.675   7.605 -0.0339 -0.1672  0.1086
    1WF      WF65625  15.817  13.040   8.698 -0.1987 -0.0847  0.1551
    1WF      WF65626  19.101  23.158   8.647 -0.0116 -0.0706 -0.0934
    1WF      WF65627   2.226  16.726   0.921 -0.1870 -0.0388  0.1523
    1WF      WF65628   0.106  26.381   7.378  0.1659  0.0908  0.0877
    1WF      WF65629  16.556  22.243   0.339  0.0237 -0.2518  0.0443
    1WF      WF65630   0.466  22.168   8.458 -0.1261  0.0636 -0.1336
    1WF      WF65631  27.966  12.408   7.285 -0.2737  0.0023 -0.0755
    1WF      WF65632  22.975   0.475   1.730 -0.0905 -0.2349  0.2824
    1WF      WF65633  23.239   2.218   0.426  0.1632  0.1154  0.1584
    1WF      WF65634  24.556  18.726   0.575  0.0561 -0.2996 -0.0017
    1WF      WF65635   5.917  20.369   0.224 -0.2404 -0.3544 -0.1351
    1WF      WF65636   2.530  19.736   0.785 -0.1232 -0.1505 -0.1380
    1WF      WF65637  13.897  26.571   7.522  0.0812 -0.1894  0.2532
    1WF      WF65638   4.717  26.637   7.185 -0.2710  0.1719 -0.4101
    1WF      WF65639  28.989  16.805   9.130 -0.1960  0.3542  0.1627
    1WF      WF65640   6.956   6.704   0.152 -0.0476 -0.0012  0.2173
    1WF      WF65641  26.667  14.183   9.015 -0.0806  0.1398 -0.3100
    1WF      WF65642  14.383   8.095   6.823  0.4331 -0.1841  0.1049
    1WF      WF65643   6.614  21.703   8.137  0.1870  0.2065 -0.0021
    1WF      WF65644   8.574   6.069   3.855 -0.1359  0.1698  0.2310
    1WF      WF65645  25.284   4.113   0.535  0.0275  0.1066  0.0720
    1WF      WF65646   0.143   2.480   9.118 -0.0376 -0.1242  0.0515
    1WF      WF65647  14.054  20.983   7.647 -0.0191 -0.3335  0.1031
    1WF      WF65648  25.439   4.700   9.156 -0.0516 -0.1067 -0.1476
    1WF      WF65649  14.651   1.799   8.505  0.0494  0.1239 -0.1424
    1WF      WF65650  19.136  20.137   0.478  0.3641  0.2522 -0.1129
    1WF      WF65651   5.060  29.825   1.114 -0.3109 -0.0489 -0.3438
    1WF      WF65652  21.684   6.268   8.252 -0.2892 -0.1419 -0.0116
    1WF      WF65653  27.520  21.814   7.752  0.1998 -0.0241 -0.3327
    1WF      WF65654  17.954  27.221   7.729 -0.0120 -0.1306  0.3712
    1WF      WF65655  29.011   6.333   8.156 -0.1790 -0.2849 -0.0151
    1WF      WF65656   8.950  23.022   8.193  0.0415  0.1128  0.0560
    1WF      WF65657  16.248   7.235   0.455 -0.0159  0.2694  0.3319
    1WF      WF65658  13.686  20.396   8.200 -0.0877  0.2547 -0.1298
    1WF      WF65659  11.110  25.349   1.135  0.1781  0.0183 -0.3911
    1WF      WF65660  26.075   0.694   8.284  0.0990  0.2873 -0.3626
    1WF      WF65661   4.952  18.899   7.649  0.1265 -0.0764  0.2421
    1WF      WF65662  16.198   1.800   8.016 -0.0722  0.0439  0.3788
    1WF      WF65663  19.266   1.462   8.316  0.0833  0.1209 -0.3346
    1WF      WF65664   9.954  12.996   8.099  0.0791 -0.0638  0.2041
    1WF      WF65665   1.651  10.815   1.136 -0.2982  0.1129 -0.0359
    1WF      WF65666   2.124  22.548   2.174 -0.0962 -0.1510  0.0804
    1WF      WF65667   5.764   9.970   0.860 -0.1091 -0.0875  0.1117
    1WF      WF65668  17.903  24.034   1.224 -0.0675 -0.0883 -0.2668
    1WF      WF65669   4.618   8.168   0.046  0.0937 -0.4752 -0.2239
    1WF      WF65670   7.408  16.579   7.518  0.0671  0.1121 -0.0182
    1WF      WF65671  26.725  16.927   8.738 -0.0607 -0.1776  0.2843
    1WF      WF65672  27.676  18.173   6.639 -0.0390  0.1430 -0.2804
    1WF      WF65673  20.636  19.047   8.469 -0.1550 -0.3404 -0.1296
    1WF      WF65674  14.206   9.386   8.191 -0.0559  0.2936  0.2661
    1WF      WF65675  20.670   7.557   7.918  0.1692  0.1163  0.2754
    1WF      WF65676  14.510   5.074   0.247  0.2223  0.1384  0.2261
    1WF      WF65677  22.081   2.402   1.071  0.0708  0.0305 -0.0509
    1WF      WF65678  29.276  14.247   0.557  0.2294 -0.2559 -0.1529
    1WF      WF65679  16.543  25.161   7.462 -0.2777 -0.1105  0.0355
    1WF      WF65680  17.725  10.245   8.068 -0.2002  0.3365  0.2949
    1WF      WF65681  23.174  18.386   8.316 -0.2804  0.0213  0.0745
    1WF      WF65682  26.002  28.214   1.377 -0.2915 -0.3229 -0.2107
    1WF      WF65683  28.080  21.511   1.893  0.1871  0.3047  0.2993
    1WF      WF65684   5.972  27.568   0.574 -0.0621 -0.2420  0.1450
    1WF      WF65685  27.273  12.544   0.709  0.0307 -0.0202 -0.1661
    1WF      WF65686  28.426  18.350   8.307 -0.2139 -0.2380  0.0852
    1WF      WF65687  24.529   0.687   0.084 -0.0681  0.0936  0.0874
    1WF      WF65688   9.273  10.377   1.695  0.1338  0.0017  0.2486
    1WF      WF65689  26.669   7.065   8.947 -0.1302 -0.1657  0.1149
    1WF      WF65690  13.115   7.840   3.083  0.1846 -0.0904 -0.0904
    1WF      WF65691   3.378  12.313   8.755 -0.0693 -0.3231 -0.0617
    1WF      WF65692   1.953  27.104   9.221 -0.0519 -0.3948 -0.1927
    1WF      WF65693   8.801  28.316   7.829  0.4120 -0.1589 -0.0288
    1WF      WF65694   5.483  28.056   9.199 -0.5458  0.1459  0.1626
    1WF      WF65695  22.140  10.831   6.342 -0.3395  0.2274  0.0399
    1WF      WF65696  12.139  24.543   8.804  0.0810  0.2933  0.0181
    1WF      WF65697   5.453   4.773   1.728 -0.2504  0.0355  0.1840
    1WF      WF65698  22.189  10.591   8.372 -0.1574 -0.1958  0.3561
    1WF      WF65699   4.899  27.502   0.482  0.2467 -0.0193 -0.0331
    1WF      WF65700  16.060  24.706   1.378 -0.0170 -0.0908 -0.0711
    1WF      WF65701  14.557  11.227   0.945 -0.0077  0.1965 -0.0912
    1WF      WF65702   4.639   1.132   9.253  0.0045  0.0626  0.0571
    1WF      WF65703  13.265  26.410   6.317  0.0060 -0.1643  0.0724
    1WF      WF65704  24.657   5.114   3.818 -0.2381  0.1369 -0.1410
    1WF      WF65705  14.738  13.123   8.153 -0.2149 -0.3196 -0.1587
    1WF      WF65706   9.428   1.687   7.085 -0.0705  0.2221  0.0200
    1WF      WF65707   0.481   7.907   8.334 -0.0921  0.0581  0.1189
    1WF      WF65708  20.889   8.071   9.051 -0.3439 -0.1941  0.1036
    1WF      WF65709  25.993  24.255   1.412 -0.1746  0.2441  0.1649
    1WF      WF65710  22.564  22.756   9.138  0.1855  0.0446 -0.0567
    1WF      WF65711   0.221   0.112   0.448 -0.1597  0.0567  0.2696
    1WF      WF65712  28.437   9.560   7.250  0.2745 -0.3092  0.3276
    1WF      WF65713   6.020  13.795   2.624  0.1493 -0.0413  0.0741
    1WF      WF65714  23.641  10.524   0.418 -0.0884  0.0077 -0.0404
    1WF      WF65715   9.151   7.355   0.166  0.5074  0.0180  0.0343
    1WF      WF65716   9.043  18.982   0.109 -0.2225 -0.1565  0.1623
    1WF      WF65717  29.766   8.592   6.186  0.1055  0.0405 -0.1493
    1WF      WF65718  28.199  14.973   1.796 -0.3500  0.0848  0.2519
    1WF      WF65719   9.575  11.522   7.907  0.3743  0.1577  0.0166
    1WF      WF65720   6.610  21.304   6.610  0.1126 -0.0332  0.4013
    1WF      WF65721   0.834  10.155   0.070 -0.1480 -0.1170 -0.0992
    1WF      WF65722   2.774  29.174   9.241  0.0531  0.2252  0.2977
    1WF      WF65723  20.052  18.627   6.569 -0.0905  0.1453  0.0875
    1WF      WF65724  24.120  18.548   9.188  0.2793  0.1780 -0.0404
    1WF      WF65725  20.433  24.553   2.100  0.1510  0.1856  0.2282
    1WF      WF65726  28.659  17.817   7.145  0.0304  0.1215  0.0477
    1WF      WF65727   1.473  17.304   8.777 -0.1943  0.0396 -0.1353
    1WF      WF65728  10.925  13.486   8.280 -0.1540 -0.1591 -0.4819
    1WF      WF65729  15.073  27.713   0.479 -0.1151 -0.0364 -0.0312
    1WF      WF65730  12.378  24.958   8.116  0.0976 -0.2377 -0.0143
    1WF      WF65731  27.376  10.776   6.293 -0.0103  0.1198  0.0278
    1WF      WF65732  19.790   1.759   0.540 -0.0585 -0.1293  0.0903
    1WF      WF65733   6.610  14.722   6.790 -0.0503  0.1124 -0.2441
    1WF      WF65734  25.174  19.520   2.189 -0.1950 -0.0095 -0.1485
    1WF      WF65735   3.238  29.533   2.015  0.0981  0.1332 -0.2985
    1WF      WF65736  20.891  19.474   8.921  0.0110  0.2619  0.0288
    1WF      WF65737  19.887  22.423   1.454 -0.0436 -0.3695  0.2344
    1WF      WF65738  10.620  17.783   9.157  0.1380 -0.2577  0.1471
    1WF      WF65739  28.423  28.070   6.967 -0.3318 -0.0455 -0.2587
    1WF      WF65740   0.255  24.019   1.091  0.0534  0.5767 -0.0349
    1WF      WF65741   9.316   9.945   1.297 -0.1059 -0.2184 -0.1694
    1WF      WF65742  25.369   1.232   1.434  0.0966 -0.1661  0.0120
    1WF      WF65743   4.208   1.188   2.747  0.1772  0.1631 -0.6002
    1WF      WF65744   7.016   2.153   2.090 -0.1665 -0.1653  0.0666
    1WF      WF65745   9.733  11.781   6.857 -0.1867  0.2134  0.1239
    1WF      WF65746   4.620  21.219   1.202  0.2724  0.1099  0.2787
    1WF      WF65747   3.518  23.900   9.056  0.0363 -0.2258  0.3477
    1WF      WF65748  23.581  26.188   0.700 -0.0327  0.1953  0.1910
    1WF      WF65749  13.266  27.451   7.664 -0.4276 -0.0209 -0.0002
    1WF      WF65750  14.611   2.114   8.984 -0.0580  0.0070  0.4933
    1WF      WF65751  12.347  28.613   2.197  0.1721  0.0073  0.0981
    1WF      WF65752  22.877  28.047   2.241  0.0048  0.0303 -0.1904
    1WF      WF65753   2.953  15.665   8.228 -0.0129 -0.0362 -0.3730
    1WF      WF65754   9.299   1.916   2.049 -0.1775  0.0092 -0.2849
    1WF      WF65755   1.555  17.903   1.344 -0.0787  0.1530 -0.0898
    1WF      WF65756  27.972   5.338   8.579  0.1784 -0.1689 -0.0066
    1WF      WF65757  26.209  26.908   1.356 -0.1693 -0.1584  0.0971
    1WF      WF65758  11.740  26.603   8.502  0.1853  0.3250 -0.1581
    1WF      WF65759   7.963   6.121   7.416  0.1542  0.1968 -0.1795
    1WF      WF65760  10.478  17.529   1.163  0.0330  0.0679 -0.3050
    1WF      WF65761  26.792  12.333   7.765 -0.1270 -0.1210 -0.0860
    1WF      WF65762  10.709   5.824   9.318 -0.0955  0.0452  0.0290
    1WF      WF65763  15.404  16.848   0.911 -0.0293  0.2842  0.1038
    1WF      WF65764  23.044   0.237   7.202  0.0843  0.3463 -0.0445
    1WF      WF65765  25.217   3.706   0.200 -0.0276 -0.0607 -0.2171
    1WF      WF65766  12.922   7.596   0.172 -0.1232 -0.0741 -0.0221
    1WF      WF65767  17.952  27.548   8.265 -0.0185 -0.0658  0.3102
    1WF      WF65768   1.419   5.514   6.862 -0.1630 -0.1759 -0.0620
    1WF      WF65769  22.074  12.540   1.121 -0.0993  0.1623 -0.2870
    1WF      WF65770  16.692  25.795   3.098 -0.1880 -0.4449 -0.3406
    1WF      WF65771  27.712  28.995   0.505  0.2917 -0.2992 -0.1221
    1WF      WF65772   0.943  22.240   8.473 -0.1015  0.3750  0.2563
    1WF      WF65773   8.882  14.063   0.623  0.2235  0.2872 -0.0153
    1WF      WF65774  27.086  22.235   0.864  0.2131 -0.2828  0.0656
    1WF      WF65775  19.506   5.004   1.368 -0.3162  0.1258  0.0637
    1WF      WF65776   7.839  16.016   2.244  0.3316 -0.2563  0.1233
    1WF      WF65777  20.394  11.710   8.188 -0.1490  0.0233  0.1647
    1WF      WF65778   6.228   7.900   8.412  0.0762  0.0250  0.0567
    1WF      WF65779  27.242   7.366   7.794  0.0323 -0.1369 -0.1776
    1WF      WF65780   0.604  24.635   8.038 -0.0619  0.1340  0.0217
    1WF      WF65781  17.722  19.222   0.962  0.2219  0.0273 -0.0475
    1WF      WF65782   6.688  22.529   9.260  0.0278  0.1570  0.0533
    1WF      WF65783  14.405  16.514   0.892  0.0890 -0.0299 -0.0084
    1WF      WF65784   7.217  25.857   9.039 -0.1087 -0.0613 -0.3025
    1WF      WF65785  24.623  29.023   9.193  0.0321  0.0033 -0.1177
    1WF      WF65786   9.630   6.745   2.409  0.0562 -0.0749  0.0011
    1WF      WF65787   8.306  28.998   2.238  0.1628 -0.2816  0.2845
    1WF      WF65788   6.743  21.403   6.130  0.0751 -0.0199  0.0998
    1WF      WF65789   9.383  13.912   2.449 -0.1182 -0.0749  0.1151
    1WF      WF65790   1.499  22.260   8.678  0.2426  0.1942 -0.0729
    1WF      WF65791  16.915  21.836   0.120  0.0461 -0.2042 -0.0885
    1WF      WF65792   1.579  23.293   7.490 -0.0741 -0.0651 -0.0123
    1WF      WF65793  16.506  20.584   0.377 -0.0460 -0.3225  0.0232
    1WF      WF65794  24.878   8.338   1.954 -0.0073  0.0928  0.0931
    1WF      WF65795   3.281  28.440   8.926  0.1086 -0.0679  0.0229
    1WF      WF65796  25.876  18.680   1.010  0.0376  0.0999  0.2369
    1WF      WF65797  27.812  12.271   0.664  0.2314  0.4903 -0.2031
    1WF      WF65798   7.500  23.931   1.479  0.1898  0.2053 -0.3619
    1WF      WF65799  13.731   6.828   8.042  0.0579  0.2759 -0.0134
    1WF      WF65800  16.864  12.718   0.198  0.2354 -0.1166  0.0373
    1WF      WF65801   9.286  22.663   8.150 -0.0317  0.2089 -0.1799
    1WF      WF65802  15.315  22.771   8.042 -0.0285  0.3497 -0.3083
    1WF      WF65803  20.681  24.715   9.149  0.4684 -0.0295 -0.1353
    1WF      WF65804   6.708  27.741   9.014 -0.2188  0.1431 -0.0536
    1WF      WF65805   6.840  27.392   8.575 -0.1117  0.1487  0.0368
    1WF      WF65806  28.677   7.249   6.265  0.0963  0.3373  0.1133
    1WF      WF65807  22.362   6.999   8.748  0.0334  0.0246 -0.1527
    1WF      WF65808  27.332  19.921   0.889 -0.2688 -0.1631 -0.4461
    1WF      WF65809  25.764  26.980   9.349 -0.0779 -0.0244 -0.0273
    1WF      WF65810  29.723  17.664   7.073 -0.0218 -0.1535 -0.1142
    1WF      WF65811  12.374  28.118   8.771  0.5899 -0.1898  0.1958
    1WF      WF65812  28.901  22.215   8.641  0.1199 -0.1780 -0.2976
    1WF      WF65813  11.177   6.314   9.324  0.1848 -0.1399 -0.2387
    1WF      WF65814  25.007   9.195   0.695 -0.3025  0.0729  0.3436
    1WF      WF65815  22.358  22.771   0.142  0.0018  0.2548  0.1823
    1WF      WF65816   6.379  28.096   2.184 -0.0325 -0.2623  0.1037
    1WF      WF65817  17.214  15.125   0.504  0.1837 -0.0838 -0.2002
    1WF      WF65818  12.821  10.871   0.614  0.1233  0.1558 -0.2685
    1WF      WF65819   0.860   3.495   7.242 -0.1677 -0.1070  0.0192
    1WF      WF65820  14.673  29.292   2.452 -0.3314  0.1708 -0.0876
    1WF      WF65821   5.472  20.661   7.234  0.2120 -0.2589 -0.0139
    1WF      WF65822  15.681   3.765   9.187 -0.1079  0.0245 -0.2511
    1WF      WF65823  29.696  10.681   9.249  0.2660 -0.1973 -0.0452
    1WF      WF65824  15.304   9.039   2.804  0.0887  0.1522  0.0194
    1WF      WF65825  13.560  13.744   0.680 -0.1225 -0.2949 -0.1045
    1WF      WF65826  10.415  12.783   8.291  0.2138  0.2204  0.1638
    1WF      WF65827  23.916   2.533   9.257 -0.0552 -0.1182  0.0690
    1WF      WF65828  29.192  20.252   9.157  0.3981  0.1897 -0.1458
    1WF      WF65829   0.220  27.605   0.870  0.3726  0.1725 -0.1131
    1WF      WF65830  22.657   4.126   8.398  0.2616  0.1901 -0.1173
    1WF      WF65831  20.877  28.476   1.324 -0.2562 -0.1780 -0.2838
    1WF      WF65832  19.907   5.116   8.206  0.3513  0.0967  0.0172
    1WF      WF65833   6.242   5.457   1.541 -0.0601  0.1367 -0.0786
    1WF      WF65834  29.183   4.863   0.702 -0.1822 -0.0784 -0.2441
    1WF      WF65835   9.732  13.310   6.766  0.0060 -0.0066 -0.2486
    1WF      WF65836   2.524   8.716   9.306  0.1261  0.1159  0.4253
    1WF      WF65837  15.576  18.407   1.261 -0.2248 -0.0287  0.0721
    1WF      WF65838  29.453   5.610   3.429  0.1877  0.0891 -0.0328
    1WF      WF65839   8.146  17.428   8.865 -0.2075 -0.0333  0.2151
    1WF      WF65840  28.963   0.106   0.027 -0.1625 -0.1203 -0.0897
    1WF      WF65841  24.858  24.594   0.278 -0.1060 -0.0599  0.0048
    1WF      WF65842  18.575  11.260   0.073  0.1863 -0.4428 -0.2475
    1WF      WF65843  26.943   7.685   7.532  0.0887 -0.0888 -0.0105
    1WF      WF65844   9.741   8.608   0.058  0.2129  0.1096  0.0923
    1WF      WF65845   6.879  22.586   8.553  0.0023  0.1464  0.0444
    1WF      WF65846  13.015  21.199   1.594 -0.0931 -0.1144  0.0618
    1WF      WF65847  18.152  25.455   1.572  0.0494  0.1698 -0.2667
    1WF      WF65848  27.429  10.813   7.383  0.0313 -0.0287  0.0961
    1WF      WF65849  10.562  27.383   9.318  0.0400  0.0077 -0.0120
    1WF      WF65850  27.098   8.026   1.979  0.0901  0.1596  0.0117
    1WF      WF65851  23.515  20.077   8.366 -0.1444 -0.0232 -0.1025
    1WF      WF65852   0.228  23.600   9.081 -0.0321  0.1123 -0.4557
    1WF      WF65853   2.033   2.295   9.329  0.0221 -0.0801  0.1422
    1WF      WF65854  11.270  29.846   1.772 -0.0237 -0.1139  0.0976
    1WF      WF65855  12.851  21.319   2.046  0.0299 -0.0496  0.0007
    1WF      WF65856   6.021  17.096   0.754 -0.1023  0.3712  0.0713
    1WF      WF65857   8.407  11.381   0.156 -0.0289 -0.2233 -0.0113
    1WF      WF65858  12.753   1.877   2.423  0.0832 -0.1018  0.0466
    1WF      WF65859   8.092  11.495   1.472  0.3299  0.1196  0.2014
    1WF      WF65860  11.210   4.389   8.786  0.1563 -0.3305  0.1025
    1WF      WF65861  13.385  16.066   9.159 -0.1326  0.0668  0.0373
    1WF      WF65862  14.307   1.466   8.438 -0.0091 -0.1117 -0.3139
    1WF      WF65863  25.803  19.994   7.976  0.0529 -0.0024 -0.1386
    1WF      WF65864  26.635   2.931   2.047  0.1359  0.1265 -0.1658
    1WF      WF65865   3.870   0.095   8.314  0.0810 -0.2491  0.0512
    1WF      WF65866   7.212  10.605   3.235  0.0931  0.4111 -0.3378
    1WF      WF65867  17.223   4.081   8.384  0.2753 -0.0966 -0.1232
    1WF      WF65868  28.043   6.306   1.739 -0.0866 -0.1731 -0.1461
    1WF      WF65869  22.342  20.763   0.424  0.1880  0.0461 -0.3380
    1WF      WF65870   9.144  13.218   0.806  0.1257  0.0000 -0.1805
    1WF      WF65871   6.377  13.159   8.978  0.0246  0.1460  0.1000
    1WF      WF65872  19.620  28.145   8.292  0.0952  0.0982 -0.1980
    1WF      WF65873  21.393  21.127   1.589  0.2021  0.4001 -0.0540
    1WF      WF65874  24.462  21.854   1.345 -0.0019 -0.1800  0.0843
    1WF      WF65875  12.811   9.154   0.077 -0.1675  0.2299  0.0395
    1WF      WF65876  20.582   7.335   0.628  0.2802  0.0948  0.0618
    1WF      WF65877   4.426   1.486   0.056 -0.1914 -0.0735  0.0454
    1WF      WF65878  18.598  23.234   8.470 -0.0082  0.3387 -0.2775
    1WF      WF65879   5.980   7.264   0.225 -0.1789 -0.1366  0.2027
    1WF      WF65880  27.034  22.103   7.664  0.4098 -0.2067  0.1027
    1WF      WF65881  26.783  15.379   1.164 -0.1059  0.1661  0.1960
    1WF      WF65882  18.350  17.929   8.470 -0.0949  0.1791  0.1969
    1WF      WF65883  26.084  26.480   7.220 -0.1097  0.0150 -0.1444
    1WF      WF65884   6.031   7.357   0.778 -0.2443 -0.2527  0.1283
    1WF      WF65885  19.079   8.577   7.942  0.1153 -0.3573 -0.0673
    1WF      WF65886   2.841   5.323   2.076 -0.3325  0.1882  0.1933
    1WF      WF65887  21.403  25.681   0.721  0.1153 -0.0946 -0.1490
    1WF      WF65888  28.605  28.118   8.155  0.1464  0.2813 -0.2799
    1WF      WF65889   7.510  21.876   0.382 -0.0989  0.2631 -0.1170
    1WF      WF65890  18.445  17.026   1.643  0.2153  0.1667  0.0186
    1WF      WF65891  12.200   0.581   8.891  0.0728  0.3608 -0.3252
    1WF      WF65892   8.870   3.451   2.067  0.0016 -0.0812 -0.0800
    1WF      WF65893  28.455   4.736   1.142 -0.0983  0.0210 -0.2301
    1WF      WF65894  20.225  10.703   0.690 -0.0664 -0.2172  0.2935
    1WF      WF65895  22.663  24.979   7.901 -0.1804 -0.0968  0.0215
    1WF      WF65896  18.816   3.051   2.949 -0.1846  0.2721  0.2058
    1WF      WF65897  27.359  19.291   0.879  0.0882  0.1397  0.2738
    1WF      WF65898   3.270   6.369   1.434 -0.0133 -0.1333  0.1406
    1WF      WF65899   5.372   8.282   3.422  0.1726 -0.1796 -0.0522
    1WF      WF65900  22.121  23.033   9.112 -0.1189  0.0125 -0.1904
    1WF      WF65901   2.238  27.724   8.312  0.3418  0.4276  0.0835
    1WF      WF65902  17.775  26.323   0.206 -0.0092 -0.3723 -0.0298
    1WF      WF65903  13.862  29.526   8.710  0.0595  0.1588  0.1094
    1WF      WF65904  23.734   2.176   1.105  0.0922 -0.1199 -0.3569
    1WF      WF65905  24.687  13.957   2.583  0.1748  0.1728  0.1249
    1WF      WF65906   3.205   6.999   3.413  0.2880  0.0292  0.1903
    1WF      WF65907  24.225  12.951   0.648 -0.2350  0.2076 -0.0195
    1WF      WF65908  28.179  19.793   8.778 -0.1420 -0.0322  0.1559
    1WF      WF65909   5.198   6.811   1.802 -0.0797  0.0029  0.2680
    1WF      WF65910  12.317  19.642   9.293 -0.0362 -0.0167 -0.2611
    1WF      WF65911   6.814   5.267   8.448 -0.0986 -0.0020  0.0702
    1WF      WF65912  28.868   2.808   1.127 -0.2677 -0.1935 -0.0352
    1WF      WF65913  17.914   5.262   7.761 -0.0692 -0.2202 -0.1768
    1WF      WF65914  11.233   7.638   1.371  0.2008  0.1664  0.0166
    1WF      WF65915  28.277  12.014   0.646  0.0277  0.0519 -0.1512
    1WF      WF65916  11.395  29.711   2.256  0.0895  0.0130 -0.0735
    1WF      WF65917  11.103   1.761   1.774 -0.1727  0.2383 -0.2616
    1WF      WF65918  19.274  19.225   6.794 -0.1304  0.2482  0.1980
    1WF      WF65919   5.799  25.865   8.355  0.1063  0.1884  0.3107
    1WF      WF65920  25.919  18.792   1.960 -0.2896  0.0975  0.1278
    1WF      WF65921  27.680  16.246   7.238 -0.2426  0.3623  0.0678
    1WF      WF65922  20.522   8.713   7.797  0.0774 -0.2977  0.0409
    1WF      WF65923  20.940  26.377   0.120 -0.0236  0.0836 -0.1010
    1WF      WF65924  14.327  12.973   8.558  0.0430  0.0928 -0.2256
    1WF      WF65925   9.769  14.823   8.454 -0.3251  0.1244  0.2687
    1WF      WF65926  26.596   0.774   8.963  0.2918  0.0597  0.1981
    1WF      WF65927  25.087  20.271   8.402  0.0242 -0.0788  0.1180
    1WF      WF65928  22.277   2.231   9.052 -0.1510 -0.0465 -0.0496
    1WF      WF65929  20.661  21.970   8.703 -0.1970  0.2575  0.0646
    1WF      WF65930  21.767  23.317   8.063  0.1956 -0.0884 -0.1130
    1WF      WF65931  20.408  21.850   0.399  0.0645  0.2361  0.1664
    1WF      WF65932   6.903  12.134   7.927  0.2310 -0.1998  0.0659
    1WF      WF65933   9.430  11.878   7.523 -0.2095  0.1706  0.0035
    1WF      WF65934  12.525  22.793   0.356 -0.0905  0.1394  0.1919
    1WF      WF65935  15.792   3.949   0.760 -0.3273  0.0985 -0.0377
    1WF      WF65936   5.243  15.643   1.365  0.0039  0.1119 -0.2231
    1WF      WF65937   0.716  28.496   0.280  0.0432  0.1729  0.0240
    1WF      WF65938   9.870  23.852   0.333  0.2934 -0.1075  0.0561
    1WF      WF65939  24.441  24.488   1.935 -0.1836 -0.1427  0.2193
    1WF      WF65940  18.843   1.770   0.725 -0.2114  0.0509  0.0773
    1WF      WF65941   9.244   3.165   8.558  0.2169  0.0592  0.1347
    1WF      WF65942   3.832  24.589   7.388 -0.1444 -0.2852 -0.3927
    1WF      WF65943   9.673  20.196   7.249  0.2221 -0.3923 -0.0087
    1WF      WF65944   5.610  23.952   0.462 -0.2621 -0.0567  0.1141
    1WF      WF65945  22.588  10.176   8.310  0.0929  0.0571 -0.1438
    1WF      WF65946  21.492  20.266   8.984 -0.2432 -0.2538 -0.0145
    1WF      WF65947  20.120  11.915   7.775  0.0855  0.1615  0.2837
    1WF      WF65948  17.493   2.440   2.241 -0.2300 -0.1557  0.0142
    1WF      WF65949   6.306  17.499   0.610 -0.0947  0.1326  0.0101
    1WF      WF65950  13.825  28.164   8.795 -0.1702 -0.1398  0.1225
    1WF      WF65951  23.559  18.167   0.918 -0.0238 -0.0021 -0.2302
    1WF      WF65952  13.212  17.628   6.522 -0.0262 -0.2052  0.0729
    1WF      WF65953  12.155  23.799   0.865  0.2827 -0.1666  0.0293
    1WF      WF65954  29.503  27.232   5.686 -0.2420 -0.0598  0.2886
    1WF      WF65955   9.825   7.452   7.711  0.1664  0.1480  0.2260
    1WF      WF65956   6.881   8.549   0.478 -0.0051 -0.0197  0.0699
    1WF      WF65957   2.979  25.562   8.567 -0.1196  0.2520 -0.2488
    1WF      WF65958   7.281   8.076   6.731 -0.2425 -0.1751 -0.0290
    1WF      WF65959  22.651   2.074   7.205  0.1773 -0.0300 -0.0061
    1WF      WF65960  12.875  19.817   1.268  0.2567  0.1439 -0.0453
    1WF      WF65961   1.609  16.667   8.594 -0.0765 -0.3384 -0.1701
    1WF      WF65962  23.809  17.426   8.954 -0.2103 -0.1231 -0.4970
    1WF      WF65963  27.223  16.000   8.347 -0.1868  0.1497 -0.0547
    1WF      WF65964  10.554   3.917   1.972  0.1253  0.0415 -0.1187
    1WF      WF65965  27.424  24.863   7.295 -0.1973  0.1173  0.2735
    1WF      WF65966  18.087   4.288   1.771  0.0946 -0.0282 -0.0215
    1WF      WF65967   2.706  20.643   1.025  0.1845 -0.1356 -0.0613
    1WF      WF65968  10.818  20.361   8.914  0.1836  0.0399  0.0302
    1WF      WF65969  21.796   1.231   3.251  0.0062  0.3208  0.2733
    1WF      WF65970  19.027   7.847   9.411 -0.0152  0.3124  0.2984
    1WF      WF65971  12.813  13.829   8.916  0.0462 -0.1561 -0.0754
    1WF      WF65972  27.662  15.849   7.570  0.1184 -0.0363  0.0573
    1WF      WF65973  13.165   9.093   7.210  0.1383  0.2115  0.0264
    1WF      WF65974  16.238  28.552   1.608  0.1257  0.0793  0.0778
    1WF      WF65975   3.080   0.435   2.260 -0.0225 -0.0051 -0.2974
    1WF      WF65976   7.212   2.926   9.300 -0.0994  0.2333  0.2206
    1WF      WF65977   6.221   9.070   2.114  0.2576  0.2372 -0.0643
    1WF      WF65978  10.222   4.400   2.212  0.0436 -0.1598 -0.1119
    1WF      WF65979   7.347   4.457   1.826  0.0849  0.2027  0.2670
    1WF      WF65980  21.478  27.391   0.892  0.1468 -0.2037 -0.0488
    1WF      WF65981  10.320  16.063   0.465  0.0114 -0.1517  0.2982
    1WF      WF65982  29.739   8.276   2.067 -0.1182  0.1729  0.1856
    1WF      WF65983  28.844   0.844   8.636  0.0305 -0.0118  0.0959
    1WF      WF65984   5.786  16.589   9.193 -0.1905  0.3935 -0.0612
    1WF      WF65985   3.234  14.154   1.324 -0.0235  0.0560  0.0275
    1WF      WF65986  20.213  10.369   1.159  0.1120  0.0063  0.0568
    1WF      WF65987   4.217   3.994   8.175  0.1253  0.1644 -0.1398
    1WF      WF65988   3.522  18.567   8.913  0.2512  0.0229 -0.1019
    1WF      WF65989   4.993  27.019   7.396 -0.1499 -0.0333 -0.4431
    1WF      WF65990   2.170  10.275   8.687  0.0792  0.0307  0.2038
    1WF      WF65991  22.248  17.642   1.731  0.0747  0.1721  0.0528
    1WF      WF65992   4.110  29.041   7.280 -0.2242  0.2854 -0.0297
    1WF      WF65993  14.098   5.432   0.265  0.0722  0.2084 -0.0430
    1WF      WF65994  10.795  29.472   8.772  0.0711 -0.0012 -0.1269
    1WF      WF65995   6.909  12.546   7.297 -0.0099 -0.1392 -0.0477
    1WF      WF65996  28.129  18.696   0.217 -0.0817  0.4973 -0.1231
    1WF      WF65997   9.319  11.249   0.869  0.1923 -0.1567  0.0620
    1WF      WF65998  22.253  14.121   6.581 -0.1190 -0.1275 -0.0490
    1WF      WF65999  18.133  17.529   8.808 -0.1789 -0.2188  0.2810
    1WF      WF66000   5.307  27.267   0.672 -0.1669  0.1359  0.1168
    1WF      WF66001   5.969   2.462   7.992 -0.0665 -0.0139  0.3337
    1WF      WF66002   6.559  10.912   7.255 -0.1178  0.0342  0.0860
    1WF      WF66003  15.809  11.151   9.059  0.0359  0.0300  0.1488
    1WF      WF66004   3.031  28.051   7.532  0.1596 -0.1561 -0.0102
    1WF      WF66005  22.537  15.926   9.057 -0.3710 -0.2759  0.2806
    1WF      WF66006  26.560   8.035   7.459  0.0435  0.0385 -0.0509
    1WF      WF66007   4.495  14.631   8.420  0.0450  0.2380  0.0421
    1WF      WF66008   4.767  16.746   7.760 -0.1683 -0.2043 -0.0316
    1WF      WF66009  28.118   3.632   6.176 -0.1524 -0.0490 -0.0771
    1WF      WF66010   6.686   6.775   1.773 -0.1994 -0.0175 -0.0947
    1WF      WF66011   6.078  18.755   8.976 -0.0340  0.0880 -0.0656
    1WF      WF66012   9.304  10.408   8.728 -0.0163  0.3028 -0.1810
    1WF      WF66013  14.714  19.435   8.117  0.0338 -0.0325 -0.1418
    1WF      WF66014   8.734   7.707   7.027  0.3048 -0.1025 -0.1954
    1WF      WF66015  16.960  28.785   1.387  0.3063 -0.3179  0.2026
    1WF      WF66016  19.220   0.557   8.796 -0.2485  0.1627  0.3416
    1WF      WF66017  11.812  26.013   8.350  0.0135 -0.1537 -0.0606
    1WF      WF66018   2.174  24.907   7.556 -0.0690  0.1360 -0.2814
    1WF      WF66019  11.410  11.439   7.715 -0.1493  0.1886 -0.2710
    1WF      WF66020  27.058  23.065   8.955  0.1162  0.2366 -0.1927
    1WF      WF66021  17.503  26.168   8.609  0.1680  0.0662  0.1586
    1WF      WF66022   4.229  28.811   1.483  0.1175  0.2128  0.0047
    1WF      WF66023  12.051  26.194   0.301  0.1880  0.0379 -0.0794
    1WF      WF66024   6.640  27.000   1.686 -0.3088  0.1101 -0.2762
    1WF      WF66025   0.392  23.891   7.612  0.0268 -0.0728  0.3627
    1WF      WF66026  14.652  21.211   1.821  0.1394 -0.2370  0.3575
    1WF      WF66027   3.408   5.745   8.972 -0.2162 -0.3278 -0.0223
    1WF      WF66028   0.273   7.047   8.081  0.3128 -0.1993  0.0491
    1WF      WF66029  23.765  14.117   0.701 -0.2182 -0.1348  0.1047
    1WF      WF66030  18.462  29.655   7.601 -0.0761 -0.0298  0.0317
    1WF      WF66031  14.533   2.257   2.594  0.2115  0.0553 -0.1433
    1WF      WF66032  28.266  19.372   9.182  0.1286 -0.1595 -0.1661
    1WF      WF66033  19.303   1.822   0.470  0.1848  0.0999  0.1499
    1WF      WF66034  16.960  14.643   8.905  0.2067 -0.0537 -0.1244
    1WF      WF66035  26.418   4.795   8.263 -0.1006 -0.2596  0.0789
    1WF      WF66036  27.205   0.189   1.753 -0.0064 -0.1782  0.2306
    1WF      WF66037   9.713  11.912   0.151 -0.3519  0.1722  0.0096
    1WF      WF66038  27.602  26.479   1.122  0.0111  0.1475  0.0096
    1WF      WF66039   8.446   1.348   9.224 -0.0747  0.0559  0.2760
    1WF      WF66040  26.991  15.045   0.844  0.1337 -0.1072 -0.1550
    1WF      WF66041  17.915   5.392   0.423  0.1194  0.0081 -0.2529
    1WF      WF66042   6.306  21.567   6.303 -0.0005  0.0160 -0.2772
    1WF      WF66043  27.015  19.311   7.076 -0.1498 -0.2410  0.1314
    1WF      WF66044  10.596   4.578   0.727 -0.1905 -0.0369  0.0147
    1WF      WF66045  21.763   3.416   8.313  0.3287 -0.2474  0.2241
    1WF      WF66046  17.806  10.397   2.380 -0.1660  0.1185  0.2207
    1WF      WF66047  11.961  13.802   8.740  0.1818 -0.0267  0.1126
    1WF      WF66048  25.202  11.524   0.243  0.0974 -0.2420 -0.1566
    1WF      WF66049  24.465  27.287   2.437  0.0735 -0.0456 -0.0356
    1WF      WF66050  18.200  23.325   9.085  0.2406  0.2248  0.2413
    1WF      WF66051  23.627  15.343   1.706  0.0478 -0.0366 -0.1037
    1WF      WF66052  17.003   5.929   8.385 -0.0658  0.1319 -0.1029
    1WF      WF66053  29.185  19.447   7.690  0.3136  0.0190 -0.0852
    1WF      WF66054  14.985   5.984   1.951 -0.0923 -0.0988 -0.1144
    1WF      WF66055  12.572   4.180   8.126  0.3040 -0.0442  0.0269
    1WF      WF66056  16.132  27.580   0.493  0.0219 -0.1200 -0.2603
    1WF      WF66057  12.023   5.308   7.870  0.1244 -0.0235  0.0591
    1WF      WF66058  16.440   4.505   8.822  0.2770 -0.1637 -0.2289
    1WF      WF66059   1.213  14.636   9.187  0.1229  0.3292  0.1361
    1WF      WF66060   8.341  11.499   9.154  0.0174 -0.0982 -0.2784
    1WF      WF66061  20.494   6.029   1.160  0.2531  0.4685  0.0774
    1WF      WF66062  16.669  12.008   1.744 -0.1398  0.1765  0.0949
    1WF      WF66063  27.823  17.167   7.771 -0.2476  0.1116 -0.1787
    1WF      WF66064  16.351  16.276   7.706  0.1611  0.0322 -0.0630
    1WF      WF66065   8.512  25.260   0.367 -0.0786 -0.0856 -0.0918
    1WF      WF66066   2.262   3.364   8.621 -0.1287  0.0642 -0.0421
    1WF      WF66067  18.590  29.232   7.944  0.2318 -0.3590  0.0576
    1WF      WF66068  12.242  29.064   2.530 -0.1556 -0.0096  0.1079
    1WF      WF66069   4.579  22.212   8.772 -0.2049  0.3157 -0.1203
    1WF      WF66070  14.323   5.602   8.262  0.0935 -0.1251 -0.2103
    1WF      WF66071  24.892   1.326   1.458  0.1491  0.2331 -0.2248
    1WF      WF66072   6.890  28.571   3.232  0.0605  0.0768 -0.1516
    1WF      WF66073   1.272  13.790   6.931 -0.1633 -0.1018 -0.4699
    1WF      WF66074   5.787   2.746   3.981  0.0055  0.2083  0.1828
    1WF      WF66075  24.414  24.864   0.300 -0.1151  0.1045 -0.1396
    1WF      WF66076   1.502   7.419   1.015 -0.3015 -0.0063 -0.2311
    1WF      WF66077  13.449  17.690   8.773  0.0039  0.0043 -0.1899
    1WF      WF66078  19.986  22.805   7.706  0.1853 -0.1012 -0.0823
    1WF      WF66079   8.215  23.463   0.903  0.1424  0.0208 -0.2869
    1WF      WF66080  29.495  11.187   9.151  0.0511  0.1160  0.0307
    1WF      WF66081  22.380  11.448   7.643 -0.1733 -0.0041  0.1189
    1WF      WF66082  28.135  15.340   5.669  0.1629 -0.0618  0.0541
    1WF      WF66083  20.534  22.248   8.287  0.1303  0.0112 -0.0503
    1WF      WF66084  12.473   4.485   1.284 -0.0906 -0.1204 -0.0015
    1WF      WF66085   1.884   8.128   1.623 -0.1369  0.1173 -0.2571
    1WF      WF66086  20.790   5.293   0.735  0.0095  0.1304 -0.3719
    1WF      WF66087  22.838  10.809   1.239  0.2321  0.0628 -0.0882
    1WF      WF66088  28.977   6.536   0.652  0.0175 -0.0206 -0.3547
    1WF      WF66089   0.219  13.933   2.350  0.0860  0.0272 -0.2135
    1WF      WF66090  11.046   3.162   3.556  0.0298  0.1128  0.0376
    1WF      WF66091  28.330   9.587   9.193 -0.0186  0.1736 -0.0460
    1WF      WF66092   9.971  23.417   0.127 -0.0285  0.3317 -0.0366
    1WF      WF66093  14.460   3.534   1.600  0.1918 -0.3170  0.3126
    1WF      WF66094   5.111   7.814   4.186 -0.1614 -0.2616 -0.2682
    1WF      WF66095  25.848  24.774   1.311 -0.1370 -0.2481  0.1088
    1WF      WF66096  20.213  19.437   0.785 -0.1552 -0.1709  0.0481
    1WF      WF66097  22.223   1.451   0.416  0.0393  0.2153 -0.2711
    1WF      WF66098  17.758  29.321   0.675 -0.1290  0.0031 -0.2027
    1WF      WF66099  20.470  22.419   0.242 -0.2019  0.0605 -0.0840
    1WF      WF66100  18.738   9.992   0.492  0.3813  0.1090  0.2913
    1WF      WF66101  28.692  17.833   6.337 -0.1476 -0.0370  0.2275
    1WF      WF66102   3.480  29.342   0.659 -0.1792  0.0030 -0.1996
    1WF      WF66103  27.357  16.986   7.799 -0.2582 -0.0352  0.0851
    1WF      WF66104   3.762  11.625   1.814 -0.4122 -0.2550  0.2014
    1WF      WF66105   8.677   1.618   0.301 -0.2552  0.3059  0.0446
    1WF      WF66106   0.024  22.490   8.290  0.0912  0.0058  0.3906
    1WF      WF66107  24.599  18.318   9.142  0.0166 -0.4442 -0.2777
    1WF      WF66108  26.296   3.112   2.356  0.2409  0.0519  0.1074
    1WF      WF66109   7.903   6.575   3.363 -0.2305 -0.2257 -0.1336
    1WF      WF66110  19.497  23.963   0.285  0.2121 -0.0318 -0.0139
    1WF      WF66111  26.850   8.864   1.101 -0.0217  0.4171 -0.0560
    1WF      WF66112  25.082  20.500   9.399  0.0562  0.3313  0.1300
    1WF      WF66113  20.830   1.979   2.660  0.2546  0.1002 -0.1213
    1WF      WF66114  20.564  27.605   1.747 -0.1726  0.0232  0.1799
    1WF      WF66115  18.934  15.890   7.802 -0.1814 -0.0331 -0.0704
    1WF      WF66116  24.386  10.195   0.815 -0.0159  0.0008 -0.1047
    1WF      WF66117  29.204   5.853   6.534 -0.0702 -0.0927 -0.1131
    1WF      WF66118   7.434  13.404   8.429 -0.5179 -0.2687 -0.0847
    1WF      WF66119  15.181   3.508   2.287  0.0414  0.1059  0.1054
    1WF      WF66120  12.990   5.101   6.955 -0.0338 -0.2313  0.0279
    1WF      WF66121  29.909  10.415   8.867  0.0307  0.0315 -0.1642
    1WF      WF66122  18.909  22.330   1.468 -0.2962  0.0529  0.0460
    1WF      WF66123  29.253  22.732   1.000 -0.0558  0.0726  0.1449
    1WF      WF66124  26.078   2.821   7.985  0.3249  0.1207  0.2487
    1WF      WF66125  23.754  21.485   8.863  0.2042  0.0337 -0.2785
    1WF      WF66126  27.935   7.316   0.318 -0.0323  0.0668 -0.0697
    1WF      WF66127  23.951  16.897   0.791 -0.3692 -0.1200  0.0891
    1WF      WF66128  11.110  15.653   1.268 -0.1329  0.2842 -0.0137
    1WF      WF66129   9.331  14.873   8.199 -0.0222 -0.0982  0.2467
    1WF      WF66130  10.928  14.263   8.982  0.0200  0.1520 -0.0815
    1WF      WF66131  16.041  15.172   8.889 -0.1393 -0.0530  0.1013
    1WF      WF66132  15.666   4.259   1.157 -0.3736  0.1916  0.0148
    1WF      WF66133   4.004  18.908   1.027 -0.0329  0.0655 -0.3978
    1WF      WF66134  12.465   5.856   1.962  0.3681  0.0863 -0.0481
    1WF      WF66135   9.230   2.980   9.210  0.0959  0.1147  0.3420
    1WF      WF66136  16.103  23.393   0.490 -0.0961 -0.1290  0.0064
    1WF      WF66137   2.562   4.360   0.943 -0.2299 -0.0267 -0.1217
    1WF      WF66138  25.119  13.914   8.746 -0.0421  0.4691  0.1973
    1WF      WF66139  18.718  23.068   8.945  0.1077 -0.0433  0.0658
    1WF      WF66140  29.606  18.524   1.539 -0.1437  0.4942  0.2539
    1WF      WF66141   2.716   3.214   8.675  0.2085 -0.2601 -0.2959
    1WF      WF66142   6.968   6.885   9.163  0.1763 -0.1267 -0.1306
    1WF      WF66143   5.243  10.125   0.330 -0.1489  0.2616 -0.0407
    1WF      WF66144  11.810  19.045   2.508  0.2572  0.2905 -0.0400
    1WF      WF66145  16.798  28.974   3.338  0.2784 -0.0245 -0.1257
    1WF      WF66146   9.177   8.431   1.479  0.0739  0.1178  0.2636
    1WF      WF66147  10.295  26.479   8.925  0.1977  0.0096 -0.2295
    1WF      WF66148   3.885  13.242   9.183  0.1197 -0.1074 -0.1505
    1WF      WF66149  22.376   2.819   9.263 -0.2864 -0.0331  0.1881
    1WF      WF66150  15.155  12.754   0.462  0.0972  0.1958  0.0588
    1WF      WF66151  21.765  15.681   8.825  0.1533 -0.3177 -0.1387
    1WF      WF66152   0.273   7.079   1.518 -0.2654 -0.3024  0.0952
    1WF      WF66153  14.207   3.184   1.849  0.0697 -0.1708  0.1357
    1WF      WF66154   3.045  28.335   0.914  0.0755 -0.0252  0.0878
    1WF      WF66155  23.490   0.478   7.300  0.1019  0.0702  0.1493
    1WF      WF66156  14.724  26.290   1.421  0.0076  0.2122 -0.1830
    1WF      WF66157  29.004  22.571   0.255  0.0435  0.1140  0.1035
    1WF      WF66158   5.871  28.075   0.448 -0.0934 -0.0223 -0.0759
    1WF      WF66159  26.226   8.129   8.745  0.1449  0.1150  0.0859
    1WF      WF66160   7.013  14.382   8.291  0.0399 -0.0698  0.3546
    1WF      WF66161  28.858  26.402   0.982  0.0762  0.4582 -0.2658
    1WF      WF66162  19.505   4.580   1.618  0.0687 -0.0875  0.0126
    1WF      WF66163  22.001  23.495   8.492 -0.1791 -0.0910 -0.1815
    1WF      WF66164   4.936   9.551   1.060 -0.0062 -0.3100 -0.1720
    1WF      WF66165  22.354  22.717   1.589 -0.0373 -0.1417 -0.2565
    1WF      WF66166  13.475   6.963   1.034  0.0840  0.2407 -0.0147
    1WF      WF66167  25.228  12.562   8.105 -0.0432 -0.0931 -0.1993
    1WF      WF66168  28.601   8.980   2.867 -0.0198  0.2153  0.1243
    1WF      WF66169  14.283  12.891   0.942 -0.0545  0.3309  0.0485
    1WF      WF66170  11.129  21.535   7.981  0.0274 -0.0270  0.0214
    1WF      WF66171  19.339   4.127   0.055  0.1551  0.1466  0.1526
    1WF      WF66172  12.643  11.311   0.724  0.0604 -0.1752  0.0466
    1WF      WF66173   0.547   6.075   0.732  0.2148  0.0733 -0.0520
    1WF      WF66174  15.270  16.301   8.745 -0.0352  0.3053 -0.0823
    1WF      WF66175  15.965  20.676   0.499 -0.1959 -0.0484  0.3824
    1WF      WF66176  17.069   7.022   9.272  0.0340 -0.0669 -0.0462
    1WF      WF66177  20.359  16.850   0.856 -0.0960 -0.1287  0.2547
    1WF      WF66178  25.548   5.991   0.202 -0.1587 -0.0126 -0.2884
    1WF      WF66179  12.020  29.041   0.599 -0.0723 -0.0391 -0.1907
    1WF      WF66180   4.706  27.951   0.564 -0.1062 -0.2542 -0.0427
    1WF      WF66181   5.459   9.753   1.263  0.0063 -0.2538  0.0557
    1WF      WF66182  24.571  23.217   7.513  0.0098 -0.2531  0.1005
    1WF      WF66183   8.229   8.625   0.233  0.1765  0.0047 -0.5147
    1WF      WF66184  27.577  26.840   7.532 -0.2539 -0.2127  0.0842
    1WF      WF66185  13.977   7.869   6.644  0.0431  0.2964 -0.1260
    1WF      WF66186   0.220  13.251   7.817 -0.0512 -0.2765 -0.3046
    1WF      WF66187  14.232  27.962   0.779 -0.2857  0.2083 -0.0706
    1WF      WF66188   2.359  16.141   0.965  0.0463  0.0573 -0.2201
    1WF      WF66189  27.453   1.775   3.375 -0.2974  0.0752 -0.0371
    1WF      WF66190  16.334   7.047   0.965 -0.0379 -0.3322 -0.0820
    1WF      WF66191   1.668   3.673   1.477  0.1472 -0.0758 -0.0646
    1WF      WF66192  28.120  25.554   2.229  0.2177  0.0584 -0.0201
    1WF      WF66193  19.387  26.212   0.105 -0.1478  0.0236  0.2730
    1WF      WF66194  17.638  17.497   9.157  0.0291  0.2174  0.1308
    1WF      WF66195  14.690   5.647   7.881 -0.0059 -0.5741  0.0806
    1WF      WF66196   6.710  27.195   8.053  0.0309 -0.0924 -0.0450
    1WF      WF66197  20.102  11.851   7.273  0.0722  0.2055 -0.0860
    1WF      WF66198  13.700  12.452   2.614 -0.1549  0.1275 -0.1539
    1WF      WF66199  17.787  13.648   8.716 -0.0169 -0.0677 -0.0229
    1WF      WF66200   6.359   7.122   2.312  0.0480  0.1677  0.0781
    1WF      WF66201  16.637  28.362   1.437 -0.1035 -0.0648  0.0443
    1WF      WF66202  24.002  21.154   8.563  0.1294  0.1770  0.2184
    1WF      WF66203  10.036  20.605   0.630  0.1214 -0.1137 -0.1577
    1WF      WF66204  20.842  18.642   8.874 -0.2253 -0.2070  0.1874
    1WF      WF66205  27.702  15.861   8.205  0.1854  0.4903  0.2539
    1WF      WF66206  27.081  21.593   7.526 -0.0996  0.2266 -0.2986
    1WF      WF66207  27.096  24.375   0.163 -0.2470 -0.2699 -0.0961
    1WF      WF66208  24.584  13.447   9.225 -0.1364 -0.0953  0.0058
    1WF      WF66209  28.639   7.133   8.032 -0.2274  0.0937  0.0230
    1WF      WF66210   4.755   8.100   0.507  0.0357  0.0374 -0.0864
    1WF      WF66211  15.546  15.280   8.780  0.2209 -0.0139  0.2632
    1WF      WF66212   1.231  11.352   0.070 -0.2265 -0.2162  0.0893
    1WF      WF66213   5.323  11.493   6.426 -0.0486  0.0284  0.0292
    1WF      WF66214  29.315  17.811   9.067 -0.2783  0.0654  0.2485
    1WF      WF66215  16.853   5.208   1.093  0.0358 -0.3046 -0.1628
    1WF      WF66216  29.363  14.415   7.861 -0.2937 -0.0479  0.0946
    1WF      WF66217  11.576  20.821   7.059 -0.1519 -0.0840 -0.2476
    1WF      WF66218  28.283  11.125   7.454 -0.0067 -0.4438 -0.1987
    1WF      WF66219  21.293  14.373   7.642  0.1595  0.0402 -0.2023
    1WF      WF66220   5.944  19.193   9.296 -0.2087 -0.0988  0.1141
    1WF      WF66221  20.147   7.466   8.688 -0.3481 -0.0746 -0.0981
    1WF      WF66222  26.543  15.682   7.995  0.1909  0.2688  0.0901
    1WF      WF66223  24.909  21.802   7.954  0.1134  0.0264  0.0049
    1WF      WF66224   6.756  27.311   1.271  0.1237  0.1071 -0.0753
    1WF      WF66225  18.984  12.160   7.911  0.2143  0.3891 -0.0672
    1WF      WF66226  21.660  21.854   8.176 -0.1756  0.3445  0.1095
    1WF      WF66227  10.942   7.541   1.788 -0.2299  0.3565 -0.0130
    1WF      WF66228  19.112   8.200   0.365  0.0558  0.1071 -0.0126
    1WF      WF66229   9.480  10.065   0.468  0.4268  0.0184  0.2677
    1WF      WF66230  28.343  11.713   0.043  0.3915  0.1858 -0.0176
    1WF      WF66231   0.976  21.195   1.231 -0.1105 -0.3103 -0.2520
    1WF      WF66232   2.404  10.145   1.065  0.3587  0.0863  0.0768
    1WF      WF66233  15.193  11.626   8.586 -0.2550 -0.1204 -0.2071
    1WF      WF66234  22.037  28.946   7.280 -0.1323 -0.2001  0.0555
    1WF      WF66235  15.055  27.423   1.684  0.3862  0.3205  0.0452
    1WF      WF66236   7.124  17.500   9.091  0.0630 -0.0677 -0.4049
    1WF      WF66237  12.106   7.888   1.087  0.4399  0.0694 -0.0857
    1WF      WF66238   8.758   4.925   9.214 -0.0252  0.1150 -0.0929
    1WF      WF66239  27.119  26.849   6.329  0.3621  0.4385  0.2840
    1WF      WF66240   5.182  11.057   8.018 -0.4157 -0.1283 -0.0089
    1WF      WF66241  15.450  13.355   8.970 -0.0034  0.1358 -0.0531
    1WF      WF66242  19.281   1.013   8.608 -0.4426 -0.1885 -0.0838
    1WF      WF66243   4.730  15.560   1.309  0.0931 -0.1110 -0.1739
    1WF      WF66244  24.803   3.517   3.463 -0.1330 -0.2003  0.1242
    1WF      WF66245  28.245   9.208   0.106 -0.1257 -0.1137  0.1500
    1WF      WF66246  10.426   7.664   1.728 -0.0829 -0.1555 -0.1123
    1WF      WF66247  13.363   1.912   0.592 -0.1341 -0.1427  0.0690
    1WF      WF66248  14.773   2.181   1.493 -0.1556 -0.0694 -0.2778
    1WF      WF66249  23.559   4.303   0.839 -0.3348  0.0430 -0.1554
    1WF      WF66250  10.813  28.370   0.623  0.2326  0.1907 -0.3472
    1WF      WF66251  27.506  22.468   8.465 -0.2418 -0.1418  0.2710
    1WF      WF66252  10.625   9.969   8.618  0.0845 -0.1991  0.2326
    1WF      WF66253  20.252   4.189   0.802  0.2352 -0.2370 -0.1384
    1WF      WF66254  28.482   8.954   6.546  0.0000 -0.0115 -0.4810
    1WF      WF66255  18.019  28.029   0.024 -0.3662 -0.1855 -0.1135
    1WF      WF66256  21.820  21.363   1.786 -0.1746  0.1141  0.0033
    1WF      WF66257   1.669  14.845   9.287  0.0014  0.1442  0.0105
    1WF      WF66258  19.101  20.414   1.306 -0.2007  0.0006  0.0784
    1WF      WF66259  28.540   2.194   2.448  0.0356  0.0746  0.1715
    1WF      WF66260   8.892   6.062   1.568  0.0543  0.0175 -0.0551
    1WF      WF66261   7.018   4.593   2.205  0.0727 -0.0023  0.2784
    1WF      WF66262   2.884   2.970   1.750  0.2137 -0.0866  0.1260
    1WF      WF66263  20.801  20.736   9.166  0.1385 -0.3469  0.1332
    1WF      WF66264  13.191   8.959   9.336 -0.1016  0.3569 -0.1829
    1WF      WF66265  26.612  21.640   7.557 -0.0938 -0.2572  0.1679
    1WF      WF66266  14.041   1.624   0.261  0.2655 -0.1136 -0.1224
    1WF      WF66267  15.118  24.488   1.091  0.2732 -0.0787 -0.0322
    1WF      WF66268   2.665  17.759   6.855  0.2739  0.1195  0.0291
    1WF      WF66269  14.847   5.729   0.959 -0.1018 -0.0582  0.0046
    1WF      WF66270  22.658  11.466   1.296 -0.1541 -0.0461  0.0342
    1WF      WF66271  27.321  22.667   8.865 -0.3009 -0.0882 -0.0643
    1WF      WF66272  14.317   9.880   0.686 -0.2745  0.4262 -0.0200
    1WF      WF66273   7.808   9.019   2.333  0.1506  0.3105  0.3933
    1WF      WF66274   9.999  13.426   0.428 -0.1707 -0.2832  0.3959
    1WF      WF66275   8.744   1.765   9.286 -0.0287 -0.3154  0.3265
    1WF      WF66276  28.919  28.417   6.583  0.1131  0.0516  0.1252
    1WF      WF66277  13.834  27.117   1.618  0.1591  0.0471 -0.0885
    1WF      WF66278  15.311   7.547   3.213  0.1421 -0.0572 -0.0883
    1WF      WF66279   6.908  28.667   2.707  0.1673  0.0706 -0.3082
    1WF      WF66280   5.302  29.692   0.705 -0.0787  0.0770 -0.1311
    1WF      WF66281  21.767  19.914   0.008 -0.1038  0.2042 -0.1706
    1WF      WF66282   7.567  28.132   7.962  0.1168 -0.1669  0.0920
    1WF      WF66283   6.711   6.758   2.366  0.0904  0.0349  0.0623
    1WF      WF66284   2.100   0.862   8.510 -0.0315  0.1567  0.2997
    1WF      WF66285  27.508   5.201   8.526 -0.1473  0.1742 -0.0083
    1WF      WF66286   0.152   1.429   0.702 -0.1334  0.0920 -0.1938
    1WF      WF66287  28.419   2.000   1.156 -0.0518 -0.1154 -0.2970
    1WF      WF66288  27.081   6.586   7.396  0.1107 -0.0477 -0.0959
    1WF      WF66289  21.904  18.475   0.244  0.0346 -0.0791  0.0566
    1WF      WF66290   1.571   8.909   6.142  0.0186  0.0734  0.2141
    1WF      WF66291   3.896  22.678   0.629  0.2539  0.1803 -0.0747
    1WF      WF66292   1.194  13.513   7.401 -0.3863  0.1017  0.1509
    1WF      WF66293  29.881  24.823   1.533 -0.2108  0.1435  0.1958
    1WF      WF66294  12.229  28.603   8.736  0.0065 -0.1701  0.0149
    1WF      WF66295   2.006   5.510   1.617 -0.0021 -0.0255  0.0922
    1WF      WF66296   8.161   4.147   7.026  0.2959  0.0501  0.0046
    1WF      WF66297   9.124   3.391   8.996 -0.1703 -0.0740 -0.0350
    1WF      WF66298  24.933  23.072   6.688  0.3006  0.1323 -0.1659
    1WF      WF66299  27.904  16.709   1.567  0.0855  0.0504 -0.0371
    1WF      WF66300  13.241   5.031   8.563  0.1430 -0.0584  0.1189
    1WF      WF66301  19.928  18.974   0.917 -0.4436 -0.0450 -0.1676
    1WF      WF66302  25.502  16.172   2.576 -0.1371 -0.1351 -0.1472
    1WF      WF66303  23.563  29.528   7.684  0.1788  0.0658 -0.1619
    1WF      WF66304  15.254  25.230   8.504  0.0408 -0.2623 -0.1286
    1WF      WF66305   0.612   7.334   8.362 -0.2089  0.2188 -0.0823
    1WF      WF66306   3.602  27.774   9.437  0.4841 -0.2516  0.0422
    1WF      WF66307  27.505  14.071   9.196 -0.1918  0.3421  0.0470
    1WF      WF66308  24.770   3.838   0.510  0.0747  0.2171 -0.0913
    1WF      WF66309   1.158   3.884   1.606 -0.0123 -0.3167 -0.0436
    1WF      WF66310  26.119  18.342   0.022 -0.0414 -0.0798 -0.3801
    1WF      WF66311   0.705   4.048   7.917 -0.2108 -0.0435  0.3410
    1WF      WF66312  18.157  29.392   1.009  0.2508 -0.0495 -0.1237
    1WF      WF66313  26.121  19.782   9.223  0.0591  0.1915  0.2265
    1WF      WF66314   4.009   0.321   7.889 -0.0618  0.1303 -0.0283
    1WF      WF66315   5.879  23.160   7.666  0.1035  0.0856  0.1654
    1WF      WF66316  16.279   1.546   7.053 -0.5299 -0.1721  0.0394
    1WF      WF66317   4.222   2.044   7.211 -0.2780 -0.2451  0.0387
    1WF      WF66318  16.975  21.871   9.024 -0.2851 -0.1445 -0.1003
    1WF      WF66319  23.602  18.237   8.362 -0.1920 -0.0775 -0.2732
    1WF      WF66320  17.739  13.674   2.405  0.2051  0.0933  0.4640
    1WF      WF66321  21.247  18.090   9.101 -0.0732  0.0410  0.1386
    1WF      WF66322  28.748  25.487   0.612  0.0226 -0.0240 -0.1451
    1WF      WF66323  10.218   8.516   9.281  0.0884  0.1132 -0.2564
    1WF      WF66324  22.461   0.405   8.714 -0.1609 -0.0111  0.1650
    1WF      WF66325   1.939  25.230   9.207 -0.0549  0.2455 -0.1298
    1WF      WF66326  21.316   4.044   0.902 -0.0575 -0.0146  0.1255
    1WF      WF66327  21.848  29.219   8.674 -0.0769 -0.0725  0.0637
    1WF      WF66328   4.782  21.336   0.738 -0.0037  0.1995 -0.0130
    1WF      WF66329  25.569  13.672   8.516 -0.0056 -0.1566  0.1953
    1WF      WF66330  27.805  26.184   1.436 -0.3956 -0.1329 -0.1031
    1WF      WF66331   7.394  16.118   1.909 -0.5623  0.0828  0.3716
    1WF      WF66332  24.473  18.526   0.165 -0.3460  0.1208  0.0827
    1WF      WF66333  10.939  13.815   8.666 -0.0236  0.0638 -0.4020
    1WF      WF66334  17.247  17.265   7.638 -0.2160  0.1145 -0.1687
    1WF      WF66335   9.430   3.656   0.432  0.1547 -0.0204 -0.1056
    1WF      WF66336   8.553   9.421   8.800  0.1286 -0.2433 -0.1406
    1WF      WF66337  22.517  20.594   0.945  0.1767 -0.1667  0.0438
    1WF      WF66338  27.246  16.933   0.847 -0.1263 -0.0104  0.0913
    1WF      WF66339  22.503  18.951   1.074  0.0773  0.0425 -0.0362
    1WF      WF66340  10.959  28.995   8.576  0.0003 -0.0557  0.2042
    1WF      WF66341  28.864  12.165   1.693 -0.3502  0.1810  0.0288
    1WF      WF66342  23.440  25.503   8.358 -0.1493  0.3142  0.0726
    1WF      WF66343  24.218   5.548   0.245 -0.3549 -0.1332  0.1189
    1WF      WF66344  12.439  18.867   1.005 -0.1082  0.0075 -0.0257
    1WF      WF66345  14.812   3.558   2.631  0.0446  0.0414  0.1429
    1WF      WF66346   3.290  13.871   0.896 -0.2552  0.0482  0.0572
    1WF      WF66347   8.775   5.093   3.321 -0.0462 -0.1866  0.0895
    1WF      WF66348  17.469   6.385   1.884 -0.2312 -0.3354  0.1873
    1WF      WF66349  12.624  27.613   7.004 -0.2058  0.1613  0.2536
    1WF      WF66350  12.200  20.138   8.508 -0.2341 -0.0846 -0.0412
    1WF      WF66351   3.989   8.029   1.477 -0.0513  0.2234 -0.3860
    1WF      WF66352   1.044  12.629   0.628 -0.2224 -0.1900 -0.0192
    1WF      WF66353   5.188  26.753   8.326 -0.1772 -0.2141  0.0138
    1WF      WF66354  13.664  21.944   0.099  0.0869 -0.1279  0.0321
    1WF      WF66355  15.417  15.805   8.733 -0.0367  0.1504 -0.0801
    1WF      WF66356  10.770   9.630   1.365 -0.1829 -0.1741 -0.1875
    1WF      WF66357  15.535  22.302   8.221  0.1475 -0.1096 -0.0558
    1WF      WF66358  18.441   3.784   7.908  0.0110 -0.3295 -0.0253
    1WF      WF66359   0.931   7.887   7.702 -0.2009  0.1062 -0.3379
    1WF      WF66360  18.930   6.298   1.453  0.1607 -0.0221 -0.2098
    1WF      WF66361  21.343   0.336   3.190  0.3450 -0.1548  0.1720
    1WF      WF66362   7.978  11.666   0.029  0.2203  0.1829  0.0100
    1WF      WF66363   0.498  12.062   7.021  0.0424  0.4922 -0.1335
    1WF      WF66364  19.510   9.812   0.716  0.0579  0.2318 -0.2039
    1WF      WF66365  27.999   0.351   1.417  0.0304  0.1770 -0.0561
    1WF      WF66366  13.451   2.548   0.509 -0.0634  0.0303 -0.2988
    1WF      WF66367  10.070  20.513   1.122 -0.0648 -0.2055  0.0617
    1WF      WF66368  21.905  22.847   1.195  0.1585 -0.2377  0.1515
    1WF      WF66369  11.415  18.059   8.859  0.1567 -0.1273  0.2780
    1WF      WF66370  28.600  27.772   0.874  0.1569 -0.1573  0.0484
    1WF      WF66371   5.457   7.806   3.284  0.1275 -0.1714  0.1058
    1WF      WF66372  14.641  24.263   9.409  0.1194  0.1503  0.0962
    1WF      WF66373  26.315  12.114   7.863 -0.2306 -0.0647 -0.0103
    1WF      WF66374   3.140  28.561   8.373  0.2877  0.0850 -0.0272
    1WF      WF66375   3.112  28.932   8.997 -0.1725  0.4545 -0.1860
    1WF      WF66376  25.098  19.921   2.469 -0.0202 -0.1276  0.0683
    1WF      WF66377  17.012  26.318   8.578  0.0510 -0.2010 -0.2334
    1WF      WF66378  12.346  24.750   0.754 -0.4025  0.3719  0.1715
    1WF      WF66379   2.065  10.562   1.064  0.0216 -0.0412  0.1523
    1WF      WF66380  23.552  19.398   0.937  0.0441  0.2764  0.0273
    1WF      WF66381  22.060  15.788   9.189  0.2174 -0.0196 -0.1260
    1WF      WF66382   7.079   8.705   0.864  0.3542  0.0143  0.2754
    1WF      WF66383  21.828  22.826   1.687  0.3037  0.1612  0.0248
    1WF      WF66384   9.558   3.261   2.203 -0.2434 -0.0912 -0.1849
    1WF      WF66385  13.416   9.033   7.931  0.1054 -0.0856  0.0349
    1WF      WF66386   8.737  21.438   6.906  0.0311 -0.2008  0.0867
    1WF      WF66387  21.326  27.453   9.250  0.3478 -0.2269 -0.0709
    1WF      WF66388  25.639   0.595   9.296  0.0749 -0.3481  0.0733
    1WF      WF66389  17.998   3.748   7.735  0.1250 -0.3659 -0.0344
    1WF      WF66390   4.899  26.330   2.542  0.1942 -0.2627  0.0248
    1WF      WF66391  21.030  28.450   0.832  0.0133 -0.1753 -0.0648
    1WF      WF66392  17.406  10.033   0.558  0.2798  0.0730  0.1617
    1WF      WF66393   9.090  21.235   6.588  0.1113 -0.0762 -0.2525
    1WF      WF66394   9.624   1.218   8.820  0.2927  0.1941  0.0276
    1WF      WF66395  19.510  26.979   7.981 -0.1251  0.2086  0.3430
    1WF      WF66396  16.810  24.546   2.974  0.0514  0.0597 -0.2151
    1WF      WF66397   8.615  17.303   2.258  0.0869  0.2278  0.2032
    1WF      WF66398  15.540   9.833   7.952  0.0422 -0.3994  0.1272
    1WF      WF66399  12.927  17.231   0.243  0.2044  0.2709 -0.0442
    1WF      WF66400  21.059  28.905   8.262  0.0640  0.0928 -0.0874
    1WF      WF66401   8.823  22.906   0.057 -0.1762 -0.0661  0.0841
    1WF      WF66402  26.112  27.734   1.650 -0.2988 -0.0094  0.0171
    1WF      WF66403  28.876  10.491   6.188 -0.3727 -0.0033  0.3444
    1WF      WF66404  15.732  24.675   1.022 -0.0313  0.1979  0.0574
    1WF      WF66405  25.593   0.811   8.472 -0.0144 -0.2195 -0.0787
    1WF      WF66406  23.024  27.235   1.556 -0.0214 -0.1502  0.3671
    1WF      WF66407  15.253  14.863   0.707  0.0457 -0.0878  0.2077
    1WF      WF66408  27.410  25.387   6.943 -0.2392  0.1317 -0.1121
    1WF      WF66409  28.884   8.762   2.397 -0.1355 -0.2856 -0.0709
    1WF      WF66410  27.825  22.467   8.960 -0.2993  0.2085  0.0353
    1WF      WF66411  21.824  28.759   7.683  0.1504  0.1829  0.1664
    1WF      WF66412  23.129  23.052   1.210  0.2276 -0.0981  0.1245
    1WF      WF66413   0.797  17.907   9.385 -0.0110  0.1097 -0.0078
    1WF      WF66414  13.056  16.235   9.457 -0.2599 -0.4141  0.2136
    1WF      WF66415   5.943   7.997   2.183  0.2954 -0.2306  0.2122
    1WF      WF66416  10.909  10.847   0.277 -0.1817 -0.1363 -0.0293
    1WF      WF66417   6.153  17.085   8.992 -0.3450  0.3219  0.5079
    1WF      WF66418   2.289   4.403   2.082 -0.1737  0.1897  0.0637
    1WF      WF66419   2.892   9.575   2.262 -0.0702 -0.1011 -0.0343
    1WF      WF66420  20.483  17.523   2.087  0.0823 -0.0760 -0.3378
    1WF      WF66421   3.019   7.556   0.385  0.0051  0.1408 -0.0598
    1WF      WF66422   8.493   8.215   0.256  0.1216  0.0679  0.2746
    1WF      WF66423   7.890  10.623   7.775  0.0489  0.1794 -0.2681
    1WF      WF66424   1.783  23.009   7.138 -0.1343 -0.5553 -0.0155
    1WF      WF66425  13.900  29.227   1.323 -0.0435 -0.0835  0.0241
    1WF      WF66426  22.718   9.561   3.635  0.3106 -0.0424 -0.3372
    1WF      WF66427  20.700  15.022   6.322  0.2240  0.1144 -0.2712
    1WF      WF66428   3.223  18.693   0.504  0.1784 -0.0431  0.0745
    1WF      WF66429   2.501  19.824   6.183  0.0467 -0.0118 -0.1857
    1WF      WF66430   4.052  14.504   6.388 -0.3448 -0.1451 -0.1886
    1WF      WF66431  18.415   7.272   7.564 -0.2208 -0.0576 -0.2489
    1WF      WF66432   1.248  12.302   2.132  0.2259 -0.2188 -0.0010
    1WF      WF66433   0.185  24.066   9.318 -0.2923  0.1558  0.0494
    1WF      WF66434  12.088  16.865   1.345  0.0549  0.1563 -0.3015
    1WF      WF66435  14.597   4.624   3.128  0.2064 -0.2395  0.1360
    1WF      WF66436  17.915  27.117   0.058 -0.1970  0.3301 -0.1991
    1WF      WF66437  25.744  21.451   1.878 -0.4329 -0.1236  0.2593
    1WF      WF66438  19.285   4.506   9.069 -0.2336 -0.0470  0.1052
    1WF      WF66439  25.084  13.584   9.083 -0.0738  0.1041  0.1077
    1WF      WF66440  21.492  12.359   8.492 -0.1896  0.2036  0.1458
    1WF      WF66441   6.985  25.596   0.824  0.0245 -0.2637  0.3680
    1WF      WF66442  12.848  20.319   1.089 -0.0073 -0.1102  0.0430
    1WF      WF66443  23.076  11.633   0.864  0.0341  0.4010  0.1029
    1WF      WF66444   4.719  12.326   2.284 -0.0230  0.1115  0.1392
    1WF      WF66445  11.834  18.547   7.471  0.1003 -0.0196 -0.0804
    1WF      WF66446   2.558   0.376   1.973  0.2645  0.1529  0.0935
    1WF      WF66447  19.861  21.642   8.171  0.2483  0.5315  0.0129
    1WF      WF66448  12.017  16.736   0.882  0.0032  0.0907 -0.0639
    1WF      WF66449  18.930  11.728   8.263  0.0769  0.1412  0.1844
    1WF      WF66450  16.251   8.251   8.011 -0.1554  0.0823  0.0055
    1WF      WF66451  15.077  20.067   9.181  0.2053  0.1833 -0.2300
    1WF      WF66452  25.912  10.494   7.645  0.0275 -0.1986  0.0530
    1WF      WF66453  12.137   8.541   1.145 -0.1327 -0.1354 -0.2731
    1WF      WF66454  12.379  24.197   0.734  0.1307 -0.2188  0.2507
    1WF      WF66455  14.442   5.411   0.738  0.0564 -0.1808 -0.0565
    1WF      WF66456   9.879  19.487   9.071  0.1043  0.1567  0.0457
    1WF      WF66457  25.559  27.068   7.721  0.0843 -0.0443 -0.0978
    1WF      WF66458  27.483  24.578   1.478  0.0662  0.4979  0.2206
    1WF      WF66459  19.389  28.441   7.947 -0.0613  0.0760 -0.1747
    1WF      WF66460   7.532   3.729   1.391 -0.0044  0.0464 -0.1001
    1WF      WF66461  14.871  16.793   0.939 -0.0487 -0.0591  0.0657
    1WF      WF66462  24.958  23.494   7.626  0.1161 -0.2002 -0.1978
    1WF      WF66463  14.916  10.557   2.500  0.1265 -0.2664 -0.3070
    1WF      WF66464  13.447  29.193   1.102 -0.0852 -0.3157  0.1155
    1WF      WF66465   4.324   4.674   2.228 -0.2188  0.5064 -0.1921
    1WF      WF66466  14.546  21.083   7.470  0.3545 -0.2354 -0.0497
    1WF      WF66467  26.487   6.202   8.641 -0.2651  0.1980  0.0925
    1WF      WF66468  21.173   6.145   0.040 -0.0836  0.2220 -0.4374
    1WF      WF66469  25.829  17.962   0.051 -0.1327 -0.1694 -0.2123
    1WF      WF66470  11.305  27.322   0.267 -0.1867 -0.4586  0.1462
    1WF      WF66471   0.600  21.768   8.709  0.1988 -0.2205  0.0041
    1WF      WF66472  27.684  16.762   7.458 -0.2327 -0.1061 -0.0758
    1WF      WF66473  25.023  23.153   7.195  0.0248 -0.2066  0.1720
    1WF      WF66474  23.274  17.734   8.340  0.0227  0.1243  0.2360
    1WF      WF66475  16.245  17.819   0.182  0.0402  0.2536  0.0046
    1WF      WF66476   4.495  23.030   8.248  0.1397  0.0319  0.3190
    1WF      WF66477   2.262  22.996   6.961 -0.0769  0.0501 -0.3234
    1WF      WF66478   3.059   5.962   1.445 -0.1975 -0.0282 -0.2010
    1WF      WF66479  22.599   8.622   1.439 -0.0098  0.0495  0.2116
    1WF      WF66480  19.614   7.922   6.493  0.1048  0.1966 -0.0213
    1WF      WF66481  21.911   7.392   0.753 -0.1372  0.0153 -0.0026
    1WF      WF66482  29.903   5.153   2.731 -0.1519  0.0616  0.1895
    1WF      WF66483  20.136  29.840   0.914  0.2085 -0.0507  0.2484
    1WF      WF66484   0.754  17.889   8.851 -0.4392 -0.0560 -0.1018
    1WF      WF66485  26.380  24.046   1.660  0.0315 -0.0824  0.0946
    1WF      WF66486  12.258  18.665   7.786  0.2346  0.1690 -0.0665
    1WF      WF66487  14.352   1.875   9.416 -0.3993 -0.0985  0.0520
    1WF      WF66488  15.412   3.498   0.017  0.0174  0.1541 -0.3685
    1WF      WF66489  20.798   6.528   8.687 -0.2098  0.1512 -0.0176
    1WF      WF66490  21.010   8.255   8.583 -0.1387 -0.3368  0.2184
    1WF      WF66491   8.815   3.926   1.083  0.2438 -0.0475  0.2908
    1WF      WF66492  23.183  25.267   2.170  0.0700  0.2284  0.1253
    1WF      WF66493  27.302  26.846   1.352  0.0012  0.4363  0.1948
    1WF      WF66494  25.534   2.325   9.296  0.0659 -0.0975 -0.0922
    1WF      WF66495   3.152   0.993   1.307  0.1134 -0.4288 -0.0991
    1WF      WF66496   8.405  13.501   6.401 -0.1388 -0.0486  0.0098
    1WF      WF66497  22.555   2.209   8.598 -0.2621 -0.1686 -0.0141
    1WF      WF66498  15.251  27.685   2.249  0.1525 -0.0271 -0.0125
    1WF      WF66499  17.978  10.654   6.504 -0.0853 -0.0405 -0.1685
    1WF      WF66500  23.397  11.436   6.827  0.3259 -0.4549 -0.0792
    1WF      WF66501  14.852   3.649   1.855  0.2931  0.0592  0.2240
    1WF      WF66502  24.129   4.593   6.869 -0.0535  0.1230 -0.0952
    1WF      WF66503   0.695  19.544   9.322 -0.0533 -0.0496 -0.1099
    1WF      WF66504  19.643   1.229   1.635 -0.0362 -0.0223  0.0097
    1WF      WF66505  18.673  24.486   9.213  0.0889  0.0863 -0.0177
    1WF      WF66506  28.564   5.384   6.921 -0.1874  0.2631  0.1646
    1WF      WF66507  28.493   8.223   9.360 -0.0516  0.1133 -0.0085
    1WF      WF66508  22.445   7.559   8.012  0.0551 -0.2292  0.2787
    1WF      WF66509   6.757   6.457   2.769  0.0318  0.3088  0.2122
    1WF      WF66510  16.469  14.919   8.920  0.1196  0.0251  0.0531
    1WF      WF66511  20.070  24.569   1.563 -0.0441 -0.2496  0.0356
    1WF      WF66512  26.351  15.189   1.460 -0.0208  0.1498 -0.0742
    1WF      WF66513   2.316  21.229   9.310 -0.4269 -0.0992  0.3307
    1WF      WF66514  24.704   5.493   0.153 -0.1617 -0.0578 -0.0182
    1WF      WF66515  24.257  25.052   8.913 -0.1195 -0.1824  0.0466
    1WF      WF66516  23.791   2.815   8.284  0.1110  0.1259 -0.2718
    1WF      WF66517   1.657   0.728   8.276 -0.0359 -0.1678 -0.3150
    1WF      WF66518  15.643  13.186   7.911  0.0524 -0.0577  0.2320
    1WF      WF66519  13.779  23.088   8.283 -0.1761  0.1654  0.1742
    1WF      WF66520  14.608  12.760   0.249 -0.0983 -0.2692 -0.2957
    1WF      WF66521  25.527  19.105   1.794  0.1302 -0.2205  0.1481
    1WF      WF66522   2.535   2.604   9.150  0.0711 -0.1537 -0.0683
    1WF      WF66523  23.926  12.823   6.024  0.4850  0.4801 -0.1478
    1WF      WF66524  16.283   8.989   1.554  0.0661 -0.3824  0.2171
    1WF      WF66525  11.753  15.805   8.864  0.1124 -0.2497 -0.0815
    1WF      WF66526  16.332  20.580   0.876 -0.0012 -0.2239  0.1213
    1WF      WF66527   8.430   7.344   1.699 -0.2283 -0.3690 -0.0624
    1WF      WF66528  22.745   0.913   1.425  0.0734  0.1925  0.3327
    1WF      WF66529  10.654  14.740   6.914 -0.1268  0.2474  0.0728
    1WF      WF66530  15.270  20.613   8.427 -0.0281 -0.0923  0.0380
    1WF      WF66531   6.707  20.608   9.273 -0.1195  0.0839 -0.0741
    1WF      WF66532  24.458  21.522   0.942  0.2450  0.2138 -0.3050
    1WF      WF66533   6.057  21.131   7.932  0.0819  0.0725 -0.1505
    1WF      WF66534  11.465  13.641   8.579  0.0558 -0.1339  0.2730
    1WF      WF66535   8.505  13.886   1.535  0.1603 -0.0142 -0.0150
    1WF      WF66536  20.537  11.397   8.593 -0.3497  0.2001  0.0175
    1WF      WF66537   1.149   4.942   0.092  0.2138  0.0049 -0.3041
    1WF      WF66538   4.235  26.561   7.315 -0.2170  0.2646 -0.5343
    1WF      WF66539  21.458  22.955   1.117 -0.2391 -0.0282  0.1193
    1WF      WF66540  13.192   7.000   1.725 -0.2381  0.0457 -0.3595
    1WF      WF66541  13.819   2.926   2.964 -0.0396  0.2469  0.3186
    1WF      WF66542  24.340  13.384   0.473 -0.1817  0.0586  0.0174
    1WF      WF66543  23.678  19.459   0.050  0.1725 -0.2476 -0.2529
    1WF      WF66544   4.621  29.734   1.267 -0.2058 -0.1146  0.1837
    1WF      WF66545   6.625  27.551   7.137  0.1938 -0.1878  0.0694
    1WF      WF66546  28.990   6.786   8.329 -0.2690 -0.1154  0.0263
    1WF      WF66547  25.548  16.349   5.816 -0.1612 -0.1358 -0.0712
    1WF      WF66548  29.488  10.722   0.757  0.1926  0.2467 -0.0716
    1WF      WF66549  24.495   1.072   1.570 -0.1079  0.1814  0.1176
    1WF      WF66550  25.038  14.433   7.549  0.0093 -0.2621  0.0241
    1WF      WF66551   5.135  19.234   7.223 -0.2855 -0.0294  0.2585
    1WF      WF66552   4.280  22.016   9.234  0.0783  0.1672 -0.0741
    1WF      WF66553  26.248  17.500   1.227  0.2176 -0.2129 -0.2440
    1WF      WF66554   4.076   4.637   8.074  0.0190 -0.1531  0.0158
    1WF      WF66555  17.335   9.264   1.764 -0.3457 -0.0491  0.1050
    1WF      WF66556  17.739  19.756   0.790  0.3111  0.3189  0.0738
    1WF      WF66557  18.667  10.962   7.414  0.0556 -0.1355  0.2072
    1WF      WF66558  19.630  12.727   0.662 -0.1578  0.0423  0.0605
    1WF      WF66559  18.228  24.033   2.266 -0.1104 -0.2570 -0.2652
    1WF      WF66560  28.848   9.800   8.976 -0.1455 -0.0926 -0.1010
    1WF      WF66561   1.948   3.412   1.193  0.0638  0.1214 -0.0905
    1WF      WF66562  26.850   0.570   1.600 -0.1923  0.0868 -0.0367
    1WF      WF66563  20.413  20.100   6.913 -0.1680  0.0328  0.2427
    1WF      WF66564  22.663   7.908   7.808  0.0679  0.1618 -0.1037
    1WF      WF66565  13.023  10.872   0.169  0.0565  0.1485  0.1926
    1WF      WF66566   7.393  20.967   0.155 -0.0507  0.3162 -0.0839
    1WF      WF66567   6.304  24.795   2.298 -0.0600 -0.3355  0.0326
    1WF      WF66568  23.743  20.299   7.973 -0.1397  0.0017 -0.1060
    1WF      WF66569  11.838   1.470   2.286 -0.2777 -0.1956  0.1982
    1WF      WF66570  23.618  10.986   0.225 -0.1586 -0.3004 -0.1031
    1WF      WF66571   8.438   3.666   3.661 -0.0418  0.2358 -0.1081
    1WF      WF66572   2.989  22.462   8.298 -0.0957 -0.4102 -0.1331
    1WF      WF66573   5.139  21.051   7.581  0.4010 -0.0791 -0.2619
    1WF      WF66574  25.515  22.038   6.202  0.1105  0.2411  0.1500
    1WF      WF66575   0.630  10.584   1.113 -0.0655  0.1582  0.0346
    1WF      WF66576  26.300   3.687   1.379 -0.3850  0.1000  0.2918
    1WF      WF66577  18.273  10.116   0.103 -0.2870 -0.2594 -0.1808
    1WF      WF66578  10.811   8.022   3.219  0.2950 -0.1439  0.2428
    1WF      WF66579   4.232  19.861   8.617  0.0090 -0.0831 -0.0567
    1WF      WF66580  21.557  12.033   0.513  0.0867  0.6950 -0.1016
    1WF      WF66581   1.273  28.079   3.043  0.1388  0.0818  0.0773
    1WF      WF66582  21.590   6.896   0.569 -0.0523 -0.0352 -0.0253
    1WF      WF66583  14.044   9.689   6.905  0.0366  0.4008 -0.0076
    1WF      WF66584  24.852   5.051   0.188  0.1131 -0.0581  0.0298
    1WF      WF66585  26.689  13.197   6.679  0.1797 -0.1155 -0.1685
    1WF      WF66586   9.946   6.581   6.521  0.0177  0.2998 -0.4192
    1WF      WF66587   8.870   8.088   1.625  0.0079  0.0253  0.1476
    1WF      WF66588   9.079  27.108   0.531 -0.0100  0.2085 -0.3351
    1WF      WF66589  21.635   3.810   1.251  0.5108  0.1899 -0.4627
    1WF      WF66590  19.850  24.771   1.067 -0.0503 -0.2566  0.0054
    1WF      WF66591   8.801  22.448   8.333  0.0032 -0.1188 -0.1012
    1WF      WF66592  14.450  26.228   9.254 -0.1221  0.2289 -0.1387
    1WF      WF66593  27.061  20.310   1.195  0.1420  0.2252  0.1413
    1WF      WF66594  13.563  15.045   9.101  0.0428  0.0270 -0.0948
    1WF      WF66595  23.573  11.526   0.318 -0.0253 -0.0579 -0.1194
    1WF      WF66596   4.288   7.772   8.492  0.0342  0.1156 -0.1239
    1WF      WF66597   0.042  27.253   1.294 -0.1357 -0.0112  0.2100
    1WF      WF66598  23.941  12.608   7.691 -0.2648 -0.1353 -0.0070
    1WF      WF66599   3.628   7.280   9.261  0.0460  0.1164 -0.2659
    1WF      WF66600  23.108  28.389   7.374  0.1053 -0.1211  0.0557
    1WF      WF66601  27.932   4.332   0.264 -0.1124 -0.1836 -0.3635
    1WF      WF66602  14.698   9.560   0.720  0.1304  0.0245 -0.0643
    1WF      WF66603   9.150   8.610   6.768  0.2152 -0.2758  0.2330
    1WF      WF66604  24.147  24.134   2.158 -0.0888  0.1175 -0.0021
    1WF      WF66605  20.058   8.618   7.956 -0.3029 -0.0801  0.0106
    1WF      WF66606   9.918   6.992   2.101 -0.1362  0.2171 -0.0458
    1WF      WF66607   0.042  25.686   0.282  0.1578  0.0947 -0.1596
    1WF      WF66608   5.648  26.980   6.430  0.2411  0.1832  0.1148
    1WF      WF66609  24.404   7.447   6.715 -0.0917 -0.0093 -0.0586
    1WF      WF66610  14.334   3.821   0.562  0.0112 -0.1854 -0.1886
    1WF      WF66611  10.502   6.327   0.735 -0.3551 -0.2310  0.1784
    1WF      WF66612  20.329  13.227   8.885  0.0770  0.2608  0.0320
    1WF      WF66613   7.545  25.691   8.728 -0.3121  0.0451 -0.1731
    1WF      WF66614  23.206  11.891   0.477 -0.3194  0.0585 -0.3057
    1WF      WF66615  27.762  16.839   9.426  0.0741 -0.1553  0.1003
    1WF      WF66616  17.561  26.627   0.631 -0.0903  0.0214 -0.2995
    1WF      WF66617   7.468  22.498   5.526 -0.0740  0.0581  0.1260
    1WF      WF66618  22.387  18.798   2.957  0.1914 -0.1080  0.0038
    1WF      WF66619   6.378  15.291   6.577  0.0796 -0.0734  0.3243
    1WF      WF66620   2.491  20.536   7.743 -0.1196 -0.2739 -0.0003
    1WF      WF66621   3.876  15.768   0.153 -0.3350  0.0971 -0.0500
    1WF      WF66622  19.417  22.173   1.579  0.0732 -0.1454 -0.3056
    1WF      WF66623   7.523  12.006   9.430 -0.1772  0.1184  0.1006
    1WF      WF66624  13.616   1.139   0.399 -0.1142 -0.0031 -0.2346
    1WF      WF66625  23.114  15.447   1.705 -0.1297  0.2639 -0.1160
    1WF      WF66626   3.646  29.786   0.362 -0.0055  0.0162 -0.0601
    1WF      WF66627  26.598  28.665   0.524 -0.0759  0.2453 -0.2083
    1WF      WF66628  14.532   5.615   0.268  0.1565  0.0407  0.0873
    1WF      WF66629   1.975  10.120   0.766 -0.0465  0.1742 -0.0732
    1WF      WF66630  18.261   3.300   9.414 -0.0963 -0.1141 -0.1376
    1WF      WF66631  16.336  18.784   7.474  0.0639 -0.0111  0.2353
    1WF      WF66632  15.402  20.236   8.831 -0.0063  0.0326  0.1319
    1WF      WF66633  24.929   8.513   1.499 -0.0037 -0.0292  0.1789
    1WF      WF66634  28.922   8.079   9.026 -0.2412 -0.0408 -0.1831
    1WF      WF66635   8.811  29.121   1.258  0.0065  0.1873 -0.0373
    1WF      WF66636  16.526   6.079   8.121 -0.0131 -0.0608  0.0188
    1WF      WF66637   7.735  22.925   7.556  0.0669 -0.2203  0.2949
    1WF      WF66638  17.088  18.510   0.579  0.1244  0.0161  0.0419
    1WF      WF66639  21.726  17.472   1.306 -0.1419  0.3830 -0.3173
    1WF      WF66640  28.640  28.666   8.533  0.0571  0.1848  0.0887
    1WF      WF66641  26.237  28.919   8.606  0.0860 -0.0278  0.1201
    1WF      WF66642   9.151  19.793   1.909  0.0375 -0.1004 -0.2175
    1WF      WF66643  25.279   4.450   0.884 -0.1984 -0.1574 -0.1435
    1WF      WF66644  10.078  22.649   0.993 -0.0465  0.1772  0.0736
    1WF      WF66645   4.323  17.945   0.655 -0.0490  0.3066 -0.1492
    1WF      WF66646  20.522  19.410   1.184  0.2591  0.0157 -0.1346
    1WF      WF66647   7.732  16.355   7.812 -0.4630  0.5976 -0.0879
    1WF      WF66648  15.060  26.058   1.705  0.1841 -0.1799 -0.1364
    1WF      WF66649  24.728   9.444   9.114 -0.1603  0.1678 -0.0158
    1WF      WF66650   1.978  11.675   9.246  0.0939 -0.1855  0.0847
    1WF      WF66651   3.635   8.249   2.002 -0.0433 -0.2322 -0.2167
    1WF      WF66652  15.564  25.832   7.387  0.0131  0.0395 -0.2122
    1WF      WF66653   4.001  22.650   8.108  0.2417  0.0964 -0.0116
    1WF      WF66654  23.766  28.615   0.713 -0.0345  0.1255  0.1422
    1WF      WF66655  10.422  17.069   1.283  0.2513  0.1719 -0.1960
    1WF      WF66656  12.723  14.355   8.726 -0.0425  0.0819 -0.2159
    1WF      WF66657   1.319   3.165   9.120 -0.2745 -0.1347 -0.6693
    1WF      WF66658   0.926  11.430   8.232 -0.0851 -0.0980 -0.0133
    1WF      WF66659  13.388   4.152   1.443  0.0553  0.3772  0.0398
    1WF      WF66660  20.112  10.715   8.374 -0.0172  0.0902  0.0852
    1WF      WF66661   1.131  10.334   9.170 -0.1660 -0.1249 -0.1765
    1WF      WF66662  29.055  11.662   1.503  0.1000  0.4177  0.0106
    1WF      WF66663  19.713  19.400   0.692  0.1039  0.0599 -0.1479
    1WF      WF66664  15.455   7.038   0.909  0.0292 -0.1196 -0.0107
    1WF      WF66665  25.787   1.943   8.969 -0.1785  0.0643 -0.0079
    1WF      WF66666   9.437   9.757   3.367 -0.0583 -0.2964 -0.1384
    1WF      WF66667  14.260   1.778   8.849  0.2574  0.1618 -0.0174
    1WF      WF66668  25.839  15.022   1.222  0.1766  0.3287  0.0785
    1WF      WF66669   7.689  14.079   9.231 -0.0599 -0.3903 -0.1487
    1WF      WF66670  25.134  29.175   2.235  0.0731 -0.3172 -0.0201
    1WF      WF66671  26.023  26.222   1.831 -0.1771 -0.0331  0.1682
    1WF      WF66672   0.543   9.620   7.807  0.0161  0.0391  0.1073
    1WF      WF66673  27.353  12.041   0.697 -0.1967 -0.0604 -0.0549
    1WF      WF66674   4.939  20.517   8.498  0.1683  0.0720  0.1144
    1WF      WF66675  26.369  16.774   9.046  0.1537 -0.2374  0.0014
    1WF      WF66676  23.781  13.748   6.570  0.0295  0.0459 -0.1826
    1WF      WF66677  26.082  10.860   0.223 -0.0381  0.1727 -0.0086
    1WF      WF66678   8.316   0.981   1.903 -0.1699  0.0696  0.0082
    1WF      WF66679  17.354  13.114   0.324  0.4962 -0.0747 -0.0776
    1WF      WF66680   9.720   1.060   8.372  0.3915 -0.0657  0.0528
    1WF      WF66681  23.270  24.699   9.126  0.0992  0.0139  0.1892
    1WF      WF66682   6.601   2.572   2.954  0.4408  0.0092  0.1795
    1WF      WF66683  10.610   1.872   1.744 -0.0501 -0.1093 -0.1000
    1WF      WF66684  19.868  24.654   8.315  0.2598 -0.0482 -0.4456
    1WF      WF66685   3.618  28.122   9.058 -0.0212  0.0159 -0.1094
    1WF      WF66686  17.912  18.473   9.431  0.0646 -0.1256 -0.0727
    1WF      WF66687   1.532   0.886   2.943 -0.0167 -0.1505  0.0145
    1WF      WF66688  29.776   3.784   0.372 -0.3820 -0.1323 -0.2124
    1WF      WF66689   3.153  14.647   1.384  0.1675 -0.1724 -0.2964
    1WF      WF66690  10.587  11.675   0.528 -0.1449  0.1259  0.0225
    1WF      WF66691  17.339   2.542   0.320  0.0073  0.3988  0.1668
    1WF      WF66692  27.390  22.550   0.595 -0.1475  0.2650  0.3383
    1WF      WF66693   1.883  27.464   8.058  0.1124  0.0920 -0.2950
    1WF      WF66694  28.460   2.220   1.683 -0.3885 -0.0311  0.0270
    1WF      WF66695  19.370  16.096   7.924 -0.1043  0.1931  0.0719
    1WF      WF66696  22.883   2.916   8.637  0.2048  0.0605  0.2867
    1WF      WF66697  24.273   3.176   2.291  0.1502 -0.0607 -0.0992
    1WF      WF66698  20.067  19.037   1.425 -0.0808  0.2294  0.1796
    1WF      WF66699  12.916   2.866   1.663  0.1418 -0.0645 -0.1588
    1WF      WF66700   8.797  14.574   0.379 -0.0824  0.1675 -0.0499
    1WF      WF66701  21.436   8.319   8.925  0.1503 -0.1378  0.2040
    1WF      WF66702  26.548   0.942   1.642 -0.1791 -0.0613 -0.3579
    1WF      WF66703  20.421  22.820   1.664 -0.2093 -0.0811  0.3789
    1WF      WF66704   3.933  25.749   9.283  0.1976 -0.0241 -0.1400
    1WF      WF66705  15.461   9.953   0.030  0.2342 -0.2026  0.1019
    1WF      WF66706   3.535  20.735   8.337 -0.1077 -0.1920  0.4032
    1WF      WF66707  16.177  29.685   1.288 -0.1384  0.1979  0.1086
    1WF      WF66708  24.931   0.769   1.616  0.1594  0.3078  0.0515
    1WF      WF66709  15.895  12.640   8.360  0.1716  0.0425 -0.0117
    1WF      WF66710  17.032   2.511   2.413 -0.1077  0.1706 -0.1615
    1WF      WF66711  14.105   4.957   0.517 -0.0700 -0.1016  0.3076
    1WF      WF66712  17.065   6.310   2.200 -0.1437 -0.1548 -0.1676
    1WF      WF66713  17.574  20.732   0.852 -0.3741 -0.1235  0.4815
    1WF      WF66714  15.168  12.953   7.956 -0.3516  0.1680 -0.0057
    1WF      WF66715   8.593   8.521   1.815  0.1427  0.0887  0.3283
    1WF      WF66716   6.821   2.483   2.481  0.1585 -0.0897 -0.3560
    1WF      WF66717   2.303  25.144   8.013 -0.3346 -0.2838  0.3182
    1WF      WF66718  18.182   4.402   1.245  0.1813  0.3359 -0.2016
    1WF      WF66719   1.243  28.687   0.335 -0.0378  0.3698 -0.0061
    1WF      WF66720  13.045   1.432   2.173 -0.1190 -0.2793  0.3015
    1WF      WF66721  10.675  26.901   8.772  0.1954  0.0973  0.2555
    1WF      WF66722  14.275  19.674   8.225  0.1329  0.0298  0.1180
    1WF      WF66723   4.880  25.704   9.414 -0.0638 -0.2447 -0.3499
    1WF      WF66724  12.940  10.156   8.182  0.2014  0.2062 -0.2158
    1WF      WF66725  18.310  11.638   9.323 -0.1580 -0.0370 -0.1235
    1WF      WF66726  16.847  26.262   9.094  0.0182  0.3128 -0.1330
    1WF      WF66727  29.583  26.216   7.334 -0.0134 -0.2856 -0.0016
    1WF      WF66728   6.748   2.854   8.834  0.1261  0.2012  0.0618
    1WF      WF66729   0.413   9.003   8.850 -0.2262 -0.2439 -0.1827
    1WF      WF66730  25.996   2.281   7.772 -0.2449  0.0092 -0.1218
    1WF      WF66731   2.400  21.586   6.897 -0.0986  0.1433  0.0989
    1WF      WF66732  28.592   0.693   2.306  0.1861 -0.2537  0.4208
    1WF      WF66733  16.931  29.283   0.852  0.1333 -0.0517  0.1797
    1WF      WF66734  22.540  22.486   6.718  0.1361 -0.2823  0.2826
    1WF      WF66735  20.965  20.915   1.545 -0.0530  0.2500 -0.1294
    1WF      WF66736   1.042   0.611   9.212  0.3572  0.0987  0.1134
    1WF      WF66737  18.870  24.819   8.665 -0.0222 -0.2078 -0.3649
    1WF      WF66738  11.760   8.177   0.845 -0.2883 -0.3700 -0.3360
    1WF      WF66739   1.532   6.854   0.994 -0.1229 -0.1521  0.0291
    1WF      WF66740  14.280   9.483   1.756 -0.1415 -0.1325 -0.0485
    1WF      WF66741  18.437  20.732   8.894 -0.0543  0.0235  0.0176
    1WF      WF66742  28.924  24.905   8.048  0.2816  0.0289  0.1369
    1WF      WF66743   0.881   8.167   8.155  0.1583 -0.0180  0.0478
    1WF      WF66744  26.937   5.883   9.219  0.2208 -0.2466  0.0804
    1WF      WF66745  12.672  22.426   0.673  0.2396 -0.3692 -0.1217
    1WF      WF66746  27.729  16.833   8.163 -0.0233  0.1070 -0.1710
    1WF      WF66747   2.576   7.875   7.070 -0.2051  0.2610  0.0811
    1WF      WF66748  14.416  11.166   1.426  0.1418 -0.0058  0.1727
    1WF      WF66749   1.786   8.206   6.903  0.4171  0.1209  0.1021
    1WF      WF66750  13.278  28.762   1.816 -0.0820  0.1308 -0.0382
    1WF      WF66751   2.274  25.845   7.787 -0.1518 -0.0783  0.0641
    1WF      WF66752  15.238  12.832   0.998 -0.1318 -0.3096 -0.2772
    1WF      WF66753  11.127  21.002   7.935 -0.1426  0.1066 -0.1043
    1WF      WF66754  16.637   1.673   3.424 -0.0956 -0.1252  0.2354
    1WF      WF66755   4.250  23.274   8.538  0.3386 -0.0003  0.0514
    1WF      WF66756  29.271  28.829   6.603 -0.0013 -0.1078 -0.0093
    1WF      WF66757  12.049  21.919   7.299 -0.2675  0.3137  0.4179
    1WF      WF66758  17.780  27.547   8.740 -0.4131  0.0726 -0.1084
    1WF      WF66759   4.798   6.793   2.091  0.0596 -0.1447 -0.2296
    1WF      WF66760  20.958  20.358   8.931 -0.0199  0.0247  0.0308
    1WF      WF66761  26.514  19.794   0.094 -0.2302 -0.0741  0.0256
    1WF      WF66762   2.864  13.856   8.371  0.2064  0.3858 -0.1898
    1WF      WF66763  17.182  25.990   1.493 -0.0738  0.0588 -0.0073
    1WF      WF66764  22.976  14.407   6.631 -0.0136 -0.0708 -0.3613
    1WF      WF66765  15.139  22.398   0.129  0.0051  0.0611 -0.1249
    1WF      WF66766  16.012  22.377   8.054 -0.5546 -0.0153  0.1584
    1WF      WF66767  14.693  24.187   1.091  0.0313 -0.0089 -0.1042
    1WF      WF66768   9.371  10.415   7.127  0.2637 -0.2353 -0.0314
    1WF      WF66769  10.764   7.548   0.185 -0.0153 -0.1750  0.2594
    1WF      WF66770  17.860   1.882   7.919  0.0203 -0.1730  0.0428
    1WF      WF66771  18.672   1.221   3.098  0.1082 -0.1895  0.0192
    1WF      WF66772  17.289  16.598   0.998 -0.0622 -0.2649 -0.0468
    1WF      WF66773  14.139   5.036   1.037  0.1728  0.0975  0.1157
    1WF      WF66774   2.263  24.731   7.098 -0.2418  0.1267  0.4455
    1WF      WF66775   9.458  20.080   1.667  0.1540 -0.2316  0.0587
    1WF      WF66776  12.918  10.471   9.290  0.3787  0.2942 -0.1391
    1WF      WF66777  27.682  15.088   9.244 -0.1195 -0.0640  0.1443
    1WF      WF66778  17.784  13.175   0.674  0.1270 -0.0491 -0.1349
    1WF      WF66779  20.131  21.591   0.103  0.1625  0.3473  0.1439
    1WF      WF66780  29.405   8.096   1.278 -0.2349 -0.0652 -0.1750
    1WF      WF66781   3.837  23.740   8.470  0.2992 -0.0858 -0.0487
    1WF      WF66782  15.349  29.077   1.321 -0.0282 -0.1019 -0.2297
    1WF      WF66783   9.147   3.331   2.466 -0.0556 -0.1226  0.2813
    1WF      WF66784  21.877   4.014   1.804 -0.1374  0.1173  0.1574
    1WF      WF66785   1.485  25.935   1.326  0.1031  0.3501  0.0227
    1WF      WF66786  22.837  24.413   8.950  0.0654 -0.0788 -0.1901
    1WF      WF66787  28.755   8.293   1.194 -0.1675  0.4502 -0.2790
    1WF      WF66788  29.892   7.409   1.697 -0.1707 -0.1024 -0.0072
    1WF      WF66789  26.241  26.691   1.806  0.1450 -0.1439  0.0101
    1WF      WF66790  24.157   0.464   2.463  0.2172 -0.0951  0.1556
    1WF      WF66791  19.152  19.585   8.828 -0.0592  0.1518 -0.2390
    1WF      WF66792  18.861  23.561   8.165  0.0262 -0.1411 -0.0161
    1WF      WF66793   1.299  16.204   8.701  0.3719  0.2633 -0.0583
    1WF      WF66794  25.009  29.000   1.413 -0.1252 -0.1720  0.0155
    1WF      WF66795  13.280  19.983   8.110 -0.0972  0.1573 -0.3648
    1WF      WF66796  11.669   8.697   0.995 -0.1432 -0.0871  0.3076
    1WF      WF66797  26.574   0.297   7.541 -0.0595 -0.1112 -0.0690
    1WF      WF66798  14.196   6.826   8.876  0.2179  0.2020  0.1403
    1WF      WF66799  17.732  26.070   3.579 -0.1980  0.1935  0.1464
    1WF      WF66800   3.417   2.164   0.933 -0.1986  0.2465 -0.2331
    1WF      WF66801   4.369  15.825   1.043  0.1133 -0.0155 -0.0847
    1WF      WF66802   3.125  13.331   8.638 -0.1156 -0.0741  0.1875
    1WF      WF66803  13.380  19.610   1.313  0.0203  0.0451 -0.0627
    1WF      WF66804   4.787   7.850   8.226  0.0490 -0.1771  0.0456
    1WF      WF66805  12.011  17.739   0.346  0.1180 -0.0659  0.1047
    1WF      WF66806   2.442  13.229   9.157 -0.1623 -0.4354  0.3760
    1WF      WF66807  25.791  21.403   1.001  0.1107  0.0229 -0.0923
    1WF      WF66808  26.301  28.093   7.701 -0.2078  0.2471 -0.2271
    1WF      WF66809  22.215   7.750   0.693  0.1192 -0.2401  0.2070
    1WF      WF66810   3.216   7.836   0.758 -0.0598  0.0165  0.1258
    1WF      WF66811  20.123  19.742   0.315 -0.0138 -0.0964 -0.0377
    1WF      WF66812  17.184  22.483   2.755  0.1326  0.1426 -0.2049
    1WF      WF66813  23.925   9.014   9.400 -0.0527 -0.0211  0.0120
    1WF      WF66814   5.959   9.778   3.362 -0.2122 -0.1271 -0.0447
    1WF      WF66815  23.665  19.884   8.836 -0.0720  0.5298 -0.0049
    1WF      WF66816  13.892  12.888   8.307  0.1150 -0.2253  0.2342
    1WF      WF66817  29.838  13.735   6.974 -0.2157  0.0153  0.1301
    1WF      WF66818  15.439   7.047   7.344  0.2665 -0.0211  0.0017
    1WF      WF66819   8.522  23.655   0.591  0.0530 -0.0812  0.3055
    1WF      WF66820  15.192   8.334   8.809 -0.1233  0.1471 -0.0598
    1WF      WF66821  27.514   9.271   1.238  0.1539  0.3746  0.1967
    1WF      WF66822   6.611   5.715   0.827  0.1083  0.1680  0.0130
    1WF      WF66823  10.442  24.672   9.257 -0.1479  0.2230  0.0216
    1WF      WF66824  17.051  13.130   9.424 -0.0917  0.0969 -0.0833
    1WF      WF66825  14.808   1.774   1.173  0.0033 -0.2299 -0.0497
    1WF      WF66826   4.321   5.894   8.973 -0.1123  0.1765 -0.0508
    1WF      WF66827  23.045  23.047   0.707 -0.0732 -0.0022  0.1390
    1WF      WF66828  27.397  18.969   8.391  0.1614 -0.3118 -0.1879
    1WF      WF66829  20.986  19.793   0.986 -0.0346 -0.0368  0.1107
    1WF      WF66830  12.243   3.361   8.834 -0.0248 -0.0507 -0.1213
    1WF      WF66831   3.249   9.696   9.254 -0.0992  0.1124  0.0513
    1WF      WF66832   3.757   9.583   7.490  0.3179 -0.1097  0.0231
    1WF      WF66833  14.433  23.990   2.930 -0.1821 -0.1485 -0.3392
    1WF      WF66834   4.349  19.089   9.396 -0.2591  0.2443 -0.0959
    1WF      WF66835  26.241  27.265   1.845  0.0893 -0.2342  0.1189
    1WF      WF66836   4.793  19.267   0.076 -0.3617  0.1378  0.1528
    1WF      WF66837  23.188  28.562   9.211 -0.0912 -0.1684 -0.1718
    1WF      WF66838   2.838   9.029   9.136 -0.4021  0.0856 -0.0934
    1WF      WF66839   4.121  18.164   0.195 -0.0240  0.0833  0.2941
    1WF      WF66840  27.641  22.587   1.471 -0.0791  0.0925 -0.2105
    1WF      WF66841  12.586  29.781   1.604  0.1728  0.0337 -0.0266
    1WF      WF66842   0.508  20.563   8.762 -0.1570  0.1379 -0.1798
    1WF      WF66843  16.072   7.239   1.327  0.0593  0.1911 -0.1549
    1WF      WF66844  23.112  13.565   1.269  0.4421  0.0036  0.0458
    1WF      WF66845  23.695  26.628   7.439  0.1110 -0.0889 -0.0736
    1WF      WF66846   6.796  23.749   0.366 -0.0448 -0.3198 -0.1004
    1WF      WF66847  27.351  29.298   0.293  0.1363  0.0728 -0.1521
    1WF      WF66848  13.661  14.451   8.930  0.1141 -0.2815 -0.0047
    1WF      WF66849  20.454  22.948   7.526  0.0094 -0.0371  0.0796
    1WF      WF66850  19.778   9.953   0.355 -0.3563  0.0808 -0.0735
    1WF      WF66851  12.650   5.847   2.468 -0.0475 -0.2304 -0.1257
    1WF      WF66852  13.385  22.277   0.352 -0.0765 -0.0194  0.0799
    1WF      WF66853  14.207  20.630   8.125 -0.2161  0.0425  0.1370
    1WF      WF66854   5.775  19.304   0.283  0.0293  0.2526 -0.2219
    1WF      WF66855  14.924   3.366   1.376 -0.2862 -0.2025  0.0955
    1WF      WF66856   6.115  19.305   8.782  0.0357  0.0635  0.1629
    1WF      WF66857   0.641   8.575   1.763  0.0184  0.0298 -0.1157
    1WF      WF66858  29.010  12.954   7.439  0.3855 -0.0707 -0.2240
    1WF      WF66859  28.477   7.294   0.327 -0.0466 -0.0397 -0.2213
    1WF      WF66860  13.453   7.751   0.059 -0.2815 -0.1929 -0.1464
    1WF      WF66861  26.339  10.130   7.173 -0.3479 -0.0420 -0.4276
    1WF      WF66862  25.786  15.242   0.416 -0.1136 -0.0405 -0.2040
    1WF      WF66863   8.659  28.694   1.064  0.1482 -0.2060  0.2148
    1WF      WF66864  29.861  14.181   7.833  0.0947 -0.0234  0.0621
    1WF      WF66865   7.674  15.949   8.108 -0.2284  0.1191 -0.2755
    1WF      WF66866  23.083   7.492   1.568  0.0834 -0.1694 -0.3621
    1WF      WF66867  19.816  21.070   7.594 -0.1658  0.1045 -0.4050
    1WF      WF66868  12.199  23.999   2.208 -0.1092 -0.0101  0.3659
    1WF      WF66869  27.195  20.383   1.701 -0.2514  0.0814  0.1404
    1WF      WF66870   1.194  27.736   1.176 -0.3700 -0.1488  0.2459
    1WF      WF66871   3.923   7.387   2.125  0.0856  0.0323  0.0900
    1WF      WF66872  22.068   1.660   3.330  0.0423 -0.0231  0.1590
    1WF      WF66873  15.917   7.322   0.828  0.1088 -0.1251  0.0668
    1WF      WF66874  20.063  24.908   1.961  0.1612  0.0125  0.1304
    1WF      WF66875   7.802   6.620   8.046  0.0126 -0.0408  0.1556
    1WF      WF66876  26.542   3.054   8.044  0.2096 -0.2124  0.1995
    1WF      WF66877   3.754  15.941   7.178 -0.1588  0.0348 -0.0209
    1WF      WF66878  16.190   1.945   9.011  0.0469 -0.2169 -0.0508
    1WF      WF66879  23.975  19.911   8.146 -0.2380  0.3338 -0.1844
    1WF      WF66880  18.321  17.824   7.953  0.2242  0.1814 -0.3995
    1WF      WF66881  10.932  17.463   9.466  0.3163 -0.0542  0.0200
    1WF      WF66882  23.246  19.252   1.355 -0.0078 -0.0178 -0.0612
    1WF      WF66883   3.845   6.393   1.371  0.0564 -0.0427  0.1057
    1WF      WF66884   3.754  19.883   8.701 -0.0641  0.0962  0.0593
    1WF      WF66885   7.102  28.955   7.519  0.0008  0.1119 -0.2291
    1WF      WF66886   7.301  29.893   1.964 -0.1288 -0.3045  0.0846
    1WF      WF66887   8.811  23.000   9.041  0.1823  0.3046  0.2458
    1WF      WF66888   6.454  23.266   6.860 -0.1972 -0.0605 -0.2196
    1WF      WF66889  10.508  10.463   8.684  0.1295  0.0044  0.2088
    1WF      WF66890  26.711  12.008   8.199 -0.0498  0.3226  0.1203
    1WF      WF66891   6.214  13.272   8.531 -0.1274 -0.1180 -0.0993
    1WF      WF66892  10.211   5.677   9.359  0.1797  0.0166  0.0492
    1WF      WF66893  19.628  29.896   2.985 -0.0598  0.0187 -0.2463
    1WF      WF66894   5.326   4.840   8.744  0.0627 -0.1316 -0.1826
    1WF      WF66895  13.084  27.625   7.249 -0.0435 -0.0221 -0.1606
    1WF      WF66896  18.587  23.647   7.671 -0.0523  0.1105 -0.0574
    1WF      WF66897   9.877  11.503   8.306  0.0235  0.0328  0.1092
    1WF      WF66898  16.343   1.739   6.617  0.1665  0.1721 -0.1550
    1WF      WF66899   1.953  15.719   0.789  0.0266  0.0946 -0.3081
    1WF      WF66900  13.030   2.833   0.762  0.2401  0.1462  0.1082
    1WF      WF66901  13.770   9.202   8.339 -0.3197 -0.2995  0.1801
    1WF      WF66902   3.325   8.070   0.305  0.2789  0.0076 -0.0528
    1WF      WF66903  18.460   6.529   8.460  0.0773 -0.1448 -0.0895
    1WF      WF66904  19.768   5.474   1.273 -0.1038 -0.3334 -0.0188
    1WF      WF66905   3.717  18.044   2.548 -0.0607 -0.0742  0.0061
    1WF      WF66906  16.871  10.581   8.262  0.1345  0.0220  0.3336
    1WF      WF66907   6.305  24.471   6.922 -0.0348  0.3357  0.1372
    1WF      WF66908  13.069   3.334   1.763 -0.0785 -0.0619  0.1337
    1WF      WF66909  13.764  29.116   9.045  0.0273 -0.1416  0.2271
    1WF      WF66910  21.279   5.837   7.769  0.0396 -0.3465 -0.0757
    1WF      WF66911  10.702   4.209   8.967  0.0344 -0.0095  0.1118
    1WF      WF66912   2.852   7.556   0.858 -0.0284 -0.0115 -0.0097
    1WF      WF66913  23.857  26.134   7.625  0.1025  0.0241 -0.1947
    1WF      WF66914   4.070   0.144   6.817  0.2178  0.1033  0.0159
    1WF      WF66915  26.921  20.346   2.150 -0.3270 -0.1340 -0.1549
    1WF      WF66916  22.577   7.338   0.681  0.6182  0.0220  0.0466
    1WF      WF66917  10.604  23.496   8.016 -0.1184 -0.1677  0.1163
    1WF      WF66918  13.849  28.630   8.775 -0.2551 -0.3088 -0.3794
    1WF      WF66919  21.008  22.443   1.355  0.1118  0.0599 -0.1277
    1WF      WF66920   6.882  14.572   7.820 -0.1573 -0.2695  0.0888
    1WF      WF66921   9.512  23.896   0.716  0.0479  0.0506  0.2430
    1WF      WF66922  26.785  17.549   1.396 -0.2964 -0.3197  0.2159
    1WF      WF66923  16.697  23.072   1.277  0.1834  0.1167  0.1142
    1WF      WF66924   9.252  13.383   6.986 -0.1187  0.2558  0.1986
    1WF      WF66925   2.130  26.254   7.055 -0.1506  0.4115 -0.0636
    1WF      WF66926  28.386  29.111   8.419 -0.4293  0.0185  0.0443
    1WF      WF66927  10.429  10.027   0.145 -0.1389 -0.1238  0.1285
    1WF      WF66928  15.101  16.416   2.257 -0.0511  0.2774 -0.2577
    1WF      WF66929  26.863  29.109   0.254  0.1408 -0.0387 -0.4700
    1WF      WF66930  15.679  10.670   1.260 -0.0023 -0.0783 -0.0897
    1WF      WF66931  24.154  17.028   0.335  0.1837 -0.0961  0.3378
    1WF      WF66932  23.433   6.429   7.409  0.0121  0.1327  0.1736
    1WF      WF66933  26.198  22.507   1.349 -0.0247 -0.0999  0.2452
    1WF      WF66934  22.808  19.322   1.144  0.2010  0.0109  0.0458
    1WF      WF66935  11.748  28.566   0.695  0.2234 -0.2086  0.0615
    1WF      WF66936   5.849   7.345   9.211 -0.1316  0.0944  0.1920
    1WF      WF66937   1.830  18.573   8.952  0.2959 -0.1413  0.0902
    1WF      WF66938   2.030  18.721   8.178 -0.0434 -0.4259  0.0636
    1WF      WF66939  12.401   0.388   8.489 -0.3656 -0.5329 -0.0178
    1WF      WF66940   5.323   4.705   0.336  0.0522 -0.3000 -0.0672
    1WF      WF66941   0.433  13.836   9.411  0.0467 -0.0000  0.2266
    1WF      WF66942  25.444  24.817   0.508 -0.1834  0.0846  0.1554
    1WF      WF66943   7.890   0.069   7.344  0.1644  0.0797  0.0613
    1WF      WF66944   8.980  12.465   9.364 -0.1221  0.0722 -0.0661
    1WF      WF66945   9.394  29.334   2.233  0.1433  0.1008 -0.5541
    1WF      WF66946  13.189  19.489   0.087 -0.0403  0.4298 -0.0063
    1WF      WF66947  26.608  22.528   7.729  0.4294 -0.1954 -0.0481
    1WF      WF66948   9.741  19.248   2.537 -0.3352  0.0451  0.2484
    1WF      WF66949  23.445  28.672   8.787 -0.0558  0.3380 -0.1856
    1WF      WF66950  20.798   4.086   0.795 -0.0794  0.1395 -0.0904
    1WF      WF66951   3.440  12.208   7.527 -0.0241  0.3158  0.1424
    1WF      WF66952  29.628  20.128   1.391  0.0878  0.0117 -0.1919
    1WF      WF66953  26.422  20.243   9.340  0.1592  0.2343  0.0283
    1WF      WF66954   7.271  22.889   7.284  0.0740  0.1541  0.1017
    1WF      WF66955  13.049   0.009   1.729 -0.1291 -0.1799  0.2587
    1WF      WF66956  23.080  25.559   7.394  0.1825  0.0952 -0.1868
    1WF      WF66957  19.532   8.434   8.233 -0.0562  0.2323  0.1311
    1WF      WF66958  10.324   1.840   2.125 -0.1176 -0.3714  0.0132
    1WF      WF66959  19.600  15.753   7.570  0.3464  0.0874  0.0864
    1WF      WF66960  18.232   5.541   3.216  0.1075  0.0461  0.0900
    1WF      WF66961   3.516  25.421   9.188 -0.0022 -0.0068  0.1730
    1WF      WF66962  11.442  20.705   7.570 -0.1517  0.0155 -0.1565
    1WF      WF66963   4.565   1.612   2.718 -0.1307  0.3523  0.1108
    1WF      WF66964  15.899  12.437   8.826 -0.0470  0.0377  0.0810
    1WF      WF66965  20.287  15.113   0.083  0.0137  0.1066  0.0773
    1WF      WF66966   1.573  18.612   8.508  0.0827  0.0308  0.1699
    1WF      WF66967  15.327  29.423   8.156 -0.3613  0.0972 -0.0799
    1WF      WF66968  20.842   7.466   6.379  0.1934  0.2827  0.3182
    1WF      WF66969  23.404  10.300   8.253 -0.0339 -0.0844  0.1712
    1WF      WF66970  10.142   3.469   2.787  0.4062  0.1050  0.1417
    1WF      WF66971  11.375  14.542   0.584  0.1585 -0.2906 -0.0141
    1WF      WF66972   4.067   7.900   2.007 -0.1250  0.0235  0.1832
    1WF      WF66973   8.578   0.763   8.197  0.0624  0.0978 -0.1741
    1WF      WF66974  21.606  13.535   8.925  0.0914 -0.0115  0.1660
    1WF      WF66975  20.143  20.932   7.274 -0.0027 -0.1493  0.0987
    1WF      WF66976   0.383  13.592   2.004  0.3406  0.1778 -0.2029
    1WF      WF66977  26.231  15.398   0.264 -0.0172 -0.0299 -0.1867
    1WF      WF66978  28.575  15.592   8.738 -0.1199 -0.0004 -0.1939
    1WF      WF66979  23.352  26.614   0.724 -0.0573  0.0961  0.0399
    1WF      WF66980  26.495   0.609   7.959 -0.0702 -0.2383  0.1575
    1WF      WF66981  28.398   2.523   1.239 -0.0292  0.0196 -0.0441
    1WF      WF66982  26.031  15.784   9.436  0.1677  0.1934  0.1057
    1WF      WF66983  23.125   2.155   7.318 -0.1549 -0.1362 -0.2593
    1WF      WF66984  18.672   8.981   9.082  0.2114  0.2951 -0.0229
    1WF      WF66985  28.687   0.864   0.819 -0.1080 -0.5705  0.1419
    1WF      WF66986  14.404  25.396   1.634 -0.0556  0.1830  0.0816
    1WF      WF66987  20.717  28.250   7.624  0.0719  0.2508  0.0058
    1WF      WF66988  19.758  26.387   0.338 -0.1106 -0.1266 -0.1098
    1WF      WF66989   0.791   4.089   0.150  0.2714 -0.2553  0.1704
    1WF      WF66990   2.664   3.163   7.618  0.0727  0.0781  0.3009
    1WF      WF66991   5.878  13.094   8.801 -0.1433 -0.0475  0.0579
    1WF      WF66992   6.912   4.324   0.910  0.1246  0.1158 -0.2191
    1WF      WF66993  10.633  24.659   0.656 -0.0114  0.0928 -0.1134
    1WF      WF66994   4.859  23.358   8.413  0.2444  0.0163 -0.2841
    1WF      WF66995   3.084  12.566   7.246  0.3363  0.1909  0.0120
    1WF      WF66996  15.687  10.177   8.313  0.2040 -0.3052 -0.0175
    1WF      WF66997  23.381  19.532   9.004 -0.0125  0.0868 -0.1128
    1WF      WF66998  25.633  17.774   7.622  0.2658  0.3429 -0.2980
    1WF      WF66999   3.247  16.857   9.086 -0.0625 -0.1645  0.1250
    1WF      WF67000  20.036   0.307   8.287  0.2471 -0.0930  0.3679
    1WF      WF67001   6.995  12.635   7.948  0.1346 -0.0238  0.0020
    1WF      WF67002   4.850   5.300   9.330  0.0796  0.1488 -0.0541
    1WF      WF67003   2.361  22.977   2.249  0.0500  0.1112  0.4724
    1WF      WF67004  27.076  13.810   9.043 -0.0435 -0.0901 -0.1469
    1WF      WF67005  27.787  29.464   0.328  0.1894 -0.1276  0.1165
    1WF      WF67006   3.225  11.808   8.775  0.0345 -0.1922  0.2293
    1WF      WF67007  25.785  19.474   7.393 -0.1417  0.0500  0.0249
    1WF      WF67008   6.516  11.846   7.770  0.0196  0.0758  0.1871
    1WF      WF67009  18.331  21.955   1.629  0.1024  0.0790 -0.0945
    1WF      WF67010  24.428  20.251   8.118 -0.0458  0.1416 -0.0122
    1WF      WF67011   2.951   2.861   8.961  0.1423 -0.3128  0.0592
    1WF      WF67012  14.162  20.193   8.379 -0.1232 -0.1699 -0.1525
    1WF      WF67013  10.279  16.594   8.380  0.1541 -0.0584 -0.0333
    1WF      WF67014  11.865   9.500   9.384 -0.1598  0.0428 -0.1611
    1WF      WF67015   5.496  24.178   0.024 -0.4666 -0.0283 -0.0642
    1WF      WF67016  16.414   6.552   7.996 -0.2093  0.1945  0.0339
    1WF      WF67017   9.407  14.973   8.770 -0.0685 -0.5974  0.1055
    1WF      WF67018  28.106   5.479   8.139 -0.0642 -0.2479  0.1541
    1WF      WF67019  12.848  28.405   2.146 -0.1314  0.0475  0.2063
    1WF      WF67020   7.345   6.621   0.444  0.2731  0.1236  0.2775
    1WF      WF67021   4.171  28.491   7.576 -0.0534  0.2469 -0.0387
    1WF      WF67022  18.908   1.877   0.172 -0.2182  0.1186  0.0090
    1WF      WF67023   3.104   5.422   1.601  0.2380 -0.3372  0.0126
    1WF      WF67024  20.472   7.709   0.948 -0.1990 -0.0912  0.1618
    1WF      WF67025  11.709   0.610   9.113  0.1285 -0.1948 -0.1197
    1WF      WF67026   8.128   0.453   8.407  0.1135 -0.1602  0.2653
    1WF      WF67027   6.457  22.885   7.192  0.0985 -0.0392 -0.0819
    1WF      WF67028   1.527  11.822   8.856 -0.2730  0.2016  0.0659
    1WF      WF67029   4.408  28.027   7.680 -0.0696  0.2084 -0.0908
    1WF      WF67030  21.098  26.202   3.166 -0.0138 -0.0542 -0.0526
    1WF      WF67031  28.099  16.578   7.213  0.0893 -0.0520 -0.1372
    1WF      WF67032  10.150   4.506   3.421  0.0509 -0.3119 -0.0165
    1WF      WF67033  24.973  17.471   2.639 -0.1437  0.0936 -0.2389
    1WF      WF67034  24.160  14.088   0.408  0.1601 -0.0745  0.0337
    1WF      WF67035   2.645  20.142   1.000  0.0615  0.0943  0.1567
    1WF      WF67036   0.845   1.882   8.946 -0.0894  0.2677 -0.1663
    1WF      WF67037   6.376  15.642   6.105  0.0035  0.2125 -0.0238
    1WF      WF67038  21.920   3.334   1.149 -0.3005 -0.3433 -0.1055
    1WF      WF67039  16.457  17.066   1.010  0.0804 -0.2249 -0.2119
    1WF      WF67040  14.889   8.126   6.818 -0.0351  0.0234  0.1309
    1WF      WF67041  23.257   2.138   0.989 -0.0731  0.1735 -0.2601
    1WF      WF67042  28.950  12.764   8.705  0.0165  0.2475  0.2814
    1WF      WF67043  19.815   5.707   9.308 -0.2200  0.2412  0.1327
    1WF      WF67044  14.011  16.627   1.152 -0.4298  0.0793  0.0110
    1WF      WF67045  12.396  10.949   8.593 -0.1269  0.3017 -0.0794
    1WF      WF67046  28.867  17.083   1.072 -0.2931 -0.2989 -0.0343
    1WF      WF67047   7.750  11.869   1.450 -0.2099 -0.0427 -0.0505
    1WF      WF67048   2.877   8.113   1.084 -0.3608 -0.1613 -0.1729
    1WF      WF67049   9.783  19.683   1.718  0.2877 -0.0731  0.2589
    1WF      WF67050   1.570  20.161   7.068 -0.4398 -0.1339 -0.2381
    1WF      WF67051  13.629  24.360   6.632  0.0604 -0.1063 -0.0674
    1WF      WF67052  19.013  17.918   0.268 -0.3012 -0.1697  0.2413
    1WF      WF67053   4.822   9.985   8.010 -0.1218 -0.1176 -0.0734
    1WF      WF67054   1.794  10.512   8.424  0.3974  0.1221  0.0993
    1WF      WF67055  20.685  19.923   8.865  0.2179 -0.3167  0.3527
    1WF      WF67056  18.912  15.419   7.891  0.1187  0.1225  0.0322
    1WF      WF67057  16.666  28.742   8.031 -0.2127  0.0821  0.1688
    1WF      WF67058   1.028   8.399   1.117  0.3721  0.0523  0.2788
    1WF      WF67059  20.767  28.052   1.568  0.1982  0.2042  0.0176
    1WF      WF67060  23.611   0.403   0.579 -0.1718 -0.0508 -0.1151
    1WF      WF67061  10.628  10.521   0.079  0.0953  0.0082 -0.3261
    1WF      WF67062  21.519   8.774   8.767 -0.1623  0.0633 -0.2850
    1WF      WF67063  12.495  18.366   1.087 -0.0375  0.0661  0.0647
    1WF      WF67064   2.946   2.209   1.048 -0.2891  0.1233  0.2720
    1WF      WF67065   8.848   1.681   2.006 -0.2907  0.0186  0.0935
    1WF      WF67066   3.367   0.073   3.143  0.4452 -0.0262 -0.2947
    1WF      WF67067  10.161  14.957   8.145  0.0410 -0.1039  0.4459
    1WF      WF67068  17.912  16.585   9.020 -0.0511 -0.0760 -0.0657
    1WF      WF67069   0.908  10.340   1.498  0.4667 -0.1135 -0.0841
    1WF      WF67070   1.384  22.265   8.219 -0.1489 -0.1725  0.0485
    1WF      WF67071   3.378   5.338   9.328  0.0953  0.1617 -0.0014
    1WF      WF67072  12.544  19.295   7.679 -0.0292 -0.0001  0.0817
    1WF      WF67073  15.618  27.743   0.432  0.2628 -0.0974 -0.2243
    1WF      WF67074  20.618  24.320   1.682  0.2819 -0.2269  0.2273
    1WF      WF67075  10.725  21.360   7.753 -0.1940  0.1857  0.1736
    1WF      WF67076  17.404   1.909   7.739  0.1137  0.0604  0.1852
    1WF      WF67077  13.576  26.847   1.282  0.0660 -0.0483  0.0784
    1WF      WF67078  18.984  26.150   9.143 -0.2778  0.0235 -0.1087
    1WF      WF67079  18.088   4.105   5.831  0.0420  0.0745  0.0382
    1WF      WF67080  12.073  19.108   7.568  0.1569 -0.0193 -0.2430
    1WF      WF67081  25.485   7.126   9.346  0.0770 -0.1616 -0.2738
    1WF      WF67082  10.257  26.883   1.367  0.0726 -0.0103  0.0977
    1WF      WF67083   7.811  16.316   0.437 -0.1074  0.1921 -0.1772
    1WF      WF67084  12.600   3.781   0.153 -0.0981 -0.0177  0.0714
    1WF      WF67085  28.950  25.887   0.921 -0.2614 -0.3061 -0.0008
    1WF      WF67086   7.533  13.735   8.819 -0.0505  0.3373 -0.0477
    1WF      WF67087   9.474  20.527   2.557 -0.2278 -0.2185 -0.1692
    1WF      WF67088   9.168  28.859   1.009 -0.0875  0.4786 -0.0053
    1WF      WF67089  19.914  16.803   0.645  0.2260  0.2782  0.0121
    1WF      WF67090  16.919  29.324   1.385  0.3219 -0.0797  0.0341
    1WF      WF67091  10.540  22.664   0.901 -0.0681  0.1846  0.1193
    1WF      WF67092  15.561   1.178   1.003  0.2593 -0.1389 -0.0056
    1WF      WF67093   2.124  19.291   8.198  0.1183 -0.1925 -0.0068
    1WF      WF67094  18.267   3.564   7.363 -0.1671  0.2097  0.1931
    1WF      WF67095  18.617  23.167   0.008  0.0054 -0.1265 -0.2013
    1WF      WF67096  22.639  17.941   0.088 -0.1780 -0.0793 -0.3557
    1WF      WF67097  21.438   1.586   8.491  0.0846 -0.2023  0.0585
    1WF      WF67098  29.694  18.135   8.409  0.0815 -0.0305  0.1909
    1WF      WF67099  24.598  13.791   8.096 -0.2896  0.0623  0.1325
    1WF      WF67100   8.316  13.311   9.136 -0.1019  0.0101  0.1055
    1WF      WF67101  23.860  25.806   0.781 -0.1499 -0.3573 -0.2594
    1WF      WF67102  23.355   1.613   8.094  0.0785 -0.0607 -0.0957
    1WF      WF67103  25.424  27.309   3.310  0.3086  0.0026  0.0559
    1WF      WF67104  16.447   1.294   0.731  0.1218  0.0988 -0.3462
    1WF      WF67105  17.713   1.331   8.288 -0.2796 -0.0950  0.1651
    1WF      WF67106  11.306  29.349   8.749 -0.5036 -0.2597  0.0984
    1WF      WF67107   5.179   5.825   8.609  0.0195  0.0180  0.1914
    1WF      WF67108  21.108   4.994   1.412  0.1189  0.0286  0.1700
    1WF      WF67109   8.408   1.528   2.155  0.1162 -0.1676 -0.0254
    1WF      WF67110  13.824  19.897   8.208 -0.2261  0.0779  0.0139
    1WF      WF67111   5.454  15.854   0.946  0.1245  0.1994  0.0475
    1WF      WF67112  15.959   8.603   7.618  0.3026  0.0857 -0.1050
    1WF      WF67113  26.817   0.977   7.974  0.1379  0.1953 -0.0171
    1WF      WF67114   4.304  19.453   8.923 -0.0271 -0.0435  0.3047
    1WF      WF67115   3.934  12.877   0.061  0.1113 -0.1444 -0.3187
    1WF      WF67116   2.371   4.356   9.157 -0.0028  0.1870  0.0493
    1WF      WF67117  29.155  17.517   1.629  0.0253 -0.1626 -0.2523
    1WF      WF67118  17.853  20.689   1.294  0.0282  0.0044 -0.3657
    1WF      WF67119  21.768  23.824   8.154 -0.0008  0.1050  0.2980
    1WF      WF67120  10.565  22.100   5.583 -0.1172 -0.0416 -0.1111
    1WF      WF67121   1.636  19.851   2.374  0.0642 -0.0498 -0.1488
    1WF      WF67122   0.096  14.429   1.082  0.1862  0.1507 -0.0259
    1WF      WF67123   9.900  10.746   1.912 -0.1066  0.0330  0.0176
    1WF      WF67124  22.153  13.971   6.134 -0.0300  0.0419 -0.0404
    1WF      WF67125  19.056   7.692   2.541 -0.2000 -0.0779 -0.1141
    1WF      WF67126  27.671  25.960   1.843 -0.0254 -0.0074 -0.3159
    1WF      WF67127   0.300   1.172   0.322 -0.0457  0.0058  0.0728
    1WF      WF67128   0.559   6.384   7.807 -0.2712  0.2051 -0.2605
    1WF      WF67129  18.449   6.428   8.947  0.1854 -0.1484 -0.0773
    1WF      WF67130   7.162  25.209   0.373  0.1282  0.3970  0.1042
    1WF      WF67131  15.648  20.296   1.291  0.0631 -0.0949  0.1428
    1WF      WF67132   7.339  24.473   1.395 -0.2606 -0.2356  0.1265
    1WF      WF67133   1.238  11.764   7.996  0.1925 -0.6118  0.0105
    1WF      WF67134  23.636  28.105   0.671 -0.1718  0.0249  0.1731
    1WF      WF67135   6.143   4.993   1.645  0.3548  0.0157  0.0504
    1WF      WF67136  14.096   7.087   8.336 -0.3927  0.2503 -0.0122
    1WF      WF67137   1.177   2.067   0.603  0.0811  0.1326 -0.1420
    1WF      WF67138   5.527  24.729   8.468 -0.1130 -0.2684 -0.0605
    1WF      WF67139  10.399  14.377   7.280 -0.4966  0.2397  0.1095
    1WF      WF67140   4.267  17.071   0.335 -0.2339 -0.0946  0.0252
    1WF      WF67141  18.277  14.365   0.655  0.1104  0.1365 -0.1400
    1WF      WF67142  22.875  18.688   8.625  0.1761  0.3557  0.1290
    1WF      WF67143  27.678  16.189   0.907 -0.0589  0.1712  0.2303
    1WF      WF67144  18.027  11.214   9.323 -0.2372 -0.0905 -0.0801
    1WF      WF67145  12.869  27.110   0.526 -0.1407 -0.1978 -0.0984
    1WF      WF67146  19.223  29.316   9.317 -0.3370 -0.0556  0.0853
    1WF      WF67147   5.273   9.982   8.392 -0.1089  0.1119  0.1243
    1WF      WF67148  26.406   3.014   0.709 -0.0114 -0.2833  0.3865
    1WF      WF67149  22.033  28.084   1.054 -0.0990  0.2083  0.2719
    1WF      WF67150   5.682   1.959   7.963  0.0986 -0.1752 -0.0364
    1WF      WF67151  15.373   0.131   0.037 -0.2043  0.2096  0.0476
    1WF      WF67152  22.657   9.190   1.477  0.2456  0.0183 -0.1654
    1WF      WF67153  24.292   5.080   0.066 -0.2210 -0.1841 -0.0484
    1WF      WF67154  16.599  29.456   8.531  0.2699 -0.0409  0.1702
    1WF      WF67155   0.356  18.668   9.239  0.0237  0.0121  0.0734
    1WF      WF67156   8.728   7.655   1.447  0.0171  0.0528 -0.1629
    1WF      WF67157  16.514  26.452   8.747  0.0866  0.0330 -0.1931
    1WF      WF67158  12.072   3.960   8.147 -0.2059  0.0413  0.0806
    1WF      WF67159  17.062  15.907   7.656 -0.3382 -0.0394  0.0140
    1WF      WF67160   3.845   7.009   7.087  0.3046 -0.1184  0.2903
    1WF      WF67161  26.376  21.300   8.700 -0.0050  0.2559  0.4652
    1WF      WF67162  23.304   8.428   6.816 -0.1865 -0.2570 -0.1281
    1WF      WF67163  12.042  19.246   9.320 -0.1350 -0.0206 -0.4482
    1WF      WF67164   7.063  20.983   9.251 -0.1389  0.0482  0.1045
    1WF      WF67165  20.689  27.699   6.447 -0.2831  0.1350 -0.1146
    1WF      WF67166  17.648  13.231   1.171  0.0786  0.1041 -0.1770
    1WF      WF67167   1.716  15.838   8.860 -0.2780 -0.2233  0.0792
    1WF      WF67168  18.299   1.688   8.062 -0.0424 -0.0748  0.2895
    1WF      WF67169  26.296  28.201   0.511 -0.0165 -0.2504  0.1279
    1WF      WF67170  12.462  27.530   8.246 -0.1212  0.1494 -0.1399
    1WF      WF67171  20.724  14.855   9.254 -0.0010 -0.0237  0.0229
    1WF      WF67172  23.027   9.908   8.235  0.0404  0.1197  0.0951
    1WF      WF67173  19.367   2.318   0.527  0.1147  0.0288  0.0080
    1WF      WF67174  24.342  16.608   2.322 -0.0459  0.1213 -0.0021
    1WF      WF67175   1.923  29.047   6.358  0.0378  0.3381 -0.3345
    1WF      WF67176  19.432  23.508   8.803 -0.1447  0.0889 -0.0517
    1WF      WF67177   6.720  13.633   5.936  0.0439  0.1713  0.2513
    1WF      WF67178  14.331  19.393   9.406  0.0043  0.2644  0.0488
    1WF      WF67179  16.992   0.204   3.573 -0.0064 -0.1540 -0.2160
    1WF      WF67180  20.572   7.361   8.370 -0.2424  0.0529 -0.3409
    1WF      WF67181  25.303  23.211   0.531  0.1753  0.0792 -0.0521
    1WF      WF67182  28.076  14.156   0.774 -0.1200  0.1056 -0.0667
    1WF      WF67183  17.603  28.909   7.730 -0.0101  0.1626 -0.0884
    1WF      WF67184  15.849  28.893   8.379 -0.0610 -0.1900 -0.2336
    1WF      WF67185  11.092   7.855   0.014 -0.1621  0.1245 -0.2445
    1WF      WF67186  13.715   5.382   8.067  0.0503 -0.1120  0.2469
    1WF      WF67187  28.215  16.196   6.207  0.0429 -0.2675  0.0748
    1WF      WF67188   8.270   0.232   1.216 -0.3716 -0.3195  0.0688
    1WF      WF67189   0.845  27.452   8.526 -0.4821  0.4353 -0.1010
    1WF      WF67190  26.716  15.338   0.429 -0.2229  0.3144  0.3037
    1WF      WF67191  21.342   4.587   0.958 -0.1731  0.1232 -0.0076
    1WF      WF67192  18.322  10.153   0.653 -0.0018 -0.4973  0.0932
    1WF      WF67193   7.633   4.036   1.781 -0.1212 -0.1636 -0.2653
    1WF      WF67194  10.012  12.690   1.624  0.0657 -0.1186 -0.0595
    1WF      WF67195  28.469  28.530   8.993  0.0645  0.0546 -0.1064
    1WF      WF67196  28.346  19.823   6.547  0.0246  0.1195 -0.0106
    1WF      WF67197   2.663  29.641   9.261 -0.1129  0.0114 -0.0603
    1WF      WF67198  22.192   8.992   1.400  0.2587 -0.2537  0.0218
    1WF      WF67199  17.180  21.308   8.296  0.2303  0.0017  0.2443
    1WF      WF67200   4.117  10.491   1.372 -0.0151 -0.0101  0.0203
    1WF      WF67201   8.313   5.049   8.545 -0.0671 -0.3707 -0.0145
    1WF      WF67202  27.995  19.688   0.004 -0.2178  0.0995 -0.3403
    1WF      WF67203  20.119  23.554   0.425  0.0712 -0.2123  0.0113
    1WF      WF67204   5.085   5.329   8.704 -0.1694 -0.1618  0.1489
    1WF      WF67205  12.232  25.811   8.171  0.2017  0.0377  0.3638
    1WF      WF67206  26.142  19.704   7.677 -0.4835 -0.1539 -0.1381
    1WF      WF67207   1.278   2.841   2.457  0.0917  0.1403 -0.0111
    1WF      WF67208   7.934  12.775   0.539 -0.0815 -0.2489 -0.0968
    1WF      WF67209   8.890  16.710   0.572 -0.0625  0.1955 -0.0935
    1WF      WF67210  14.290   6.450   9.152  0.1286 -0.0639 -0.1571
    1WF      WF67211   3.510  18.865   8.486 -0.1088 -0.0349  0.0886
    1WF      WF67212  24.220   7.971   9.164  0.1879 -0.0164  0.0802
    1WF      WF67213  23.425  23.411   1.028 -0.0820 -0.0480  0.0935
    1WF      WF67214   3.600  18.231   2.105  0.2559 -0.4241  0.0402
    1WF      WF67215  24.268  12.518   0.220  0.0298  0.3292  0.2693
    1WF      WF67216  23.189   4.272   8.735 -0.0540 -0.0053 -0.0643
    1WF      WF67217   6.511  21.398   7.745 -0.0567 -0.0955 -0.3685
    1WF      WF67218   7.638  17.401   9.048 -0.4079 -0.0911  0.0977
    1WF      WF67219  18.407  20.854   9.375 -0.2004  0.1434 -0.1267
    1WF      WF67220  23.258  25.026   7.061 -0.3419  0.2615 -0.1572
    1WF      WF67221   8.809   1.207   1.857  0.0472  0.0090 -0.2464
    1WF      WF67222  25.918  23.967   7.079  0.3097  0.3111 -0.2556
    1WF      WF67223   4.361  29.146   1.856 -0.1250 -0.1210 -0.0683
    1WF      WF67224  19.455   8.143   0.975 -0.2813  0.0555  0.1187
    1WF      WF67225   1.787  22.604   8.419  0.0995 -0.0639  0.0525
    1WF      WF67226  12.103  14.579   7.751  0.1527 -0.0939  0.0802
    1WF      WF67227  13.125  20.551   0.750  0.0587  0.3524 -0.1098
    1WF      WF67228   4.937   4.975   8.310 -0.0920 -0.2575  0.0719
    1WF      WF67229   7.270  21.915   8.648 -0.0997 -0.3943 -0.1815
    1WF      WF67230   5.435  12.022   6.465  0.0231 -0.0802 -0.0941
    1WF      WF67231  15.269  14.901   8.538  0.2494  0.1054  0.1194
    1WF      WF67232   4.551   4.650   8.186 -0.1048  0.0278 -0.0034
    1WF      WF67233  20.862   6.050   7.683 -0.1058  0.1800 -0.0504
    1WF      WF67234  13.925   5.461   0.816  0.1367 -0.3409  0.0835
    1WF      WF67235  24.194  26.897   1.507 -0.0397  0.0598 -0.0468
    1WF      WF67236  21.574  27.318   8.764 -0.1132  0.2159  0.0975
    1WF      WF67237   1.975  15.215   8.926  0.1844  0.0952 -0.1773
    1WF      WF67238   9.386  14.215   0.415 -0.2930  0.3394  0.0845
    1WF      WF67239  16.993  26.682   2.491 -0.1807  0.2135  0.2366
    1WF      WF67240   0.366   4.437   8.013 -0.0905 -0.1342  0.0824
    1WF      WF67241  24.144  28.853   3.102 -0.0242  0.1107  0.1602
    1WF      WF67242   1.787  15.336   1.234 -0.0253  0.0347 -0.1571
    1WF      WF67243   4.896  21.926   9.022 -0.0335  0.0578  0.2486
    1WF      WF67244   4.364  23.986   7.513  0.2147 -0.3462 -0.1350
    1WF      WF67245   9.717  10.244   1.776  0.0356  0.0960  0.2127
    1WF      WF67246   5.433   6.297   8.533 -0.0472 -0.2369  0.1561
    1WF      WF67247   6.536  12.363   7.706  0.0961 -0.2226 -0.1453
    1WF      WF67248  21.704  10.022   7.324  0.2648  0.2752 -0.2583
    1WF      WF67249  13.940   9.048   7.903  0.0528 -0.0101 -0.3823
    1WF      WF67250   7.162  28.011   0.637 -0.0551 -0.0168 -0.0086
    1WF      WF67251  22.422  20.520   1.482 -0.1494 -0.2710 -0.2844
    1WF      WF67252   1.687  25.937   0.886  0.0087  0.1689  0.0048
    1WF      WF67253  23.593   0.886   0.912  0.1557 -0.0063 -0.4014
    1WF      WF67254  22.619  18.954   8.961 -0.0505 -0.0550 -0.0444
    1WF      WF67255  17.811  16.066   8.986 -0.2494  0.0826 -0.0338
    1WF      WF67256   9.233  13.738   0.452 -0.3204 -0.0987  0.2395
    1WF      WF67257  13.808   9.589   0.756  0.0148  0.0517 -0.2593
    1WF      WF67258  28.762  11.780   2.101  0.0276  0.3333 -0.2020
    1WF      WF67259  25.210   5.435   0.188 -0.0517 -0.2076  0.2724
    1WF      WF67260  22.414  27.897   0.681  0.2048  0.0760 -0.1966
    1WF      WF67261   2.190  29.647   9.365 -0.3361 -0.0360  0.1763
    1WF      WF67262   6.724  22.024   8.560 -0.0794 -0.1538 -0.3274
    1WF      WF67263  22.585   9.845   9.438 -0.5272 -0.1004  0.1400
    1WF      WF67264  11.651  10.205   6.632 -0.0814 -0.1230  0.0458
    1WF      WF67265   9.741  26.660   2.793 -0.2198 -0.1073 -0.3933
    1WF      WF67266   1.181  11.485   9.033  0.0252  0.1588  0.0490
    1WF      WF67267  18.993  24.788   0.076 -0.0714 -0.0907  0.2107
    1WF      WF67268   8.611  27.328   0.551 -0.0650 -0.1322  0.0101
    1WF      WF67269  13.595   5.461   0.347  0.0809  0.0186 -0.1444
    1WF      WF67270   3.197  29.092   1.841  0.1073 -0.1009  0.2594
    1WF      WF67271   7.427  20.922   1.827 -0.4394  0.0689  0.0931
    1WF      WF67272  21.421  25.319   1.079 -0.1430  0.0642  0.1109
    1WF      WF67273  27.928  25.762   8.480 -0.0879  0.2707  0.0678
    1WF      WF67274   6.769  14.749   9.467  0.3885 -0.0130 -0.2047
    1WF      WF67275  11.277  18.557   8.726  0.2238  0.1255 -0.3276
    1WF      WF67276  28.484  21.857   1.705 -0.1388  0.1167  0.0451
    1WF      WF67277  28.758  21.866   1.205 -0.0562 -0.1035  0.1513
    1WF      WF67278   2.182  22.083   0.605 -0.1022 -0.2882 -0.1160
    1WF      WF67279  18.673  11.941   9.149  0.0195 -0.1201  0.0236
    1WF      WF67280   1.562  16.906   6.350 -0.1164  0.0728 -0.3013
    1WF      WF67281  15.537   8.132   0.267  0.1948  0.2365  0.0482
    1WF      WF67282  16.784   4.836   7.977  0.0983  0.1552 -0.1904
    1WF      WF67283  28.780  28.053   1.263 -0.1971  0.1996 -0.0477
    1WF      WF67284   3.239  18.618   8.120 -0.0842  0.0423 -0.1785
    1WF      WF67285  19.033  25.747   1.890  0.0917 -0.1934  0.2778
    1WF      WF67286  21.619  19.383   7.370 -0.0358  0.2362  0.3017
    1WF      WF67287  27.651  17.751   8.759 -0.1899 -0.0425  0.1464
    1WF      WF67288  26.008   8.561   0.789 -0.0242 -0.1812 -0.1820
    1WF      WF67289   6.258  27.026   1.361  0.5388  0.1287 -0.0389
    1WF      WF67290  24.840   4.797   0.734 -0.1159  0.1170 -0.1806
    1WF      WF67291   2.263  12.476   3.076  0.4086 -0.4141 -0.2547
    1WF      WF67292   0.868   5.431   0.838  0.0413 -0.1193  0.2119
    1WF      WF67293   2.603  14.005   7.933 -0.0150  0.0114  0.0500
    1WF      WF67294  27.855  28.559   0.579  0.0332  0.3376 -0.1072
    1WF      WF67295  16.535   2.984   8.444 -0.1996 -0.2993  0.0264
    1WF      WF67296   1.130  17.619   8.977  0.0965  0.3043 -0.0243
    1WF      WF67297  13.963   1.543   8.060  0.0079 -0.1379 -0.0234
    1WF      WF67298   3.522  29.793   0.837 -0.3328  0.1735  0.0818
    1WF      WF67299  17.010   2.715   6.870  0.2599  0.0599  0.1545
    1WF      WF67300   1.698  16.249   6.321  0.0181 -0.0158 -0.2133
    1WF      WF67301  20.401   6.851   8.595 -0.4445 -0.0460  0.0071
    1WF      WF67302   5.767   0.284   6.483 -0.1420  0.0188 -0.0398
    1WF      WF67303   5.758  26.993   8.262  0.0152  0.2471  0.0356
    1WF      WF67304   0.640  24.906   1.467 -0.0568  0.2433  0.0533
    1WF      WF67305  26.736   7.602   8.863  0.0656  0.1325 -0.2820
    1WF      WF67306  19.978  15.465   9.317 -0.0336 -0.1089 -0.0193
    1WF      WF67307   2.889   4.088   0.648  0.2357  0.1069  0.2684
    1WF      WF67308  20.480  25.082   8.836 -0.2505  0.1985  0.0731
    1WF      WF67309  11.388  14.033   8.927  0.1891 -0.0223 -0.1117
    1WF      WF67310   4.733  20.737   1.126  0.2163 -0.0728  0.0064
    1WF      WF67311  21.420  11.967   0.018 -0.0818 -0.2945  0.0358
    1WF      WF67312  18.860  12.659   2.252  0.0268  0.2251 -0.1398
    1WF      WF67313  27.999   1.907   1.494 -0.2158 -0.0749  0.1441
    1WF      WF67314  27.523  22.341   1.070 -0.0941 -0.0722  0.1041
    1WF      WF67315  21.720   9.257   8.798 -0.3058  0.0606  0.2782
    1WF      WF67316  25.402  26.587   7.928 -0.3299 -0.0458 -0.2373
    1WF      WF67317   5.086  26.901   0.354 -0.3385  0.2769  0.1871
    1WF      WF67318  14.677  12.721   0.736 -0.3683  0.0238  0.3228
    1WF      WF67319  26.328   7.382   0.423  0.1337 -0.0629  0.2196
    1WF      WF67320  10.104   3.348   2.283  0.0519  0.0640  0.1065
    1WF      WF67321  25.687  13.226   7.460  0.0469  0.0642  0.1455
    1WF      WF67322  25.496   4.869   1.745 -0.0058  0.3690  0.0764
    1WF      WF67323   0.167  24.248   7.931  0.1231  0.2092 -0.0432
    1WF      WF67324  11.246  24.974   0.122  0.2837 -0.0089  0.2516
    1WF      WF67325  15.970   5.385   1.051  0.0361 -0.0807  0.1466
    1WF      WF67326   4.950   9.843   2.019 -0.0507 -0.0986 -0.1617
    1WF      WF67327  18.161  14.728   1.016 -0.1431  0.1363  0.0638
    1WF      WF67328   4.184  20.810   6.362 -0.0629  0.0626 -0.5919
    1WF      WF67329  29.258  23.675   6.738 -0.0013 -0.0334  0.0539
    1WF      WF67330   7.835   0.097   8.617  0.0971 -0.1819 -0.0461
    1WF      WF67331   0.463  11.635   7.492  0.0418 -0.1382  0.1859
    1WF      WF67332  25.283  24.376   7.727  0.1986  0.0519  0.1619
    1WF      WF67333  16.906  20.992   1.908 -0.0575  0.1127  0.1201
    1WF      WF67334   0.604  26.616   7.430  0.0761 -0.1737 -0.1051
    1WF      WF67335  16.672  28.621   1.948  0.1830 -0.2913  0.2242
    1WF      WF67336   3.459  24.161   7.334 -0.0540  0.2126 -0.0057
    1WF      WF67337  16.105   3.909   1.197 -0.1012  0.0936  0.0069
    1WF      WF67338   5.462  19.879   5.902 -0.1985  0.2045  0.0299
    1WF      WF67339  26.107   6.125   9.410  0.1834  0.0302 -0.3272
    1WF      WF67340  15.360  24.773   8.398 -0.4222  0.0804 -0.1565
    1WF      WF67341  27.651  19.542   0.465 -0.3254 -0.0011 -0.2736
    1WF      WF67342   0.193   6.060   8.031 -0.2163 -0.0174  0.0230
    1WF      WF67343  29.734  26.917   8.807 -0.0079  0.2281  0.1553
    1WF      WF67344  10.466  26.880   9.253 -0.2613  0.1813  0.1403
    1WF      WF67345   4.498  22.530   8.351  0.1429 -0.0917  0.2456
    1WF      WF67346   9.242  20.928   0.618  0.0503  0.3962 -0.1045
    1WF      WF67347   2.503   5.316   1.679  0.1903  0.1554 -0.2018
    1WF      WF67348  12.279   1.859   0.710  0.0349 -0.1402  0.0206
    1WF      WF67349  23.197   0.999   1.140  0.1007  0.1815  0.1489
    1WF      WF67350  20.639   7.972   2.764 -0.1461 -0.1743  0.0221
    1WF      WF67351   5.416   4.473   0.831  0.0386  0.5243  0.5954
    1WF      WF67352  20.573  22.871   0.017 -0.0593 -0.0629  0.2109
    1WF      WF67353  23.773  12.322   2.259 -0.1379  0.0488  0.0312
    1WF      WF67354   3.513   5.053   3.550  0.1211  0.0003  0.1092
    1WF      WF67355  23.308  29.624   8.135 -0.0373  0.0437  0.2719
    1WF      WF67356   2.944  17.081   5.531  0.0272  0.0706  0.2110
    1WF      WF67357  15.010  11.592   8.089  0.0598  0.3515  0.1255
    1WF      WF67358  28.172   8.746   0.412 -0.0893  0.1042  0.2191
    1WF      WF67359   8.500  18.005   0.099  0.5113  0.0646 -0.3308
    1WF      WF67360  25.800  22.118   9.421 -0.1717 -0.4087  0.2000
    1WF      WF67361  27.947  10.753   7.457  0.2097  0.1754  0.0248
    1WF      WF67362  25.996  16.184   2.441  0.1648  0.0177 -0.1746
    1WF      WF67363  21.037  25.017   0.952 -0.1073 -0.0698  0.1253
    1WF      WF67364  21.102   8.924   7.641 -0.0366  0.2535  0.0452
    1WF      WF67365   6.311  20.031   8.130  0.2821  0.4509 -0.3008
    1WF      WF67366  11.616  29.222   2.219 -0.0254 -0.1658  0.1397
    1WF      WF67367  21.064  27.680   1.833  0.0268  0.2303 -0.1671
    1WF      WF67368   5.932   9.924   1.519 -0.0812  0.4037 -0.1299
    1WF      WF67369   7.456  15.993   1.386  0.0217 -0.0228  0.1377
    1WF      WF67370  16.836  20.626   0.793 -0.0659  0.1736 -0.1008
    1WF      WF67371   4.349  15.739   0.480  0.5015  0.0621 -0.2124
    1WF      WF67372  21.777  29.246   1.691  0.0293  0.1779 -0.2300
    1WF      WF67373  27.769  26.484   7.807  0.0898  0.2998 -0.2545
    1WF      WF67374  13.065  16.703   0.189  0.1078 -0.2621 -0.0057
    1WF      WF67375  25.216  16.717   0.044  0.0237 -0.0175 -0.1649
    1WF      WF67376   2.418  14.071   2.744 -0.3760 -0.1087  0.2448
    1WF      WF67377   0.654  18.293   9.129  0.0063  0.0938  0.4859
    1WF      WF67378   1.648  16.885   7.222 -0.2455  0.2870  0.0442
    1WF      WF67379  22.652  24.535   8.529 -0.1578 -0.0128  0.0533
    1WF      WF67380  15.685   1.338   7.159 -0.1052  0.2146  0.0244
    1WF      WF67381  21.694  29.392   1.202  0.4118 -0.2715 -0.0292
    1WF      WF67382  12.019   0.448   0.318 -0.0263 -0.0398  0.0601
    1WF      WF67383   0.343  24.336   0.625  0.2686  0.2018  0.3342
    1WF      WF67384  26.515  29.245   8.295  0.0243 -0.0618 -0.0120
    1WF      WF67385  10.060  24.293   8.254  0.0772 -0.2399 -0.0917
    1WF      WF67386  21.231   3.033   2.437 -0.1253  0.0083  0.2351
    1WF      WF67387  22.406  21.484   2.881  0.1854 -0.3551 -0.1193
    1WF      WF67388  17.189   2.651   1.947  0.1216 -0.0371  0.2470
    1WF      WF67389  28.418  10.528   0.521  0.0428  0.1448 -0.0955
    1WF      WF67390   6.204   7.587   2.180 -0.3140  0.0658 -0.1147
    1WF      WF67391  19.466  11.362   1.882  0.2144  0.1031  0.0307
    1WF      WF67392   0.285   9.639   7.382  0.2617  0.0943  0.2144
    1WF      WF67393  19.865  10.357   0.698  0.1044 -0.1019  0.2185
    1WF      WF67394  17.293   2.845   6.461 -0.0371 -0.0141 -0.0221
    1WF      WF67395  20.245  12.814   9.158 -0.3080 -0.1314  0.1934
    1WF      WF67396  19.818  21.784   2.889 -0.2144  0.0624 -0.1653
    1WF      WF67397  13.570  28.780   1.397 -0.0542  0.1656 -0.1319
    1WF      WF67398   1.577   4.017   6.380 -0.0595 -0.1842 -0.0433
    1WF      WF67399  24.940  12.011   1.103 -0.3240  0.0602 -0.0534
    1WF      WF67400  21.190   5.023   0.913 -0.2795  0.0395 -0.0590
    1WF      WF67401  26.947  12.188   0.952  0.1853 -0.0081  0.1580
    1WF      WF67402  19.494  26.499   7.770  0.2390 -0.1849  0.1183
    1WF      WF67403  20.222  17.993   1.881  0.0629  0.0830  0.3038
    1WF      WF67404   6.839  11.858   0.876  0.1222  0.2608  0.0264
    1WF      WF67405  24.139  28.340   3.276 -0.0148 -0.1396  0.1028
    1WF      WF67406   8.794   7.721   0.186  0.0047 -0.1554 -0.0070
    1WF      WF67407  15.183  19.289   8.028  0.2937  0.0552  0.0959
    1WF      WF67408  11.682  14.418   7.932  0.0439  0.3907 -0.1101
    1WF      WF67409  10.439   9.688   7.315 -0.2724  0.0291  0.1564
    1WF      WF67410  23.405  13.530   0.416  0.0275 -0.0344  0.3075
    1WF      WF67411  11.538  27.692   2.004 -0.2902  0.2458 -0.1208
    1WF      WF67412  27.681   3.333   8.752 -0.0049 -0.1486 -0.1353
    1WF      WF67413   0.661  13.133   8.026 -0.0200  0.2002 -0.1527
    1WF      WF67414  12.698  17.055   9.338 -0.2660 -0.0974 -0.0548
    1WF      WF67415  11.839   3.487   0.669 -0.0016  0.0967  0.1819
    1WF      WF67416   1.238   0.806   8.736 -0.1772 -0.1232  0.1358
    1WF      WF67417  17.548   7.190   8.981 -0.0925 -0.0674 -0.2887
    1WF      WF67418  16.797  26.154   2.697  0.1476 -0.1701 -0.3300
    1WF      WF67419  11.747  20.314   8.545  0.3919  0.3318 -0.2895
    1WF      WF67420  22.720  22.667   0.505  0.0607  0.3545  0.0326
    1WF      WF67421  17.775  24.463   0.983  0.0407 -0.1769  0.1185
    1WF      WF67422  18.357  15.208   1.095 -0.0077  0.0321 -0.3501
    1WF      WF67423   3.077  18.699   7.641 -0.0630  0.0365  0.2745
    1WF      WF67424  29.728   3.446   9.323  0.0660  0.0857 -0.0480
    1WF      WF67425   2.648  13.406   8.659  0.0117  0.0872  0.2909
    1WF      WF67426  25.730  24.426   7.523  0.1711 -0.4003  0.1633
    1WF      WF67427   2.000  18.982   8.600  0.0725  0.1433 -0.3640
    1WF      WF67428  27.675  15.245   5.492 -0.0630 -0.0425  0.0468
    1WF      WF67429  18.597   6.488   1.062 -0.3441  0.0438 -0.0236
    1WF      WF67430   7.243   4.354   1.346  0.0553  0.0903 -0.4452
    1WF      WF67431  15.856  18.735   7.633 -0.0675 -0.1144  0.1452
    1WF      WF67432  25.809  12.722   1.380 -0.0852 -0.1116 -0.2802
    1WF      WF67433  19.398   1.855   8.024 -0.0173 -0.2156 -0.1542
    1WF      WF67434   0.876   0.829   7.450 -0.2448 -0.2365 -0.0037
    1WF      WF67435  12.889   7.114   0.088  0.0838  0.0148 -0.3573
    1WF      WF67436  17.393   1.689   8.207  0.1272 -0.1373 -0.0238
    1WF      WF67437   6.610  19.231   2.027  0.0862  0.0411 -0.0116
    1WF      WF67438  16.643   9.286   7.900 -0.0359 -0.2679  0.0430
    1WF      WF67439  21.788  26.363   6.516 -0.0968  0.1604  0.1162
    1WF      WF67440   9.715  19.607   0.445  0.0795 -0.2678 -0.3621
    1WF      WF67441  14.593   6.540   8.761 -0.2179 -0.0255 -0.1235
    1WF      WF67442  18.467  28.703   6.451 -0.3062 -0.0293 -0.0353
    1WF      WF67443  29.061   3.120   0.678  0.3063 -0.1591  0.0318
    1WF      WF67444  14.846   7.607   0.566 -0.3903 -0.2886 -0.0296
    1WF      WF67445  24.165  24.972   9.365 -0.0157 -0.0325 -0.2664
    1WF      WF67446   9.200   9.704   0.831 -0.1079 -0.2788 -0.0618
    1WF      WF67447   5.752   1.732   6.857 -0.3674 -0.4674 -0.1662
    1WF      WF67448  20.389  12.388   9.336 -0.0203  0.1246 -0.0918
    1WF      WF67449  26.078  12.563   0.934 -0.0125  0.0374 -0.1314
    1WF      WF67450  13.772   6.701   8.504  0.2880  0.3503 -0.4494
    1WF      WF67451  24.221  12.964   7.422  0.0877  0.2442  0.2092
    1WF      WF67452   1.465   9.218   0.710 -0.2388 -0.4722  0.2120
    1WF      WF67453  27.763   2.895   9.035  0.0360  0.1180 -0.0257
    1WF      WF67454  10.818  26.363   7.690 -0.1312 -0.0466  0.1487
    1WF      WF67455  14.289  28.057   2.377 -0.1630  0.0101  0.0232
    1WF      WF67456   9.455  11.045   8.645  0.0836  0.1602  0.1077
    1WF      WF67457  25.653  18.960   8.352 -0.2894 -0.1863  0.0185
    1WF      WF67458  28.360   4.232   2.154 -0.1429  0.2200  0.2440
    1WF      WF67459  28.323   2.233   8.605  0.0709 -0.2612  0.4034
    1WF      WF67460  21.967  24.050   7.770  0.0424  0.1067  0.0830
    1WF      WF67461  26.493  12.560   2.433  0.0082 -0.2758 -0.1824
    1WF      WF67462   8.187  10.230   8.088  0.0431  0.3169 -0.0479
    1WF      WF67463  12.898  27.513   0.159 -0.1553 -0.3849 -0.0105
    1WF      WF67464  22.421   2.960   0.679 -0.1642 -0.0020  0.1202
    1WF      WF67465  22.490   0.382   1.980  0.2276  0.4127 -0.1052
    1WF      WF67466  23.395  26.811   7.913 -0.2305  0.3177 -0.1959
    1WF      WF67467  27.233  17.319   1.257 -0.0021 -0.1973  0.0162
    1WF      WF67468  10.602  11.198   0.410 -0.2688 -0.3071 -0.1887
    1WF      WF67469  17.232  26.398   0.355  0.0525  0.3723 -0.1233
    1WF      WF67470   9.192  12.894   9.045 -0.2778 -0.0650 -0.1733
    1WF      WF67471  19.427  12.107   6.153 -0.0286 -0.0657  0.2904
    1WF      WF67472   4.616  20.419   8.017  0.0705  0.0219 -0.2913
    1WF      WF67473   6.815   2.602   9.264  0.1222  0.3393  0.1738
    1WF      WF67474  23.059   5.834   0.928  0.0275  0.1680 -0.3053
    1WF      WF67475  24.038   7.819   8.672  0.0101  0.1825  0.1146
    1WF      WF67476  19.185   5.420   1.374 -0.1161  0.0821 -0.2059
    1WF      WF67477  29.911   2.272   8.154 -0.1959  0.1310  0.1018
    1WF      WF67478  23.661  17.291   8.400 -0.1011 -0.3581  0.1576
    1WF      WF67479  14.561  23.078   0.203  0.2285  0.2164 -0.1420
    1WF      WF67480   6.033  25.395   3.037  0.3864  0.3195  0.0822
    1WF      WF67481  24.996   7.894   2.887  0.0708  0.0146 -0.0012
    1WF      WF67482  27.129  27.174   3.142  0.1247 -0.1975 -0.1483
    1WF      WF67483  25.721   5.825   1.140 -0.1051  0.2073 -0.3362
    1WF      WF67484   8.248  27.728   0.642  0.1159  0.2496  0.0026
    1WF      WF67485  19.119  25.373   0.374  0.0137  0.3240 -0.2372
    1WF      WF67486   1.178  10.801   1.274 -0.1236  0.0902  0.0684
    1WF      WF67487  18.765   6.760   8.788  0.0141  0.1115  0.0617
    1WF      WF67488  26.299   6.606   8.859  0.0232 -0.1046 -0.3900
    1WF      WF67489   0.784   2.580   6.574 -0.0777  0.2782 -0.0100
    1WF      WF67490  18.370  28.231   8.023  0.2350  0.0334  0.5408
    1WF      WF67491  20.499  10.889   8.693  0.1923  0.0083  0.0604
    1WF      WF67492   0.533  21.109   8.210 -0.1622  0.0105  0.0578
    1WF      WF67493  18.915   3.839   1.344 -0.1574 -0.1050  0.0879
    1WF      WF67494   9.973  18.642   8.380  0.2788 -0.2082 -0.2651
    1WF      WF67495  17.262   7.984   0.604  0.0096 -0.0301  0.2124
    1WF      WF67496  14.800   3.139   1.782  0.1620  0.2601 -0.4816
    1WF      WF67497   3.584  13.424   8.855 -0.0726 -0.0353 -0.1454
    1WF      WF67498  21.726  21.425   8.446  0.0027 -0.2312 -0.1726
    1WF      WF67499   8.203   7.557   1.330  0.1591  0.2108  0.2563
    1WF      WF67500   8.980   3.642   0.108 -0.0781  0.2710 -0.4365
    1WF      WF67501  22.815   9.444   8.306  0.3812  0.1932 -0.2149
    1WF      WF67502   9.094   6.365   2.286 -0.3932  0.2082 -0.2129
    1WF      WF67503   2.696  22.687   7.065  0.1986  0.0784  0.1234
    1WF      WF67504  22.747   2.673   6.174 -0.0453  0.0771 -0.1719
    1WF      WF67505  27.141  19.923   1.507 -0.2305 -0.3769 -0.0348
    1WF      WF67506  13.458  27.112   3.093  0.0471 -0.2601 -0.0269
    1WF      WF67507  29.249   6.890   0.387  0.0634 -0.2295 -0.2460
    1WF      WF67508  29.411   5.307   2.533  0.0896 -0.0543  0.2250
    1WF      WF67509   8.567  25.923   5.900 -0.0096 -0.0160 -0.1068
    1WF      WF67510  13.160  22.660   0.606  0.3366  0.1292 -0.0319
    1WF      WF67511  22.657  13.776   1.442  0.1908 -0.0976 -0.4311
    1WF      WF67512  17.061   9.630   0.527  0.2934  0.1411  0.1429
    1WF      WF67513  26.333   0.454   8.679 -0.0362 -0.0199 -0.1459
    1WF      WF67514   3.255  28.042   8.504  0.1153  0.1922  0.0895
    1WF      WF67515   7.201  27.147   8.337  0.3819  0.1885  0.0310
    1WF      WF67516  22.574  26.008   1.455  0.2630  0.1508 -0.0005
    1WF      WF67517  15.795  21.784   9.230  0.0509 -0.2046  0.4837
    1WF      WF67518   6.965  22.161   9.012  0.0936  0.2516  0.1942
    1WF      WF67519  11.386  16.765   0.686 -0.0004 -0.1609  0.1008
    1WF      WF67520  18.222   3.321   6.946  0.2615  0.1914  0.0069
    1WF      WF67521  17.524  18.693   0.819  0.0142  0.0970 -0.1224
    1WF      WF67522  19.207  28.897   8.014  0.0951 -0.0049  0.0921
    1WF      WF67523  24.854  18.827   0.108  0.2723 -0.1673  0.0344
    1WF      WF67524  27.871  12.875   7.601  0.1826 -0.1503 -0.0037
    1WF      WF67525  13.356  15.555   8.974 -0.1562  0.2093  0.2635
    1WF      WF67526   3.514  26.906   6.857  0.0021  0.0382 -0.0769
    1WF      WF67527   2.232   7.025   8.519 -0.1547 -0.0194 -0.0371
    1WF      WF67528  25.218  18.817   8.099  0.0301  0.0819 -0.1790
    1WF      WF67529  13.517   7.330   0.750 -0.1613 -0.0903 -0.1003
    1WF      WF67530   9.951  12.538   8.335 -0.1218 -0.1749  0.0906
    1WF      WF67531  25.717  12.928   0.871 -0.0348  0.1578 -0.2167
    1WF      WF67532  16.161   1.811   0.742 -0.1776  0.3430  0.2508
    1WF      WF67533  28.443  23.491   8.065 -0.0074  0.4141  0.0100
    1WF      WF67534  17.729  20.250   0.634 -0.1210 -0.2576 -0.2635
    1WF      WF67535  21.524  24.017   0.859  0.0578  0.3681  0.0613
    1WF      WF67536   1.121   5.184   0.509  0.1846  0.2263  0.1202
    1WF      WF67537  24.243  28.783   0.023  0.1296  0.2961  0.2281
    1WF      WF67538   4.994   9.698   1.536 -0.2271 -0.1315 -0.4297
    1WF      WF67539   9.671   3.411   2.647  0.1746 -0.0738  0.1330
    1WF      WF67540  20.845   6.294   9.152 -0.2686  0.4154 -0.2106
    1WF      WF67541  13.950   3.545   1.572 -0.2448 -0.1419  0.1508
    1WF      WF67542   1.764   7.193   0.694  0.1198 -0.0901  0.0683
    1WF      WF67543  22.993   7.248   1.146 -0.0422 -0.0392  0.2179
    1WF      WF67544  13.996  28.922   7.912 -0.1136 -0.0026 -0.1297
    1WF      WF67545  28.293  29.063   1.944 -0.1454  0.3894  0.3167
    1WF      WF67546  28.159   0.510   1.907 -0.1299 -0.2449  0.0337
    1WF      WF67547  17.973   4.846   7.448  0.3925  0.1360  0.1479
    1WF      WF67548  25.750  25.823   1.731 -0.1305 -0.0395 -0.3031
    1WF      WF67549  19.281  17.959   0.657  0.1636 -0.0632 -0.0890
    1WF      WF67550  14.950  14.665   1.055 -0.1229  0.2038  0.1372
    1WF      WF67551  20.695  12.664   8.975 -0.0964  0.2551  0.0963
    1WF      WF67552   9.450  22.704   6.015  0.0157 -0.1213 -0.1489
    1WF      WF67553  16.768  26.198   0.132  0.0225  0.2199  0.2462
    1WF      WF67554   1.830  21.726   0.266  0.0881  0.1446 -0.1243
    1WF      WF67555  11.218  19.042   8.671  0.1540  0.0159  0.0871
    1WF      WF67556   0.093   3.503   1.296 -0.2447 -0.1177  0.0101
    1WF      WF67557  15.972  14.304   8.399 -0.3032 -0.1176  0.1701
    1WF      WF67558  25.072  28.830   8.790  0.0051 -0.1442  0.4554
    1WF      WF67559  28.422  27.386   1.090  0.0864  0.1013  0.1761
    1WF      WF67560  20.322  26.744   6.703 -0.0989 -0.2295  0.0736
    1WF      WF67561  27.404   2.552   8.994 -0.1111 -0.3376 -0.0150
    1WF      WF67562   8.142  12.523   7.203 -0.1501 -0.1015  0.1047
    1WF      WF67563  23.607  23.600   8.367 -0.4129 -0.0001  0.0942
    1WF      WF67564  26.006  26.062   9.237  0.0593  0.0264  0.0831
    1WF      WF67565  15.403  19.324   1.022  0.2849 -0.0582  0.2179
    1WF      WF67566  24.498   5.089   0.530  0.3328  0.0600  0.0274
    1WF      WF67567   4.064  16.555   0.400 -0.2218  0.0037 -0.3006
    1WF      WF67568  28.270  12.456   7.685  0.0720 -0.2519  0.0193
    1WF      WF67569   6.743  13.471   0.619  0.3648  0.0258  0.1502
    1WF      WF67570  19.690  27.904   0.530 -0.0529  0.2428 -0.0740
    1WF      WF67571  23.417   3.445   1.375 -0.0381 -0.0319 -0.0174
    1WF      WF67572  27.848  14.815   0.264 -0.0081 -0.0774 -0.4485
    1WF      WF67573   0.540   2.111   9.198  0.3563  0.0669 -0.1934
    1WF      WF67574   5.585  11.818   8.721  0.1408 -0.1487  0.0708
    1WF      WF67575  15.542  23.151   7.794 -0.0134  0.2610 -0.0646
    1WF      WF67576  25.410  12.165   8.335 -0.1152 -0.1538  0.2048
    1WF      WF67577   7.190   3.504   8.404  0.3004  0.1177  0.0827
    1WF      WF67578  22.120   4.917   9.056 -0.1281 -0.0666  0.1526
    1WF      WF67579  26.041  24.671   1.716  0.0720  0.3351 -0.1476
    1WF      WF67580  18.302  15.723   9.030  0.0882 -0.2592  0.0163
    1WF      WF67581  14.276   9.376   0.880  0.0341 -0.1404 -0.2589
    1WF      WF67582   5.266  27.164   7.899 -0.0890 -0.2836  0.0533
    1WF      WF67583  28.858  23.111   8.182 -0.1081  0.1774  0.1158
    1WF      WF67584  21.338  19.093   7.120  0.0846  0.0720 -0.0679
    1WF      WF67585  21.355  24.640   2.820 -0.0250 -0.1276 -0.0647
    1WF      WF67586   6.180  26.216   0.034  0.2098  0.3565  0.1560
    1WF      WF67587   8.812  29.245   3.513 -0.0823 -0.1400 -0.0627
    1WF      WF67588  17.513  27.219   3.260  0.1456  0.1537  0.3064
    1WF      WF67589   0.395  23.366   8.611  0.0500 -0.2423 -0.1298
    1WF      WF67590   0.348  24.050   7.174  0.1398 -0.1946 -0.0715
    1WF      WF67591  16.483  26.406   2.451 -0.0267  0.1302  0.0685
    1WF      WF67592  19.264   4.118   1.552 -0.0207  0.3763  0.0037
    1WF      WF67593  27.513   4.203   8.194  0.1982 -0.0245  0.2050
    1WF      WF67594  19.830  20.825   1.609 -0.0589  0.2240  0.0639
    1WF      WF67595  25.572   4.668   1.282  0.1771  0.0406 -0.2446
    1WF      WF67596   0.065  23.114   8.351 -0.1666  0.1624 -0.1800
    1WF      WF67597   9.190  20.345   7.423 -0.0987  0.0072  0.0595
    1WF      WF67598  14.992   6.740   0.870 -0.2973  0.2410  0.0687
    1WF      WF67599   2.795   9.522   9.197 -0.2505 -0.0356  0.2074
    1WF      WF67600   1.805  21.205   0.146  0.0517 -0.2106 -0.0645
    1WF      WF67601   3.047  11.340   8.478 -0.1139  0.0665 -0.1370
    1WF      WF67602  21.267  15.468   8.722  0.1380  0.0005  0.0615
    1WF      WF67603  29.834  18.934   1.582  0.1227 -0.4486  0.0531
    1WF      WF67604  13.790  28.187   2.248  0.1423  0.4641 -0.1650
    1WF      WF67605  27.369  22.207   8.056  0.1636 -0.1362  0.2653
    1WF      WF67606   0.872  25.111   5.428  0.0432 -0.0025 -0.3283
    1WF      WF67607   1.116   5.779   7.214 -0.1442  0.2385  0.1230
    1WF      WF67608  16.412  23.755   0.735  0.2153 -0.0304 -0.2032
    1WF      WF67609  21.585  17.734   0.863 -0.1125  0.1320 -0.0202
    1WF      WF67610  14.073  28.333   1.120 -0.2781  0.1411 -0.0036
    1WF      WF67611   3.867   8.101   6.595  0.1803  0.1057 -0.1372
    1WF      WF67612  25.170   1.635   1.214  0.1077  0.0615 -0.2739
    1WF      WF67613   8.179   8.747   2.054  0.2217 -0.2897  0.1940
    1WF      WF67614  27.995  29.441   8.312 -0.1222 -0.0238  0.0484
    1WF      WF67615  25.627  13.626   6.431 -0.1808  0.2367  0.0092
    1WF      WF67616   0.775   9.538   6.109 -0.2214  0.1920 -0.2733
    1WF      WF67617   7.099   4.427   2.741  0.1419 -0.0035  0.3906
    1WF      WF67618  19.247  26.354   0.618  0.1495 -0.1365 -0.0676
    1WF      WF67619  29.312   6.401   0.282 -0.4108  0.1171 -0.2090
    1WF      WF67620   8.105  14.427   9.137  0.0522  0.1358 -0.1416
    1WF      WF67621  11.848  26.174   8.835 -0.0994  0.1622  0.1872
    1WF      WF67622   3.439  25.495   8.413  0.0780 -0.3034 -0.3210
    1WF      WF67623  20.334  14.614   0.101 -0.0097 -0.4462  0.2180
    1WF      WF67624   5.011  27.887   8.397 -0.0859 -0.0020  0.0909
    1WF      WF67625  19.851  16.566   7.232  0.0794  0.1013  0.1847
    1WF      WF67626   4.531  26.841   5.979  0.0024  0.0724 -0.0349
    1WF      WF67627  26.512   8.510   8.677 -0.1099 -0.2467 -0.0948
    1WF      WF67628  17.380  26.460   8.250 -0.2035  0.1701  0.1861
    1WF      WF67629  11.107   2.434   3.979 -0.0454  0.1158 -0.1788
    1WF      WF67630  22.598   8.326   9.386 -0.3052  0.0729  0.0390
    1WF      WF67631  15.793   1.477   1.895 -0.0900 -0.2338 -0.0534
    1WF      WF67632  15.240  15.998   8.339  0.2476 -0.0494 -0.1436
    1WF      WF67633  23.803  13.878   2.237 -0.4358  0.1099  0.1158
    1WF      WF67634  12.377   0.055   0.452 -0.0253 -0.0972  0.0460
    1WF      WF67635   2.651   2.486   1.661  0.2958 -0.0623  0.2019
    1WF      WF67636   1.328   0.087   7.215 -0.0768  0.0144  0.0168
    1WF      WF67637  27.846   9.204   2.404  0.0620  0.4751  0.3141
    1WF      WF67638  24.122  11.072   8.554 -0.0867 -0.1740 -0.0535
    1WF      WF67639  23.324  14.288   2.381 -0.0180  0.0426 -0.0422
    1WF      WF67640  28.984  17.043   1.564 -0.2665 -0.1156  0.2797
    1WF      WF67641   3.294  14.247   5.532  0.1092  0.1023  0.0919
    1WF      WF67642  29.530  28.514   1.381  0.1575 -0.1262  0.1843
    1WF      WF67643   3.349  24.629   7.534  0.2293 -0.5036 -0.0102
    1WF      WF67644  23.229  14.309   0.599 -0.0991 -0.1556 -0.0910
    1WF      WF67645  14.024  24.112   9.454  0.1469  0.0739 -0.3299
    1WF      WF67646  13.556  22.907   7.879 -0.1878  0.2983  0.0744
    1WF      WF67647  16.480  29.015   8.396  0.0441  0.2136 -0.1132
    1WF      WF67648  22.769  28.556   7.711  0.1426  0.1858 -0.1001
    1WF      WF67649  14.556  27.639   0.482  0.1870 -0.0827 -0.2192
    1WF      WF67650  19.855  21.857   1.362 -0.3182 -0.1738  0.3958
    1WF      WF67651  13.587   2.818   7.977  0.0072 -0.0534 -0.0675
    1WF      WF67652  14.658  25.795   1.530 -0.0357  0.1530 -0.0955
    1WF      WF67653   5.242   4.489   1.389 -0.0530  0.1968  0.0361
    1WF      WF67654   3.439   4.164   0.617  0.0219 -0.3172 -0.1647
    1WF      WF67655  14.387  19.582   0.395 -0.2741 -0.0914  0.0202
    1WF      WF67656   0.907  21.240   0.740  0.1185  0.0307 -0.1692
    1WF      WF67657  19.155  13.403   0.816 -0.2578  0.1080 -0.1727
    1WF      WF67658   6.287  27.471   1.080 -0.1430  0.1306 -0.0388
    1WF      WF67659   7.161  13.621   2.120 -0.0045 -0.0136 -0.2406
    1WF      WF67660   1.030   8.765   1.476  0.3655 -0.0038 -0.0521
    1WF      WF67661   0.011  12.800   1.200 -0.3085 -0.2661  0.0179
    1WF      WF67662  26.310  27.374   1.344 -0.2287  0.1101 -0.0904
    1WF      WF67663  12.950  15.248   8.737  0.1495 -0.1430 -0.1034
    1WF      WF67664  16.757   8.538   8.711 -0.0944 -0.0401  0.0050
    1WF      WF67665   1.804   0.253   1.032 -0.0993  0.3661 -0.0985
    1WF      WF67666  19.284  12.952   1.062 -0.4054  0.1363  0.0067
    1WF      WF67667  17.004  17.332   7.274  0.1267 -0.4617 -0.0073
    1WF      WF67668  18.836   7.434   7.868  0.2936  0.1356 -0.5007
    1WF      WF67669   6.755   9.785   3.372  0.1582  0.4257  0.1664
    1WF      WF67670  18.129   7.801   8.314 -0.4272 -0.2082 -0.0172
    1WF      WF67671  29.210  24.912   8.546  0.1004 -0.0931  0.1729
    1WF      WF67672  12.596   2.140   8.840  0.2039  0.0749 -0.0330
    1WF      WF67673  26.472  26.495   6.915  0.1371 -0.2564  0.4017
    1WF      WF67674  25.082  22.190   6.397  0.0478 -0.1617 -0.1093
    1WF      WF67675   5.064  18.231   6.961 -0.1090  0.2046  0.1753
    1WF      WF67676  15.276  17.720   1.752 -0.0598 -0.1403 -0.0289
    1WF      WF67677  25.552  15.263   0.896 -0.0473  0.0697 -0.0850
    1WF      WF67678  27.831  27.622   0.122 -0.1255 -0.0297  0.1026
    1WF      WF67679   3.527  11.590   2.246 -0.2815 -0.0592  0.2719
    1WF      WF67680  15.597  18.919   1.282  0.2508 -0.1477 -0.1940
    1WF      WF67681   5.604  23.288   1.105  0.1027 -0.1911 -0.1827
    1WF      WF67682  29.489   3.611   7.615 -0.1396  0.0217 -0.1258
    1WF      WF67683  13.084  25.077   8.025 -0.0554  0.1960  0.0242
    1WF      WF67684  15.813   5.287   3.633  0.4498 -0.1307 -0.0287
    1WF      WF67685   5.422   5.531   9.202  0.1433  0.1956  0.0993
    1WF      WF67686  22.062   1.934   1.662 -0.1055 -0.3592 -0.1961
    1WF      WF67687   2.504  26.153   7.370  0.0813  0.4290 -0.2580
    1WF      WF67688  20.528   5.765   0.749  0.1464  0.0355 -0.1186
    1WF      WF67689  25.057  24.261   8.735 -0.0317  0.2319  0.1974
    1WF      WF67690   3.758   4.978   0.058 -0.3169  0.1436 -0.0739
    1WF      WF67691  19.910   8.012   1.227  0.0297 -0.0303  0.0052
    1WF      WF67692  15.251  27.788   3.567  0.0198 -0.1451  0.2955
    1WF      WF67693  17.538  20.920   7.454 -0.2937 -0.1390  0.1892
    1WF      WF67694  13.301  17.535   8.305  0.1835 -0.1044 -0.2149
    1WF      WF67695   7.913   5.675   7.193  0.3286 -0.1786 -0.1038
    1WF      WF67696  19.799  25.467   2.550 -0.0726  0.1362 -0.1428
    1WF      WF67697   7.097   9.621   3.058 -0.2098  0.1508 -0.0818
    1WF      WF67698   8.438   7.797   0.593  0.0698  0.1708  0.1277
    1WF      WF67699  10.355  11.252   0.869 -0.1740  0.3575 -0.0163
    1WF      WF67700   0.710  13.942   1.883  0.2342 -0.1930 -0.3110
    1WF      WF67701  18.995   5.059   7.911 -0.0074  0.1037 -0.0886
    1WF      WF67702  25.582  18.424   8.397  0.0057 -0.1555 -0.4678
    1WF      WF67703  14.715  26.610   0.955 -0.0485 -0.1579  0.1202
    1WF      WF67704   7.083  18.735   0.667 -0.4485  0.0591 -0.0200
    1WF      WF67705   9.882   5.993   9.412  0.0713 -0.0021 -0.0438
    1WF      WF67706  16.822  16.637   0.863  0.2428 -0.1502 -0.1229
    1WF      WF67707   6.996  13.720   2.651 -0.0207 -0.2886  0.1130
    1WF      WF67708   1.033  13.919   7.744 -0.0640 -0.0803  0.0887
    1WF      WF67709  25.385  15.843   8.351  0.0093 -0.0680  0.0000
    1WF      WF67710  17.576   3.874   8.053 -0.4524  0.2712 -0.3916
    1WF      WF67711  18.198   6.109   8.577 -0.1118 -0.2551 -0.0839
    1WF      WF67712  16.792  15.039   9.274 -0.0784  0.1360 -0.2161
    1WF      WF67713   5.221  18.761   7.203  0.1130  0.1935 -0.0556
    1WF      WF67714  22.737   3.934   1.602  0.0144 -0.2236  0.0120
    1WF      WF67715  26.603  27.879   8.566 -0.1775 -0.0484 -0.2001
    1WF      WF67716   0.087  12.783   0.664  0.1426 -0.1968 -0.1266
    1WF      WF67717   2.038   4.597   0.878  0.0009  0.0278  0.3286
    1WF      WF67718  19.727   2.067   7.697 -0.0192  0.0351  0.2385
    1WF      WF67719  19.821  25.492   7.688  0.0962  0.0192 -0.0321
    1WF      WF67720   7.077   5.949   0.991 -0.1781  0.2814 -0.0837
    1WF      WF67721   2.359  17.885   6.503 -0.1135 -0.1668 -0.3475
    1WF      WF67722  12.713  19.648   0.109 -0.0637  0.0278 -0.5719
    1WF      WF67723   2.084  18.280   8.604  0.0155 -0.1647  0.1261
    1WF      WF67724   4.268   2.938   9.444 -0.1536  0.0257 -0.4511
    1WF      WF67725  15.888  28.909   1.519  0.2436  0.2179  0.1021
    1WF      WF67726   1.633   2.135   0.352 -0.0665  0.1989 -0.0513
    1WF      WF67727  22.177  21.512   2.079  0.1845 -0.0118  0.1618
    1WF      WF67728   8.968  15.205   8.262  0.1567  0.2056  0.0014
    1WF      WF67729   6.446  13.452   9.451  0.1656 -0.0677 -0.2294
    1WF      WF67730  24.739  27.245   0.809 -0.4217 -0.1206 -0.0323
    1WF      WF67731  18.583  21.406   1.499  0.6091  0.0800 -0.0845
    1WF      WF67732  29.462  14.406   5.948 -0.1271 -0.0848  0.4195
    1WF      WF67733  18.650  10.351   7.533 -0.0172 -0.1239  0.0433
    1WF      WF67734  25.693  25.013   0.933  0.1435 -0.0278 -0.1552
    1WF      WF67735  16.651   4.882   0.839 -0.1298  0.0951 -0.2146
    1WF      WF67736  24.762   6.737   0.869 -0.0745 -0.0999  0.1918
    1WF      WF67737  24.785   6.185   8.255  0.3070 -0.0837 -0.1234
    1WF      WF67738   8.770  13.115   8.995 -0.0716 -0.0727 -0.0658
    1WF      WF67739  22.889  11.936   8.500  0.1415 -0.1204  0.2463
    1WF      WF67740  21.616   2.674   2.626  0.2621 -0.0273 -0.0306
    1WF      WF67741   4.450  22.624   7.858  0.0115 -0.2162  0.0761
    1WF      WF67742  24.802  26.646   8.798 -0.2699  0.0232 -0.0229
    1WF      WF67743  25.700  18.028   8.081 -0.0379 -0.2110 -0.2427
    1WF      WF67744   1.514  27.345   1.202 -0.1911  0.2305  0.4148
    1WF      WF67745  28.810   9.619   9.457 -0.2006 -0.3327 -0.2985
    1WF      WF67746   9.078   3.705   7.063 -0.0617 -0.1808  0.1723
    1WF      WF67747   2.679  18.497   1.228 -0.0959  0.2442 -0.3700
    1WF      WF67748  12.704  25.380   8.196  0.2449  0.1813 -0.2292
    1WF      WF67749   4.654  12.988   7.491 -0.1357  0.1086  0.0815
    1WF      WF67750  22.004  21.816   8.552 -0.3824 -0.0130  0.1106
    1WF      WF67751  22.728  20.059   2.424 -0.3836  0.4972 -0.1129
    1WF      WF67752  10.191  20.186   7.317  0.1077  0.2476  0.1998
    1WF      WF67753   2.958  22.487   6.652 -0.3596  0.3294  0.2530
    1WF      WF67754  11.580   5.947   2.932 -0.0264  0.2861 -0.0129
    1WF      WF67755   5.228   1.549   8.998 -0.0232 -0.0046 -0.3784
    1WF      WF67756   2.383  21.428   7.375  0.0005 -0.1989  0.2386
    1WF      WF67757   8.968  10.813   8.633  0.0030  0.2418 -0.0867
    1WF      WF67758  15.609  13.010   0.639  0.0754  0.0117  0.5586
    1WF      WF67759  26.837  15.634   8.375  0.2462  0.2654 -0.2161
    1WF      WF67760   6.135  21.538   8.231  0.0360 -0.4693 -0.2307
    1WF      WF67761   7.101  14.877   8.097  0.0608 -0.0341  0.2647
    1WF      WF67762  22.563   8.395   7.913 -0.1489 -0.0562 -0.0006
    1WF      WF67763  20.052  28.282   0.451 -0.1475 -0.2145  0.0350
    1WF      WF67764  29.651  24.386   8.129  0.2934  0.2132 -0.0707
    1WF      WF67765   2.495  21.094   7.707 -0.1964  0.3495  0.1006
    1WF      WF67766  12.654  24.438   0.384  0.1689 -0.0295  0.2322
    1WF      WF67767  26.403   3.424   1.941  0.4654 -0.0470 -0.3908
    1WF      WF67768  26.288  19.436   0.382 -0.1678 -0.1982  0.1237
    1WF      WF67769  18.895   4.404   9.421 -0.0132  0.2231  0.1753
    1WF      WF67770  10.274   9.918   8.284  0.1021  0.0608  0.1471
    1WF      WF67771  17.268  10.335   8.153 -0.0207  0.2394  0.2586
    1WF      WF67772   0.484  21.243   8.695  0.1540  0.1935  0.1654
    1WF      WF67773   6.308  26.865   8.065  0.2002  0.1985 -0.1557
    1WF      WF67774  15.550  19.931   9.254  0.1231  0.1028 -0.1897
    1WF      WF67775  25.594  22.529   9.182  0.1037 -0.4215  0.0112
    1WF      WF67776   0.740   4.012   7.416 -0.1268 -0.1436  0.2292
    1WF      WF67777  16.471  23.250   0.886 -0.0667  0.0421  0.0366
    1WF      WF67778  11.569  16.675   1.150 -0.1751  0.0374  0.1918
    1WF      WF67779  13.790  23.872   7.705 -0.1003  0.0410 -0.1379
    1WF      WF67780  28.923   8.516   0.108 -0.1177  0.0934 -0.2332
    1WF      WF67781   6.021  15.301   8.283 -0.1863  0.1185  0.0965
    1WF      WF67782  15.502   5.790   1.927  0.2839  0.1962  0.1611
    1WF      WF67783  23.972  17.693   8.359  0.1672 -0.2591  0.3348
    1WF      WF67784  24.208  12.142   7.960  0.1679 -0.2941  0.0123
    1WF      WF67785  29.477  11.543   1.297  0.1708  0.1372  0.1863
    1WF      WF67786   8.431  17.726   9.147 -0.0562  0.1407  0.0199
    1WF      WF67787  12.454   5.379   2.356 -0.1749 -0.2293  0.1037
    1WF      WF67788  17.537  27.792   8.334  0.1827 -0.0641 -0.0996
    1WF      WF67789  11.659   7.670   1.085  0.0675 -0.1681  0.2211
    1WF      WF67790  29.867  16.835   0.993  0.4274 -0.1485  0.1034
    1WF      WF67791  22.851  12.007   8.020 -0.0402  0.0313  0.1417
    1WF      WF67792   1.785  18.246   8.230 -0.1247 -0.2385  0.1324
    1WF      WF67793   5.044  24.049   9.270  0.2357 -0.1470  0.5148
    1WF      WF67794  21.932  27.570   0.880 -0.1060 -0.2726  0.1180
    1WF      WF67795   6.628  25.947   9.243  0.0380 -0.1915 -0.0839
    1WF      WF67796  26.164   8.601   9.036  0.1430 -0.0267  0.0213
    1WF      WF67797  11.847  28.010   7.302 -0.0195 -0.2548 -0.0976
    1WF      WF67798  21.118  27.924   9.112 -0.2297  0.2557  0.0470
    1WF      WF67799  27.124  15.020   2.634  0.2655  0.1577 -0.1321
    1WF      WF67800  24.148   3.595   2.525 -0.0572 -0.4230 -0.0301
    1WF      WF67801  28.144   2.593   9.003  0.0363  0.0240 -0.0189
    1WF      WF67802  14.695  11.570   8.614  0.0228 -0.2788  0.1190
    1WF      WF67803   5.340  10.959   6.318 -0.0789  0.2119 -0.2855
    1WF      WF67804   4.508  20.946   0.650  0.1554  0.2774  0.1168
    1WF      WF67805  23.813   6.711   0.588  0.0827 -0.1407  0.0631
    1WF      WF67806  20.729  20.146   3.149  0.0595  0.2936 -0.0590
    1WF      WF67807  13.659  20.052   7.742 -0.1858  0.0487  0.1256
    1WF      WF67808   6.419   2.786   2.475  0.1965 -0.2244  0.0379
    1WF      WF67809  12.637  16.591   9.463 -0.2113 -0.0602 -0.2403
    1WF      WF67810  15.341  29.064   8.531  0.0572 -0.1766 -0.5514
    1WF      WF67811   6.138  28.666   9.308 -0.0285 -0.1436  0.2155
    1WF      WF67812   8.309  25.695   0.323 -0.0953 -0.4832 -0.0771
    1WF      WF67813  15.135  10.238   0.286  0.4002  0.1940  0.2122
    1WF      WF67814   8.633  21.072   6.625 -0.0445  0.1192 -0.1306
    1WF      WF67815  12.272  24.955   1.240  0.0210  0.3780  0.0741
    1WF      WF67816   2.804   4.613   8.849  0.1839 -0.0673  0.2041
    1WF      WF67817   4.485  14.128   8.646  0.3176 -0.1884 -0.1152
    1WF      WF67818   9.010  17.160   0.301  0.0769  0.2363  0.2246
    1WF      WF67819  21.732   5.809   8.003 -0.2285  0.2399  0.2258
    1WF      WF67820   4.044   4.278   8.500  0.2086 -0.0215 -0.0679
    1WF      WF67821  23.436  27.179   0.735  0.1694  0.1726  0.1445
    1WF      WF67822  15.442  20.520   7.987  0.1446 -0.0705  0.1290
    1WF      WF67823  11.168   5.849   0.065  0.1552 -0.1272  0.1829
    1WF      WF67824  21.657  18.184   9.346 -0.0401 -0.0897  0.1128
    1WF      WF67825  21.421  28.291   9.184  0.0852 -0.1677 -0.2672
    1WF      WF67826  25.609  15.492   0.032 -0.2456 -0.2121 -0.2693
    1WF      WF67827   6.635  29.097   7.318  0.0487 -0.1752 -0.1978
    1WF      WF67828  28.781  10.798   2.043 -0.0691 -0.0578 -0.1404
    1WF      WF67829  27.302   7.050   7.423 -0.0564  0.2063  0.2712
    1WF      WF67830  28.047  18.106   8.544  0.1144  0.2017  0.0122
    1WF      WF67831  17.620  11.420   8.810  0.2033  0.1913  0.0176
    1WF      WF67832  11.454   1.463   1.984 -0.1252 -0.2423  0.0447
    1WF      WF67833  19.042  16.599   0.289 -0.0437  0.2787  0.0630
    1WF      WF67834  20.429  22.525   7.879  0.1837  0.2430 -0.1293
    1WF      WF67835   0.274   8.830   1.987 -0.3013  0.1093  0.3553
    1WF      WF67836   5.772  17.254   1.141  0.2077  0.1090  0.1059
    1WF      WF67837   3.704  10.499   7.993  0.1220  0.2856 -0.0684
    1WF      WF67838   8.115  13.026   2.310 -0.2162  0.2659  0.3743
    1WF      WF67839  13.532  26.942   7.794  0.3654  0.2478  0.1931
    1WF      WF67840  17.308  20.329   8.815 -0.0612 -0.1714 -0.3203
    1WF      WF67841  26.882  24.245   9.153 -0.1989 -0.0211 -0.0760
    1WF      WF67842   2.419  20.028   7.760  0.0573 -0.1761  0.0556
    1WF      WF67843   6.736  12.948   7.548  0.0889  0.0152 -0.1606
    1WF      WF67844   8.561  11.340   8.740  0.1635  0.2395  0.1373
    1WF      WF67845  12.130  18.484   0.675  0.2023  0.1936  0.1739
    1WF      WF67846  19.887   7.573   1.005 -0.0621 -0.2612 -0.1507
    1WF      WF67847   4.103  22.878   7.554  0.1250 -0.0184  0.1352
    1WF      WF67848   9.034   5.353   7.579 -0.4358 -0.3698 -0.2669
    1WF      WF67849  23.864  13.643   0.556 -0.4051  0.0213 -0.0844
    1WF      WF67850   8.302  25.375   9.387  0.4289  0.1606 -0.1586
    1WF      WF67851  29.308  26.389   6.973  0.1610 -0.1948  0.2548
    1WF      WF67852  25.150  11.652   8.403 -0.0480  0.2167  0.5078
    1WF      WF67853   5.643  22.840   0.861  0.1100 -0.2137 -0.1542
    1WF      WF67854  12.761  14.663   9.082  0.0487 -0.0641  0.0211
    1WF      WF67855   3.620  17.052   2.314 -0.2942  0.0591 -0.0074
    1WF      WF67856   7.808  28.518   8.192  0.1866 -0.1807  0.4864
    1WF      WF67857  19.095  23.580   7.620  0.2193 -0.1798  0.0517
    1WF      WF67858   3.988  21.755   8.951 -0.2301 -0.0781  0.0699
    1WF      WF67859   3.259   1.278   6.635  0.0983  0.1594  0.0892
    1WF      WF67860   2.997   0.102   8.901 -0.0763 -0.0546  0.2882
    1WF      WF67861  20.300   0.304   0.663 -0.2322  0.0858  0.1015
    1WF      WF67862   5.579  18.544   2.269 -0.0802 -0.2134  0.0964
    1WF      WF67863  18.810  18.153   8.458  0.1097 -0.1703 -0.2122
    1WF      WF67864  29.190  19.864   1.141  0.1577  0.0726 -0.1304
    1WF      WF67865  28.329   8.551   8.508 -0.0968  0.1622  0.0259
    1WF      WF67866  11.095  21.838   8.487  0.3180 -0.0531  0.2643
    1WF      WF67867  27.959  15.271   0.164 -0.0902  0.3738 -0.2997
    1WF      WF67868   7.296  16.966   9.120 -0.1358  0.3329  0.0237
    1WF      WF67869  11.793  15.988   8.429  0.0780 -0.0181 -0.0781
    1WF      WF67870  10.270   6.795   0.940  0.0192 -0.0155  0.1587
    1WF      WF67871   6.805  17.418   0.889 -0.3331 -0.2080 -0.1956
    1WF      WF67872   8.139  12.991   7.259 -0.3313 -0.0619 -0.0625
    1WF      WF67873  21.938   9.278   1.086  0.0292  0.2314  0.3519
    1WF      WF67874   0.409  14.320   9.310 -0.4175 -0.3718  0.0854
    1WF      WF67875  24.688  14.058   7.664 -0.0959 -0.0419  0.1521
    1WF      WF67876   7.156   4.628   3.462 -0.3455 -0.3016 -0.1181
    1WF      WF67877  21.050  15.959   0.862 -0.2190 -0.2274  0.0341
    1WF      WF67878  16.623  17.028   9.124  0.3339 -0.1217 -0.1422
    1WF      WF67879  17.708  27.524   9.354 -0.2649  0.1803  0.3065
    1WF      WF67880   6.283   1.972   0.770 -0.1858  0.3449 -0.0111
    1WF      WF67881   6.124   8.949   3.654  0.0332  0.1267  0.1015
    1WF      WF67882   7.460   0.238   8.824 -0.0676 -0.1322 -0.1244
    1WF      WF67883   3.757  28.591   7.765 -0.0311  0.4908 -0.2503
    1WF      WF67884  29.048  17.954   8.594 -0.1681  0.0965  0.0619
    1WF      WF67885   1.510  13.505   7.863 -0.0528 -0.2978 -0.0592
    1WF      WF67886   8.025  25.112   0.987 -0.2403 -0.1142 -0.2562
    1WF      WF67887   3.093   7.666   8.210  0.1766 -0.2103  0.2006
    1WF      WF67888   9.048  27.906   8.098  0.0178  0.0201  0.0350
    1WF      WF67889  16.682   2.642   2.038 -0.0223 -0.2437 -0.0092
    1WF      WF67890   4.002  10.107   1.018 -0.0265  0.0362  0.1303
    1WF      WF67891  29.139  24.495   8.299  0.3270  0.2465  0.2198
    1WF      WF67892   7.535  17.034   7.554  0.3428  0.0497  0.3986
    1WF      WF67893  25.373  19.583   1.743  0.2308  0.0703  0.1540
    1WF      WF67894   0.572  21.466   1.121 -0.0199  0.3135 -0.0577
    1WF      WF67895   9.427  12.159   0.614  0.0431  0.2767 -0.3726
    1WF      WF67896  16.304  10.288   0.356 -0.0292 -0.1378  0.0069
    1WF      WF67897  24.694  26.652   8.286  0.2103 -0.4605 -0.3164
    1WF      WF67898   1.127  20.023   7.376 -0.1846  0.1169 -0.0993
    1WF      WF67899  21.955  12.115   0.830  0.0197 -0.1129 -0.1917
    1WF      WF67900  21.694  18.312   0.908 -0.2364  0.2628  0.0766
    1WF      WF67901  23.029  10.358   7.408 -0.0523  0.2278 -0.4263
    1WF      WF67902  24.074  20.737   0.770  0.1530 -0.0445 -0.0362
    1WF      WF67903  14.250  24.063   7.880  0.0118  0.3811  0.0849
    1WF      WF67904   2.898   2.559   8.060  0.1452 -0.0808  0.0030
    1WF      WF67905   1.215   8.228   1.590  0.0714 -0.1945 -0.1396
    1WF      WF67906   4.828   4.175   1.261 -0.2267  0.1462  0.2109
    1WF      WF67907  17.992  17.110   8.990  0.0411  0.0339 -0.1349
    1WF      WF67908  28.652   8.983   7.109 -0.2705  0.0921  0.1183
    1WF      WF67909  28.816   6.338   0.171  0.1974  0.2175 -0.0348
    1WF      WF67910  29.083  16.445   0.020  0.0175 -0.0734  0.1773
    1WF      WF67911  15.035   7.927   0.248 -0.0291  0.0627 -0.1647
    1WF      WF67912  13.219  27.905   0.181  0.3172 -0.1916 -0.2181
    1WF      WF67913  26.622  21.316   9.103 -0.0229 -0.1569 -0.1780
    1WF      WF67914  22.666   7.211   8.410 -0.3194  0.1435 -0.1844
    1WF      WF67915  10.832   4.759   8.725 -0.0980  0.3152  0.0092
    1WF      WF67916  29.598  14.463   0.267 -0.2555 -0.1560 -0.1656
    1WF      WF67917   5.326   3.979   1.014  0.0316 -0.0252  0.1108
    1WF      WF67918  22.765  11.467   7.921  0.2637  0.0713 -0.1516
    1WF      WF67919  13.528  19.081   0.083 -0.1000 -0.0949 -0.0576
    1WF      WF67920   6.039  27.735   2.176 -0.1215  0.3713 -0.2155
    1WF      WF67921  14.590  11.900   8.134 -0.0644  0.0574  0.2227
    1WF      WF67922  18.571  15.340   8.896  0.0309  0.1903  0.1074
    1WF      WF67923  28.749   2.691   1.610  0.1858 -0.2804  0.2594
    1WF      WF67924   8.681   7.192   9.334 -0.1609 -0.0942  0.1949
    1WF      WF67925   8.259  11.909   1.725 -0.0442 -0.0199 -0.4886
    1WF      WF67926  24.133   8.301   8.768 -0.1757 -0.2273  0.1969
    1WF      WF67927  14.307  28.138   3.540 -0.0899  0.0342 -0.0235
    1WF      WF67928   3.723   7.889   2.396  0.1619  0.0463 -0.3503
    1WF      WF67929  29.322  17.266   1.241 -0.0795  0.2305  0.0628
    1WF      WF67930   5.715  25.184   0.454  0.1829  0.1895  0.1086
    1WF      WF67931  19.548   8.440   6.492  0.1192 -0.2371 -0.0311
    1WF      WF67932  26.946   4.212   0.465 -0.1164  0.5195 -0.1381
    1WF      WF67933   9.838   4.621   2.605  0.0471  0.0651 -0.0262
    1WF      WF67934   8.474   4.568   1.191  0.0555  0.1322 -0.3177
    1WF      WF67935  15.538  19.775   0.936 -0.0154 -0.1895  0.2203
    1WF      WF67936   0.244   2.018   2.594 -0.1434 -0.1697  0.1957
    1WF      WF67937  16.334   7.521   9.325 -0.1216  0.0415 -0.2014
    1WF      WF67938  13.687   9.174   1.190 -0.0951  0.0493  0.0776
    1WF      WF67939  12.450  28.944   0.113 -0.3318 -0.0452 -0.1995
    1WF      WF67940  13.907   0.714   1.884  0.2984 -0.2336 -0.2068
    1WF      WF67941  26.811  10.825   0.399  0.0860  0.1728  0.1658
    1WF      WF67942   8.859  17.624   0.240 -0.1999  0.0657  0.4098
    1WF      WF67943  26.063  13.327   7.777 -0.1554 -0.2798  0.0197
    1WF      WF67944  26.933  19.054   6.601 -0.1597 -0.2615  0.0801
    1WF      WF67945  18.826  28.545   8.017 -0.1924  0.2590  0.1199
    1WF      WF67946  27.588   1.993   6.553 -0.1576 -0.0333 -0.1140
    1WF      WF67947  12.353  28.890   9.123  0.0738 -0.1271  0.1332
    1WF      WF67948   6.505   6.615   0.020 -0.2614 -0.1923  0.1020
    1WF      WF67949   9.911  20.172   1.486 -0.0320 -0.1090  0.2414
    1WF      WF67950   8.814  19.161   9.157 -0.0266  0.1645  0.0731
    1WF      WF67951  22.180  27.520   0.421  0.3931 -0.3375  0.1357
    1WF      WF67952  28.946   9.359   7.178 -0.2871 -0.4609 -0.0412
    1WF      WF67953  11.818  18.938   7.171  0.2121  0.0295  0.0374
    1WF      WF67954  26.954   2.870   8.780  0.0639 -0.2691 -0.0810
    1WF      WF67955   8.443  18.730   6.312  0.0429  0.0809  0.0273
    1WF      WF67956  16.852   4.639   8.445 -0.1389  0.1130 -0.1163
    1WF      WF67957   4.038   6.053   9.441 -0.0096  0.3995  0.0942
    1WF      WF67958  12.123  22.401   0.361 -0.3718 -0.5282 -0.0845
    1WF      WF67959  15.982   4.691   8.679  0.0886  0.0614 -0.6164
    1WF      WF67960  13.131   7.359   9.233  0.0138 -0.0491 -0.1742
    1WF      WF67961   3.965  10.053   1.555 -0.1359 -0.2576  0.0976
    1WF      WF67962   6.108   7.592   8.797 -0.0725  0.3621  0.1020
    1WF      WF67963  13.525  24.950   7.849  0.0263  0.1937 -0.1128
    1WF      WF67964   6.618  24.717   2.747 -0.1682  0.1533 -0.0539
    1WF      WF67965  23.942  10.419   0.796 -0.0819  0.0507 -0.0080
    1WF      WF67966   4.893  11.484   7.963 -0.2639  0.2669  0.1751
    1WF      WF67967  29.906  14.262   0.603 -0.0992 -0.2860  0.0845
    1WF      WF67968  15.606   4.437   8.521  0.0219  0.0886 -0.1683
    1WF      WF67969  28.978  21.789   8.499  0.3133  0.0185  0.1490
    1WF      WF67970  27.544  24.104   1.731 -0.0589 -0.0773 -0.2561
    1WF      WF67971  16.138  24.080   8.526  0.0168  0.0024 -0.0715
    1WF      WF67972  17.679   6.332   2.320  0.1695 -0.0602 -0.0427
    1WF      WF67973   5.598  16.268   0.012  0.0111  0.0350  0.2060
    1WF      WF67974  10.827  25.433   8.011  0.1608 -0.2448  0.1252
    1WF      WF67975   5.441   5.141   6.600  0.0205  0.0353  0.3236
    1WF      WF67976  15.174   6.839   1.323 -0.2809 -0.2505 -0.0572
    1WF      WF67977   6.951  28.992   9.145 -0.2771 -0.1138 -0.0481
    1WF      WF67978  19.448  27.602   8.714 -0.0237  0.1289  0.2535
    1WF      WF67979  18.356  27.401   6.447  0.2138 -0.1463  0.2283
    1WF      WF67980  19.611   5.997   8.875  0.2792 -0.0246  0.0002
    1WF      WF67981  28.509  18.153   8.735  0.1504 -0.0779  0.0344
    1WF      WF67982   6.832  28.736   8.747 -0.3166  0.1913  0.4776
    1WF      WF67983  24.247  14.593   0.413 -0.3899  0.1225 -0.3135
    1WF      WF67984  29.277  16.896   0.038 -0.1767  0.1528  0.3675
    1WF      WF67985  12.442  19.874   8.867  0.0395 -0.0299  0.0202
    1WF      WF67986  26.896  26.763   9.437 -0.2155 -0.2325 -0.1138
    1WF      WF67987   3.553  20.986   7.829  0.2664  0.1444  0.0381
    1WF      WF67988  29.530  13.935   0.327 -0.1464  0.0503  0.1255
    1WF      WF67989  12.289  16.801   9.184  0.2198  0.0983 -0.0398
    1WF      WF67990  19.938  24.971   7.919 -0.0448 -0.1672  0.1973
    1WF      WF67991  15.612  28.883   3.504  0.1944  0.1217  0.1693
    1WF      WF67992  10.381   9.653   7.874 -0.0282 -0.1623  0.1996
    1WF      WF67993  28.198  25.420   0.334 -0.1064 -0.1566  0.2904
    1WF      WF67994  26.338  18.751   9.355 -0.0010 -0.0464  0.0067
    1WF      WF67995  20.343   6.256   8.664  0.0564  0.0232 -0.0408
    1WF      WF67996   7.572  24.618   7.568  0.1125 -0.2507 -0.3241
    1WF      WF67997  27.534  13.512   9.154 -0.2176 -0.2931  0.2894
    1WF      WF67998  21.027  13.444   1.394 -0.0782  0.0496 -0.2603
    1WF      WF67999  11.324  29.739   1.052  0.2626 -0.0777  0.0717
    1WF      WF68000  16.019  26.699   8.733 -0.2773  0.0065 -0.0999
    1WF      WF68001  27.250   8.115   0.554  0.3406 -0.2639 -0.2719
    1WF      WF68002  22.850  10.212   6.982 -0.1670 -0.0186  0.2088
    1WF      WF68003  15.498  14.472   8.405 -0.0318  0.0549  0.1717
    1WF      WF68004  29.156  17.788   7.122  0.0621 -0.1461 -0.0351
    1WF      WF68005   5.184  23.411   1.371  0.3655  0.0948 -0.1498
    1WF      WF68006  22.387  12.359   7.817 -0.1005 -0.1234  0.1542
    1WF      WF68007  18.095  14.149   1.090  0.1583 -0.1907 -0.2719
    1WF      WF68008  26.568   8.641   0.703  0.0617 -0.1242 -0.0041
    1WF      WF68009  21.917  12.116   1.319 -0.0389  0.1870 -0.0867
    1WF      WF68010   8.279   9.644   9.145  0.2297 -0.1549  0.0365
    1WF      WF68011  24.228   6.528   0.859 -0.1546  0.0469 -0.1312
    1WF      WF68012  27.049  11.610   8.297 -0.0408 -0.2857  0.3591
    1WF      WF68013   8.574  12.595   9.145  0.0164 -0.3156 -0.1774
    1WF      WF68014  11.954   7.449   1.376 -0.3127  0.2858 -0.1589
    1WF      WF68015  25.507  12.955   7.869  0.2526  0.1421 -0.2837
    1WF      WF68016   2.764  18.153   7.409  0.1076 -0.2664  0.1419
    1WF      WF68017  27.013  14.561   9.081 -0.2414  0.1221 -0.1278
    1WF      WF68018  16.477  23.171   6.816  0.2656 -0.1174 -0.1345
    1WF      WF68019   8.624   7.054   2.168  0.4961  0.0031 -0.4519
    1WF      WF68020  10.630   3.425   2.382  0.2477 -0.4146  0.2799
    1WF      WF68021  23.358   6.882   0.379  0.0238  0.5020 -0.2960
    1WF      WF68022  17.789  19.893   8.743  0.3314 -0.2409 -0.0977
    1WF      WF68023   5.238  24.688   7.235  0.3063  0.1455 -0.1029
    1WF      WF68024  18.081  13.209   8.907 -0.1725  0.3634  0.2067
    1WF      WF68025   1.140  27.040   1.346 -0.1490  0.1539  0.0474
    1WF      WF68026  25.711  18.830   2.973  0.0921  0.2453  0.1266
    1WF      WF68027  27.732  14.672   1.727 -0.0580  0.1943 -0.2304
    1WF      WF68028  27.081  11.131   8.373  0.2382  0.1299 -0.2077
    1WF      WF68029   0.019  14.118   0.104  0.1247 -0.0722 -0.1924
    1WF      WF68030  12.477  25.313   7.022  0.0765  0.1348 -0.1561
    1WF      WF68031  25.416  23.756   9.023 -0.2450  0.0684 -0.0818
    1WF      WF68032   6.709  11.867   0.393 -0.1137 -0.2540 -0.1535
    1WF      WF68033   2.537  22.260   0.915 -0.1568  0.0502  0.0612
    1WF      WF68034   6.848  29.542   1.342  0.1068  0.2216 -0.0422
    1WF      WF68035   8.014  22.633   7.935 -0.0224 -0.2677 -0.0072
    1WF      WF68036   8.534   5.394   6.470  0.0717 -0.4076 -0.0514
    1WF      WF68037  25.900  17.897   0.543 -0.2423 -0.0007  0.0631
    1WF      WF68038   1.449  21.713   8.561  0.3080  0.1404  0.2329
    1WF      WF68039  15.147   1.631   7.189  0.0981 -0.1308  0.0255
    1WF      WF68040  13.798  13.332   0.526  0.1586 -0.0635  0.0535
    1WF      WF68041  17.910  18.039   8.248 -0.0989  0.2463 -0.0764
    1WF      WF68042  12.752  25.895   8.245  0.0905  0.0518 -0.0462
    1WF      WF68043  18.085   1.576   1.078  0.2657  0.0587 -0.1607
    1WF      WF68044   5.627   6.458   3.699  0.2256 -0.0082  0.1959
    1WF      WF68045   2.930   8.191   8.264 -0.0612  0.0616  0.0486
    1WF      WF68046  15.724  14.963   8.346 -0.1404  0.3940  0.2388
    1WF      WF68047  16.626  29.710   1.060 -0.1648 -0.1103 -0.3297
    1WF      WF68048   9.964  23.130   0.549  0.1398  0.0705 -0.1977
    1WF      WF68049  25.037  22.933   0.849 -0.2161 -0.1152  0.0543
    1WF      WF68050   2.338   4.506   8.563  0.0786  0.0882 -0.2566
    1WF      WF68051  11.589   7.814   9.352  0.0963 -0.1318  0.2085
    1WF      WF68052   1.226  27.468   1.601  0.4494  0.3361 -0.1102
    1WF      WF68053  25.512  13.464   6.990  0.2600 -0.0022  0.0092
    1WF      WF68054  23.086  13.289   0.836 -0.1522  0.0624  0.1619
    1WF      WF68055   1.359  18.182   2.177 -0.0826  0.0866 -0.1725
    1WF      WF68056  23.488   2.479   7.988 -0.0708 -0.0744  0.2819
    1WF      WF68057  28.174   7.001   8.064  0.3171 -0.1025 -0.1016
    1WF      WF68058  23.838  24.438   9.167  0.0198 -0.1911 -0.1015
    1WF      WF68059  23.520  14.509   8.568  0.0023 -0.0803  0.0816
    1WF      WF68060   2.326   9.321   2.054  0.0299  0.0584  0.2691
    1WF      WF68061  29.507  16.467   8.027  0.0302 -0.0720 -0.0306
    1WF      WF68062   1.996  10.947   2.708  0.2635 -0.0413 -0.2672
    1WF      WF68063  20.737  24.008   7.548  0.0012  0.1903  0.2053
    1WF      WF68064  21.786  28.585   9.337  0.0355 -0.0460  0.2896
    1WF      WF68065   1.797  25.482   0.597  0.2323 -0.0573  0.1216
    1WF      WF68066   0.726  26.605   7.927 -0.1995 -0.3171 -0.0015
    1WF      WF68067  11.244   9.064   1.022  0.1630  0.0453 -0.0111
    1WF      WF68068  29.578  25.533   0.057  0.3759 -0.0165  0.0158
    1WF      WF68069   3.096  12.916   6.902  0.1391 -0.1947  0.3433
    1WF      WF68070   8.702   6.150   8.513  0.0403  0.0971  0.0528
    1WF      WF68071  15.896   5.623   1.723  0.1379 -0.0760 -0.3456
    1WF      WF68072  21.046   5.679   0.465  0.3014  0.0873  0.0181
    1WF      WF68073  21.837  25.014   8.508 -0.1546 -0.0866  0.2175
    1WF      WF68074   8.612   0.736   1.556 -0.0537 -0.1501 -0.4212
    1WF      WF68075  12.159  17.988   0.927  0.0631  0.0972  0.0028
    1WF      WF68076  25.508  28.999   2.581 -0.1826  0.0380  0.3283
    1WF      WF68077  26.387  24.221   9.014  0.2301 -0.1993 -0.0132
    1WF      WF68078  20.999  14.261   8.155 -0.2541 -0.1202 -0.1147
    1WF      WF68079  12.996  15.066   9.192 -0.0927  0.1955 -0.1741
    1WF      WF68080  26.142  20.592   7.384 -0.4167  0.0707 -0.1451
    1WF      WF68081   2.760  22.042   2.602 -0.2083  0.1889 -0.1222
    1WF      WF68082   0.604  28.973   2.020 -0.3149 -0.0198  0.1180
    1WF      WF68083   0.512   1.201   7.544  0.1974 -0.1303 -0.3052
    1WF      WF68084   1.428   3.358   8.640 -0.2189 -0.2418  0.0539
    1WF      WF68085  10.845   9.123   1.466 -0.0034 -0.2138  0.0597
    1WF      WF68086  13.928  22.846   7.414 -0.1382  0.2353 -0.0909
    1WF      WF68087  13.710  28.814   0.112 -0.3719  0.0319 -0.0940
    1WF      WF68088   5.147  28.211   0.465  0.0903 -0.2250  0.1938
    1WF      WF68089  11.886  28.263   8.712  0.0227  0.1099 -0.1153
    1WF      WF68090  28.496   1.534   1.044  0.0305 -0.1735  0.1585
    1WF      WF68091  13.665  25.091   8.927 -0.2337 -0.1269  0.0173
    1WF      WF68092  10.950  29.787   1.363 -0.0931 -0.0216 -0.1861
    1WF      WF68093  20.139  14.913   9.149 -0.2308  0.0949 -0.0198
    1WF      WF68094   2.108  24.513   1.791  0.3001 -0.1688 -0.3240
    1WF      WF68095   0.509  24.403   7.570 -0.1742 -0.0837 -0.0780
    1WF      WF68096   3.551  22.460   0.885  0.1460 -0.0441  0.1505
    1WF      WF68097   0.900   9.733   8.156 -0.0445  0.2098 -0.0431
    1WF      WF68098   0.157   6.581   8.004  0.2809 -0.3193  0.1024
    1WF      WF68099  10.518   5.504   2.654  0.2618 -0.1358 -0.2639
    1WF      WF68100   0.535  28.642   9.279 -0.0631 -0.4765 -0.1185
    1WF      WF68101  18.731  14.876   9.111 -0.0663  0.1282 -0.0818
    1WF      WF68102  23.471   2.600   0.141 -0.1437  0.0504 -0.0261
    1WF      WF68103  28.858  17.496   7.497 -0.4350  0.4695 -0.2461
    1WF      WF68104  24.859   2.871   0.269 -0.1220 -0.1298  0.0996
    1WF      WF68105   0.458  28.754   8.762 -0.0651  0.1779  0.1194
    1WF      WF68106  28.676  20.343   9.320  0.1232 -0.0316 -0.3104
    1WF      WF68107  29.607   4.583   0.897 -0.1681 -0.3507  0.0816
    1WF      WF68108  15.367  15.298   0.908 -0.0857 -0.1193 -0.0800
    1WF      WF68109  22.836  17.997   8.260 -0.2031 -0.2155  0.4027
    1WF      WF68110  13.505   1.585   0.214  0.3458  0.0648 -0.0895
    1WF      WF68111  14.429  10.368   0.905  0.1685 -0.2663 -0.2715
    1WF      WF68112  13.247   9.300   6.806 -0.1043 -0.1485 -0.0311
    1WF      WF68113  21.091  15.675   1.318  0.0451 -0.1465 -0.2196
    1WF      WF68114   9.590  20.710   7.182  0.1609  0.3051 -0.0513
    1WF      WF68115  10.495  10.195   9.132  0.0918  0.1763  0.0291
    1WF      WF68116  10.369  18.945   8.561  0.1886 -0.0993 -0.4062
    1WF      WF68117   9.145   5.532   3.253  0.0828  0.1141 -0.2188
    1WF      WF68118   0.273  13.220   1.102 -0.0221  0.3953  0.1617
    1WF      WF68119  28.497  25.642   2.988  0.2426  0.0888  0.1200
    1WF      WF68120   2.773  13.738   0.885  0.0675 -0.1135  0.0636
    1WF      WF68121  18.718   6.282   0.545  0.0724 -0.0011  0.0583
    1WF      WF68122  11.439  25.969   1.319 -0.0742  0.1189 -0.2629
    1WF      WF68123   9.545   1.572   8.483  0.1517  0.0502  0.3214
    1WF      WF68124   4.611  23.252   2.826 -0.0969  0.3657 -0.1800
    1WF      WF68125  19.882   7.141   8.954 -0.1386  0.0970 -0.1272
    1WF      WF68126   9.023   7.436   9.076 -0.0013  0.0318  0.2592
    1WF      WF68127  26.484  16.700   0.114  0.4000 -0.1082  0.3493
    1WF      WF68128  21.551  22.528   1.353 -0.0877 -0.3687 -0.2882
    1WF      WF68129  18.771   6.009   0.949 -0.2293  0.4313 -0.2902
    1WF      WF68130   4.997   1.066   8.939  0.1673 -0.1997  0.2524
    1WF      WF68131  16.591  17.486   9.398  0.0642 -0.2588 -0.2366
    1WF      WF68132   2.933   5.096   9.410  0.0601 -0.1467  0.2918
    1WF      WF68133  28.738  17.569   1.215 -0.2892  0.1158 -0.2658
    1WF      WF68134  19.207  11.270   8.885 -0.1731  0.0064  0.0687
    1WF      WF68135  26.193  22.786   3.184 -0.3055 -0.0147 -0.0675
    1WF      WF68136  23.831   3.074   6.877 -0.1638 -0.1748 -0.1077
    1WF      WF68137  20.399  26.483   0.122 -0.2001  0.0504  0.2370
    1WF      WF68138   7.439  17.870   8.944  0.2416  0.2139  0.3592
    1WF      WF68139   3.574   5.910   1.542  0.1401 -0.0839  0.2676
    1WF      WF68140  28.588  25.677   2.463  0.0148 -0.2509  0.0257
    1WF      WF68141  22.685  24.636   9.417 -0.0283 -0.0967  0.1267
    1WF      WF68142   8.959  17.610   9.212 -0.2068 -0.0794 -0.4531
    1WF      WF68143  12.899  17.303   6.694  0.0720 -0.0645 -0.1913
    1WF      WF68144  15.337  21.987   9.324 -0.2909  0.3753 -0.0483
    1WF      WF68145   7.141  15.451   8.015 -0.1360 -0.0101  0.3048
    1WF      WF68146   2.425  11.408   9.105 -0.0303 -0.1700 -0.2322
    1WF      WF68147  25.408  10.792   6.117 -0.1658  0.1422  0.4933
    1WF      WF68148  18.857   5.826   1.394  0.0298  0.0226  0.2459
    1WF      WF68149   7.502  10.713   8.150 -0.1833  0.1131  0.0438
    1WF      WF68150  16.195   1.826   7.510 -0.2597 -0.2783 -0.1180
    1WF      WF68151  13.004  19.524   8.205 -0.0434  0.1702 -0.1750
    1WF      WF68152  23.970  28.422   0.309  0.0067  0.0736 -0.1154
    1WF      WF68153   8.508  11.399   1.696 -0.1232 -0.0596 -0.1937
    1WF      WF68154  16.972  21.471   7.494  0.2342 -0.3074 -0.1119
    1WF      WF68155   0.891  20.825   2.557  0.1782 -0.2505 -0.1941
    1WF      WF68156   7.107  11.027   2.994  0.1588 -0.4126 -0.1330
    1WF      WF68157   9.537  18.467   8.650  0.3969 -0.1569 -0.1093
    1WF      WF68158  25.573  20.523   1.112 -0.0363  0.0383  0.0474
    1WF      WF68159  10.979  11.574   1.893  0.0731  0.0832 -0.1694
    1WF      WF68160   1.066  26.150   9.352  0.0867  0.2594  0.4193
    1WF      WF68161   3.655  22.521   7.632 -0.0332  0.1343  0.2861
    1WF      WF68162   2.603  17.508   1.844 -0.4697 -0.1531 -0.0265
    1WF      WF68163  15.529   9.089   6.713 -0.1313 -0.0300  0.1411
    1WF      WF68164  12.225   2.163   7.247  0.1317 -0.2165  0.0764
    1WF      WF68165   7.115  17.165   0.611  0.1955  0.3971  0.2693
    1WF      WF68166  23.847  10.629   8.414  0.4120 -0.0440 -0.1215
    1WF      WF68167  17.834  10.149   0.359  0.2696 -0.2861 -0.4183
    1WF      WF68168   5.199  13.010   7.222 -0.0429  0.2434  0.0408
    1WF      WF68169  27.764   8.638   6.063 -0.1952  0.1748  0.0304
    1WF      WF68170   5.304  21.989   0.391 -0.0250  0.1599 -0.2003
    1WF      WF68171  15.050   7.172   0.623  0.1566 -0.0014  0.1591
    1WF      WF68172  26.663   0.904   0.477  0.0683 -0.0554 -0.1057
    1WF      WF68173  10.923  14.672   9.399  0.1064 -0.3318  0.2414
    1WF      WF68174  24.941  22.375   0.695 -0.1515  0.2303 -0.0021
    1WF      WF68175  20.868  28.999   1.499 -0.1749  0.1452  0.2188
    1WF      WF68176  14.138   2.875   3.746 -0.0515  0.1959  0.0806
    1WF      WF68177   1.195  17.959   1.771 -0.0824 -0.3719  0.0680
    1WF      WF68178   9.336  17.608   0.142 -0.0198 -0.0583 -0.2223
    1WF      WF68179  19.452   0.913   1.256 -0.1526 -0.0069  0.2660
    1WF      WF68180  22.828  28.679   8.879  0.1087  0.1318  0.0499
    1WF      WF68181   2.835  12.975   8.978 -0.3593  0.0397 -0.1324
    1WF      WF68182  24.233   5.944   8.087 -0.0273  0.0646 -0.0903
    1WF      WF68183  18.206   8.655   9.049 -0.2733  0.3078  0.2441
    1WF      WF68184   7.094   4.316   0.405  0.0334 -0.1954 -0.2646
    1WF      WF68185  28.432  12.831   8.879 -0.0153 -0.0073 -0.1039
    1WF      WF68186   6.563  17.011   7.287 -0.0697  0.1643  0.2050
    1WF      WF68187   8.918   2.222   2.196 -0.0036 -0.3513 -0.0513
    1WF      WF68188  23.573   3.252   1.834 -0.0912 -0.0111  0.1388
    1WF      WF68189  29.453  12.718   7.399 -0.4013  0.2621 -0.0553
    1WF      WF68190  21.463   3.237   8.642  0.1640  0.3224 -0.1638
    1WF      WF68191  10.804  25.889   7.721 -0.3048  0.0244  0.4618
    1WF      WF68192  24.695  26.221   8.576  0.1083  0.1151 -0.2589
    1WF      WF68193  21.762  13.794   0.020 -0.0114  0.0679  0.1741
    1WF      WF68194   1.500   6.584   1.376  0.0855 -0.1928  0.0740
    1WF      WF68195  18.065   4.913   0.512 -0.0882  0.1826  0.3103
    1WF      WF68196   3.779   4.753   0.584  0.3785  0.4457  0.0459
    1WF      WF68197  15.537  29.798   9.075 -0.1521  0.0555  0.3530
    1WF      WF68198  20.395  22.317   1.490 -0.0772 -0.0857 -0.0814
    1WF      WF68199   9.894  15.221   0.613 -0.0115 -0.0924  0.0362
    1WF      WF68200   3.725  19.339   8.759  0.1379 -0.2639 -0.0952
    1WF      WF68201   1.709  18.192   1.776 -0.0534 -0.0970 -0.2462
    1WF      WF68202  26.457  10.471   0.213  0.0721  0.1280 -0.2645
    1WF      WF68203  20.512   7.086   7.857 -0.0888 -0.0686  0.1762
    1WF      WF68204  22.979   7.103   0.631 -0.1853 -0.1360 -0.2264
    1WF      WF68205  25.898  23.973   9.059 -0.0558 -0.2869 -0.3918
    1WF      WF68206   9.091  18.539   8.367 -0.1092  0.2055  0.3613
    1WF      WF68207  29.593  11.212   0.891 -0.0754  0.2776  0.0285
    1WF      WF68208  25.516  15.731   6.190 -0.1893 -0.0752 -0.2197
    1WF      WF68209  13.717   2.555   7.425 -0.0069 -0.0384 -0.3025
    1WF      WF68210  23.176   0.250   0.296  0.4020  0.1242  0.1045
    1WF      WF68211  27.143  20.245   2.549  0.1311 -0.1723 -0.1634
    1WF      WF68212   9.494   6.082   4.073  0.0838  0.2974  0.1569
    1WF      WF68213  28.899  11.266   2.208 -0.2910  0.0823 -0.2065
    1WF      WF68214   2.793   2.035   1.469 -0.2322  0.0110 -0.1427
    1WF      WF68215  23.456  14.080   6.661  0.1726 -0.0113 -0.3149
    1WF      WF68216  24.665  27.068   8.571  0.3151  0.0301  0.0427
    1WF      WF68217  20.990  11.302   8.463 -0.0884 -0.0529  0.1491
    1WF      WF68218   1.317  21.205   0.292 -0.2154  0.4812 -0.2018
    1WF      WF68219   6.032  15.292   8.769  0.2339  0.0648  0.1591
    1WF      WF68220  16.454  14.432   8.682  0.1781 -0.0456 -0.2586
    1WF      WF68221  23.601  22.792   3.290  0.0016 -0.0443  0.0526
    1WF      WF68222  16.143  24.462   8.824  0.1715 -0.0364 -0.1072
    1WF      WF68223  27.363   3.006   8.564 -0.0488 -0.1384 -0.0854
    1WF      WF68224   1.826   3.351   8.363  0.0353 -0.0138  0.1458
    1WF      WF68225   3.436   0.281   8.777 -0.1740  0.1373  0.2411
    1WF      WF68226  17.342  22.176   9.147  0.0250  0.0939  0.1467
    1WF      WF68227   5.484  16.257   7.680 -0.2511  0.0228  0.0132
    1WF      WF68228  22.589   6.616   1.796 -0.1446  0.0346  0.0881
    1WF      WF68229  23.214  19.610   6.953 -0.1260 -0.3408 -0.0455
    1WF      WF68230   7.332   4.093   0.884  0.1930 -0.0319 -0.1629
    1WF      WF68231   1.572  17.408   9.229  0.1662  0.1073  0.3428
    1WF      WF68232  27.183  18.885   7.471 -0.2847 -0.2590  0.4490
    1WF      WF68233  17.842   1.976   1.282  0.0576  0.3450 -0.0348
    1WF      WF68234  16.020  11.504   9.340  0.1803 -0.3003 -0.0108
    1WF      WF68235  17.623  10.514   6.901 -0.4129 -0.2756 -0.1022
    1WF      WF68236  23.414   0.010   7.384 -0.0052  0.0733  0.0843
    1WF      WF68237  25.382  29.376   1.504  0.4162  0.1370  0.1854
    1WF      WF68238   5.845  23.066   8.146  0.3885 -0.2422  0.1024
    1WF      WF68239  13.013  27.515   8.209  0.1500  0.4137  0.2922
    1WF      WF68240  12.691   0.528   8.876 -0.2791 -0.2989 -0.1105
    1WF      WF68241  20.928  23.025   7.361 -0.1739  0.2036 -0.1150
    1WF      WF68242  15.536   3.059   0.432  0.0125  0.4618  0.0121
    1WF      WF68243  23.199  25.556   3.258  0.2664 -0.0321 -0.0097
    1WF      WF68244  11.329  24.463   7.527  0.0717  0.0287  0.0360
    1WF      WF68245   0.845   3.625   7.725  0.0037  0.0433  0.0012
    1WF      WF68246  17.137  24.114   7.974  0.0113 -0.1388 -0.1718
    1WF      WF68247  28.106   8.309   0.181  0.2394 -0.3142  0.0832
    1WF      WF68248  12.364   3.344   3.581 -0.3634 -0.1536 -0.2797
    1WF      WF68249  18.801   3.262   1.290 -0.1233  0.0393 -0.0228
    1WF      WF68250  25.552  25.470   2.144  0.0922  0.2162 -0.1685
    1WF      WF68251  15.031  27.240   2.171 -0.0807  0.0841  0.1433
    1WF      WF68252  29.644   7.229   1.297  0.0099  0.0061  0.0162
    1WF      WF68253   1.077   0.362   7.602  0.0663 -0.1232 -0.1783
    1WF      WF68254  18.040  13.918   0.598 -0.0950  0.1625 -0.1940
    1WF      WF68255   8.277  25.483   0.776  0.1276 -0.1961 -0.0749
    1WF      WF68256  26.603  25.565   7.858  0.0691  0.2275 -0.0103
    1WF      WF68257   2.205  25.403   7.591  0.0546  0.2680 -0.1889
    1WF      WF68258  14.088  28.808   1.160 -0.1470 -0.1171  0.0886
    1WF      WF68259   9.885  29.584   2.329 -0.1962 -0.0926  0.2846
    1WF      WF68260  19.395  18.788   1.400 -0.0147  0.0201  0.2078
    1WF      WF68261  23.363   3.297   6.732 -0.0676  0.0177  0.0778
    1WF      WF68262  11.790  18.227   0.428 -0.0797  0.3996  0.1856
    1WF      WF68263   0.833   0.914   7.956 -0.0414  0.1227  0.1450
    1WF      WF68264  28.044  28.047   0.365 -0.3064 -0.1720  0.2074
    1WF      WF68265   2.400   4.342   2.558  0.1387 -0.1839 -0.3573
    1WF      WF68266   0.859   6.311   3.731 -0.0900 -0.2391 -0.1732
    1WF      WF68267   6.523   6.835   9.034  0.2889  0.1630  0.1482
    1WF      WF68268  20.908  12.703   7.440 -0.2205 -0.2366 -0.0742
    1WF      WF68269   3.036  22.376   1.069  0.2132  0.0111  0.1886
    1WF      WF68270  23.036  11.000   6.688 -0.0340 -0.0691  0.0289
    1WF      WF68271  19.275  13.435   8.365 -0.2896  0.0709  0.2221
    1WF      WF68272   2.198  19.803   8.131  0.1511  0.2037 -0.3522
    1WF      WF68273  14.682  26.640   8.885  0.0912  0.2827  0.2742
    1WF      WF68274  21.413  23.944   1.317 -0.1171 -0.0324 -0.2422
    1WF      WF68275  22.725   7.506   7.480 -0.0563  0.0903 -0.0139
    1WF      WF68276  12.480  22.969   7.671 -0.0356  0.1773  0.1123
    1WF      WF68277  22.916  24.294   0.556 -0.3979  0.0756 -0.1614
    1WF      WF68278  23.478   9.568   6.543 -0.0654  0.1041  0.1688
    1WF      WF68279  20.636  26.326   3.141  0.0534  0.1387 -0.1263
    1WF      WF68280  29.007  28.351   8.328  0.2083  0.0438  0.1779
    1WF      WF68281  15.942  26.351   2.462  0.3118 -0.1801 -0.3563
    1WF      WF68282  15.122   8.747   8.586  0.0127  0.1970 -0.2742
    1WF      WF68283   0.804   9.671   9.280 -0.0817  0.2328  0.2480
    1WF      WF68284  22.434  14.834   0.807 -0.2037  0.0697 -0.1639
    1WF      WF68285  16.965  17.115   0.962 -0.0196  0.0006 -0.0707
    1WF      WF68286  20.540   0.468   0.244 -0.3318  0.4061  0.1420
    1WF      WF68287  14.039  14.667   9.172 -0.0240 -0.0400  0.0967
    1WF      WF68288   5.198   9.840   0.786  0.0943  0.1885  0.0108
    1WF      WF68289   7.425   6.032   1.354  0.1239 -0.1328  0.1912
    1WF      WF68290  27.834  16.208   1.367 -0.1112  0.2272  0.0734
    1WF      WF68291   7.870  13.483   9.169  0.2025  0.1929  0.1776
    1WF      WF68292   1.565   9.787   0.757 -0.0390  0.2171  0.0794
    1WF      WF68293   1.557  20.575   8.241  0.1611  0.1435 -0.2077
    1WF      WF68294   9.739  10.738   7.109  0.1385  0.0756 -0.1122
    1WF      WF68295  19.553  13.368   7.954 -0.1455  0.0756  0.0444
    1WF      WF68296  28.256   4.470   0.664  0.1331  0.0984 -0.2943
    1WF      WF68297  16.090   6.336   8.370 -0.1920 -0.0716 -0.2806
    1WF      WF68298   9.326  19.226   0.457  0.1518  0.2692 -0.0461
    1WF      WF68299   9.736   6.359   0.209  0.1064 -0.0324  0.1512
    1WF      WF68300  21.784   2.821   1.171  0.0224  0.0124 -0.1986
    1WF      WF68301  21.707  20.398   2.945 -0.0174  0.1279  0.4742
    1WF      WF68302   9.324  12.071   9.325  0.0749 -0.1322 -0.0041
    1WF      WF68303  12.370  29.419   0.494  0.1921  0.1431  0.0608
    1WF      WF68304  10.180  25.339   2.095  0.2798  0.4724 -0.0306
    1WF      WF68305   6.582  24.859   8.289  0.0665 -0.0883  0.0477
    1WF      WF68306  13.683  25.029   0.553  0.0235 -0.1430  0.1773
    1WF      WF68307  23.485  21.275   8.529 -0.1766  0.0822 -0.0397
    1WF      WF68308   5.599  21.196   7.770  0.0422  0.1649 -0.2822
    1WF      WF68309  13.827  19.460   1.139  0.3315 -0.0100  0.3590
    1WF      WF68310  23.734  22.282   6.545  0.0709 -0.0323  0.3626
    1WF      WF68311   3.897   2.226   1.105  0.0414  0.1042 -0.1311
    1WF      WF68312  10.012  16.375   0.749  0.3078 -0.1978  0.3820
    1WF      WF68313  20.586   4.203   0.388  0.2637 -0.0219 -0.0709
    1WF      WF68314  28.216  27.571   0.555  0.1893 -0.3935 -0.4474
    1WF      WF68315  13.520   8.398   2.072  0.0840  0.0815 -0.0662
    1WF      WF68316  22.236  18.074   0.276  0.3752  0.1401 -0.0830
    1WF      WF68317  17.786  19.426   8.923  0.0345  0.2975 -0.0541
    1WF      WF68318  19.662  21.207   8.027 -0.3671 -0.1333 -0.0583
    1WF      WF68319  12.374   2.953   1.705  0.1161 -0.3265 -0.2507
    1WF      WF68320  14.532  10.747   1.147 -0.0713  0.1059 -0.2174
    1WF      WF68321  14.582  19.932   9.435  0.0594 -0.1362  0.1836
    1WF      WF68322  25.435  17.732   9.366  0.2750 -0.0628  0.0952
    1WF      WF68323  14.363   0.958   2.334  0.1730 -0.0450  0.4049
    1WF      WF68324   5.436  24.423   0.474 -0.1782 -0.0558 -0.0186
    1WF      WF68325  14.477  17.593   6.364 -0.0719  0.0942 -0.3684
    1WF      WF68326  23.273  15.028   9.231  0.2197 -0.1635  0.0494
    1WF      WF68327  21.288   1.732   8.009 -0.1146  0.3496 -0.0224
    1WF      WF68328   9.530   6.260   2.474 -0.1493 -0.0532  0.0829
    1WF      WF68329  13.695   2.629   3.808 -0.0814 -0.3511  0.1263
    1WF      WF68330  23.040   6.406   7.018 -0.1749 -0.0496 -0.0480
    1WF      WF68331   6.672  27.388   7.591 -0.1814 -0.2106 -0.0647
    1WF      WF68332  20.321   7.219   1.082 -0.1900  0.1791 -0.1902
    1WF      WF68333  21.303  18.593   9.252 -0.0048  0.0357  0.0901
    1WF      WF68334  14.849  29.451   1.449 -0.2361  0.0457 -0.0536
    1WF      WF68335   6.283  19.557   8.254  0.0356  0.1775  0.1171
    1WF      WF68336  25.236  23.529   8.035 -0.0231 -0.1199  0.3319
    1WF      WF68337   1.232   5.405   1.130  0.3006  0.0922  0.0840
    1WF      WF68338   3.437  24.792   5.513  0.0212  0.3722  0.1725
    1WF      WF68339   7.111   4.719   7.466  0.2703 -0.0034  0.1246
    1WF      WF68340   9.774  11.833   9.107 -0.0915  0.0129 -0.0062
    1WF      WF68341   8.071   0.634   1.614  0.1722  0.0374 -0.0364
    1WF      WF68342  18.447   5.316   7.869 -0.0495 -0.0885 -0.1335
    1WF      WF68343  23.431  23.234   0.484 -0.1859  0.4123  0.1191
    1WF      WF68344  18.808  21.828   1.489 -0.2061  0.0196 -0.1087
    1WF      WF68345   0.511  26.023   7.441 -0.3372  0.2878 -0.0830
    1WF      WF68346   8.789  15.376   2.093  0.3078 -0.0025 -0.0548
    1WF      WF68347  10.096   2.202   7.699 -0.3617  0.0979  0.0356
    1WF      WF68348   2.831  13.837   1.434  0.1435 -0.0743  0.3053
    1WF      WF68349  25.717  21.716   0.510  0.2165 -0.2213 -0.3471
    1WF      WF68350   1.968  15.830   9.445  0.0075 -0.1222 -0.0969
    1WF      WF68351   9.557  13.346   0.652 -0.2368 -0.2170 -0.1913
    1WF      WF68352  28.911  10.648   0.556  0.0461 -0.1394  0.0026
    1WF      WF68353   9.585  28.811   0.356  0.1994 -0.0453  0.0952
    1WF      WF68354   2.394   3.057   9.044  0.1290 -0.0819  0.0710
    1WF      WF68355  29.142  22.112   1.402 -0.0543 -0.0886 -0.2207
    1WF      WF68356  26.577  22.334   1.049 -0.2625 -0.0205  0.1599
    1WF      WF68357  21.456  23.457   1.049  0.1806 -0.2499 -0.2560
    1WF      WF68358  16.519  17.441   2.476  0.0111 -0.0623 -0.0092
    1WF      WF68359  19.834  13.042   8.933 -0.0854 -0.1561  0.0108
    1WF      WF68360   1.203  27.927   8.580  0.0738  0.0738 -0.0643
    1WF      WF68361   8.765   1.172   0.066  0.1116  0.0385  0.1290
    1WF      WF68362  19.053  13.295   7.906 -0.1020  0.0047  0.2001
    1WF      WF68363   3.913  19.400   0.695  0.1665  0.1336 -0.0217
    1WF      WF68364  23.208  25.277   2.756  0.0470 -0.1130  0.3230
    1WF      WF68365   6.970  24.078   8.845 -0.1822 -0.0860 -0.0928
    1WF      WF68366  29.120  23.358   2.991  0.1318  0.0738  0.2079
    1WF      WF68367  23.398   2.076   7.728  0.3673 -0.2113  0.1385
    1WF      WF68368   0.289  29.389   1.968  0.1877 -0.0451  0.1784
    1WF      WF68369   1.534  27.285   7.650 -0.0596 -0.1309 -0.0050
    1WF      WF68370  19.475  27.198   9.044 -0.1771  0.2614  0.0738
    1WF      WF68371  17.319  20.563   0.477  0.0893  0.0128  0.2561
    1WF      WF68372   7.785  24.255   1.205  0.3004  0.2069  0.0134
    1WF      WF68373   6.526   3.208   8.516  0.3780  0.1705 -0.2297
    1WF      WF68374   0.487   8.164   7.596 -0.0877  0.0578  0.3364
    1WF      WF68375  24.352   4.812   1.037  0.1738  0.1663  0.1768
    1WF      WF68376  13.199  29.892   3.412  0.0156 -0.0236  0.1451
    1WF      WF68377  25.924  24.354   8.762 -0.0730 -0.0479 -0.0002
    1WF      WF68378   4.064  17.312   2.185 -0.0646  0.3028 -0.1221
    1WF      WF68379  14.548   1.690   1.577 -0.0516  0.0543 -0.0359
    1WF      WF68380   3.919  29.547   7.197 -0.1644 -0.1214 -0.2038
    1WF      WF68381   6.965   3.392   8.856  0.0448  0.0414  0.1035
    1WF      WF68382   6.776  13.788   0.168 -0.3742 -0.1105 -0.0179
    1WF      WF68383   3.133  20.314   2.500  0.0652 -0.2962  0.0160
    1WF      WF68384  20.092  22.097   0.100  0.0245  0.2793 -0.0222
    1WF      WF68385  27.109  17.827   1.180  0.0269 -0.0736  0.2179
    1WF      WF68386  22.745  22.973   1.586 -0.2365  0.1687  0.1945
    1WF      WF68387   9.053  14.433   8.315 -0.0092  0.0516 -0.3959
    1WF      WF68388   7.256  21.431   0.325 -0.3342 -0.0092 -0.0607
    1WF      WF68389  25.189  23.719   8.559  0.4198  0.0039 -0.0957
    1WF      WF68390  15.356  29.566   8.645  0.1501  0.2476 -0.0002
    1WF      WF68391   6.838  11.328   0.358  0.0039  0.0557 -0.0732
    1WF      WF68392  13.950   3.606   3.650 -0.1701  0.0140 -0.1206
    1WF      WF68393  29.648  17.684   8.673  0.2713  0.3071 -0.2393
    1WF      WF68394   6.596  23.911   9.315 -0.0928 -0.1978 -0.1246
    1WF      WF68395  27.084  19.055   8.006  0.1105  0.2637  0.0165
    1WF      WF68396  19.203  18.155   9.306  0.0267  0.1047  0.0018
    1WF      WF68397  23.453   0.103   9.365 -0.0472  0.1405  0.0647
    1WF      WF68398  25.324  29.683   0.335 -0.0399 -0.0047 -0.3130
    1WF      WF68399   3.756  20.968   6.634  0.1167 -0.2398  0.2182
    1WF      WF68400   8.153  12.319   1.457  0.1234 -0.0603 -0.1937
    1WF      WF68401   6.374  17.227   1.085  0.0362 -0.1972  0.0966
    1WF      WF68402   9.263  20.353   2.127  0.2315  0.0006  0.1124
    1WF      WF68403  13.112  27.526   0.644  0.1473 -0.0607 -0.2348
    1WF      WF68404  28.196  14.682   0.698 -0.0794  0.1578 -0.0080
    1WF      WF68405   0.332   8.349   2.089 -0.0871 -0.1021 -0.0649
    1WF      WF68406  17.034   1.351   2.312  0.0339 -0.1025  0.2234
    1WF      WF68407   3.965   4.304   2.147 -0.0315 -0.0228 -0.1088
    1WF      WF68408  23.026  19.942   0.373  0.0134 -0.1434  0.0751
    1WF      WF68409  13.324  24.704   8.233  0.1257  0.1901  0.0560
    1WF      WF68410   8.789  24.833   0.273  0.2443  0.0292 -0.2773
    1WF      WF68411  18.546  11.868   7.863  0.0819  0.0873  0.1070
    1WF      WF68412   6.566  17.017   0.633 -0.1215 -0.2984  0.3398
    1WF      WF68413   8.276   2.566   3.308 -0.3047 -0.0296  0.1908
    1WF      WF68414   6.662   2.299   1.354 -0.0860  0.0500 -0.0424
    1WF      WF68415  13.106  26.826   1.167 -0.1233  0.2290 -0.1627
    1WF      WF68416   0.292  28.011   0.603 -0.0371 -0.3327  0.0887
    1WF      WF68417  11.642  25.538   1.342 -0.0823  0.1703 -0.1097
    1WF      WF68418   3.429   7.552   0.127 -0.0923 -0.2143  0.1748
    1WF      WF68419  27.343  26.375   2.478  0.1590  0.2256 -0.2213
    1WF      WF68420  25.947  13.970   6.050 -0.2035 -0.1437  0.0250
    1WF      WF68421  13.207  20.196   1.408 -0.0056  0.0486 -0.1921
    1WF      WF68422  22.377  25.048   8.386  0.0308  0.1324 -0.3003
    1WF      WF68423   2.305  20.418   1.292  0.0401  0.0658 -0.0332
    1WF      WF68424  14.744  10.081   0.608 -0.3816 -0.1927 -0.2719
    1WF      WF68425   6.719   1.990   1.712 -0.1082 -0.3884  0.2859
    1WF      WF68426  22.311  25.606   1.220  0.0260 -0.0969 -0.3367
    1WF      WF68427  15.864  23.445   9.425 -0.1386 -0.0118  0.0448
    1WF      WF68428   9.022  28.342   7.335  0.2855 -0.2494  0.2974
    1WF      WF68429   7.302  11.823   1.181 -0.1622 -0.1536 -0.1247
    1WF      WF68430  11.902  23.097   8.099  0.1978  0.0808 -0.0895
    1WF      WF68431   9.746  13.813   0.517  0.4056  0.0207 -0.1536
    1WF      WF68432  10.504   5.676   8.910 -0.2760  0.1121  0.1625
    1WF      WF68433  20.414  12.721   7.466 -0.0488  0.0193  0.2669
    1WF      WF68434   7.699  16.926   8.880  0.0978  0.0395  0.2808
    1WF      WF68435  11.706   5.740   7.813  0.2537  0.0560 -0.3174
    1WF      WF68436  28.092   4.015   9.316 -0.1308  0.2238 -0.0242
    1WF      WF68437  23.827  19.992   7.572  0.0456  0.3035 -0.0717
    1WF      WF68438  11.948   2.647   1.871  0.0248 -0.0897 -0.2106
    1WF      WF68439  25.370   8.404   7.529 -0.0263 -0.0159 -0.0360
    1WF      WF68440  21.181  24.147   1.678 -0.1248  0.2008  0.0579
    1WF      WF68441  27.254  11.697   1.032  0.2103  0.4471  0.1824
    1WF      WF68442  22.650  20.349   0.459  0.2295  0.1779  0.0070
    1WF      WF68443  16.459   5.447   0.833  0.0218 -0.0072 -0.3037
    1WF      WF68444  12.531  23.800   7.392 -0.0775 -0.0980  0.1583
    1WF      WF68445   0.713   9.204   9.272 -0.0940 -0.1752  0.0026
    1WF      WF68446   0.385   4.118   0.543  0.0373  0.3080  0.1934
    1WF      WF68447   0.452   3.351   1.029 -0.2243  0.2106  0.0232
    1WF      WF68448  17.943  29.785   0.718  0.1470 -0.0774 -0.0911
    1WF      WF68449   4.303   0.305   8.317  0.1613  0.1725  0.0540
    1WF      WF68450  18.720  11.374   7.920  0.0062  0.2542  0.1835
    1WF      WF68451   6.842  24.047   8.311 -0.1138 -0.3116  0.1754
    1WF      WF68452   8.358  29.771   0.823 -0.5506  0.3164 -0.3709
    1WF      WF68453  15.014  26.237   3.513 -0.1040  0.2616 -0.2392
    1WF      WF68454  17.828  11.819   6.990 -0.2565  0.0788 -0.2624
    1WF      WF68455  24.603  27.350   1.288  0.1147  0.0181  0.3038
    1WF      WF68456  21.596  14.373   6.169  0.1186 -0.0585  0.1303
    1WF      WF68457  22.720  13.761   7.638 -0.1906 -0.2245 -0.0346
    1WF      WF68458   0.641  28.896   8.297  0.1806  0.2089  0.0297
    1WF      WF68459  22.917   6.288   6.497  0.0156 -0.3173  0.1605
    1WF      WF68460   2.997  16.125   8.326 -0.0132 -0.0009  0.1630
    1WF      WF68461   2.608  17.488   5.683  0.1905  0.3270  0.2839
    1WF      WF68462  26.940   8.344   0.881  0.0201  0.4547  0.0884
    1WF      WF68463  17.425  12.088   7.859 -0.0400 -0.0780  0.1281
    1WF      WF68464   5.393  27.981   8.668  0.2159 -0.0602 -0.1184
    1WF      WF68465  10.497   2.443   7.480 -0.1160 -0.2473 -0.1935
    1WF      WF68466   5.292   6.591   2.436 -0.2945  0.0869  0.3185
    1WF      WF68467   6.409  20.339   0.122  0.0413  0.0133  0.2208
    1WF      WF68468  25.626  15.917   7.901 -0.0058 -0.1703 -0.2215
    1WF      WF68469  25.542  28.488   1.322  0.2515 -0.1180  0.0800
    1WF      WF68470   6.088  19.839   8.565 -0.0651  0.0459 -0.3393
    1WF      WF68471  20.819   7.357   1.065 -0.0715 -0.0343 -0.1827
    1WF      WF68472  26.597   0.661   0.073 -0.0952  0.2422 -0.1449
    1WF      WF68473   3.062  17.102   8.674  0.0434  0.0887  0.2085
    1WF      WF68474  22.509   2.636   8.798  0.2715 -0.0247  0.1282
    1WF      WF68475  14.962   0.849   0.136  0.0655  0.1522  0.0864
    1WF      WF68476  15.424  24.850   1.358 -0.1337 -0.1071  0.0586
    1WF      WF68477   6.900   4.243   7.582  0.1604 -0.0706  0.1134
    1WF      WF68478  16.336   8.527   8.419  0.0439 -0.1382  0.0807
    1WF      WF68479  29.741   5.769   8.936  0.1082 -0.0777 -0.1632
    1WF      WF68480   5.112  17.378   6.357  0.2249  0.0391 -0.0199
    1WF      WF68481   6.470   1.430   0.851 -0.1115 -0.0206  0.2006
    1WF      WF68482  16.937   9.834   6.170  0.2357 -0.2441  0.0134
    1WF      WF68483  10.934  23.313   7.697 -0.1740  0.1778  0.1436
    1WF      WF68484  26.614  18.952   8.953  0.2780 -0.0741  0.2599
    1WF      WF68485   8.695   9.504   9.375  0.2518 -0.1068 -0.0776
    1WF      WF68486   7.912  10.452   8.420  0.0292 -0.1335  0.3116
    1WF      WF68487  26.795  16.584   0.529  0.0476 -0.0992 -0.0065
    1WF      WF68488  22.129   7.328   8.360 -0.1851 -0.0232 -0.2274
    1WF      WF68489   3.752  10.017   7.769 -0.2939 -0.0626  0.0577
    1WF      WF68490  17.033   5.348   1.537 -0.2966  0.2879  0.3251
    1WF      WF68491  10.749   6.016   3.501 -0.2832 -0.2275 -0.1030
    1WF      WF68492   1.350  16.102   7.854 -0.0077  0.2557 -0.0140
    1WF      WF68493   4.347  17.632   0.287 -0.0357 -0.0220  0.1506
    1WF      WF68494  15.658   3.923   0.280 -0.0425 -0.0216 -0.1354
    1WF      WF68495   3.342   9.484   6.637 -0.0300 -0.1609 -0.0494
    1WF      WF68496  23.861   4.648   0.992 -0.0376  0.0345 -0.1899
    1WF      WF68497  10.839  28.669   8.942 -0.0805  0.2975 -0.0195
    1WF      WF68498  13.178   8.012   1.973 -0.1156 -0.0958  0.0973
    1WF      WF68499  11.455  15.445   1.649  0.1906 -0.1146  0.0764
    1WF      WF68500   4.809  26.919   7.975  0.1109 -0.0522  0.0066
    1WF      WF68501  23.246   6.049   1.305  0.0704  0.4166 -0.0729
    1WF      WF68502  19.079  15.618   7.441 -0.4429  0.0518 -0.1586
    1WF      WF68503   1.546   3.182   0.881 -0.0230 -0.0949 -0.0106
    1WF      WF68504  24.315  24.270   1.271 -0.0222  0.0724  0.2693
    1WF      WF68505  28.985   0.275   7.349 -0.1985 -0.0064  0.0356
    1WF      WF68506  25.913  19.867   7.193  0.0582  0.0423  0.4323
    1WF      WF68507   1.960  20.280   8.145 -0.1411  0.0790  0.0299
    1WF      WF68508  25.340  28.704   9.233 -0.2474  0.0891 -0.4148
    1WF      WF68509  10.440  29.779   8.866 -0.2491 -0.2207  0.0972
    1WF      WF68510  20.575  28.712   7.916  0.3030  0.0305 -0.0095
    1WF      WF68511   5.295  19.384   0.319 -0.1031 -0.3821  0.1320
    1WF      WF68512  22.288  21.664   1.555 -0.3369 -0.0335 -0.0630
    1WF      WF68513  26.461  14.700   8.919 -0.3256  0.0936 -0.1304
    1WF      WF68514  12.679   0.305   1.847 -0.0886 -0.2625  0.0925
    1WF      WF68515  28.482   8.663   0.016  0.1527  0.2167  0.2609
    1WF      WF68516  10.989  23.408   6.522  0.2722 -0.1143 -0.0366
    1WF      WF68517  25.793   1.920   8.061  0.0899  0.0888 -0.0885
    1WF      WF68518  25.819  20.259   7.522 -0.1377  0.0508 -0.0941
    1WF      WF68519  27.581  22.921   0.838 -0.0170  0.0478 -0.1320
    1WF      WF68520  12.279  29.839   8.310  0.0612 -0.0930  0.1717
    1WF      WF68521   9.754   4.402   3.121 -0.0991  0.1725  0.2917
    1WF      WF68522  15.032  12.876   2.174  0.0689  0.0496 -0.2167
    1WF      WF68523   5.070  21.178   7.057 -0.2661 -0.1462 -0.0783
    1WF      WF68524  16.556  12.566   9.321 -0.2599 -0.0966 -0.1448
    1WF      WF68525   0.404   5.630   0.923  0.1531 -0.2797 -0.0662
    1WF      WF68526  27.703   7.207   8.262  0.1711  0.1180 -0.0880
    1WF      WF68527  19.846   7.177   1.371 -0.1597 -0.1057 -0.0556
    1WF      WF68528  15.302   2.576   3.735  0.1492  0.2647 -0.2540
    1WF      WF68529  11.676   0.229   2.529  0.1428  0.1894 -0.0270
    1WF      WF68530   7.711   2.727   1.163 -0.2031 -0.3131 -0.2933
    1WF      WF68531  11.014   3.704   2.246  0.0592  0.1661 -0.1048
    1WF      WF68532   5.648  16.358   8.138 -0.0358 -0.1517  0.1153
    1WF      WF68533   6.843  27.680   0.866 -0.1440  0.0954  0.0648
    1WF      WF68534  23.074   3.562   1.686  0.1975  0.0980  0.0912
    1WF      WF68535  15.646   1.523   0.655 -0.0090 -0.0802 -0.0636
    1WF      WF68536   9.722  14.200   0.808  0.0004 -0.0256  0.2732
    1WF      WF68537   4.074  16.283   7.270 -0.2087  0.2902 -0.1727
    1WF      WF68538  25.243  11.850   7.983 -0.0633  0.3166 -0.1437
    1WF      WF68539  10.177   6.121   0.387 -0.1082 -0.2246 -0.1672
    1WF      WF68540  22.938   6.742   8.681 -0.0146 -0.0049  0.2769
    1WF      WF68541  23.744   7.068   0.123  0.1073 -0.0022  0.1408
    1WF      WF68542   0.619  19.620   1.045  0.3731  0.3324  0.1136
    1WF      WF68543  20.035   0.999   7.760 -0.0128  0.0168 -0.2038
    1WF      WF68544   9.497  10.671   2.290  0.4993 -0.1595 -0.2329
    1WF      WF68545   2.783  23.459   0.966 -0.2034 -0.0359 -0.1503
    1WF      WF68546   2.860  27.014   5.470  0.0759  0.0138  0.1387
    1WF      WF68547  11.823  13.295   8.830  0.0393  0.1360 -0.1534
    1WF      WF68548   9.800  22.720   8.447 -0.2335  0.1373  0.0993
    1WF      WF68549   8.711  22.799   8.610  0.2058  0.1309 -0.1780
    1WF      WF68550  20.669   0.290   9.261 -0.1224 -0.0883 -0.1301
    1WF      WF68551   1.031  16.063   8.329 -0.0703 -0.2465  0.3384
    1WF      WF68552   8.865   4.940   1.132  0.1212  0.1725  0.0213
    1WF      WF68553   3.894  29.405   0.147 -0.1115  0.2843 -0.1369
    1WF      WF68554  18.372  23.487   8.125 -0.0187  0.1558 -0.0064
    1WF      WF68555  12.091  26.015   9.308  0.2887 -0.3186  0.1082
    1WF      WF68556  12.757  24.934   6.948  0.1412 -0.2515 -0.0938
    1WF      WF68557  17.577   4.316   5.990 -0.0986 -0.3675 -0.0291
    1WF      WF68558  19.230  12.455   0.763 -0.2460 -0.0129 -0.3991
    1WF      WF68559  10.311  19.315   9.004 -0.1308 -0.0789  0.1232
    1WF      WF68560   5.131  20.818   8.136  0.2315 -0.0581 -0.0929
    1WF      WF68561  13.955  26.310   9.460 -0.0021 -0.0307  0.2774
    1WF      WF68562  22.711  21.494   3.552  0.1284 -0.0280 -0.2106
    1WF      WF68563   4.927   4.706   7.857  0.0531 -0.2222  0.2399
    1WF      WF68564   5.531  11.460   0.336  0.0922 -0.3224  0.1636
    1WF      WF68565  29.082   5.058   2.244 -0.1376 -0.0639 -0.0203
    1WF      WF68566   7.436   3.566   0.803  0.0140  0.1920  0.0808
    1WF      WF68567  17.273  10.421   0.116  0.0523  0.2425 -0.0663
    1WF      WF68568  19.260  26.373   8.223 -0.0151 -0.2018  0.0806
    1WF      WF68569  27.345  26.797   0.816  0.1292 -0.2591  0.1174
    1WF      WF68570   2.711   1.950   0.708 -0.0078 -0.1213  0.1003
    1WF      WF68571  14.534  24.673   0.828 -0.2060  0.1104  0.1391
    1WF      WF68572   4.785   5.738   9.089  0.0420  0.2156  0.2147
    1WF      WF68573  18.230   2.673   6.384 -0.0401 -0.2528 -0.3414
    1WF      WF68574  12.829  10.444   0.324  0.4389 -0.1903 -0.0603
    1WF      WF68575  25.338  15.426   8.001  0.2792  0.1040  0.0783
    1WF      WF68576  10.295  23.817   8.328  0.1293  0.0734 -0.1881
    1WF      WF68577  17.179   9.869   0.128  0.1141  0.0317  0.1612
    1WF      WF68578  18.710  10.403   0.801  0.1750 -0.0401  0.0564
    1WF      WF68579   5.398  12.635   0.202 -0.0186  0.0549 -0.1414
    1WF      WF68580  16.061  13.284   0.735  0.1428 -0.2233 -0.0569
    1WF      WF68581  21.330  15.940   8.719 -0.0190  0.0562 -0.0370
    1WF      WF68582   6.136   5.539   0.606  0.0096  0.2591  0.1044
    1WF      WF68583   3.360  18.545   0.023 -0.0556 -0.1928 -0.5183
    1WF      WF68584  10.214  15.559   0.560  0.1073  0.1735 -0.3161
    1WF      WF68585  24.310  12.207   9.227  0.2586 -0.3595  0.3097
    1WF      WF68586  17.082  29.394   6.807 -0.4281  0.2701  0.1679
    1WF      WF68587  20.195  11.202   8.234 -0.0921 -0.1147 -0.2773
    1WF      WF68588  23.761  16.395   0.749 -0.0637 -0.0974 -0.2003
    1WF      WF68589  14.185  21.724   6.749  0.0344 -0.1360  0.0460
    1WF      WF68590  28.171   6.007   1.302  0.1064  0.1466 -0.0185
    1WF      WF68591  20.586  25.130   0.815  0.1283 -0.0848  0.0601
    1WF      WF68592   5.371  22.411   0.723  0.0746  0.0305  0.2293
    1WF      WF68593  13.721  26.532   7.970 -0.0296 -0.0900  0.2461
    1WF      WF68594   2.640  27.331   8.234 -0.2283 -0.1831  0.2630
    1WF      WF68595  15.643  19.066   7.960 -0.2228  0.2373 -0.0635
    1WF      WF68596   1.537   5.762   1.466 -0.0506 -0.1270 -0.1564
    1WF      WF68597  24.031   0.478   0.242  0.1888 -0.0604  0.1177
    1WF      WF68598   5.760  10.342   0.310 -0.1483  0.1525 -0.2749
    1WF      WF68599  22.965  19.254   9.046 -0.4444  0.1337 -0.1573
    1WF      WF68600   5.765  28.419   0.077  0.1910  0.1867 -0.1422
    1WF      WF68601   6.293   7.149   1.824  0.2762 -0.0593  0.0672
    1WF      WF68602  17.685   2.831   0.572 -0.2657  0.3230 -0.0680
    1WF      WF68603  21.602   4.927   1.198 -0.0084 -0.2210  0.1718
    1WF      WF68604  13.110  20.756   1.255  0.0483 -0.1965 -0.2537
    1WF      WF68605  18.148  27.568   9.146 -0.1165 -0.0139 -0.3158
    1WF      WF68606  18.914  17.590   0.734 -0.0779  0.2276 -0.3705
    1WF      WF68607  14.549   1.251   1.846 -0.1891  0.0995  0.1339
    1WF      WF68608  22.083  16.852   8.177  0.3523 -0.0543 -0.0748
    1WF      WF68609   4.588  28.037   8.183 -0.1241 -0.3222 -0.0695
    1WF      WF68610  17.181  15.431   7.639  0.2974  0.0830  0.1634
    1WF      WF68611  15.239  13.747   9.269  0.2076 -0.2394  0.2308
    1WF      WF68612   9.517  11.656   0.631  0.1935 -0.0847 -0.2329
    1WF      WF68613  26.193  25.235   7.852  0.0452  0.0695  0.0770
    1WF      WF68614  17.514  15.573   7.964 -0.0534  0.2745 -0.0033
    1WF      WF68615  11.206  22.422   9.061  0.0821  0.2430  0.0804
    1WF      WF68616  18.042  25.484   1.063  0.2659 -0.0410 -0.1256
    1WF      WF68617   4.451   8.551   9.240  0.1116 -0.0497 -0.0427
    1WF      WF68618   7.058  16.874   7.274 -0.2458  0.0570 -0.0707
    1WF      WF68619  27.340  26.594   0.182 -0.0397 -0.1074  0.0481
    1WF      WF68620  15.126   8.237   9.371  0.4157 -0.1678  0.4813
    1WF      WF68621   0.105   0.486   0.130 -0.2724  0.4143  0.1413
    1WF      WF68622   8.053  20.981   8.092  0.0980  0.0089 -0.0742
    1WF      WF68623  24.972   8.191   7.749  0.1405  0.2748 -0.1359
    1WF      WF68624  29.142  17.253   7.183 -0.1788  0.1993 -0.1580
    1WF      WF68625   9.587  23.432   0.480  0.0679  0.2666 -0.1152
    1WF      WF68626  16.905   4.237   8.746 -0.0216  0.0326 -0.1473
    1WF      WF68627  13.387   7.302   0.262 -0.1290  0.3050  0.0254
    1WF      WF68628  18.053  24.020   0.689  0.3391 -0.1328  0.4589
    1WF      WF68629  24.206  21.191   0.622  0.1543  0.3274 -0.2649
    1WF      WF68630  16.228   4.932   1.118  0.2111 -0.1337 -0.0431
    1WF      WF68631  10.001  10.148   0.538  0.1489 -0.0637  0.0974
    1WF      WF68632  16.633   6.991   0.109 -0.1321 -0.3268 -0.0252
    1WF      WF68633  18.586  25.717   1.680 -0.1000 -0.1201 -0.2937
    1WF      WF68634  23.581  15.223   6.442 -0.0909 -0.0562  0.2753
    1WF      WF68635  14.870  25.898   9.346  0.1969  0.3112 -0.1788
    1WF      WF68636   7.958  16.767   7.598 -0.1602  0.0653  0.0745
    1WF      WF68637   0.728  14.718   9.287 -0.3180 -0.2515  0.4231
    1WF      WF68638   0.720  28.548   7.182  0.1746  0.1718  0.3398
    1WF      WF68639  28.673   6.885   0.517 -0.1211 -0.3216  0.1060
    1WF      WF68640   8.357  22.610   8.262  0.2484  0.1123 -0.0346
    1WF      WF68641  23.294  13.830   0.803  0.0581 -0.0965  0.1820
    1WF      WF68642  28.768  22.670   8.428  0.1067 -0.1848 -0.0574
    1WF      WF68643  21.815  12.256   8.106  0.0580  0.2899 -0.0266
    1WF      WF68644  27.510  25.395   7.452 -0.1181  0.3174  0.1613
    1WF      WF68645  27.969   4.966   8.243  0.1543 -0.0694  0.2813
    1WF      WF68646  14.283  29.665   6.659 -0.2034 -0.4327 -0.0200
    1WF      WF68647   5.318   5.052   9.202 -0.1279 -0.1661  0.1875
    1WF      WF68648  20.615  14.682   8.300 -0.0660 -0.1446  0.1580
    1WF      WF68649   4.973   8.542   9.166  0.0027 -0.0913 -0.1781
    1WF      WF68650  23.263  14.600   9.009 -0.1633 -0.0351 -0.3743
    1WF      WF68651  20.309  24.091   7.282  0.0810  0.0230 -0.0978
    1WF      WF68652  19.119  18.542   8.998  0.0034 -0.0294 -0.1252
    1WF      WF68653  21.946  28.885   0.218  0.0744  0.0175 -0.3698
    1WF      WF68654  14.599   7.009   8.308  0.3056 -0.0081  0.0533
    1WF      WF68655   5.407   1.054   8.675 -0.2620  0.0334 -0.1329
    1WF      WF68656  12.761   5.151   2.075  0.2396 -0.1341  0.2072
    1WF      WF68657  14.054  27.710   8.689  0.4030 -0.0690 -0.2323
    1WF      WF68658   8.237  28.700   1.309 -0.2037 -0.0507  0.0283
    1WF      WF68659  18.888  11.528   9.288  0.0643  0.0564 -0.0011
    1WF      WF68660  22.891  25.106   7.365  0.0104 -0.3615  0.1474
    1WF      WF68661  21.713  23.276   1.428  0.0511  0.1805 -0.2016
    1WF      WF68662   2.235  29.315   2.379 -0.2222 -0.0293 -0.1725
    1WF      WF68663  24.209   8.793   8.776  0.1007  0.0079  0.2132
    1WF      WF68664   6.892  29.643   1.857 -0.2040  0.0213  0.1595
    1WF      WF68665   9.477  27.969   9.459 -0.2187  0.1204  0.1061
    1WF      WF68666   0.717  18.978   9.380 -0.1460  0.2246  0.2808
    1WF      WF68667  16.635   5.420   7.347 -0.3052 -0.0852 -0.2164
    1WF      WF68668   5.723  27.705   6.878  0.1178  0.0437 -0.1192
    1WF      WF68669   0.619  27.039   8.337  0.3068  0.0151  0.2578
    1WF      WF68670   4.404  14.306   1.238  0.0338  0.0709 -0.2267
    1WF      WF68671  19.506  28.092   1.513 -0.0896 -0.0214 -0.0138
    1WF      WF68672  20.825   7.895   8.248 -0.0968  0.0568 -0.2447
    1WF      WF68673  27.371  25.675   0.238 -0.3598  0.1180  0.5206
    1WF      WF68674  23.707   0.356   2.549 -0.3170  0.0001 -0.2406
    1WF      WF68675  21.690  23.710   1.704  0.0096 -0.2461  0.0505
    1WF      WF68676  19.416  13.082   8.726  0.1139  0.0376 -0.3077
    1WF      WF68677  29.856  13.642   7.526 -0.1792  0.4065 -0.3001
    1WF      WF68678  11.384  28.304   7.180 -0.2498 -0.1405 -0.2932
    1WF      WF68679  23.543  27.654   0.719  0.4021  0.3246 -0.1650
    1WF      WF68680  19.311  17.116   7.970  0.2288  0.0084  0.0595
    1WF      WF68681  24.489   0.252   2.761 -0.0616 -0.2704 -0.0699
    1WF      WF68682  15.538  29.263   9.060 -0.1671 -0.0485 -0.0501
    1WF      WF68683  25.646  26.631   7.435 -0.2131  0.0655 -0.0740
    1WF      WF68684   7.655  22.335   0.494  0.1012 -0.0093 -0.3009
    1WF      WF68685  21.064  15.983   0.358 -0.1531 -0.2567 -0.0781
    1WF      WF68686   6.093  23.343   7.231  0.0841 -0.1535  0.1533
    1WF      WF68687  29.399  17.523   7.569  0.1586 -0.3296  0.0006
    1WF      WF68688   9.754   4.365   8.842 -0.3039  0.0311 -0.1554
    1WF      WF68689  27.849  13.673   0.827  0.1457 -0.1963  0.4070
    1WF      WF68690  22.827  14.617   0.665 -0.0604 -0.1197  0.2132
    1WF      WF68691   9.785   1.907   2.086 -0.3055  0.0825 -0.1627
    1WF      WF68692  26.700   1.371   1.344 -0.3783  0.0630  0.0427
    1WF      WF68693  11.114  22.681   2.355  0.1587  0.0209 -0.2772
    1WF      WF68694  15.726  11.640   8.971 -0.0247 -0.2758 -0.2724
    1WF      WF68695  25.679   6.771   3.600  0.1483  0.0886 -0.0810
    1WF      WF68696  28.574  10.566   6.646 -0.2389 -0.3186 -0.1804
    1WF      WF68697   4.444  26.588   7.751 -0.3262  0.1618  0.4723
    1WF      WF68698  24.827   4.331   0.805  0.0699 -0.2221  0.0743
    1WF      WF68699  27.566  14.576   9.261  0.2447  0.0351 -0.1480
    1WF      WF68700  20.781  23.931   1.449 -0.3194  0.2066  0.0450
    1WF      WF68701  20.148  25.256   2.310  0.1844  0.0507  0.3223
    1WF      WF68702  19.702  24.936   1.499 -0.0112  0.2432  0.3036
    1WF      WF68703  25.902   0.212   9.063  0.4543 -0.2249 -0.2899
    1WF      WF68704   0.255  29.012   9.399 -0.0784 -0.3623  0.2453
    1WF      WF68705   6.677  24.886   7.772 -0.1833 -0.1490  0.0321
    1WF      WF68706  10.424  23.125   1.053  0.4521 -0.2461 -0.2617
    1WF      WF68707  16.227   3.337   7.532  0.0439  0.1906 -0.0436
    1WF      WF68708  27.068  12.019   8.685  0.0506  0.1199  0.1819
    1WF      WF68709   9.629  23.896   8.148  0.0499 -0.1679  0.0476
    1WF      WF68710  10.716  19.165   8.830  0.0656  0.1740 -0.1678
    1WF      WF68711   2.686   5.712   7.647  0.1473 -0.1644 -0.0348
    1WF      WF68712  20.141  20.687   7.701 -0.1757 -0.1406  0.1195
    1WF      WF68713   3.476  17.534   7.139 -0.1672 -0.1313 -0.0025
    1WF      WF68714  19.121   8.653   8.447  0.0722 -0.0085  0.1549
    1WF      WF68715  14.671  27.158   0.634  0.0389 -0.2625  0.1039
    1WF      WF68716   8.089   6.790   8.515  0.0359 -0.3044  0.0469
    1WF      WF68717  24.844   3.353   0.376 -0.0841 -0.0509  0.0496
    1WF      WF68718  14.962  22.790   0.393 -0.0436  0.2801  0.1651
    1WF      WF68719  18.978  23.579   7.109  0.1913 -0.2111 -0.4096
    1WF      WF68720  12.780  10.953   9.131  0.0648  0.0363 -0.0993
    1WF      WF68721  11.261  28.461   0.887 -0.0182  0.1787  0.1847
    1WF      WF68722   5.933  28.136   1.818 -0.0659 -0.1249  0.1195
    1WF      WF68723   8.643  19.416   0.125 -0.0706  0.4536  0.1106
    1WF      WF68724  24.723   3.746   0.008 -0.0475 -0.0022  0.1959
    1WF      WF68725  11.489  12.577   6.826  0.0728 -0.3193  0.1672
    1WF      WF68726  21.803  25.675   1.028  0.1099 -0.1768 -0.1936
    1WF      WF68727   9.289  14.675   0.261 -0.4066 -0.3955 -0.0186
    1WF      WF68728  28.513   1.830   2.021 -0.2235 -0.1969 -0.0940
    1WF      WF68729   2.501  11.472   8.519  0.1721  0.2252  0.0349
    1WF      WF68730   1.217   1.012   8.254 -0.1184  0.1790 -0.0107
    1WF      WF68731   7.090  11.719   0.076  0.1495  0.1262 -0.1250
    1WF      WF68732   0.209  19.543   9.312  0.3953 -0.1751 -0.2056
    1WF      WF68733  25.992  21.336   1.431 -0.0140 -0.2640 -0.1011
    1WF      WF68734  27.308  16.471   0.844  0.0715  0.1918 -0.2624
    1WF      WF68735   7.143  29.911   1.488 -0.2010  0.2393  0.0289
    1WF      WF68736  13.047  11.327   0.390 -0.0101 -0.0656  0.1250
    1WF      WF68737  18.192  20.259   8.685 -0.0296  0.1840 -0.1307
    1WF      WF68738  21.419  26.330   9.441  0.1356 -0.1657 -0.1965
    1WF      WF68739  17.382   1.126   1.983  0.2166 -0.0706 -0.2636
    1WF      WF68740  13.499  29.275   0.069 -0.1395  0.2050  0.3126
    1WF      WF68741  16.346   8.774   7.859  0.2061  0.1104  0.1623
    1WF      WF68742  14.854   2.222   1.014  0.1491 -0.0022  0.1150
    1WF      WF68743  29.893   1.763   1.014  0.4386  0.0106  0.2392
    1WF      WF68744  17.914   2.957   0.153 -0.0272  0.0168 -0.2242
    1WF      WF68745  24.917  17.973   9.114 -0.0419 -0.0065  0.0230
    1WF      WF68746   9.406  14.531   8.624  0.1731  0.1413  0.4876
    1WF      WF68747  10.414  24.826   0.266  0.3186  0.0266 -0.3179
    1WF      WF68748  16.747  10.402   0.168  0.0721 -0.2980 -0.3605
    1WF      WF68749  13.693  25.066   8.404 -0.0800 -0.2321 -0.0315
    1WF      WF68750  20.932   2.057   0.011  0.1096  0.0653  0.1764
    1WF      WF68751  14.163   9.127   1.316 -0.0203  0.0712  0.1714
    1WF      WF68752  19.283   3.098   1.382 -0.2239  0.0881  0.0510
    1WF      WF68753  13.357  28.300   2.063  0.1245  0.1269 -0.0059
    1WF      WF68754  27.115  13.259   9.081  0.2477  0.0792  0.2402
    1WF      WF68755   4.643  14.482   6.651 -0.4167  0.1287 -0.0034
    1WF      WF68756   4.422  15.133   8.259  0.1145 -0.1269 -0.1056
    1WF      WF68757  11.690  27.440   0.625 -0.1505 -0.0527 -0.1073
    1WF      WF68758   5.438  20.703   7.753  0.0225 -0.1266  0.0200
    1WF      WF68759  25.148  15.423   8.479  0.0548  0.1157  0.2920
    1WF      WF68760  15.808  24.485   8.490 -0.3137  0.1258 -0.1821
    1WF      WF68761   2.464   9.060   1.581  0.0799  0.2462 -0.0102
    1WF      WF68762  16.492   8.663   1.825  0.1809 -0.0008 -0.2364
    1WF      WF68763  22.657   5.681   0.377 -0.2688  0.1537  0.0176
    1WF      WF68764  26.760   1.427   0.793 -0.0568 -0.0330  0.2610
    1WF      WF68765   3.703   5.711   9.390  0.1037  0.1579 -0.0722
    1WF      WF68766  28.955   4.774   1.148 -0.2940  0.2323  0.1375
    1WF      WF68767   4.352  28.632   1.940 -0.0623  0.2919 -0.0889
    1WF      WF68768  14.960  16.696   8.808 -0.1407 -0.1275  0.0824
    1WF      WF68769   2.882  11.455   8.910 -0.0794 -0.3169  0.0467
    1WF      WF68770  10.700   7.931   0.425  0.0078 -0.3578  0.0555
    1WF      WF68771  27.526   4.276   8.696 -0.1348 -0.1999 -0.1520
    1WF      WF68772  10.227  15.865   0.014 -0.1295  0.1220  0.3316
    1WF      WF68773  23.150   5.595   0.505 -0.0372 -0.2908  0.0538
    1WF      WF68774  17.067   7.093   8.708 -0.0903  0.1513  0.1503
    1WF      WF68775  14.020  25.105   1.505 -0.3126  0.0014 -0.0530
    1WF      WF68776  18.398   1.500   0.644  0.1833  0.1237 -0.0725
    1WF      WF68777   5.033   7.980   3.030  0.2167 -0.1919 -0.1278
    1WF      WF68778  10.360   4.532   8.783 -0.2971  0.1927 -0.1464
    1WF      WF68779   7.327  12.987   8.196  0.1818  0.3857  0.2481
    1WF      WF68780  15.643  13.485   0.955 -0.1153  0.4140 -0.2957
    1WF      WF68781   6.222  24.664   7.395  0.3395  0.0824 -0.1344
    1WF      WF68782  28.821  23.638   6.963  0.3452  0.0373 -0.0438
    1WF      WF68783   1.200   4.045   2.365  0.1075  0.1587  0.0006
    1WF      WF68784   9.741  14.614   0.490 -0.3327  0.1353  0.1305
    1WF      WF68785  22.156   6.943   1.644  0.3144 -0.2119  0.0072
    1WF      WF68786   9.563  20.710   0.894  0.4053 -0.1621  0.1706
    1WF      WF68787  21.726  18.059   0.453  0.3897 -0.1344  0.2937
    1WF      WF68788  12.307   3.485   9.330 -0.3475 -0.0642 -0.1691
    1WF      WF68789  20.029  26.495   3.018 -0.0472 -0.0596  0.1812
    1WF      WF68790   3.606  28.356   0.781  0.3230 -0.1267 -0.0719
    1WF      WF68791  20.098  12.350   7.480 -0.0218 -0.0886 -0.1755
    1WF      WF68792   4.535  20.234   8.472 -0.0931  0.1680  0.0018
    1WF      WF68793  17.528  26.745   0.108 -0.5788  0.1468  0.1032
    1WF      WF68794  23.214   4.534   8.286 -0.0281 -0.0066  0.0138
    1WF      WF68795  26.643  24.460   0.030 -0.1027  0.4097  0.4372
    1WF      WF68796  10.361  14.609   7.789 -0.0679 -0.0804 -0.2149
    1WF      WF68797   9.314  24.824   8.287 -0.0286 -0.1548 -0.0253
    1WF      WF68798  17.621   9.745   7.845 -0.3610 -0.0837 -0.3328
    1WF      WF68799  25.252  11.225   6.494  0.0475  0.0182  0.0280
    1WF      WF68800   9.253  21.681   7.691 -0.0426  0.2745  0.2387
    1WF      WF68801  26.436   7.592   7.727 -0.2066  0.1416  0.2062
    1WF      WF68802   1.673  10.404   9.107 -0.0661  0.0823 -0.2738
    1WF      WF68803  10.163   4.302   4.151  0.0160  0.0188  0.1024
    1WF      WF68804   8.657  21.473   6.346  0.3078 -0.0341 -0.3128
    1WF      WF68805   2.995  17.742   7.214 -0.0943  0.0240  0.2614
    1WF      WF68806  22.581  27.036   1.730 -0.0592 -0.0335 -0.0486
    1WF      WF68807   2.371  22.459   6.753 -0.0551  0.1554 -0.3062
    1WF      WF68808  17.033   8.358   0.260 -0.0255 -0.2304 -0.1275
    1WF      WF68809  22.944   8.361   7.623  0.1270  0.1240  0.2926
    1WF      WF68810  13.011   4.367   1.197 -0.0868  0.1872  0.2254
    1WF      WF68811  24.557  22.064   0.832  0.1212 -0.0779 -0.2504
    1WF      WF68812   1.254  16.587   7.199 -0.0964  0.3257  0.1481
    1WF      WF68813   2.545   7.906   0.642  0.1391 -0.1306 -0.1121
    1WF      WF68814  26.570   5.220   0.757  0.1000 -0.0389 -0.0665
    1WF      WF68815  25.105  11.984   2.691  0.0015 -0.0505 -0.1484
    1WF      WF68816  27.734   0.204   1.803 -0.1713 -0.2001  0.0748
    1WF      WF68817   0.195  24.530   1.112 -0.0472  0.0180 -0.2362
    1WF      WF68818  24.820  11.523   0.987  0.1000 -0.0420 -0.0315
    1WF      WF68819  15.715   1.738   7.678 -0.2460 -0.0821  0.0628
    1WF      WF68820  21.575   8.415   8.419  0.2009  0.1044 -0.1145
    1WF      WF68821  24.723  20.357   8.990 -0.1542  0.0971  0.0165
    1WF      WF68822  26.883  10.860   8.772  0.0412  0.0946 -0.1394
    1WF      WF68823  16.977   2.372   0.017 -0.3303 -0.0102  0.4252
    1WF      WF68824  25.401  29.782   7.643 -0.2738 -0.1574  0.2280
    1WF      WF68825  24.744   7.777   9.420  0.0239 -0.1121 -0.1477
    1WF      WF68826   1.318  16.617   6.730 -0.1043 -0.1305 -0.1994
    1WF      WF68827  15.818  27.657   0.887 -0.0720  0.1983 -0.0803
    1WF      WF68828  10.315   9.420   1.329  0.1168 -0.0548 -0.2366
    1WF      WF68829  13.789  28.365   9.257 -0.0644  0.1284  0.2445
    1WF      WF68830   2.109  25.806   7.291  0.0046 -0.2365  0.2725
    1WF      WF68831  13.534   7.206   1.437 -0.0235  0.1884 -0.1074
    1WF      WF68832  18.884  24.430   3.091 -0.2387 -0.1083 -0.0997
    1WF      WF68833  29.220  11.606   9.114 -0.0844 -0.2344 -0.1734
    1WF      WF68834   9.107  20.501   9.298  0.2989 -0.2551 -0.1680
    1WF      WF68835   4.041  28.350   1.261 -0.0519  0.0172  0.2623
    1WF      WF68836  21.124  21.329   1.237 -0.0986  0.0724 -0.1393
    1WF      WF68837  12.778  19.943   8.497 -0.1646  0.0681 -0.0044
    1WF      WF68838  25.330  24.011   8.173  0.1811  0.1039  0.0590
    1WF      WF68839  23.432  28.386   0.241 -0.0699  0.0642  0.0574
    1WF      WF68840   8.977  21.410   0.126 -0.2368  0.1828 -0.0335
    1WF      WF68841  29.612   5.839   8.449  0.1170  0.2223  0.1856
    1WF      WF68842  21.319  17.368   1.055  0.1902  0.4440 -0.0771
    1WF      WF68843   8.977   3.814   0.569 -0.0393 -0.2210 -0.1341
    1WF      WF68844  29.250  16.085   8.112  0.0831 -0.1609 -0.1311
    1WF      WF68845  29.761  26.456   8.985  0.0741  0.0096 -0.0721
    1WF      WF68846   7.551  16.453   2.283 -0.2012 -0.3736 -0.1135
    1WF      WF68847   1.241  20.296   0.358  0.4311 -0.4898 -0.0999
    1WF      WF68848   0.229  19.079   9.444 -0.1166  0.0873  0.1545
    1WF      WF68849  11.028  14.853   0.435 -0.0349 -0.0664  0.1703
    1WF      WF68850  10.478  24.489   1.112 -0.1262 -0.1356 -0.0915
    1WF      WF68851  12.013  16.545   2.352  0.1872  0.1606 -0.1556
    1WF      WF68852   5.724  27.062   0.342 -0.3655 -0.0723 -0.4742
    1WF      WF68853  22.057  20.141   8.085  0.1001 -0.1299 -0.0080
    1WF      WF68854   9.106  20.922   0.104  0.2385 -0.3073  0.0468
    1WF      WF68855  29.745   7.828   1.485  0.0891 -0.3712  0.2140
    1WF      WF68856  26.911   2.292   8.912 -0.0942  0.2288 -0.0079
    1WF      WF68857  14.850  23.290   0.583  0.1484  0.0499  0.3110
    1WF      WF68858  14.122   2.560   2.779  0.1960  0.1747  0.0340
    1WF      WF68859  25.610  10.730   6.553 -0.2292 -0.0829 -0.0356
    1WF      WF68860  22.370  19.813   8.287  0.0904 -0.0417 -0.1961
    1WF      WF68861  28.256   8.737   6.149 -0.4027  0.1147  0.1095
    1WF      WF68862  18.196  21.055   1.450 -0.0431 -0.0692  0.2854
    1WF      WF68863  12.150  16.729   1.854  0.0830  0.3530  0.0516
    1WF      WF68864   0.205   3.731   0.799  0.0778  0.3122  0.1859
    1WF      WF68865   1.590  25.509   1.094  0.3955 -0.3584 -0.3530
    1WF      WF68866   3.516   8.696   2.176 -0.0635  0.3303 -0.1231
    1WF      WF68867  28.158  20.216   9.387  0.1546 -0.1044  0.0864
    1WF      WF68868  22.483  24.527   0.509 -0.2877 -0.1810  0.0444
    1WF      WF68869  24.018  17.623   2.709 -0.3587  0.1099  0.1365
    1WF      WF68870  25.498   0.169   0.151 -0.0010 -0.2011 -0.0763
    1WF      WF68871  11.506   6.708   0.077 -0.0707  0.0209 -0.1207
    1WF      WF68872  16.617  26.890   2.248  0.1940  0.5595  0.1296
    1WF      WF68873  15.650  29.458   1.540 -0.3238  0.0682  0.1010
    1WF      WF68874  13.510  29.452   1.515 -0.0064  0.4371 -0.0959
    1WF      WF68875  18.876  20.264   0.876  0.0535 -0.2943  0.1030
    1WF      WF68876  20.264  24.944   8.383 -0.2118  0.1670  0.0996
    1WF      WF68877  25.887   6.029   6.972 -0.2526 -0.1164  0.3554
    1WF      WF68878   7.915  14.240   6.450  0.1927 -0.0774  0.1680
    1WF      WF68879  28.450  29.136   1.500  0.0755 -0.0546  0.0059
    1WF      WF68880  18.178  27.501   0.182  0.0390  0.2066 -0.2500
    1WF      WF68881  27.123  26.068   0.061  0.1284 -0.2602 -0.0784
    1WF      WF68882  24.773  20.639   7.968  0.1505 -0.1048  0.1298
    1WF      WF68883   6.454  28.898   9.025 -0.1676  0.1001  0.1094
    1WF      WF68884  21.058  12.504   8.694 -0.0349 -0.0934 -0.1014
    1WF      WF68885  20.084   7.393   0.329 -0.1241  0.3544  0.0516
    1WF      WF68886   5.143  23.932   0.269  0.0718 -0.0399 -0.0669
    1WF      WF68887  12.519  23.286   7.284  0.3479  0.0602 -0.0797
    1WF      WF68888   1.167   4.434   0.130 -0.1308  0.0777 -0.4741
    1WF      WF68889  18.313   7.535   7.954 -0.1155 -0.3877 -0.0926
    1WF      WF68890  14.151   7.463   2.054 -0.3010 -0.0907 -0.0142
    1WF      WF68891   6.484  25.849   1.619 -0.0404  0.1155  0.4451
    1WF      WF68892  23.020   5.369   0.089  0.1566 -0.1372  0.2738
    1WF      WF68893   9.536   1.207   1.161 -0.1502  0.0071  0.3997
    1WF      WF68894  25.894  18.833   1.473  0.0649 -0.1168  0.2354
    1WF      WF68895  24.859  16.691   2.358 -0.4042  0.0524 -0.2329
    1WF      WF68896  19.691  27.188   8.488 -0.1092 -0.1530  0.5417
    1WF      WF68897   0.969  13.501   8.006 -0.2098  0.1163  0.0394
    1WF      WF68898  19.446   5.182   7.842  0.0942  0.0765  0.1850
    1WF      WF68899  20.266  23.259   0.023  0.0542 -0.0918 -0.0014
    1WF      WF68900  13.180  14.102   8.816  0.1181 -0.1321  0.2457
    1WF      WF68901  19.146  25.779   0.030 -0.0194 -0.2061 -0.3335
    1WF      WF68902  25.000   9.489   8.709  0.1463 -0.1814  0.0315
    1WF      WF68903  20.760  29.194   8.031  0.2025 -0.1749  0.2881
    1WF      WF68904  12.100  22.230   6.935 -0.0255 -0.1765  0.1963
    1WF      WF68905   4.405  29.269   1.314 -0.2969  0.0085  0.0470
    1WF      WF68906   0.775   5.646   8.250 -0.3092 -0.0507 -0.1383
    1WF      WF68907   1.975  21.453   6.671 -0.1352 -0.0686 -0.2813
    1WF      WF68908  27.835  25.440   1.859 -0.0648  0.0236 -0.0790
    1WF      WF68909  11.401  20.585   8.102  0.0384 -0.2285  0.0248
    1WF      WF68910  17.272  24.102   8.481 -0.2059  0.2496 -0.1662
    1WF      WF68911  19.159   1.211   1.618 -0.2188 -0.1640 -0.1458
    1WF      WF68912  26.479  19.303   9.406  0.1564 -0.0484 -0.1228
    1WF      WF68913  24.361   4.766   8.072  0.0188  0.0633 -0.1748
    1WF      WF68914   3.511  22.420   8.120  0.2343  0.2072 -0.4796
    1WF      WF68915  10.798  27.168   0.221 -0.3061 -0.1250  0.0401
    1WF      WF68916  13.770  12.898   0.877  0.0284 -0.1524 -0.3979
    1WF      WF68917   3.007   3.110   7.937  0.4304  0.0885  0.1862
    1WF      WF68918  18.680  17.320   1.364  0.1967  0.1873 -0.1069
    1WF      WF68919  26.442  11.162   0.457  0.2010  0.1747 -0.1709
    1WF      WF68920  12.184  22.682   1.342 -0.1466 -0.0165 -0.0836
    1WF      WF68921   1.273   3.667   9.001 -0.2378 -0.2183  0.1446
    1WF      WF68922   4.613  19.604   9.260  0.1376  0.1234  0.1108
    1WF      WF68923  22.613  11.951   8.935 -0.0661  0.0387 -0.3236
    1WF      WF68924  13.768   1.536   0.663  0.1492 -0.1267 -0.2143
    1WF      WF68925  25.140  26.401   8.515 -0.1975 -0.1301  0.1673
    1WF      WF68926   4.759  20.842   7.804 -0.3699 -0.0833  0.1291
    1WF      WF68927   4.882   4.839   0.150  0.0047  0.2189 -0.1160
    1WF      WF68928   1.071  26.656   9.195 -0.2899 -0.4334 -0.1885
    1WF      WF68929  11.797  14.839   8.080  0.0417 -0.0577  0.0290
    1WF      WF68930  28.242   5.674   8.787  0.0741 -0.0982 -0.3530
    1WF      WF68931  15.728  12.992   1.195 -0.0859 -0.0820  0.2748
    1WF      WF68932  22.707  27.371   2.067  0.4091 -0.0439  0.1084
    1WF      WF68933  27.411  16.851   1.353 -0.1373  0.1138 -0.0642
    1WF      WF68934  25.620  13.434   8.104  0.0361 -0.0065 -0.3039
    1WF      WF68935  29.591  14.660   0.740  0.3278  0.1527  0.2020
    1WF      WF68936   8.556   6.984   8.869  0.2416  0.2286  0.2211
    1WF      WF68937  21.535  19.037   8.743 -0.1396 -0.1796 -0.0567
    1WF      WF68938   4.331  19.266   5.596 -0.0658 -0.0937  0.1108
    1WF      WF68939  28.652   4.891   0.627  0.0031 -0.0719  0.1609
    1WF      WF68940  10.040  16.971   8.223 -0.0197 -0.3437  0.3028
    1WF      WF68941   4.265  16.536   7.673  0.0499  0.0391 -0.0760
    1WF      WF68942  18.321   4.822   0.968 -0.2739 -0.0036  0.0682
    1WF      WF68943   9.525  24.481   8.083  0.1287 -0.0375  0.3724
    1WF      WF68944   0.521  24.323   0.129 -0.0453 -0.1938  0.1198
    1WF      WF68945  14.279  21.368   7.122  0.2704 -0.3131 -0.2524
    1WF      WF68946  10.866  24.636   0.212 -0.3161  0.0443 -0.1600
    1WF      WF68947   9.761  19.142   0.785  0.1447 -0.1169  0.0570
    1WF      WF68948  17.172  12.503   7.959 -0.1994 -0.0102 -0.1146
    1WF      WF68949   5.810   2.174   8.417 -0.1288  0.1290  0.3285
    1WF      WF68950  22.582   6.663   9.043 -0.0924 -0.0735  0.1561
    1WF      WF68951  13.550   8.666   0.004 -0.2834  0.2345  0.1274
    1WF      WF68952  23.749  25.458   6.387  0.0050 -0.4004 -0.1159
    1WF      WF68953   2.993  29.521   8.922  0.2326 -0.0636 -0.0158
    1WF      WF68954  25.564  24.091   8.669 -0.2088  0.3194 -0.1399
    1WF      WF68955  19.448  19.044   0.489  0.0728  0.0803 -0.2065
    1WF      WF68956  26.323   1.707   1.058  0.0031  0.1414 -0.0480
    1WF      WF68957  11.348   9.346   1.397 -0.2583  0.0369  0.1369
    1WF      WF68958  27.335   6.188   7.451  0.5748  0.3508 -0.1763
    1WF      WF68959   2.901  12.552   0.552  0.2457  0.1919 -0.1898
    1WF      WF68960   1.539   5.123   2.753  0.3542 -0.2879  0.3292
    1WF      WF68961  29.449   3.357   0.343  0.1526 -0.0265 -0.1853
    1WF      WF68962  14.139   5.525   7.850  0.1962  0.1088 -0.1529
    1WF      WF68963  22.674  15.575   1.753 -0.0785  0.0430  0.0624
    1WF      WF68964  24.377  13.003   0.140 -0.2014  0.1710 -0.1174
    1WF      WF68965  19.796  10.262   8.111 -0.0159 -0.0012 -0.1969
    1WF      WF68966  25.256   6.143   8.647 -0.3586  0.0411 -0.2289
    1WF      WF68967   2.134  14.833   1.192 -0.0937 -0.0201 -0.1149
    1WF      WF68968   5.147  23.925   1.548  0.2807  0.1810 -0.0881
    1WF      WF68969  15.758  20.624   0.918  0.1558 -0.3009  0.1878
    1WF      WF68970  26.689  12.599   0.941 -0.1547 -0.1884 -0.1784
    1WF      WF68971  10.641  10.711   9.089 -0.2856 -0.0782  0.1559
    1WF      WF68972  16.688   8.913   8.232  0.1953 -0.1306 -0.0900
    1WF      WF68973  15.496  13.022   8.342  0.1844 -0.1429  0.2399
    1WF      WF68974   0.726  17.951   1.653  0.0204  0.0393 -0.3372
    1WF      WF68975  16.520  11.511   0.002  0.0253 -0.3552  0.1434
    1WF      WF68976  22.885  29.655   8.398 -0.3814 -0.2233  0.2034
    1WF      WF68977  16.986   1.419   1.800  0.1566 -0.3420 -0.1633
    1WF      WF68978  14.850  15.086   0.852 -0.0957  0.0766  0.0946
    1WF      WF68979   2.227   7.483   8.429 -0.1131  0.1331  0.1833
    1WF      WF68980  29.074  28.604   8.767  0.3121 -0.1108 -0.0274
    1WF      WF68981  13.895  25.025   0.983  0.1002  0.0537  0.1393
    1WF      WF68982   9.399   3.396   9.465 -0.2533 -0.0560  0.1992
    1WF      WF68983  21.448   6.597   0.195 -0.4257  0.2513  0.2053
    1WF      WF68984  17.832  11.636   9.307 -0.1597  0.3700 -0.2055
    1WF      WF68985   6.544   1.782   1.264 -0.4294 -0.2562 -0.0443
    1WF      WF68986   1.400  27.143   9.251  0.0904  0.0611 -0.3244
    1WF      WF68987   7.872   3.629   1.808 -0.0104 -0.1782 -0.0988
    1WF      WF68988   1.764  27.915   8.438  0.2237 -0.0687 -0.1943
    1WF      WF68989  22.755  17.911   0.568 -0.0459  0.3209 -0.1064
    1WF      WF68990   8.934   5.784   8.749 -0.1344  0.0790 -0.3979
    1WF      WF68991   2.356   8.039   8.495  0.2830  0.1299  0.0893
    1WF      WF68992  15.300  23.612   7.854  0.2025  0.1757 -0.2439
    1WF      WF68993   6.541  20.410   7.790  0.1402 -0.2480 -0.0013
    1WF      WF68994  24.493  20.447   9.393 -0.0047  0.3584 -0.0509
    1WF      WF68995  10.244   2.560   3.398  0.1361 -0.0385 -0.0365
    1WF      WF68996   1.571  11.799   0.013 -0.1391  0.1492 -0.3130
    1WF      WF68997   5.975  20.949   2.021  0.1613  0.2630  0.0297
    1WF      WF68998  28.953  20.447   7.908  0.0260  0.0309  0.1152
    1WF      WF68999   8.604   5.405   8.866 -0.2783 -0.1145  0.1568
    1WF      WF69000  10.780  25.131   7.655 -0.0647  0.2435 -0.1835
    1WF      WF69001   0.549  12.984   0.774 -0.0535  0.2274 -0.0028
    1WF      WF69002  28.297  28.494   9.462 -0.2657 -0.0317 -0.1098
    1WF      WF69003  20.885  22.827   9.114  0.0237 -0.0390  0.1885
    1WF      WF69004   0.073  10.680   0.878  0.0322 -0.0433 -0.0983
    1WF      WF69005   9.685   0.704   1.133  0.0840  0.1245  0.0071
    1WF      WF69006  14.508  11.635   1.187 -0.0644  0.1093  0.1719
    1WF      WF69007   5.461  25.358   0.069 -0.2136 -0.0137 -0.2665
    1WF      WF69008  27.997  28.993   0.129 -0.3443  0.1257 -0.0638
    1WF      WF69009  11.168  14.046   1.605 -0.4332  0.1946  0.1908
    1WF      WF69010  10.678  16.219   0.030 -0.0070 -0.3504 -0.1858
    1WF      WF69011  20.197   5.648   1.168 -0.0104 -0.0775  0.0306
    1WF      WF69012   8.446  14.711   0.063 -0.0841 -0.3974  0.0488
    1WF      WF69013  25.267   1.965   9.013  0.2020  0.2043  0.2862
    1WF      WF69014   6.598  25.607   1.200  0.0979 -0.0542  0.2153
    1WF      WF69015  15.140  15.075   1.266  0.0180  0.0200  0.1415
    1WF      WF69016  11.655  16.340   0.766 -0.0832 -0.3765  0.2666
    1WF      WF69017   3.150   0.096   1.884  0.2449  0.1606 -0.1016
    1WF      WF69018  26.922  19.014   8.556  0.0261 -0.0022 -0.2057
    1WF      WF69019  23.507  25.699   7.866 -0.2166 -0.0144 -0.0812
    1WF      WF69020   0.037   2.594   8.586  0.1839  0.2443  0.0028
    1WF      WF69021  10.317  17.384   8.083  0.0821 -0.1338  0.1266
    1WF      WF69022  11.035  17.726   8.939 -0.0877  0.2443  0.2171
    1WF      WF69023   4.451  11.966   0.299  0.0814 -0.2136 -0.3467
    1WF      WF69024  14.515   3.472   2.228 -0.0832  0.2152  0.1717
    1WF      WF69025  20.297  10.881   1.194  0.1684  0.2056 -0.1223
    1WF      WF69026   2.834  27.285   8.687  0.0003  0.0362  0.2117
    1WF      WF69027  28.709  10.459   0.944 -0.3022 -0.4129 -0.2098
    1WF      WF69028  16.742  10.067   0.590 -0.1329  0.0202 -0.2432
    1WF      WF69029   0.004  27.482   1.795  0.4249  0.1320  0.2152
    1WF      WF69030   9.075  10.201   0.888  0.1609 -0.0693 -0.0196
    1WF      WF69031  13.705  13.929   8.864  0.1548  0.2726 -0.1440
    1WF      WF69032   1.827  29.437   0.198 -0.3823  0.0851  0.0357
    1WF      WF69033  21.428  16.245   0.604 -0.3058  0.1324  0.0584
    1WF      WF69034   1.011   5.160   8.321  0.0387 -0.0058  0.0357
    1WF      WF69035  27.720  25.247   0.455  0.0769  0.4277  0.0268
    1WF      WF69036  10.966  23.385   7.230 -0.2099  0.0055 -0.0318
    1WF      WF69037   6.471  20.903   7.753 -0.1720  0.1502  0.0160
    1WF      WF69038  17.324  19.297   7.535 -0.1421  0.0644 -0.0050
    1WF      WF69039  22.008   2.581   0.560 -0.1438  0.0746 -0.0706
    1WF      WF69040  13.314  10.059   8.488 -0.1130  0.2372 -0.0060
    1WF      WF69041   0.441   2.848   6.318 -0.2195  0.0977 -0.1054
    1WF      WF69042  18.127   0.014   1.130  0.2362  0.3638 -0.0275
    1WF      WF69043  17.351  28.718   9.080  0.1268 -0.0896 -0.1289
    1WF      WF69044  13.028   9.275   2.528  0.0123  0.1830  0.1956
    1WF      WF69045   5.487   6.356   1.973 -0.1813  0.0808  0.2104
    1WF      WF69046   3.659  12.702   0.376 -0.0566  0.0881  0.0408
    1WF      WF69047  26.595   6.674   8.439  0.2902 -0.0509 -0.2777
    1WF      WF69048  15.969  14.212   6.912 -0.1945 -0.0407 -0.0674
    1WF      WF69049   2.359   8.826   7.940 -0.3707 -0.2139  0.5203
    1WF      WF69050  18.957   3.896   9.311  0.0471 -0.0504 -0.0857
    1WF      WF69051  10.500  13.221   8.175 -0.0680  0.0825  0.1375
    1WF      WF69052   7.774  13.136   0.200  0.0930 -0.1647 -0.2371
    1WF      WF69053  21.961  12.524   7.660 -0.5809  0.1838  0.0730
    1WF      WF69054  22.406   4.053   1.939  0.0202 -0.0335  0.0584
    1WF      WF69055  25.289   2.609   1.798 -0.0675 -0.2062  0.0318
    1WF      WF69056   3.149   4.477   0.893 -0.2554 -0.2082 -0.0599
    1WF      WF69057  27.716  26.176   8.221 -0.0047  0.0994  0.1750
    1WF      WF69058  29.700  27.070   1.748 -0.0211  0.0113  0.0294
    1WF      WF69059  15.282   2.646   0.503  0.1468  0.1592  0.1050
    1WF      WF69060  12.413  22.775   1.754 -0.0493  0.0744  0.0787
    1WF      WF69061   2.223   4.704   8.092 -0.3589  0.2007  0.1494
    1WF      WF69062   1.209   2.841   6.878  0.1175 -0.2939  0.1838
    1WF      WF69063  25.873   3.575   1.744  0.0454  0.0988 -0.1388
    1WF      WF69064  25.221  19.312   8.455  0.0175 -0.1204 -0.3622
    1WF      WF69065  21.432  23.570   8.416  0.0413  0.0891 -0.0467
    1WF      WF69066   6.559  19.677   1.684 -0.1153 -0.0478 -0.0249
    1WF      WF69067  12.096  28.614   0.303 -0.3423  0.0875 -0.1086
    1WF      WF69068  10.643   5.236   8.586  0.2604  0.0679  0.0226
    1WF      WF69069   8.322   5.120   1.263  0.1372 -0.0909  0.1727
    1WF      WF69070   2.885  22.698   8.852 -0.2860 -0.1405 -0.3101
    1WF      WF69071  27.499   7.995   0.122 -0.0305 -0.3373  0.1067
    1WF      WF69072  16.730  16.066   7.950 -0.0008 -0.0949  0.0475
    1WF      WF69073  21.902  17.349   8.079  0.0883 -0.2841  0.2075
    1WF      WF69074   0.191   3.220   3.008 -0.1156  0.3312 -0.0173
    1WF      WF69075  24.162  17.329   9.323  0.2068 -0.0406  0.0483
    1WF      WF69076  24.250   9.265   9.056  0.0893  0.1211 -0.0847
    1WF      WF69077  14.776   8.573   8.942  0.2727 -0.1277 -0.1865
    1WF      WF69078  15.631  26.469   0.327  0.0506 -0.1052 -0.2963
    1WF      WF69079  10.558  11.094   9.378  0.2777 -0.2264  0.2682
    1WF      WF69080   1.728   1.332   1.429 -0.2370  0.1848  0.2115
    1WF      WF69081  17.644  25.540   1.607  0.0517  0.0496 -0.1674
    1WF      WF69082   9.172   6.678   2.704  0.2345 -0.0863  0.0947
    1WF      WF69083   7.374   4.697   3.033 -0.0996  0.2275 -0.1616
    1WF      WF69084  28.905  22.985   9.429 -0.0280  0.1915 -0.1711
    1WF      WF69085  24.180  20.616   0.299  0.2488  0.0974 -0.0854
    1WF      WF69086  22.727   0.878   3.377  0.2100 -0.0844  0.0392
    1WF      WF69087   0.512  20.620   8.279  0.5382 -0.1382 -0.2503
    1WF      WF69088  15.652   7.109   7.803 -0.0544  0.0439 -0.1914
    1WF      WF69089  26.043  13.592   8.317 -0.1285 -0.1179  0.0894
    1WF      WF69090  28.921  20.966   8.009  0.1342 -0.0269  0.2159
    1WF      WF69091  26.345  28.324   8.308  0.0925 -0.0160 -0.2087
    1WF      WF69092  19.716  16.963   7.560  0.3538 -0.0789  0.1491
    1WF      WF69093   7.515  25.287   0.837  0.1414  0.0493  0.0228
    1WF      WF69094  12.460  23.909   0.307 -0.1488  0.1188  0.0489
    1WF      WF69095  20.702  22.537   8.743 -0.0395 -0.0749 -0.0122
    1WF      WF69096   5.930  26.604   0.262 -0.0497  0.0981  0.0035
    1WF      WF69097  12.273  25.467   1.326  0.2211 -0.2190  0.3353
    1WF      WF69098  26.101  11.947   8.293  0.0336  0.3739 -0.0143
    1WF      WF69099  16.017   4.529   1.360  0.0302 -0.0455  0.1312
    1WF      WF69100  25.770  10.135   8.226 -0.0408 -0.1255 -0.1117
    1WF      WF69101  19.971  17.153   0.973 -0.1470 -0.2349  0.0240
    1WF      WF69102  24.116   0.882   6.929 -0.0208 -0.0186  0.1702
    1WF      WF69103   2.342   4.288   0.452  0.0542 -0.4708  0.0611
    1WF      WF69104  28.546  26.980   1.317  0.1140 -0.0225  0.2213
    1WF      WF69105  20.391  18.864   1.093  0.1838 -0.3756 -0.0836
    1WF      WF69106   0.747  11.720   7.857  0.0947  0.3060 -0.0279
    1WF      WF69107  20.875  17.210   0.907  0.0796 -0.1348 -0.0600
    1WF      WF69108  25.615  11.693   8.262 -0.1509  0.2046  0.0920
    1WF      WF69109   5.013   9.276   3.207 -0.0736  0.0574  0.1403
    1WF      WF69110  13.438   1.088   2.111 -0.0560 -0.0030 -0.0514
    1WF      WF69111  14.795  23.968   7.888  0.1168 -0.3786  0.1608
    1WF      WF69112  19.392  20.291   0.807 -0.0183  0.0955  0.0520
    1WF      WF69113  12.006   5.148   0.848  0.0177  0.3523  0.0912
    1WF      WF69114  12.114  24.321   0.346 -0.0453 -0.1319  0.1880
    1WF      WF69115   9.979  29.810   8.547  0.0698  0.1760  0.0477
    1WF      WF69116   7.000  18.619   1.163  0.4551 -0.1997 -0.0830
    1WF      WF69117   1.343   8.984   1.151 -0.0902  0.1724  0.0628
    1WF      WF69118  13.776  23.499   8.055 -0.3150 -0.2295  0.2102
    1WF      WF69119  19.944   7.072   9.410 -0.1996  0.1946 -0.0876
    1WF      WF69120  21.899  18.718   0.703  0.1707  0.1590 -0.2258
    1WF      WF69121   2.804   9.373   1.835 -0.1875 -0.1232  0.1324
    1WF      WF69122   8.121  12.912   9.370 -0.0813 -0.1672  0.1099
    1WF      WF69123  23.253  12.181   8.680  0.0851 -0.1759 -0.3398
    1WF      WF69124   2.739  14.886   1.266 -0.0218 -0.1280 -0.0369
    1WF      WF69125  15.819  29.755   0.151  0.2071  0.1312 -0.3769
    1WF      WF69126  15.388  16.522   8.341  0.2145 -0.2407  0.2432
    1WF      WF69127  12.122  27.735   8.447  0.2595 -0.1869  0.3413
    1WF      WF69128  17.747  17.734   8.629 -0.2668  0.1195  0.2394
    1WF      WF69129   1.655   6.333   0.905  0.0383  0.0754  0.1529
    1WF      WF69130   8.295  29.008   1.717  0.2660  0.2837  0.0128
    1WF      WF69131  12.749  11.747   0.505  0.1211 -0.0084 -0.2663
    1WF      WF69132  18.514  25.593   7.136 -0.2609  0.2068  0.1816
    1WF      WF69133   1.075  16.264   7.469  0.0326 -0.2396 -0.1059
    1WF      WF69134  11.244  23.673   6.868 -0.1228  0.0516 -0.0868
    1WF      WF69135  22.448  13.079   8.803 -0.0753 -0.0441 -0.1739
    1WF      WF69136  29.840  23.400   8.764  0.2191 -0.1317  0.1280
    1WF      WF69137  12.331  22.701   0.811 -0.0444 -0.2451 -0.0416
    1WF      WF69138   4.219  14.358   6.797  0.1919 -0.1940 -0.1243
    1WF      WF69139  15.960  14.707   8.692 -0.2672  0.2071 -0.1450
    1WF      WF69140   6.133  14.818   6.718  0.1414  0.0909 -0.1039
    1WF      WF69141  11.201  27.734   2.442  0.1658 -0.1062  0.1861
    1WF      WF69142  23.734   5.761   1.324  0.2580 -0.1698  0.0199
    1WF      WF69143  15.944   5.874   2.185 -0.4961  0.1068 -0.1122
    1WF      WF69144  23.316   4.738   8.759  0.4492 -0.3685  0.1190
    1WF      WF69145  23.472  19.761   0.463 -0.1400  0.1862 -0.2690
    1WF      WF69146  22.311  28.810   7.642 -0.1204 -0.0570 -0.1133
    1WF      WF69147  23.749  14.819   9.024 -0.0282  0.0869  0.0914
    1WF      WF69148  16.813  17.064   7.716  0.0113 -0.2712 -0.0749
    1WF      WF69149   3.305  10.188   9.196  0.0421  0.0847 -0.1081
    1WF      WF69150   3.683   6.853   7.532  0.0837  0.1833  0.0219
    1WF      WF69151  16.425  21.868   0.036  0.2114 -0.2172 -0.2096
    1WF      WF69152   3.767   0.154   7.177 -0.1252 -0.1246  0.0682
    1WF      WF69153  28.657   8.477   8.907  0.1620 -0.0677 -0.1612
    1WF      WF69154   3.437  17.311   8.996  0.1259 -0.0562 -0.3944
    1WF      WF69155   4.806  14.240   8.314 -0.1946 -0.1861  0.0782
    1WF      WF69156  16.606  14.560   9.342  0.2306 -0.2573  0.0893
    1WF      WF69157  25.920  24.472   7.062  0.3039  0.0747 -0.1470
    1WF      WF69158  10.336  14.741   2.007  0.2308  0.1794 -0.0561
    1WF      WF69159  29.095  26.376   1.471 -0.1124  0.0802 -0.1674
    1WF      WF69160  25.128   8.658   7.149  0.2984 -0.1075  0.1649
    1WF      WF69161  17.145  10.403   7.017 -0.0971 -0.4804 -0.0665
    1WF      WF69162  17.153  28.863   8.034  0.2537 -0.2027 -0.0397
    1WF      WF69163  15.438  26.060   7.822 -0.3606  0.0433 -0.2019
    1WF      WF69164  19.978  21.304   1.576 -0.1676  0.0808 -0.0044
    1WF      WF69165  11.949  26.743   8.976 -0.1240 -0.2428 -0.1211
    1WF      WF69166  11.800  24.140   8.907  0.4196  0.1221 -0.0371
    1WF      WF69167   3.177   0.700   1.861 -0.0975 -0.0152  0.1067
    1WF      WF69168   9.141  13.620   7.401  0.0933  0.1078  0.1113
    1WF      WF69169  12.532   7.147   9.245  0.0714  0.4224  0.2462
    1WF      WF69170   7.784  27.389   6.989 -0.0356 -0.1698  0.4703
    1WF      WF69171  25.244   7.500   0.152 -0.1381 -0.0473 -0.2271
    1WF      WF69172   9.227  26.628   0.686  0.2817 -0.0689 -0.2682
    1WF      WF69173  14.562   8.838   1.603 -0.1038 -0.2445  0.1076
    1WF      WF69174   7.616  24.782   1.084  0.1405  0.0850 -0.2186
    1WF      WF69175  12.674  27.044   3.413 -0.0899 -0.2003  0.0553
    1WF      WF69176  13.791   7.526   1.719 -0.1720 -0.2156 -0.1418
    1WF      WF69177  15.831   6.766   8.181  0.1833  0.2741  0.3014
    1WF      WF69178   9.474   0.604   0.652  0.3808 -0.1994  0.3148
    1WF      WF69179   1.010  21.488   8.712 -0.1040 -0.0667 -0.2431
    1WF      WF69180   3.689  25.106   7.485 -0.2438 -0.2484  0.2516
    1WF      WF69181  18.405   3.936   1.467  0.0195 -0.0854  0.2038
    1WF      WF69182   7.640   3.269   1.215  0.0652  0.0080 -0.0980
    1WF      WF69183  19.598  13.233   0.681  0.2514 -0.0780  0.0639
    1WF      WF69184   0.757  27.906   8.267  0.0886 -0.3603 -0.0808
    1WF      WF69185  24.488   8.316   1.595  0.0227 -0.3129  0.0742
    1WF      WF69186  12.008  24.829   8.430 -0.1992  0.2502  0.0447
    1WF      WF69187  23.580   6.763   8.572  0.1544  0.0756  0.0778
    1WF      WF69188  19.688  13.737   7.634 -0.0808  0.2606 -0.0537
    1WF      WF69189  27.932   4.387   8.321 -0.2857  0.2794 -0.0991
    1WF      WF69190  19.207  12.121   8.409  0.2870  0.2127 -0.0694
    1WF      WF69191  15.680  10.284   7.768 -0.0974 -0.2580  0.1659
    1WF      WF69192  13.992  29.016   8.486 -0.0357 -0.2772  0.0924
    1WF      WF69193   4.376  14.414   2.739  0.0484 -0.0144  0.0074
    1WF      WF69194   3.240  25.130   8.738  0.1888  0.2654  0.1399
    1WF      WF69195  12.114  26.530   9.380 -0.1759  0.0823 -0.1122
    1WF      WF69196   5.341  10.650   0.179  0.0281 -0.3277  0.1589
    1WF      WF69197   1.702  16.740   5.873 -0.1254 -0.1243  0.1222
    1WF      WF69198  23.043  10.353   7.930  0.1174 -0.0750  0.1439
    1WF      WF69199   1.093  20.826   0.332 -0.1372  0.1581  0.0374
    1WF      WF69200  24.145  14.388   9.450  0.0307  0.1734  0.0053
    1WF      WF69201  20.780   0.629   6.742 -0.0362 -0.2622 -0.4505
    1WF      WF69202  12.757  24.454   0.894 -0.1432  0.1276  0.0151
    1WF      WF69203  14.118  12.871   0.442 -0.3194  0.3312 -0.0663
    1WF      WF69204  11.423  18.320   7.592 -0.1989 -0.2584  0.1391
    1WF      WF69205  19.038  10.665   7.277 -0.3117 -0.0976 -0.1080
    1WF      WF69206   9.046   6.116   7.133 -0.0440  0.2342  0.2925
    1WF      WF69207   5.726  24.952   7.254  0.0981  0.2403  0.1043
    1WF      WF69208   2.211  24.150   5.669  0.0971 -0.0541  0.0546
    1WF      WF69209  13.400  28.348   0.109  0.0984  0.1371  0.0422
    1WF      WF69210  18.914  29.663   7.847  0.1396  0.2838 -0.1038
    1WF      WF69211  26.880  15.424   1.675 -0.1555 -0.2610  0.3454
    1WF      WF69212  25.060  29.142   2.716  0.3494 -0.2470 -0.1683
    1WF      WF69213   5.148  16.443   8.015 -0.0250 -0.1074 -0.1312
    1WF      WF69214   8.775  26.336   8.267 -0.1660  0.0218  0.0301
    1WF      WF69215   8.660  17.466   7.452  0.3174 -0.0849 -0.0964
    1WF      WF69216  16.740   4.909   7.465 -0.0533 -0.2280 -0.0947
    1WF      WF69217  19.582  20.609   1.207 -0.0419  0.1891  0.0837
    1WF      WF69218   7.260  15.940   8.452  0.2017 -0.0414 -0.1405
    1WF      WF69219  18.543   3.635   9.092  0.2036 -0.0939  0.0726
    1WF      WF69220  19.486  16.444   0.480 -0.0400  0.1343  0.2499
    1WF      WF69221   6.489   1.023   0.376 -0.1743 -0.3618  0.0776
    1WF      WF69222   3.052   3.335   2.108 -0.2748  0.1843  0.0549
    1WF      WF69223  19.509  27.952   1.058 -0.1604  0.3436  0.1708
    1WF      WF69224  11.041  20.625   8.509 -0.0927  0.1676 -0.0405
    1WF      WF69225  21.600   6.150   6.523 -0.2098  0.0415  0.0818
    1WF      WF69226  12.407  20.103   1.023 -0.0988 -0.3757  0.2689
    1WF      WF69227  10.577  19.917   7.571  0.1857 -0.3202 -0.1594
    1WF      WF69228  14.504  19.109   0.378  0.2529 -0.0260  0.0104
    1WF      WF69229  13.240   7.528   1.713  0.0438 -0.1224  0.1066
    1WF      WF69230  26.018   0.853   2.323  0.1425  0.2362  0.1320
    1WF      WF69231  19.060  11.834   8.830 -0.0139 -0.1522  0.2111
    1WF      WF69232   4.399  13.414   7.609  0.0112  0.1001 -0.0087
    1WF      WF69233   9.797  26.833   1.473 -0.1010  0.0540 -0.1703
    1WF      WF69234  25.126   3.542   6.825  0.4197  0.0556  0.3023
    1WF      WF69235  12.220   3.463   0.312 -0.1669 -0.1133 -0.0274
    1WF      WF69236  12.011   2.230   7.716  0.0234 -0.1261  0.0482
    1WF      WF69237  28.136  19.227   0.200  0.1023  0.0564  0.1710
    1WF      WF69238  17.253  15.153   0.017 -0.0987 -0.3818 -0.4333
    1WF      WF69239   9.805  28.398   9.350  0.0198  0.1179  0.0457
    1WF      WF69240   1.471  28.787   0.782 -0.1007 -0.1289  0.3661
    1WF      WF69241   3.540  26.595   6.462  0.2146  0.1276 -0.1181
    1WF      WF69242   7.687  24.664   7.010  0.1205  0.0624 -0.4677
    1WF      WF69243   5.830  10.239   1.886  0.0434  0.0379 -0.2803
    1WF      WF69244  19.800  15.323   7.734  0.2678  0.4255  0.1260
    1WF      WF69245   6.229   7.145   8.835  0.1304 -0.0507 -0.2039
    1WF      WF69246  10.812  22.222   8.775  0.0719 -0.1819 -0.1003
    1WF      WF69247   8.605  26.315   7.786 -0.1367 -0.0390 -0.0102
    1WF      WF69248   4.158   1.853   7.655  0.0147  0.2073  0.2295
    1WF      WF69249   6.650  21.066   7.312 -0.0016 -0.4171 -0.0386
    1WF      WF69250  21.131  19.009   9.055 -0.3103 -0.0259  0.1224
    1WF      WF69251   7.439  28.618   7.785 -0.3161  0.1641  0.1875
    1WF      WF69252  22.296   3.426   0.800 -0.3197  0.2116 -0.0244
    1WF      WF69253   4.697  26.423   8.300 -0.1100  0.0484 -0.1211
    1WF      WF69254   2.678  16.644   1.035  0.0801  0.3624 -0.3684
    1WF      WF69255   9.083   6.885   2.228 -0.0416 -0.2289  0.1647
    1WF      WF69256   0.325  17.543   7.117  0.0090  0.2201  0.3556
    1WF      WF69257   7.644  22.542   2.467 -0.0084  0.2606  0.1537
    1WF      WF69258  27.557   4.693   8.384  0.1811  0.1238 -0.0989
    1WF      WF69259  25.819  11.264   9.463 -0.0046 -0.1108  0.1185
    1WF      WF69260   6.698  26.852   8.438 -0.1013 -0.0932 -0.0858
    1WF      WF69261  13.963  23.873   8.256 -0.1271 -0.0883  0.1771
    1WF      WF69262  12.779   2.751   1.198 -0.0058  0.1261 -0.2333
    1WF      WF69263  29.889   5.924   7.448 -0.0103 -0.3062 -0.3407
    1WF      WF69264  10.189  16.834   0.912  0.0764  0.1725 -0.0375
    1WF      WF69265  17.963   9.026   9.310  0.0564 -0.0862  0.2654
    1WF      WF69266   1.692   8.179   6.326 -0.1114 -0.0193 -0.0698
    1WF      WF69267   7.658  24.322   1.751 -0.2827 -0.0602  0.2145
    1WF      WF69268  26.979   1.738   1.162  0.1398 -0.0170  0.0407
    1WF      WF69269  12.258  14.164   8.850  0.1314 -0.2093 -0.0765
    1WF      WF69270  13.514  27.076   0.711 -0.3714  0.1504 -0.2296
    1WF      WF69271   7.417   6.247   0.885 -0.2855 -0.1728  0.0142
    1WF      WF69272  20.418  19.563   8.690 -0.1258 -0.0297  0.2330
    1WF      WF69273  21.784  20.221   8.535  0.2180  0.4115 -0.1735
    1WF      WF69274   0.217   5.567   8.152  0.3232  0.3608 -0.0423
    1WF      WF69275   8.482   6.522   8.691 -0.0383  0.0177  0.0621
    1WF      WF69276   7.428   3.851   0.406  0.1749 -0.2477 -0.0812
    1WF      WF69277  19.969   0.904   8.241 -0.2617 -0.0088 -0.0536
    1WF      WF69278  27.954  12.129   0.183 -0.3613  0.2587  0.1435
    1WF      WF69279   5.243  11.107   0.068 -0.0919  0.0834 -0.0407
    1WF      WF69280  27.358   5.691   0.078  0.2388 -0.0705 -0.0566
    1WF      WF69281  11.872  28.737   2.260  0.0489 -0.0392 -0.3329
    1WF      WF69282  15.953  13.144   8.260 -0.1661  0.0456  0.0967
    1WF      WF69283  23.742   9.686   6.107 -0.2073 -0.1291  0.1220
    1WF      WF69284  11.236   3.251   8.522  0.2848  0.0933 -0.0512
    1WF      WF69285   2.571   3.926   0.262 -0.0539 -0.1788  0.2178
    1WF      WF69286   5.500  17.319   6.724 -0.0807  0.0154  0.0819
    1WF      WF69287  25.880  14.263   5.455  0.2030  0.0397 -0.0077
    1WF      WF69288  18.506   4.129   9.294 -0.3143  0.2084  0.2062
    1WF      WF69289  27.819  11.789   0.564  0.1711  0.0007  0.0297
    1WF      WF69290  25.665  20.930   0.865 -0.2950  0.0358  0.2095
    1WF      WF69291  20.848  27.509   9.206  0.1025 -0.0402  0.0194
    1WF      WF69292  23.903   8.148   8.354 -0.0466 -0.0189  0.0000
    1WF      WF69293   9.913   8.474   7.140  0.0218 -0.1299 -0.0216
    1WF      WF69294  18.908  11.457   6.018 -0.0655 -0.1180 -0.2034
    1WF      WF69295  11.568   0.540   0.144  0.0497 -0.2115 -0.3034
    1WF      WF69296  23.409  19.839   9.431  0.1388 -0.0758  0.0153
    1WF      WF69297  10.115  20.695   7.383 -0.1052 -0.3936 -0.1703
    1WF      WF69298  25.336   5.162   9.203 -0.0098 -0.4702 -0.1170
    1WF      WF69299  26.927   3.132   8.359 -0.1468 -0.1145 -0.1288
    1WF      WF69300  25.037   7.461   9.160 -0.1621 -0.3206 -0.2367
    1WF      WF69301  29.647  27.392   0.830 -0.1847 -0.0271  0.0152
    1WF      WF69302  10.056   6.585   0.521 -0.2828 -0.2865 -0.1976
    1WF      WF69303   0.892  21.573   6.435 -0.2689 -0.1082 -0.0874
    1WF      WF69304  10.231  17.963   0.920  0.2995  0.3419  0.0688
    1WF      WF69305  20.989   1.180   3.142 -0.0657 -0.1625  0.1448
    1WF      WF69306   3.419  21.138   1.508  0.1810 -0.1257  0.0507
    1WF      WF69307   6.026  22.565   0.535 -0.0429  0.1886 -0.0508
    1WF      WF69308  10.865  24.910   1.099  0.0424 -0.0728  0.3186
    1WF      WF69309  19.192  24.339   0.182 -0.2632  0.0112 -0.2399
    1WF      WF69310  29.667   3.231   7.344  0.0263 -0.1484  0.1448
    1WF      WF69311   3.322  28.742   0.695 -0.0134  0.2088 -0.2941
    1WF      WF69312  11.023   4.675   0.529  0.2028  0.1964 -0.1537
    1WF      WF69313   0.944  18.361   1.932 -0.2393  0.1029 -0.1102
    1WF      WF69314  26.542   6.270   9.179 -0.1218  0.0811  0.2726
    1WF      WF69315   9.563  20.668   0.326 -0.0676  0.1372 -0.0504
    1WF      WF69316  20.123   5.519   2.482 -0.0689 -0.4677  0.0908
    1WF      WF69317  24.899  29.530   0.051  0.0650  0.1082 -0.1125
    1WF      WF69318   4.275  16.114   0.127 -0.0392 -0.0767 -0.0499
    1WF      WF69319  22.018  13.311   9.027 -0.1743 -0.0584 -0.3502
    1WF      WF69320  11.240  20.172   8.648  0.0569 -0.2640  0.0075
    1WF      WF69321  16.917   7.491   9.067  0.0999  0.0783 -0.2874
    1WF      WF69322  10.891  16.131   9.070 -0.0062  0.0907 -0.2451
    1WF      WF69323   9.771  28.103   8.931  0.0980 -0.2881 -0.0596
    1WF      WF69324  28.954  15.713   8.309 -0.2401  0.0317 -0.3944
    1WF      WF69325   6.882  23.197   7.120 -0.0115 -0.1715 -0.0198
    1WF      WF69326  14.533  18.468   1.688  0.0820 -0.0301 -0.0494
    1WF      WF69327  24.277   1.545   1.810 -0.1771  0.0410 -0.3964
    1WF      WF69328  14.404  29.267   1.260 -0.1912 -0.1922  0.1281
    1WF      WF69329  29.447  18.231   8.812 -0.3177 -0.0037  0.0774
    1WF      WF69330  17.267  21.211   7.798  0.0761  0.2030 -0.0310
    1WF      WF69331  14.133  19.258   0.728 -0.1854 -0.4162 -0.1560
    1WF      WF69332  22.199  11.756   1.165 -0.2711  0.0052  0.0937
    1WF      WF69333  25.896   0.787   8.834  0.1398  0.1961 -0.1859
    1WF      WF69334  12.059   2.813   1.362  0.0318 -0.1625  0.3987
    1WF      WF69335   6.755  24.475   8.569  0.0094  0.6165  0.1586
    1WF      WF69336  13.218  14.749   8.838  0.0022  0.0062  0.1199
    1WF      WF69337  28.970  18.207   9.041 -0.1935 -0.1186 -0.3087
    1WF      WF69338  25.107  29.097   9.330 -0.1767 -0.2566  0.3636
    1WF      WF69339   3.907   0.427   8.707  0.1380  0.1616 -0.1951
    1WF      WF69340   6.195  27.409   6.926 -0.2652  0.0037 -0.0417
    1WF      WF69341   3.795   6.059   9.038 -0.0556 -0.2538 -0.1896
    1WF      WF69342   4.657  15.476   7.901  0.0050  0.2399 -0.1401
    1WF      WF69343  23.178  17.793   0.874 -0.0394  0.0406  0.0886
    1WF      WF69344   2.143  16.336   6.563  0.2618  0.0971  0.0309
    1WF      WF69345  11.288  26.464   6.037  0.1219  0.1278 -0.0194
    1WF      WF69346   2.082  24.060   9.220  0.3180  0.1779 -0.2351
    1WF      WF69347  10.845  24.640   7.591 -0.2008 -0.1003  0.1191
    1WF      WF69348  13.939   5.611   8.532  0.1995  0.1868  0.0125
    1WF      WF69349  23.153  13.233   0.073  0.0530 -0.0532 -0.3561
    1WF      WF69350  15.221   1.131   0.589  0.0519 -0.4031 -0.2655
    1WF      WF69351   1.299   0.793   7.807 -0.0436 -0.2467  0.3161
    1WF      WF69352  26.523  27.811   8.080 -0.0222  0.1477 -0.1360
    1WF      WF69353  18.270   5.276   7.385  0.1653 -0.0329 -0.0815
    1WF      WF69354   8.104   7.508   0.738 -0.0693 -0.1929  0.1750
    1WF      WF69355  10.798  25.115   9.365 -0.0164 -0.0528  0.0990
    1WF      WF69356  26.122  16.044   7.898 -0.3242 -0.0448 -0.2579
    1WF      WF69357  29.828  13.046   7.461 -0.0879 -0.0451  0.2449
    1WF      WF69358   4.175  29.516   6.784  0.1112  0.1286 -0.0358
    1WF      WF69359   9.813  11.335   0.858 -0.0326 -0.1255  0.0193
    1WF      WF69360   7.495   4.170   0.026  0.0279  0.0516 -0.1084
    1WF      WF69361   3.769  18.345   9.308 -0.1654 -0.2187 -0.0797
    1ION     NA69362  16.956   7.661   7.107 -0.0113  0.1078  0.2029
    1ION     NA69363  25.149  13.568   8.235  0.0981 -0.2020  0.2983
    1ION     NA69364  26.672  27.451   8.924  0.3214  0.0836 -0.1525
    1ION     NA69365  21.925   1.055   7.268  0.0022 -0.3238 -0.3710
    1ION     NA69366  13.586  10.848   7.042 -0.1161  0.0329  0.0964
    1ION     NA69367   2.614   4.786   3.473  0.0701  0.1000  0.0024
    1ION     NA69368  20.149  21.891   9.118  0.2294 -0.0235  0.3109
    1ION     NA69369   1.151   1.191   2.792 -0.1567 -0.0338  0.0216
    1ION     NA69370   8.432  13.899   6.803 -0.0852  0.1842 -0.1154
    1ION     NA69371  19.921  18.334   2.141  0.0550  0.1052 -0.2143
    1ION     NA69372  15.131   1.594   0.733 -0.2332 -0.0648 -0.2401
    1ION     NA69373   7.368  29.761   3.276  0.4535 -0.1775  0.0056
    1ION     NA69374   2.433   7.310   7.078  0.0759 -0.2896 -0.2615
    1ION     NA69375  18.771  14.451   2.149  0.0296 -0.0789  0.3061
    1ION     NA69376  15.469  28.562   6.934  0.2030  0.1008  0.0709
    1ION     NA69377  12.862  16.113   8.235 -0.0144 -0.1220  0.0197
    1ION     NA69378   8.098  24.314   7.732  0.1480 -0.0198  0.1621
    1ION     NA69379  13.756  25.641   2.331 -0.0523  0.1695  0.2083
    1ION     NA69380  27.096  26.431   1.041 -0.0387 -0.0195 -0.0485
    1ION     NA69381  14.077  15.277   0.534 -0.0788  0.1664 -0.0223
    1ION     NA69382  14.902  29.255   3.600 -0.0146  0.2277 -0.1416
    1ION     NA69383  25.092  12.471   8.591  0.4513 -0.0085  0.1195
    1ION     NA69384   2.632  22.318   0.429  0.0007 -0.1835  0.0566
    1ION     NA69385   5.265  22.957   1.183 -0.3762  0.1510  0.1250
    1ION     NA69386   8.216  14.135   2.641 -0.1851 -0.0350 -0.0835
    1ION     NA69387  26.000   3.921   6.607 -0.0624 -0.1935 -0.3534
    1ION     NA69388   7.851  15.128   6.672  0.0388  0.1364  0.0762
    1ION     NA69389  17.328   5.322   2.668 -0.0554  0.1829  0.3515
    1ION     NA69390   0.021  12.349   0.440 -0.0984 -0.0725  0.0769
    1ION     NA69391   7.585  23.427   5.792 -0.1458  0.0655 -0.0517
    1ION     NA69392  19.636  20.827   0.733  0.2603 -0.0538 -0.0999
    1ION     NA69393   8.545   7.996   7.479 -0.2753 -0.0940  0.0305
    1ION     NA69394  12.988   9.677   2.847 -0.0605  0.0147 -0.0434
    1ION     NA69395  19.983  20.255   7.952 -0.2291 -0.1277 -0.3614
    1ION     NA69396   1.302   0.485   0.142 -0.0918 -0.0986 -0.0445
    1ION     NA69397  26.327  18.521   1.126  0.0288  0.1809 -0.0487
    1ION     NA69398   4.703  18.134   0.361 -0.3702 -0.1205 -0.0916
    1ION     NA69399  22.585  19.042   2.564  0.1345 -0.0565  0.1744
    1ION     NA69400  23.679   2.150   0.087 -0.1435  0.0056  0.0956
    1ION     NA69401  14.576  17.625   2.326 -0.2087  0.0537 -0.1827
    1ION     NA69402  14.958  14.799   7.007 -0.1853  0.1488  0.0617
    1ION     NA69403   3.545  20.193   2.217  0.2213 -0.0446 -0.2933
    1ION     NA69404  25.658  10.724   2.523  0.1172 -0.1206  0.0124
    1ION     NA69405  16.085  13.484   6.408  0.0725 -0.1863 -0.0634
    1ION     NA69406   7.690  14.190   8.733 -0.1363 -0.0131 -0.1127
    1ION     NA69407  13.362  15.146   8.333  0.1204  0.1310  0.1887
    1ION     NA69408   7.476  11.228   8.216 -0.0222 -0.1519 -0.0379
    1ION     NA69409  18.470  16.320   2.314 -0.2433 -0.1485  0.1926
    1ION     NA69410   3.493   4.231   2.674 -0.2781  0.1510 -0.0182
    1ION     NA69411  19.882  11.054   0.770 -0.2167 -0.2491 -0.1255
    1ION     NA69412   4.998   3.536   9.037 -0.1849 -0.0550  0.3253
    1ION     NA69413  22.306  12.395   2.300  0.0944 -0.2278  0.1731
    1ION     NA69414  10.981  10.367   8.728  0.0917  0.3556 -0.3904
    1ION     NA69415   0.675   6.702   8.160 -0.3969  0.3987 -0.0569
    1ION     NA69416  17.775  14.511   1.301  0.2260  0.0651  0.0467
    1ION     NA69417  17.647  11.842   7.487  0.3220  0.0673  0.1391
    1ION     NA69418   8.302   3.605   3.143 -0.2227  0.0141  0.2246
    1ION     NA69419  28.682   4.681   2.200  0.0799 -0.2467  0.0776
    1ION     NA69420  10.654  16.380   8.070  0.0132 -0.1596  0.4302
    1ION     NA69421   6.521  17.412   5.558 -0.1286  0.0214 -0.0480
    1ION     NA69422   5.504   8.689   6.783  0.2823  0.0533  0.0349
    1ION     NA69423  29.634  26.849   9.371 -0.1254 -0.0734 -0.0313
    1ION     NA69424   3.483  19.115   0.812 -0.1270 -0.1144  0.1234
    1ION     NA69425   0.584  17.421   0.830 -0.0681 -0.0845  0.2630
    1ION     NA69426  29.748  10.975   7.686 -0.2196 -0.0664  0.0207
    1ION     NA69427  21.987  22.484   6.706  0.0700 -0.0158  0.1544
    1ION     NA69428  23.888  12.232   1.132  0.1451  0.0399 -0.2465
    1ION     NA69429  15.790  20.141   8.039  0.1145  0.3804  0.0226
    1ION     NA69430   4.997   5.233   6.414  0.1966 -0.2344  0.0308
    1ION     NA69431   6.501  15.481   2.082 -0.0362 -0.1111 -0.0729
    1ION     NA69432   3.911  21.050   8.180 -0.1057 -0.3875 -0.0470
    1ION     NA69433  13.085  27.297   8.729 -0.2712  0.2423  0.3072
    1ION     NA69434   5.786  21.161   8.820 -0.1054 -0.1197 -0.1732
    1ION     NA69435  21.294  20.459   8.543 -0.1543  0.0778  0.1155
    1ION     NA69436  10.834  19.004   8.344 -0.2678  0.1545 -0.2962
    1ION     NA69437   4.492  21.162   6.071  0.3090  0.0846  0.0268
    1ION     NA69438  16.565  19.415   0.021  0.1750 -0.1659  0.2160
    1ION     NA69439   6.937  18.223   5.902 -0.1246 -0.0413  0.1633
    1ION     NA69440  23.800  26.619   1.586 -0.2275 -0.2751 -0.1544
    1ION     NA69441  21.374  12.104   8.947 -0.1074  0.3845 -0.0612
    1ION     NA69442  25.704  11.779   0.208  0.1285 -0.1053  0.1978
    1ION     NA69443  28.250  21.121   1.479 -0.2321  0.0317 -0.2856
    1ION     NA69444   8.688  15.471   6.244 -0.0415 -0.1531 -0.0416
    1ION     NA69445  14.637  10.106   6.892 -0.0889 -0.0021  0.0309
    1ION     NA69446  23.160   0.675   6.925 -0.0914  0.0061 -0.0457
    1ION     NA69447  26.306   2.223   8.145 -0.0916 -0.1529 -0.0796
    1ION     NA69448  25.885  26.511   1.471  0.1165 -0.1422  0.3095
    1ION     NA69449   9.262   4.197   3.864 -0.2064  0.0898  0.1061
    1ION     NA69450  23.739  11.762   6.567  0.0533  0.1155 -0.3604
    1ION     NA69451  25.371  17.322   6.120 -0.0449 -0.0554  0.2209
    1ION     NA69452  19.829   5.686   6.268  0.1156 -0.1256  0.0022
    1ION     NA69453  12.946  14.297   6.872  0.0009 -0.1629 -0.0219
    1ION     NA69454  29.147  19.956   7.707 -0.2069 -0.3240 -0.2262
    1ION     NA69455  21.380  12.709   2.376  0.2701  0.0250  0.2004
    1ION     NA69456  19.896  11.555   8.077 -0.0369  0.3438 -0.1633
    1ION     NA69457   1.864  26.794   5.866 -0.0834  0.1893  0.3162
    1ION     NA69458  24.029  11.521   8.801  0.2046 -0.0399  0.0227
    1ION     NA69459   0.849   1.136   0.032 -0.2192 -0.0219  0.3021
    1ION     NA69460   2.802  29.083   8.608 -0.4813 -0.1738 -0.2384
    1ION     NA69461   0.105   8.924   0.010 -0.1937 -0.2815 -0.1492
    1ION     NA69462  20.894   3.329   2.046 -0.0351  0.1008  0.1087
    1ION     NA69463   5.717   1.084   3.286  0.0143  0.0493 -0.0185
    1ION     NA69464  21.304  29.282   1.555 -0.0595 -0.0635 -0.1334
    1ION     NA69465  18.090   0.221   1.587 -0.0402  0.0002  0.0217
    1ION     NA69466   7.762  10.759   0.263  0.0571 -0.3174 -0.0757
    1ION     NA69467  26.485  14.606   8.108 -0.1800 -0.0491 -0.1125
    1ION     NA69468  18.151   6.650   1.239  0.0490  0.1352 -0.1288
    1ION     NA69469  11.601   5.841   1.499 -0.0190  0.0822 -0.1497
    1ION     NA69470  14.658  14.136   8.619 -0.2259  0.2204 -0.0088
    1ION     NA69471   5.737  18.021   2.332 -0.0833  0.1877  0.0466
    1ION     NA69472   3.460  16.087   8.558 -0.3750  0.3485  0.2040
    1ION     NA69473  10.587  26.218   0.625  0.0944 -0.2572  0.1957
    1ION     NA69474   8.563  22.545   9.097 -0.0943  0.1727 -0.1100
    1ION     NA69475   5.692  27.864   3.055  0.1686  0.2710  0.1614
    1ION     NA69476  18.859  20.215   2.548  0.1236  0.2636 -0.1136
    1ION     NA69477  28.654  29.202   7.863  0.1553 -0.2809  0.0958
    1ION     NA69478  29.905   9.918   8.760 -0.0148  0.1482 -0.3546
    1ION     NA69479  19.238  22.140   8.860 -0.0324 -0.1319  0.0817
    1ION     NA69480  29.697   1.614   6.234 -0.1758  0.1393  0.0458
    1ION     NA69481  12.817   7.366   6.934 -0.3654 -0.0983  0.0855
    1ION     NA69482  23.321  19.249   2.901  0.1279 -0.1232  0.1632
    1ION     NA69483   0.077  16.380   1.179 -0.0918 -0.2616 -0.0206
    1ION     NA69484  25.695   5.028   8.908  0.1555  0.0074 -0.3280
    1ION     NA69485  29.520  12.023   6.762  0.1319 -0.0824 -0.2088
    1ION     NA69486  29.888  27.559   2.601  0.2098 -0.2364 -0.0840
    1ION     NA69487  18.695  22.613   9.379 -0.1692 -0.0434 -0.0282
    1ION     NA69488   5.387  19.367   5.679 -0.0656  0.0773 -0.0651
    1ION     NA69489   3.339   2.439   6.675 -0.2371  0.1081  0.0658
    1ION     NA69490  19.622  12.191   2.159  0.0110  0.1360 -0.0446
    1ION     NA69491  24.798  10.187   2.712 -0.0749  0.0214 -0.0887
    1ION     NA69492  16.906  25.578   0.949 -0.2169  0.2745  0.3769
    1ION     NA69493  26.266   5.884   1.526  0.0315 -0.0656 -0.0597
    1ION     NA69494  10.420  17.865   6.734  0.1740 -0.0327  0.0773
    1ION     NA69495  10.036  16.008   2.004  0.0588  0.0097 -0.0748
    1ION     NA69496  18.734   9.481   2.363  0.1926 -0.1369  0.3058
    1ION     NA69497  10.583   9.451   0.243 -0.0633 -0.0448  0.1443
    1ION     NA69498  21.826  10.521   8.007 -0.1616  0.0384  0.0536
    1ION     NA69499  29.206  17.328   6.618  0.0024  0.0237 -0.0169
    1ION     NA69500  17.245  29.102   7.283  0.3633 -0.0364 -0.0058
    1ION     NA69501   5.748  26.218   0.988 -0.1331 -0.3463 -0.2996
    1ION     NA69502   4.544  19.179   7.582  0.0560  0.5094  0.0510
    1ION     NA69503   1.893  22.201   2.403 -0.1171  0.0506 -0.3495
    1ION     NA69504  10.827  16.014   1.454  0.1366 -0.0888  0.2350
    1ION     NA69505  29.383   3.167   3.009 -0.0698 -0.2731 -0.2196
    1ION     NA69506  11.136  25.623   1.794 -0.1255 -0.0177 -0.3300
    1ION     NA69507  26.654   1.545   6.663  0.0615  0.2009 -0.1279
    1ION     NA69508  13.384  23.304   8.332 -0.1346  0.2189 -0.0055
    1ION     NA69509  18.266  27.953   1.156  0.0854  0.0002  0.1258
    1ION     NA69510  11.443  18.602   7.109  0.2665  0.0398 -0.0144
    1ION     NA69511  10.191  15.176   7.679 -0.0159 -0.0219 -0.0493
    1ION     NA69512  14.956  23.409   5.979 -0.2514 -0.0258  0.1297
    1ION     NA69513   9.703  29.221   1.839  0.5559 -0.1351  0.0364
    1ION     NA69514   3.174  15.077   6.380 -0.0561 -0.2983 -0.1891
    1ION     NA69515  21.461   8.063   7.867  0.0592  0.0623  0.2318
    1ION     NA69516   5.038   4.061   6.702 -0.1173  0.0604 -0.2193
    1ION     NA69517  24.476   8.533   7.649  0.0185  0.2620  0.2022
    1ION     NA69518  12.887  29.331   8.122  0.0528  0.0222 -0.1047
    1ION     NA69519  23.162  16.811   7.149 -0.0116 -0.2677 -0.2136
    1ION     NA69520  16.249   7.966   2.517 -0.2198  0.1811  0.0952
    1ION     NA69521  22.157   6.217   8.073 -0.0487 -0.1738  0.0123
    1ION     NA69522  20.916  15.619   2.246  0.1546  0.0958  0.0358
    1ION     NA69523  19.146   0.765   7.568  0.0163  0.0486 -0.3187
    1ION     NA69524  10.079   7.536   2.112  0.1417  0.0166  0.1880
    1ION     NA69525   0.504  28.455   0.731 -0.0552 -0.2149 -0.0956
    1ION     NA69526   0.730   6.555   2.429  0.1402  0.1806  0.1471
    1ION     NA69527  22.390  15.369   0.578  0.0075 -0.0345  0.1375
    1ION     NA69528  13.448   5.493   8.651 -0.0325  0.0829 -0.1910
    1ION     NA69529  14.853  18.492   6.664  0.1992  0.4278 -0.2004
    1ION     NA69530   2.570  25.805   8.787 -0.1533  0.0491  0.2315
    1ION     NA69531  22.381   8.115   0.394 -0.1182  0.1281 -0.1094
    1ION     NA69532  29.270  29.740   7.183  0.0187  0.0155 -0.3175
    1ION     NA69533  15.593  27.117   8.430  0.2994 -0.0222  0.0720
    1ION     NA69534  29.315  27.957   1.417  0.0234 -0.1710 -0.1850
    1ION     NA69535  10.525   5.815   3.084  0.2124 -0.0657 -0.0156
    1ION     NA69536  11.031  25.498   9.137 -0.0206 -0.0403 -0.0348
    1ION     NA69537  23.817  13.120   0.395 -0.0942 -0.0455 -0.0847
    1ION     NA69538   1.266  18.540   0.527 -0.2397  0.0888  0.2126
    1ION     NA69539  28.434   2.777   2.755 -0.0949  0.1601  0.0518
    1ION     NA69540  20.377  15.310   2.268  0.1743 -0.0062  0.3550
    1ION     NA69541  12.233  21.589   8.417  0.1309  0.2051  0.0926
    1ION     NA69542   4.449  24.283   1.035  0.3510  0.3310 -0.1094
    1ION     NA69543  28.641  14.995   8.765  0.0641  0.0649 -0.0331
    1ION     NA69544  21.900  16.146   0.480 -0.0273 -0.3328  0.1022
    1ION     NA69545  27.136  16.798   8.444 -0.1093 -0.0895 -0.1404
    1ION     NA69546  19.048  11.648   7.720  0.1830 -0.0035  0.1226
    1ION     NA69547  18.642  18.990   6.812 -0.2072 -0.2136 -0.1639
    1ION     NA69548  18.976  22.596   6.864  0.3656  0.3170  0.1994
    1ION     NA69549   0.008   5.306   0.832  0.1361 -0.0461  0.1767
    1ION     NA69550  27.783  10.989   6.111  0.1374  0.1871 -0.3064
    1ION     NA69551  16.235  15.938   1.070  0.1623 -0.1338 -0.3270
    1ION     NA69552  20.542   2.139   8.816  0.1645  0.0366 -0.3576
    1ION     NA69553  11.252  29.024   2.986  0.1365  0.1604 -0.0523
    1ION     NA69554  19.409  13.151   1.656 -0.3943  0.0959  0.3511
    1ION     NA69555  22.795  26.232   3.005 -0.0424  0.1674  0.2151
    1ION     NA69556  23.941  15.108   6.772 -0.2435 -0.2945 -0.0527
    1ION     NA69557  25.009  11.444   8.809  0.3089  0.3791 -0.1023
    1ION     NA69558   9.200   0.804   1.083 -0.1416  0.0399 -0.0678
    1ION     NA69559  27.232   0.701   6.457  0.0721  0.2886  0.0397
    1ION     NA69560   9.119  29.668   0.215 -0.3057  0.0691 -0.0933
    1ION     NA69561   8.308  17.096   7.406 -0.0861 -0.2729 -0.2368
    1ION     NA69562   5.006  15.006   2.686  0.0300  0.3558  0.1285
    1ION     NA69563  20.269   9.847   0.265 -0.0244  0.0310  0.0873
    1ION     NA69564  16.688   0.599   3.269 -0.1338  0.0498 -0.1936
    1ION     NA69565  17.030  11.433   6.620 -0.0152 -0.1346  0.0387
    1ION     NA69566  19.952  15.732   8.901 -0.1389  0.0286  0.1273
    1ION     NA69567  23.110  28.010   3.270  0.1691  0.3052  0.0550
    1ION     NA69568  23.063  26.073   1.597  0.0135  0.1885 -0.2526
    1ION     NA69569   7.212  20.313   2.158  0.3054  0.1721 -0.0865
    1ION     NA69570  25.804  22.022   6.596 -0.1694  0.0972 -0.0085
    1ION     NA69571  29.149  18.970   0.735  0.0209  0.2878  0.1018
    1ION     NA69572  16.246  23.376   7.223  0.1052 -0.3140  0.1057
    1ION     NA69573  10.513  20.979   7.458 -0.2509 -0.1635  0.0274
    1ION     NA69574   3.329  16.137   7.333 -0.0415  0.2235 -0.0853
    1ION     NA69575  29.294   6.714   7.877 -0.1563  0.1164 -0.1377
    1ION     NA69576  28.528   0.152   1.919  0.0002  0.0735  0.1227
    1ION     NA69577   3.536  10.082   1.148  0.1036 -0.1197  0.2791
    1ION     NA69578  16.477  14.089   0.119 -0.1834  0.0019  0.0792
    1ION     NA69579  15.494  25.087   9.446  0.0509  0.1730 -0.1373
    1ION     NA69580  19.390  24.610   3.517 -0.3221 -0.0575 -0.1577
    1ION     NA69581  28.907   3.146   3.344  0.1306  0.2217  0.0959
    1ION     NA69582  23.596  17.196   1.563 -0.0025  0.1842 -0.0667
    1ION     NA69583  11.770  15.672   6.763  0.1889  0.0358  0.2820
    1ION     NA69584  17.823  16.221   6.749 -0.0933  0.0606  0.1217
    1ION     NA69585  10.415  16.015   8.955 -0.0927 -0.1662 -0.0524
    1ION     NA69586  27.560  15.202   2.535 -0.3848  0.1842 -0.1154
    1ION     NA69587  14.281   5.723   1.100  0.2328 -0.3766 -0.0803
    1ION     NA69588  12.583   3.330   3.058  0.3245  0.1325  0.0100
    1ION     NA69589   8.231   4.631   6.996 -0.1250 -0.2982 -0.0263
    1ION     NA69590  22.132  13.057   0.716 -0.0731 -0.3146  0.2658
    1ION     NA69591   8.021  27.157   2.533  0.0894  0.2036 -0.1820
    1ION     NA69592  12.640  10.438   0.772 -0.0226 -0.0350  0.1718
    1ION     NA69593   4.319   2.999   0.506 -0.1914  0.3313  0.1040
    1ION     NA69594  20.094  19.407   2.629  0.0202  0.3015  0.1721
    1ION     NA69595   0.495  19.011   6.005 -0.2467 -0.1423 -0.3516
    1ION     NA69596  20.467   5.808   1.618 -0.0575 -0.1323 -0.0223
    1ION     NA69597   0.224  25.808   8.386  0.3231  0.0945 -0.5485
    1ION     NA69598  23.725   5.689   6.634 -0.1241  0.0038  0.0973
    1ION     NA69599   2.215   9.151   7.019 -0.0667 -0.0780 -0.1190
    1ION     NA69600   3.131  20.775   1.310 -0.1542  0.1055  0.3124
    1ION     NA69601  28.897   4.862   8.669 -0.1451  0.1272  0.0597
    1ION     NA69602  25.076  18.536   0.466 -0.4578  0.2351 -0.1160
    1ION     NA69603  15.796   5.203   6.729 -0.3379 -0.1781  0.3427
    1ION     NA69604   0.053  27.387   6.467  0.0138  0.1138 -0.2777
    1ION     NA69605  14.167   1.071   1.580  0.1074  0.1458  0.2442
    1ION     NA69606  12.262   2.524   8.494  0.1726 -0.0800 -0.1559
    1ION     NA69607   2.526  14.551   5.952 -0.1234  0.2102 -0.1234
    1ION     NA69608   4.750  13.527   7.223  0.1728 -0.1594 -0.2402
    1ION     NA69609   0.061   1.214   8.604 -0.0188 -0.1917  0.0775
    1ION     NA69610  18.830   2.196   3.314  0.2179 -0.0193  0.0398
    1ION     NA69611   5.454  13.880   8.212  0.0627 -0.0727 -0.0844
    1ION     NA69612   8.268  11.028   7.662 -0.0842  0.2500 -0.0640
    1ION     NA69613  28.754  21.378   8.234 -0.0477  0.0523  0.0615
    1ION     NA69614   5.443  14.087   6.439 -0.1578 -0.0191 -0.0325
    1ION     NA69615  25.882  22.122   8.866  0.1791 -0.3472  0.2293
    1ION     NA69616   2.460   8.449   8.260  0.1709 -0.0514  0.3725
    1ION     NA69617   1.905   7.170   9.021  0.0147 -0.1909  0.0590
    1ION     NA69618  27.342   9.111   8.556  0.1867  0.0091 -0.0007
    1ION     NA69619  15.902  23.983   6.350  0.0911 -0.2182 -0.0841
    1ION     NA69620   8.450  19.612   9.105  0.0536 -0.0579 -0.1401
    1ION     NA69621  22.890   3.279   6.542 -0.1018  0.3137 -0.1591
    1ION     NA69622  15.825  22.731   7.753  0.1542 -0.1542  0.1519
    1ION     NA69623  11.025  26.887   6.548 -0.5253  0.0859  0.2127
    1ION     NA69624  10.173  26.662   0.214  0.3517 -0.1422  0.0235
    1ION     NA69625   4.006  12.804   1.488  0.0566 -0.2180 -0.1199
    1ION     NA69626   4.733  18.753   0.213  0.1173 -0.0685 -0.2088
    1ION     NA69627  20.422   2.808   1.185 -0.0483  0.0951  0.1576
    1ION     NA69628   5.527  29.407   0.348 -0.0408 -0.4122 -0.0660
    1ION     NA69629  13.468   0.931   0.003 -0.1461  0.0654 -0.0344
    1ION     NA69630   3.551  24.303   9.353 -0.2984  0.0079  0.0753
    1ION     NA69631  12.287  13.444   2.530 -0.2789 -0.1235 -0.0894
    1ION     NA69632   8.576   1.833   3.559  0.1603 -0.2077  0.1080
    1ION     NA69633  19.961  14.455   8.888  0.0228 -0.1303 -0.0088
    1ION     NA69634  23.980  28.521   2.785  0.0669 -0.1612 -0.2365
    1ION     NA69635  18.197  14.589   6.760 -0.3239  0.0795 -0.0083
    1ION     NA69636   3.465  10.493   3.099 -0.1442  0.0925  0.0862
    1ION     NA69637   1.043   2.487   8.008  0.0471  0.1213 -0.2524
    1ION     NA69638  16.288  13.033   6.669  0.2771  0.0012 -0.2659
    1ION     NA69639   2.509  18.788   5.970  0.3759  0.0575 -0.1362
    1ION     NA69640  18.929  11.044   9.214 -0.1378  0.4111 -0.0715
    1ION     NA69641   2.884   1.571   2.195  0.0464  0.4190 -0.0570
    1ION     NA69642   5.785   8.337   8.432  0.4335  0.1672  0.0744
    1ION     NA69643  24.977   4.156   1.941 -0.0219 -0.0708  0.0662
    1ION     NA69644  12.436  13.666   0.448  0.0520  0.1672  0.2589
    1ION     NA69645  28.180  25.339   8.633 -0.0608  0.0515  0.1668
    1ION     NA69646   1.548  12.761   0.775 -0.0147  0.1622  0.2606
    1ION     NA69647  21.501  28.819   2.999  0.3160 -0.0225  0.0654
    1ION     NA69648  26.851   5.227   3.479 -0.1013 -0.1077  0.1614
    1ION     NA69649  25.620  28.352   9.456 -0.0464 -0.3468 -0.3028
    1ION     NA69650   4.739  18.118   2.158  0.0020 -0.2015  0.2130
    1ION     NA69651   8.026   9.952   1.925  0.2358  0.1585  0.1008
    1ION     NA69652  26.258  13.178   9.313  0.0817 -0.1297  0.1010
    1ION     NA69653  13.188  28.463   1.334 -0.0295  0.1592  0.0210
    1ION     NA69654  21.449   9.129   0.872 -0.2526 -0.0994  0.2427
    1ION     NA69655  26.505   0.929   8.433 -0.0013  0.3055  0.0817
    1ION     NA69656  25.607   8.442   2.724 -0.1436  0.1866 -0.2264
    1ION     NA69657   3.072   2.943   8.465 -0.1396  0.2757  0.0300
    1ION     NA69658  28.345   7.020   7.580  0.0936 -0.0419 -0.1800
    1ION     NA69659   4.125   6.355   8.711 -0.3050  0.2722 -0.1377
    1ION     NA69660   7.219  24.941   9.396 -0.4806  0.2666 -0.0037
    1ION     NA69661  26.356  16.920   0.548 -0.0671  0.0459 -0.4818
    1ION     NA69662   2.028  17.098   8.707 -0.1698 -0.2685 -0.0331
    1ION     NA69663   0.606  25.541   7.380 -0.1134  0.1107 -0.2311
    1ION     NA69664  11.921   6.994   8.297  0.0936 -0.1623 -0.0130
    1ION     NA69665   0.892  27.911   6.479 -0.1004  0.2037 -0.2241
    1ION     NA69666   5.566  29.888   1.106 -0.0644  0.1557  0.0663
    1ION     NA69667  14.341   4.236   3.250 -0.0649 -0.2252 -0.0782
    1ION     NA69668  25.220  17.258   0.038 -0.1147 -0.3350  0.1189
    1ION     NA69669  22.732  22.093   3.673  0.0655  0.1305 -0.0292
    1ION     NA69670   2.057  25.557   8.178 -0.0427  0.2098  0.0665
    1ION     NA69671  27.963  17.864   2.478 -0.3302  0.2326 -0.2407
    1ION     NA69672  23.681  14.745   6.239  0.1166  0.0935 -0.0140
    1ION     NA69673  26.483  17.348   7.703  0.0405 -0.0276 -0.4123
    1ION     NA69674   6.456   4.429   7.288  0.1596  0.1147  0.0667
    1ION     NA69675  22.459  26.639   2.679 -0.1900  0.1552 -0.0457
    1ION     NA69676  27.502  25.539   1.392  0.1824  0.1644 -0.0857
    1ION     NA69677  14.962  25.398   3.110  0.0313 -0.3483  0.0721
    1ION     NA69678  10.903   8.595   1.753 -0.1473  0.1017  0.0394
    1ION     NA69679  15.579  19.910   7.028 -0.1581 -0.0640 -0.1006
    1ION     NA69680  16.809  21.724   8.568  0.4065  0.0469 -0.0408
    1ION     NA69681  20.791  10.718   6.492  0.3750 -0.2009  0.0017
    1ION     NA69682   8.773   0.214   7.088  0.1085 -0.0497  0.0244
    1ION     NA69683   2.063  11.559   8.734 -0.1799  0.0064  0.1214
    1ION     NA69684  12.411   5.530   8.341  0.4670  0.2300  0.1850
    1ION     NA69685  16.195  20.782   9.417 -0.0703  0.0176  0.0053
    1ION     NA69686  29.866  29.718   7.368  0.1163 -0.1538  0.0320
    1ION     NA69687  15.487  16.073   2.079 -0.0412  0.0968 -0.0669
    1ION     NA69688  11.580  26.356   1.960 -0.2966  0.1375 -0.4319
    1ION     NA69689  22.748  18.368   0.374 -0.0234  0.3794  0.1560
    1ION     NA69690   4.511  19.877   8.093 -0.0802  0.0996 -0.1215
    1ION     NA69691  24.745   2.548   8.205 -0.1978 -0.1213  0.1801
    1ION     NA69692  14.615  22.466   0.134  0.0213 -0.0310  0.2925
    1ION     NA69693  10.082   9.942   2.825 -0.0728 -0.0479 -0.0088
    1ION     NA69694   3.166   2.675   0.831  0.1113 -0.2449 -0.1655
    1ION     NA69695  10.370  16.902   7.638 -0.0152 -0.1911  0.1161
    1ION     NA69696  21.343  28.396   6.727 -0.0647 -0.1344 -0.1809
    1ION     NA69697  22.611   3.092   7.880  0.2610  0.1012 -0.0620
    1ION     NA69698  11.390  21.975   8.107 -0.1647  0.2025  0.1200
    1ION     NA69699  13.054  29.013   2.995 -0.2483 -0.0479 -0.1640
    1ION     NA69700  24.856   3.188   7.038 -0.0423 -0.3293  0.4232
    1ION     NA69701   0.146  27.123   2.116 -0.0189  0.2782  0.0554
    1ION     NA69702  22.702  19.007   1.584 -0.0875  0.0140  0.0946
    1ION     NA69703  17.309  13.749   6.753 -0.2017 -0.1501  0.1590
    1ION     NA69704  12.360  22.520   8.762  0.0129 -0.3789 -0.0055
    1ION     NA69705   3.601   0.817   8.517 -0.2401  0.4527 -0.1945
    1ION     NA69706   8.460   3.593   2.204  0.1151 -0.0737 -0.1384
    1ION     NA69707   5.560  21.047   6.861  0.0609  0.0592 -0.1163
    1ION     NA69708  12.831  17.336   8.387 -0.0614  0.0427 -0.0473
    1ION     NA69709  26.873  28.084   2.837 -0.0461  0.0969  0.3203
    1ION     NA69710   4.808  21.785   5.759 -0.1069 -0.0570  0.1221
    1ION     NA69711  12.338   9.340   7.954  0.0169 -0.0918 -0.1902
    1ION     NA69712  25.408   0.627   0.319  0.0001 -0.4033  0.1284
    1ION     NA69713  24.573  11.659   0.052 -0.2955 -0.1106  0.2676
    1ION     NA69714  23.168  23.619   6.363  0.0726 -0.0275  0.2899
    1ION     NA69715  24.248  14.782   6.030  0.1411 -0.0935 -0.0230
    1ION     NA69716   3.247   0.459   2.778 -0.1321 -0.0933 -0.3176
    1ION     NA69717  16.320  24.738   8.397  0.1553  0.1180  0.0044
    1ION     NA69718  16.131  23.928   9.196  0.0495  0.2989 -0.2373
    1ION     NA69719  10.685  29.418   1.620  0.1502 -0.2694  0.3436
    1ION     NA69720  12.237  27.108   7.936 -0.1815  0.0474  0.0630
    1ION     NA69721   0.299  19.943   2.268  0.2607 -0.3344 -0.0998
    1ION     NA69722  13.977  25.499   6.429  0.3267 -0.1304 -0.0314
    1ION     NA69723  19.076   4.544   2.731  0.0490  0.1526 -0.0307
    1ION     NA69724  16.888  15.901   0.347  0.1278  0.0542 -0.0952
    1ION     NA69725   6.427   7.975   2.398 -0.4053  0.3026  0.0574
    1ION     NA69726  27.559   3.862   2.565 -0.1925 -0.3354 -0.2871
    1ION     NA69727  16.731  17.619   6.778 -0.1934  0.1567  0.0705
    1ION     NA69728   1.016  19.870   0.029  0.3044 -0.2384  0.2944
    1ION     NA69729   5.089   7.850   3.600  0.0831  0.2827  0.1460
    1ION     NA69730  21.672  24.371   1.505  0.0692 -0.0826  0.0385
    1ION     NA69731  25.930   9.517   6.501 -0.1732 -0.3369 -0.4120
    1ION     NA69732  25.269  15.577   2.725 -0.1668 -0.1244  0.3365
    1ION     NA69733  21.266   1.342   2.814 -0.0598  0.0876  0.0700
    1ION     NA69734  25.096   7.350   2.925  0.0107 -0.1310 -0.1399
    1ION     NA69735  14.256  12.229   6.760 -0.2974 -0.0539 -0.2255
    1ION     NA69736  19.507  20.127   8.834 -0.0588 -0.0947  0.0316
    1ION     NA69737   9.481  20.013   6.335  0.1733  0.0725  0.3460
    1ION     NA69738  19.803  24.319   8.717  0.1749 -0.0566  0.2107
    1ION     NA69739   2.070  25.092   0.412  0.3303  0.0313 -0.1834
    1ION     NA69740  25.714  15.121   8.056  0.0786  0.1325  0.0288
    1ION     NA69741  28.833   1.368   0.673  0.3313 -0.2327 -0.1418
    1ION     NA69742  22.987  13.633   8.040 -0.0244 -0.0270 -0.3901
    1ION     NA69743  21.508  19.092   2.646 -0.0191  0.1299 -0.1261
    1ION     NA69744   7.733   5.837   0.997  0.0301  0.2995  0.0318
    1ION     NA69745  19.137   7.591   6.388 -0.1134  0.0175 -0.1290
    1ION     NA69746   5.405   0.595   2.589  0.3388 -0.1265 -0.1360
    1ION     NA69747  17.968   9.828   8.306  0.0835 -0.2385 -0.1090
    1ION     NA69748  25.931  18.340   2.137  0.0134  0.4225 -0.0847
    1ION     NA69749  10.956  20.058   1.015 -0.0590  0.0425 -0.1209
    1ION     NA69750   8.532  15.305   8.488  0.3795 -0.0013 -0.0543
    1ION     NA69751  19.649   8.359   0.262 -0.1126  0.2656  0.1910
    1ION     NA69752  25.536  28.377   7.123 -0.0677  0.0583 -0.1211
    1ION     NA69753  21.765  19.417   6.839 -0.0325  0.0960 -0.3752
    1ION     NA69754  13.662  17.609   9.212  0.0389 -0.1317 -0.0402
    1ION     NA69755   2.728  16.546   1.530 -0.0000  0.1828 -0.1236
    1ION     NA69756  29.519   5.946   0.348  0.0079 -0.0873  0.2330
    1ION     NA69757  19.578   3.459   1.495 -0.0934 -0.2259 -0.0429
    1ION     NA69758  18.210  22.975   8.717 -0.4278  0.2589 -0.1231
    1ION     NA69759  13.401  29.082   0.607  0.0171  0.1041 -0.2949
    1ION     NA69760   3.811   3.647   3.416 -0.0329 -0.0347  0.0088
    1ION     NA69761   7.271  14.750   2.683  0.0143  0.0042  0.0730
    1ION     NA69762  29.835  10.260   6.285 -0.1755 -0.2204  0.3687
    1ION     NA69763  15.497   4.881   8.657 -0.0434 -0.1646 -0.0547
    1ION     NA69764   5.774  23.285   9.155 -0.0665 -0.0820  0.0106
    1ION     NA69765  16.948  16.804   7.358 -0.0871 -0.1072 -0.0476
    1ION     NA69766  21.779  26.858   6.726 -0.0408 -0.2686 -0.0804
    1ION     NA69767  19.677  20.373   2.722  0.2251 -0.1087  0.0570
    1ION     NA69768  11.203  15.739   9.080  0.0302  0.1895 -0.0276
    1ION     NA69769   0.476  17.694   1.328  0.0789  0.0594  0.0974
    1ION     NA69770   1.671  29.784   9.372  0.2245 -0.0043 -0.2748
    1ION     NA69771  13.920  20.450   7.756 -0.2049 -0.1025 -0.2211
    1ION     NA69772  12.829  24.645   7.950  0.0150 -0.0923  0.1174
    1ION     NA69773  29.467  11.197   6.431 -0.0518  0.1799  0.0108
    1ION     NA69774  26.974  23.590   7.960 -0.3925 -0.1416 -0.2755
    1ION     NA69775  26.671  15.683   6.465  0.0558  0.0901  0.1093
    1ION     NA69776  13.679  28.945   7.471 -0.1433 -0.0698 -0.1552
    1ION     NA69777   3.058  26.423   2.096 -0.0615 -0.1545  0.3407
    1ION     NA69778   7.713  27.853   6.983 -0.3623 -0.1395 -0.2136
    1ION     NA69779  22.855  13.047   9.096  0.1059  0.1253 -0.3795
    1ION     NA69780   2.909   9.852   1.773  0.2060  0.1241 -0.0021
    1ION     NA69781  15.295  11.229   7.961 -0.3778  0.1706  0.1699
    1ION     NA69782  13.055  18.283   1.228  0.0848 -0.2514 -0.2309
    1ION     NA69783  18.066  13.313   8.312  0.2817  0.1157 -0.0458
    1ION     CL69784  26.349   5.172   0.222 -0.1170 -0.1532  0.0491
    1ION     CL69785  12.794  12.552   1.777  0.3593  0.2141 -0.0853
    1ION     CL69786   6.968  13.114   2.013  0.0041  0.4362  0.1497
    1ION     CL69787  12.304  13.235   0.161  0.3271  0.2462  0.3603
    1ION     CL69788  18.486  19.405   7.724 -0.0377  0.4517 -0.1428
    1ION     CL69789   3.626   0.884   1.645 -0.0228  0.3578  0.0138
    1ION     CL69790   9.773  18.154   8.436 -0.1788  0.1500 -0.3744
    1ION     CL69791  27.341  12.037   2.277  0.0235  0.1332  0.1073
    1ION     CL69792   0.994   6.183   7.504  0.3864 -0.1775  0.0491
    1ION     CL69793  18.920   1.008   2.659 -0.2683  0.0726 -0.2803
    1ION     CL69794  17.743  12.440   7.882 -0.0109 -0.0468 -0.2539
    1ION     CL69795  10.382   2.127   8.413  0.0041 -0.0068  0.1891
    1ION     CL69796   7.916  22.855   8.445  0.1348  0.0852 -0.0130
    1ION     CL69797   1.607  16.920   9.082  0.2516 -0.0312 -0.0115
    1ION     CL69798  25.289  21.605   2.086 -0.0175 -0.2737  0.2475
    1ION     CL69799  29.555  17.341   1.879  0.0988 -0.2218 -0.1841
    1ION     CL69800   2.604  14.735   6.778  0.1015  0.0409  0.0539
    1ION     CL69801  25.372   3.239   7.165  0.2851  0.0359  0.0593
    1ION     CL69802   7.699  27.868   0.715  0.0092  0.0031  0.1084
    1ION     CL69803  25.680  27.108   2.921  0.2108 -0.0995  0.0754
    1ION     CL69804  29.418   0.170   7.568  0.0809 -0.1375 -0.0620
    1ION     CL69805  19.913   3.074   6.718  0.4124 -0.2111  0.1419
    1ION     CL69806   0.178  16.437   0.701 -0.1479 -0.1362  0.1570
    1ION     CL69807   5.060  22.973   6.924 -0.0184 -0.1600 -0.3454
    1ION     CL69808  26.778   6.533   6.998  0.1701 -0.1926  0.1470
    1ION     CL69809  18.353   4.740   7.079 -0.2330  0.0246 -0.1166
    1ION     CL69810  28.336  29.331   7.314 -0.0813 -0.1519 -0.0901
    1ION     CL69811  27.761  15.395   7.875 -0.1431  0.1044  0.1012
    1ION     CL69812  20.096  11.776   8.549  0.2506  0.0107  0.1651
    1ION     CL69813  20.768   0.745   1.826 -0.1541 -0.1207 -0.2473
    1ION     CL69814  24.168  19.634   8.589 -0.2508 -0.2223 -0.1797
    1ION     CL69815   8.820  29.484   9.203  0.2287 -0.1636  0.2865
    1ION     CL69816  21.082  25.798   7.818  0.0572  0.1548 -0.0549
    1ION     CL69817   8.736  15.114   1.632  0.2219 -0.2037  0.0163
    1ION     CL69818   0.554  17.940   2.621  0.3238 -0.1745 -0.1336
    1ION     CL69819   4.232   4.880   2.671 -0.0044  0.1239  0.1707
    1ION     CL69820   7.178  17.282   0.089  0.2284  0.1849  0.0227
    1ION     CL69821   2.544  25.463   8.419  0.1432  0.0291 -0.1890
    1ION     CL69822  17.333  19.345   9.085  0.0368  0.0892 -0.2512
    1ION     CL69823  17.466  11.557   7.161 -0.0773 -0.2003 -0.1566
    1ION     CL69824   6.679   8.290   2.737  0.1837  0.0854  0.0547
    1ION     CL69825  24.388  11.711   9.060  0.0595  0.1886  0.2858
    1ION     CL69826  18.496  15.614   7.996  0.0708  0.1139 -0.2491
    1ION     CL69827   0.202  22.409   0.354  0.0943 -0.3329 -0.1870
    1ION     CL69828  22.914  16.270   9.049  0.0434 -0.2119  0.0224
    1ION     CL69829  23.944  19.595   0.440  0.0350  0.4815 -0.1410
    1ION     CL69830  23.141  13.200   8.215  0.2921  0.2229 -0.0483
    1ION     CL69831   8.438   0.036   8.535 -0.4109  0.0145 -0.2574
    1ION     CL69832  26.041   9.346   1.508  0.0660 -0.1578 -0.0162
    1ION     CL69833  20.086  24.245   1.201 -0.1800 -0.1151 -0.1454
    1ION     CL69834   0.354  25.464   9.406 -0.1378 -0.1197 -0.1074
    1ION     CL69835   2.480  15.858   8.446 -0.0170 -0.2193 -0.0794
    1ION     CL69836  10.006   2.571   0.444 -0.2232  0.1609  0.1430
    1ION     CL69837  16.398  22.773   7.911 -0.2465 -0.2601 -0.1235
    1ION     CL69838   9.710  25.378   6.954  0.1079 -0.0498 -0.0189
    1ION     CL69839  27.405  29.615   1.963  0.1487 -0.2292 -0.2984
    1ION     CL69840   7.256  23.484   6.311  0.1307 -0.2170  0.0383
    1ION     CL69841  16.368  24.595   7.511 -0.3064  0.0005 -0.0361
    1ION     CL69842  19.852  15.475   8.477 -0.2146  0.2630 -0.1386
    1ION     CL69843   0.955  26.640   6.507  0.0044  0.1339  0.0445
    1ION     CL69844   5.261  16.697   7.481 -0.0047 -0.1769 -0.0183
    1ION     CL69845   0.398  27.559   2.036  0.0915  0.1214  0.1610
    1ION     CL69846  20.996   1.394   8.519 -0.1736 -0.1222 -0.3365
    1ION     CL69847  10.049   7.003   7.533  0.0107 -0.1471  0.0298
    1ION     CL69848   0.423  25.749   7.960  0.0927  0.0571 -0.0629
    1ION     CL69849   5.112   0.320   0.781 -0.1478  0.0380 -0.3789
    1ION     CL69850  18.851  12.094   7.432 -0.2696 -0.1129  0.1092
    1ION     CL69851  12.772  10.747   7.629  0.2567 -0.0098 -0.1868
    1ION     CL69852   1.526   9.112   8.836  0.0980  0.1854  0.0720
    1ION     CL69853   0.029   6.045   2.009 -0.0687  0.1401 -0.0301
    1ION     CL69854  16.763  16.578   7.757  0.2860 -0.2536  0.3122
    1ION     CL69855   5.269   3.858   9.282  0.0598  0.1732  0.0213
    1ION     CL69856   1.090   1.553   9.318  0.0188  0.1701 -0.1770
    1ION     CL69857   8.242   2.777   9.421  0.0452  0.0259 -0.5426
    1ION     CL69858  19.837  10.058   1.087 -0.0262  0.1224 -0.1864
    1ION     CL69859   5.943  29.484   0.954  0.0233 -0.3297  0.0980
    1ION     CL69860   4.917  16.444   2.052  0.2074  0.0969  0.3029
    1ION     CL69861  14.519  15.010   6.848  0.3276 -0.0757 -0.0707
    1ION     CL69862  17.439  27.231   0.173  0.2898  0.1684  0.0965
    1ION     CL69863  13.865  25.552   0.358 -0.0111 -0.0408 -0.2686
    1ION     CL69864  23.493  23.086   8.540  0.3326  0.1523 -0.1239
    1ION     CL69865   0.507   5.143   0.993  0.4053 -0.2269 -0.0757
    1ION     CL69866  13.290  18.648   1.439  0.0622 -0.1410  0.0254
    1ION     CL69867   7.509  23.957   0.389 -0.2668  0.1624  0.0990
    1ION     CL69868   4.457  21.853   1.018 -0.1946 -0.2275  0.0044
    1ION     CL69869  12.897   9.824   7.772  0.0137 -0.3574 -0.0500
    1ION     CL69870  24.023   7.303   1.936  0.0779  0.0112 -0.3326
    1ION     CL69871  17.755   3.063   1.672  0.1264  0.0333  0.3276
    1ION     CL69872  24.872  20.874   2.108 -0.1486 -0.2227  0.0597
    1ION     CL69873   9.426   0.442   1.450 -0.0569 -0.2736 -0.0966
    1ION     CL69874  26.903  29.704   0.069  0.1083  0.0863  0.0129
    1ION     CL69875  18.037  10.351   8.492 -0.0614  0.0483  0.2492
    1ION     CL69876   8.055  26.746   2.239 -0.0337 -0.0432  0.1567
    1ION     CL69877  16.121  13.131   7.259  0.1915  0.1413  0.2041
    1ION     CL69878  10.576  27.366   2.979 -0.0202  0.3432  0.1917
    1ION     CL69879  26.250  27.152   9.254  0.0233  0.2013 -0.2938
    1ION     CL69880  28.494  18.837   8.323  0.0762 -0.1094 -0.3841
    1ION     CL69881  17.172  22.764   7.295 -0.0506  0.0022  0.0957
    1ION     CL69882  23.068  19.579   0.802  0.0777  0.0813  0.3809
    1ION     CL69883  26.165  12.672   9.429  0.0363  0.1914  0.2523
    1ION     CL69884   0.904  21.098   6.774 -0.0568 -0.3959 -0.0618
    1ION     CL69885  14.793  16.348   8.461  0.2115 -0.2706 -0.2505
    1ION     CL69886  25.247  11.948   8.806  0.1649 -0.1345 -0.0448
    1ION     CL69887  16.554  27.408   8.203  0.1476  0.2560  0.0011
    1ION     CL69888  10.707  19.761   1.346 -0.1306  0.0582 -0.2023
    1ION     CL69889  19.964  20.010   7.507  0.2612 -0.1268 -0.0790
    1ION     CL69890   5.137   2.972   8.231  0.1993  0.0257  0.0253
    1ION     CL69891  26.330  15.668   6.828 -0.2942 -0.0370  0.2079
    1ION     CL69892  12.991  21.981   0.497  0.1336  0.2711 -0.0271
    1ION     CL69893   1.147   0.122   9.158 -0.1587 -0.0137  0.0347
    1ION     CL69894   9.472   1.161   7.266 -0.3885 -0.0619  0.1158
    1ION     CL69895  15.115   9.963   1.735 -0.0851  0.1099  0.0566
    1ION     CL69896   7.623  15.217   7.176 -0.1030 -0.2359  0.2729
    1ION     CL69897   5.327  24.574   1.717 -0.1732  0.0066  0.0608
    1ION     CL69898   1.094   4.407   2.030  0.1482  0.0399 -0.0452
    1ION     CL69899   3.266   9.704   7.789  0.1123  0.1110 -0.2821
    1ION     CL69900   1.327   4.713   2.997  0.1102 -0.2714 -0.3332
    1ION     CL69901  19.969  15.556   7.268  0.1259  0.0599 -0.0650
    1ION     CL69902  15.062  16.931   1.403 -0.0457  0.0678  0.0631
    1ION     CL69903   5.533   2.123   2.493  0.2271  0.0581  0.0305
    1ION     CL69904  26.788  13.338   7.162 -0.0975  0.0437 -0.2527
    1ION     CL69905   3.531   7.956   8.259  0.0137  0.1106 -0.2472
    1ION     CL69906  12.290  15.045   7.767  0.1258  0.1007  0.0142
    1ION     CL69907  26.910  14.557   7.850 -0.1608  0.1194 -0.1554
    1ION     CL69908  22.743  12.793   6.936 -0.2145 -0.2764 -0.0524
    1ION     CL69909  22.253  12.938   1.415 -0.1814 -0.0183  0.0783
    1ION     CL69910  25.150  17.554   9.029 -0.1164 -0.0413  0.1785
    1ION     CL69911  19.163  10.180   7.528 -0.0528 -0.1315  0.0227
    1ION     CL69912  15.942   7.585   8.912 -0.0449 -0.2246 -0.3138
    1ION     CL69913  17.734  29.651   2.552 -0.4139 -0.1747  0.0971
    1ION     CL69914  21.292   3.122   1.857 -0.3948 -0.1103 -0.1205
    1ION     CL69915  13.196  16.430   8.050 -0.1629 -0.1475  0.1839
    1ION     CL69916   4.168  18.620   0.118 -0.0320 -0.2335 -0.2010
    1ION     CL69917  10.508  23.581   1.316 -0.1408  0.0456 -0.2245
    1ION     CL69918  17.673   8.823   1.971  0.1454  0.2679  0.0273
    1ION     CL69919  21.350   8.705   0.543 -0.2750  0.1183 -0.0372
    1ION     CL69920  10.116  27.624   8.893  0.2450 -0.1121  0.2317
    1ION     CL69921  21.884  29.501   7.256  0.1117 -0.2010  0.1539
    1ION     CL69922  21.083   9.943   1.499 -0.1134  0.0885  0.3798
    1ION     CL69923  15.767  23.575   2.179  0.0874 -0.2700  0.1829
    1ION     CL69924   3.761  27.942   1.120  0.0077 -0.3476 -0.1738
    1ION     CL69925  10.027  29.059   2.209  0.0945 -0.0156  0.0932
    1ION     CL69926  10.518   9.321   1.789 -0.2728 -0.0482 -0.1193
    1ION     CL69927  10.782  18.646   8.716 -0.1820 -0.2048 -0.2866
    1ION     CL69928  27.729  21.132   7.096  0.0960 -0.1345  0.2122
    1ION     CL69929   6.033  25.060   1.959  0.0136 -0.1581  0.1318
    1ION     CL69930  24.682  11.748   0.550 -0.1149 -0.0315 -0.0682
    1ION     CL69931  11.303  25.552   2.293  0.2443 -0.0125 -0.1232
    1ION     CL69932  20.525  26.645   8.036  0.2057  0.0697 -0.2411
    1ION     CL69933   5.411  13.559   7.312 -0.1130 -0.2204 -0.0973
    1ION     CL69934  11.741  19.330   8.861 -0.2431  0.3506 -0.0027
    1ION     CL69935  19.090   4.787   8.651 -0.0112 -0.0526 -0.2810
    1ION     CL69936  18.163  10.932   1.220 -0.3178 -0.1259 -0.3614
    1ION     CL69937   7.650  27.608   7.467 -0.0781  0.0721 -0.1841
    1ION     CL69938  12.575   4.304   2.281  0.1880 -0.1788  0.1834
    1ION     CL69939   4.183   3.406   0.163 -0.3051 -0.2571  0.1337
    1ION     CL69940  27.717  27.804   2.326 -0.0258  0.0628 -0.1390
    1ION     CL69941  16.237  23.125   1.471  0.1900  0.0184 -0.2558
    1ION     CL69942  22.207   0.341   0.809  0.0730  0.0708  0.1532
    1ION     CL69943   3.639  18.384   8.417 -0.0821 -0.0184  0.0784
    1ION     CL69944  14.009  12.570   7.459 -0.2325  0.2366  0.1391
    1ION     CL69945   5.447  22.659   1.816 -0.0576 -0.1806  0.0056
    1ION     CL69946  17.145  18.481   1.133  0.0298 -0.0773 -0.0822
    1ION     CL69947  23.687  21.005   8.903 -0.2605 -0.1140 -0.1808
    1ION     CL69948   8.194  19.224   9.295 -0.1018  0.1124  0.0546
    1ION     CL69949  10.123  19.103   8.135 -0.0389  0.2355 -0.2423
    1ION     CL69950  16.376  16.352   1.292  0.2602 -0.1892  0.2883
    1ION     CL69951  10.530  21.666   8.481  0.1077 -0.0449  0.0178
    1ION     CL69952  24.901   4.519   7.266  0.0898 -0.1106 -0.4120
    1ION     CL69953  18.291  11.462   0.904  0.1718 -0.3085 -0.2107
    1ION     CL69954  24.500  27.139   1.928 -0.0264 -0.1827  0.2040
    1ION     CL69955   4.778   2.799   0.196  0.0658 -0.1805  0.2423
    1ION     CL69956  22.865  13.481   7.195 -0.0243 -0.3744 -0.0075
    1ION     CL69957   1.514  29.716   8.903 -0.1654  0.0636  0.0499
    1ION     CL69958  22.608   3.539   7.556  0.1279 -0.0730  0.2134
    1ION     CL69959   1.616   3.095   6.984  0.1256  0.1183  0.1780
    1ION     CL69960   5.794   5.295   2.779 -0.2778  0.0839  0.0347
    1ION     CL69961   6.332  18.954   7.042  0.2760  0.3590  0.1016
    1ION     CL69962  24.948   1.310   7.248 -0.3600 -0.3530  0.1950
    1ION     CL69963  10.837   5.712   2.260  0.3707 -0.2083  0.1369
    1ION     CL69964  28.316  27.382   7.752  0.2612 -0.1185 -0.0235
    1ION     CL69965  11.620  28.313   7.634 -0.0801  0.0472  0.0120
    1ION     CL69966  16.700  25.765   1.473 -0.4029  0.0394  0.1008
    1ION     CL69967  23.348  16.924   1.984 -0.1719 -0.3714  0.2007
    1ION     CL69968   9.721   8.542   7.758  0.2527  0.3305 -0.1011
    1ION     CL69969  12.686  11.374   0.027  0.1900 -0.2296 -0.1023
    1ION     CL69970  27.070  27.031   8.999 -0.0682 -0.2753  0.0358
    1ION     CL69971  15.995   0.076   9.248  0.0652  0.2680  0.0753
    1ION     CL69972  29.097  10.856   6.539  0.1495 -0.0591  0.0611
    1ION     CL69973  28.466   0.921   1.852 -0.1230 -0.5100 -0.0069
    1ION     CL69974  28.594   5.168   2.103  0.3464 -0.0673  0.1973
    1ION     CL69975  12.765  12.000   8.967  0.2177  0.0894 -0.2151
    1ION     CL69976  12.921   6.336   1.027  0.0117  0.0294  0.0203
    1ION     CL69977  12.682  23.613   7.832 -0.0035  0.1559  0.0372
    1ION     CL69978  22.047  16.910   7.350 -0.0879 -0.3709 -0.0929
    1ION     CL69979  11.385  23.875   1.576  0.1546 -0.1761 -0.1315
    1ION     CL69980  22.578   5.744   1.956 -0.0552  0.1170  0.0163
    1ION     CL69981  27.434  23.802   8.232 -0.1316  0.1564 -0.1004
    1ION     CL69982   5.522  29.862   2.044 -0.3689  0.3305  0.0254
    1ION     CL69983  19.320  19.179   7.358  0.3404 -0.1877 -0.0531
    1ION     CL69984  19.403  19.847   8.469 -0.4726  0.0336  0.3646
    1ION     CL69985   9.145  22.997   7.109 -0.0383 -0.2389 -0.0414
    1ION     CL69986  22.359  27.108   7.922 -0.0210 -0.2080 -0.3304
    1ION     CL69987   4.538  15.035   6.469 -0.1859 -0.1091 -0.0921
    1ION     CL69988  15.807   9.228   1.464  0.0662  0.3319  0.1834
    1ION     CL69989  11.522  24.233   7.119  0.0977  0.1912 -0.1792
    1ION     CL69990  29.487   2.958   6.997  0.0010  0.0006  0.2043
    1ION     CL69991  25.839  28.119   7.528 -0.0823  0.0005  0.2566
    1ION     CL69992  13.540  20.741   7.885 -0.2465 -0.0159  0.0733
    1ION     CL69993  21.832  26.886   2.167  0.0152  0.2080  0.2824
    1ION     CL69994  13.126  17.183   1.813  0.0036  0.1375 -0.1444
    1ION     CL69995   3.054  24.007   9.002 -0.3068 -0.1177 -0.0506
    1ION     CL69996  14.899  14.542   8.521  0.2958  0.0503 -0.0032
    1ION     CL69997  17.028   6.659   1.812  0.3513  0.1510  0.0538
    1ION     CL69998   4.786   3.836   7.112  0.2020 -0.1275  0.0791
    1ION     CL69999  12.750  18.416   6.991  0.1539  0.0738  0.3477
    1ION     CL70000   0.306  17.831   0.877  0.1013 -0.0238 -0.2353
    1ION     CL70001   5.683  12.111   8.263 -0.0251 -0.0771  0.0651
    1ION     CL70002   7.015  23.560   9.178  0.0651 -0.0118  0.0432
    1ION     CL70003  12.713  14.839   8.581 -0.0072  0.2382 -0.0094
    1ION     CL70004  18.167  15.032   7.325  0.0435 -0.1446 -0.1518
    1ION     CL70005  10.850  15.846   8.172  0.0542 -0.2908  0.2049
    1ION     CL70006  28.937  29.808   1.025 -0.2508 -0.0836  0.4114
    1ION     CL70007  20.445   4.238   9.283  0.1855  0.2420  0.1993
    1ION     CL70008   2.778  17.049   1.480  0.0653 -0.2230 -0.0457
    1ION     CL70009  16.215  19.317   0.326 -0.0804  0.1017 -0.1850
    1ION     CL70010   4.031  26.843   6.989  0.2827 -0.1106  0.1477
    1ION     CL70011  11.384  16.287   9.152 -0.1042 -0.2707 -0.2570
    1ION     CL70012   4.567  17.862   1.078  0.1224 -0.0541  0.1137
    1ION     CL70013  25.458  14.917   7.615  0.0596 -0.2206  0.1368
    1ION     CL70014  16.139  14.780   6.915  0.1888  0.3960 -0.0641
    1ION     CL70015  23.905  17.089   7.054 -0.0531  0.1052  0.0924
    1ION     CL70016   4.554   6.979   8.769  0.5056  0.0327  0.1767
    1ION     CL70017   9.384  15.590   7.343  0.0272  0.2606 -0.0237
    1ION     CL70018   2.148  28.732   2.116  0.2038  0.0379  0.5580
    1ION     CL70019   9.339  23.944   7.185  0.1023  0.0371 -0.0057
    1ION     CL70020  28.479  13.631   8.137  0.0669 -0.2843  0.0027
    1ION     CL70021  17.821  10.219   0.860 -0.0135 -0.0140 -0.1047
    1ION     CL70022  26.678   3.430   2.408 -0.0259  0.0797 -0.0281
    1ION     CL70023  19.676  21.871   8.749 -0.0907 -0.2614  0.1011
    1ION     CL70024   3.434  11.810   0.263  0.1940  0.4067 -0.4969
    1ION     CL70025   5.817  21.706   6.289 -0.2989 -0.1260  0.1047
    1ION     CL70026  21.332  23.062   7.758  0.2196 -0.1088  0.0312
    1ION     CL70027   1.537   7.564   9.130  0.1477 -0.2101 -0.1318
    1ION     CL70028  24.805  19.350   1.814  0.0970  0.0178 -0.2938
    1ION     CL70029  10.524  18.745   1.399 -0.2754 -0.1194 -0.1198
    1ION     CL70030  19.795  14.227   7.610  0.0450 -0.3081  0.0341
    1ION     CL70031  29.624  19.615   8.530 -0.3043  0.1254 -0.1037
    1ION     CL70032   2.526  22.295   6.274  0.1864  0.2129  0.1699
    1ION     CL70033  29.227  26.814   6.641  0.2758 -0.1932  0.0096
    1ION     CL70034  24.637  27.534   8.668 -0.2681 -0.0346 -0.1964
    1ION     CL70035  24.838   7.963   1.509 -0.0863  0.1448  0.2178
    1ION     CL70036  13.394   1.343   9.200 -0.2246  0.0079  0.2992
    1ION     CL70037   1.899  19.941   6.749 -0.0558 -0.0354 -0.2350
    1ION     CL70038  24.795   8.306   7.279  0.0415  0.1397 -0.1132
    1ION     CL70039  20.819  20.752   8.636 -0.2786 -0.1043  0.0054
    1ION     CL70040   7.852  14.676   8.767 -0.2836 -0.2803  0.1712
    1ION     CL70041   8.880  15.626   8.514 -0.0738  0.1849 -0.1945
    1ION     CL70042  25.228  21.544   7.496 -0.0249  0.1157 -0.1950
    1ION     CL70043   3.191  27.255   6.998  0.0167  0.3481 -0.4342
    1ION     CL70044   4.707   1.221   2.368  0.2066  0.0242  0.0426
    1ION     CL70045  11.058  21.034   7.397  0.1497  0.2142  0.1565
    1ION     CL70046  13.652  14.793   8.528  0.2114 -0.0298 -0.2678
    1ION     CL70047   1.931  23.108   7.869  0.1140  0.2760 -0.0883
    1ION     CL70048  18.659  19.387   1.443 -0.1259 -0.2216  0.1187
    1ION     CL70049  11.837   2.389   8.114  0.2118 -0.3269 -0.2082
    1ION     CL70050   0.255  22.509   1.194  0.2232  0.1570  0.1158
    1ION     CL70051  22.169   5.922   7.649 -0.0997 -0.2330  0.1237
    1ION     CL70052  20.832  18.864   2.136  0.1082 -0.1742 -0.0760
    1ION     CL70053  18.516  12.827   7.030  0.0435  0.1574 -0.0281
    1ION     CL70054  11.702   3.115   8.673 -0.2590 -0.4092  0.1319
    1ION     CL70055  26.188  15.157   8.119  0.0772 -0.0754  0.3691
    1ION     CL70056  21.693   6.160   9.292 -0.2968 -0.0093  0.2027
    1ION     CL70057  11.035   1.571   7.710  0.0814  0.1915 -0.0418
    1ION     CL70058  10.473   3.741   7.897 -0.1966  0.0823  0.0144
    1ION     CL70059  27.349  14.147   1.548 -0.1808 -0.0048 -0.0052
    1ION     CL70060  12.682  29.550   8.519 -0.2562 -0.1482 -0.5061
    1ION     CL70061  14.892  12.175   8.354  0.1443  0.1766  0.2647
    1ION     CL70062  26.720  17.034   9.309  0.0262 -0.2843  0.3259
    1ION     CL70063   1.163  11.818   1.948  0.2656 -0.2864  0.3528
    1ION     CL70064  17.448  24.269   1.425 -0.2686 -0.2385 -0.1580
    1ION     CL70065   7.855  16.593   6.592  0.0716 -0.1520  0.3147
    1ION     CL70066  15.155   2.123   0.593 -0.0906  0.0769 -0.0832
    1ION     CL70067  23.102  11.839   7.038  0.1079 -0.0514 -0.1779
    1ION     CL70068   3.594  21.326   1.049  0.0714 -0.3106  0.0153
    1ION     CL70069  11.753   0.832   0.546  0.1635 -0.0497  0.0933
    1ION     CL70070  24.699  25.887   1.561 -0.0827  0.0925 -0.4366
    1ION     CL70071  23.442  26.242   1.795 -0.4765 -0.0023 -0.2058
    1ION     CL70072   1.680  19.476   1.480  0.3654  0.1843  0.0501
    1ION     CL70073   2.718  19.692   0.302 -0.1012  0.1387  0.0818
    1ION     CL70074  10.476  14.882   7.377 -0.0384 -0.1554  0.3666
    1ION     CL70075  28.217  15.850   1.362 -0.0091  0.0998  0.1148
    1ION     CL70076   7.298  29.592   0.446 -0.1523  0.1154  0.0947
    1ION     CL70077  16.941  21.535   2.186  0.0084 -0.1946 -0.1101
    1ION     CL70078  21.643  16.094   9.114  0.0715  0.4052  0.0486
    1ION     CL70079   9.904  17.131   7.704 -0.0620  0.1156  0.1462
    1ION     CL70080  20.817   4.914   7.709  0.1059 -0.0604 -0.1705
    1ION     CL70081  26.304  19.118   1.787  0.0109  0.1900 -0.1980
    1ION     CL70082  16.411  11.972   1.354 -0.0492  0.0649  0.0258
    1ION     CL70083   0.136  15.623   1.688  0.2425 -0.1672 -0.0666
    1ION     CL70084  14.520  25.849   7.262  0.2129 -0.1808  0.2668
    1ION     CL70085  14.847  11.067   7.852  0.2116  0.0920  0.1717
    1ION     CL70086  16.706  16.341   0.424  0.1750 -0.0435 -0.0950
    1ION     CL70087  25.418   8.126   7.973  0.0109 -0.3288  0.0111
    1ION     CL70088   6.925   1.869   2.486 -0.1380  0.0927  0.0499
    1ION     CL70089   9.148  23.610   0.398  0.2224 -0.1481 -0.3934
    1ION     CL70090  25.100   4.887   8.839 -0.0809  0.0907  0.1992
    1ION     CL70091  12.250  28.256   8.325 -0.4693 -0.0800  0.0715
    1ION     CL70092   9.956   1.336   1.004  0.0161  0.1184  0.1203
    1ION     CL70093  27.444  25.959   1.127 -0.1122 -0.0863  0.1029
    1ION     CL70094   3.589   3.800   2.960 -0.2147 -0.1404 -0.1357
    1ION     CL70095   9.816  25.886   0.310 -0.2935  0.1391  0.0720
    1ION     CL70096  15.935   8.371   0.429 -0.1336  0.1745  0.1707
    1ION     CL70097  24.890  28.121   0.464  0.1634  0.0808  0.0163
    1ION     CL70098  17.836  21.973   1.874  0.0590  0.0240 -0.2578
    1ION     CL70099  16.572  17.508   7.683 -0.1539 -0.2266 -0.0382
    1ION     CL70100   2.913  20.320   1.475 -0.1432 -0.3192  0.0609
    1ION     CL70101  22.664  22.115   7.121 -0.0749 -0.1372 -0.0254
    1ION     CL70102  25.436   9.638   7.372 -0.0630  0.1418 -0.0034
    1ION     CL70103   2.570  11.587   7.401  0.1511  0.0352 -0.0898
    1ION     CL70104   0.532   0.705   0.009 -0.2550 -0.3392  0.0560
    1ION     CL70105   4.084  22.989   1.694  0.0365  0.1066  0.0002
    1ION     CL70106  23.068   8.410   0.147 -0.0839 -0.1080 -0.3513
    1ION     CL70107  17.639   9.144   7.815 -0.1857  0.1459  0.2565
    1ION     CL70108  20.110  19.736   2.244  0.3917 -0.3671  0.0162
    1ION     CL70109  17.686  14.768   0.707  0.0476  0.4217 -0.1968
    1ION     CL70110  17.962   1.195   7.140  0.1104 -0.0598 -0.0439
    1ION     CL70111  20.498   2.572   1.777  0.3086 -0.2138  0.0384
    1ION     CL70112   6.171   8.234   7.952  0.0558  0.0371 -0.1791
    1ION     CL70113  16.574  25.107   2.380  0.1783  0.1976 -0.1328
    1ION     CL70114  23.803  21.922   8.651  0.4434  0.1780  0.1106
    1ION     CL70115  15.085   3.863   6.923  0.1891  0.1224  0.0691
    1ION     CL70116   6.105   5.777   7.092 -0.1570  0.0667  0.0980
    1ION     CL70117  13.907   2.994   7.628  0.1241 -0.0255  0.2486
    1ION     CL70118  28.493   9.324   2.444  0.2984  0.3110  0.2867
    1ION     CL70119  21.007   3.105   8.931  0.0405  0.2315  0.1462
    1ION     CL70120   4.708  19.343   6.349  0.3204  0.1812  0.0900
    1ION     CL70121   0.846  15.323   8.932 -0.0932  0.2094  0.0161
    1ION     CL70122  23.627  27.639   8.175  0.0521 -0.3476 -0.2352
    1ION     CL70123  10.683   8.361   8.377 -0.1695  0.1487  0.1756
    1ION     CL70124   5.560  21.230   7.295 -0.0068  0.0595 -0.0715
    1ION     CL70125   5.171  27.566   2.229 -0.1973 -0.0518  0.1858
    1ION     CL70126  10.663   6.564   1.138 -0.1205 -0.1707 -0.1959
    1ION     CL70127   2.114  20.029   0.917 -0.0825 -0.2910  0.1094
    1ION     CL70128   2.795   6.924   9.020  0.2250 -0.0194  0.0268
    1ION     CL70129  27.857   5.480   7.701 -0.0148 -0.0001 -0.0131
    1ION     CL70130  16.657  18.591   7.824 -0.3526  0.0816  0.2269
    1ION     CL70131  17.340   6.732   8.965  0.1396 -0.1672  0.0823
    1ION     CL70132  22.087   2.304   7.605 -0.0959  0.0760  0.2348
    1ION     CL70133  17.168   2.951   0.595 -0.0266  0.0528  0.2196
    1ION     CL70134  16.295  20.927   7.818  0.5795 -0.1218  0.2132
    1ION     CL70135  27.843   4.444   2.557 -0.1776  0.0700 -0.1978
    1ION     CL70136  21.209  29.042   1.947  0.2643 -0.1967  0.0149
    1ION     CL70137  26.119  16.423   7.635 -0.4734  0.3653  0.1616
    1ION     CL70138   0.189  26.866   9.264 -0.1992  0.0150  0.2457
    1ION     CL70139  29.619  27.409   2.204 -0.0607 -0.0505 -0.0821
    1ION     CL70140  19.162   8.899   8.901 -0.1525  0.1216 -0.0951
    1ION     CL70141  15.534   6.593   7.132  0.1259  0.3261 -0.0113
    1ION     CL70142  11.386  23.487   1.077 -0.0730  0.0577 -0.0534
    1ION     CL70143   3.537  29.748   8.054  0.0293  0.3733  0.0213
    1ION     CL70144   1.395  18.764   6.943 -0.1240  0.3431 -0.1973
    1ION     CL70145  27.997   9.364   1.422 -0.0441 -0.0250 -0.1972
    1ION     CL70146  13.610   0.459   9.164 -0.0797  0.0886  0.4552
    1ION     CL70147  28.598   1.815   0.629  0.0107  0.0549  0.0395
    1ION     CL70148  29.478   5.095   1.028  0.0365 -0.1752 -0.1562
    1ION     CL70149  23.865  17.535   1.786  0.1185 -0.4065 -0.0018
    1ION     CL70150  15.664  10.858   7.740  0.3818  0.0491  0.1937
    1ION     CL70151   0.948  29.364   8.307  0.0941  0.3329 -0.1430
    1ION     CL70152  23.943  10.528   2.215  0.0060  0.2460  0.2417
    1ION     CL70153  20.179   6.834   1.878 -0.2851  0.2641 -0.1552
    1ION     CL70154  24.433  23.386   2.279  0.0787  0.1260  0.0554
    1ION     CL70155  13.523  24.440   0.927 -0.0385  0.4325 -0.0983
    1ION     CL70156  18.074  13.799   8.335 -0.2683  0.0243  0.1066
    1ION     CL70157  13.941  19.346   1.653 -0.2219  0.0513  0.1107
    1ION     CL70158  18.244  12.219   9.074 -0.0281  0.1543 -0.1248
    1ION     CL70159   3.418   1.694   2.297 -0.4908  0.3661 -0.0325
    1ION     CL70160  19.568   1.000   7.423  0.0963  0.2795  0.2683
    1ION     CL70161   7.317   6.535   9.311 -0.0620 -0.1087  0.1340
    1ION     CL70162  18.345  22.923   8.133 -0.1333 -0.1305 -0.4238
    1ION     CL70163  25.386  22.164   6.799  0.3106 -0.1369 -0.1047
    1ION     CL70164  17.475   7.962   1.971  0.2649  0.1120  0.1921
    1ION     CL70165   9.585  29.331   0.189 -0.0320  0.6409 -0.4790
    1ION     CL70166  14.153  19.991   7.882 -0.0111  0.3711  0.3179
    1ION     CL70167   8.019   3.366   2.272 -0.0838  0.1510  0.2681
    1ION     CL70168  11.367  13.699   1.279 -0.1251  0.0859 -0.1020
    1ION     CL70169  23.597  23.552   7.831  0.4268  0.0852 -0.1366
    1ION     CL70170  27.253   4.658   8.810 -0.1303  0.0263 -0.1030
    1ION     CL70171   2.501   9.858   2.041  0.4473 -0.1292  0.1714
    1ION     CL70172  17.708   2.575   6.819  0.3529  0.0728  0.0141
    1ION     CL70173  11.508  10.040   9.463  0.0131 -0.0093 -0.1525
    1ION     CL70174   4.682  18.273   8.459  0.0536  0.0715 -0.1377
    1ION     CL70175  21.540   8.600   7.960 -0.0578 -0.0172 -0.2059
    1ION     CL70176  10.745   6.274   7.318  0.2237 -0.2798 -0.1629
    1ION     CL70177   7.168  25.489   9.415  0.1072  0.2041  0.2151
    1ION     CL70178  25.168  26.351   0.472  0.3026  0.0144  0.1526
    1ION     CL70179  12.747  28.607   1.674 -0.1203 -0.1300  0.0806
    1ION     CL70180   2.140  22.126   1.817 -0.0593  0.0563  0.2688
    1ION     CL70181  24.519   5.824   2.613  0.1829  0.2097  0.0500
    1ION     CL70182   6.705   3.666   8.285  0.1044 -0.0088 -0.0882
    1ION     CL70183  12.408   7.293   8.160  0.2474  0.2745  0.1419
    1ION     CL70184   2.293  11.915   8.294 -0.0121 -0.2949  0.1080
    1ION     CL70185   5.048   0.709   1.738 -0.2366 -0.4765  0.1478
    1ION     CL70186  12.585  14.075   0.656  0.3145  0.1946  0.2048
    1ION     CL70187   1.799   1.012   1.979 -0.0788  0.3098 -0.1875
    1ION     CL70188  14.026   5.939   0.299 -0.1340 -0.1528 -0.0696
    1ION     CL70189   2.028  24.801   9.451 -0.2228 -0.4115 -0.1104
    1ION     CL70190  20.656   9.124   7.546 -0.1831  0.2559 -0.1878
    1ION     CL70191  28.156  16.083   7.316  0.1130  0.0268 -0.3921
    1ION     CL70192  14.268   9.855   7.957 -0.2061 -0.1938 -0.2524
    1ION     CL70193  29.096  17.332   9.320  0.2769 -0.3515  0.0619
    1ION     CL70194  20.002  20.175   8.842  0.0954  0.5140  0.1314
    1ION     CL70195  24.507   4.927   1.624 -0.3049 -0.0268  0.0279
    1ION     CL70196  13.100   8.859   2.203  0.0444 -0.2482 -0.1081
    1ION     CL70197  14.205  11.801   7.832 -0.1735 -0.2430  0.1751
    1ION     CL70198  23.738  12.641   0.800 -0.1261  0.1221 -0.0790
    1ION     CL70199   4.944  24.703   6.298  0.3234 -0.0695 -0.1547
    1ION     CL70200  14.061  26.945   7.865  0.2016  0.0996  0.2030
    1ION     CL70201  14.185  22.886   6.956  0.0647  0.3284  0.0718
    1ION     CL70202  24.435  14.976   6.886 -0.0861 -0.0494  0.1323
    1ION     CL70203  18.097   4.355   6.321  0.1730  0.1331  0.1077
    1ION     CL70204   6.891   8.148   0.169 -0.4026  0.0487  0.0118
    1ION     CL70205   4.316  29.889   8.666 -0.0544 -0.2150 -0.0048
    1OPC    NC370206  10.331   7.385   7.377  0.2128  0.1527 -0.0280
    1OPC    PO470207  10.654   7.050   7.061 -0.0095 -0.1364  0.0078
    1OPC    GL170208  10.770   7.211   6.649 -0.1594  0.0783 -0.0656
    1OPC    GL270209  10.668   7.207   6.361 -0.1927 -0.0233  0.2762
    1OPC    C1B70210  10.524   6.958   6.030 -0.0206  0.2810 -0.3307
    1OPC    D2B70211  10.386   6.703   5.654 -0.0450  0.1299  0.0862
    1OPC    C3B70212  10.742   6.593   5.460 -0.0142  0.2208  0.0383
    1OPC    C4B70213  10.943   6.903   5.334  0.1442 -0.0711  0.0018
    1OPC    NC370214   1.184  14.923   6.560  0.1582 -0.3400 -0.2978
    1OPC    PO470215   1.241  14.578   6.408 -0.2754  0.2438 -0.0231
    1OPC    GL170216   1.337  14.508   5.945  0.0013 -0.4183  0.0831
    1OPC    GL270217   1.300  14.548   5.622 -0.0632 -0.0129 -0.0454
    1OPC    C1B70218   1.589  14.486   5.285  0.0370 -0.0480  0.0696
    1OPC    D2B70219   1.548  14.295   4.949 -0.2781 -0.1822  0.1888
    1OPC    C3B70220   1.214  14.359   4.735 -0.3671 -0.0316  0.0397
    1OPC    C4B70221   0.892  14.207   4.641 -0.1118  0.0011 -0.1173
    1OPC    NC370222   8.266  21.688   6.567  0.1180 -0.0056 -0.0374
    1OPC    PO470223   8.390  21.816   6.081 -0.0780  0.0014 -0.0104
    1OPC    GL170224   8.373  21.917   5.650  0.0774 -0.1092 -0.1302
    1OPC    GL270225   8.664  21.952   5.466  0.0277  0.1812  0.0714
    1OPC    C1B70226   8.875  22.254   5.333  0.1715 -0.1709 -0.2586
    1OPC    D2B70227   8.940  22.535   5.000  0.0276 -0.3726  0.1114
    1OPC    C3B70228   9.263  22.407   4.798  0.3025  0.3957  0.1196
    1OPC    C4B70229   9.511  22.204   4.336  0.0112 -0.2513  0.0504
    1OPC    NC370230   4.485   3.017   7.074 -0.1611 -0.1477 -0.0401
    1OPC    PO470231   4.526   3.369   6.778 -0.1066 -0.1764  0.3238
    1OPC    GL170232   4.613   3.720   6.609 -0.3029  0.3333  0.0268
    1OPC    GL270233   4.731   3.843   6.375 -0.0185 -0.0483 -0.0487
    1OPC    C1B70234   5.024   3.894   6.061  0.1055  0.2502 -0.1463
    1OPC    D2B70235   5.081   4.287   5.857 -0.1276 -0.1346 -0.0203
    1OPC    C3B70236   4.765   4.462   5.615  0.1601 -0.1514  0.0401
    1OPC    C4B70237   4.496   4.638   5.312  0.1057 -0.4499 -0.0110
    1OPC    NC370238   2.662  18.250   6.770  0.0943 -0.2977  0.3213
    1OPC    PO470239   2.834  18.043   6.412 -0.2886  0.1510  0.1325
    1OPC    GL170240   2.585  17.936   6.030  0.4445  0.1460  0.0695
    1OPC    GL270241   2.450  17.953   5.704  0.1519 -0.0185  0.0065
    1OPC    C1B70242   2.172  17.853   5.403  0.1040 -0.1559 -0.2339
    1OPC    D2B70243   2.129  17.702   4.995 -0.2444 -0.1988  0.0745
    1OPC    C3B70244   2.116  17.218   4.759 -0.2444  0.0060  0.0695
    1OPC    C4B70245   2.369  17.243   4.367  0.2594  0.0189 -0.2542
    1OPC    NC370246   3.695   8.233   7.336 -0.1343 -0.0900 -0.0033
    1OPC    PO470247   3.639   8.392   7.011  0.1086 -0.1541 -0.2365
    1OPC    GL170248   3.352   8.205   6.725 -0.1293 -0.1160  0.0437
    1OPC    GL270249   3.190   8.169   6.498  0.1766 -0.3052  0.3498
    1OPC    C1B70250   2.968   8.024   6.091 -0.1688  0.0247  0.0569
    1OPC    D2B70251   2.776   7.692   5.857 -0.4656 -0.2367  0.0555
    1OPC    C3B70252   2.583   7.693   5.348  0.2543  0.0836 -0.2995
    1OPC    C4B70253   2.894   7.713   5.036  0.0495  0.0530 -0.2973
    1OPC    NC370254  17.053  26.115   7.149  0.0290 -0.0045 -0.0964
    1OPC    PO470255  17.477  25.717   7.165  0.2602 -0.0541  0.1340
    1OPC    GL170256  17.167  25.755   6.802 -0.1813  0.2146 -0.0402
    1OPC    GL270257  17.172  25.838   6.454  0.1310 -0.0568 -0.1384
    1OPC    C1B70258  17.026  25.964   6.020  0.0708  0.3096 -0.1963
    1OPC    D2B70259  17.091  26.127   5.638  0.0221  0.2368 -0.3003
    1OPC    C3B70260  17.107  25.895   5.305  0.0093  0.1229  0.3318
    1OPC    C4B70261  16.848  25.692   5.024 -0.1639  0.1379 -0.0389
    1OPC    NC370262  12.602  29.089   7.081  0.1240 -0.2725 -0.1847
    1OPC    PO470263  12.725  29.205   7.507 -0.0357 -0.1452  0.0361
    1OPC    GL170264  13.075  29.267   7.193 -0.0440 -0.1862  0.0974
    1OPC    GL270265  13.046  29.319   6.852 -0.0899 -0.1361  0.1908
    1OPC    C1B70266  12.923  29.396   6.453  0.2642  0.0608  0.1388
    1OPC    D2B70267  12.929  29.640   6.024 -0.4493 -0.0017 -0.0187
    1OPC    C3B70268  13.158  29.532   5.588  0.0034  0.3480  0.0413
    1OPC    C4B70269  12.988  29.331   5.168  0.1767 -0.2414  0.0485
    1OPC    NC370270   6.799  15.351   6.882  0.0330 -0.0641 -0.0457
    1OPC    PO470271   6.968  15.003   6.572  0.0954  0.0191 -0.1809
    1OPC    GL170272   7.081  14.857   6.139 -0.0119  0.0697  0.0928
    1OPC    GL270273   7.265  14.907   5.920  0.3044 -0.0691  0.2819
    1OPC    C1B70274   7.495  15.045   5.646  0.0413 -0.1380 -0.1383
    1OPC    D2B70275   7.816  15.385   5.600 -0.1057 -0.4583 -0.0327
    1OPC    C3B70276   8.114  15.246   5.423 -0.0327 -0.0690 -0.1536
    1OPC    C4B70277   8.146  15.287   4.953 -0.1715  0.1496  0.0504
    1OPC    NC370278   8.192  27.274   7.312 -0.0079  0.3760  0.3474
    1OPC    PO470279   8.316  27.320   6.793 -0.0482 -0.0053  0.1386
    1OPC    GL170280   8.509  27.369   6.383 -0.2666 -0.0245 -0.2233
    1OPC    GL270281   8.602  27.310   6.137  0.2910  0.0133 -0.2254
    1OPC    C1B70282   8.365  27.455   5.738 -0.1512 -0.2131 -0.1077
    1OPC    D2B70283   8.381  27.319   5.287  0.1691  0.0893 -0.0841
    1OPC    C3B70284   8.700  27.321   4.975  0.2540  0.0093  0.1300
    1OPC    C4B70285   8.961  27.558   4.656 -0.2551 -0.2145 -0.0069
    1OPC    NC370286  20.563   4.573   6.715  0.2831 -0.0082  0.1031
    1OPC    PO470287  20.373   4.997   6.689  0.1393  0.1183 -0.0216
    1OPC    GL170288  20.448   5.361   6.377 -0.1433 -0.3675  0.3611
    1OPC    GL270289  20.324   5.314   6.093 -0.1733  0.1605  0.2338
    1OPC    C1B70290  20.298   5.650   5.774 -0.2628 -0.1272 -0.0049
    1OPC    D2B70291  20.317   5.619   5.442 -0.0177 -0.1612 -0.1598
    1OPC    C3B70292  20.213   5.871   5.175 -0.0648  0.1061  0.0058
    1OPC    C4B70293  20.112   6.229   5.217  0.1312 -0.0402  0.0924
    1OPC    NC370294  21.092  22.382   6.771 -0.0225  0.2813  0.3316
    1OPC    PO470295  21.532  22.262   6.734 -0.0434  0.0598  0.1052
    1OPC    GL170296  21.424  22.348   6.363  0.0928  0.1078 -0.1503
    1OPC    GL270297  21.629  22.378   6.017 -0.1333 -0.0326  0.1930
    1OPC    C1B70298  21.802  22.295   5.619  0.2613  0.1589  0.0554
    1OPC    D2B70299  21.800  22.210   5.189  0.0889 -0.1484 -0.0692
    1OPC    C3B70300  21.428  22.226   4.842  0.1053 -0.0333  0.0746
    1OPC    C4B70301  21.144  22.057   4.625  0.1355 -0.1834  0.1475
    1OPC    NC370302  14.784   3.491   7.126 -0.1843 -0.0163 -0.1646
    1OPC    PO470303  15.191   3.423   7.462 -0.0404 -0.3515  0.1098
    1OPC    GL170304  15.252   3.384   6.998  0.1360 -0.1719  0.1923
    1OPC    GL270305  15.373   3.564   6.720  0.0129  0.2956 -0.1749
    1OPC    C1B70306  15.348   3.727   6.270  0.0649  0.2290 -0.2690
    1OPC    D2B70307  14.966   3.657   5.961 -0.0063  0.3761 -0.0403
    1OPC    C3B70308  15.095   3.687   5.606  0.2231 -0.2483 -0.0531
    1OPC    C4B70309  15.199   3.957   5.365 -0.1592  0.2528  0.1051
    1OPC    NC370310  13.958  27.064   7.358  0.2343  0.0066 -0.0608
    1OPC    PO470311  14.486  27.239   7.278 -0.2124  0.3266  0.4967
    1OPC    GL170312  14.315  26.915   6.992  0.1011  0.2833  0.1695
    1OPC    GL270313  14.248  26.887   6.646  0.2990  0.0336 -0.2541
    1OPC    C1B70314  14.341  26.807   6.270  0.2132 -0.0205  0.4493
    1OPC    D2B70315  14.554  26.710   5.903  0.0395  0.1107 -0.1527
    1OPC    C3B70316  14.344  26.674   5.522  0.0098 -0.0174  0.3148
    1OPC    C4B70317  14.351  26.929   5.108  0.3984  0.0005 -0.0818
    1OPC    NC370318  29.358  19.480   6.664 -0.1854 -0.2046  0.0107
    1OPC    PO470319  29.810  19.389   6.540 -0.0388  0.1244  0.1297
    1OPC    GL170320  29.851  18.988   6.174  0.1143  0.1103 -0.0582
    1OPC    GL270321  29.901  19.013   5.886 -0.2432 -0.2380 -0.1354
    1OPC    C1B70322  29.833  19.005   5.461  0.2051  0.4359  0.0469
    1OPC    D2B70323  29.834  19.081   4.983  0.0731  0.0788 -0.2538
    1OPC    C3B70324  30.033  18.810   4.780  0.0295 -0.0782 -0.1183
    1OPC    C4B70325  30.376  18.815   4.591  0.1401 -0.3152  0.1761
    1OPC    NC370326  28.108  22.691   6.415  0.2874 -0.1587 -0.0158
    1OPC    PO470327  28.168  22.523   6.013  0.3693 -0.1047 -0.0741
    1OPC    GL170328  28.516  22.320   5.856  0.2722  0.1180  0.2067
    1OPC    GL270329  28.565  22.149   5.613 -0.0263  0.3080 -0.2794
    1OPC    C1B70330  28.318  21.981   5.346  0.0853 -0.0201  0.0258
    1OPC    D2B70331  27.980  21.706   5.454  0.2687  0.0431 -0.2519
    1OPC    C3B70332  28.017  21.509   5.011 -0.1044 -0.1313  0.2886
    1OPC    C4B70333  28.168  21.723   4.689 -0.2006  0.1074 -0.2089
    1OPC    NC370334  21.841   9.276   6.512 -0.0072 -0.3659  0.1591
    1OPC    PO470335  21.779   8.742   6.623 -0.0051  0.1416  0.0156
    1OPC    GL170336  21.806   8.797   6.199 -0.1943  0.1814  0.0764
    1OPC    GL270337  21.976   9.001   6.010 -0.0227  0.0818 -0.0782
    1OPC    C1B70338  22.212   9.067   5.642  0.0350  0.2352  0.1998
    1OPC    D2B70339  22.604   9.006   5.637 -0.0923 -0.0668 -0.3221
    1OPC    C3B70340  22.680   8.859   5.197 -0.1450  0.0908 -0.2353
    1OPC    C4B70341  22.950   8.837   4.897 -0.2386  0.1449  0.2620
    1OPC    NC370342  24.919  21.794   6.815  0.0934 -0.1113 -0.1592
    1OPC    PO470343  25.352  21.713   6.580  0.0092 -0.2557 -0.2087
    1OPC    GL170344  24.950  21.617   6.355  0.1386  0.1976  0.4355
    1OPC    GL270345  24.701  21.401   6.302  0.3009  0.4270  0.1444
    1OPC    C1B70346  24.556  21.224   5.986  0.0493  0.0183 -0.2078
    1OPC    D2B70347  24.669  21.250   5.576 -0.4772 -0.2156  0.1278
    1OPC    C3B70348  24.518  21.442   5.126 -0.1989  0.2551  0.5130
    1OPC    C4B70349  24.170  21.375   4.729 -0.1115  0.3659  0.3593
    1OPC    NC370350  29.295  29.240   6.298 -0.5624  0.0319 -0.2519
    1OPC    PO470351  29.421  29.522   6.685 -0.0102  0.0627  0.0747
    1OPC    GL170352  29.113  29.674   6.389 -0.3258  0.3143 -0.0095
    1OPC    GL270353  29.041  29.633   6.080 -0.0674  0.1000 -0.2887
    1OPC    C1B70354  29.054  29.677   5.686 -0.1870 -0.1774 -0.2279
    1OPC    D2B70355  28.806  29.831   5.242 -0.0895  0.2471  0.0090
    1OPC    C3B70356  29.043  29.932   4.843 -0.0209  0.1903  0.0456
    1OPC    C4B70357  29.053  30.289   4.632  0.1198  0.2049 -0.1227
    1OPC    NC370358  23.377  19.391   7.340  0.0924 -0.1406 -0.3182
    1OPC    PO470359  22.865  19.431   7.219  0.0084 -0.1902  0.2091
    1OPC    GL170360  22.940  19.191   6.768 -0.1222  0.0877 -0.2535
    1OPC    GL270361  22.792  19.055   6.522  0.1869 -0.2556 -0.0776
    1OPC    C1B70362  22.354  18.878   6.131  0.3184  0.1413 -0.0297
    1OPC    D2B70363  21.954  18.938   5.933  0.3091 -0.2537  0.1220
    1OPC    C3B70364  21.877  19.134   5.552  0.3093  0.1226  0.0379
    1OPC    C4B70365  21.562  19.404   5.368 -0.1664  0.2313 -0.2959
    1OPC    NC370366  11.447   2.274   7.693  0.0446  0.1410  0.3219
    1OPC    PO470367  11.708   2.194   7.290  0.2764 -0.1319  0.2052
    1OPC    GL170368  11.819   2.356   6.943 -0.0315  0.0774 -0.0751
    1OPC    GL270369  11.998   2.390   6.744  0.2141 -0.0832 -0.0095
    1OPC    C1B70370  12.277   2.574   6.447 -0.2219  0.3410  0.0304
    1OPC    D2B70371  12.541   2.435   6.101  0.2711 -0.1332  0.0543
    1OPC    C3B70372  12.892   2.675   6.075 -0.1343  0.2382 -0.1779
    1OPC    C4B70373  13.186   2.760   6.419  0.2592  0.0930 -0.0328
    1OPC    NC370374  27.470  11.709   5.771  0.0712 -0.5411 -0.2021
    1OPC    PO470375  27.242  12.086   5.852 -0.2281 -0.0164 -0.0450
    1OPC    GL170376  27.323  12.244   5.511 -0.3676  0.0247  0.3885
    1OPC    GL270377  27.595  12.480   5.421 -0.3462 -0.0888 -0.5590
    1OPC    C1B70378  27.933  12.466   5.051 -0.0528  0.0256  0.2134
    1OPC    D2B70379  27.923  12.396   4.629  0.0547  0.1087 -0.1686
    1OPC    C3B70380  27.619  12.441   4.290 -0.1575 -0.2016 -0.3369
    1OPC    C4B70381  27.461  12.709   3.876 -0.1741 -0.2584  0.2438
    1OPC    NC370382   9.316   7.697   7.542  0.0780 -0.2155  0.1496
    1OPC    PO470383   9.056   7.919   7.384 -0.0495 -0.1810 -0.0257
    1OPC    GL170384   9.127   8.063   6.980  0.0911  0.0355  0.0413
    1OPC    GL270385   9.171   8.133   6.619  0.0165  0.3223  0.0157
    1OPC    C1B70386   9.243   8.270   6.263  0.1513 -0.2044  0.0045
    1OPC    D2B70387   9.380   8.386   5.999 -0.0705  0.0581 -0.1675
    1OPC    C3B70388   9.135   8.650   5.774  0.2017  0.1323  0.2310
    1OPC    C4B70389   8.784   8.608   5.459 -0.1282  0.2160  0.1204
    1OPC    NC370390  11.234  21.598   6.468 -0.0747  0.0474  0.0141
    1OPC    PO470391  11.167  21.876   6.249  0.2995 -0.1251 -0.0143
    1OPC    GL170392  10.989  21.855   5.875  0.2636 -0.2086 -0.3789
    1OPC    GL270393  11.049  21.986   5.620  0.0700 -0.0868  0.1786
    1OPC    C1B70394  11.085  21.952   5.232  0.1025  0.2743 -0.1950
    1OPC    D2B70395  11.048  22.015   4.787 -0.2512  0.1496 -0.1111
    1OPC    C3B70396  11.282  21.784   4.425 -0.1196 -0.0519  0.4304
    1OPC    C4B70397  11.728  21.710   4.251  0.1314 -0.2755  0.0386
    1OPC    NC370398   2.824   3.468   7.275  0.2070  0.0185  0.2012
    1OPC    PO470399   2.919   3.375   6.803  0.1108  0.3911 -0.2185
    1OPC    GL170400   2.829   3.287   6.431 -0.0202  0.0398  0.0725
    1OPC    GL270401   2.917   3.382   6.133 -0.0509  0.2055 -0.1236
    1OPC    C1B70402   3.219   3.397   5.873  0.1895 -0.0732 -0.0840
    1OPC    D2B70403   3.338   3.412   5.524 -0.1384  0.0663  0.1602
    1OPC    C3B70404   2.956   3.478   5.349 -0.0952 -0.0965  0.0117
    1OPC    C4B70405   2.686   3.483   5.069 -0.0810  0.0446  0.2203
    1OPC    NC370406  26.753  28.041   6.796 -0.1580 -0.1773 -0.0533
    1OPC    PO470407  26.827  27.769   6.511 -0.2521 -0.3335  0.0399
    1OPC    GL170408  26.845  27.807   6.049 -0.2946 -0.1184 -0.0654
    1OPC    GL270409  26.613  27.706   5.951  0.1655 -0.2440  0.0658
    1OPC    C1B70410  26.502  27.643   5.521  0.0075 -0.5198  0.2158
    1OPC    D2B70411  26.538  27.830   5.146 -0.2768  0.2073  0.4153
    1OPC    C3B70412  26.238  27.781   4.777 -0.0701  0.1455 -0.1127
    1OPC    C4B70413  25.993  27.366   4.472  0.1164  0.2426 -0.2714
    1OPC    NC370414  15.065  26.769   7.155 -0.0791  0.2826 -0.1045
    1OPC    PO470415  14.981  26.397   6.848 -0.3154  0.0488 -0.1846
    1OPC    GL170416  15.178  26.080   6.534 -0.0160 -0.0880 -0.1423
    1OPC    GL270417  14.961  25.919   6.395 -0.0244  0.0123 -0.2283
    1OPC    C1B70418  14.646  25.919   6.027  0.0426 -0.1061 -0.3026
    1OPC    D2B70419  14.558  26.227   5.758 -0.3438  0.2239 -0.4747
    1OPC    C3B70420  14.756  26.473   5.357  0.0020  0.0738 -0.0480
    1OPC    C4B70421  14.925  26.607   4.972 -0.0418  0.0401  0.1454
    1OPC    NC370422  26.925   6.110   7.153  0.0938 -0.1425  0.3945
    1OPC    PO470423  26.652   5.815   6.824  0.0774  0.3230  0.1093
    1OPC    GL170424  26.836   6.150   6.502 -0.1818 -0.4048 -0.1846
    1OPC    GL270425  27.009   6.137   6.297 -0.0304 -0.1637 -0.2869
    1OPC    C1B70426  27.047   6.231   5.951 -0.1247 -0.0169  0.1148
    1OPC    D2B70427  27.018   6.374   5.529 -0.0680  0.0173  0.1375
    1OPC    C3B70428  26.759   6.047   5.223 -0.1378 -0.3282  0.2383
    1OPC    C4B70429  26.558   5.716   5.215  0.0237  0.1368  0.0665
    1OPC    NC370430   4.465  15.991   6.155  0.0691  0.2165 -0.3112
    1OPC    PO470431   4.181  16.282   5.847 -0.0183 -0.1075  0.1057
    1OPC    GL170432   3.845  16.143   5.680  0.4390  0.1765  0.0011
    1OPC    GL270433   3.513  15.922   5.565  0.0598  0.2084 -0.2134
    1OPC    C1B70434   3.353  16.248   5.221 -0.1368 -0.1376  0.1318
    1OPC    D2B70435   3.031  16.314   4.884  0.0572 -0.0665  0.0912
    1OPC    C3B70436   2.574  16.491   4.959  0.0643 -0.1274 -0.1506
    1OPC    C4B70437   2.157  16.686   5.000 -0.0532  0.3556 -0.4027
    1OPC    NC370438   4.538  25.960   6.376 -0.0121 -0.1882  0.3283
    1OPC    PO470439   4.618  25.598   6.299  0.2883  0.1812  0.1147
    1OPC    GL170440   4.602  25.810   5.907  0.0991 -0.1510  0.2041
    1OPC    GL270441   4.534  25.801   5.592  0.1446 -0.1025 -0.2351
    1OPC    C1B70442   4.228  26.131   5.355 -0.0687 -0.1712  0.0301
    1OPC    D2B70443   4.113  26.242   5.043  0.1874 -0.2624 -0.2026
    1OPC    C3B70444   3.964  26.607   4.863  0.3030  0.0036  0.0334
    1OPC    C4B70445   4.075  26.933   4.610  0.0906  0.3476 -0.4312
    1OPC    NC370446  25.105  14.361   6.056  0.2077 -0.3504 -0.0726
    1OPC    PO470447  24.693  14.541   6.079 -0.4764  0.1462 -0.0397
    1OPC    GL170448  24.464  14.443   5.662  0.0152  0.1697  0.2613
    1OPC    GL270449  24.265  14.280   5.639 -0.1752  0.0881  0.1823
    1OPC    C1B70450  24.139  14.055   5.264 -0.0760 -0.2785  0.1629
    1OPC    D2B70451  24.193  13.896   4.927  0.1719  0.0845  0.1743
    1OPC    C3B70452  24.330  14.111   4.617  0.1183  0.0976 -0.1851
    1OPC    C4B70453  24.590  14.301   4.314  0.0383  0.0473 -0.0239
    1OPC    NC370454  13.417  27.874   6.961  0.1500  0.1305  0.1801
    1OPC    PO470455  13.085  27.551   6.750  0.1825  0.1034  0.0620
    1OPC    GL170456  13.201  27.567   6.336  0.0579 -0.1708 -0.1680
    1OPC    GL270457  13.366  27.528   6.057 -0.1555  0.1530  0.0296
    1OPC    C1B70458  13.428  27.837   5.681 -0.1426  0.0761 -0.1288
    1OPC    D2B70459  12.971  28.060   5.441 -0.0134  0.0305  0.1194
    1OPC    C3B70460  12.986  28.204   4.988  0.2899 -0.0907  0.2519
    1OPC    C4B70461  12.999  28.246   4.612 -0.2673  0.5858  0.1766
    1OPC    NC370462  24.119  20.924   7.237  0.2289  0.0358  0.0608
    1OPC    PO470463  23.864  21.331   7.043  0.0843 -0.0112  0.1289
    1OPC    GL170464  23.699  21.164   6.651  0.3277 -0.0363  0.2918
    1OPC    GL270465  23.601  20.852   6.582  0.1435 -0.1757  0.0440
    1OPC    C1B70466  23.543  20.573   6.154  0.2287  0.0666  0.1739
    1OPC    D2B70467  23.520  20.551   5.720 -0.1220  0.1118  0.1964
    1OPC    C3B70468  23.424  20.299   5.334 -0.0483  0.2017  0.1017
    1OPC    C4B70469  23.129  20.143   4.983 -0.0104  0.2259  0.0738
    1OPC    NC370470   2.952  29.250   6.485 -0.1492  0.1463  0.0276
    1OPC    PO470471   3.226  29.481   6.324  0.0116  0.0801  0.0419
    1OPC    GL170472   3.349  29.554   5.876 -0.0690 -0.2044  0.3520
    1OPC    GL270473   3.165  29.409   5.564 -0.0403  0.2021 -0.4253
    1OPC    C1B70474   2.946  29.253   5.201 -0.2682 -0.0950 -0.0938
    1OPC    D2B70475   2.504  29.239   5.096 -0.1405  0.3515 -0.0042
    1OPC    C3B70476   2.523  29.694   4.932  0.1403 -0.0380 -0.0250
    1OPC    C4B70477   2.675  29.942   4.692 -0.1316 -0.2566 -0.2973
    1OPC    NC370478  12.315   4.660   6.961  0.4329  0.0943 -0.3486
    1OPC    PO470479  12.577   5.009   7.201  0.2083 -0.0250  0.2100
    1OPC    GL170480  12.614   5.496   7.068 -0.0388  0.0838  0.1598
    1OPC    GL270481  12.547   5.754   6.963  0.2306  0.1704  0.1275
    1OPC    C1B70482  12.374   5.922   6.517  0.0434  0.2926  0.0938
    1OPC    D2B70483  12.310   5.860   6.020 -0.0130 -0.1079  0.4400
    1OPC    C3B70484  12.421   5.536   5.743 -0.0543 -0.1624 -0.0237
    1OPC    C4B70485  12.722   5.152   5.659  0.1364 -0.1853 -0.1877
    1OPC    NC370486  17.391   7.674   6.723 -0.1248  0.1656  0.1629
    1OPC    PO470487  17.045   7.492   6.599  0.0612  0.0745 -0.2699
    1OPC    GL170488  17.128   7.236   6.200  0.1205 -0.0987  0.1856
    1OPC    GL270489  17.029   7.159   5.879  0.2389 -0.2139  0.1197
    1OPC    C1B70490  17.059   7.339   5.518 -0.1791 -0.2231  0.0252
    1OPC    D2B70491  17.174   7.630   5.267 -0.1784 -0.4053  0.3576
    1OPC    C3B70492  17.438   7.702   5.036 -0.1662 -0.2164  0.0274
    1OPC    C4B70493  17.846   7.738   4.879 -0.2326 -0.1722  0.3813
    1OPC    NC370494  26.291  17.897   6.964  0.0271  0.1247  0.2709
    1OPC    PO470495  26.246  18.108   6.587 -0.1194  0.4049  0.4880
    1OPC    GL170496  25.891  18.271   6.295  0.2701 -0.0543  0.0260
    1OPC    GL270497  25.838  18.366   6.057 -0.1872  0.0186  0.1580
    1OPC    C1B70498  25.555  18.579   5.797  0.0204 -0.2003 -0.0308
    1OPC    D2B70499  25.212  18.550   5.484 -0.1880 -0.1503 -0.1145
    1OPC    C3B70500  25.088  18.823   5.138  0.1510  0.1405 -0.1203
    1OPC    C4B70501  25.089  18.951   4.784  0.1282 -0.1155 -0.1667
    1OPC    NC370502  26.486  28.941   7.229  0.2636  0.0522 -0.1488
    1OPC    PO470503  26.543  29.405   7.101  0.2598 -0.2494  0.2652
    1OPC    GL170504  26.290  29.446   6.668 -0.1284  0.0881 -0.1720
    1OPC    GL270505  26.258  29.610   6.295  0.1082 -0.2959  0.0921
    1OPC    C1B70506  26.461  29.892   5.946 -0.1107  0.2672  0.2528
    1OPC    D2B70507  26.515  29.803   5.475  0.0166 -0.3845 -0.0692
    1OPC    C3B70508  26.256  30.010   5.175 -0.1717 -0.3643  0.1864
    1OPC    C4B70509  26.299  30.441   4.935 -0.0494  0.0178 -0.2551
    1OPC    NC370510   7.530   3.614   7.334  0.1826 -0.0659  0.0025
    1OPC    PO470511   7.452   3.933   7.470  0.0609 -0.1543  0.1013
    1OPC    GL170512   7.685   4.048   7.164 -0.2661  0.0601 -0.0773
    1OPC    GL270513   7.702   4.010   6.873 -0.2184  0.0128 -0.2665
    1OPC    C1B70514   7.351   3.929   6.508 -0.1776  0.0023  0.2430
    1OPC    D2B70515   7.153   3.433   6.400 -0.0071 -0.0042  0.1299
    1OPC    C3B70516   7.136   3.236   6.043 -0.1866  0.1507 -0.3396
    1OPC    C4B70517   7.006   2.878   5.812 -0.0881  0.1161 -0.2012
    1OPC    NC370518  28.918  21.015   6.340 -0.4088  0.0528  0.2837
    1OPC    PO470519  29.190  21.359   6.116 -0.0287 -0.0251 -0.0846
    1OPC    GL170520  29.345  20.920   6.000 -0.1565 -0.2161  0.0135
    1OPC    GL270521  29.233  20.742   5.732 -0.1315  0.0633 -0.3292
    1OPC    C1B70522  29.260  20.613   5.251  0.2107 -0.0350 -0.2190
    1OPC    D2B70523  29.420  20.313   4.886 -0.1462  0.1660 -0.0961
    1OPC    C3B70524  29.650  20.491   4.564 -0.1388  0.1630  0.1141
    1OPC    C4B70525  29.885  20.545   4.024 -0.1185 -0.1157  0.1112
    1OPC    NC370526   4.880  25.635   6.755  0.2560 -0.0483  0.0435
    1OPC    PO470527   5.002  26.030   6.492 -0.0144 -0.1292 -0.1601
    1OPC    GL170528   4.958  26.157   6.068 -0.1047 -0.0278 -0.3271
    1OPC    GL270529   5.230  26.365   5.908  0.1352 -0.0270 -0.0195
    1OPC    C1B70530   5.214  26.732   5.597 -0.2075  0.1001  0.0813
    1OPC    D2B70531   5.331  27.011   5.164 -0.0462 -0.3265 -0.0754
    1OPC    C3B70532   5.182  27.207   4.972 -0.0181  0.0655 -0.2099
    1OPC    C4B70533   4.955  27.105   4.567  0.2260 -0.1936  0.1566
    1OPC    NC370534   0.453  15.463   5.886  0.1169  0.1468 -0.0969
    1OPC    PO470535   0.306  15.773   6.230 -0.1669 -0.0030 -0.2470
    1OPC    GL170536   0.154  15.864   5.807  0.0798  0.2848  0.3363
    1OPC    GL270537   0.160  15.818   5.434  0.2195  0.2297  0.2968
    1OPC    C1B70538  -0.017  15.499   4.998  0.2520 -0.0735  0.0410
    1OPC    D2B70539   0.075  15.289   4.683  0.1758  0.2266  0.0539
    1OPC    C3B70540   0.098  15.479   4.221  0.3735 -0.2226 -0.0321
    1OPC    C4B70541   0.237  15.756   3.895 -0.0802 -0.1141 -0.1439
    1OPC    NC370542  29.336  14.572   6.470  0.0925  0.0573  0.2601
    1OPC    PO470543  29.795  14.493   6.467 -0.1855  0.1174 -0.1185
    1OPC    GL170544  29.913  14.573   6.060 -0.3736 -0.2124 -0.0215
    1OPC    GL270545  29.795  14.740   5.817 -0.3509 -0.3709 -0.0585
    1OPC    C1B70546  29.724  14.846   5.439  0.1398  0.0553  0.1787
    1OPC    D2B70547  29.623  15.068   5.107 -0.0537  0.3339 -0.0734
    1OPC    C3B70548  29.632  14.948   4.682 -0.0722 -0.3086  0.1367
    1OPC    C4B70549  29.655  15.078   4.331 -0.1085  0.1630 -0.0220
    1OPC    NC370550  27.758  26.334   6.698  0.0564  0.0850 -0.1627
    1OPC    PO470551  27.480  25.975   6.645 -0.0920 -0.5116 -0.0164
    1OPC    GL170552  27.381  25.670   6.480 -0.0384 -0.0181 -0.0357
    1OPC    GL270553  27.342  25.523   6.208 -0.3215  0.0156  0.2793
    1OPC    C1B70554  27.445  25.539   5.794  0.0087  0.2124  0.1575
    1OPC    D2B70555  27.279  25.610   5.416  0.0591 -0.2691 -0.0616
    1OPC    C3B70556  27.531  26.028   5.283  0.0360 -0.1170 -0.1293
    1OPC    C4B70557  27.942  26.098   5.135  0.0196  0.2525  0.1096
    1OPC    NC370558  25.592  15.199   6.311 -0.3382 -0.3239  0.0013
    1OPC    PO470559  25.253  15.351   6.397  0.2245 -0.2224 -0.1989
    1OPC    GL170560  25.161  15.385   5.987 -0.1653  0.3704 -0.3596
    1OPC    GL270561  24.881  15.415   5.744 -0.1218  0.0734 -0.0268
    1OPC    C1B70562  24.711  15.436   5.319  0.0433 -0.0271  0.0244
    1OPC    D2B70563  24.528  15.535   4.986 -0.1811 -0.0439  0.0635
    1OPC    C3B70564  24.744  15.828   4.690  0.0137 -0.1880  0.1156
    1OPC    C4B70565  24.572  16.151   4.393 -0.1706  0.1511  0.4194
    1OPC    NC370566  22.337   4.960   6.663  0.3636 -0.0490  0.0907
    1OPC    PO470567  22.330   4.462   6.796  0.0042  0.2898 -0.3470
    1OPC    GL170568  22.634   4.590   6.436 -0.0928 -0.0560  0.2073
    1OPC    GL270569  22.731   4.444   6.193 -0.2150 -0.0282  0.1828
    1OPC    C1B70570  22.980   4.444   5.885 -0.2213 -0.3851 -0.0853
    1OPC    D2B70571  22.975   4.638   5.678  0.0498 -0.2008  0.3603
    1OPC    C3B70572  22.974   4.584   5.318  0.0129 -0.2822 -0.0513
    1OPC    C4B70573  23.080   4.328   5.082  0.0673  0.0305 -0.0891
    1OPC    NC370574  18.219  23.398   7.490  0.0665 -0.0164  0.0729
    1OPC    PO470575  18.449  23.636   7.116 -0.1738 -0.1007  0.0091
    1OPC    GL170576  18.476  23.540   6.756  0.1599  0.1015  0.0973
    1OPC    GL270577  18.221  23.504   6.530 -0.2104  0.1433 -0.1436
    1OPC    C1B70578  18.104  23.679   6.091  0.4042 -0.2106 -0.0318
    1OPC    D2B70579  18.293  23.878   5.716  0.2315 -0.1606  0.0535
    1OPC    C3B70580  17.951  23.807   5.445  0.2371 -0.1754  0.0821
    1OPC    C4B70581  17.879  23.300   5.324  0.3146 -0.0978 -0.0587
    1OPC    NC370582   0.748   1.504   6.571  0.2313 -0.1908  0.5915
    1OPC    PO470583   0.223   1.514   6.492 -0.4380 -0.0685 -0.1029
    1OPC    GL170584   0.214   1.303   6.149  0.0121  0.2803  0.1238
    1OPC    GL270585   0.115   0.978   5.876  0.1863 -0.2698 -0.0739
    1OPC    C1B70586   0.119   0.955   5.406  0.2523 -0.2397  0.1408
    1OPC    D2B70587  -0.016   0.848   4.948 -0.3461  0.1747  0.3125
    1OPC    C3B70588   0.202   0.591   4.584  0.1260 -0.2670  0.1827
    1OPC    C4B70589   0.223   0.403   4.110 -0.1512 -0.1680  0.0558
    1OPC    NC370590  22.842  14.984   6.562  0.2365  0.2340 -0.1563
    1OPC    PO470591  23.229  14.825   6.463 -0.2026 -0.0506  0.1292
    1OPC    GL170592  23.247  15.003   6.072  0.0943 -0.4008  0.1667
    1OPC    GL270593  23.427  15.064   5.820 -0.2443  0.0870  0.1759
    1OPC    C1B70594  23.580  15.016   5.379  0.2085 -0.3257 -0.0286
    1OPC    D2B70595  23.866  15.096   5.027 -0.2701  0.2028  0.1144
    1OPC    C3B70596  23.746  15.523   4.979 -0.0442 -0.0595  0.2788
    1OPC    C4B70597  23.331  15.758   4.888  0.1269 -0.3600 -0.1575
    1OPC    NC370598   7.772  19.802   6.271  0.2759  0.1528 -0.0072
    1OPC    PO470599   7.914  20.114   5.937  0.1217 -0.0533 -0.1905
    1OPC    GL170600   7.794  19.785   5.631 -0.1613 -0.1114 -0.1796
    1OPC    GL270601   7.909  19.528   5.548 -0.1710  0.1496 -0.0813
    1OPC    C1B70602   7.930  19.193   5.207 -0.2162 -0.0132  0.2455
    1OPC    D2B70603   8.163  18.961   4.995 -0.0111 -0.1263 -0.3741
    1OPC    C3B70604   8.379  19.028   4.677  0.3232 -0.2039 -0.1404
    1OPC    C4B70605   8.742  19.033   4.535  0.0156 -0.0011 -0.0559
    1OPC    NC370606   1.641   7.320   7.071  0.0443 -0.3405  0.1079
    1OPC    PO470607   1.844   7.684   7.019  0.1414 -0.0137  0.2693
    1OPC    GL170608   2.037   7.856   6.628  0.2659 -0.0947  0.0974
    1OPC    GL270609   2.156   7.835   6.340  0.0717 -0.0861 -0.1669
    1OPC    C1B70610   2.343   7.983   6.040  0.2868 -0.0052 -0.2683
    1OPC    D2B70611   2.584   8.260   5.754  0.0370 -0.0603 -0.2073
    1OPC    C3B70612   2.357   8.487   5.314  0.0540 -0.0204 -0.0511
    1OPC    C4B70613   2.272   8.512   4.928  0.1510  0.3546  0.1238
    1OPC    NC370614   8.745  17.533   6.985 -0.1573  0.2131  0.1378
    1OPC    PO470615   8.408  17.506   6.931  0.0048  0.2921 -0.1206
    1OPC    GL170616   8.448  17.273   6.504  0.0683  0.2342  0.1770
    1OPC    GL270617   8.612  17.212   6.293  0.0493 -0.1961 -0.0053
    1OPC    C1B70618   8.606  17.044   5.746  0.0994  0.1171 -0.1341
    1OPC    D2B70619   8.679  17.074   5.291  0.3598 -0.0456  0.1074
    1OPC    C3B70620   8.728  17.041   4.888  0.3456 -0.1093 -0.2089
    1OPC    C4B70621   9.092  17.035   4.604  0.0178  0.2316 -0.2056
    1OPC    NC370622  23.942  14.234   6.805  0.0273  0.5122 -0.1571
    1OPC    PO470623  23.868  14.276   6.360  0.0960 -0.0356  0.2105
    1OPC    GL170624  23.914  14.396   5.950  0.0159 -0.0235  0.2920
    1OPC    GL270625  23.701  14.568   5.766 -0.1840  0.0949 -0.3147
    1OPC    C1B70626  23.289  14.583   5.603  0.1240  0.0747 -0.2571
    1OPC    D2B70627  23.025  14.781   5.252  0.2853 -0.2155  0.3626
    1OPC    C3B70628  22.971  15.014   5.053  0.0231  0.1730  0.1142
    1OPC    C4B70629  22.955  14.922   4.679 -0.2221 -0.0708  0.0104
    1OPC    NC370630  20.723  20.977   6.800 -0.2131 -0.2588 -0.0137
    1OPC    PO470631  20.925  21.234   6.725 -0.1476 -0.0269 -0.3053
    1OPC    GL170632  20.830  21.023   6.318 -0.1240  0.3179  0.0300
    1OPC    GL270633  20.999  20.989   6.017  0.1511  0.1005  0.3321
    1OPC    C1B70634  21.036  21.174   5.662  0.0649 -0.2179 -0.0549
    1OPC    D2B70635  20.834  21.407   5.273  0.1295 -0.0334 -0.1358
    1OPC    C3B70636  20.625  21.167   4.898  0.2981 -0.0119  0.0298
    1OPC    C4B70637  20.802  20.728   4.845 -0.1042  0.0419  0.3801
    1OPC    NC370638  29.640  22.508   6.729  0.0406 -0.0367 -0.0736
    1OPC    PO470639  29.534  22.833   6.406  0.0671  0.2621 -0.1407
    1OPC    GL170640  29.457  22.662   5.928  0.0879  0.1118  0.3503
    1OPC    GL270641  29.426  22.358   5.743 -0.0127 -0.0924 -0.1696
    1OPC    C1B70642  29.604  22.353   5.354 -0.2493  0.0498 -0.3367
    1OPC    D2B70643  29.824  22.212   5.098  0.1229 -0.2506  0.2588
    1OPC    C3B70644  29.585  22.142   4.729  0.0718 -0.0892  0.0048
    1OPC    C4B70645  29.170  22.058   4.553 -0.0733 -0.0788 -0.0621
    1OPC    NC370646  20.421   3.781   6.754 -0.1577 -0.5884  0.1166
    1OPC    PO470647  20.250   4.178   6.726  0.5366 -0.1315 -0.0340
    1OPC    GL170648  20.375   4.203   6.421 -0.2657  0.0101 -0.1428
    1OPC    GL270649  20.421   4.280   6.222  0.1764 -0.1315  0.3213
    1OPC    C1B70650  20.386   4.397   5.776 -0.1390 -0.0988 -0.3026
    1OPC    D2B70651  20.186   4.637   5.415 -0.2720  0.0322  0.1850
    1OPC    C3B70652  20.454   4.730   5.004  0.1406 -0.1399 -0.0452
    1OPC    C4B70653  20.603   5.044   4.678  0.0238  0.0285  0.0999
    1OPC    NC370654  18.258   0.988   6.711  0.0216 -0.0754 -0.0804
    1OPC    PO470655  18.390   0.513   6.551  0.1344  0.0112  0.0885
    1OPC    GL170656  18.165   0.360   6.237  0.0474 -0.1507  0.1130
    1OPC    GL270657  17.927   0.432   6.036 -0.1191 -0.0778  0.2296
    1OPC    C1B70658  18.045   0.733   5.735 -0.0540 -0.2710 -0.0071
    1OPC    D2B70659  18.328   0.968   5.515  0.2329 -0.1859 -0.3196
    1OPC    C3B70660  18.570   0.744   5.323 -0.1725 -0.1628 -0.1368
    1OPC    C4B70661  18.778   0.605   5.002 -0.0736  0.0291  0.3555
    1OPC    NC370662  29.376   3.487   6.964  0.0349  0.0057 -0.2318
    1OPC    PO470663  29.610   3.612   6.681 -0.2247  0.1302 -0.0333
    1OPC    GL170664  29.643   3.432   6.171 -0.2224  0.2298 -0.1850
    1OPC    GL270665  29.716   3.122   6.171 -0.0769 -0.2849  0.1795
    1OPC    C1B70666  30.025   3.093   5.905 -0.1335 -0.0439 -0.1713
    1OPC    D2B70667  30.116   3.410   5.549  0.0926  0.1325 -0.2759
    1OPC    C3B70668  29.857   3.441   5.198 -0.1658  0.4229  0.1801
    1OPC    C4B70669  29.446   3.313   5.155 -0.1407  0.0804 -0.0257
    1OPC    NC370670   2.319  27.144   6.816  0.0483  0.0538 -0.2151
    1OPC    PO470671   2.332  27.534   6.844  0.1308 -0.1646  0.0987
    1OPC    GL170672   2.318  27.510   6.310 -0.0661 -0.0402  0.1172
    1OPC    GL270673   2.264  27.686   6.014  0.0125 -0.1803 -0.3565
    1OPC    C1B70674   2.283  28.111   5.848  0.0712 -0.0256  0.0090
    1OPC    D2B70675   2.271  28.337   5.488  0.2260  0.1144  0.2004
    1OPC    C3B70676   2.197  28.493   5.164  0.0173 -0.3215  0.0492
    1OPC    C4B70677   2.097  28.904   4.964 -0.1480 -0.2086  0.2768
    1OPC    NC370678  26.659  18.100   6.282  0.0379 -0.2110  0.0642
    1OPC    PO470679  26.571  17.699   6.550  0.0951 -0.2178 -0.1977
    1OPC    GL170680  26.391  17.736   6.146 -0.0767 -0.0016  0.0637
    1OPC    GL270681  26.235  17.948   6.029  0.0501  0.2628  0.1139
    1OPC    C1B70682  26.209  18.175   5.673 -0.1821  0.2605 -0.0400
    1OPC    D2B70683  26.446  18.541   5.669  0.1959  0.0493 -0.1165
    1OPC    C3B70684  26.813  18.503   5.508 -0.0720  0.2642 -0.0200
    1OPC    C4B70685  27.046  18.235   5.466 -0.1545  0.0093 -0.0260
    1OPC    NC370686   2.298  11.627   6.977 -0.0034  0.0113 -0.0597
    1OPC    PO470687   1.996  11.582   6.569  0.2067 -0.2582  0.0496
    1OPC    GL170688   2.104  11.696   6.102 -0.2901 -0.3982  0.0707
    1OPC    GL270689   2.123  11.534   5.847  0.1359  0.1204  0.1331
    1OPC    C1B70690   2.342  11.544   5.510  0.0314 -0.0340 -0.0268
    1OPC    D2B70691   2.533  11.616   5.096 -0.2464  0.1874  0.0667
    1OPC    C3B70692   2.989  11.689   4.995 -0.1316 -0.2422  0.1806
    1OPC    C4B70693   3.447  11.485   4.982 -0.2834  0.1053  0.0804
    1OPC    NC370694  13.141   4.253   7.920  0.0200  0.0001 -0.0683
    1OPC    PO470695  13.058   4.549   7.571  0.0295  0.0370 -0.1831
    1OPC    GL170696  12.794   4.530   7.229 -0.0786  0.2185 -0.0283
    1OPC    GL270697  12.784   4.572   6.898 -0.0611  0.0007  0.4705
    1OPC    C1B70698  12.924   4.422   6.503  0.0173 -0.1129 -0.1866
    1OPC    D2B70699  13.069   4.143   6.173  0.2154  0.1986  0.1489
    1OPC    C3B70700  13.201   4.168   5.803  0.0385 -0.2141  0.1293
    1OPC    C4B70701  13.431   4.582   5.687 -0.0188 -0.0890  0.4557
    1OPC    NC370702   4.821   4.348   7.092 -0.0938  0.0726  0.3741
    1OPC    PO470703   4.592   4.313   6.668 -0.0151 -0.1451 -0.1268
    1OPC    GL170704   4.619   4.313   6.239  0.0206  0.0212 -0.0994
    1OPC    GL270705   4.526   4.078   5.947  0.0031  0.1897 -0.0053
    1OPC    C1B70706   4.702   3.923   5.660 -0.0745  0.0230 -0.2296
    1OPC    D2B70707   5.037   3.845   5.383 -0.0536 -0.1994 -0.0590
    1OPC    C3B70708   5.311   4.115   5.422  0.2376  0.3436  0.1123
    1OPC    C4B70709   5.222   4.534   5.244  0.1646 -0.1019 -0.1586
    1OPC    NC370710   0.085  17.449   6.718  0.1167 -0.0199  0.1226
    1OPC    PO470711  -0.325  17.610   6.569  0.1693  0.0583 -0.1966
    1OPC    GL170712  -0.068  17.646   6.129 -0.2152 -0.1990  0.0454
    1OPC    GL270713   0.161  17.776   5.973  0.0197  0.0719 -0.0367
    1OPC    C1B70714   0.330  18.055   5.681  0.4493  0.2210 -0.0923
    1OPC    D2B70715   0.406  18.145   5.238 -0.0622 -0.0460  0.0258
    1OPC    C3B70716   0.570  18.339   4.803  0.0856  0.0706  0.0937
    1OPC    C4B70717   0.781  18.449   4.410  0.1459 -0.3098 -0.0914
    1OPC    NC370718  22.607   2.638   7.264 -0.0155 -0.3218 -0.3001
    1OPC    PO470719  22.310   2.401   6.952 -0.0062  0.0622  0.0864
    1OPC    GL170720  22.428   2.254   6.483 -0.1830 -0.1021 -0.0255
    1OPC    GL270721  22.352   2.012   6.334  0.0039  0.2133 -0.4355
    1OPC    C1B70722  22.491   1.601   6.110 -0.0383 -0.0016  0.1231
    1OPC    D2B70723  22.520   1.316   5.746  0.1157 -0.2404 -0.0758
    1OPC    C3B70724  22.776   1.465   5.473  0.0979 -0.3043 -0.1171
    1OPC    C4B70725  23.184   1.392   5.498  0.2458 -0.0386 -0.1624
    1OPC    NC370726  29.194   5.512   6.979 -0.2725 -0.0917 -0.1104
    1OPC    PO470727  28.806   5.771   6.826 -0.1449 -0.0403 -0.2355
    1OPC    GL170728  28.858   5.499   6.555 -0.2612 -0.1042 -0.1420
    1OPC    GL270729  28.703   5.183   6.494  0.1645  0.0879 -0.0825
    1OPC    C1B70730  28.717   5.058   6.021  0.0058  0.1271 -0.5473
    1OPC    D2B70731  28.640   4.924   5.638  0.0429 -0.1719 -0.2024
    1OPC    C3B70732  28.453   5.211   5.430  0.0462 -0.0904  0.0903
    1OPC    C4B70733  28.105   5.336   5.116  0.3327  0.2675 -0.2868
    1OPC    NC370734   2.518   6.984   6.660  0.0130  0.1960 -0.0340
    1OPC    PO470735   2.941   6.920   6.571 -0.0973  0.2816  0.0413
    1OPC    GL170736   3.307   7.031   6.270  0.1620 -0.0348 -0.4692
    1OPC    GL270737   3.547   7.209   6.237 -0.0086 -0.1707 -0.0509
    1OPC    C1B70738   3.757   7.615   5.975 -0.0659  0.1332 -0.2644
    1OPC    D2B70739   3.763   7.776   5.485 -0.0613 -0.1388  0.1237
    1OPC    C3B70740   3.444   7.845   5.214  0.0998  0.0317 -0.0829
    1OPC    C4B70741   3.287   8.135   5.069  0.2178 -0.0095 -0.4005
    1OPC    NC370742  25.623  29.353   7.449 -0.1731  0.0737 -0.3080
    1OPC    PO470743  25.799  29.633   7.147 -0.0012  0.0845  0.2041
    1OPC    GL170744  25.822  29.440   6.701  0.2203  0.0545 -0.2142
    1OPC    GL270745  25.834  29.376   6.458  0.0559  0.1225  0.0608
    1OPC    C1B70746  25.761  29.582   6.150  0.1699  0.0293 -0.2976
    1OPC    D2B70747  25.962  29.318   5.821 -0.4119 -0.2504  0.0958
    1OPC    C3B70748  26.327  29.411   5.787  0.0515 -0.3150 -0.0202
    1OPC    C4B70749  26.755  29.345   5.809  0.1892  0.0242  0.3927
    1OPC    NC370750  28.172   0.561   6.286  0.1018  0.1524  0.2735
    1OPC    PO470751  27.762   0.731   6.523 -0.1000 -0.0127 -0.3570
    1OPC    GL170752  27.660   0.461   6.221 -0.3236 -0.2933  0.0594
    1OPC    GL270753  27.609   0.466   5.960 -0.1993 -0.1594 -0.1387
    1OPC    C1B70754  27.774   0.533   5.478 -0.0913 -0.2082  0.0674
    1OPC    D2B70755  27.746   0.773   5.091  0.1653  0.0878  0.0477
    1OPC    C3B70756  27.951   0.683   4.735 -0.1847 -0.1457 -0.1955
    1OPC    C4B70757  28.223   0.434   4.444  0.2135 -0.1213  0.1193
    1OPC    NC370758   7.275   7.737   7.106 -0.0358 -0.0004  0.0737
    1OPC    PO470759   6.986   7.474   7.263  0.1511 -0.1162 -0.2533
    1OPC    GL170760   6.744   7.112   7.037 -0.0173  0.0136 -0.0161
    1OPC    GL270761   6.942   6.950   6.795  0.0743 -0.3065  0.2442
    1OPC    C1B70762   7.185   6.827   6.405 -0.0087 -0.2171 -0.0035
    1OPC    D2B70763   7.150   6.877   5.976  0.3265 -0.1168  0.0234
    1OPC    C3B70764   6.918   6.543   5.668  0.1153 -0.1535  0.0398
    1OPC    C4B70765   6.618   6.119   5.573  0.0979 -0.1018  0.2222
    1OPC    NC370766  28.664  10.976   6.313 -0.3746  0.1922  0.0580
    1OPC    PO470767  28.513  11.313   6.089  0.1125  0.3290  0.5144
    1OPC    GL170768  28.226  11.137   5.770 -0.0126  0.1143 -0.0132
    1OPC    GL270769  28.125  11.034   5.409  0.3330 -0.0299 -0.1698
    1OPC    C1B70770  27.854  10.939   5.041 -0.0779 -0.0472 -0.2124
    1OPC    D2B70771  27.814  10.881   4.568 -0.2730  0.3169  0.0392
    1OPC    C3B70772  27.413  10.660   4.517 -0.1108  0.1426 -0.1744
    1OPC    C4B70773  26.982  10.818   4.348 -0.0302  0.1778 -0.0493
    1OPC    NC370774  21.403   7.573   6.962  0.3674  0.3153 -0.2986
    1OPC    PO470775  21.174   7.416   6.799  0.0603 -0.3552  0.2426
    1OPC    GL170776  21.587   7.289   6.583  0.2620 -0.2154  0.1887
    1OPC    GL270777  21.761   7.172   6.296 -0.0879  0.0109 -0.1449
    1OPC    C1B70778  21.975   7.190   5.877  0.0186 -0.0645  0.2741
    1OPC    D2B70779  22.330   7.280   5.654  0.2021 -0.0058  0.1272
    1OPC    C3B70780  22.458   7.606   5.368 -0.0810  0.0818 -0.3854
    1OPC    C4B70781  22.616   8.007   5.198  0.0801  0.0308 -0.0114
    1OPC    NC370782  18.111   1.637   7.044 -0.0411  0.0448 -0.2344
    1OPC    PO470783  18.450   1.904   7.004 -0.0639  0.0953 -0.0830
    1OPC    GL170784  18.586   1.885   6.715 -0.0366 -0.1088 -0.0088
    1OPC    GL270785  18.520   1.693   6.405 -0.1277 -0.1752 -0.0354
    1OPC    C1B70786  18.443   1.407   6.148 -0.1216 -0.1529 -0.3831
    1OPC    D2B70787  18.479   1.407   5.714 -0.2428  0.0397  0.1306
    1OPC    C3B70788  18.179   1.728   5.477  0.0046 -0.2277 -0.0303
    1OPC    C4B70789  17.853   2.141   5.446  0.1825 -0.0714 -0.2087
    1OPC    NC370790  25.218   9.861   6.981  0.0293  0.2117  0.2260
    1OPC    PO470791  25.340  10.205   6.782 -0.4247  0.0444 -0.1314
    1OPC    GL170792  25.506  10.305   6.397 -0.4924 -0.1537  0.2346
    1OPC    GL270793  25.586  10.319   5.985  0.0276 -0.2404 -0.1703
    1OPC    C1B70794  25.445  10.535   5.644 -0.0196 -0.1831 -0.0294
    1OPC    D2B70795  25.113  10.547   5.385  0.0382 -0.0451 -0.0818
    1OPC    C3B70796  25.098  10.377   4.976  0.1319  0.1024  0.0526
    1OPC    C4B70797  25.333  10.149   4.739 -0.3288  0.1419  0.1301
    1OPC    NC370798   0.476  19.131   7.008 -0.3276 -0.3115 -0.0514
    1OPC    PO470799   0.748  18.690   6.686  0.2368  0.0865  0.1608
    1OPC    GL170800   0.719  18.651   6.272  0.0074  0.0199 -0.4519
    1OPC    GL270801   0.765  18.570   5.886  0.0721 -0.2642  0.2004
    1OPC    C1B70802   0.758  18.367   5.568  0.1380 -0.0409 -0.3371
    1OPC    D2B70803   0.802  18.561   5.178 -0.1008 -0.0211 -0.0086
    1OPC    C3B70804   0.781  18.850   4.893  0.3664 -0.2712  0.3891
    1OPC    C4B70805   0.968  19.155   4.530  0.1092 -0.3147 -0.1318
    1OPC    NC370806  25.817  13.377   5.984  0.1850  0.0047  0.1112
    1OPC    PO470807  25.493  13.539   5.977 -0.2674  0.0632  0.0657
    1OPC    GL170808  25.501  13.493   5.530  0.1018  0.2566 -0.2614
    1OPC    GL270809  25.268  13.261   5.396  0.2360  0.3638 -0.0193
    1OPC    C1B70810  24.939  13.222   5.162  0.0832 -0.0900 -0.0847
    1OPC    D2B70811  24.823  13.266   4.756 -0.2068  0.3391 -0.1600
    1OPC    C3B70812  24.315  13.193   4.620  0.0913  0.0094 -0.1635
    1OPC    C4B70813  23.946  13.195   4.355 -0.0203  0.0386 -0.0280
    1OPC    NC370814   0.803  14.584   6.153 -0.0644 -0.3440 -0.2232
    1OPC    PO470815   0.833  14.688   5.749  0.0501 -0.1117  0.0849
    1OPC    GL170816   0.704  14.975   5.558  0.0638 -0.0605  0.1466
    1OPC    GL270817   0.656  15.268   5.489 -0.0766  0.1581  0.0605
    1OPC    C1B70818   0.448  15.590   5.061  0.0867 -0.5156  0.4338
    1OPC    D2B70819   0.472  15.640   4.578 -0.1312 -0.2185  0.0215
    1OPC    C3B70820   0.346  15.990   4.372  0.1628 -0.2825 -0.1305
    1OPC    C4B70821   0.306  16.265   4.059 -0.1309 -0.1232  0.0292
    1OPC    NC370822  21.571   1.327   7.117  0.1777  0.1298  0.1049
    1OPC    PO470823  21.828   1.581   6.917  0.1562 -0.2253  0.0904
    1OPC    GL170824  22.025   1.492   6.459 -0.1058  0.0213  0.2023
    1OPC    GL270825  22.022   1.619   6.184  0.0852 -0.4521 -0.2436
    1OPC    C1B70826  22.120   1.639   5.736 -0.0563  0.4361 -0.0476
    1OPC    D2B70827  22.221   1.646   5.254 -0.1204 -0.1888 -0.1324
    1OPC    C3B70828  22.643   1.876   5.271  0.0330 -0.1862  0.0548
    1OPC    C4B70829  22.918   2.162   5.471 -0.2823  0.2728 -0.2770
    1OPC    NC370830  23.683  25.229   6.848  0.2026 -0.1995  0.2474
    1OPC    PO470831  23.336  25.143   6.569  0.0512  0.1298  0.1421
    1OPC    GL170832  23.173  25.280   6.211  0.4059  0.0139 -0.1051
    1OPC    GL270833  23.039  25.581   5.967  0.3375 -0.1882  0.0456
    1OPC    C1B70834  23.090  25.661   5.533  0.0161 -0.0629 -0.0927
    1OPC    D2B70835  23.224  25.546   5.189 -0.0127  0.3632 -0.1017
    1OPC    C3B70836  23.290  25.130   5.120 -0.2470  0.0122  0.0636
    1OPC    C4B70837  23.177  24.710   5.037 -0.0355  0.0015 -0.2384
    1OPC    NC370838  25.858  16.991   6.918  0.3393 -0.1333  0.0723
    1OPC    PO470839  26.074  17.023   6.536 -0.0632  0.0270  0.1805
    1OPC    GL170840  26.065  17.301   6.193  0.4080 -0.4786  0.0780
    1OPC    GL270841  25.835  17.572   6.045 -0.2947 -0.0270 -0.2072
    1OPC    C1B70842  25.874  17.778   5.622  0.0700 -0.0055 -0.1058
    1OPC    D2B70843  26.147  17.920   5.283 -0.0873  0.1836  0.2227
    1OPC    C3B70844  26.297  18.344   5.234 -0.1014 -0.2258  0.2058
    1OPC    C4B70845  26.170  18.622   4.842  0.1428  0.0069  0.3087
    1OPC    NC370846   2.123  19.576   6.424  0.1731  0.0561 -0.0716
    1OPC    PO470847   2.204  19.152   6.386 -0.0811 -0.0862  0.0485
    1OPC    GL170848   2.358  19.256   5.962 -0.2182 -0.0445 -0.2362
    1OPC    GL270849   2.190  19.315   5.577 -0.0761  0.1298  0.2860
    1OPC    C1B70850   2.181  19.172   5.129  0.0446  0.1871  0.1531
    1OPC    D2B70851   2.319  19.236   4.659  0.3833  0.0525  0.1238
    1OPC    C3B70852   1.983  19.326   4.405 -0.0137  0.0994 -0.0172
    1OPC    C4B70853   1.758  19.303   4.062  0.0252  0.1336  0.2297
    1OPC    NC370854  17.923   2.988   6.677  0.1893  0.4187 -0.1761
    1OPC    PO470855  18.245   2.749   6.964  0.1937 -0.2877  0.2022
    1OPC    GL170856  18.525   2.478   6.715 -0.1520 -0.3490  0.0283
    1OPC    GL270857  18.570   2.340   6.491 -0.1887  0.1074  0.0328
    1OPC    C1B70858  18.484   2.064   6.122  0.2707 -0.1081 -0.0820
    1OPC    D2B70859  18.564   1.976   5.713  0.0205 -0.2518  0.0628
    1OPC    C3B70860  18.857   2.007   5.448 -0.1493 -0.3978 -0.0785
    1OPC    C4B70861  19.213   2.035   5.279  0.0746 -0.1782 -0.0877
    1OPC    NC370862   3.463  27.987   6.599 -0.1637  0.1073  0.1464
    1OPC    PO470863   3.563  28.297   6.381 -0.1289  0.1239  0.0469
    1OPC    GL170864   3.823  28.001   6.099  0.0073  0.1401  0.1452
    1OPC    GL270865   3.774  27.932   5.736  0.0435 -0.0360 -0.3836
    1OPC    C1B70866   3.469  27.624   5.510  0.2058  0.0029 -0.0559
    1OPC    D2B70867   3.484  27.482   5.020 -0.0355  0.2103 -0.1673
    1OPC    C3B70868   3.857  27.478   4.678 -0.1249 -0.1336 -0.0908
    1OPC    C4B70869   3.988  27.743   4.343 -0.3405 -0.0650  0.2914
    1OPC    NC370870   4.543  20.630   6.703 -0.0598 -0.2423 -0.0330
    1OPC    PO470871   4.593  20.512   6.309 -0.1394  0.0165  0.2477
    1OPC    GL170872   4.498  20.546   5.892 -0.1184 -0.1164 -0.2537
    1OPC    GL270873   4.611  20.483   5.578  0.2280  0.2153 -0.2138
    1OPC    C1B70874   4.742  20.584   5.208  0.2515 -0.2130 -0.0080
    1OPC    D2B70875   4.848  20.443   4.840  0.1678  0.0358 -0.0022
    1OPC    C3B70876   4.704  20.048   4.914 -0.0618 -0.1934  0.0183
    1OPC    C4B70877   4.834  19.631   4.897 -0.0679  0.0380  0.0535
    1OPC    NC370878  24.216   2.883   7.166  0.3200 -0.1962  0.0778
    1OPC    PO470879  24.352   3.210   6.941 -0.1214  0.1170 -0.0878
    1OPC    GL170880  24.190   3.030   6.538 -0.0270 -0.2505  0.0461
    1OPC    GL270881  24.345   2.841   6.267 -0.1152  0.2403  0.2125
    1OPC    C1B70882  24.181   2.497   5.897  0.1364 -0.0615  0.0202
    1OPC    D2B70883  23.935   2.142   5.656  0.3736  0.0867  0.0632
    1OPC    C3B70884  23.812   2.133   5.302  0.0583 -0.2554 -0.1452
    1OPC    C4B70885  23.428   2.202   5.159  0.0228  0.2371  0.1335
    1OPC    NC370886  12.321  26.257   6.991 -0.0252 -0.0714 -0.0132
    1OPC    PO470887  12.212  26.265   6.525  0.2881  0.1269  0.1527
    1OPC    GL170888  12.224  26.305   6.116  0.1368  0.0471  0.1731
    1OPC    GL270889  12.286  26.540   5.970 -0.5361  0.2793 -0.1107
    1OPC    C1B70890  12.255  27.021   5.784  0.1010  0.1712 -0.1952
    1OPC    D2B70891  12.187  27.375   5.611  0.2123 -0.1415  0.2275
    1OPC    C3B70892  12.140  27.632   5.195  0.1214 -0.1546  0.0107
    1OPC    C4B70893  12.038  27.930   4.829 -0.0144  0.2357  0.0345
    1OPC    NC370894  27.960   7.345   6.643 -0.5454  0.2634 -0.0451
    1OPC    PO470895  28.243   7.132   7.019 -0.0529 -0.2737 -0.1043
    1OPC    GL170896  28.349   7.026   6.606  0.1797  0.1272 -0.1706
    1OPC    GL270897  28.174   6.994   6.323 -0.0623 -0.1879 -0.0902
    1OPC    C1B70898  28.178   7.141   5.885 -0.2924  0.0516  0.1138
    1OPC    D2B70899  28.169   6.935   5.428 -0.1489 -0.0345 -0.0342
    1OPC    C3B70900  28.046   6.682   5.097  0.0583  0.2725 -0.1506
    1OPC    C4B70901  27.565   6.569   5.018  0.3261 -0.0048  0.0749
    1OPC    NC370902   3.072   8.553   6.903  0.0783 -0.0084 -0.1057
    1OPC    PO470903   2.780   8.289   6.696 -0.0864  0.4280 -0.1563
    1OPC    GL170904   2.706   8.503   6.379 -0.3042 -0.0950 -0.1805
    1OPC    GL270905   2.531   8.634   6.107 -0.1484  0.0745  0.2378
    1OPC    C1B70906   2.792   8.998   5.913  0.1978 -0.0469  0.0276
    1OPC    D2B70907   2.895   9.176   5.567 -0.0583 -0.2048 -0.0525
    1OPC    C3B70908   2.676   9.206   5.218 -0.0680  0.0174  0.1147
    1OPC    C4B70909   2.913   9.172   4.868  0.0120 -0.0433  0.4800
    1OPC    NC370910  10.486   2.430   8.037 -0.1688 -0.0644  0.0364
    1OPC    PO470911  10.187   2.685   7.908  0.0960  0.3206 -0.1037
    1OPC    GL170912  10.321   2.982   7.496  0.4117  0.2159 -0.1979
    1OPC    GL270913  10.356   2.877   7.156 -0.1613  0.0377  0.0105
    1OPC    C1B70914  10.201   2.856   6.715  0.0186 -0.1117  0.2136
    1OPC    D2B70915  10.117   2.725   6.257  0.1604  0.1269 -0.3803
    1OPC    C3B70916  10.394   2.873   6.047  0.1854  0.1491 -0.1752
    1OPC    C4B70917  10.518   3.009   5.738 -0.0047 -0.2058 -0.3451
    1OPC    NC370918   3.790  16.161   6.249 -0.0734 -0.0727  0.1842
    1OPC    PO470919   3.536  15.883   6.041 -0.0208 -0.1142  0.1215
    1OPC    GL170920   3.535  15.449   5.888 -0.0016  0.0363  0.1075
    1OPC    GL270921   3.405  15.438   5.579  0.0717 -0.2389  0.1115
    1OPC    C1B70922   3.318  15.549   5.167 -0.2409  0.0443  0.1576
    1OPC    D2B70923   3.295  15.818   4.924 -0.0562  0.0357 -0.0924
    1OPC    C3B70924   3.361  16.054   4.441 -0.0761 -0.1942  0.5116
    1OPC    C4B70925   3.061  16.386   4.362 -0.0201 -0.2951 -0.0821
    1OPC    NC370926  13.786  22.008   6.900  0.1989  0.4432 -0.1877
    1OPC    PO470927  13.499  22.041   6.691  0.2173  0.1080 -0.0105
    1OPC    GL170928  13.435  21.638   6.411  0.0728 -0.0486  0.1549
    1OPC    GL270929  13.538  21.369   6.076  0.0268 -0.3380 -0.1163
    1OPC    C1B70930  13.635  21.387   5.601 -0.0604 -0.0569  0.1896
    1OPC    D2B70931  13.696  21.808   5.241 -0.0846 -0.1294 -0.1840
    1OPC    C3B70932  13.691  21.813   4.800 -0.2094  0.0483  0.0192
    1OPC    C4B70933  13.799  21.604   4.387  0.0728 -0.0255 -0.0823
    1OPC    NC370934   2.403   0.247   7.014 -0.4168  0.0922  0.1312
    1OPC    PO470935   2.139   0.389   6.750  0.0666 -0.0681  0.1448
    1OPC    GL170936   2.126   0.527   6.260 -0.0200  0.0644  0.1452
    1OPC    GL270937   2.408   0.752   6.052 -0.2965 -0.2197  0.0400
    1OPC    C1B70938   2.706   1.087   5.602  0.2167  0.3913 -0.2223
    1OPC    D2B70939   3.085   1.180   5.391  0.0305 -0.5387 -0.2394
    1OPC    C3B70940   3.011   1.414   5.019 -0.1000 -0.0093 -0.2968
    1OPC    C4B70941   2.979   1.761   4.703 -0.4030 -0.0292  0.1952
    1OPC    NC370942  16.899   6.187   6.634  0.0020 -0.0997 -0.0176
    1OPC    PO470943  17.017   5.832   6.624  0.0052 -0.5287 -0.2653
    1OPC    GL170944  16.791   5.796   6.216 -0.2148  0.1522 -0.0591
    1OPC    GL270945  16.643   5.718   5.960 -0.0354  0.3050 -0.2691
    1OPC    C1B70946  16.661   5.724   5.492 -0.1751 -0.2369 -0.2790
    1OPC    D2B70947  16.725   5.709   5.022  0.1837  0.0753  0.1090
    1OPC    C3B70948  16.569   5.948   4.762  0.2569 -0.0578 -0.1518
    1OPC    C4B70949  16.247   5.978   4.388 -0.2270 -0.0483  0.2666
    1OPC    NC370950  24.600  23.857   6.650  0.2714 -0.4224 -0.1039
    1OPC    PO470951  24.687  23.418   6.434 -0.0224  0.1755  0.0023
    1OPC    GL170952  24.491  23.390   6.048 -0.1622  0.1705 -0.0220
    1OPC    GL270953  24.314  23.391   5.817  0.5025 -0.0762 -0.0535
    1OPC    C1B70954  24.139  23.321   5.347 -0.0299 -0.3074  0.0997
    1OPC    D2B70955  24.121  23.125   4.934 -0.0464  0.0715  0.0971
    1OPC    C3B70956  24.403  22.828   4.821 -0.0246 -0.1392  0.0039
    1OPC    C4B70957  24.483  22.417   4.779  0.1607 -0.0829 -0.0345
    1OPC    NC370958   6.314  15.287   5.750 -0.1172 -0.2600 -0.1702
    1OPC    PO470959   5.980  15.510   5.739 -0.0720 -0.1054  0.2268
    1OPC    GL170960   5.874  15.095   5.666 -0.1409 -0.2361  0.0752
    1OPC    GL270961   6.000  14.793   5.365 -0.0542 -0.2495 -0.0907
    1OPC    C1B70962   6.048  14.422   5.184  0.1215 -0.0640 -0.1065
    1OPC    D2B70963   6.136  13.964   5.015  0.0707 -0.1639  0.0259
    1OPC    C3B70964   6.075  14.068   4.552 -0.1025  0.1728 -0.1726
    1OPC    C4B70965   5.769  14.199   4.259  0.1738  0.3962 -0.1577
    1OPC    NC370966   5.671   9.988   7.122  0.3722  0.0724  0.1287
    1OPC    PO470967   5.791  10.347   6.915  0.0038 -0.0173 -0.0701
    1OPC    GL170968   6.000  10.273   6.503 -0.1335  0.0332 -0.0356
    1OPC    GL270969   6.101  10.201   6.247 -0.1656 -0.2995 -0.0665
    1OPC    C1B70970   6.187  10.390   5.858  0.0197 -0.1023 -0.0007
    1OPC    D2B70971   6.265  10.629   5.490  0.1572 -0.1492 -0.0598
    1OPC    C3B70972   6.091  10.796   5.212  0.0435 -0.0488 -0.1550
    1OPC    C4B70973   6.099  10.995   4.903 -0.1140  0.1219 -0.0588
    1OPC    NC370974  13.083   5.002   7.431 -0.0604 -0.2610  0.0877
    1OPC    PO470975  13.455   4.790   7.331  0.0454 -0.0356  0.4985
    1OPC    GL170976  13.264   4.674   7.037  0.1076  0.2138 -0.2063
    1OPC    GL270977  13.400   4.713   6.739 -0.4116 -0.1215 -0.1471
    1OPC    C1B70978  13.387   4.576   6.365  0.0843  0.0339  0.0123
    1OPC    D2B70979  13.128   4.667   6.058 -0.1733 -0.2433  0.1721
    1OPC    C3B70980  12.739   4.819   6.097  0.0164 -0.1354  0.0774
    1OPC    C4B70981  12.407   4.719   6.044 -0.0600  0.0464  0.0477
    1OPC    NC370982   7.475  25.992   6.913 -0.0592 -0.0217  0.0066
    1OPC    PO470983   7.409  26.208   6.553 -0.1022  0.0392 -0.1086
    1OPC    GL170984   7.483  26.398   6.141 -0.1145 -0.0439  0.0544
    1OPC    GL270985   7.320  26.600   5.865  0.2642 -0.2153  0.2728
    1OPC    C1B70986   7.298  26.589   5.447  0.2584 -0.0247 -0.1131
    1OPC    D2B70987   7.266  26.366   5.169  0.1269 -0.5003 -0.2616
    1OPC    C3B70988   7.366  26.301   4.693  0.1081  0.4310 -0.2394
    1OPC    C4B70989   7.589  26.512   4.497  0.1629  0.1923 -0.0457
    1OPC    NC370990  20.921   1.625   6.576 -0.1616 -0.1603 -0.1021
    1OPC    PO470991  20.554   1.419   6.468  0.4708 -0.0973 -0.0101
    1OPC    GL170992  20.619   0.955   6.386  0.2630 -0.1596 -0.2720
    1OPC    GL270993  20.702   0.743   6.239  0.0860  0.2199  0.0491
    1OPC    C1B70994  20.618   0.565   5.871 -0.1950  0.0126  0.2076
    1OPC    D2B70995  20.842   0.427   5.386 -0.0963 -0.1103 -0.4729
    1OPC    C3B70996  20.577   0.261   5.135 -0.0533  0.0595 -0.1635
    1OPC    C4B70997  20.444   0.344   4.756 -0.1452  0.1639  0.2528
    1OPC    NC370998   2.333  28.785   6.670 -0.1345  0.2203  0.2079
    1OPC    PO470999   2.567  28.497   6.513 -0.0219  0.0020 -0.0244
    1OPC    GL171000   2.240  28.674   6.209 -0.0243  0.2411  0.0368
    1OPC    GL271001   2.250  28.770   5.923  0.0710 -0.1982  0.1153
    1OPC    C1B71002   2.112  28.882   5.483  0.1905  0.1699 -0.1062
    1OPC    D2B71003   1.729  29.083   5.254  0.1889  0.1193  0.1905
    1OPC    C3B71004   1.488  29.486   5.271 -0.2416 -0.4076  0.0244
    1OPC    C4B71005   1.288  29.926   5.464 -0.0246 -0.0745  0.1159
    1OPC    NC371006   3.926  13.522   6.758 -0.1217  0.1858 -0.0338
    1OPC    PO471007   4.082  13.901   6.584 -0.0937  0.1132  0.0298
    1OPC    GL171008   4.314  13.668   6.391 -0.3476  0.2079 -0.0990
    1OPC    GL271009   4.290  13.737   6.006  0.1755  0.1731  0.0935
    1OPC    C1B71010   4.373  13.818   5.633 -0.2356  0.0241  0.1801
    1OPC    D2B71011   4.426  13.628   5.302 -0.2083 -0.0304  0.4307
    1OPC    C3B71012   4.194  13.769   5.024 -0.0572  0.1137 -0.1135
    1OPC    C4B71013   4.062  13.993   4.666 -0.1228 -0.2822 -0.2259
    1OPC    NC371014  15.192   6.234   7.203 -0.1457  0.4125  0.1986
    1OPC    PO471015  15.077   5.965   6.896 -0.1748  0.0083 -0.1402
    1OPC    GL171016  15.388   6.049   6.565 -0.2247  0.0033  0.0930
    1OPC    GL271017  15.429   6.351   6.281  0.0984  0.0133  0.0638
    1OPC    C1B71018  15.498   6.633   5.882 -0.2161  0.3622 -0.4078
    1OPC    D2B71019  15.536   6.831   5.499 -0.4154 -0.0565  0.0993
    1OPC    C3B71020  15.726   7.233   5.512  0.3041 -0.0154 -0.0579
    1OPC    C4B71021  16.097   7.323   5.587 -0.2822 -0.0795  0.3388
    1OPC    NC371022   0.248  26.756   7.044 -0.0833 -0.1456  0.1733
    1OPC    PO471023   0.230  26.994   6.764 -0.1753 -0.1086 -0.0042
    1OPC    GL171024   0.457  27.124   6.404  0.1116  0.1111  0.1777
    1OPC    GL271025   0.488  27.333   5.998 -0.3075  0.0016 -0.0199
    1OPC    C1B71026   0.576  27.493   5.654 -0.2104  0.3626  0.4077
    1OPC    D2B71027   0.706  27.718   5.349  0.0670  0.1143 -0.2333
    1OPC    C3B71028   0.496  28.124   5.088 -0.3674 -0.2358 -0.1992
    1OPC    C4B71029   0.547  28.491   4.787  0.0112 -0.0102  0.1505
    1OPC    NC371030   6.135  20.470   5.823  0.1012 -0.0521 -0.0678
    1OPC    PO471031   5.951  20.073   5.724  0.4001  0.1461  0.1164
    1OPC    GL171032   5.917  20.162   5.382  0.2439  0.1168 -0.1898
    1OPC    GL271033   5.711  20.222   5.286 -0.1936 -0.2314 -0.1953
    1OPC    C1B71034   5.669  20.254   4.782 -0.2782 -0.0122  0.1917
    1OPC    D2B71035   5.328  20.448   4.661  0.1239 -0.0996  0.2798
    1OPC    C3B71036   5.197  20.672   4.353 -0.0291  0.3079  0.3948
    1OPC    C4B71037   5.179  21.104   4.238  0.1881 -0.2982 -0.4292
    1OPC    NC371038   5.129   8.853   7.352 -0.3362 -0.1738  0.2374
    1OPC    PO471039   4.801   8.933   6.987  0.1406  0.0566  0.0837
    1OPC    GL171040   5.005   8.785   6.719  0.2807 -0.0259  0.2318
    1OPC    GL271041   5.023   8.747   6.386 -0.1536 -0.1154 -0.0636
    1OPC    C1B71042   4.759   8.484   6.080 -0.1278  0.0988  0.0830
    1OPC    D2B71043   4.358   8.439   5.821 -0.1414  0.1677  0.1146
    1OPC    C3B71044   4.301   8.280   5.486 -0.1066  0.0614 -0.0153
    1OPC    C4B71045   4.190   7.905   5.216 -0.1337 -0.1760 -0.3839
    1OPC    NC371046  20.806  27.877   7.231 -0.0876 -0.1580 -0.0508
    1OPC    PO471047  20.747  27.521   6.966 -0.1332 -0.1467 -0.2349
    1OPC    GL171048  20.498  27.275   6.742  0.0546 -0.0118 -0.0809
    1OPC    GL271049  20.378  27.228   6.469 -0.0957  0.1171  0.1175
    1OPC    C1B71050  20.289  26.754   6.124  0.0345 -0.1483  0.0819
    1OPC    D2B71051  20.222  26.864   5.723 -0.2967  0.0197 -0.0309
    1OPC    C3B71052  20.172  26.555   5.421  0.0261 -0.1257  0.0666
    1OPC    C4B71053  19.856  26.217   5.409  0.2453  0.2065 -0.0006
    1OPC    NC371054   6.683  27.040   7.018 -0.0448 -0.1066  0.0546
    1OPC    PO471055   6.649  26.671   6.782 -0.0121 -0.0924  0.1378
    1OPC    GL171056   6.564  26.619   6.258 -0.2143  0.3181 -0.2338
    1OPC    GL271057   6.631  26.679   5.933 -0.1198  0.3158 -0.0388
    1OPC    C1B71058   6.443  27.049   5.637 -0.2283 -0.1852 -0.1382
    1OPC    D2B71059   6.554  27.039   5.171 -0.2310 -0.0641  0.1451
    1OPC    C3B71060   6.269  26.790   4.916  0.0429  0.3177 -0.1909
    1OPC    C4B71061   5.941  26.665   4.735 -0.1172  0.0332  0.3880
    1OPC    NC371062  16.339  25.460   7.120  0.0066 -0.3992  0.0613
    1OPC    PO471063  15.998  25.815   7.201 -0.0467 -0.2037  0.3592
    1OPC    GL171064  16.140  26.002   6.746  0.1780  0.0519  0.1987
    1OPC    GL271065  16.277  26.026   6.454  0.0258 -0.1139  0.1540
    1OPC    C1B71066  16.588  26.210   6.082 -0.1085  0.0586 -0.0257
    1OPC    D2B71067  16.672  26.346   5.737  0.2085 -0.1104 -0.3154
    1OPC    C3B71068  16.339  26.546   5.391 -0.1563  0.0015 -0.1780
    1OPC    C4B71069  15.998  26.542   5.009 -0.2222  0.0970 -0.1740
    1OPC    NC371070  26.884   0.114   7.120  0.0727 -0.0843 -0.1060
    1OPC    PO471071  27.201  -0.024   6.850 -0.2393 -0.2488 -0.0630
    1OPC    GL171072  27.348   0.148   6.450 -0.1792  0.3834 -0.0188
    1OPC    GL271073  27.186   0.277   6.107 -0.0181 -0.1949  0.1167
    1OPC    C1B71074  27.416   0.232   5.577  0.2506  0.1268 -0.0989
    1OPC    D2B71075  27.367   0.372   5.113  0.0867  0.0758 -0.0535
    1OPC    C3B71076  27.310   0.061   4.750 -0.1927  0.0393  0.0326
    1OPC    C4B71077  27.319  -0.049   4.284 -0.1166 -0.2974 -0.0065
    1OPC    NC371078  17.092  27.009   7.030 -0.1740  0.1014  0.3063
    1OPC    PO471079  17.424  26.916   6.915 -0.0621 -0.0937 -0.4270
    1OPC    GL171080  17.373  27.033   6.569 -0.2058  0.1163 -0.5186
    1OPC    GL271081  17.446  27.263   6.295  0.0095  0.0900 -0.3346
    1OPC    C1B71082  17.557  27.478   5.814  0.1094  0.2157 -0.0278
    1OPC    D2B71083  17.673  27.477   5.402  0.3224  0.1633 -0.0135
    1OPC    C3B71084  17.816  27.590   5.002 -0.3585 -0.0581 -0.3223
    1OPC    C4B71085  17.992  27.995   4.974 -0.0805 -0.0496 -0.0224
    1OPC    NC371086  22.860  26.017   7.406  0.2250 -0.0323  0.2400
    1OPC    PO471087  22.565  26.147   7.024  0.1731 -0.2937  0.0463
    1OPC    GL171088  22.549  26.322   6.655  0.0955 -0.0414  0.0935
    1OPC    GL271089  22.607  26.368   6.304  0.0292  0.1920 -0.1328
    1OPC    C1B71090  22.515  26.500   5.928 -0.3639  0.0224 -0.0764
    1OPC    D2B71091  22.411  26.674   5.449  0.1367  0.3113 -0.0570
    1OPC    C3B71092  22.532  26.422   5.018 -0.0461  0.1064  0.3349
    1OPC    C4B71093  22.638  26.059   4.795 -0.2953 -0.2354  0.3024
    1OPC    NC371094   4.679  22.136   6.206  0.1966 -0.0670 -0.2375
    1OPC    PO471095   4.582  22.497   6.135 -0.2853 -0.1397  0.0719
    1OPC    GL171096   4.670  22.430   5.763  0.1034  0.0868  0.1699
    1OPC    GL271097   4.811  22.350   5.547  0.0546  0.1179  0.0684
    1OPC    C1B71098   4.780  22.409   5.042 -0.0167  0.2062 -0.0292
    1OPC    D2B71099   4.632  22.388   4.656 -0.1540  0.2659  0.1731
    1OPC    C3B71100   4.889  22.322   4.305 -0.2178  0.1044  0.2860
    1OPC    C4B71101   5.031  22.042   4.005  0.1954  0.0417 -0.1099
    1OPC    NC371102  19.284  26.064   7.396  0.0480 -0.1172 -0.0845
    1OPC    PO471103  18.991  25.846   7.207 -0.0336 -0.0708  0.1339
    1OPC    GL171104  18.871  25.856   6.785 -0.1085  0.3870 -0.3813
    1OPC    GL271105  18.720  25.836   6.559  0.1322 -0.3408 -0.1125
    1OPC    C1B71106  18.875  25.792   6.141 -0.0846 -0.1001  0.0633
    1OPC    D2B71107  18.982  25.864   5.689 -0.0272  0.1757  0.1499
    1OPC    C3B71108  18.918  25.511   5.428  0.1730 -0.2623 -0.1435
    1OPC    C4B71109  19.131  25.157   5.219  0.0803 -0.0060  0.1670
    1OPC    NC371110   4.265  12.119   7.009 -0.0833  0.2271  0.0914
    1OPC    PO471111   4.369  11.835   6.660 -0.0812 -0.0415  0.2218
    1OPC    GL171112   3.928  11.673   6.543  0.3081 -0.1345 -0.0728
    1OPC    GL271113   3.781  11.719   6.205  0.0977 -0.2498  0.4392
    1OPC    C1B71114   3.785  11.496   5.792  0.0645 -0.0637  0.1618
    1OPC    D2B71115   3.633  11.286   5.380  0.0724 -0.1108  0.0803
    1OPC    C3B71116   3.782  10.981   5.209 -0.0485 -0.2720  0.5075
    1OPC    C4B71117   4.119  10.868   5.042 -0.0204  0.2566 -0.1904
    1OPC    NC371118  25.690   0.205   7.236 -0.2445  0.1365  0.1003
    1OPC    PO471119  25.587   0.612   7.055  0.1208 -0.3969 -0.3570
    1OPC    GL171120  25.473   0.337   6.708 -0.0087 -0.2090  0.0164
    1OPC    GL271121  25.642   0.101   6.422 -0.0898 -0.0072  0.3861
    1OPC    C1B71122  25.622   0.102   5.930 -0.0895  0.0621 -0.2281
    1OPC    D2B71123  25.455   0.278   5.698 -0.0422 -0.0451 -0.0500
    1OPC    C3B71124  25.567   0.023   5.301 -0.2448  0.2790 -0.1045
    1OPC    C4B71125  25.512  -0.416   5.228  0.1387 -0.0355 -0.3918
    1OPC    NC371126  24.316  15.469   6.844  0.2693  0.0613 -0.0382
    1OPC    PO471127  23.909  15.641   6.573 -0.0576 -0.1073 -0.0534
    1OPC    GL171128  23.876  15.573   6.148 -0.1455  0.2881  0.0186
    1OPC    GL271129  23.718  15.568   5.884 -0.1662  0.1559 -0.1286
    1OPC    C1B71130  23.641  15.794   5.438 -0.3275  0.2151 -0.0138
    1OPC    D2B71131  23.712  16.056   5.053 -0.0684  0.0628  0.0946
    1OPC    C3B71132  23.765  15.751   4.550 -0.2129  0.2809 -0.2327
    1OPC    C4B71133  23.553  15.353   4.449  0.1688  0.0939  0.1398
    1OPC    NC371134  29.240  20.274   6.622  0.2268  0.0013  0.3940
    1OPC    PO471135  29.474  20.074   6.842  0.1266  0.2273 -0.1374
    1OPC    GL171136  29.092  19.859   6.828  0.2461  0.3338  0.1648
    1OPC    GL271137  28.875  19.732   6.609 -0.0154  0.0407  0.2650
    1OPC    C1B71138  28.761  19.711   6.201  0.2368  0.0914 -0.1222
    1OPC    D2B71139  28.904  19.632   5.807 -0.2971 -0.4524  0.2845
    1OPC    C3B71140  29.128  19.933   5.543 -0.0418 -0.0696 -0.1823
    1OPC    C4B71141  29.432  20.180   5.397  0.3096 -0.1290 -0.1957
    1OPC    NC371142   6.130  10.977   7.102  0.1429  0.0778  0.0769
    1OPC    PO471143   6.180  10.893   6.771 -0.0563  0.3161  0.2565
    1OPC    GL171144   6.271  11.113   6.490 -0.3291 -0.1367  0.0926
    1OPC    GL271145   6.554  11.169   6.294  0.3459  0.0120 -0.0753
    1OPC    C1B71146   6.493  11.199   5.931 -0.0611 -0.0500  0.5082
    1OPC    D2B71147   6.385  11.102   5.477  0.0530 -0.0843 -0.0541
    1OPC    C3B71148   6.306  11.329   5.152  0.2321 -0.0642 -0.0983
    1OPC    C4B71149   6.604  11.347   4.789  0.1685  0.2926  0.3017
    1OPC    NC371150  21.057  19.501   6.927 -0.0133 -0.2246  0.0919
    1OPC    PO471151  20.931  19.987   6.901  0.5070  0.0326 -0.1766
    1OPC    GL171152  21.134  20.093   6.497 -0.1290 -0.1659  0.1507
    1OPC    GL271153  21.275  20.449   6.425 -0.0437  0.1408  0.2664
    1OPC    C1B71154  21.479  20.757   6.043  0.3379  0.0406  0.0419
    1OPC    D2B71155  21.495  20.799   5.512 -0.0606 -0.1389  0.0066
    1OPC    C3B71156  21.866  20.803   5.317  0.0040  0.3477 -0.0826
    1OPC    C4B71157  21.956  20.855   4.888 -0.1721  0.0940  0.4462
    1OPC    NC371158   3.353  12.836   6.453 -0.0345 -0.1845 -0.2566
    1OPC    PO471159   3.634  12.555   6.447  0.1157  0.0654  0.1413
    1OPC    GL171160   3.605  12.495   6.042  0.0671  0.0305  0.3161
    1OPC    GL271161   3.774  12.564   5.731  0.0253  0.0269 -0.1625
    1OPC    C1B71162   4.166  12.252   5.489  0.3121 -0.0759  0.2710
    1OPC    D2B71163   4.611  12.370   5.405  0.1156  0.0953 -0.0783
    1OPC    C3B71164   4.794  12.114   5.040  0.0098  0.1557  0.0891
    1OPC    C4B71165   5.126  12.216   4.734  0.1153  0.0467 -0.1318
    1OPC    NC371166   9.715   1.779   7.476  0.0731  0.0100 -0.0293
    1OPC    PO471167  10.147   1.697   7.572  0.1956 -0.1095 -0.1575
    1OPC    GL171168  10.191   2.025   7.244  0.1706 -0.0489 -0.1240
    1OPC    GL271169  10.269   2.248   7.022  0.3471  0.0126 -0.2446
    1OPC    C1B71170   9.978   2.322   6.638 -0.0555  0.0950  0.0917
    1OPC    D2B71171   9.637   2.256   6.380 -0.0535  0.2954 -0.0757
    1OPC    C3B71172   9.701   2.351   5.955  0.3554  0.0881 -0.2138
    1OPC    C4B71173   9.505   2.573   5.667  0.2899  0.1533  0.2695
    1OPC    NC371174  27.638   6.525   7.178 -0.0043  0.1429  0.2597
    1OPC    PO471175  28.029   6.252   7.043  0.3508  0.0366  0.1142
    1OPC    GL171176  27.982   6.012   6.581 -0.2270 -0.0982  0.0888
    1OPC    GL271177  27.953   5.924   6.264 -0.2414 -0.2009 -0.4773
    1OPC    C1B71178  28.041   5.956   5.805  0.1678 -0.1532 -0.2441
    1OPC    D2B71179  28.098   5.784   5.349 -0.0401  0.0328 -0.0668
    1OPC    C3B71180  28.504   5.662   5.042  0.2208 -0.0992  0.0106
    1OPC    C4B71181  28.685   5.326   4.761  0.0507 -0.2119 -0.1965
    1OPC    NC371182   9.276  23.128   6.674  0.0761  0.0735 -0.3014
    1OPC    PO471183   9.419  23.218   6.275 -0.2054 -0.0153 -0.1476
    1OPC    GL171184   9.220  23.238   5.927  0.0947 -0.2092  0.2980
    1OPC    GL271185   9.168  23.323   5.634  0.0058  0.0147  0.1736
    1OPC    C1B71186   9.332  23.546   5.239  0.2398  0.2051  0.0391
    1OPC    D2B71187   9.381  23.658   4.843 -0.0607 -0.0830 -0.1041
    1OPC    C3B71188   9.188  23.938   4.588 -0.1134  0.3742  0.1658
    1OPC    C4B71189   8.854  24.254   4.378 -0.0065 -0.2312  0.1449
    1OPC    NC371190  19.936  26.607   7.430  0.0100  0.0237 -0.2899
    1OPC    PO471191  19.834  26.107   7.443 -0.1192 -0.1595 -0.4147
    1OPC    GL171192  19.758  26.279   7.064 -0.1042  0.0898  0.0604
    1OPC    GL271193  20.029  26.308   6.771 -0.0889 -0.1334 -0.0106
    1OPC    C1B71194  20.152  26.343   6.350 -0.2513  0.1910 -0.1765
    1OPC    D2B71195  20.093  26.373   5.874 -0.3851 -0.0245 -0.1691
    1OPC    C3B71196  19.769  26.702   5.705  0.2835  0.2763 -0.1047
    1OPC    C4B71197  19.356  26.764   5.840  0.0117 -0.1102 -0.0543
    1OPC    NC371198  17.587  21.387   7.404  0.1409 -0.1792 -0.0012
    1OPC    PO471199  18.009  21.146   7.341 -0.1734 -0.0496 -0.1087
    1OPC    GL171200  17.862  21.209   6.988 -0.0663  0.1999  0.0517
    1OPC    GL271201  17.956  21.338   6.810  0.0566  0.1326  0.0887
    1OPC    C1B71202  17.783  21.508   6.388 -0.0942 -0.3879 -0.1831
    1OPC    D2B71203  17.920  21.426   6.032  0.3193 -0.2525  0.0625
    1OPC    C3B71204  18.128  21.460   5.635 -0.2386  0.1937 -0.0694
    1OPC    C4B71205  18.257  21.588   5.222  0.0836  0.1650  0.0057
    1OPC    NC371206   2.643  21.082   6.875 -0.0074 -0.1652 -0.1354
    1OPC    PO471207   2.846  20.976   6.499 -0.0198  0.0166  0.1194
    1OPC    GL171208   2.672  20.836   6.128  0.1437  0.2556 -0.0636
    1OPC    GL271209   2.848  20.692   5.894 -0.3989 -0.2838 -0.1095
    1OPC    C1B71210   3.068  20.585   5.454  0.1181  0.1549  0.1381
    1OPC    D2B71211   3.280  20.334   5.256  0.1221  0.0585 -0.1524
    1OPC    C3B71212   3.384  20.265   4.821  0.2800  0.0612  0.0467
    1OPC    C4B71213   3.409  20.297   4.374 -0.0471 -0.1901  0.0385
    1OPC    NC371214   3.965  19.673   6.412 -0.1617 -0.0257  0.1583
    1OPC    PO471215   3.718  19.267   6.256 -0.2072  0.0287 -0.1198
    1OPC    GL171216   3.853  19.072   5.902  0.2093 -0.0128 -0.1431
    1OPC    GL271217   3.792  19.100   5.603 -0.4801  0.1666  0.2610
    1OPC    C1B71218   4.021  19.291   5.227  0.1066  0.0595  0.0241
    1OPC    D2B71219   3.838  19.267   4.817  0.2579  0.1133  0.1744
    1OPC    C3B71220   3.750  19.426   4.456  0.3353 -0.0442 -0.1782
    1OPC    C4B71221   3.784  19.488   4.033  0.0660 -0.3749 -0.2414
    1OPC    NC371222  26.564   4.525   6.954  0.1708 -0.0964 -0.0040
    1OPC    PO471223  26.317   4.329   6.555  0.0587 -0.1167 -0.2036
    1OPC    GL171224  26.361   4.265   6.143  0.0230  0.1347 -0.2002
    1OPC    GL271225  26.496   4.267   5.953  0.2539  0.3488 -0.0365
    1OPC    C1B71226  26.856   4.492   5.789  0.2618  0.1346 -0.2374
    1OPC    D2B71227  27.052   4.624   5.414  0.2823  0.2240 -0.0239
    1OPC    C3B71228  27.362   4.309   5.180 -0.2113 -0.0087 -0.0479
    1OPC    C4B71229  27.269   3.859   5.336  0.0495  0.0373 -0.0244
    1OPC    NC371230   0.930  28.133   7.279  0.0605  0.0513 -0.0327
    1OPC    PO471231   1.150  27.963   6.946  0.1133 -0.2225 -0.0015
    1OPC    GL171232   0.886  28.327   6.783 -0.1211 -0.0402  0.5310
    1OPC    GL271233   0.943  28.405   6.339  0.0106  0.2115  0.0455
    1OPC    C1B71234   0.920  28.203   5.850  0.2220 -0.2943 -0.2141
    1OPC    D2B71235   1.037  28.206   5.507  0.0242 -0.0899  0.0096
    1OPC    C3B71236   0.922  28.305   5.127  0.0738 -0.0425  0.0483
    1OPC    C4B71237   1.036  28.379   4.733  0.0042  0.1591  0.1013
    1OPC    NC371238   9.329  28.357   7.920 -0.0486  0.1965 -0.0524
    1OPC    PO471239   9.597  28.433   7.516  0.2004 -0.0542 -0.0147
    1OPC    GL171240   9.461  28.324   7.100 -0.0546  0.1125 -0.0575
    1OPC    GL271241   9.595  28.435   6.779  0.0992  0.2263 -0.3021
    1OPC    C1B71242   9.743  28.584   6.395  0.0729  0.0058 -0.0940
    1OPC    D2B71243  10.144  28.472   6.057  0.4626 -0.0972 -0.0497
    1OPC    C3B71244  10.512  28.785   5.809  0.0808  0.2168 -0.1608
    1OPC    C4B71245  10.488  29.270   5.679  0.0827  0.0398 -0.0530
    1OPC    NC371246  22.995  24.212   6.779  0.1498 -0.0160  0.0126
    1OPC    PO471247  22.508  24.133   6.905 -0.0545  0.0990  0.0830
    1OPC    GL171248  22.543  24.047   6.469 -0.0492  0.1147  0.0439
    1OPC    GL271249  22.665  23.857   6.230  0.1235 -0.2406 -0.0094
    1OPC    C1B71250  22.548  23.908   5.810  0.1806  0.1977 -0.0553
    1OPC    D2B71251  22.570  23.798   5.356  0.0263 -0.0930  0.1855
    1OPC    C3B71252  22.931  23.975   4.994  0.1991  0.0904 -0.1877
    1OPC    C4B71253  23.257  24.233   4.749 -0.0297  0.0307 -0.1073
    1OPC    NC371254   3.545   6.416   7.271 -0.3293  0.4539 -0.0951
    1OPC    PO471255   3.382   6.750   7.049  0.0718  0.2643 -0.1311
    1OPC    GL171256   3.572   6.874   6.637 -0.1535  0.2594 -0.0348
    1OPC    GL271257   3.723   6.728   6.320  0.1189  0.1874  0.1230
    1OPC    C1B71258   3.603   6.660   5.912 -0.1876  0.1995  0.1927
    1OPC    D2B71259   3.671   6.734   5.499  0.1932 -0.1264  0.1978
    1OPC    C3B71260   3.721   7.115   5.239 -0.0595 -0.1246  0.2256
    1OPC    C4B71261   3.795   7.572   4.961  0.0394 -0.2996  0.2100
    1OPC    NC371262   6.719   5.810   7.285 -0.0412  0.3279  0.2103
    1OPC    PO471263   6.904   6.235   7.370 -0.1467 -0.3275 -0.1296
    1OPC    GL171264   7.053   6.367   6.920  0.0966  0.1227  0.2145
    1OPC    GL271265   7.174   6.355   6.629 -0.1547 -0.2104 -0.1183
    1OPC    C1B71266   7.351   5.951   6.311  0.3330  0.0239 -0.1132
    1OPC    D2B71267   7.406   5.572   6.136 -0.0732  0.0745 -0.1204
    1OPC    C3B71268   7.697   5.393   5.828 -0.0805  0.1033  0.1239
    1OPC    C4B71269   7.885   5.470   5.434 -0.0104  0.2069 -0.4364
    1OPC    NC371270   5.299  23.331   6.709 -0.0994 -0.0401  0.1689
    1OPC    PO471271   5.063  23.423   6.370 -0.0224 -0.0084  0.1327
    1OPC    GL171272   5.147  23.355   6.026 -0.2598  0.1013 -0.1422
    1OPC    GL271273   5.019  23.292   5.679 -0.0679 -0.3475  0.2551
    1OPC    C1B71274   5.413  23.165   5.367  0.0170 -0.0517  0.0085
    1OPC    D2B71275   5.711  22.830   5.043 -0.2031  0.0089  0.3622
    1OPC    C3B71276   6.103  22.820   5.002  0.1903  0.1597 -0.1554
    1OPC    C4B71277   6.325  22.488   4.853  0.1159 -0.0292  0.0901
    1OPC    NC371278   2.056  20.384   6.940  0.0780 -0.1221 -0.0540
    1OPC    PO471279   2.360  20.260   6.481  0.1605  0.0660  0.0040
    1OPC    GL171280   2.194  20.546   6.218 -0.1296  0.0034  0.0995
    1OPC    GL271281   2.342  20.547   5.888 -0.2114  0.1463 -0.1240
    1OPC    C1B71282   2.604  20.488   5.422  0.0464  0.0713 -0.0456
    1OPC    D2B71283   2.835  20.461   5.020 -0.0307 -0.2330 -0.0486
    1OPC    C3B71284   2.547  20.569   4.647  0.2666 -0.1933 -0.2145
    1OPC    C4B71285   2.474  20.802   4.300 -0.0788  0.1001 -0.0613
    1OPC    NC371286  17.898   3.530   6.569  0.0970  0.1969  0.0920
    1OPC    PO471287  17.529   3.255   6.548  0.3211 -0.0770  0.1600
    1OPC    GL171288  17.505   3.441   6.127  0.2577  0.0117  0.1028
    1OPC    GL271289  17.411   3.706   5.953 -0.2668 -0.2024  0.1301
    1OPC    C1B71290  17.434   3.913   5.551 -0.2249  0.1671 -0.0638
    1OPC    D2B71291  17.507   3.862   5.085  0.1400 -0.2181  0.0034
    1OPC    C3B71292  17.455   3.468   4.937 -0.1353 -0.3285  0.3432
    1OPC    C4B71293  17.409   3.349   4.521  0.0675  0.3183 -0.0193
    1OPC    NC371294  27.432  23.216   6.697  0.2965 -0.0543  0.3381
    1OPC    PO471295  27.284  23.672   6.534  0.4878 -0.0553  0.0497
    1OPC    GL171296  26.874  23.609   6.326 -0.2365 -0.0144  0.0507
    1OPC    GL271297  26.603  23.564   6.189 -0.0867  0.3661 -0.3358
    1OPC    C1B71298  26.376  23.471   5.857 -0.1620  0.0319 -0.0798
    1OPC    D2B71299  26.227  23.359   5.382  0.0326  0.1586  0.2255
    1OPC    C3B71300  25.888  23.314   5.068  0.2506  0.2115 -0.3518
    1OPC    C4B71301  25.680  23.372   4.743 -0.1012 -0.0798 -0.0663
    1OPC    NC371302  25.981  26.285   6.770 -0.2383  0.0240 -0.0951
    1OPC    PO471303  26.016  26.712   6.602 -0.3558 -0.1221 -0.2727
    1OPC    GL171304  25.946  26.813   6.129 -0.1254 -0.2545  0.2787
    1OPC    GL271305  25.666  26.942   5.923 -0.1289 -0.0588 -0.1206
    1OPC    C1B71306  25.579  27.325   5.628 -0.5019  0.1555 -0.0205
    1OPC    D2B71307  25.490  27.656   5.371  0.0105  0.2321  0.0223
    1OPC    C3B71308  25.290  27.554   5.063  0.0069  0.0219 -0.0391
    1OPC    C4B71309  24.905  27.537   4.778 -0.2366  0.0172  0.0392
    1OPC    NC371310   3.331   9.487   7.173  0.0850  0.1653 -0.0919
    1OPC    PO471311   3.071   9.113   7.171 -0.2862 -0.0240 -0.0145
    1OPC    GL171312   3.117   9.005   6.802 -0.1690  0.0101 -0.2955
    1OPC    GL271313   3.075   8.799   6.447  0.2072  0.1140 -0.1785
    1OPC    C1B71314   3.116   8.478   6.153 -0.0354 -0.3829  0.3268
    1OPC    D2B71315   3.188   8.326   5.763 -0.0966  0.0944 -0.2630
    1OPC    C3B71316   3.576   8.231   5.488 -0.1741 -0.3210 -0.2388
    1OPC    C4B71317   3.783   8.358   5.301 -0.0618  0.0649  0.1891
    1OPC    NC371318  15.322  25.452   7.151 -0.1046 -0.2227  0.0225
    1OPC    PO471319  15.126  25.147   7.000  0.3696  0.0131  0.0241
    1OPC    GL171320  15.441  25.218   6.653 -0.2137 -0.1036 -0.0557
    1OPC    GL271321  15.760  25.278   6.531 -0.0186  0.0045  0.0656
    1OPC    C1B71322  16.037  25.299   6.197  0.0597  0.0449  0.0363
    1OPC    D2B71323  16.144  25.353   5.747 -0.4513 -0.1995  0.1571
    1OPC    C3B71324  16.162  25.670   5.428 -0.0178 -0.0497 -0.0798
    1OPC    C4B71325  16.107  25.617   5.015 -0.1438  0.1111 -0.3470
    1OPC    NC371326  10.706  21.965   7.028  0.4613 -0.3200  0.0491
    1OPC    PO471327  10.622  21.665   6.607  0.0724 -0.0448  0.0508
    1OPC    GL171328  10.779  21.476   6.218  0.1738 -0.0856  0.1564
    1OPC    GL271329  10.753  21.457   5.754 -0.0625  0.0371 -0.0043
    1OPC    C1B71330  10.674  21.663   5.380  0.2302  0.0891 -0.0066
    1OPC    D2B71331  10.615  21.808   4.982 -0.1760  0.0463  0.0060
    1OPC    C3B71332  10.400  22.046   4.704 -0.2611 -0.0944  0.0382
    1OPC    C4B71333  10.741  22.324   4.530 -0.0287  0.0342  0.1103
    1OPC    NC371334  22.014  13.978   7.011 -0.1570 -0.0063 -0.0920
    1OPC    PO471335  21.903  13.781   6.657 -0.0668  0.0386 -0.0592
    1OPC    GL171336  21.715  13.925   6.311  0.1649 -0.0509  0.0182
    1OPC    GL271337  21.561  13.894   5.972  0.2323 -0.0492 -0.0127
    1OPC    C1B71338  21.335  13.958   5.585 -0.0224 -0.1760  0.1930
    1OPC    D2B71339  21.355  14.232   5.140  0.0129 -0.1439 -0.1301
    1OPC    C3B71340  21.077  14.214   4.736  0.0587 -0.1256  0.0815
    1OPC    C4B71341  20.967  13.901   4.412 -0.0526 -0.0684  0.1226
    1OPC    NC371342   5.036  18.593   6.115 -0.1258  0.2864 -0.1582
    1OPC    PO471343   5.200  18.284   5.760  0.0505 -0.0116 -0.1215
    1OPC    GL171344   4.848  18.537   5.585  0.2179 -0.0465  0.0390
    1OPC    GL271345   4.710  18.681   5.450  0.0513  0.0458  0.0405
    1OPC    C1B71346   4.780  18.672   5.020  0.1354  0.2662 -0.0632
    1OPC    D2B71347   5.021  18.930   4.684 -0.2276  0.1560 -0.0710
    1OPC    C3B71348   4.758  19.247   4.454 -0.1603  0.5028 -0.0627
    1OPC    C4B71349   4.654  19.686   4.362 -0.0373 -0.0811  0.1919
    1OPC    NC371350  28.989   9.713   7.541 -0.1335  0.3505 -0.0662
    1OPC    PO471351  29.170   9.862   7.113 -0.0726 -0.0714  0.2129
    1OPC    GL171352  29.288   9.749   6.703  0.0675 -0.1217  0.1015
    1OPC    GL271353  29.121   9.647   6.360 -0.0239 -0.1624  0.2471
    1OPC    C1B71354  28.887   9.544   6.015 -0.3201  0.0550  0.1890
    1OPC    D2B71355  28.765   9.453   5.536 -0.1752  0.0006 -0.4080
    1OPC    C3B71356  28.969   9.257   5.212 -0.2100  0.1862 -0.0056
    1OPC    C4B71357  28.870   9.109   4.765 -0.0113  0.0329 -0.0568
    1OPC    NC371358  28.537  19.713   6.979  0.1862 -0.3824  0.5154
    1OPC    PO471359  28.672  20.104   6.935  0.3875  0.1063  0.4812
    1OPC    GL171360  28.751  20.267   6.528  0.0567  0.0118 -0.4509
    1OPC    GL271361  28.646  20.230   6.362  0.1783 -0.1071 -0.0725
    1OPC    C1B71362  28.779  20.130   5.807 -0.4845  0.1858 -0.1207
    1OPC    D2B71363  28.850  20.428   5.513 -0.2263  0.2497 -0.0440
    1OPC    C3B71364  28.581  20.728   5.310  0.2331 -0.1257  0.1934
    1OPC    C4B71365  28.276  20.995   5.459 -0.0639  0.0689 -0.0990
    1OPC    NC371366  10.566   9.201   7.507  0.0368 -0.1523 -0.1661
    1OPC    PO471367  10.816   9.127   7.297  0.0433 -0.1516 -0.0724
    1OPC    GL171368  10.573   9.410   6.899  0.1638  0.0805  0.1530
    1OPC    GL271369  10.306   9.439   6.915  0.2141  0.2810  0.0623
    1OPC    C1B71370   9.955   9.164   6.752 -0.1401  0.0628  0.1389
    1OPC    D2B71371   9.708   9.000   6.458  0.1635 -0.0995 -0.0068
    1OPC    C3B71372   9.375   8.723   6.363  0.1077  0.1951  0.0067
    1OPC    C4B71373   8.904   8.704   6.323 -0.1776  0.0645 -0.1292
    1OPC    NC371374   3.570  23.378   6.293  0.0432  0.0595  0.2874
    1OPC    PO471375   3.893  23.153   5.972 -0.2311  0.1167 -0.1260
    1OPC    GL171376   4.226  23.395   5.798  0.1007  0.1263  0.3143
    1OPC    GL271377   4.217  23.455   5.452 -0.0810  0.4733  0.1086
    1OPC    C1B71378   4.362  23.604   4.997 -0.2546 -0.1036  0.1268
    1OPC    D2B71379   4.636  23.623   4.540  0.1117  0.1527  0.0363
    1OPC    C3B71380   4.479  23.398   4.178 -0.0101  0.1043 -0.1571
    1OPC    C4B71381   4.179  23.017   4.193  0.0409  0.2049 -0.2061
    1OPC    NC371382  22.108  26.394   6.860 -0.4171 -0.0763  0.1004
    1OPC    PO471383  22.288  26.778   6.803  0.1314 -0.2291 -0.0307
    1OPC    GL171384  22.185  26.675   6.382 -0.2773  0.0987  0.1396
    1OPC    GL271385  22.000  26.604   6.066  0.1570  0.1118 -0.2229
    1OPC    C1B71386  22.002  26.449   5.639  0.0422  0.1312  0.2613
    1OPC    D2B71387  21.824  26.242   5.287 -0.0094 -0.2166  0.3269
    1OPC    C3B71388  22.046  26.375   4.902  0.1651 -0.0170  0.2233
    1OPC    C4B71389  22.192  26.038   4.639  0.1434 -0.0626 -0.2599
    1OPC    NC371390  17.041  19.875   7.287  0.2229 -0.0753  0.1914
    1OPC    PO471391  17.366  20.233   7.267 -0.5037 -0.0634  0.0046
    1OPC    GL171392  17.346  20.433   6.825  0.2564  0.1520  0.1871
    1OPC    GL271393  17.366  20.336   6.496 -0.0384 -0.0795  0.1558
    1OPC    C1B71394  17.535  20.508   6.148  0.0972 -0.3443  0.0942
    1OPC    D2B71395  17.575  20.483   5.730  0.2868  0.0711  0.1604
    1OPC    C3B71396  17.348  20.568   5.432 -0.1001  0.2449 -0.0358
    1OPC    C4B71397  16.957  20.481   5.178 -0.2145  0.0604 -0.0741
    1OPC    NC371398  25.384   5.751   6.896 -0.2071  0.0669 -0.1235
    1OPC    PO471399  25.277   5.348   6.937  0.1166 -0.2570  0.1682
    1OPC    GL171400  24.944   5.112   6.935 -0.2005 -0.1430 -0.1146
    1OPC    GL271401  24.609   4.884   6.802  0.0813 -0.1083 -0.1042
    1OPC    C1B71402  24.405   4.639   6.505  0.2437 -0.1480  0.0690
    1OPC    D2B71403  24.556   4.745   6.061  0.1740 -0.0200 -0.0608
    1OPC    C3B71404  24.753   4.756   5.792  0.0483  0.0961  0.1250
    1OPC    C4B71405  24.889   4.820   5.372 -0.3228  0.0831 -0.0311
    1OPC    NC371406   3.902  17.138   5.921 -0.1099  0.3223 -0.0144
    1OPC    PO471407   3.627  17.045   6.201 -0.2491  0.0782  0.1338
    1OPC    GL171408   3.449  16.906   5.787  0.2950  0.2963 -0.3209
    1OPC    GL271409   3.426  16.824   5.506  0.2474  0.3053  0.2413
    1OPC    C1B71410   3.124  16.738   5.217  0.1925 -0.2155 -0.3022
    1OPC    D2B71411   3.021  16.791   4.730 -0.0756  0.1104  0.0847
    1OPC    C3B71412   3.280  16.961   4.405  0.1879 -0.1355  0.0859
    1OPC    C4B71413   3.210  17.283   4.054 -0.2099  0.0906 -0.0115
    1OPC    NC371414  27.557  13.608   6.595  0.1496  0.0281  0.1663
    1OPC    PO471415  27.425  13.786   6.286 -0.0325 -0.2652 -0.0694
    1OPC    GL171416  27.177  13.580   5.838  0.1453  0.0411 -0.0590
    1OPC    GL271417  27.295  13.678   5.547 -0.1407  0.1185 -0.3462
    1OPC    C1B71418  27.076  13.782   5.102  0.0265 -0.2082 -0.2343
    1OPC    D2B71419  27.049  14.016   4.639  0.0992 -0.1177  0.1192
    1OPC    C3B71420  27.278  13.982   4.251  0.1847  0.2318  0.1556
    1OPC    C4B71421  27.293  13.567   4.086  0.3746  0.2775 -0.3616
    1OPC    NC371422  18.255   5.254   2.685  0.0948  0.0390 -0.0944
    1OPC    PO471423  17.821   5.459   2.706 -0.3956 -0.0578  0.0304
    1OPC    GL171424  17.752   5.183   3.047  0.0271  0.2559  0.0309
    1OPC    GL271425  17.768   5.200   3.377 -0.0117  0.0272 -0.0695
    1OPC    C1B71426  17.725   5.125   3.837  0.1064 -0.2955 -0.3194
    1OPC    D2B71427  17.759   4.897   4.305  0.1750  0.2763  0.3026
    1OPC    C3B71428  17.773   4.473   4.403  0.1650 -0.1547  0.1603
    1OPC    C4B71429  17.999   4.151   4.376  0.0710  0.0335  0.0359
    1OPC    NC371430  28.243   0.659   2.653 -0.2226  0.2134  0.0440
    1OPC    PO471431  28.497   0.418   2.779  0.0502  0.0020 -0.2320
    1OPC    GL171432  28.856   0.291   2.942 -0.0622  0.0169  0.1670
    1OPC    GL271433  28.908   0.188   3.204  0.0836 -0.0701  0.2348
    1OPC    C1B71434  28.960   0.064   3.556 -0.0497  0.1505  0.0312
    1OPC    D2B71435  29.063   0.125   3.902  0.1063 -0.2269 -0.1175
    1OPC    C3B71436  29.229   0.446   4.128  0.0711  0.3587 -0.2070
    1OPC    C4B71437  29.268   0.863   4.305  0.0282 -0.0860 -0.0126
    1OPC    NC371438  26.830  15.120   2.265 -0.0788 -0.1580  0.1885
    1OPC    PO471439  26.561  15.194   2.562  0.0141 -0.2766 -0.1632
    1OPC    GL171440  26.299  15.257   2.869 -0.1741 -0.0086 -0.0822
    1OPC    GL271441  26.016  15.313   3.133 -0.0280  0.1790 -0.1863
    1OPC    C1B71442  25.805  15.343   3.510  0.1268  0.1360 -0.1742
    1OPC    D2B71443  25.560  15.193   3.930  0.2238  0.2528  0.5198
    1OPC    C3B71444  25.501  15.018   4.296  0.1983 -0.3122 -0.0939
    1OPC    C4B71445  25.206  15.091   4.498  0.1889 -0.1010 -0.0376
    1OPC    NC371446   7.301  23.219   2.302  0.0194 -0.2743 -0.0336
    1OPC    PO471447   7.694  23.087   2.224 -0.0550  0.1023 -0.1031
    1OPC    GL171448   7.759  23.046   2.628 -0.1304  0.1330  0.0851
    1OPC    GL271449   7.710  23.046   2.882  0.2175 -0.2413  0.0299
    1OPC    C1B71450   7.410  22.951   3.153  0.2828 -0.0039  0.4223
    1OPC    D2B71451   7.423  22.960   3.624  0.3383 -0.0171 -0.4413
    1OPC    C3B71452   7.200  22.596   3.886 -0.2170 -0.4370 -0.2740
    1OPC    C4B71453   6.949  22.469   4.050  0.2577 -0.0969 -0.3440
    1OPC    NC371454   9.685  27.724   3.022 -0.0387  0.2987  0.0026
    1OPC    PO471455   9.813  27.528   2.636  0.1280  0.0653 -0.0945
    1OPC    GL171456   9.573  27.165   3.023 -0.0250 -0.1947  0.0197
    1OPC    GL271457   9.745  27.085   3.288  0.1431 -0.0250 -0.0409
    1OPC    C1B71458   9.717  26.901   3.704  0.2445 -0.0155 -0.0927
    1OPC    D2B71459   9.773  26.528   3.890 -0.1026 -0.3456 -0.0598
    1OPC    C3B71460   9.950  26.131   3.813  0.0194 -0.4581  0.1859
    1OPC    C4B71461  10.290  25.905   3.737 -0.3097  0.0337 -0.2397
    1OPC    NC371462  25.109  21.094   2.461  0.2630 -0.1787 -0.0077
    1OPC    PO471463  25.290  21.125   2.803  0.3376 -0.0547  0.0282
    1OPC    GL171464  25.081  20.854   3.250 -0.0590 -0.2495 -0.1026
    1OPC    GL271465  25.098  20.807   3.566 -0.1695  0.1961  0.0962
    1OPC    C1B71466  25.176  20.948   4.031  0.0105 -0.1384  0.0085
    1OPC    D2B71467  24.758  21.145   4.280 -0.2579  0.3378 -0.0112
    1OPC    C3B71468  24.706  21.206   4.684  0.3700 -0.2310 -0.0053
    1OPC    C4B71469  24.840  21.047   5.074 -0.1931 -0.2920  0.1024
    1OPC    NC371470  24.940  23.589   2.351 -0.0900  0.3280  0.0786
    1OPC    PO471471  25.265  23.493   2.740  0.2211 -0.1725 -0.3072
    1OPC    GL171472  25.040  23.441   3.079 -0.1280  0.2748 -0.2625
    1OPC    GL271473  24.961  23.430   3.429 -0.3601  0.2126  0.1469
    1OPC    C1B71474  24.792  23.473   3.771  0.1511  0.2589 -0.0657
    1OPC    D2B71475  24.831  23.608   4.231  0.0602 -0.0961 -0.1470
    1OPC    C3B71476  25.028  23.323   4.493 -0.2655 -0.0798 -0.1070
    1OPC    C4B71477  24.800  23.181   4.776 -0.1128  0.1355  0.0209
    1OPC    NC371478  23.684   5.463   3.176 -0.1470  0.1066  0.0247
    1OPC    PO471479  23.261   5.333   3.242 -0.1756 -0.0284  0.2028
    1OPC    GL171480  23.402   4.942   3.382  0.3303 -0.0722  0.0954
    1OPC    GL271481  23.488   4.803   3.639  0.1815  0.0064  0.3197
    1OPC    C1B71482  23.699   4.927   4.029  0.0856  0.2014 -0.1882
    1OPC    D2B71483  24.179   4.911   4.083  0.0635  0.0525 -0.0121
    1OPC    C3B71484  24.424   5.194   4.268  0.1409  0.0954  0.0560
    1OPC    C4B71485  24.868   5.191   4.390  0.1095  0.2664 -0.2666
    1OPC    NC371486  10.692  25.954   1.986 -0.1185  0.2395  0.0146
    1OPC    PO471487  11.164  26.109   1.996 -0.0884  0.0094 -0.0306
    1OPC    GL171488  10.980  25.979   2.413  0.0751 -0.3029  0.0567
    1OPC    GL271489  11.033  25.995   2.788  0.0324 -0.0425  0.2434
    1OPC    C1B71490  11.246  25.994   3.151 -0.3300 -0.0553  0.1326
    1OPC    D2B71491  11.179  25.791   3.480 -0.0986  0.1527 -0.1381
    1OPC    C3B71492  11.407  25.794   3.915 -0.0389  0.0396  0.2788
    1OPC    C4B71493  11.827  25.909   4.120 -0.0105  0.1564 -0.1404
    1OPC    NC371494  12.002   7.812   2.167  0.3100  0.1300  0.3656
    1OPC    PO471495  11.855   7.786   2.579 -0.1937 -0.0273  0.0841
    1OPC    GL171496  11.775   7.711   3.022  0.2856  0.1367  0.1690
    1OPC    GL271497  11.692   7.533   3.261  0.1872  0.2751  0.3139
    1OPC    C1B71498  11.861   7.398   3.620  0.0416 -0.0440 -0.0656
    1OPC    D2B71499  11.888   7.681   3.965 -0.0198 -0.1093  0.0919
    1OPC    C3B71500  11.647   7.572   4.300  0.3088 -0.2778 -0.1620
    1OPC    C4B71501  11.933   7.639   4.638  0.4175 -0.0653 -0.3332
    1OPC    NC371502  16.396   0.001   2.821 -0.0446 -0.0649 -0.2385
    1OPC    PO471503  16.549   0.121   3.252 -0.0397  0.0083  0.0390
    1OPC    GL171504  16.307  -0.053   3.550 -0.0999  0.0320  0.0865
    1OPC    GL271505  16.302   0.062   3.876 -0.1453  0.0188 -0.0204
    1OPC    C1B71506  16.015   0.293   4.160  0.2997  0.1026 -0.2355
    1OPC    D2B71507  15.591   0.217   4.297 -0.2643  0.0980  0.0934
    1OPC    C3B71508  15.588   0.487   4.626  0.0587  0.2426  0.3240
    1OPC    C4B71509  15.213   0.651   4.867 -0.1472  0.2081 -0.2992
    1OPC    NC371510   0.121  20.110   1.819 -0.2177 -0.1831  0.2142
    1OPC    PO471511  -0.189  20.140   2.199 -0.1647  0.2066 -0.2363
    1OPC    GL171512   0.152  20.404   2.412  0.0611 -0.1370 -0.4361
    1OPC    GL271513   0.302  20.561   2.687 -0.1941 -0.0254 -0.3230
    1OPC    C1B71514   0.390  20.583   3.152 -0.1706 -0.0315 -0.0743
    1OPC    D2B71515   0.443  20.732   3.558  0.1805  0.2331  0.2787
    1OPC    C3B71516   0.350  20.787   4.062 -0.0439  0.3687 -0.0281
    1OPC    C4B71517   0.185  20.601   4.466  0.0298 -0.0282 -0.0154
    1OPC    NC371518   6.817  23.206   1.282 -0.0419 -0.2109  0.3286
    1OPC    PO471519   6.612  22.855   1.416 -0.0453 -0.1768 -0.1196
    1OPC    GL171520   6.662  22.850   1.878  0.0052  0.0544 -0.2131
    1OPC    GL271521   6.792  22.575   2.132  0.0660 -0.3213  0.0442
    1OPC    C1B71522   6.920  22.421   2.584  0.2940 -0.0405 -0.1521
    1OPC    D2B71523   7.060  22.594   3.033  0.0935 -0.1250 -0.0319
    1OPC    C3B71524   6.920  22.381   3.410  0.2428  0.0973 -0.1300
    1OPC    C4B71525   6.551  22.508   3.603  0.0020 -0.1463 -0.1447
    1OPC    NC371526   1.363  28.989   2.650  0.0469  0.0711  0.0247
    1OPC    PO471527   0.961  29.136   2.594  0.1284 -0.1201  0.1903
    1OPC    GL171528   1.154  29.260   3.058  0.0730  0.4403 -0.0833
    1OPC    GL271529   1.398  29.304   3.374 -0.0549 -0.1164  0.3956
    1OPC    C1B71530   1.693  29.537   3.740  0.0781 -0.3223  0.0246
    1OPC    D2B71531   1.967  29.866   3.974 -0.5163  0.2234  0.0981
    1OPC    C3B71532   2.003  29.863   4.447  0.2056  0.1000  0.1402
    1OPC    C4B71533   1.954  29.906   4.878  0.0187 -0.0907  0.0230
    1OPC    NC371534  18.331  24.708   3.520 -0.1015 -0.0746 -0.3658
    1OPC    PO471535  18.417  24.358   3.253 -0.0135 -0.2675 -0.0699
    1OPC    GL171536  18.343  24.193   3.637 -0.1398  0.1225 -0.5536
    1OPC    GL271537  18.341  24.178   3.903  0.0542 -0.0161  0.0739
    1OPC    C1B71538  18.275  24.328   4.314  0.1342 -0.2044  0.1938
    1OPC    D2B71539  18.658  24.321   4.527  0.0554  0.0723  0.0557
    1OPC    C3B71540  18.663  24.677   4.864 -0.2429 -0.0684  0.0232
    1OPC    C4B71541  18.644  24.968   5.220 -0.1356  0.2968 -0.2259
    1OPC    NC371542  18.971   7.287   2.306  0.2081 -0.1030 -0.0238
    1OPC    PO471543  19.406   7.249   2.610  0.0197 -0.2382 -0.1386
    1OPC    GL171544  19.110   7.304   2.893 -0.1781 -0.0113  0.3197
    1OPC    GL271545  19.165   7.151   3.235  0.0383 -0.0054  0.1725
    1OPC    C1B71546  19.018   6.813   3.595 -0.2145  0.0636 -0.1965
    1OPC    D2B71547  18.919   6.615   4.025  0.1358  0.0139  0.0489
    1OPC    C3B71548  18.482   6.639   4.272  0.0250 -0.2138  0.1110
    1OPC    C4B71549  18.237   6.838   4.564  0.0982  0.1557  0.2370
    1OPC    NC371550  10.319  29.841   2.408  0.0010 -0.1847  0.0068
    1OPC    PO471551  10.412  29.959   2.847 -0.1172  0.1677  0.0070
    1OPC    GL171552  10.316  30.060   3.273 -0.1685 -0.2823  0.1825
    1OPC    GL271553  10.321  30.130   3.492 -0.1425 -0.2488 -0.3592
    1OPC    C1B71554  10.306  30.045   3.849  0.0386 -0.1543 -0.2209
    1OPC    D2B71555  10.046  29.826   4.119  0.2568  0.1506  0.2931
    1OPC    C3B71556   9.719  29.975   4.404 -0.0674 -0.0926  0.2226
    1OPC    C4B71557   9.576  30.184   4.750 -0.0883  0.2703 -0.1129
    1OPC    NC371558  29.108  15.545   2.186  0.0976  0.1302 -0.2997
    1OPC    PO471559  28.852  15.366   2.509 -0.0738  0.3359 -0.0737
    1OPC    GL171560  29.067  15.269   2.861  0.0065 -0.1058 -0.3625
    1OPC    GL271561  29.309  15.183   3.020 -0.1082 -0.2083 -0.1876
    1OPC    C1B71562  29.394  15.094   3.485 -0.1463  0.1658 -0.0085
    1OPC    D2B71563  29.373  15.076   3.910  0.2131 -0.2249 -0.1690
    1OPC    C3B71564  29.414  15.475   4.140 -0.0293 -0.3132  0.0542
    1OPC    C4B71565  29.502  15.518   4.547 -0.1514  0.0312 -0.2830
    1OPC    NC371566   5.842   4.670   3.029  0.3345  0.1725 -0.1577
    1OPC    PO471567   5.866   4.273   3.293  0.0202  0.1916 -0.0596
    1OPC    GL171568   5.664   4.108   3.683  0.1931 -0.0530 -0.0598
    1OPC    GL271569   5.497   4.131   4.005 -0.1731 -0.2086  0.2096
    1OPC    C1B71570   5.529   4.072   4.474 -0.3107 -0.0786  0.3985
    1OPC    D2B71571   5.844   4.208   4.791 -0.1150 -0.2893 -0.1065
    1OPC    C3B71572   5.687   4.275   5.136  0.1185 -0.0095  0.1605
    1OPC    C4B71573   5.812   4.562   5.434 -0.1581 -0.2396  0.2323
    1OPC    NC371574  26.213  19.074   2.281 -0.1035  0.0508 -0.0442
    1OPC    PO471575  25.878  18.762   2.440 -0.1576 -0.1271 -0.0419
    1OPC    GL171576  25.734  18.418   2.669  0.2205  0.1717  0.2222
    1OPC    GL271577  25.452  18.445   2.803 -0.1500  0.4566  0.0316
    1OPC    C1B71578  25.376  18.477   3.284  0.2188  0.0315 -0.2553
    1OPC    D2B71579  25.288  18.445   3.697  0.3948 -0.0282  0.2301
    1OPC    C3B71580  25.132  18.326   4.108 -0.0984 -0.0271  0.0515
    1OPC    C4B71581  24.798  18.139   4.323  0.1183 -0.0287 -0.1776
    1OPC    NC371582  12.842   3.462   3.469  0.1193  0.1859  0.1418
    1OPC    PO471583  12.561   3.796   3.444 -0.1583  0.0344  0.1617
    1OPC    GL171584  12.533   3.665   3.842 -0.0425  0.1884 -0.1022
    1OPC    GL271585  12.592   3.694   4.140  0.1607 -0.0876 -0.3713
    1OPC    C1B71586  12.789   3.726   4.468  0.1360  0.1552  0.2039
    1OPC    D2B71587  12.814   3.861   4.828 -0.0009 -0.1808  0.2972
    1OPC    C3B71588  12.576   3.720   5.078 -0.1951  0.0106 -0.0505
    1OPC    C4B71589  12.397   3.484   5.399  0.0299  0.0794 -0.2460
    1OPC    NC371590  11.324  29.383   2.627 -0.0876 -0.2718 -0.1109
    1OPC    PO471591  11.679  29.031   2.744  0.0640 -0.0810 -0.2510
    1OPC    GL171592  11.697  28.745   3.138 -0.3716 -0.0224 -0.2415
    1OPC    GL271593  11.725  28.662   3.452 -0.0036 -0.0475  0.1285
    1OPC    C1B71594  11.561  28.747   3.869  0.3273  0.2051  0.1438
    1OPC    D2B71595  11.407  28.787   4.295  0.0025 -0.1206  0.0307
    1OPC    C3B71596  11.389  28.457   4.626  0.0480  0.1061  0.1899
    1OPC    C4B71597  11.259  28.112   4.918  0.4244 -0.0452 -0.1807
    1OPC    NC371598   3.152  11.366   2.611 -0.3900  0.1395 -0.2456
    1OPC    PO471599   3.324  10.923   2.782 -0.0439 -0.1680  0.3074
    1OPC    GL171600   3.490  11.027   3.059 -0.0385 -0.0409 -0.3731
    1OPC    GL271601   3.455  10.890   3.371 -0.3006  0.0177 -0.1319
    1OPC    C1B71602   3.354  10.873   3.940 -0.0891 -0.3899  0.0624
    1OPC    D2B71603   3.594  11.084   4.269 -0.0259  0.2799  0.1657
    1OPC    C3B71604   3.410  11.131   4.608 -0.1192 -0.1309  0.0558
    1OPC    C4B71605   3.133  11.109   4.901 -0.2492 -0.1732  0.0565
    1OPC    NC371606  29.684  21.898   1.570  0.0213  0.1165 -0.0287
    1OPC    PO471607  29.937  21.758   1.971 -0.0025  0.1508 -0.0991
    1OPC    GL171608  29.811  21.870   2.302 -0.0252 -0.0899  0.0389
    1OPC    GL271609  29.840  22.102   2.584 -0.3700  0.1729 -0.1569
    1OPC    C1B71610  29.927  22.119   3.012 -0.3877  0.1068 -0.3121
    1OPC    D2B71611  30.051  22.152   3.531  0.3114 -0.0002  0.1563
    1OPC    C3B71612  30.406  22.075   3.844 -0.0407  0.0092 -0.0097
    1OPC    C4B71613  30.445  22.278   4.275 -0.0705  0.0499 -0.0248
    1OPC    NC371614  21.441   0.406   2.704  0.0942 -0.1039 -0.0944
    1OPC    PO471615  21.824   0.181   2.830 -0.1932  0.2212 -0.2886
    1OPC    GL171616  21.799   0.457   3.094  0.5164  0.2235 -0.2064
    1OPC    GL271617  21.813   0.410   3.464 -0.0363 -0.0160 -0.1250
    1OPC    C1B71618  21.928   0.399   3.853  0.1966 -0.0846  0.2180
    1OPC    D2B71619  21.829   0.593   4.360  0.0739  0.3708 -0.1336
    1OPC    C3B71620  21.585   0.174   4.611 -0.0484 -0.1432 -0.1689
    1OPC    C4B71621  21.536   0.019   5.048  0.2028  0.3729 -0.1067
    1OPC    NC371622  26.767  26.535   2.574 -0.0162  0.1709  0.0956
    1OPC    PO471623  27.097  26.765   2.863  0.1663 -0.2178 -0.0122
    1OPC    GL171624  27.061  26.691   3.324  0.2673 -0.0519 -0.4666
    1OPC    GL271625  26.957  26.549   3.610 -0.0587 -0.2791 -0.3216
    1OPC    C1B71626  26.785  26.338   3.985 -0.2148  0.2144  0.0604
    1OPC    D2B71627  27.021  26.120   4.346  0.2612 -0.3403  0.0474
    1OPC    C3B71628  26.812  25.928   4.696  0.1728 -0.1043  0.1439
    1OPC    C4B71629  26.743  25.789   5.159 -0.0481 -0.0960  0.2030
    1OPC    NC371630  13.967   5.743   3.040 -0.0213 -0.1755 -0.0264
    1OPC    PO471631  14.287   6.024   2.886 -0.0522  0.3294 -0.0679
    1OPC    GL171632  14.236   6.058   3.345 -0.1604  0.1104  0.1801
    1OPC    GL271633  14.262   6.104   3.573 -0.0107  0.0229 -0.1531
    1OPC    C1B71634  14.139   6.149   3.928 -0.1777  0.1957  0.1708
    1OPC    D2B71635  14.209   6.270   4.321  0.1480  0.1387  0.1948
    1OPC    C3B71636  14.378   6.631   4.604  0.0857  0.0016 -0.1704
    1OPC    C4B71637  14.598   6.778   4.819  0.1448  0.3813  0.2072
    1OPC    NC371638  20.022   9.137   1.918  0.0330 -0.0040 -0.1922
    1OPC    PO471639  20.298   9.257   2.239  0.1888  0.1577 -0.1631
    1OPC    GL171640  20.434   9.100   2.600 -0.0019  0.0350 -0.1566
    1OPC    GL271641  20.544   9.296   2.918  0.1483  0.1033  0.0007
    1OPC    C1B71642  20.566   9.341   3.288  0.0142  0.1473  0.3982
    1OPC    D2B71643  20.351   9.348   3.725  0.0166 -0.0893  0.0062
    1OPC    C3B71644  20.058   9.639   3.891  0.1520 -0.0879 -0.0568
    1OPC    C4B71645  19.787   9.955   3.994 -0.3007  0.0694  0.2757
    1OPC    NC371646   6.349   5.334   2.894  0.2553  0.2422  0.1968
    1OPC    PO471647   6.443   5.416   3.344 -0.0887 -0.0787  0.0743
    1OPC    GL171648   6.148   5.180   3.650  0.3292  0.0529  0.1126
    1OPC    GL271649   6.030   4.961   3.846 -0.1309 -0.1822  0.1761
    1OPC    C1B71650   5.843   4.984   4.155  0.0457 -0.1015 -0.1586
    1OPC    D2B71651   5.694   5.257   4.406 -0.3112  0.0244 -0.0030
    1OPC    C3B71652   5.603   5.099   4.792  0.2936 -0.2675 -0.1774
    1OPC    C4B71653   5.602   4.817   5.050  0.1115  0.1508 -0.3097
    1OPC    NC371654   4.076  17.854   1.196 -0.0702  0.0045  0.3003
    1OPC    PO471655   4.105  17.575   1.658  0.0273 -0.2383  0.2019
    1OPC    GL171656   4.292  17.687   2.115  0.0357 -0.1595 -0.1485
    1OPC    GL271657   4.341  17.895   2.386  0.1742  0.0523  0.3855
    1OPC    C1B71658   4.262  18.174   2.797  0.0190  0.2278  0.0426
    1OPC    D2B71659   3.861  18.183   3.001 -0.0687 -0.1117  0.0188
    1OPC    C3B71660   3.857  18.157   3.430  0.0523 -0.2298 -0.0194
    1OPC    C4B71661   3.969  18.248   3.881  0.0362  0.2811 -0.1515
    1OPC    NC371662  13.083  23.044   1.664 -0.0617 -0.0230  0.4384
    1OPC    PO471663  13.332  23.040   2.068  0.0163  0.0910 -0.5716
    1OPC    GL171664  13.127  23.194   2.360  0.1406  0.4131  0.0920
    1OPC    GL271665  13.027  23.204   2.602 -0.2651  0.0729  0.0268
    1OPC    C1B71666  12.836  23.108   2.977 -0.3665 -0.1195  0.0079
    1OPC    D2B71667  12.762  23.116   3.465 -0.3074  0.0638  0.1515
    1OPC    C3B71668  13.081  22.904   3.706  0.2458  0.2444  0.1507
    1OPC    C4B71669  13.277  22.614   4.078  0.0783  0.1020  0.1698
    1OPC    NC371670  16.657   9.219   1.773  0.1461  0.0316  0.3589
    1OPC    PO471671  16.967   8.804   1.875 -0.1993 -0.2088 -0.1444
    1OPC    GL171672  16.672   8.716   2.358  0.1700  0.1292 -0.3889
    1OPC    GL271673  16.522   8.726   2.699  0.1190  0.0933 -0.1069
    1OPC    C1B71674  16.701   8.797   3.162  0.2260 -0.0617  0.1108
    1OPC    D2B71675  16.891   8.949   3.378 -0.2271 -0.3766 -0.0691
    1OPC    C3B71676  16.873   9.090   3.838 -0.1011 -0.0875  0.0724
    1OPC    C4B71677  16.614   9.131   4.050 -0.0370 -0.2573  0.0409
    1OPC    NC371678  26.695  12.723   1.969  0.3111  0.0596 -0.0264
    1OPC    PO471679  26.894  13.017   2.265 -0.0310 -0.1102 -0.1734
    1OPC    GL171680  26.844  12.743   2.686 -0.4160  0.0542  0.0186
    1OPC    GL271681  27.018  12.704   2.906 -0.2915 -0.2173  0.2043
    1OPC    C1B71682  26.908  12.703   3.411  0.6677 -0.1870 -0.0221
    1OPC    D2B71683  26.940  12.657   3.861  0.3368  0.3355  0.1806
    1OPC    C3B71684  26.556  12.800   4.025 -0.2045  0.2491 -0.2102
    1OPC    C4B71685  26.237  12.886   3.927 -0.1992  0.0698 -0.1611
    1OPC    NC371686  15.829  29.328   3.383 -0.2082  0.0005  0.0342
    1OPC    PO471687  16.061  28.995   3.220  0.1322 -0.1107  0.2896
    1OPC    GL171688  16.265  28.827   3.521 -0.1231  0.1294 -0.1509
    1OPC    GL271689  16.478  28.962   3.775 -0.0552 -0.0009 -0.4295
    1OPC    C1B71690  16.804  29.223   3.900 -0.0591 -0.2627  0.1221
    1OPC    D2B71691  16.932  29.261   4.314  0.2456  0.1641  0.2023
    1OPC    C3B71692  17.150  29.584   4.336 -0.0340  0.3471 -0.2084
    1OPC    C4B71693  17.240  29.947   4.201  0.2840 -0.0952  0.1047
    1OPC    NC371694  19.714  28.071   2.601 -0.0836 -0.0590 -0.3337
    1OPC    PO471695  19.748  27.932   2.955  0.1262  0.2952 -0.1238
    1OPC    GL171696  20.040  27.763   3.355  0.0303 -0.2919  0.1302
    1OPC    GL271697  20.139  27.521   3.479 -0.0011 -0.1949  0.0797
    1OPC    C1B71698  20.302  27.220   3.752  0.0327 -0.0344 -0.1420
    1OPC    D2B71699  20.569  27.080   4.076 -0.0965 -0.0032 -0.0217
    1OPC    C3B71700  20.495  26.730   4.385  0.1136 -0.4305 -0.0667
    1OPC    C4B71701  20.342  26.589   4.843 -0.4121 -0.2089 -0.2637
    1OPC    NC371702   0.764   8.283   2.381 -0.1072  0.0820  0.1055
    1OPC    PO471703   0.613   7.883   2.523 -0.1560 -0.2997  0.0957
    1OPC    GL171704   0.489   8.123   2.942 -0.2760 -0.0680 -0.1683
    1OPC    GL271705   0.542   8.188   3.269  0.1476 -0.1713  0.1727
    1OPC    C1B71706   0.662   8.057   3.702  0.0077 -0.0289 -0.0156
    1OPC    D2B71707   0.799   8.173   4.212 -0.0471  0.0184  0.1935
    1OPC    C3B71708   0.927   8.036   4.411  0.0209 -0.0484 -0.0696
    1OPC    C4B71709   1.124   7.652   4.469  0.2629 -0.0846  0.3996
    1OPC    NC371710   2.465   8.129   3.032 -0.0784  0.1781  0.2853
    1OPC    PO471711   2.106   8.493   3.124 -0.0625 -0.1198 -0.2770
    1OPC    GL171712   2.055   8.175   3.439 -0.1889  0.0496  0.0868
    1OPC    GL271713   2.205   8.031   3.628 -0.1036 -0.0561  0.2164
    1OPC    C1B71714   2.197   7.961   4.055  0.2397 -0.2730 -0.0076
    1OPC    D2B71715   1.969   7.805   4.464  0.2015  0.1858  0.1692
    1OPC    C3B71716   1.558   7.890   4.614 -0.1061  0.2097 -0.1477
    1OPC    C4B71717   1.370   7.974   4.995  0.1818 -0.0816 -0.0236
    1OPC    NC371718  14.434   5.123   3.110  0.0753  0.1247 -0.0343
    1OPC    PO471719  14.008   5.303   2.822  0.2597  0.0138 -0.0368
    1OPC    GL171720  13.952   5.261   3.266  0.1222 -0.0400  0.0049
    1OPC    GL271721  13.966   5.402   3.466 -0.1067 -0.0337  0.0509
    1OPC    C1B71722  14.109   5.618   3.810 -0.2636 -0.0857 -0.0571
    1OPC    D2B71723  14.302   5.677   4.261 -0.2772  0.0460 -0.0742
    1OPC    C3B71724  14.127   5.640   4.631  0.5738 -0.0370  0.1030
    1OPC    C4B71725  13.830   5.745   4.955  0.4486  0.2352  0.0523
    1OPC    NC371726   0.436  18.010   2.074  0.0900 -0.3197 -0.1180
    1OPC    PO471727   0.877  17.897   2.221  0.2244 -0.1105  0.0040
    1OPC    GL171728   1.121  17.869   2.575  0.2869 -0.0864 -0.0231
    1OPC    GL271729   1.165  17.694   2.857  0.2254 -0.1220 -0.5624
    1OPC    C1B71730   1.023  17.806   3.308 -0.1491  0.0341 -0.1755
    1OPC    D2B71731   0.943  17.914   3.694  0.1716 -0.0440  0.1260
    1OPC    C3B71732   0.617  17.887   4.091  0.4147 -0.0518 -0.4292
    1OPC    C4B71733   0.438  18.110   4.401  0.0504 -0.0330 -0.3200
    1OPC    NC371734  18.387  26.862   2.830  0.1379 -0.1923  0.1975
    1OPC    PO471735  18.421  27.072   3.247  0.2377  0.1316  0.0937
    1OPC    GL171736  18.536  27.345   3.614  0.0599  0.1461 -0.1133
    1OPC    GL271737  18.708  27.256   3.900 -0.0942 -0.1427  0.2261
    1OPC    C1B71738  18.730  26.994   4.180 -0.1386 -0.0551 -0.1523
    1OPC    D2B71739  18.726  27.154   4.640  0.3303  0.0561  0.2178
    1OPC    C3B71740  18.423  27.254   4.856 -0.2203  0.0298 -0.3535
    1OPC    C4B71741  18.406  27.599   5.109  0.0196 -0.3827 -0.2404
    1OPC    NC371742   3.832  10.930   2.705 -0.0044  0.1296  0.0138
    1OPC    PO471743   3.667  11.317   2.656  0.1637  0.1205  0.1824
    1OPC    GL171744   3.775  11.408   3.033 -0.1987 -0.3386 -0.0423
    1OPC    GL271745   3.947  11.445   3.376  0.2965  0.0876 -0.1383
    1OPC    C1B71746   3.996  11.552   3.791  0.0387  0.0105  0.0429
    1OPC    D2B71747   3.958  11.379   4.148 -0.2461  0.0090 -0.1569
    1OPC    C3B71748   4.178  11.618   4.460 -0.0885  0.2335  0.1036
    1OPC    C4B71749   4.622  11.828   4.621  0.1580  0.2856 -0.0329
    1OPC    NC371750  21.217  21.928   3.086 -0.3137 -0.3450 -0.2877
    1OPC    PO471751  20.977  22.129   3.362  0.2504  0.0133  0.2087
    1OPC    GL171752  20.723  22.189   3.618 -0.0476  0.0146  0.0926
    1OPC    GL271753  20.691  22.256   3.902  0.0673 -0.2574  0.1503
    1OPC    C1B71754  20.793  22.324   4.333  0.0181  0.1386 -0.0925
    1OPC    D2B71755  20.623  22.024   4.644  0.4001  0.1601 -0.0710
    1OPC    C3B71756  20.250  22.213   4.889 -0.4191 -0.1246 -0.0135
    1OPC    C4B71757  19.893  22.376   5.115  0.0674 -0.1780 -0.0669
    1OPC    NC371758   0.678   4.712   2.075  0.0498 -0.2205 -0.0058
    1OPC    PO471759   0.400   4.927   2.407  0.0722  0.1139  0.2060
    1OPC    GL171760   0.479   5.186   2.815 -0.1621  0.0171 -0.0711
    1OPC    GL271761   0.539   5.359   3.085  0.0064  0.0493  0.1781
    1OPC    C1B71762   0.506   5.153   3.547 -0.0541 -0.0864  0.1634
    1OPC    D2B71763   0.633   4.909   3.900  0.0210  0.0386 -0.0303
    1OPC    C3B71764   0.656   5.048   4.341  0.1310  0.0182  0.1312
    1OPC    C4B71765   0.660   5.245   4.687  0.0377  0.0046  0.1531
    1OPC    NC371766  26.960  15.730   2.079  0.1700  0.4291 -0.2864
    1OPC    PO471767  27.193  15.417   2.254 -0.1910 -0.0514 -0.0770
    1OPC    GL171768  27.060  15.511   2.657  0.0416  0.0781  0.3575
    1OPC    GL271769  26.743  15.566   2.845 -0.1739  0.1456  0.1260
    1OPC    C1B71770  26.685  15.458   3.224  0.2539  0.1646 -0.0584
    1OPC    D2B71771  26.715  15.344   3.653 -0.1260  0.2360  0.3233
    1OPC    C3B71772  26.687  15.588   4.095 -0.6000  0.1888 -0.0184
    1OPC    C4B71773  26.751  15.838   4.497 -0.0010 -0.1989  0.1160
    1OPC    NC371774  26.383  23.499   2.669  0.1012 -0.0011 -0.0663
    1OPC    PO471775  26.464  23.951   2.649 -0.2385 -0.1227  0.0122
    1OPC    GL171776  26.377  23.845   2.979  0.2976 -0.1348 -0.0887
    1OPC    GL271777  26.529  23.976   3.333 -0.3008  0.0176  0.1412
    1OPC    C1B71778  26.843  24.134   3.643 -0.1557  0.0552 -0.1594
    1OPC    D2B71779  27.008  24.289   4.062  0.0271 -0.2616  0.1774
    1OPC    C3B71780  26.978  24.448   4.433 -0.0709 -0.1848 -0.3317
    1OPC    C4B71781  27.168  24.371   4.760  0.0561  0.1206  0.2540
    1OPC    NC371782  24.052   6.174   2.880  0.2742 -0.2657 -0.0566
    1OPC    PO471783  23.710   6.024   3.049  0.0458 -0.2241 -0.2322
    1OPC    GL171784  23.858   6.283   3.351 -0.1081  0.2828  0.0216
    1OPC    GL271785  24.026   6.222   3.691 -0.1523  0.2939 -0.2458
    1OPC    C1B71786  23.851   6.238   4.122 -0.0437  0.1255 -0.1737
    1OPC    D2B71787  23.885   6.111   4.590 -0.1962 -0.2173 -0.0898
    1OPC    C3B71788  23.384   6.115   4.617 -0.0526 -0.0024 -0.1565
    1OPC    C4B71789  22.972   6.112   4.849  0.0127 -0.0231  0.2166
    1OPC    NC371790  23.402  22.929   2.832 -0.1623 -0.0684  0.0527
    1OPC    PO471791  23.112  22.618   2.996  0.0055  0.2940 -0.3758
    1OPC    GL171792  23.146  22.740   3.460  0.0911 -0.0092 -0.0349
    1OPC    GL271793  23.043  22.888   3.711 -0.0367 -0.1188 -0.2557
    1OPC    C1B71794  23.054  22.866   4.117 -0.0470 -0.2618  0.0847
    1OPC    D2B71795  23.225  22.540   4.326  0.0583  0.0321  0.1785
    1OPC    C3B71796  23.016  22.689   4.648  0.0623  0.3354  0.1718
    1OPC    C4B71797  23.035  23.079   4.957  0.0475 -0.1671 -0.1582
    1OPC    NC371798  26.193  10.005   2.498 -0.1699 -0.1672 -0.0440
    1OPC    PO471799  25.826   9.722   2.394  0.1553  0.3763 -0.1483
    1OPC    GL171800  26.008   9.669   2.766 -0.1139  0.1263 -0.1323
    1OPC    GL271801  25.987   9.801   3.086  0.2600 -0.0593  0.0875
    1OPC    C1B71802  25.845   9.768   3.560  0.2006 -0.0428  0.1997
    1OPC    D2B71803  25.969   9.951   3.902  0.2757  0.2332  0.1798
    1OPC    C3B71804  26.027   9.632   4.194 -0.2049 -0.1183  0.1360
    1OPC    C4B71805  26.334   9.683   4.572 -0.4724 -0.0464 -0.2734
    1OPC    NC371806  25.285  24.331   2.445  0.0636  0.3030  0.0788
    1OPC    PO471807  25.747  24.364   2.500  0.0686 -0.1399 -0.0218
    1OPC    GL171808  25.965  24.131   2.757  0.1883 -0.0890 -0.3599
    1OPC    GL271809  25.973  24.170   3.170  0.2227 -0.1459 -0.0268
    1OPC    C1B71810  26.080  24.085   3.628  0.2061 -0.0525  0.0402
    1OPC    D2B71811  26.127  23.933   4.122 -0.0916  0.0760 -0.0373
    1OPC    C3B71812  25.790  23.588   4.264 -0.1987  0.0886 -0.1514
    1OPC    C4B71813  25.350  23.588   4.232 -0.1895 -0.2296 -0.2549
    1OPC    NC371814  14.508   2.058   3.642 -0.0939  0.2532 -0.0394
    1OPC    PO471815  14.977   2.207   3.550 -0.3291  0.3708  0.1859
    1OPC    GL171816  14.910   2.216   4.006  0.0936  0.2937  0.0169
    1OPC    GL271817  14.852   2.425   4.184  0.0187 -0.0689  0.0760
    1OPC    C1B71818  14.686   2.501   4.600 -0.2469 -0.0354  0.2780
    1OPC    D2B71819  14.959   2.549   5.099 -0.1783  0.0015 -0.1811
    1OPC    C3B71820  14.975   2.972   5.238  0.0178  0.2667  0.1503
    1OPC    C4B71821  14.976   3.440   5.200 -0.0139  0.2699 -0.1759
    1OPC    NC371822   7.536  22.613   0.974  0.0956 -0.0834  0.1656
    1OPC    PO471823   7.564  22.585   1.475  0.0139  0.3624  0.1389
    1OPC    GL171824   7.396  22.376   1.778  0.3571 -0.3296 -0.0427
    1OPC    GL271825   7.567  22.192   2.070 -0.0348  0.0100 -0.0602
    1OPC    C1B71826   7.423  22.089   2.493 -0.0708 -0.2281  0.0418
    1OPC    D2B71827   7.172  22.166   2.895  0.0592 -0.0422 -0.2375
    1OPC    C3B71828   7.293  21.921   3.248 -0.1205  0.0792  0.0030
    1OPC    C4B71829   7.435  21.573   3.603  0.2751  0.0746  0.1969
    1OPC    NC371830  10.135   5.164   2.661  0.1160  0.0985 -0.2299
    1OPC    PO471831   9.966   4.915   3.085 -0.0039  0.0616 -0.2887
    1OPC    GL171832   9.812   4.841   3.511 -0.1753 -0.1978 -0.2978
    1OPC    GL271833   9.962   4.764   3.856  0.1858 -0.0906  0.1798
    1OPC    C1B71834   9.715   4.928   4.172  0.0947  0.1359  0.2402
    1OPC    D2B71835   9.473   5.068   4.312  0.1607 -0.2434 -0.6053
    1OPC    C3B71836   9.472   5.617   4.498 -0.1409  0.0439  0.1471
    1OPC    C4B71837   9.230   6.075   4.544 -0.1208  0.1864 -0.1771
    1OPC    NC371838  19.456  27.895   3.391  0.4472 -0.0113  0.0306
    1OPC    PO471839  18.954  27.938   3.376 -0.0761 -0.1273 -0.0737
    1OPC    GL171840  19.007  27.632   3.602  0.1505 -0.1143  0.1581
    1OPC    GL271841  19.111  27.547   3.851  0.0921 -0.0216  0.2559
    1OPC    C1B71842  19.045  27.332   4.286 -0.1734  0.2041  0.3859
    1OPC    D2B71843  19.224  27.199   4.636 -0.1794  0.0276 -0.0312
    1OPC    C3B71844  19.525  27.053   4.936 -0.0951 -0.0124  0.2880
    1OPC    C4B71845  19.729  26.623   5.071 -0.1643 -0.1430  0.0234
    1OPC    NC371846   1.602  19.569   1.989 -0.0842  0.2047 -0.0858
    1OPC    PO471847   1.156  19.591   2.114  0.0259  0.1691 -0.0165
    1OPC    GL171848   1.202  19.524   2.562  0.0026  0.0116 -0.1815
    1OPC    GL271849   1.390  19.550   2.861  0.0346  0.1402  0.2178
    1OPC    C1B71850   1.576  19.456   3.249 -0.0093 -0.3149 -0.0671
    1OPC    D2B71851   1.769  19.639   3.694  0.0145 -0.0305  0.0683
    1OPC    C3B71852   1.572  19.853   4.051  0.0356  0.0599  0.0065
    1OPC    C4B71853   1.331  19.965   4.363  0.0482 -0.0376  0.1495
    1OPC    NC371854  22.722  22.368   3.094 -0.3670 -0.1426 -0.0665
    1OPC    PO471855  22.253  22.454   3.138 -0.1636 -0.0567  0.1911
    1OPC    GL171856  22.254  22.886   3.504  0.1350  0.0164 -0.0920
    1OPC    GL271857  22.483  23.037   3.667 -0.3704 -0.3102 -0.4971
    1OPC    C1B71858  22.611  23.205   4.099 -0.2079  0.1441 -0.0865
    1OPC    D2B71859  22.563  23.487   4.398  0.0888  0.2281  0.0167
    1OPC    C3B71860  22.812  23.514   4.840  0.2312  0.1262 -0.0532
    1OPC    C4B71861  22.961  23.525   5.275  0.0442 -0.4019 -0.1469
    1OPC    NC371862  27.261  13.264   1.458 -0.1268  0.2968 -0.1124
    1OPC    PO471863  27.462  13.280   1.782  0.2022  0.1770 -0.0632
    1OPC    GL171864  27.403  13.396   2.220 -0.1082  0.1764 -0.0691
    1OPC    GL271865  27.221  13.533   2.429  0.1355  0.1607 -0.2895
    1OPC    C1B71866  27.163  13.614   2.867 -0.1208 -0.1207 -0.5278
    1OPC    D2B71867  27.194  13.959   3.116 -0.2547  0.2059 -0.2349
    1OPC    C3B71868  26.844  14.088   3.406 -0.3643  0.1323  0.0775
    1OPC    C4B71869  26.609  14.389   3.535 -0.2438 -0.1504 -0.0464
    1OPC    NC371870   2.929  10.032   2.579  0.0382 -0.0205 -0.2728
    1OPC    PO471871   2.647   9.883   2.944 -0.7074 -0.0293 -0.0109
    1OPC    GL171872   2.652   9.945   3.320 -0.0563  0.0357 -0.2298
    1OPC    GL271873   2.593   9.776   3.583 -0.2947  0.0539  0.1482
    1OPC    C1B71874   2.467   9.614   3.982 -0.0418  0.0743  0.3172
    1OPC    D2B71875   2.538   9.556   4.471 -0.1122  0.0451  0.1345
    1OPC    C3B71876   2.776   9.648   4.732  0.1114 -0.1449  0.0589
    1OPC    C4B71877   2.949   9.717   5.204 -0.0984  0.2549 -0.0144
    1OPC    NC371878  23.636  10.745   1.923  0.2775 -0.0591 -0.1150
    1OPC    PO471879  23.964  11.055   2.075  0.2355  0.1054 -0.0896
    1OPC    GL171880  23.982  10.954   2.465 -0.1063 -0.0630 -0.0233
    1OPC    GL271881  23.799  10.811   2.648 -0.0967 -0.1370  0.0567
    1OPC    C1B71882  23.762  10.721   3.057 -0.2151 -0.1153  0.2794
    1OPC    D2B71883  24.103  10.640   3.384  0.0100 -0.1264  0.2929
    1OPC    C3B71884  23.920  10.646   3.818 -0.3806  0.0305  0.1266
    1OPC    C4B71885  23.631  10.829   4.114  0.3293 -0.1805 -0.0842
    1OPC    NC371886  29.626   6.655   2.488  0.0218 -0.4102 -0.2282
    1OPC    PO471887  29.283   6.947   2.548 -0.1286  0.2158 -0.0100
    1OPC    GL171888  29.026   6.907   2.911 -0.2878 -0.0604  0.1650
    1OPC    GL271889  29.047   6.836   3.178  0.0430  0.0640  0.3269
    1OPC    C1B71890  28.812   6.881   3.579 -0.0531  0.0403 -0.0635
    1OPC    D2B71891  28.785   6.705   3.958 -0.0176 -0.0551 -0.1834
    1OPC    C3B71892  28.674   6.867   4.417  0.0261 -0.0030  0.1791
    1OPC    C4B71893  28.589   7.256   4.596  0.0905  0.0606 -0.0213
    1OPC    NC371894  19.913   1.612   2.632 -0.0288  0.0483  0.1448
    1OPC    PO471895  20.403   1.557   2.550 -0.1890 -0.1693 -0.1015
    1OPC    GL171896  20.690   1.509   2.882 -0.1866 -0.0378  0.2564
    1OPC    GL271897  20.738   1.588   3.195 -0.0107  0.1187  0.1591
    1OPC    C1B71898  20.697   1.702   3.664  0.2216  0.0485  0.0272
    1OPC    D2B71899  20.756   1.986   4.029 -0.1679  0.0290 -0.1429
    1OPC    C3B71900  20.409   1.969   4.445  0.1081 -0.0602  0.0536
    1OPC    C4B71901  19.977   1.783   4.653  0.2025 -0.3932 -0.2090
    1OPC    NC371902   2.597  27.879   2.300  0.0315 -0.1023  0.0762
    1OPC    PO471903   2.103  27.780   2.389 -0.2927 -0.0031 -0.0544
    1OPC    GL171904   2.398  27.780   2.804  0.1525 -0.3154  0.2001
    1OPC    GL271905   2.390  27.946   3.104 -0.0602 -0.2686  0.2333
    1OPC    C1B71906   2.285  28.228   3.495 -0.1799  0.0078 -0.1726
    1OPC    D2B71907   2.096  28.185   3.875  0.3304  0.0571  0.5053
    1OPC    C3B71908   1.631  28.306   3.924  0.0439 -0.2787 -0.0772
    1OPC    C4B71909   1.422  28.390   4.281 -0.0750 -0.2676 -0.5102
    1OPC    NC371910   5.459  29.470   2.410 -0.0051 -0.0985  0.1653
    1OPC    PO471911   5.487  29.632   2.799  0.0634  0.0272 -0.0348
    1OPC    GL171912   5.246  29.653   3.217  0.4095  0.0204  0.1169
    1OPC    GL271913   5.352  29.711   3.568 -0.3215  0.1238  0.0128
    1OPC    C1B71914   5.632  29.590   3.827  0.1840 -0.4124 -0.0883
    1OPC    D2B71915   5.924  29.647   4.063  0.1194 -0.0805 -0.1675
    1OPC    C3B71916   6.287  29.359   4.184  0.0489  0.0171 -0.0771
    1OPC    C4B71917   6.343  28.908   4.228  0.0264 -0.0155 -0.2115
    1OPC    NC371918  14.976  27.232   2.654  0.0248  0.3956  0.2410
    1OPC    PO471919  15.299  27.062   2.781  0.0017 -0.1714  0.1936
    1OPC    GL171920  15.143  27.208   3.125 -0.2022  0.2522 -0.1458
    1OPC    GL271921  15.211  27.191   3.473  0.2205  0.2020 -0.1127
    1OPC    C1B71922  15.242  26.949   3.795 -0.0575 -0.1348  0.1168
    1OPC    D2B71923  15.447  26.862   4.174  0.0363  0.0046 -0.0716
    1OPC    C3B71924  15.311  26.804   4.618  0.0711  0.0438  0.0559
    1OPC    C4B71925  15.479  26.642   4.960 -0.0378  0.1254  0.0330
    1OPC    NC371926  28.590  15.167   2.117  0.1497 -0.2112 -0.2969
    1OPC    PO471927  28.461  14.818   2.298 -0.1348  0.2483 -0.2965
    1OPC    GL171928  28.664  14.924   2.698  0.0830 -0.0513  0.1343
    1OPC    GL271929  28.543  15.045   2.987  0.1727 -0.0370 -0.1579
    1OPC    C1B71930  28.844  14.982   3.360  0.0555  0.0040 -0.0418
    1OPC    D2B71931  29.010  14.774   3.756  0.4209 -0.3309 -0.0802
    1OPC    C3B71932  29.156  14.455   3.990 -0.1560  0.2812 -0.1346
    1OPC    C4B71933  29.319  14.170   4.188 -0.1451 -0.0310 -0.0304
    1OPC    NC371934   6.245   2.786   3.301 -0.0157 -0.0628 -0.2615
    1OPC    PO471935   5.962   2.674   3.482  0.0129  0.3601 -0.1397
    1OPC    GL171936   6.128   2.343   3.764 -0.0902  0.0376 -0.2657
    1OPC    GL271937   6.108   2.257   4.005  0.0604 -0.2407  0.0760
    1OPC    C1B71938   5.879   2.376   4.328 -0.1290  0.2037  0.1137
    1OPC    D2B71939   5.639   2.570   4.487  0.2446  0.0702  0.0622
    1OPC    C3B71940   5.781   2.605   4.931 -0.1554  0.1435  0.1066
    1OPC    C4B71941   6.101   2.525   5.297 -0.0861 -0.1497 -0.0454
    1OPC    NC371942  23.263  21.448   2.263  0.0793  0.0315 -0.1587
    1OPC    PO471943  23.516  21.381   2.409  0.0027  0.0212  0.0354
    1OPC    GL171944  23.697  21.398   2.783  0.1329  0.0059 -0.1642
    1OPC    GL271945  23.676  21.289   3.157 -0.0369 -0.0802  0.0487
    1OPC    C1B71946  23.606  21.215   3.603 -0.1016  0.0414  0.2333
    1OPC    D2B71947  23.853  21.308   3.883 -0.2062 -0.1342 -0.3231
    1OPC    C3B71948  23.756  21.547   4.195 -0.0223 -0.2513  0.0921
    1OPC    C4B71949  23.722  21.601   4.587 -0.2339  0.0536 -0.1390
    1OPC    NC371950   2.807   7.334   3.205  0.3932 -0.2384 -0.2223
    1OPC    PO471951   2.573   7.627   2.935  0.0752  0.0623  0.0436
    1OPC    GL171952   2.400   7.646   3.312  0.2500 -0.1541  0.1723
    1OPC    GL271953   2.343   7.510   3.614 -0.3386 -0.2674 -0.0694
    1OPC    C1B71954   2.197   7.189   3.931  0.3552  0.0138  0.1998
    1OPC    D2B71955   2.288   7.020   4.374  0.0612 -0.3622 -0.4409
    1OPC    C3B71956   1.889   6.913   4.582 -0.0438 -0.1269  0.1116
    1OPC    C4B71957   1.678   6.828   4.924 -0.0793  0.1048  0.0427
    1OPC    NC371958   8.633  25.040   2.274 -0.1643  0.0307  0.0518
    1OPC    PO471959   8.714  24.665   2.514  0.0132  0.0917 -0.2749
    1OPC    GL171960   8.821  24.435   2.794 -0.1424 -0.2432 -0.0045
    1OPC    GL271961   8.755  24.206   3.043  0.1924 -0.1745  0.2355
    1OPC    C1B71962   8.818  24.064   3.474 -0.2250  0.1163 -0.1180
    1OPC    D2B71963   8.909  24.223   3.878 -0.1548 -0.0719  0.1133
    1OPC    C3B71964   9.206  24.529   3.985 -0.1734  0.0344  0.1559
    1OPC    C4B71965   9.352  24.883   4.200 -0.2758 -0.0027  0.1065
    1OPC    NC371966   1.081   4.362   2.791  0.1706 -0.0294 -0.1213
    1OPC    PO471967   0.714   4.372   2.536  0.2216 -0.1494 -0.1464
    1OPC    GL171968   0.409   4.183   2.834  0.0145  0.0822 -0.1681
    1OPC    GL271969   0.446   4.215   3.135  0.0441  0.0828 -0.2413
    1OPC    C1B71970   0.715   4.112   3.488  0.1187 -0.1642  0.0087
    1OPC    D2B71971   0.957   4.235   3.840  0.0018  0.0520  0.0383
    1OPC    C3B71972   1.176   3.911   4.009 -0.0474 -0.1783 -0.0975
    1OPC    C4B71973   1.514   3.886   4.109 -0.0174  0.0465  0.0300
    1OPC    NC371974  11.886  24.700   1.418  0.0987 -0.0589  0.1397
    1OPC    PO471975  11.752  24.743   1.886 -0.0428 -0.1529 -0.3465
    1OPC    GL171976  11.592  24.804   2.235 -0.2323 -0.0697 -0.0033
    1OPC    GL271977  11.786  24.828   2.603 -0.1672  0.1956 -0.2842
    1OPC    C1B71978  11.966  24.675   3.092 -0.1144 -0.0199 -0.0372
    1OPC    D2B71979  12.273  24.435   3.340  0.3776  0.1986  0.1295
    1OPC    C3B71980  12.195  24.112   3.676  0.0711 -0.2120  0.0368
    1OPC    C4B71981  12.437  23.986   3.956 -0.2121 -0.1030 -0.3178
    1OPC    NC371982  20.443  24.232   2.510  0.1412 -0.1932  0.1374
    1OPC    PO471983  20.420  24.327   2.895  0.0489 -0.0420  0.0031
    1OPC    GL171984  20.505  24.583   3.331  0.1878  0.1741  0.1791
    1OPC    GL271985  20.640  24.549   3.648  0.2915  0.2879 -0.1190
    1OPC    C1B71986  20.643  24.596   4.161  0.0813  0.0179 -0.1295
    1OPC    D2B71987  20.923  24.783   4.439  0.1432 -0.1975 -0.0505
    1OPC    C3B71988  20.726  24.991   4.725  0.0078  0.5091 -0.0389
    1OPC    C4B71989  20.445  24.931   4.966  0.0957 -0.3109  0.0539
    1OPC    NC371990   2.386  24.311   1.350  0.1621  0.0059  0.0846
    1OPC    PO471991   2.040  24.069   1.610  0.2001 -0.1053  0.0800
    1OPC    GL171992   2.093  24.128   2.070  0.1306  0.0101 -0.0984
    1OPC    GL271993   2.139  24.215   2.337 -0.0690 -0.1651 -0.0974
    1OPC    C1B71994   2.271  24.263   2.820  0.1714 -0.2586 -0.1562
    1OPC    D2B71995   2.465  24.619   3.163 -0.1442 -0.0403 -0.3424
    1OPC    C3B71996   2.840  24.683   3.423  0.1328 -0.0591  0.2680
    1OPC    C4B71997   3.232  24.804   3.192  0.3850  0.3147  0.0741
    1OPC    NC371998   6.284  11.586   2.401 -0.0408  0.2000 -0.0462
    1OPC    PO471999   6.417  11.827   2.736  0.1084  0.0842  0.4670
    1OPC    GL172000   6.215  11.837   3.098 -0.0439  0.0947 -0.0607
    1OPC    GL272001   6.034  11.859   3.401 -0.2803 -0.0296  0.1490
    1OPC    C1B72002   6.082  11.799   3.810  0.1620  0.0302 -0.0098
    1OPC    D2B72003   6.080  11.918   4.274  0.1261  0.1688  0.0810
    1OPC    C3B72004   6.285  12.256   4.425 -0.0492  0.0857 -0.1880
    1OPC    C4B72005   6.169  12.622   4.359  0.3467 -0.3188 -0.0170
    1OPC    NC372006  23.290  20.287   2.508 -0.1721 -0.0719  0.1513
    1OPC    PO472007  23.361  20.593   2.860  0.0424  0.0718  0.1959
    1OPC    GL172008  23.243  20.546   3.305  0.1276  0.0039 -0.0075
    1OPC    GL272009  23.429  20.690   3.584  0.0336 -0.0233 -0.1459
    1OPC    C1B72010  23.588  20.844   3.963 -0.0789 -0.2016 -0.1458
    1OPC    D2B72011  23.530  20.630   4.327 -0.1650 -0.0398  0.0885
    1OPC    C3B72012  23.855  20.359   4.585  0.0463 -0.6522  0.0150
    1OPC    C4B72013  23.735  20.133   4.926  0.0506 -0.3111 -0.3037
    1OPC    NC372014  21.120   7.851   2.490  0.2926  0.1203 -0.0539
    1OPC    PO472015  20.692   8.167   2.302 -0.1307  0.1807 -0.0616
    1OPC    GL172016  20.250   8.250   2.584  0.0094  0.2537 -0.1653
    1OPC    GL272017  19.938   8.199   2.747 -0.0413  0.1026 -0.1412
    1OPC    C1B72018  19.726   8.301   3.170  0.2595 -0.0937 -0.0703
    1OPC    D2B72019  19.432   8.243   3.554 -0.0638  0.0875  0.4337
    1OPC    C3B72020  19.315   7.873   3.449  0.0376  0.0836 -0.0625
    1OPC    C4B72021  19.369   7.751   3.027 -0.2199 -0.0253  0.1988
    1OPC    NC372022  11.005   5.652   2.719 -0.2301 -0.1557  0.1973
    1OPC    PO472023  11.018   5.944   3.004  0.0494 -0.0795  0.3082
    1OPC    GL172024  11.219   6.082   3.213 -0.3554 -0.1245 -0.2870
    1OPC    GL272025  11.204   6.242   3.449  0.0675  0.0904 -0.0740
    1OPC    C1B72026  11.063   6.185   3.882  0.3312  0.0402 -0.0617
    1OPC    D2B72027  10.697   5.995   4.231 -0.0460  0.1551  0.0956
    1OPC    C3B72028  10.737   6.080   4.663  0.3421  0.0535  0.3115
    1OPC    C4B72029  10.670   5.930   5.023 -0.1185  0.0186 -0.0760
    1OPC    NC372030   7.010   2.436   3.266 -0.0335  0.1852  0.1336
    1OPC    PO472031   6.638   2.237   3.371 -0.3763  0.0739 -0.0061
    1OPC    GL172032   6.563   1.855   3.560 -0.0565  0.1147 -0.1570
    1OPC    GL272033   6.613   1.600   3.810  0.1667  0.7177 -0.2250
    1OPC    C1B72034   6.671   1.261   4.182  0.1996 -0.1620 -0.0751
    1OPC    D2B72035   6.712   0.907   4.341 -0.0957  0.4905 -0.0666
    1OPC    C3B72036   6.891   0.819   4.659 -0.0078  0.1218  0.0989
    1OPC    C4B72037   6.951   0.402   4.877 -0.2264 -0.0353 -0.0702
    1OPC    NC372038  26.108  19.078   2.775  0.0553 -0.0495  0.1026
    1OPC    PO472039  26.569  18.988   2.685 -0.1295  0.1999 -0.0791
    1OPC    GL172040  26.431  18.970   3.154  0.5991 -0.0885  0.0884
    1OPC    GL272041  26.198  18.731   3.355  0.1194  0.2411  0.0250
    1OPC    C1B72042  26.057  18.635   3.780  0.1190 -0.3431  0.1145
    1OPC    D2B72043  26.086  18.616   4.260 -0.0670 -0.1013  0.0381
    1OPC    C3B72044  25.927  18.940   4.516 -0.0066 -0.0765  0.1006
    1OPC    C4B72045  26.004  19.112   4.808  0.0017  0.0868 -0.1729
    1OPC    NC372046   5.743   9.628   2.945  0.4539  0.0910 -0.4454
    1OPC    PO472047   5.880   9.214   3.258 -0.0272  0.0020 -0.0607
    1OPC    GL172048   5.447   9.240   3.460  0.1960 -0.3304 -0.0161
    1OPC    GL272049   5.373   9.167   3.876  0.2695 -0.1494 -0.1406
    1OPC    C1B72050   5.274   9.360   4.328  0.1546  0.0271 -0.0450
    1OPC    D2B72051   5.478   9.532   4.666 -0.0319  0.3121 -0.2273
    1OPC    C3B72052   5.569   9.341   5.063  0.0549  0.1117  0.1734
    1OPC    C4B72053   5.311   9.100   5.355 -0.0713  0.2011  0.0389
    1OPC    NC372054  14.006   2.636   3.277  0.3016 -0.0553 -0.1986
    1OPC    PO472055  14.094   2.376   3.576 -0.0876 -0.3569  0.0133
    1OPC    GL172056  14.236   2.430   3.957  0.0985  0.1969  0.3160
    1OPC    GL272057  14.336   2.652   4.196  0.0716  0.1394  0.0496
    1OPC    C1B72058  14.450   2.924   4.568 -0.1528  0.4865  0.0920
    1OPC    D2B72059  14.487   3.110   5.062 -0.2141  0.1737 -0.2721
    1OPC    C3B72060  14.325   3.552   5.034  0.3766  0.1153  0.0274
    1OPC    C4B72061  13.962   3.704   5.017 -0.0005 -0.2898 -0.0113
    1OPC    NC372062  15.653   3.258   2.270 -0.0809  0.0140  0.1912
    1OPC    PO472063  15.966   3.169   2.571  0.3213  0.1825 -0.3171
    1OPC    GL172064  15.810   3.061   3.044 -0.0802  0.1282  0.0278
    1OPC    GL272065  15.736   3.268   3.381  0.1531 -0.0613  0.0870
    1OPC    C1B72066  15.720   3.328   3.747 -0.0475 -0.0978 -0.0769
    1OPC    D2B72067  15.575   3.360   4.171 -0.2334 -0.0408 -0.2704
    1OPC    C3B72068  16.022   3.490   4.464 -0.2504 -0.1743 -0.0006
    1OPC    C4B72069  16.501   3.474   4.553 -0.0772  0.4051  0.0705
    1OPC    NC372070  24.987   8.069   2.406  0.0969  0.1885  0.1925
    1OPC    PO472071  24.583   8.237   2.712 -0.2729  0.4311  0.2731
    1OPC    GL172072  24.987   8.386   2.769  0.2121  0.3387  0.2431
    1OPC    GL272073  25.139   8.449   2.976  0.1994  0.1914  0.2626
    1OPC    C1B72074  25.206   8.415   3.399 -0.0472  0.1131  0.2003
    1OPC    D2B72075  25.016   8.618   3.790 -0.1326 -0.0268  0.0981
    1OPC    C3B72076  24.918   9.010   3.729  0.2687 -0.4075  0.2871
    1OPC    C4B72077  24.583   9.236   3.815  0.1845 -0.4034 -0.0119
    1OPC    NC372078  23.435  26.532   2.585 -0.1926 -0.1690 -0.0527
    1OPC    PO472079  23.011  26.557   2.684 -0.2283  0.1367  0.0041
    1OPC    GL172080  22.810  26.746   3.054  0.0444 -0.2188  0.2316
    1OPC    GL272081  22.812  26.986   3.283 -0.0918 -0.1154  0.0910
    1OPC    C1B72082  23.025  27.048   3.557 -0.0222 -0.1995 -0.0147
    1OPC    D2B72083  23.094  27.154   3.994 -0.2033 -0.1779 -0.1028
    1OPC    C3B72084  22.781  27.324   4.297  0.2452 -0.0627  0.1062
    1OPC    C4B72085  22.490  27.381   4.675 -0.2924 -0.0591 -0.5222
    1OPC    NC372086  29.240  10.847   2.229 -0.1028 -0.0480  0.0189
    1OPC    PO472087  29.022  10.552   2.487  0.2081  0.1521  0.1682
    1OPC    GL172088  28.865  10.633   2.894 -0.0969  0.3403  0.1858
    1OPC    GL272089  28.847  10.418   3.117  0.1784  0.1785  0.0572
    1OPC    C1B72090  28.695  10.114   3.378 -0.1215  0.2810  0.1097
    1OPC    D2B72091  28.733  10.004   3.754 -0.0371  0.2244  0.0168
    1OPC    C3B72092  28.418   9.813   4.059 -0.1076 -0.2987  0.1621
    1OPC    C4B72093  28.059   9.777   4.351  0.0948 -0.0755  0.1291
    1OPC    NC372094  12.090  29.111   2.997  0.1093 -0.1805  0.0532
    1OPC    PO472095  12.568  29.184   2.949  0.0293 -0.0012  0.0658
    1OPC    GL172096  12.613  29.187   3.361 -0.3451 -0.0895  0.1805
    1OPC    GL272097  12.615  29.251   3.622  0.0607  0.3105 -0.0818
    1OPC    C1B72098  12.356  29.239   3.968  0.2003  0.0569 -0.0833
    1OPC    D2B72099  12.244  29.315   4.443  0.2066 -0.0413 -0.0833
    1OPC    C3B72100  11.896  29.505   4.596  0.0228 -0.2240  0.1951
    1OPC    C4B72101  11.557  29.545   4.834 -0.0557 -0.1954  0.1311
    1OPC    NC372102   6.888  25.639   1.769 -0.0718  0.1314 -0.0374
    1OPC    PO472103   7.022  25.804   2.127 -0.3397  0.1429  0.0769
    1OPC    GL172104   6.941  25.801   2.610 -0.0753  0.1036 -0.0057
    1OPC    GL272105   6.889  25.777   2.973 -0.0699  0.1053 -0.1814
    1OPC    C1B72106   6.746  25.586   3.386  0.0068 -0.4066 -0.0879
    1OPC    D2B72107   6.587  25.349   3.559 -0.1891  0.3192  0.2372
    1OPC    C3B72108   6.800  25.235   4.031  0.2228  0.1605  0.1694
    1OPC    C4B72109   6.578  25.504   4.351 -0.3876 -0.1140  0.1952
    1OPC    NC372110   7.301  18.606   1.631  0.3927 -0.1082 -0.1952
    1OPC    PO472111   7.089  19.002   1.880  0.1022 -0.1974  0.0147
    1OPC    GL172112   7.018  19.392   2.290 -0.0554 -0.0881  0.1086
    1OPC    GL272113   7.053  19.700   2.644  0.1219 -0.1037 -0.1648
    1OPC    C1B72114   6.786  19.725   2.910 -0.1021  0.0902 -0.0194
    1OPC    D2B72115   6.827  19.728   3.335  0.0994  0.2374  0.0867
    1OPC    C3B72116   6.992  19.382   3.520  0.1738  0.0805  0.1124
    1OPC    C4B72117   7.081  19.517   3.930  0.1696  0.2339 -0.0789
    1OPC    NC372118  11.641   3.107   2.917 -0.0513  0.1344 -0.4079
    1OPC    PO472119  12.087   3.206   3.113  0.4162 -0.3009 -0.3655
    1OPC    GL172120  11.891   3.401   3.669 -0.0113 -0.2068 -0.0680
    1OPC    GL272121  11.903   3.684   3.912  0.0581  0.2181  0.1236
    1OPC    C1B72122  11.964   3.999   4.237  0.0985  0.4136 -0.0692
    1OPC    D2B72123  12.006   4.186   4.650 -0.0892 -0.2335 -0.1988
    1OPC    C3B72124  12.391   4.199   4.894 -0.0194 -0.2494  0.1828
    1OPC    C4B72125  12.565   4.205   5.236 -0.0170  0.1063 -0.1270
    1OPC    NC372126   6.534  23.342   2.318  0.2749 -0.1678 -0.1072
    1OPC    PO472127   6.887  23.031   2.299  0.2483  0.1340 -0.1631
    1OPC    GL172128   6.630  22.849   2.533 -0.0764  0.1147 -0.1460
    1OPC    GL272129   6.418  22.612   2.721 -0.1296  0.3107 -0.1870
    1OPC    C1B72130   6.607  22.344   3.003  0.0340 -0.2530 -0.1755
    1OPC    D2B72131   6.583  22.007   3.347  0.3958 -0.1494  0.2851
    1OPC    C3B72132   6.412  21.906   3.687  0.2350 -0.2340 -0.1090
    1OPC    C4B72133   6.387  22.124   4.104  0.1074 -0.2356  0.0060
    1OPC    NC372134   6.226   2.936   3.839  0.1035  0.4641 -0.2394
    1OPC    PO472135   6.415   3.234   3.575 -0.1086  0.0608  0.1676
    1OPC    GL172136   6.790   3.488   3.762  0.2091 -0.1070 -0.1865
    1OPC    GL272137   7.009   3.469   4.041  0.1724  0.0752  0.1648
    1OPC    C1B72138   7.023   3.469   4.417  0.0738  0.0646 -0.0031
    1OPC    D2B72139   7.050   3.790   4.746 -0.1750 -0.1721  0.0379
    1OPC    C3B72140   6.824   3.939   5.064 -0.2213 -0.0617 -0.2239
    1OPC    C4B72141   6.699   4.395   5.218 -0.3351 -0.1341  0.3187
    1OPC    NC372142  24.095  26.921   2.646  0.1083 -0.2012  0.0194
    1OPC    PO472143  23.674  26.961   2.768 -0.2264 -0.0543  0.0722
    1OPC    GL172144  23.447  26.696   3.012  0.2258  0.2705  0.0516
    1OPC    GL272145  23.265  26.717   3.341 -0.2357  0.2977 -0.0847
    1OPC    C1B72146  23.427  26.820   3.840  0.1851  0.0452  0.2037
    1OPC    D2B72147  23.481  27.058   4.263 -0.0978 -0.0679  0.3076
    1OPC    C3B72148  23.579  26.844   4.636  0.1255  0.0165 -0.1053
    1OPC    C4B72149  24.012  26.590   4.692 -0.0666 -0.2212  0.0762
    1OPC    NC372150  26.518  14.268   2.180 -0.0192 -0.1254 -0.1180
    1OPC    PO472151  26.128  14.553   2.248 -0.1869 -0.3353  0.0688
    1OPC    GL172152  26.260  14.331   2.608 -0.2743 -0.2363  0.1438
    1OPC    GL272153  26.346  14.107   2.771 -0.2748 -0.3380  0.0393
    1OPC    C1B72154  26.304  14.028   3.245 -0.0716 -0.2034  0.0771
    1OPC    D2B72155  26.369  13.929   3.723 -0.0988 -0.1112  0.0001
    1OPC    C3B72156  26.310  14.334   4.083 -0.2830  0.3827 -0.2006
    1OPC    C4B72157  26.242  14.494   4.532  0.0193 -0.0892  0.0137
    1OPC    NC372158   6.657  13.505   2.141  0.0959  0.2069  0.1235
    1OPC    PO472159   6.280  13.612   2.265  0.5777 -0.1838 -0.2343
    1OPC    GL172160   6.519  13.898   2.614  0.3256 -0.0646  0.2049
    1OPC    GL272161   6.622  14.135   2.820 -0.0329 -0.2209 -0.0645
    1OPC    C1B72162   6.853  14.399   3.056  0.1484 -0.0232  0.0728
    1OPC    D2B72163   7.074  14.836   3.168  0.3611 -0.0580 -0.0696
    1OPC    C3B72164   7.034  14.785   3.597 -0.3105  0.3295 -0.3193
    1OPC    C4B72165   7.212  14.833   4.026  0.0768  0.1821 -0.0052
    1OPC    NC372166  28.463   6.966   2.677 -0.3783 -0.0532  0.1566
    1OPC    PO472167  28.176   6.618   2.750  0.3773 -0.1700  0.0095
    1OPC    GL172168  28.179   6.515   3.115 -0.2004  0.0839  0.0803
    1OPC    GL272169  28.324   6.414   3.336 -0.1431  0.0058  0.3211
    1OPC    C1B72170  28.338   6.634   3.682 -0.4387  0.1439 -0.0090
    1OPC    D2B72171  28.223   7.043   3.730  0.0725 -0.1345 -0.0877
    1OPC    C3B72172  27.855   7.093   3.778  0.0563  0.1613 -0.0299
    1OPC    C4B72173  27.490   7.374   3.694 -0.0810 -0.3046  0.3369
    1OPC    NC372174  24.944   5.885   2.861 -0.1320 -0.1919  0.1825
    1OPC    PO472175  25.388   5.685   2.913  0.0926 -0.1954  0.0192
    1OPC    GL172176  25.683   5.711   3.222  0.1720 -0.2026 -0.0748
    1OPC    GL272177  25.854   5.614   3.473 -0.0123 -0.3369  0.1594
    1OPC    C1B72178  25.888   5.276   3.551 -0.0587  0.2824 -0.0011
    1OPC    D2B72179  25.546   5.044   3.650  0.2806 -0.3316  0.2609
    1OPC    C3B72180  25.381   5.062   4.056 -0.1481 -0.1564 -0.0333
    1OPC    C4B72181  25.346   5.220   4.395 -0.0526 -0.2673 -0.2880
    1OPC    NC372182   4.078   0.679   2.858 -0.2003  0.1671 -0.0867
    1OPC    PO472183   3.680   0.572   2.939  0.1011 -0.2056  0.2271
    1OPC    GL172184   3.399   0.612   3.219 -0.0142 -0.0671  0.0974
    1OPC    GL272185   3.397   0.828   3.333  0.1674 -0.1128  0.0877
    1OPC    C1B72186   3.572   0.916   3.697  0.0435 -0.0560  0.2911
    1OPC    D2B72187   3.826   1.264   3.758 -0.3053  0.2482 -0.2162
    1OPC    C3B72188   3.904   1.170   4.226 -0.1056 -0.1743 -0.0264
    1OPC    C4B72189   3.521   0.968   4.394  0.0344 -0.0685  0.2623
    1OPC    NC372190  27.595   8.213   2.180  0.1482 -0.0204 -0.3669
    1OPC    PO472191  27.146   8.341   2.363 -0.2844 -0.0063  0.1181
    1OPC    GL172192  27.450   8.388   2.643  0.0903  0.0155  0.3035
    1OPC    GL272193  27.503   8.367   2.962  0.0533 -0.0262 -0.0017
    1OPC    C1B72194  27.272   8.570   3.244 -0.3512  0.0474  0.0330
    1OPC    D2B72195  27.242   8.495   3.621  0.1975 -0.0912 -0.1821
    1OPC    C3B72196  27.275   8.719   3.987  0.0877  0.0678 -0.1453
    1OPC    C4B72197  27.440   8.974   4.112 -0.2798 -0.1473  0.2948
    1OPC    NC372198  22.418  13.363   1.603  0.2348 -0.1730  0.0228
    1OPC    PO472199  22.405  13.346   2.000  0.2420 -0.2342  0.0247
    1OPC    GL172200  22.374  13.511   2.382 -0.0880  0.0985  0.1951
    1OPC    GL272201  22.457  13.378   2.664 -0.0174 -0.0424  0.0434
    1OPC    C1B72202  22.555  13.461   3.128 -0.1172 -0.1553 -0.1065
    1OPC    D2B72203  22.642  13.672   3.541  0.2991 -0.0051  0.0440
    1OPC    C3B72204  22.304  13.876   3.848  0.1223  0.1683  0.1861
    1OPC    C4B72205  21.977  14.155   3.933 -0.1521 -0.0779 -0.0556
    1OPC    NC372206  13.387  25.958   2.451  0.2342  0.0389 -0.1634
    1OPC    PO472207  13.256  25.545   2.423 -0.1894  0.0162 -0.2232
    1OPC    GL172208  13.583  25.550   2.862  0.1775  0.1631  0.0874
    1OPC    GL272209  13.856  25.361   2.957 -0.0430  0.1916  0.0374
    1OPC    C1B72210  13.952  25.313   3.385 -0.1616 -0.3011  0.1900
    1OPC    D2B72211  13.886  25.319   3.877  0.0640 -0.1380  0.0248
    1OPC    C3B72212  13.705  25.023   4.115  0.0671  0.0013  0.1900
    1OPC    C4B72213  13.413  24.763   4.143  0.1379  0.1244  0.0602
    1OPC    NC372214   0.461  26.256   2.203 -0.0330 -0.1933  0.1000
    1OPC    PO472215   0.325  25.931   2.443  0.0006  0.1745  0.7173
    1OPC    GL172216   0.275  26.354   2.712  0.0531 -0.0717 -0.0032
    1OPC    GL272217   0.559  26.524   2.943 -0.2278  0.1324 -0.3099
    1OPC    C1B72218   0.550  26.649   3.395  0.1720  0.3017 -0.1411
    1OPC    D2B72219   0.278  26.544   3.751 -0.0416 -0.1565  0.2658
    1OPC    C3B72220   0.292  26.648   4.171  0.1345 -0.0043  0.1803
    1OPC    C4B72221   0.158  26.989   4.387 -0.3142 -0.1914 -0.3663
    1OPC    NC372222  11.021  23.685   1.878  0.4549 -0.0656  0.2767
    1OPC    PO472223  10.771  23.426   2.159 -0.1486 -0.1034  0.4959
    1OPC    GL172224  10.566  23.401   2.425 -0.0519 -0.1740 -0.1306
    1OPC    GL272225  10.213  23.399   2.687  0.1374  0.1112 -0.1398
    1OPC    C1B72226  10.156  23.721   3.008 -0.1199 -0.0005  0.1417
    1OPC    D2B72227  10.369  23.589   3.456  0.1488 -0.1247  0.2256
    1OPC    C3B72228  10.107  23.808   3.831  0.1082  0.1441  0.1024
    1OPC    C4B72229  10.110  24.140   4.196 -0.0362 -0.1191  0.1070
    1OPC    NC372230  15.501  28.892   2.967  0.2256  0.0498 -0.3145
    1OPC    PO472231  15.207  29.103   3.213  0.0142  0.2181  0.0126
    1OPC    GL172232  15.124  28.805   3.624 -0.0860 -0.0063  0.0522
    1OPC    GL272233  14.922  28.780   3.889  0.0115  0.3711  0.1338
    1OPC    C1B72234  14.977  28.774   4.321  0.1532 -0.3590  0.0512
    1OPC    D2B72235  15.233  28.531   4.601 -0.0125  0.1434 -0.4821
    1OPC    C3B72236  15.554  28.623   4.797  0.1814 -0.0573 -0.1909
    1OPC    C4B72237  15.902  28.498   4.972  0.0753 -0.0669 -0.0759
    1OPC    NC372238  29.234   8.632   2.747  0.0626  0.1426 -0.1804
    1OPC    PO472239  29.081   8.900   2.848  0.1559  0.4156 -0.1117
    1OPC    GL172240  28.941   9.269   3.137 -0.1003  0.0869 -0.0901
    1OPC    GL272241  28.961   9.473   3.470  0.0845 -0.1074 -0.0630
    1OPC    C1B72242  28.832   9.532   3.960  0.0815  0.2115  0.3520
    1OPC    D2B72243  28.952   9.496   4.418  0.0988 -0.2778  0.2823
    1OPC    C3B72244  29.386   9.693   4.423 -0.1211  0.0417 -0.1103
    1OPC    C4B72245  29.628   9.930   4.713  0.0624 -0.3179 -0.2167
    1OPC    NC372246   6.291   0.665   2.803 -0.4641 -0.0339  0.2469
    1OPC    PO472247   5.911   0.637   2.854 -0.1918  0.3296  0.2240
    1OPC    GL172248   5.690   0.545   3.309  0.1859  0.0394  0.1141
    1OPC    GL272249   5.820   0.642   3.573 -0.1235  0.1333 -0.3941
    1OPC    C1B72250   5.848   0.700   4.043  0.2954  0.0939 -0.1715
    1OPC    D2B72251   6.096   0.652   4.432  0.0524 -0.5979 -0.1354
    1OPC    C3B72252   6.305   1.062   4.548 -0.1093 -0.1855 -0.1189
    1OPC    C4B72253   6.626   1.291   4.719 -0.0357  0.1429 -0.0601
    1OPC    NC372254  22.823  25.657   2.959  0.0804  0.3700  0.5836
    1OPC    PO472255  22.733  25.222   2.919 -0.1594 -0.1544 -0.0664
    1OPC    GL172256  22.708  25.301   3.397 -0.1769 -0.1763  0.1681
    1OPC    GL272257  22.514  25.241   3.669  0.2747 -0.1274  0.0176
    1OPC    C1B72258  22.547  24.974   4.070  0.0090  0.0669 -0.0438
    1OPC    D2B72259  22.811  24.765   4.313 -0.2141  0.2449 -0.0661
    1OPC    C3B72260  22.821  24.524   4.669 -0.0972 -0.1342 -0.0804
    1OPC    C4B72261  22.576  24.329   5.002 -0.2530 -0.0450 -0.0693
    1OPC    NC372262   7.767  22.132   1.583 -0.3214  0.1420  0.0092
    1OPC    PO472263   7.865  21.766   1.938  0.1043 -0.1021 -0.4726
    1OPC    GL172264   7.880  21.930   2.331  0.1925 -0.0713  0.1866
    1OPC    GL272265   7.965  22.009   2.540 -0.0203 -0.0887  0.1742
    1OPC    C1B72266   7.763  21.960   2.897 -0.0101  0.1947  0.1998
    1OPC    D2B72267   7.730  21.651   3.256  0.2368  0.1569  0.2341
    1OPC    C3B72268   7.751  21.909   3.599 -0.0120 -0.3601  0.2403
    1OPC    C4B72269   8.084  22.061   3.887 -0.1039  0.0792 -0.1951
    1OPC    NC372270  29.400  18.381   1.969  0.2983 -0.3134  0.2972
    1OPC    PO472271  29.615  18.766   2.110  0.1976  0.1545  0.2166
    1OPC    GL172272  29.538  18.657   2.515 -0.0860  0.2129 -0.1293
    1OPC    GL272273  29.494  18.536   2.868  0.0878  0.1457  0.2561
    1OPC    C1B72274  29.502  18.368   3.257  0.1213 -0.1576 -0.1870
    1OPC    D2B72275  29.661  18.606   3.675  0.2584 -0.2122  0.0584
    1OPC    C3B72276  29.911  18.485   3.893  0.2151  0.2605  0.0488
    1OPC    C4B72277  30.235  18.255   3.938 -0.1422  0.1286  0.2543
    1OPC    NC372278  22.086   2.716   2.789  0.0182 -0.1690 -0.3590
    1OPC    PO472279  22.450   2.839   2.715 -0.4928  0.0484  0.3900
    1OPC    GL172280  22.401   2.969   3.112  0.3482 -0.0214  0.0243
    1OPC    GL272281  22.415   3.126   3.406  0.1895  0.1529 -0.2566
    1OPC    C1B72282  22.040   2.940   3.571 -0.2311 -0.0637  0.1255
    1OPC    D2B72283  21.570   2.868   3.691  0.0974 -0.0108 -0.1298
    1OPC    C3B72284  21.372   2.530   3.681  0.0485 -0.1382 -0.1756
    1OPC    C4B72285  20.972   2.414   3.924  0.0003 -0.5435 -0.0225
    1OPC    NC372286  29.027   0.953   2.014 -0.1963  0.2127 -0.0437
    1OPC    PO472287  29.135   0.595   2.160 -0.0207  0.0368 -0.1667
    1OPC    GL172288  29.098   0.597   2.544 -0.1481 -0.0303 -0.0369
    1OPC    GL272289  29.298   0.561   2.908  0.0249  0.0619  0.0223
    1OPC    C1B72290  29.346   0.530   3.387 -0.0123 -0.0596 -0.0169
    1OPC    D2B72291  29.654   0.497   3.771  0.2237 -0.0544  0.2563
    1OPC    C3B72292  29.669   0.664   4.206 -0.0374  0.0847  0.4054
    1OPC    C4B72293  29.650   0.492   4.635 -0.0977  0.1245  0.2024
    1OPC    NC372294  20.234  26.076   3.258 -0.0210  0.0710  0.0887
    1OPC    PO472295  20.022  25.705   2.970 -0.0595 -0.0705  0.1644
    1OPC    GL172296  20.230  25.581   3.330  0.1333 -0.2995  0.0075
    1OPC    GL272297  20.520  25.518   3.530  0.0815 -0.3132 -0.1154
    1OPC    C1B72298  20.833  25.508   3.899  0.1443 -0.0431  0.2877
    1OPC    D2B72299  20.932  25.304   4.320 -0.1645  0.0117 -0.0951
    1OPC    C3B72300  21.086  25.422   4.697 -0.2976 -0.0193  0.0860
    1OPC    C4B72301  20.978  25.150   5.170  0.0195 -0.0590 -0.1258
    1OPC    NC372302  18.447  22.632   2.849  0.1199 -0.1533 -0.0104
    1OPC    PO472303  18.613  23.118   2.881  0.0294 -0.1214 -0.2071
    1OPC    GL172304  18.505  23.068   3.288  0.0063 -0.0537 -0.1222
    1OPC    GL272305  18.406  22.919   3.598  0.2390 -0.1817  0.0660
    1OPC    C1B72306  18.334  22.773   3.990  0.5242  0.2489  0.1915
    1OPC    D2B72307  18.442  22.773   4.470  0.1724  0.2189  0.4109
    1OPC    C3B72308  18.365  22.549   4.848 -0.1895  0.0444 -0.0113
    1OPC    C4B72309  18.384  22.028   4.954 -0.0113 -0.0341 -0.0828
    1OPC    NC372310  13.597  29.537   3.392 -0.0153 -0.2345  0.1789
    1OPC    PO472311  13.457  29.472   3.034 -0.2773  0.0593 -0.0281
    1OPC    GL172312  13.115  29.378   3.354  0.2663  0.0062  0.1513
    1OPC    GL272313  13.057  29.454   3.712  0.0941 -0.0020 -0.1451
    1OPC    C1B72314  12.783  29.480   4.073  0.0413 -0.0322 -0.0591
    1OPC    D2B72315  12.797  29.468   4.555  0.0588 -0.0686 -0.1760
    1OPC    C3B72316  12.457  29.602   4.898 -0.2437  0.1241 -0.0767
    1OPC    C4B72317  12.057  29.488   5.162 -0.0506  0.5660  0.2131
    1OPC    NC372318   8.282   4.462   2.881  0.1504  0.3228  0.0946
    1OPC    PO472319   7.920   4.666   2.730  0.2451  0.2694 -0.1738
    1OPC    GL172320   7.850   4.677   3.220 -0.3542  0.0541  0.1085
    1OPC    GL272321   7.904   4.799   3.599  0.1362  0.3535  0.1076
    1OPC    C1B72322   8.113   4.754   3.881 -0.1349  0.3549 -0.2971
    1OPC    D2B72323   8.479   4.960   4.053 -0.3670  0.1972  0.0679
    1OPC    C3B72324   8.627   4.801   4.426 -0.4817 -0.0040 -0.0497
    1OPC    C4B72325   8.602   4.481   4.632  0.0030  0.1367 -0.1009
    1OPC    NC372326  11.736   2.969   3.421  0.1661 -0.0806 -0.4271
    1OPC    PO472327  11.465   3.234   3.339 -0.2273  0.0091 -0.0730
    1OPC    GL172328  11.520   3.090   3.841  0.1608  0.1038  0.3205
    1OPC    GL272329  11.699   3.170   4.058  0.1513  0.1490 -0.1379
    1OPC    C1B72330  11.658   3.566   4.369  0.0465 -0.0657  0.1018
    1OPC    D2B72331  11.554   3.291   4.882  0.0235 -0.2314  0.2067
    1OPC    C3B72332  11.889   3.043   5.032 -0.0265 -0.3522  0.2106
    1OPC    C4B72333  12.260   2.922   5.005 -0.0925  0.1941  0.0439
    1OPC    NC372334  14.235   0.485   3.268  0.0525  0.1407 -0.0931
    1OPC    PO472335  14.619   0.321   3.563  0.1001 -0.0275  0.1600
    1OPC    GL172336  14.895   0.278   3.792 -0.0868  0.0112 -0.1657
    1OPC    GL272337  15.068   0.092   4.007 -0.0013  0.0141 -0.2923
    1OPC    C1B72338  15.164   0.056   4.465  0.0298  0.0160 -0.1393
    1OPC    D2B72339  15.103   0.131   4.851  0.0838  0.1746  0.3995
    1OPC    C3B72340  14.760   0.416   4.989  0.1438  0.2838 -0.4228
    1OPC    C4B72341  14.402   0.345   5.185 -0.1653 -0.1273 -0.3358
    1OPC    NC372342  27.387   5.739   2.497 -0.2835  0.2113  0.0308
    1OPC    PO472343  27.440   6.231   2.604 -0.1138  0.1755  0.1557
    1OPC    GL172344  27.278   6.016   2.984 -0.2851 -0.0266 -0.1486
    1OPC    GL272345  27.249   5.905   3.364  0.1458  0.0969  0.1332
    1OPC    C1B72346  27.203   6.077   3.838  0.0928  0.1730  0.1579
    1OPC    D2B72347  27.152   6.551   4.002  0.1845  0.2406  0.1615
    1OPC    C3B72348  27.583   6.651   4.129 -0.0330 -0.5722  0.0167
    1OPC    C4B72349  28.013   6.795   4.157  0.0488  0.0527 -0.1244
    1OPC    NC372350   4.673  25.211   2.003 -0.1785 -0.1330  0.1381
    1OPC    PO472351   4.441  25.565   2.062 -0.0619 -0.0806  0.0304
    1OPC    GL172352   4.595  25.432   2.421  0.1371 -0.1972  0.2520
    1OPC    GL272353   4.426  25.290   2.756 -0.1457 -0.0603  0.2495
    1OPC    C1B72354   4.520  25.215   3.223  0.1623  0.1345 -0.0524
    1OPC    D2B72355   4.787  24.901   3.368  0.2332  0.1366 -0.0252
    1OPC    C3B72356   4.861  24.744   3.726  0.0660  0.2000  0.0556
    1OPC    C4B72357   4.610  24.728   4.058  0.1372 -0.2251 -0.0000
    1OPC    NC372358   5.776  26.626   2.402  0.2033 -0.2286  0.0043
    1OPC    PO472359   6.096  26.763   2.797 -0.2625  0.1470 -0.1525
    1OPC    GL172360   5.870  26.410   2.863 -0.1604  0.0722  0.1620
    1OPC    GL272361   5.657  26.326   3.033  0.0133  0.1481  0.2610
    1OPC    C1B72362   5.498  26.360   3.463  0.2004  0.2892  0.1885
    1OPC    D2B72363   5.717  26.405   3.861 -0.1019 -0.0597  0.2814
    1OPC    C3B72364   6.062  26.269   4.092 -0.1490 -0.0508 -0.3611
    1OPC    C4B72365   6.315  26.450   4.436  0.1870 -0.1802  0.1127
    1OPC    NC372366   3.799  27.730   2.552  0.1981  0.0095  0.0598
    1OPC    PO472367   3.367  27.721   2.596  0.3092 -0.0187  0.0668
    1OPC    GL172368   2.965  27.784   2.691 -0.0256 -0.0948 -0.2058
    1OPC    GL272369   2.890  27.658   2.933 -0.2024 -0.1031 -0.0179
    1OPC    C1B72370   3.059  27.684   3.314  0.2334 -0.2411  0.0906
    1OPC    D2B72371   2.849  27.654   3.749  0.0353 -0.1814  0.0148
    1OPC    C3B72372   2.890  27.485   4.152  0.0787 -0.0546  0.0513
    1OPC    C4B72373   3.153  27.450   4.574  0.2120 -0.0034 -0.1656
    1OPC    NC372374   2.460  17.178   2.280 -0.1304 -0.0067  0.0259
    1OPC    PO472375   2.726  16.891   2.033 -0.1051  0.1016 -0.0157
    1OPC    GL172376   2.723  16.867   2.538  0.3093  0.0051  0.0327
    1OPC    GL272377   2.652  16.907   2.856 -0.0763 -0.0255 -0.0877
    1OPC    C1B72378   2.853  16.998   3.332  0.1254  0.1981  0.0593
    1OPC    D2B72379   3.037  17.283   3.613 -0.1151 -0.4662 -0.0612
    1OPC    C3B72380   3.471  17.611   3.608  0.0555 -0.1874 -0.4213
    1OPC    C4B72381   3.870  17.667   3.550  0.0131  0.1316 -0.1073
    1OPC    NC372382   7.047   6.867   2.770  0.1228  0.2398  0.0259
    1OPC    PO472383   7.198   6.832   3.213  0.1325 -0.1825  0.0361
    1OPC    GL172384   7.532   6.851   3.567  0.1619  0.1413  0.0723
    1OPC    GL272385   7.802   6.838   3.789 -0.1805 -0.1079 -0.2603
    1OPC    C1B72386   7.868   6.719   4.220 -0.0026 -0.0308 -0.0053
    1OPC    D2B72387   7.947   6.613   4.631  0.0324  0.1948 -0.0049
    1OPC    C3B72388   7.653   6.527   5.066  0.1344  0.3119 -0.0509
    1OPC    C4B72389   7.484   6.067   5.089  0.1432 -0.4560 -0.1420
    1OPC    NC372390   8.489  26.874   1.992 -0.2137  0.1234  0.3327
    1OPC    PO472391   8.443  27.298   2.280  0.0906 -0.1021  0.3862
    1OPC    GL172392   8.485  27.022   2.667 -0.1089  0.0555 -0.0626
    1OPC    GL272393   8.369  26.758   2.815 -0.0732  0.2328  0.2000
    1OPC    C1B72394   8.180  26.529   3.140 -0.1085 -0.0855  0.1732
    1OPC    D2B72395   8.327  26.433   3.496 -0.0503  0.0890 -0.2229
    1OPC    C3B72396   8.305  26.095   3.897  0.0005 -0.1546  0.0708
    1OPC    C4B72397   8.715  26.069   4.298 -0.0017 -0.0948 -0.0884
    1OPC    NC372398   1.450  12.842   2.035 -0.0928  0.0451 -0.1812
    1OPC    PO472399   1.086  12.812   2.318  0.1200 -0.0051  0.3742
    1OPC    GL172400   1.175  12.881   2.727 -0.0054  0.1196 -0.0755
    1OPC    GL272401   1.275  12.960   2.990 -0.1649 -0.3128 -0.1154
    1OPC    C1B72402   1.355  13.138   3.447  0.0188 -0.0843 -0.2316
    1OPC    D2B72403   1.239  13.073   3.801  0.1856  0.1930 -0.3333
    1OPC    C3B72404   1.419  13.384   4.124 -0.1301  0.2718  0.1543
    1OPC    C4B72405   1.594  13.563   4.391  0.0358 -0.0120 -0.1738
    1OPC    NC372406   7.625   4.298   2.909  0.1307  0.1616  0.1377
    1OPC    PO472407   7.948   4.020   3.018 -0.0822 -0.0208  0.1818
    1OPC    GL172408   8.249   4.156   3.313  0.0592 -0.0750 -0.0379
    1OPC    GL272409   8.267   4.218   3.553 -0.0025 -0.0916  0.2424
    1OPC    C1B72410   8.175   4.052   4.015 -0.3595 -0.1805 -0.2563
    1OPC    D2B72411   8.326   4.058   4.501  0.1786 -0.1530  0.1103
    1OPC    C3B72412   8.318   4.129   4.970 -0.3562  0.0758 -0.0378
    1OPC    C4B72413   8.261   3.965   5.328 -0.0202  0.0747 -0.1240
    1OPC    NC372414  24.633  21.090   2.560 -0.0890  0.2089  0.1346
    1OPC    PO472415  24.347  20.790   2.763 -0.1316 -0.0870 -0.2389
    1OPC    GL172416  24.518  20.932   3.158 -0.2083  0.0546  0.1806
    1OPC    GL272417  24.645  21.002   3.441 -0.1804  0.0319 -0.0767
    1OPC    C1B72418  24.677  20.838   3.902 -0.0006  0.0939 -0.2808
    1OPC    D2B72419  24.514  20.451   4.134  0.2023 -0.0324 -0.1100
    1OPC    C3B72420  24.340  20.340   4.537  0.1314 -0.1264 -0.0966
    1OPC    C4B72421  24.203  20.466   4.970  0.2914 -0.1182 -0.3356
    1OPC    NC372422  29.342   3.824   2.835  0.0424 -0.1735 -0.2757
    1OPC    PO472423  29.687   3.474   2.742 -0.0107  0.0383  0.0913
    1OPC    GL172424  29.711   3.487   3.119 -0.1470 -0.0417 -0.1268
    1OPC    GL272425  29.978   3.567   3.335  0.0430 -0.2258  0.1753
    1OPC    C1B72426  30.127   3.927   3.629 -0.3749 -0.0577  0.4697
    1OPC    D2B72427  29.942   4.144   3.943  0.0492  0.2779 -0.1000
    1OPC    C3B72428  29.512   4.084   4.052 -0.0758 -0.1572  0.0492
    1OPC    C4B72429  29.159   4.397   3.919  0.1412  0.3429  0.0951
    1OPC    NC372430  20.954   5.946   2.783  0.0290 -0.0910  0.2941
    1OPC    PO472431  21.186   5.683   2.616 -0.2908  0.4006  0.2725
    1OPC    GL172432  21.240   5.606   3.068 -0.0072 -0.0275 -0.3744
    1OPC    GL272433  21.069   5.831   3.252 -0.1244  0.0396 -0.3720
    1OPC    C1B72434  20.888   5.815   3.655 -0.2538 -0.0944 -0.3254
    1OPC    D2B72435  20.528   5.866   3.935  0.0940  0.1327  0.0568
    1OPC    C3B72436  20.791   5.769   4.349  0.2250 -0.0273  0.1147
    1OPC    C4B72437  20.955   5.542   4.709 -0.3229  0.4070  0.0143
    1OPC    NC372438  14.804  29.341   3.005 -0.1445  0.0765  0.0901
    1OPC    PO472439  14.808  29.681   3.282  0.0618 -0.5873 -0.1660
    1OPC    GL172440  14.747  29.712   3.699 -0.1311  0.2077 -0.1053
    1OPC    GL272441  14.777  29.634   3.984 -0.2823 -0.0520  0.1626
    1OPC    C1B72442  14.666  29.812   4.481 -0.2122 -0.3347  0.3012
    1OPC    D2B72443  14.728  30.193   4.487  0.0292 -0.3033  0.0149
    1OPC    C3B72444  15.079  30.479   4.430  0.3672  0.0823  0.1276
    1OPC    C4B72445  15.551  30.607   4.161 -0.1739 -0.2078  0.0092
    1OPC    NC372446  24.429  10.562   2.360  0.1365  0.1602 -0.1827
    1OPC    PO472447  24.377  10.181   2.479 -0.0340  0.0207 -0.2425
    1OPC    GL172448  24.325  10.020   2.868  0.1157  0.2812  0.0497
    1OPC    GL272449  24.166  10.083   3.119 -0.1873 -0.2837 -0.1007
    1OPC    C1B72450  24.135  10.117   3.510  0.0324  0.0402 -0.1035
    1OPC    D2B72451  24.076  10.077   4.013 -0.0276 -0.0734 -0.0398
    1OPC    C3B72452  23.682  10.202   4.189 -0.0520 -0.2131 -0.0436
    1OPC    C4B72453  23.305   9.969   4.325 -0.0193 -0.1199  0.0310
    1OPC    NC372454  27.708   2.942   2.534 -0.4391 -0.2640  0.0764
    1OPC    PO472455  27.759   3.321   2.791  0.1674 -0.1487 -0.0934
    1OPC    GL172456  27.761   3.355   3.333  0.0194 -0.4436  0.0496
    1OPC    GL272457  27.657   3.414   3.567  0.1795 -0.1062  0.0287
    1OPC    C1B72458  27.611   3.262   3.934 -0.0147  0.0689  0.0552
    1OPC    D2B72459  27.458   3.393   4.287  0.1230 -0.0228 -0.2071
    1OPC    C3B72460  27.195   3.831   4.282 -0.1098  0.2097 -0.2354
    1OPC    C4B72461  26.744   3.880   4.072  0.0571 -0.2183 -0.1550
    1OPC    NC372462  29.007   5.591   2.480  0.2008  0.0343  0.0454
    1OPC    PO472463  29.320   5.892   2.624 -0.1429  0.0237  0.1096
    1OPC    GL172464  29.560   5.556   2.913 -0.1331 -0.0056  0.0025
    1OPC    GL272465  29.489   5.255   3.031  0.2273  0.0893  0.1448
    1OPC    C1B72466  29.508   5.011   3.420  0.0500 -0.5183 -0.1497
    1OPC    D2B72467  29.583   5.177   3.823 -0.1112 -0.2145 -0.1648
    1OPC    C3B72468  29.315   5.394   4.019  0.0152 -0.0827  0.5245
    1OPC    C4B72469  29.198   5.813   4.027  0.1290  0.3731 -0.2268
    1OPC    NC372470  23.019  24.812   2.280  0.1916  0.0651 -0.2167
    1OPC    PO472471  23.113  24.648   2.722 -0.2726  0.1908  0.1695
    1OPC    GL172472  23.150  24.833   3.032 -0.1107  0.1315 -0.3125
    1OPC    GL272473  23.133  25.032   3.214  0.1751 -0.1134  0.0250
    1OPC    C1B72474  22.919  24.908   3.563  0.0354  0.1424  0.0280
    1OPC    D2B72475  22.898  24.566   3.879  0.2272  0.1924 -0.0139
    1OPC    C3B72476  22.652  24.197   3.814  0.4177 -0.2347  0.0795
    1OPC    C4B72477  22.249  24.045   3.621 -0.1067  0.0231  0.2042
    1OPC    NC372478  25.529  10.209   1.694 -0.2928  0.0935  0.3017
    1OPC    PO472479  25.809  10.148   2.018  0.2809 -0.0550 -0.1659
    1OPC    GL172480  25.807  10.280   2.330  0.2643 -0.0388 -0.0562
    1OPC    GL272481  25.730  10.164   2.656 -0.0300 -0.1705 -0.3966
    1OPC    C1B72482  25.563  10.085   3.062 -0.0855 -0.0636  0.1689
    1OPC    D2B72483  25.492   9.652   3.163  0.1766 -0.3753  0.3148
    1OPC    C3B72484  25.362   9.523   3.518 -0.0860  0.0634  0.2839
    1OPC    C4B72485  25.574   9.530   3.928 -0.0416 -0.1028 -0.4069
    1OPC    NC372486  20.451   5.361   2.084 -0.1852 -0.0021  0.0833
    1OPC    PO472487  20.354   5.848   2.225 -0.0857 -0.0780  0.2520
    1OPC    GL172488  20.460   5.792   2.704  0.0570 -0.2801  0.1316
    1OPC    GL272489  20.562   5.743   3.064  0.5267 -0.0384  0.4482
    1OPC    C1B72490  20.441   5.877   3.459  0.2725  0.1161  0.1091
    1OPC    D2B72491  19.974   6.026   3.624 -0.0092  0.2576  0.0704
    1OPC    C3B72492  19.829   5.877   3.913  0.0521 -0.0887  0.2872
    1OPC    C4B72493  19.983   5.796   4.201 -0.1373 -0.0614  0.2881
    1OPC    NC372494  29.610   4.699   2.561  0.0359  0.2098 -0.0688
    1OPC    PO472495  29.337   4.270   2.698  0.2587 -0.1023  0.1267
    1OPC    GL172496  29.332   4.279   3.159 -0.3179 -0.0723 -0.2468
    1OPC    GL272497  29.389   4.452   3.481 -0.0367 -0.0124 -0.3735
    1OPC    C1B72498  29.634   4.660   3.794  0.5267 -0.1786 -0.0662
    1OPC    D2B72499  29.583   4.706   4.211  0.0510  0.2163  0.1044
    1OPC    C3B72500  29.743   4.450   4.448 -0.3651  0.0426 -0.3477
    1OPC    C4B72501  29.914   4.435   4.715 -0.2439 -0.1571 -0.0581
    1OPC    NC372502   6.577   7.579   3.270 -0.1419 -0.0269 -0.2712
    1OPC    PO472503   6.776   7.442   3.626 -0.2032 -0.1951  0.3608
    1OPC    GL172504   7.161   7.115   3.740  0.0935  0.0018  0.3252
    1OPC    GL272505   7.252   6.950   3.998 -0.1038  0.0538 -0.3383
    1OPC    C1B72506   7.371   6.757   4.371 -0.3080  0.2404 -0.0350
    1OPC    D2B72507   7.454   6.487   4.580 -0.2727 -0.1203 -0.2806
    1OPC    C3B72508   7.124   6.178   4.747 -0.0098  0.0507 -0.0606
    1OPC    C4B72509   6.704   6.128   4.635  0.0959  0.2101  0.0581
    1OPC    NC372510   5.601  23.868   2.658  0.1055  0.1397 -0.3924
    1OPC    PO472511   5.368  24.157   2.781 -0.1554 -0.0812 -0.1128
    1OPC    GL172512   5.037  23.905   2.647  0.3071  0.1431  0.1052
    1OPC    GL272513   4.781  23.689   2.864 -0.2469 -0.3772 -0.0411
    1OPC    C1B72514   4.617  23.961   3.190  0.0399  0.0091  0.1682
    1OPC    D2B72515   4.470  24.191   3.681 -0.1304  0.1094  0.0929
    1OPC    C3B72516   4.587  24.215   4.114 -0.0041 -0.2271 -0.0377
    1OPC    C4B72517   4.467  24.171   4.591  0.1119 -0.0106  0.0724
    1OPC    NC372518  27.184  23.144   2.716 -0.4836 -0.2775 -0.0655
    1OPC    PO472519  27.650  22.864   2.518  0.0354  0.1257  0.1418
    1OPC    GL172520  27.689  23.163   2.850  0.0539  0.0602  0.0699
    1OPC    GL272521  27.728  23.304   3.157  0.0757  0.1443 -0.0581
    1OPC    C1B72522  27.546  23.444   3.562 -0.1408  0.0922 -0.2731
    1OPC    D2B72523  27.409  23.246   3.893  0.1583 -0.0714  0.1603
    1OPC    C3B72524  27.089  23.324   4.200 -0.1398 -0.0574  0.0485
    1OPC    C4B72525  26.657  23.516   4.276 -0.2559  0.0775 -0.0996
    1OPC    NC372526   2.698  26.394   1.501  0.0589  0.0307 -0.2481
    1OPC    PO472527   2.736  26.182   1.783 -0.0217  0.2502  0.1819
    1OPC    GL172528   2.748  25.880   2.178 -0.1971 -0.3621 -0.1906
    1OPC    GL272529   2.769  25.750   2.482 -0.0403  0.3201  0.1519
    1OPC    C1B72530   2.759  25.732   2.890  0.2407 -0.1544 -0.0991
    1OPC    D2B72531   2.668  25.604   3.244  0.1638 -0.0374  0.1476
    1OPC    C3B72532   2.848  25.679   3.669 -0.1525 -0.4391  0.0677
    1OPC    C4B72533   2.695  25.985   3.916  0.1897  0.1687  0.1214
    1OPC    NC372534   7.718  21.344   1.826 -0.0325 -0.2357 -0.1887
    1OPC    PO472535   7.162  21.309   1.780 -0.1085  0.0865 -0.1594
    1OPC    GL172536   6.942  21.335   2.290  0.2281  0.0341  0.0277
    1OPC    GL272537   6.707  21.473   2.642  0.1381  0.1868  0.0405
    1OPC    C1B72538   6.478  21.492   3.080 -0.1508 -0.2280  0.2087
    1OPC    D2B72539   6.481  21.501   3.447  0.0509 -0.1364  0.1998
    1OPC    C3B72540   6.096  21.397   3.609 -0.0688 -0.1584 -0.0351
    1OPC    C4B72541   5.690  21.339   3.421  0.0829 -0.0160  0.1027
    1OPC    NC372542   6.531  21.323   1.213  0.0347 -0.1788  0.3606
    1OPC    PO472543   6.531  20.860   1.408 -0.0002 -0.2764 -0.0370
    1OPC    GL172544   6.466  20.745   1.902  0.3714 -0.1408 -0.1577
    1OPC    GL272545   6.502  21.014   2.139  0.2620  0.1584 -0.0517
    1OPC    C1B72546   6.184  21.272   2.351 -0.0032  0.0722 -0.0840
    1OPC    D2B72547   6.271  21.587   2.603 -0.0744 -0.2317 -0.3350
    1OPC    C3B72548   6.225  21.886   2.947 -0.1459 -0.3993  0.1759
    1OPC    C4B72549   5.964  21.810   3.402 -0.0802 -0.2305  0.1013
    1OPC    NC372550   1.196  11.883   2.392  0.1651 -0.1224 -0.1049
    1OPC    PO472551   1.185  11.711   2.828  0.1776 -0.2250  0.1901
    1OPC    GL172552   1.201  11.605   3.265  0.0975  0.0873  0.2259
    1OPC    GL272553   0.961  11.486   3.533  0.0061 -0.1857 -0.3103
    1OPC    C1B72554   0.976  11.201   3.829 -0.0635 -0.2842  0.2689
    1OPC    D2B72555   0.785  10.843   4.095 -0.0005  0.1277  0.1550
    1OPC    C3B72556   0.735  10.892   4.539 -0.1304 -0.0260  0.1435
    1OPC    C4B72557   0.496  10.841   4.856  0.0801 -0.2569 -0.3188
    1OPC    NC372558   2.157  14.491   2.535  0.1019  0.0519 -0.0793
    1OPC    PO472559   2.578  14.605   2.659 -0.0358 -0.3253 -0.1114
    1OPC    GL172560   2.875  14.784   2.854  0.1300 -0.0685  0.0980
    1OPC    GL272561   3.150  14.803   3.073 -0.1354  0.1444  0.0855
    1OPC    C1B72562   3.392  14.615   3.458 -0.2020 -0.0496 -0.0834
    1OPC    D2B72563   3.611  14.393   3.897  0.0566 -0.4232 -0.0728
    1OPC    C3B72564   4.031  14.268   4.222 -0.1095 -0.0953 -0.2188
    1OPC    C4B72565   4.319  13.808   4.232 -0.2127 -0.0711 -0.1193
    1OPC    NC372566  23.347  14.980   1.454  0.3838  0.1567  0.0017
    1OPC    PO472567  23.299  15.044   1.938 -0.0651 -0.2141 -0.3214
    1OPC    GL172568  23.367  14.817   2.340  0.0410 -0.0301  0.1117
    1OPC    GL272569  23.479  14.707   2.644 -0.1224  0.1314 -0.2484
    1OPC    C1B72570  23.635  14.612   3.037 -0.4536 -0.1051  0.1663
    1OPC    D2B72571  23.898  14.596   3.370 -0.0675 -0.1645 -0.0720
    1OPC    C3B72572  23.784  14.720   3.711  0.0752  0.1196 -0.2659
    1OPC    C4B72573  23.715  15.090   3.927  0.0398  0.0528 -0.0953
    1OPC    NC372574   5.417  20.547   1.719  0.0620 -0.1704  0.0670
    1OPC    PO472575   5.668  20.954   1.535  0.0733 -0.0792 -0.1576
    1OPC    GL172576   5.512  21.069   2.012 -0.0892  0.0329  0.3830
    1OPC    GL272577   5.264  21.086   2.196  0.0501 -0.3307 -0.3337
    1OPC    C1B72578   5.240  21.195   2.600  0.0521  0.0910 -0.1761
    1OPC    D2B72579   5.197  21.376   2.960 -0.2675  0.0771 -0.0316
    1OPC    C3B72580   5.432  21.711   3.219 -0.1281 -0.0304 -0.1011
    1OPC    C4B72581   5.244  22.020   3.539 -0.0243 -0.0404  0.1553
    1OPC    NC372582  10.796  29.846   3.183  0.0718 -0.2094 -0.0394
    1OPC    PO472583  11.145  29.563   3.013 -0.2727  0.1165  0.2741
    1OPC    GL172584  11.188  29.287   3.371  0.1226  0.0131 -0.0787
    1OPC    GL272585  11.319  29.072   3.544  0.0067  0.1980 -0.0948
    1OPC    C1B72586  11.479  29.200   4.048  0.0690 -0.2552  0.3429
    1OPC    D2B72587  11.407  29.249   4.490 -0.1792 -0.0019 -0.0620
    1OPC    C3B72588  11.569  28.992   4.865  0.0919  0.1726 -0.2339
    1OPC    C4B72589  11.497  28.702   5.244  0.1769 -0.0932 -0.1713
    1OPC    NC372590   2.946  14.754   2.320  0.1103  0.2024 -0.3555
    1OPC    PO472591   3.303  14.854   2.566 -0.3555  0.0119 -0.0519
    1OPC    GL172592   3.755  14.704   2.688 -0.0424  0.1025 -0.1967
    1OPC    GL272593   4.059  14.782   2.827 -0.0131  0.0257 -0.1336
    1OPC    C1B72594   3.928  14.808   3.161  0.5024  0.1706 -0.1659
    1OPC    D2B72595   3.887  14.695   3.600 -0.2236  0.2895  0.3149
    1OPC    C3B72596   4.211  14.592   3.870 -0.2721 -0.2516  0.1811
    1OPC    C4B72597   4.574  14.263   4.025 -0.2687  0.0440 -0.2622
    1OPC    NC372598  24.870  18.611   2.384  0.1017  0.2218 -0.0861
    1OPC    PO472599  24.466  18.658   2.480  0.2052  0.0778 -0.1587
    1OPC    GL172600  24.318  18.728   2.892  0.1598  0.1620 -0.0880
    1OPC    GL272601  24.113  18.588   3.181 -0.0750  0.1167 -0.2002
    1OPC    C1B72602  24.188  18.581   3.608 -0.2467  0.0608  0.0974
    1OPC    D2B72603  24.146  18.684   4.065  0.2229 -0.0635 -0.4067
    1OPC    C3B72604  23.918  18.779   4.441 -0.2738  0.0933  0.1754
    1OPC    C4B72605  23.675  18.978   4.834  0.0733  0.0652 -0.0146
    1OPC    NC372606   0.671   5.614   2.698  0.0168  0.3114 -0.1599
    1OPC    PO472607   1.033   5.293   2.909  0.0472 -0.1063  0.2707
    1OPC    GL172608   0.990   5.100   3.244 -0.1107 -0.0439 -0.2117
    1OPC    GL272609   1.173   4.894   3.464  0.2512 -0.1122  0.0801
    1OPC    C1B72610   1.259   4.589   3.840 -0.1835  0.2007 -0.0348
    1OPC    D2B72611   1.642   4.343   3.957 -0.1545 -0.1015  0.0721
    1OPC    C3B72612   1.855   4.232   4.298 -0.3052 -0.1100  0.1169
    1OPC    C4B72613   2.237   4.279   4.272  0.1332  0.0386  0.0703
    1OPC    NC372614  13.639  27.238   2.664  0.1861  0.0534 -0.4271
    1OPC    PO472615  13.331  27.543   2.883  0.0868  0.0788  0.0641
    1OPC    GL172616  13.098  27.425   3.341  0.1079  0.0151  0.2278
    1OPC    GL272617  12.879  27.465   3.554  0.1627 -0.1810 -0.1691
    1OPC    C1B72618  12.800  27.219   3.837 -0.3434 -0.0363 -0.1492
    1OPC    D2B72619  12.771  26.880   4.195 -0.1462 -0.0689  0.1998
    1OPC    C3B72620  12.558  26.478   4.179  0.0359 -0.0034  0.2893
    1OPC    C4B72621  12.245  26.204   4.177 -0.0616 -0.0887  0.4404
    1OPC    NC372622  18.864  27.983   2.321  0.2797  0.0576 -0.1200
    1OPC    PO472623  18.953  28.266   2.689  0.1857 -0.0559  0.1488
    1OPC    GL172624  19.044  28.521   3.117  0.0693 -0.2108 -0.3406
    1OPC    GL272625  19.190  28.380   3.446 -0.4045  0.2661  0.2078
    1OPC    C1B72626  19.366  28.469   3.926 -0.2075  0.2448  0.0547
    1OPC    D2B72627  19.427  28.488   4.392 -0.1515 -0.0336 -0.2371
    1OPC    C3B72628  18.927  28.645   4.653  0.0543 -0.3469 -0.0261
    1OPC    C4B72629  18.892  28.592   5.107 -0.0944  0.2010  0.0055
    1OPC    NC372630  21.468  15.622   1.707 -0.1668  0.0445  0.2944
    1OPC    PO472631  21.000  15.430   1.738 -0.0370  0.2622 -0.1242
    1OPC    GL172632  21.360  15.300   2.006  0.2567  0.0549  0.1238
    1OPC    GL272633  21.516  15.294   2.141  0.1235 -0.2085 -0.1069
    1OPC    C1B72634  21.738  15.334   2.588  0.2905 -0.1561 -0.2049
    1OPC    D2B72635  21.755  15.210   2.989  0.1909 -0.1530  0.1476
    1OPC    C3B72636  21.462  15.123   3.271 -0.2830 -0.0785 -0.0273
    1OPC    C4B72637  21.511  15.101   3.680  0.1497 -0.1708  0.1200
  29.91148  29.91148   9.46713
