INSANE! Membrane UpperLeaflet>DPPC:DIPC:CHOL=20.0:65.0:15.0 LowerLeaflet>DPPC:DIPC:CHOL=20.0:65.0:15.0
70205
    1DPPC   NC3    1   7.123   7.896   7.654 -0.0545  0.1227 -0.0810
    1DPPC   PO4    2   6.908   7.772   7.274 -0.0463 -0.3385  0.0544
    1DPPC   GL1    3   7.276   7.579   6.817  0.2643 -0.0547 -0.1237
    1DPPC   GL2    4   7.090   7.587   6.551 -0.2335 -0.0088  0.1758
    1DPPC   C1A    5   7.607   7.479   6.508  0.0912  0.0197 -0.1563
    1DPPC   C2A    6   7.700   7.276   6.071  0.2003 -0.1708  0.1129
    1DPPC   C3A    7   7.400   7.258   5.735 -0.0213 -0.0493  0.0647
    1DPPC   C4A    8   7.120   7.228   5.399 -0.3876 -0.4091 -0.0287
    1DPPC   C1B    9   6.952   7.204   6.344 -0.2237  0.2831 -0.1113
    1DPPC   C2B   10   7.152   6.978   6.093  0.0116  0.1045  0.3665
    1DPPC   C3B   11   7.202   6.800   5.600  0.2664 -0.0704  0.0642
    1DPPC   C4B   12   6.934   6.791   5.284  0.1879 -0.0933  0.0252
    1DPPC   NC3   13  10.351  24.606   7.000 -0.2102 -0.2424  0.3281
    1DPPC   PO4   14  10.075  24.875   6.946 -0.0038  0.0836 -0.1718
    1DPPC   GL1   15  10.151  24.832   6.506  0.1315 -0.0393 -0.0053
    1DPPC   GL2   16   9.978  24.745   6.289 -0.2771  0.1131 -0.0471
    1DPPC   C1A   17  10.208  24.977   5.988  0.0474 -0.0266 -0.4181
    1DPPC   C2A   18  10.190  24.874   5.592 -0.0056 -0.2308 -0.1060
    1DPPC   C3A   19  10.318  24.532   5.239  0.3464  0.0050  0.1966
    1DPPC   C4A   20  10.544  24.203   4.998  0.0909 -0.1261 -0.0559
    1DPPC   C1B   21   9.883  24.519   5.774  0.1038 -0.2533 -0.4269
    1DPPC   C2B   22   9.879  24.301   5.444 -0.0773  0.1108  0.0448
    1DPPC   C3B   23  10.020  24.082   5.166  0.1358  0.2006 -0.0857
    1DPPC   C4B   24  10.304  23.671   5.155  0.1462 -0.2601  0.2496
    1DPPC   NC3   25  25.957  13.666   6.951 -0.0041  0.0350  0.1071
    1DPPC   PO4   26  25.756  14.048   6.805 -0.2712  0.0028  0.5346
    1DPPC   GL1   27  25.607  13.971   6.391 -0.3917  0.1117 -0.1341
    1DPPC   GL2   28  25.349  13.800   6.299 -0.0395 -0.0189  0.0836
    1DPPC   C1A   29  25.747  13.775   5.962  0.1467 -0.1040  0.3242
    1DPPC   C2A   30  25.617  13.726   5.523  0.3382 -0.1325 -0.1467
    1DPPC   C3A   31  25.366  13.884   5.190 -0.1250 -0.2645  0.0285
    1DPPC   C4A   32  25.166  14.347   5.146 -0.0914 -0.0511  0.4151
    1DPPC   C1B   33  25.174  13.785   5.927 -0.1682 -0.1277 -0.2331
    1DPPC   C2B   34  25.083  13.652   5.532 -0.0591 -0.1003  0.1589
    1DPPC   C3B   35  24.986  13.566   5.166  0.1495 -0.2212  0.3117
    1DPPC   C4B   36  24.873  13.876   4.836  0.4235 -0.1565  0.4379
    1DPPC   NC3   37   8.726   1.605   6.784 -0.0860  0.1362 -0.1886
    1DPPC   PO4   38   8.403   1.713   6.526  0.2742 -0.2554  0.0473
    1DPPC   GL1   39   8.040   1.542   6.326  0.3238 -0.0176 -0.3718
    1DPPC   GL2   40   7.752   1.622   6.440 -0.2943  0.2301 -0.0963
    1DPPC   C1A   41   7.887   1.273   5.988 -0.3149 -0.1073  0.1472
    1DPPC   C2A   42   7.667   1.300   5.650 -0.2408  0.1764 -0.2357
    1DPPC   C3A   43   7.510   1.389   5.310  0.4454  0.1508  0.0266
    1DPPC   C4A   44   7.583   1.125   5.041  0.0369 -0.0973  0.1499
    1DPPC   C1B   45   7.603   1.648   5.998  0.1595  0.1128 -0.0703
    1DPPC   C2B   46   7.513   1.788   5.599  0.1391 -0.0700 -0.1178
    1DPPC   C3B   47   7.737   1.861   5.160  0.0437 -0.3073 -0.3163
    1DPPC   C4B   48   7.797   1.622   4.762  0.1483 -0.3878  0.1592
    1DPPC   NC3   49   4.866  17.086   6.945  0.1461  0.2434  0.2058
    1DPPC   PO4   50   4.528  17.177   6.729  0.1668 -0.0290 -0.0387
    1DPPC   GL1   51   4.320  16.823   6.412  0.0062 -0.2361  0.0057
    1DPPC   GL2   52   4.234  16.619   6.247 -0.1597  0.0853 -0.0456
    1DPPC   C1A   53   4.395  16.925   5.901 -0.0082 -0.3720 -0.2157
    1DPPC   C2A   54   4.476  16.920   5.464 -0.2895  0.1302  0.1331
    1DPPC   C3A   55   4.298  16.880   5.093 -0.0306 -0.0431  0.0384
    1DPPC   C4A   56   3.955  16.666   4.858 -0.0732 -0.1775 -0.0751
    1DPPC   C1B   57   3.810  16.474   6.233 -0.0880 -0.0918  0.1306
    1DPPC   C2B   58   3.692  16.234   5.903 -0.2189  0.2953  0.3972
    1DPPC   C3B   59   3.925  16.162   5.475  0.1642 -0.0075 -0.1154
    1DPPC   C4B   60   4.135  16.446   5.227 -0.0398  0.1882 -0.0107
    1DPPC   NC3   61   8.493   4.499   7.331 -0.0909 -0.0080  0.0467
    1DPPC   PO4   62   8.775   4.271   7.505 -0.4269  0.1689 -0.1253
    1DPPC   GL1   63   8.897   4.331   7.033 -0.1196  0.0261 -0.3681
    1DPPC   GL2   64   8.697   4.169   6.925  0.3462  0.0874  0.0978
    1DPPC   C1A   65   8.955   4.472   6.642  0.3216 -0.1039  0.1040
    1DPPC   C2A   66   9.012   4.356   6.171  0.0833  0.0988  0.2630
    1DPPC   C3A   67   8.895   4.067   5.780 -0.0624  0.0648  0.0695
    1DPPC   C4A   68   9.017   3.763   5.432 -0.3688  0.3727 -0.0484
    1DPPC   C1B   69   8.523   4.307   6.556  0.0229 -0.1493  0.2162
    1DPPC   C2B   70   8.586   4.765   6.341 -0.0169  0.1620 -0.3134
    1DPPC   C3B   71   8.805   4.833   6.018 -0.1373  0.0706  0.1162
    1DPPC   C4B   72   9.039   4.975   5.776  0.2253  0.0274  0.4310
    1DPPC   NC3   73   6.470   1.823   7.016  0.0181 -0.0996  0.2476
    1DPPC   PO4   74   6.372   1.612   6.592  0.1532 -0.0041  0.0091
    1DPPC   GL1   75   6.421   1.382   6.298 -0.0341  0.2595  0.1122
    1DPPC   GL2   76   6.253   1.049   6.327 -0.0799 -0.0285 -0.0373
    1DPPC   C1A   77   6.591   1.425   5.902  0.1885 -0.1289  0.0685
    1DPPC   C2A   78   6.539   1.275   5.528  0.0542 -0.1262  0.2074
    1DPPC   C3A   79   6.326   1.177   5.130  0.1574 -0.1292  0.0627
    1DPPC   C4A   80   6.177   0.863   4.881 -0.2142 -0.0328 -0.0142
    1DPPC   C1B   81   6.138   0.711   6.034  0.1658  0.1728  0.2358
    1DPPC   C2B   82   6.379   0.397   5.857  0.0803  0.1159  0.1423
    1DPPC   C3B   83   6.361   0.271   5.472 -0.1646  0.0661  0.1662
    1DPPC   C4B   84   6.359   0.052   5.066  0.0897  0.0658 -0.0740
    1DPPC   NC3   85   4.261   4.353   6.595  0.0420 -0.0956 -0.1438
    1DPPC   PO4   86   4.454   4.053   6.324  0.1273 -0.2613 -0.0565
    1DPPC   GL1   87   4.510   3.947   5.861  0.0072 -0.1133  0.1793
    1DPPC   GL2   88   4.199   3.727   5.731  0.2542  0.0645  0.0295
    1DPPC   C1A   89   4.736   4.097   5.558 -0.2829  0.1100  0.4004
    1DPPC   C2A   90   4.785   4.189   5.213  0.3924  0.1844  0.0228
    1DPPC   C3A   91   4.924   4.091   4.898 -0.0106  0.2535  0.0618
    1DPPC   C4A   92   5.223   4.322   4.676  0.0576  0.1336 -0.0609
    1DPPC   C1B   93   4.422   3.731   5.405  0.1065 -0.0906  0.0895
    1DPPC   C2B   94   4.563   3.769   5.051  0.1410  0.0277  0.0659
    1DPPC   C3B   95   4.570   3.716   4.495  0.0316  0.0553 -0.1029
    1DPPC   C4B   96   4.470   3.554   4.113 -0.2113  0.2161  0.2538
    1DPPC   NC3   97   8.543  20.894   7.799  0.1317 -0.2419  0.4371
    1DPPC   PO4   98   8.387  20.799   7.368 -0.1201 -0.0569  0.3556
    1DPPC   GL1   99   8.396  20.876   6.901  0.2346  0.2799 -0.1592
    1DPPC   GL2  100   8.047  20.877   6.777 -0.1556  0.0806  0.0837
    1DPPC   C1A  101   8.458  20.722   6.505  0.2427 -0.1798 -0.4783
    1DPPC   C2A  102   8.498  20.738   6.109 -0.1516  0.1443  0.1257
    1DPPC   C3A  103   8.618  20.966   5.783 -0.0515 -0.3151  0.1430
    1DPPC   C4A  104   8.866  21.015   5.384  0.0274  0.1733  0.3217
    1DPPC   C1B  105   7.973  20.699   6.282 -0.0603  0.0330  0.0023
    1DPPC   C2B  106   7.756  20.415   5.914  0.2099 -0.0906 -0.0335
    1DPPC   C3B  107   7.776  20.384   5.476  0.0603 -0.2008 -0.2313
    1DPPC   C4B  108   7.358  20.507   5.305 -0.2261 -0.2811 -0.2359
    1DPPC   NC3  109   4.269   3.151   6.381  0.3574  0.2284 -0.2708
    1DPPC   PO4  110   3.857   3.233   6.205  0.2700 -0.0234 -0.0796
    1DPPC   GL1  111   4.219   3.209   5.852  0.1870  0.5073 -0.0252
    1DPPC   GL2  112   4.457   2.938   5.940 -0.0041 -0.1359 -0.1091
    1DPPC   C1A  113   4.560   3.302   5.556  0.1456 -0.2662 -0.5740
    1DPPC   C2A  114   4.782   3.352   5.282 -0.3185  0.0722  0.0285
    1DPPC   C3A  115   5.054   3.588   5.129  0.1423 -0.1259 -0.0106
    1DPPC   C4A  116   5.351   3.381   4.790  0.0606 -0.1961 -0.1763
    1DPPC   C1B  117   4.529   2.825   5.462  0.0780 -0.1137 -0.1342
    1DPPC   C2B  118   4.463   2.672   5.089  0.2327  0.1614  0.0230
    1DPPC   C3B  119   4.707   2.958   4.804 -0.3324  0.1990  0.0099
    1DPPC   C4B  120   4.869   3.288   4.757 -0.1256  0.0072 -0.1481
    1DPPC   NC3  121   1.242   3.123   6.531  0.0053 -0.1950  0.0887
    1DPPC   PO4  122   1.631   3.093   6.133  0.1090 -0.5177  0.0126
    1DPPC   GL1  123   1.344   2.884   5.711 -0.1154 -0.0588  0.0698
    1DPPC   GL2  124   1.068   2.934   5.469 -0.0605 -0.3303 -0.0640
    1DPPC   C1A  125   1.493   2.659   5.326  0.2114 -0.2067  0.0148
    1DPPC   C2A  126   1.462   2.679   4.844  0.0358  0.0226 -0.3121
    1DPPC   C3A  127   1.392   2.387   4.565 -0.0942  0.3507 -0.2403
    1DPPC   C4A  128   1.086   2.019   4.291 -0.1505 -0.0822 -0.0899
    1DPPC   C1B  129   1.020   2.827   5.091  0.0910 -0.2594 -0.0491
    1DPPC   C2B  130   1.040   2.696   4.629  0.1147  0.2014  0.1689
    1DPPC   C3B  131   0.839   2.660   4.365 -0.2210  0.0827  0.0456
    1DPPC   C4B  132   0.662   2.376   4.112  0.1706  0.1363  0.4505
    1DPPC   NC3  133  11.254  19.772   7.672 -0.0015  0.1301 -0.2167
    1DPPC   PO4  134  11.493  19.433   7.528  0.0790 -0.4999  0.0443
    1DPPC   GL1  135  11.599  19.306   7.189  0.0263 -0.2664  0.0483
    1DPPC   GL2  136  11.858  19.182   7.070 -0.0251  0.3751  0.0608
    1DPPC   C1A  137  11.491  19.271   6.725  0.0300 -0.0403  0.0413
    1DPPC   C2A  138  11.281  19.050   6.424  0.1019 -0.1114  0.1235
    1DPPC   C3A  139  10.894  18.997   6.152  0.0658  0.0488 -0.2245
    1DPPC   C4A  140  10.404  19.154   6.270 -0.0136 -0.1079 -0.4074
    1DPPC   C1B  141  12.225  19.200   6.738 -0.3273 -0.2925  0.0157
    1DPPC   C2B  142  12.245  19.235   6.305  0.0061 -0.0716 -0.2889
    1DPPC   C3B  143  12.168  19.278   5.815  0.0990 -0.1216 -0.0653
    1DPPC   C4B  144  12.406  19.218   5.464  0.3308 -0.0601  0.0803
    1DPPC   NC3  145  10.892  22.248   7.884 -0.1012 -0.1064  0.0596
    1DPPC   PO4  146  10.639  22.038   7.514 -0.1014  0.3760  0.1309
    1DPPC   GL1  147  10.517  22.294   7.103 -0.0295 -0.2472 -0.1122
    1DPPC   GL2  148  10.543  22.581   7.030 -0.0435  0.0977  0.1038
    1DPPC   C1A  149  10.383  22.120   6.780  0.0992 -0.0382  0.2565
    1DPPC   C2A  150  10.381  22.135   6.310 -0.3338  0.0852  0.1392
    1DPPC   C3A  151  10.025  22.032   6.051 -0.0526 -0.0463  0.0384
    1DPPC   C4A  152   9.953  21.594   5.930 -0.1094 -0.4703 -0.2357
    1DPPC   C1B  153  10.651  22.512   6.605 -0.1550 -0.3478  0.2516
    1DPPC   C2B  154  10.496  22.687   6.260  0.0196  0.0116 -0.2107
    1DPPC   C3B  155  10.427  22.871   5.852 -0.0065 -0.0479 -0.2309
    1DPPC   C4B  156  10.713  22.956   5.442  0.1097 -0.1701  0.1048
    1DPPC   NC3  157  12.468   3.556   7.212 -0.0464 -0.2387 -0.1877
    1DPPC   PO4  158  12.292   3.255   7.471 -0.1232  0.3603 -0.2986
    1DPPC   GL1  159  12.309   2.986   6.965  0.3212 -0.0712  0.1974
    1DPPC   GL2  160  12.592   3.148   6.905 -0.1852  0.0667  0.2116
    1DPPC   C1A  161  12.387   2.637   6.699 -0.0473  0.4053  0.2837
    1DPPC   C2A  162  12.532   2.557   6.330  0.3535  0.0440 -0.0750
    1DPPC   C3A  163  12.283   2.502   5.971 -0.2328 -0.1671  0.1881
    1DPPC   C4A  164  12.098   2.124   5.870  0.1401  0.1794  0.1688
    1DPPC   C1B  165  12.650   3.024   6.483  0.4169  0.1899 -0.0612
    1DPPC   C2B  166  12.874   2.911   6.282 -0.0666 -0.2355  0.2275
    1DPPC   C3B  167  12.830   2.543   5.939 -0.2321 -0.1425  0.1999
    1DPPC   C4B  168  12.702   2.639   5.575  0.1131  0.1173 -0.4898
    1DPPC   NC3  169  25.323  24.184   7.191 -0.0593 -0.1211 -0.0521
    1DPPC   PO4  170  25.033  23.971   7.069  0.0379 -0.0180  0.2106
    1DPPC   GL1  171  24.873  23.883   6.670  0.0522 -0.1351 -0.0702
    1DPPC   GL2  172  24.635  23.772   6.747 -0.2944  0.3811  0.0845
    1DPPC   C1A  173  25.040  24.136   6.326 -0.0660  0.1924 -0.0112
    1DPPC   C2A  174  25.211  24.576   6.010  0.3439 -0.1923  0.2335
    1DPPC   C3A  175  25.164  24.900   5.658  0.2169  0.0966  0.3654
    1DPPC   C4A  176  25.470  25.256   5.549  0.0276 -0.1233 -0.1577
    1DPPC   C1B  177  24.379  24.025   6.504 -0.2865  0.0930 -0.0793
    1DPPC   C2B  178  24.090  23.990   6.168 -0.0551  0.1051 -0.2158
    1DPPC   C3B  179  24.202  24.026   5.720  0.2032 -0.0005  0.1395
    1DPPC   C4B  180  24.270  23.910   5.269  0.1191  0.1213  0.1641
    1DPPC   NC3  181   8.615   9.892   7.229 -0.5402 -0.1284 -0.1898
    1DPPC   PO4  182   8.622  10.292   7.176 -0.1222  0.0178  0.1429
    1DPPC   GL1  183   8.879  10.529   6.860 -0.1244 -0.1749 -0.0208
    1DPPC   GL2  184   8.995  10.827   6.934  0.1031 -0.0664  0.0822
    1DPPC   C1A  185   8.859  10.596   6.338  0.0869 -0.0927 -0.2205
    1DPPC   C2A  186   8.974  10.657   5.886  0.1488 -0.2507  0.0626
    1DPPC   C3A  187   9.160  10.566   5.509 -0.1993  0.0388  0.5959
    1DPPC   C4A  188   9.368  10.497   5.120  0.4997 -0.0556  0.0463
    1DPPC   C1B  189   9.233  11.032   6.573  0.0748  0.1255  0.1010
    1DPPC   C2B  190   9.299  10.971   6.079  0.1764 -0.2395 -0.1230
    1DPPC   C3B  191   9.147  11.095   5.678  0.0268  0.3634  0.0064
    1DPPC   C4B  192   8.905  11.459   5.551 -0.1593 -0.0251 -0.0158
    1DPPC   NC3  193  25.031   1.326   6.636  0.1906  0.1888 -0.2811
    1DPPC   PO4  194  24.835   1.016   6.643  0.0556 -0.3729  0.0963
    1DPPC   GL1  195  24.750   1.116   6.195  0.4723  0.4424  0.1671
    1DPPC   GL2  196  24.786   1.435   6.155 -0.2617  0.1610 -0.1848
    1DPPC   C1A  197  24.677   0.861   5.761 -0.2281  0.0578  0.5117
    1DPPC   C2A  198  24.728   0.701   5.389  0.1817  0.0355  0.3499
    1DPPC   C3A  199  24.860   0.271   5.218  0.1125 -0.0077  0.3174
    1DPPC   C4A  200  24.805  27.937   5.114 -0.1090 -0.1073 -0.0135
    1DPPC   C1B  201  24.990   1.574   5.725 -0.0778 -0.1185  0.0135
    1DPPC   C2B  202  25.090   1.711   5.309  0.4387  0.2534 -0.1119
    1DPPC   C3B  203  25.361   1.859   4.908  0.0944  0.1258  0.1264
    1DPPC   C4B  204  25.680   1.736   4.675  0.1390 -0.0944 -0.0681
    1DPPC   NC3  205  14.660  18.398   7.046  0.0627  0.1312 -0.8845
    1DPPC   PO4  206  15.024  18.239   7.175 -0.2566  0.2914  0.1115
    1DPPC   GL1  207  15.114  18.007   6.881  0.0579  0.1559 -0.2438
    1DPPC   GL2  208  14.691  18.009   6.776 -0.1102 -0.0551 -0.4331
    1DPPC   C1A  209  15.433  18.065   6.429 -0.0212 -0.3626  0.0878
    1DPPC   C2A  210  15.736  18.274   6.334  0.0075  0.0806 -0.0134
    1DPPC   C3A  211  16.067  18.096   6.006  0.2995 -0.0670  0.1454
    1DPPC   C4A  212  16.419  17.825   6.005 -0.1026 -0.0290  0.1439
    1DPPC   C1B  213  14.945  18.016   6.348 -0.2079 -0.3187 -0.0256
    1DPPC   C2B  214  15.070  17.951   5.937  0.1810  0.0754  0.4204
    1DPPC   C3B  215  15.031  17.581   5.892  0.2988 -0.1733  0.3553
    1DPPC   C4B  216  14.933  17.225   5.914 -0.0482  0.1264 -0.0572
    1DPPC   NC3  217   3.114   5.114   5.677 -0.1007 -0.0584 -0.0085
    1DPPC   PO4  218   3.219   4.637   5.806 -0.0055  0.1942 -0.0013
    1DPPC   GL1  219   3.503   4.526   5.475 -0.2067 -0.1572  0.0615
    1DPPC   GL2  220   3.803   4.352   5.386  0.0965 -0.1393  0.1501
    1DPPC   C1A  221   3.465   4.680   5.069  0.1836  0.3397 -0.0503
    1DPPC   C2A  222   3.476   4.678   4.634  0.3267 -0.1946 -0.1489
    1DPPC   C3A  223   3.463   4.878   4.317  0.1285 -0.1194  0.0128
    1DPPC   C4A  224   3.398   5.151   4.049 -0.1159  0.1775  0.1677
    1DPPC   C1B  225   3.781   4.366   4.978 -0.0896 -0.0480 -0.1175
    1DPPC   C2B  226   3.887   4.262   4.526 -0.1126  0.1464 -0.1771
    1DPPC   C3B  227   4.156   4.030   4.316  0.1175 -0.1829  0.0381
    1DPPC   C4B  228   4.315   4.041   4.018  0.1798 -0.1932 -0.1066
    1DPPC   NC3  229   1.047   4.707   5.711  0.1640  0.2354  0.0674
    1DPPC   PO4  230   1.025   5.075   5.623  0.0111  0.1429  0.1459
    1DPPC   GL1  231   1.019   4.958   5.218 -0.1714 -0.1593  0.0031
    1DPPC   GL2  232   1.136   4.684   5.234 -0.0241 -0.4777 -0.0119
    1DPPC   C1A  233   0.955   5.075   4.748  0.1978 -0.0919  0.2722
    1DPPC   C2A  234   0.876   5.355   4.434  0.1091 -0.0976 -0.0635
    1DPPC   C3A  235   0.787   5.461   3.948 -0.0559  0.0176  0.2757
    1DPPC   C4A  236   0.595   5.860   3.836 -0.1881  0.0518  0.1515
    1DPPC   C1B  237   1.229   4.550   4.881 -0.3063 -0.0976 -0.2052
    1DPPC   C2B  238   1.230   4.703   4.523 -0.0042 -0.2723 -0.3213
    1DPPC   C3B  239   1.143   4.869   4.182 -0.1749  0.2010 -0.4146
    1DPPC   C4B  240   0.813   4.973   3.832 -0.2367  0.3813 -0.4896
    1DPPC   NC3  241  25.157  11.444   7.098 -0.2996 -0.2693 -0.0552
    1DPPC   PO4  242  25.084  11.703   6.801  0.1131  0.0843  0.0119
    1DPPC   GL1  243  25.137  11.535   6.453 -0.3074 -0.4235 -0.0910
    1DPPC   GL2  244  24.999  11.320   6.304  0.2193 -0.2332 -0.0759
    1DPPC   C1A  245  25.459  11.729   6.241 -0.1925 -0.0158 -0.0759
    1DPPC   C2A  246  25.837  11.852   6.054  0.1058 -0.1144 -0.0600
    1DPPC   C3A  247  26.140  11.781   5.672 -0.1179 -0.1028 -0.0046
    1DPPC   C4A  248  26.616  11.769   5.709  0.0105 -0.1039  0.3579
    1DPPC   C1B  249  25.194  11.294   5.969  0.4305 -0.1737  0.0930
    1DPPC   C2B  250  25.613  11.471   5.781  0.1069  0.0303 -0.2990
    1DPPC   C3B  251  25.688  11.569   5.387  0.3482  0.0825  0.0007
    1DPPC   C4B  252  25.433  11.591   5.033 -0.0352  0.0140 -0.1328
    1DPPC   NC3  253  15.533   2.209   7.580  0.1114 -0.0287 -0.1976
    1DPPC   PO4  254  15.308   2.681   7.396 -0.0688  0.1164  0.0865
    1DPPC   GL1  255  15.252   2.923   7.018 -0.2387  0.0559 -0.1642
    1DPPC   GL2  256  15.428   3.244   6.971  0.0423 -0.2941 -0.1076
    1DPPC   C1A  257  15.048   3.082   6.568 -0.0186  0.0748 -0.1766
    1DPPC   C2A  258  15.107   3.188   6.083  0.0046 -0.3573 -0.0213
    1DPPC   C3A  259  14.974   3.501   5.790 -0.0118  0.1604 -0.3340
    1DPPC   C4A  260  14.927   3.891   5.798 -0.0365  0.1764 -0.4420
    1DPPC   C1B  261  15.545   3.429   6.563 -0.2316 -0.2248 -0.3677
    1DPPC   C2B  262  15.537   3.164   6.322  0.0980  0.1339  0.1593
    1DPPC   C3B  263  15.599   3.026   5.915 -0.3301  0.0960 -0.0541
    1DPPC   C4B  264  15.735   2.871   5.543  0.0910 -0.3266  0.0361
    1DPPC   NC3  265   4.851   7.467   6.411 -0.0744  0.1912 -0.1897
    1DPPC   PO4  266   4.488   7.564   6.174 -0.1418 -0.3552  0.1093
    1DPPC   GL1  267   4.690   7.402   5.852  0.0545 -0.1733  0.2132
    1DPPC   GL2  268   4.931   7.335   5.930 -0.1675 -0.1586 -0.2433
    1DPPC   C1A  269   4.639   7.266   5.463 -0.1816  0.1249 -0.0310
    1DPPC   C2A  270   4.899   6.996   5.062 -0.3292  0.0614 -0.0396
    1DPPC   C3A  271   4.888   7.079   4.597 -0.2198  0.0006  0.0809
    1DPPC   C4A  272   4.612   7.226   4.241  0.1604 -0.0033  0.1560
    1DPPC   C1B  273   5.138   7.212   5.522 -0.2080 -0.1203  0.0956
    1DPPC   C2B  274   5.433   6.930   5.213 -0.2614 -0.2083 -0.4971
    1DPPC   C3B  275   5.697   6.889   4.814  0.1523  0.1522 -0.0316
    1DPPC   C4B  276   5.603   6.540   4.567  0.3397  0.3998  0.0715
    1DPPC   NC3  277   6.012  24.194   7.059 -0.2639  0.1449  0.3190
    1DPPC   PO4  278   6.227  23.854   6.847 -0.1855  0.0667  0.3718
    1DPPC   GL1  279   6.070  23.747   6.460  0.1621  0.0583 -0.1305
    1DPPC   GL2  280   6.223  23.608   6.307 -0.1617 -0.3784 -0.0674
    1DPPC   C1A  281   5.925  23.865   6.025 -0.2009 -0.1972 -0.0527
    1DPPC   C2A  282   5.916  23.872   5.577 -0.2563 -0.0709  0.2298
    1DPPC   C3A  283   5.952  24.070   5.251  0.0789 -0.2089 -0.1997
    1DPPC   C4A  284   5.964  24.346   4.982 -0.0210  0.3895  0.2911
    1DPPC   C1B  285   6.301  23.624   5.872  0.2423 -0.0164  0.0366
    1DPPC   C2B  286   6.456  23.650   5.512  0.1760 -0.0224 -0.4266
    1DPPC   C3B  287   6.679  23.643   5.176 -0.1788 -0.2387  0.0490
    1DPPC   C4B  288   6.966  23.374   4.890 -0.1067 -0.1221  0.0882
    1DPPC   NC3  289  19.504  22.722   7.174  0.2672  0.2958  0.0503
    1DPPC   PO4  290  19.177  23.025   7.091 -0.2779  0.2664 -0.2826
    1DPPC   GL1  291  19.210  22.755   6.741 -0.3868  0.2806 -0.1635
    1DPPC   GL2  292  18.837  22.763   6.565 -0.0277  0.0961 -0.0988
    1DPPC   C1A  293  19.340  22.523   6.380  0.0502  0.1867  0.2802
    1DPPC   C2A  294  19.287  22.565   5.946 -0.0643  0.3658  0.3917
    1DPPC   C3A  295  19.648  22.582   5.622  0.2756  0.0883  0.3220
    1DPPC   C4A  296  19.937  22.675   5.402 -0.2806 -0.3370 -0.2180
    1DPPC   C1B  297  18.426  22.572   6.426  0.0172  0.4373  0.0979
    1DPPC   C2B  298  18.050  22.730   6.256  0.1039  0.1002 -0.0413
    1DPPC   C3B  299  17.726  22.966   6.372 -0.0651  0.2272  0.0084
    1DPPC   C4B  300  17.393  23.205   6.369  0.0895 -0.2495 -0.1899
    1DPPC   NC3  301   4.443   1.747   6.433  0.1212  0.1051 -0.1379
    1DPPC   PO4  302   4.822   1.567   6.381  0.1355 -0.2586  0.1179
    1DPPC   GL1  303   4.622   1.761   5.940  0.0945  0.4597 -0.0992
    1DPPC   GL2  304   4.528   1.555   5.746 -0.1440  0.2314 -0.1547
    1DPPC   C1A  305   4.820   2.045   5.730  0.0762 -0.0443 -0.1140
    1DPPC   C2A  306   5.235   2.170   5.460  0.0456 -0.0289  0.1825
    1DPPC   C3A  307   5.647   2.028   5.183  0.0581  0.3646 -0.0277
    1DPPC   C4A  308   5.993   2.142   5.022  0.3973  0.0583  0.2264
    1DPPC   C1B  309   4.635   1.489   5.267 -0.0726  0.1470 -0.4030
    1DPPC   C2B  310   4.353   1.499   4.908  0.0698  0.3617 -0.0606
    1DPPC   C3B  311   4.070   1.480   4.585  0.3840  0.1408 -0.1823
    1DPPC   C4B  312   3.627   1.536   4.604 -0.1046 -0.2424 -0.2858
    1DPPC   NC3  313   0.887   1.639   6.557 -0.1619 -0.0200 -0.1227
    1DPPC   PO4  314   1.229   1.646   6.251  0.0666  0.0931  0.0521
    1DPPC   GL1  315   1.172   1.715   5.852  0.0390  0.1956 -0.0385
    1DPPC   GL2  316   1.430   1.897   5.729 -0.1549  0.0304 -0.0582
    1DPPC   C1A  317   0.874   1.818   5.614  0.0213  0.2121 -0.0740
    1DPPC   C2A  318   0.748   1.671   5.269 -0.4097  0.2693 -0.0583
    1DPPC   C3A  319   0.602   1.747   4.878  0.4647  0.0658  0.1278
    1DPPC   C4A  320   0.287   1.656   4.642 -0.2023 -0.4300  0.2465
    1DPPC   C1B  321   1.313   1.745   5.301 -0.0587  0.5072 -0.2849
    1DPPC   C2B  322   1.332   1.343   5.166 -0.1157 -0.0787  0.2177
    1DPPC   C3B  323   1.150   0.847   5.000 -0.2147 -0.0351 -0.2575
    1DPPC   C4B  324   1.089   0.684   4.603  0.2691 -0.1595  0.2673
    1DPPC   NC3  325  23.123   2.134   6.657 -0.1718  0.1401  0.2256
    1DPPC   PO4  326  23.427   1.742   6.677  0.1939  0.3554 -0.0568
    1DPPC   GL1  327  23.659   1.532   6.381  0.1820 -0.0200 -0.1511
    1DPPC   GL2  328  23.927   1.433   6.576 -0.0997 -0.4834  0.0379
    1DPPC   C1A  329  23.750   1.337   6.049 -0.1762 -0.1479 -0.2135
    1DPPC   C2A  330  23.839   1.303   5.604 -0.1775 -0.1575  0.1556
    1DPPC   C3A  331  23.725   1.026   5.235 -0.3736 -0.1226 -0.0476
    1DPPC   C4A  332  23.280   0.853   5.020  0.3674 -0.0528 -0.0317
    1DPPC   C1B  333  24.149   1.629   6.204 -0.4265 -0.1458 -0.3422
    1DPPC   C2B  334  24.123   1.727   5.784  0.0952  0.3770 -0.3158
    1DPPC   C3B  335  24.203   1.748   5.344 -0.2395 -0.3773 -0.1695
    1DPPC   C4B  336  24.476   1.589   5.077 -0.2045 -0.1264  0.3660
    1DPPC   NC3  337   9.782  14.534   7.783  0.1656 -0.1958  0.0551
    1DPPC   PO4  338   9.483  14.525   7.514  0.0517 -0.1046  0.0164
    1DPPC   GL1  339   9.458  14.736   7.192  0.4983 -0.2337  0.3722
    1DPPC   GL2  340   9.181  15.017   7.209  0.2211 -0.3810 -0.0490
    1DPPC   C1A  341   9.365  14.647   6.742  0.1017  0.0565  0.0040
    1DPPC   C2A  342   9.255  14.660   6.398 -0.1551  0.0728  0.3206
    1DPPC   C3A  343   8.995  14.688   6.063 -0.1166 -0.1870 -0.1163
    1DPPC   C4A  344   8.801  14.659   5.705  0.0648  0.0158  0.3852
    1DPPC   C1B  345   9.173  15.231   6.817 -0.3163 -0.1098  0.1675
    1DPPC   C2B  346   9.241  15.200   6.375  0.0048  0.0320 -0.3631
    1DPPC   C3B  347   9.213  15.125   6.026 -0.0238  0.0046 -0.2070
    1DPPC   C4B  348   9.479  15.244   5.695 -0.1257  0.1102 -0.3110
    1DPPC   NC3  349  12.611   7.497   7.975  0.0897 -0.0185 -0.1545
    1DPPC   PO4  350  12.854   7.806   7.876 -0.1416  0.0073  0.0291
    1DPPC   GL1  351  12.621   7.778   7.469 -0.1715  0.1334 -0.2107
    1DPPC   GL2  352  12.716   8.030   7.369 -0.0754 -0.1678 -0.0057
    1DPPC   C1A  353  12.621   7.547   7.067  0.1214 -0.1305  0.3743
    1DPPC   C2A  354  12.512   7.715   6.705  0.0943 -0.0089 -0.1368
    1DPPC   C3A  355  12.474   8.148   6.491  0.1060 -0.1765 -0.1433
    1DPPC   C4A  356  12.608   8.482   6.171 -0.0772 -0.0463 -0.0247
    1DPPC   C1B  357  12.844   8.003   7.002  0.0207 -0.0406  0.3688
    1DPPC   C2B  358  12.990   7.957   6.577  0.1387 -0.0626 -0.1819
    1DPPC   C3B  359  12.946   8.063   6.131  0.3595 -0.0272 -0.3180
    1DPPC   C4B  360  12.688   8.023   5.708 -0.0975 -0.2946  0.0032
    1DPPC   NC3  361  20.591  26.963   7.175  0.0831  0.0547 -0.0305
    1DPPC   PO4  362  20.140  27.055   7.333  0.1270 -0.2153  0.0968
    1DPPC   GL1  363  20.208  26.834   6.861 -0.2323 -0.0287  0.2224
    1DPPC   GL2  364  20.440  26.830   6.725 -0.0361  0.2409  0.2150
    1DPPC   C1A  365  20.075  26.822   6.369 -0.1407 -0.1861  0.0432
    1DPPC   C2A  366  20.112  26.899   5.963 -0.1940 -0.2281 -0.0880
    1DPPC   C3A  367  20.127  27.268   5.662  0.0955  0.0913 -0.1865
    1DPPC   C4A  368  20.175  27.541   5.364  0.0617  0.0309  0.2559
    1DPPC   C1B  369  20.622  26.824   6.339  0.2185 -0.3233 -0.2274
    1DPPC   C2B  370  20.595  26.877   5.911  0.0690 -0.1081 -0.0709
    1DPPC   C3B  371  20.379  26.659   5.629  0.4454 -0.1828 -0.0767
    1DPPC   C4B  372  20.267  26.292   5.201 -0.1243  0.4402  0.3324
    1DPPC   NC3  373  10.864  21.480   7.389  0.0090  0.0311 -0.2572
    1DPPC   PO4  374  10.953  21.142   7.129  0.1065 -0.1585 -0.2983
    1DPPC   GL1  375  10.804  20.884   6.857  0.2305  0.0083 -0.1975
    1DPPC   GL2  376  10.927  20.558   7.079 -0.1166  0.0728  0.2184
    1DPPC   C1A  377  10.776  20.771   6.443  0.0924 -0.2606  0.0139
    1DPPC   C2A  378  10.684  20.780   6.025 -0.1914  0.2954 -0.0411
    1DPPC   C3A  379  10.564  20.758   5.679  0.2366 -0.0387 -0.1898
    1DPPC   C4A  380  10.307  20.444   5.429 -0.0145  0.0099  0.1854
    1DPPC   C1B  381  10.971  20.439   6.680  0.0096 -0.2897 -0.0519
    1DPPC   C2B  382  10.959  20.153   6.425  0.0073 -0.0070 -0.2452
    1DPPC   C3B  383  10.874  20.048   6.037 -0.0860 -0.0244 -0.4121
    1DPPC   C4B  384  10.663  20.219   5.712  0.2638  0.1416 -0.1196
    1DPPC   NC3  385  19.348  18.702   7.838 -0.0413  0.1649 -0.3268
    1DPPC   PO4  386  19.212  19.032   7.689 -0.4546  0.0715  0.0151
    1DPPC   GL1  387  19.413  19.101   7.268  0.1001  0.2333  0.0547
    1DPPC   GL2  388  19.422  19.158   6.902  0.0702  0.0475 -0.1531
    1DPPC   C1A  389  19.651  18.770   6.916 -0.1830 -0.1219 -0.0329
    1DPPC   C2A  390  19.573  18.366   6.815 -0.1547 -0.3843  0.1664
    1DPPC   C3A  391  19.703  18.256   6.407  0.0098 -0.1279 -0.1430
    1DPPC   C4A  392  19.586  17.879   6.113  0.0086  0.0105  0.1302
    1DPPC   C1B  393  19.289  19.408   6.576 -0.0527  0.3053  0.3568
    1DPPC   C2B  394  19.376  19.598   6.209  0.2750 -0.0254 -0.1666
    1DPPC   C3B  395  19.488  19.557   5.883 -0.0983 -0.0910  0.2396
    1DPPC   C4B  396  19.467  19.196   5.513  0.1172 -0.1526  0.0650
    1DPPC   NC3  397  27.757  18.620   6.790  0.1316  0.2422 -0.0579
    1DPPC   PO4  398  27.947  18.227   6.812 -0.3363 -0.0964 -0.0731
    1DPPC   GL1  399  28.001  18.241   6.377  0.1881  0.0994  0.0925
    1DPPC   GL2  400  27.963  17.958   6.212 -0.0309 -0.2200 -0.2611
    1DPPC   C1A  401  27.791  18.243   5.881  0.1519  0.0965 -0.2450
    1DPPC   C2A  402  27.740  17.978   5.574 -0.0322 -0.1870  0.0184
    1DPPC   C3A  403  27.536  17.710   5.123  0.3233  0.1342 -0.5551
    1DPPC   C4A  404  27.671  17.365   4.973 -0.3285  0.4590 -0.1002
    1DPPC   C1B  405  27.837  17.516   5.957 -0.0119  0.0401 -0.0189
    1DPPC   C2B  406  27.914  17.528   5.566 -0.2438  0.3100  0.0516
    1DPPC   C3B  407  27.992  17.741   5.112 -0.0656 -0.0036 -0.0854
    1DPPC   C4B  408  27.900  17.846   4.722  0.1940  0.1771 -0.0412
    1DPPC   NC3  409  12.740  11.734   7.855  0.3037  0.1362 -0.0262
    1DPPC   PO4  410  13.170  11.790   7.744 -0.1716 -0.1487  0.0748
    1DPPC   GL1  411  12.999  11.772   7.400 -0.2641  0.0329  0.0483
    1DPPC   GL2  412  13.058  11.547   7.135  0.0838  0.0159 -0.0045
    1DPPC   C1A  413  12.877  11.981   6.974 -0.2800 -0.0099  0.4161
    1DPPC   C2A  414  13.081  12.304   6.611  0.0343 -0.1556  0.2819
    1DPPC   C3A  415  12.979  12.591   6.174  0.3149  0.0362 -0.0491
    1DPPC   C4A  416  12.964  12.977   6.024 -0.4295 -0.1133 -0.0158
    1DPPC   C1B  417  13.364  11.539   6.799 -0.1050  0.1095  0.2808
    1DPPC   C2B  418  13.805  11.534   6.630 -0.0876  0.3204  0.1215
    1DPPC   C3B  419  14.064  11.215   6.475 -0.1841  0.1957 -0.1960
    1DPPC   C4B  420  14.047  11.006   6.045  0.0195  0.2245  0.0164
    1DPPC   NC3  421   4.821   1.081   6.508  0.1155  0.1953 -0.0134
    1DPPC   PO4  422   4.389   1.273   6.452 -0.0765 -0.0091  0.0978
    1DPPC   GL1  423   4.581   1.048   6.028 -0.0860  0.4441  0.1191
    1DPPC   GL2  424   4.822   0.771   6.098 -0.1735 -0.0350  0.1746
    1DPPC   C1A  425   4.784   1.129   5.585 -0.0552 -0.0408  0.0879
    1DPPC   C2A  426   5.030   1.199   5.122 -0.0787  0.0763 -0.3487
    1DPPC   C3A  427   5.181   1.162   4.716 -0.0353  0.1959  0.0187
    1DPPC   C4A  428   5.276   1.157   4.254  0.0937 -0.1214 -0.1780
    1DPPC   C1B  429   4.786   0.595   5.642  0.0214 -0.0647 -0.1371
    1DPPC   C2B  430   4.943   0.253   5.382 -0.1673  0.0429  0.1448
    1DPPC   C3B  431   5.046   0.036   4.942 -0.0999 -0.2580  0.0069
    1DPPC   C4B  432   5.135   0.217   4.546  0.0403  0.2674  0.1066
    1DPPC   NC3  433  25.799   7.785   6.989  0.3288 -0.1066 -0.2603
    1DPPC   PO4  434  26.098   7.484   6.732  0.2096 -0.4202 -0.0856
    1DPPC   GL1  435  25.785   7.654   6.487 -0.3457  0.2235 -0.1562
    1DPPC   GL2  436  26.126   7.591   6.255  0.0652 -0.2732  0.0749
    1DPPC   C1A  437  25.669   7.769   6.081  0.2018 -0.0575 -0.2168
    1DPPC   C2A  438  25.391   7.690   5.738  0.1318  0.0712 -0.2240
    1DPPC   C3A  439  25.279   7.712   5.311 -0.1685  0.2067 -0.2253
    1DPPC   C4A  440  25.322   7.935   4.917 -0.2687  0.0466  0.0774
    1DPPC   C1B  441  26.101   7.765   5.842 -0.0424  0.0673  0.2314
    1DPPC   C2B  442  25.849   7.827   5.591 -0.0367 -0.2913  0.4008
    1DPPC   C3B  443  25.687   8.032   5.261 -0.0415  0.1442 -0.3174
    1DPPC   C4B  444  25.793   8.062   4.902 -0.1438  0.0125 -0.3670
    1DPPC   NC3  445   7.047  24.564   6.822  0.2831  0.1225  0.0849
    1DPPC   PO4  446   6.987  24.971   6.823 -0.0271  0.2713  0.0317
    1DPPC   GL1  447   6.773  24.844   6.459 -0.2174  0.0121  0.1298
    1DPPC   GL2  448   6.661  24.520   6.566  0.1576  0.2814  0.0620
    1DPPC   C1A  449   6.563  24.799   6.132  0.0425  0.2165 -0.1952
    1DPPC   C2A  450   6.221  24.740   5.832 -0.0534  0.1799  0.3510
    1DPPC   C3A  451   6.188  24.601   5.394  0.0826 -0.0939 -0.2440
    1DPPC   C4A  452   6.175  24.756   4.912  0.0722  0.0864  0.0436
    1DPPC   C1B  453   6.817  24.351   6.228 -0.1603  0.1450 -0.1770
    1DPPC   C2B  454   6.935  24.287   5.798  0.1611  0.2047 -0.0686
    1DPPC   C3B  455   7.110  24.435   5.442 -0.1776  0.1598 -0.1589
    1DPPC   C4B  456   7.384  24.399   5.060 -0.1729  0.1162 -0.2644
    1DPPC   NC3  457  11.383   8.961   8.128 -0.0426  0.0614 -0.1485
    1DPPC   PO4  458  11.038   9.086   7.838  0.1553 -0.0511  0.1017
    1DPPC   GL1  459  11.005   8.858   7.477  0.1276 -0.0109  0.1375
    1DPPC   GL2  460  10.851   8.928   7.160 -0.1584  0.0848 -0.0598
    1DPPC   C1A  461  11.155   8.512   7.150  0.0737  0.2523 -0.0943
    1DPPC   C2A  462  11.371   8.508   6.813 -0.0709  0.2145  0.2502
    1DPPC   C3A  463  11.252   8.345   6.506 -0.1136  0.2946  0.1245
    1DPPC   C4A  464  11.408   8.108   6.220  0.4576  0.0516 -0.0468
    1DPPC   C1B  465  11.105   8.949   6.774 -0.3896 -0.3538  0.1902
    1DPPC   C2B  466  11.209   8.902   6.365  0.2822 -0.1146  0.1501
    1DPPC   C3B  467  11.132   9.246   6.038  0.2332 -0.2924  0.1145
    1DPPC   C4B  468  11.187   9.420   5.551 -0.0077  0.0778 -0.0112
    1DPPC   NC3  469   7.584  13.511   7.380 -0.4146 -0.3046  0.0202
    1DPPC   PO4  470   7.754  13.918   7.220 -0.0126 -0.0814 -0.2051
    1DPPC   GL1  471   7.933  14.103   6.812 -0.1172  0.1607 -0.5285
    1DPPC   GL2  472   7.751  14.143   6.626  0.0261  0.3244 -0.1748
    1DPPC   C1A  473   8.171  14.329   6.555  0.1437  0.3808 -0.2607
    1DPPC   C2A  474   8.136  14.687   6.484 -0.0763  0.0190  0.2168
    1DPPC   C3A  475   8.114  14.911   5.959 -0.0403 -0.2180 -0.3468
    1DPPC   C4A  476   8.363  15.046   5.646  0.0337 -0.1503  0.1666
    1DPPC   C1B  477   7.651  14.068   6.217  0.1511 -0.0146 -0.0584
    1DPPC   C2B  478   7.763  13.806   5.859 -0.1688 -0.2695 -0.0245
    1DPPC   C3B  479   7.896  13.720   5.456 -0.0399  0.1602 -0.3343
    1DPPC   C4B  480   8.002  13.695   5.048  0.0761  0.0585  0.3756
    1DPPC   NC3  481   0.952   4.298   6.041  0.0951 -0.1437  0.0789
    1DPPC   PO4  482   1.381   4.384   5.940 -0.4305 -0.3653 -0.2208
    1DPPC   GL1  483   1.326   4.305   5.567  0.0922 -0.0696 -0.0182
    1DPPC   GL2  484   1.003   4.210   5.524  0.4091 -0.1549  0.0272
    1DPPC   C1A  485   1.490   4.259   5.203  0.1775  0.0876  0.2203
    1DPPC   C2A  486   1.697   4.177   4.835 -0.0469  0.0975  0.2047
    1DPPC   C3A  487   1.689   4.230   4.437  0.2385  0.0669  0.1119
    1DPPC   C4A  488   1.396   4.150   4.096  0.0953 -0.0768  0.2268
    1DPPC   C1B  489   0.949   4.150   5.005  0.0471 -0.2029  0.1723
    1DPPC   C2B  490   1.054   4.137   4.549 -0.0567  0.0302 -0.3069
    1DPPC   C3B  491   1.003   4.355   4.185 -0.3370  0.0707 -0.0805
    1DPPC   C4B  492   1.265   4.524   3.791 -0.1922 -0.1532 -0.0766
    1DPPC   NC3  493  26.212  18.719   6.671 -0.2284  0.0773  0.0796
    1DPPC   PO4  494  25.711  18.862   6.761 -0.0582 -0.0524  0.3325
    1DPPC   GL1  495  25.757  18.692   6.379  0.0770 -0.0928  0.3672
    1DPPC   GL2  496  25.894  18.891   6.171 -0.2265 -0.2453 -0.0179
    1DPPC   C1A  497  25.679  18.577   5.888 -0.2163 -0.1040  0.2464
    1DPPC   C2A  498  25.779  18.465   5.445  0.0286  0.0926 -0.2040
    1DPPC   C3A  499  25.856  18.249   5.126 -0.2701 -0.1278 -0.4338
    1DPPC   C4A  500  25.713  18.040   4.821 -0.0148 -0.2320  0.3612
    1DPPC   C1B  501  25.965  18.955   5.702  0.2240  0.1095 -0.0304
    1DPPC   C2B  502  26.184  19.015   5.259 -0.4471 -0.1144 -0.2490
    1DPPC   C3B  503  26.257  19.356   5.068 -0.2407 -0.0348  0.3371
    1DPPC   C4B  504  26.306  19.516   4.610  0.0463 -0.1331 -0.2291
    1DPPC   NC3  505   1.099  16.319   6.770  0.1330 -0.3050  0.3147
    1DPPC   PO4  506   1.216  16.594   6.431  0.0806  0.0774  0.0263
    1DPPC   GL1  507   1.275  16.683   6.058  0.0691  0.1213 -0.2113
    1DPPC   GL2  508   1.239  16.972   5.866 -0.1831  0.2983  0.0839
    1DPPC   C1A  509   1.338  16.514   5.673  0.3355  0.2483  0.0306
    1DPPC   C2A  510   1.467  16.572   5.193 -0.3913  0.1226 -0.0241
    1DPPC   C3A  511   1.508  16.842   4.901  0.0506  0.0990  0.0862
    1DPPC   C4A  512   1.515  17.211   4.806 -0.0019  0.0163 -0.0456
    1DPPC   C1B  513   0.919  16.836   5.535  0.0186  0.1684  0.0912
    1DPPC   C2B  514   0.870  16.769   5.123  0.2570 -0.4448 -0.0894
    1DPPC   C3B  515   0.664  16.557   4.817  0.4858 -0.0204  0.2644
    1DPPC   C4B  516   0.744  16.213   4.595  0.0786  0.0732 -0.1430
    1DPPC   NC3  517   2.339   2.993   5.969  0.1075 -0.1709  0.5519
    1DPPC   PO4  518   2.405   3.329   5.765 -0.3284 -0.0580  0.1172
    1DPPC   GL1  519   2.358   3.100   5.469 -0.0109 -0.0487 -0.1090
    1DPPC   GL2  520   2.457   2.949   5.472  0.1369 -0.1382 -0.1358
    1DPPC   C1A  521   2.161   3.199   5.117  0.0411 -0.0219 -0.0768
    1DPPC   C2A  522   2.073   3.115   4.727 -0.3320 -0.1884 -0.3427
    1DPPC   C3A  523   1.715   3.179   4.428  0.0228 -0.3717  0.0569
    1DPPC   C4A  524   1.414   2.857   4.306 -0.2058 -0.0610 -0.0016
    1DPPC   C1B  525   2.440   2.598   5.150 -0.3895  0.3408 -0.0087
    1DPPC   C2B  526   2.294   2.382   4.796 -0.2818  0.0452  0.1143
    1DPPC   C3B  527   2.488   2.344   4.365 -0.2481 -0.0165 -0.1685
    1DPPC   C4B  528   2.631   2.078   3.997 -0.0364 -0.0894 -0.0863
    1DPPC   NC3  529   3.835   0.108   6.509 -0.3756  0.0833 -0.1169
    1DPPC   PO4  530   4.261   0.142   6.467  0.2818 -0.0170  0.0423
    1DPPC   GL1  531   4.166   0.064   5.942  0.2886 -0.0230  0.0578
    1DPPC   GL2  532   4.246  27.955   5.957 -0.1765  0.2271 -0.4152
    1DPPC   C1A  533   4.215   0.275   5.547 -0.0430  0.0323 -0.2692
    1DPPC   C2A  534   4.314   0.527   5.254  0.3548 -0.2527 -0.1479
    1DPPC   C3A  535   4.232   0.574   4.833 -0.0547 -0.2265  0.2719
    1DPPC   C4A  536   4.038   0.438   4.398 -0.1441 -0.1475 -0.0811
    1DPPC   C1B  537   4.162  27.901   5.471  0.1567 -0.0471  0.0787
    1DPPC   C2B  538   3.843  27.698   5.219 -0.0166 -0.2582  0.1409
    1DPPC   C3B  539   3.617  27.434   4.926  0.1804 -0.0783  0.0040
    1DPPC   C4B  540   3.349  27.311   4.563 -0.2854  0.0161 -0.0684
    1DPPC   NC3  541   1.415  23.258   6.782  0.0530  0.2483 -0.0247
    1DPPC   PO4  542   1.676  23.106   6.416 -0.1816  0.2424  0.0413
    1DPPC   GL1  543   1.550  23.246   6.019  0.0238  0.1124 -0.2021
    1DPPC   GL2  544   1.502  22.942   5.913  0.2134  0.2573  0.1364
    1DPPC   C1A  545   1.533  23.436   5.609 -0.1336 -0.1161  0.0552
    1DPPC   C2A  546   1.368  23.363   5.149 -0.0172 -0.0993 -0.3751
    1DPPC   C3A  547   0.947  23.469   4.899 -0.1439 -0.0876  0.2243
    1DPPC   C4A  548   0.847  23.452   4.533  0.1208  0.2570 -0.1301
    1DPPC   C1B  549   1.461  22.956   5.486 -0.0616 -0.0653 -0.1384
    1DPPC   C2B  550   1.482  22.810   5.062  0.2187  0.1733  0.0420
    1DPPC   C3B  551   1.202  22.747   4.690  0.0972  0.1143 -0.0562
    1DPPC   C4B  552   0.906  22.554   4.528 -0.2127 -0.1848 -0.2990
    1DPPC   NC3  553  27.105  27.986   7.299 -0.0282  0.0629 -0.1180
    1DPPC   PO4  554  26.873  27.812   6.886 -0.0037 -0.0515  0.0100
    1DPPC   GL1  555  26.820  27.515   6.491 -0.0755 -0.2976 -0.0296
    1DPPC   GL2  556  26.755  27.210   6.518  0.1514 -0.1617  0.1968
    1DPPC   C1A  557  26.633  27.445   6.088 -0.3301 -0.0040 -0.1043
    1DPPC   C2A  558  26.306  27.406   5.916  0.0815  0.0498  0.2752
    1DPPC   C3A  559  26.223  27.274   5.519 -0.0722  0.0390 -0.0040
    1DPPC   C4A  560  26.099  27.226   5.187  0.1583  0.0157  0.0445
    1DPPC   C1B  561  26.915  27.041   6.219  0.0457 -0.1851 -0.0276
    1DPPC   C2B  562  26.966  27.173   5.875 -0.0069 -0.0053 -0.3242
    1DPPC   C3B  563  26.762  27.296   5.516 -0.0245  0.0450  0.0583
    1DPPC   C4B  564  26.561  27.006   5.193 -0.0160  0.3998 -0.2240
    1DPPC   NC3  565   4.921   3.876   6.174 -0.1714  0.2142 -0.1003
    1DPPC   PO4  566   4.832   4.312   6.140 -0.1692 -0.3125 -0.1827
    1DPPC   GL1  567   5.023   4.410   5.780 -0.1512 -0.0289 -0.0251
    1DPPC   GL2  568   4.765   4.559   5.633 -0.0443 -0.1132  0.2242
    1DPPC   C1A  569   5.223   4.521   5.445 -0.3792 -0.0384  0.1170
    1DPPC   C2A  570   5.304   4.742   5.034 -0.2029 -0.0742  0.2953
    1DPPC   C3A  571   5.278   4.821   4.633 -0.1914 -0.3540 -0.1275
    1DPPC   C4A  572   5.439   4.954   4.251 -0.0224  0.0287 -0.2032
    1DPPC   C1B  573   4.709   4.643   5.174  0.1718 -0.3584  0.0787
    1DPPC   C2B  574   4.837   4.643   4.828  0.2865  0.0377 -0.2043
    1DPPC   C3B  575   4.833   4.682   4.394  0.0198  0.1302  0.0082
    1DPPC   C4B  576   5.144   4.480   4.128  0.1806 -0.0065 -0.0034
    1DPPC   NC3  577  16.661   6.108   7.330 -0.1243  0.0391  0.1355
    1DPPC   PO4  578  16.661   5.611   7.277 -0.0214 -0.0251 -0.2959
    1DPPC   GL1  579  16.609   5.445   6.890  0.2861  0.0552 -0.1051
    1DPPC   GL2  580  16.498   5.002   6.874  0.1279 -0.3274  0.2639
    1DPPC   C1A  581  16.522   5.412   6.405 -0.0084  0.0698 -0.0282
    1DPPC   C2A  582  16.692   5.406   6.008 -0.1307  0.2947  0.1027
    1DPPC   C3A  583  17.013   5.632   5.762 -0.1748  0.2650 -0.0273
    1DPPC   C4A  584  17.442   5.578   5.672  0.0686  0.5188 -0.0945
    1DPPC   C1B  585  16.250   5.008   6.544  0.2366  0.3764 -0.2298
    1DPPC   C2B  586  16.178   5.138   6.089 -0.2948  0.0321  0.0029
    1DPPC   C3B  587  16.290   5.291   5.662 -0.0768 -0.0997  0.0825
    1DPPC   C4B  588  16.705   5.359   5.507  0.0603 -0.0052  0.0688
    1DPPC   NC3  589  18.918  17.848   7.511  0.0002 -0.2213 -0.0078
    1DPPC   PO4  590  18.752  17.593   7.373 -0.1369 -0.3823 -0.2707
    1DPPC   GL1  591  18.873  17.768   6.978 -0.1530 -0.3194 -0.1814
    1DPPC   GL2  592  18.627  17.662   6.818 -0.0599 -0.4624 -0.0198
    1DPPC   C1A  593  19.114  17.672   6.515  0.1569 -0.1743  0.0280
    1DPPC   C2A  594  19.156  17.527   6.089 -0.1935  0.0410 -0.1232
    1DPPC   C3A  595  18.881  17.570   5.722 -0.2276 -0.2116 -0.0109
    1DPPC   C4A  596  18.441  17.421   5.790 -0.0876  0.0118  0.2105
    1DPPC   C1B  597  18.749  17.302   6.528  0.1138 -0.0468 -0.3183
    1DPPC   C2B  598  18.806  17.139   6.110 -0.2462 -0.0836  0.0069
    1DPPC   C3B  599  18.443  16.919   5.873 -0.0708  0.2403 -0.1711
    1DPPC   C4B  600  18.097  17.090   5.890  0.1270 -0.2401  0.0070
    1DPPC   NC3  601  11.577   7.065   7.886  0.0126  0.0420  0.0002
    1DPPC   PO4  602  11.938   6.930   7.763 -0.1187 -0.2114  0.2647
    1DPPC   GL1  603  12.069   6.952   7.296  0.1862  0.3150  0.0667
    1DPPC   GL2  604  12.376   6.774   7.238 -0.0954  0.0530 -0.0615
    1DPPC   C1A  605  11.914   7.212   6.977 -0.0059  0.1655 -0.0256
    1DPPC   C2A  606  12.018   7.602   6.673 -0.2459  0.2488 -0.0044
    1DPPC   C3A  607  12.293   7.620   6.248  0.2414  0.2423 -0.1005
    1DPPC   C4A  608  12.388   7.668   5.819  0.1898 -0.1495  0.1764
    1DPPC   C1B  609  12.442   7.118   6.944 -0.0048 -0.2088  0.0089
    1DPPC   C2B  610  12.542   7.201   6.532 -0.2343 -0.2358 -0.0651
    1DPPC   C3B  611  12.710   6.919   6.227  0.1495 -0.3617 -0.0631
    1DPPC   C4B  612  12.812   6.726   5.920  0.1210  0.1966 -0.2578
    1DPPC   NC3  613   2.404   5.465   6.277 -0.0214 -0.0857  0.2782
    1DPPC   PO4  614   2.701   5.223   6.006 -0.1620 -0.1553  0.1638
    1DPPC   GL1  615   2.484   5.177   5.656  0.3534 -0.1629  0.0157
    1DPPC   GL2  616   2.727   5.195   5.349 -0.3250 -0.4634 -0.0735
    1DPPC   C1A  617   2.386   5.607   5.369  0.0266 -0.0708  0.0093
    1DPPC   C2A  618   2.306   5.724   4.923 -0.0521  0.0532 -0.5260
    1DPPC   C3A  619   2.243   5.733   4.503  0.0633  0.0752  0.0240
    1DPPC   C4A  620   2.130   5.610   4.166 -0.2008 -0.3278  0.2442
    1DPPC   C1B  621   2.569   5.202   5.061  0.1696  0.1160 -0.0346
    1DPPC   C2B  622   2.408   5.271   4.680 -0.2587  0.0192 -0.1128
    1DPPC   C3B  623   2.388   5.127   4.267  0.1235 -0.0911  0.3884
    1DPPC   C4B  624   2.402   4.832   3.932  0.0900 -0.1043  0.2010
    1DPPC   NC3  625  20.563  18.662   7.409 -0.0477  0.1380  0.0576
    1DPPC   PO4  626  20.254  18.284   7.482 -0.3117  0.1371 -0.2916
    1DPPC   GL1  627  20.253  18.234   6.986  0.3346  0.1349 -0.2720
    1DPPC   GL2  628  20.337  18.507   7.000 -0.2595 -0.1207  0.3032
    1DPPC   C1A  629  20.379  18.273   6.547  0.0200 -0.4617  0.1674
    1DPPC   C2A  630  20.076  18.159   6.117 -0.2067  0.2430 -0.2000
    1DPPC   C3A  631  19.768  18.211   5.766  0.2011 -0.0678 -0.3409
    1DPPC   C4A  632  19.507  18.186   5.398 -0.3259 -0.2219 -0.1288
    1DPPC   C1B  633  20.052  18.595   6.674 -0.1470  0.4100 -0.1119
    1DPPC   C2B  634  20.051  18.724   6.300 -0.0597 -0.0413  0.1380
    1DPPC   C3B  635  19.815  18.691   5.991  0.1417 -0.0372 -0.3679
    1DPPC   C4B  636  19.557  18.845   5.861 -0.0185 -0.1243 -0.1427
    1DPPC   NC3  637   0.596  12.580   6.827 -0.3601 -0.1673  0.0581
    1DPPC   PO4  638   0.952  12.323   6.821  0.1807  0.1638 -0.2675
    1DPPC   GL1  639   0.763  12.491   6.354  0.1798 -0.2587  0.2381
    1DPPC   GL2  640   0.512  12.404   6.173 -0.5327 -0.1016 -0.0259
    1DPPC   C1A  641   0.806  12.835   6.066 -0.6318  0.0073 -0.0716
    1DPPC   C2A  642   0.772  13.126   5.734  0.0279  0.0612  0.0265
    1DPPC   C3A  643   0.621  13.132   5.381 -0.0988 -0.1342 -0.2627
    1DPPC   C4A  644   0.244  12.851   5.184 -0.3291  0.2601  0.0383
    1DPPC   C1B  645   0.766  12.344   5.812 -0.1722 -0.1523  0.4863
    1DPPC   C2B  646   1.010  12.262   5.462 -0.0704 -0.0273 -0.0939
    1DPPC   C3B  647   1.079  12.314   4.962 -0.0964  0.0866  0.0604
    1DPPC   C4B  648   1.151  12.050   4.629  0.1202 -0.0620 -0.1591
    1DPPC   NC3  649   4.240  11.452   6.966 -0.2938 -0.0199 -0.0943
    1DPPC   PO4  650   4.589  11.264   6.897  0.5161  0.1753  0.1554
    1DPPC   GL1  651   4.654  11.591   6.584 -0.1600 -0.1753 -0.1226
    1DPPC   GL2  652   4.776  11.938   6.618 -0.1022  0.1305  0.2730
    1DPPC   C1A  653   4.636  11.532   6.118 -0.0647 -0.2312 -0.1328
    1DPPC   C2A  654   4.625  11.792   5.758  0.0335  0.1369  0.2673
    1DPPC   C3A  655   4.624  11.706   5.422  0.2596 -0.0003  0.0129
    1DPPC   C4A  656   4.682  11.883   5.032  0.2227 -0.0147  0.0929
    1DPPC   C1B  657   4.744  12.054   6.247  0.1591 -0.0025  0.2662
    1DPPC   C2B  658   4.945  12.140   5.875 -0.0215 -0.0528 -0.1229
    1DPPC   C3B  659   4.974  12.058   5.451  0.1667 -0.1909  0.1093
    1DPPC   C4B  660   5.179  11.689   5.221 -0.0454  0.3045  0.0620
    1DPPC   NC3  661  12.639  10.280   7.550 -0.1429 -0.1566  0.0448
    1DPPC   PO4  662  12.315  10.160   7.164  0.0815 -0.1085 -0.0418
    1DPPC   GL1  663  12.397  10.225   6.773  0.0723 -0.3563 -0.0184
    1DPPC   GL2  664  12.512  10.017   6.727  0.3010  0.0022  0.0728
    1DPPC   C1A  665  12.708  10.422   6.470 -0.0132  0.0041  0.0426
    1DPPC   C2A  666  12.983  10.763   6.370 -0.1187 -0.2505  0.3076
    1DPPC   C3A  667  13.227  10.890   6.005  0.1574 -0.0308  0.0224
    1DPPC   C4A  668  13.595  11.240   5.777 -0.0403  0.2197  0.3824
    1DPPC   C1B  669  12.654   9.959   6.308  0.1622  0.1157 -0.0063
    1DPPC   C2B  670  12.844  10.061   5.993 -0.0144 -0.0410  0.1045
    1DPPC   C3B  671  12.955  10.118   5.655 -0.1269  0.0255  0.1104
    1DPPC   C4B  672  13.263   9.866   5.400  0.2510  0.1748  0.2282
    1DPPC   NC3  673   6.033  22.673   6.834  0.1909 -0.2605 -0.0297
    1DPPC   PO4  674   6.112  22.256   6.780 -0.1496 -0.0460 -0.1011
    1DPPC   GL1  675   6.224  21.933   6.472  0.2163 -0.4943 -0.1080
    1DPPC   GL2  676   6.007  21.789   6.490 -0.0245  0.0952  0.0338
    1DPPC   C1A  677   6.199  21.964   6.019 -0.0489 -0.0495 -0.2829
    1DPPC   C2A  678   6.176  22.018   5.617 -0.4729 -0.2780 -0.0235
    1DPPC   C3A  679   6.244  21.844   5.265  0.0065  0.1044  0.2436
    1DPPC   C4A  680   6.185  21.549   5.107 -0.0220 -0.1173 -0.1646
    1DPPC   C1B  681   6.106  21.500   6.117 -0.1824  0.1054  0.0550
    1DPPC   C2B  682   6.071  21.077   5.936  0.2799 -0.2113 -0.0488
    1DPPC   C3B  683   6.368  20.801   5.673  0.1705 -0.0479  0.0933
    1DPPC   C4B  684   6.579  20.511   5.419 -0.0910  0.0307  0.2170
    1DPPC   NC3  685  14.729   1.707   7.411 -0.2360 -0.0855  0.3169
    1DPPC   PO4  686  14.859   1.345   7.550 -0.0247 -0.1114 -0.3623
    1DPPC   GL1  687  15.004   1.422   7.078  0.0344 -0.0893 -0.1189
    1DPPC   GL2  688  15.250   1.553   6.962  0.0419 -0.0295 -0.0177
    1DPPC   C1A  689  14.882   1.394   6.610 -0.2386 -0.0992 -0.0387
    1DPPC   C2A  690  14.632   1.445   6.228  0.3694 -0.0854  0.5176
    1DPPC   C3A  691  14.689   1.563   5.905  0.1651 -0.0370  0.1923
    1DPPC   C4A  692  14.527   1.614   5.536  0.1257 -0.0248  0.0734
    1DPPC   C1B  693  15.494   1.643   6.645  0.2755  0.0408 -0.1264
    1DPPC   C2B  694  15.487   1.767   6.288 -0.2558 -0.3320 -0.0373
    1DPPC   C3B  695  15.547   1.898   5.928 -0.1866 -0.1295 -0.0379
    1DPPC   C4B  696  15.918   1.838   5.617  0.1001  0.0997 -0.0636
    1DPPC   NC3  697  16.473   7.751   7.078  0.0743  0.2819 -0.2526
    1DPPC   PO4  698  16.145   7.346   7.201 -0.0391  0.1094  0.1672
    1DPPC   GL1  699  15.977   7.172   6.808 -0.4183  0.3733  0.2219
    1DPPC   GL2  700  15.672   7.312   6.632 -0.3839  0.4414 -0.0279
    1DPPC   C1A  701  16.114   7.162   6.428 -0.0232  0.2381 -0.0408
    1DPPC   C2A  702  16.077   7.202   6.043  0.0116  0.1660  0.1478
    1DPPC   C3A  703  16.261   7.218   5.621  0.2170 -0.0299  0.0875
    1DPPC   C4A  704  16.584   7.460   5.517  0.2666  0.0085  0.1402
    1DPPC   C1B  705  15.428   7.104   6.315  0.1529 -0.1376  0.0558
    1DPPC   C2B  706  15.590   6.859   6.026 -0.3230 -0.1148 -0.0648
    1DPPC   C3B  707  15.462   6.695   5.610 -0.0202  0.0886 -0.2640
    1DPPC   C4B  708  15.308   6.513   5.243  0.1865  0.2270  0.0221
    1DPPC   NC3  709   0.917   3.383   5.845  0.2489 -0.0759 -0.1280
    1DPPC   PO4  710   0.638   3.781   6.116  0.3173 -0.0325  0.0712
    1DPPC   GL1  711   0.670   3.758   5.650  0.1710  0.2546 -0.0643
    1DPPC   GL2  712   0.415   3.579   5.522  0.0356  0.1115  0.1691
    1DPPC   C1A  713   0.580   4.006   5.255  0.0381 -0.0021  0.1561
    1DPPC   C2A  714   0.537   4.058   4.822 -0.3187 -0.6155 -0.0839
    1DPPC   C3A  715   0.575   4.219   4.386 -0.0308  0.0847 -0.1787
    1DPPC   C4A  716   0.692   3.991   4.025  0.0952  0.1112  0.1893
    1DPPC   C1B  717   0.304   3.536   5.079 -0.2822  0.0583 -0.0848
    1DPPC   C2B  718   0.305   3.644   4.695  0.2220  0.1154 -0.0547
    1DPPC   C3B  719   0.435   3.712   4.328  0.0156  0.3000 -0.1932
    1DPPC   C4B  720   0.568   3.453   4.025 -0.0303 -0.0166  0.0890
    1DPPC   NC3  721  27.498   7.594   6.535  0.1700 -0.0742  0.1810
    1DPPC   PO4  722  27.868   7.707   6.282  0.1806  0.1349  0.3346
    1DPPC   GL1  723  28.050   7.766   5.833  0.1808  0.1530  0.0273
    1DPPC   GL2  724   0.151   7.548   5.721  0.0812 -0.0137 -0.0015
    1DPPC   C1A  725  27.983   8.014   5.470 -0.0146  0.1747 -0.2422
    1DPPC   C2A  726  27.892   8.169   5.095 -0.3305 -0.0666 -0.0127
    1DPPC   C3A  727  27.727   8.422   4.784  0.0447 -0.2135 -0.0639
    1DPPC   C4A  728  27.515   8.807   4.535  0.0978  0.3527  0.1594
    1DPPC   C1B  729  28.015   7.573   5.302 -0.3249 -0.0718  0.0251
    1DPPC   C2B  730  28.001   7.612   4.895  0.1341 -0.0361  0.0414
    1DPPC   C3B  731  28.026   7.968   4.605 -0.2216 -0.0487  0.1038
    1DPPC   C4B  732   0.039   8.249   4.416 -0.3097  0.1672 -0.0365
    1DPPC   NC3  733  24.959  21.340   5.871 -0.2102 -0.1342 -0.1172
    1DPPC   PO4  734  24.853  20.868   6.022  0.2333 -0.0610 -0.2441
    1DPPC   GL1  735  25.149  20.948   5.594 -0.0540  0.2015 -0.3161
    1DPPC   GL2  736  25.400  20.737   5.571  0.2698  0.1445  0.0631
    1DPPC   C1A  737  24.903  21.056   5.200 -0.3675 -0.1783  0.0092
    1DPPC   C2A  738  24.496  21.063   5.081 -0.1406 -0.1897  0.0505
    1DPPC   C3A  739  24.107  21.311   5.121  0.0338  0.2547 -0.0651
    1DPPC   C4A  740  23.757  21.354   4.910  0.1045  0.1151  0.0389
    1DPPC   C1B  741  25.223  20.647   5.195 -0.1846 -0.1461 -0.0995
    1DPPC   C2B  742  25.247  20.253   4.838  0.2135 -0.0093  0.3334
    1DPPC   C3B  743  25.316  20.162   4.422  0.0430  0.1021  0.1634
    1DPPC   C4B  744  25.648  19.968   4.149 -0.1875  0.0520  0.1903
    1DPPC   NC3  745  24.369  10.683   6.976 -0.4086  0.2419 -0.1345
    1DPPC   PO4  746  23.956  10.435   6.915 -0.1231  0.0618  0.0833
    1DPPC   GL1  747  23.889  10.288   6.505 -0.1942  0.2747 -0.1430
    1DPPC   GL2  748  23.988   9.994   6.372 -0.0063 -0.2277 -0.0972
    1DPPC   C1A  749  23.887  10.492   6.133 -0.4653 -0.1190  0.1576
    1DPPC   C2A  750  24.170  10.494   5.772  0.1388 -0.0288 -0.0847
    1DPPC   C3A  751  24.287  10.512   5.373 -0.2945 -0.0138 -0.1690
    1DPPC   C4A  752  24.328  10.377   4.869 -0.0382  0.0030  0.2280
    1DPPC   C1B  753  23.813  10.022   5.837 -0.0212  0.2957  0.0205
    1DPPC   C2B  754  23.974  10.182   5.411 -0.3134  0.1800 -0.0344
    1DPPC   C3B  755  23.931  10.031   4.966 -0.2237  0.1045  0.0461
    1DPPC   C4B  756  23.955   9.993   4.639  0.0095  0.1967  0.0396
    1DPPC   NC3  757   8.734   4.804   7.703  0.1192 -0.1171  0.1143
    1DPPC   PO4  758   9.079   4.811   7.339 -0.3025  0.1978  0.0036
    1DPPC   GL1  759   9.283   4.753   6.935 -0.2729  0.0737  0.0642
    1DPPC   GL2  760   9.519   5.059   6.944 -0.0853 -0.1254  0.4028
    1DPPC   C1A  761   9.412   4.571   6.525  0.1702 -0.2529  0.0934
    1DPPC   C2A  762   9.648   4.532   6.242  0.0178 -0.0610 -0.2787
    1DPPC   C3A  763   9.772   4.743   5.746  0.1825 -0.0555  0.2073
    1DPPC   C4A  764  10.275   4.956   5.694  0.0164  0.2843 -0.1746
    1DPPC   C1B  765   9.494   5.243   6.570 -0.0123  0.0707  0.0732
    1DPPC   C2B  766   9.201   5.424   6.277  0.1698  0.1593  0.0578
    1DPPC   C3B  767   8.819   5.398   6.194 -0.1698 -0.1615  0.0947
    1DPPC   C4B  768   8.521   5.331   5.912 -0.0580 -0.0159 -0.2817
    1DPPC   NC3  769   2.003   5.070   6.376 -0.1836 -0.0083  0.0368
    1DPPC   PO4  770   2.041   5.267   5.929 -0.0865  0.1662  0.2409
    1DPPC   GL1  771   1.998   5.138   5.503  0.1771  0.1184  0.0150
    1DPPC   GL2  772   2.060   4.883   5.517  0.1235  0.2862  0.4283
    1DPPC   C1A  773   2.055   5.187   4.994 -0.3463  0.1427 -0.0407
    1DPPC   C2A  774   1.946   5.280   4.601  0.2312  0.0336 -0.0137
    1DPPC   C3A  775   1.826   5.263   4.199 -0.1596  0.0075 -0.1831
    1DPPC   C4A  776   1.798   5.376   3.790  0.5069  0.1599 -0.1661
    1DPPC   C1B  777   2.284   4.787   5.137  0.0236  0.0956  0.0829
    1DPPC   C2B  778   2.409   4.802   4.823 -0.3372  0.1100  0.3005
    1DPPC   C3B  779   2.544   4.588   4.399 -0.2026  0.0479  0.0169
    1DPPC   C4B  780   2.591   4.201   4.331 -0.1928 -0.0228  0.0962
    1DPPC   NC3  781  20.088   1.830   7.309  0.0788 -0.2684  0.0047
    1DPPC   PO4  782  20.053   1.298   7.238 -0.0065  0.1633 -0.0540
    1DPPC   GL1  783  19.712   1.228   6.935  0.1337 -0.4455 -0.2523
    1DPPC   GL2  784  19.847   1.328   6.611 -0.0031  0.0441  0.0466
    1DPPC   C1A  785  19.356   1.375   6.669  0.0178 -0.0221  0.2813
    1DPPC   C2A  786  19.332   1.268   6.206  0.1773 -0.0388  0.1730
    1DPPC   C3A  787  19.355   1.644   5.854  0.0534 -0.1067 -0.0244
    1DPPC   C4A  788  19.487   2.075   5.621 -0.1775  0.0657  0.0637
    1DPPC   C1B  789  19.952   1.113   6.270  0.1154  0.0820 -0.1296
    1DPPC   C2B  790  19.941   0.652   6.176 -0.1438 -0.1097  0.3665
    1DPPC   C3B  791  19.594   0.425   5.975 -0.1110  0.0431  0.1772
    1DPPC   C4B  792  19.205   0.279   5.979 -0.2581 -0.2361 -0.2486
    1DPPC   NC3  793   0.027  19.190   7.190 -0.0643  0.2231 -0.3115
    1DPPC   PO4  794  27.902  19.103   6.916  0.1216  0.1025  0.1452
    1DPPC   GL1  795  27.923  19.070   6.490 -0.1124  0.0369  0.1300
    1DPPC   GL2  796  28.087  18.769   6.443  0.4326  0.1854 -0.3185
    1DPPC   C1A  797  27.879  19.038   6.038  0.0597 -0.3949  0.1677
    1DPPC   C2A  798  27.871  18.762   5.641  0.1311 -0.1499 -0.1463
    1DPPC   C3A  799  27.947  18.448   5.408 -0.1443  0.1231 -0.2366
    1DPPC   C4A  800  28.109  18.270   5.001  0.1124  0.0386  0.0625
    1DPPC   C1B  801  28.080  18.595   6.063 -0.0156 -0.1972  0.0518
    1DPPC   C2B  802   0.217  18.538   5.682  0.0785 -0.2329 -0.2787
    1DPPC   C3B  803   0.353  18.424   5.263  0.0910 -0.1875 -0.0498
    1DPPC   C4B  804   0.701  18.334   4.893 -0.2795 -0.1971 -0.0022
    1DPPC   NC3  805  13.891  15.309   7.915  0.3607  0.1091  0.2330
    1DPPC   PO4  806  13.534  15.303   7.735 -0.0354  0.1308  0.2853
    1DPPC   GL1  807  13.549  15.249   7.273  0.0062  0.3469 -0.2410
    1DPPC   GL2  808  13.782  15.455   7.119 -0.0424  0.1136  0.4219
    1DPPC   C1A  809  13.197  15.186   6.885 -0.0307  0.0021  0.2297
    1DPPC   C2A  810  12.819  14.981   6.624  0.2773  0.0700 -0.0905
    1DPPC   C3A  811  12.415  15.055   6.402 -0.0181 -0.1139 -0.1927
    1DPPC   C4A  812  12.220  15.455   6.482 -0.2057  0.2461 -0.4983
    1DPPC   C1B  813  13.699  15.301   6.791  0.2756 -0.2483 -0.1058
    1DPPC   C2B  814  13.723  15.127   6.414 -0.2008  0.0965 -0.2036
    1DPPC   C3B  815  13.527  15.012   6.051  0.1899 -0.1182  0.2451
    1DPPC   C4B  816  13.213  14.629   5.913  0.2271 -0.0491 -0.0126
    1DPPC   NC3  817   2.727   4.754   5.858  0.0881  0.0717 -0.2756
    1DPPC   PO4  818   2.749   4.277   5.783  0.0869 -0.0505 -0.0499
    1DPPC   GL1  819   2.791   4.462   5.330 -0.3405  0.0147 -0.0100
    1DPPC   GL2  820   2.987   4.691   5.348 -0.0871 -0.0471  0.2818
    1DPPC   C1A  821   2.814   4.200   4.907  0.1762  0.0472  0.0904
    1DPPC   C2A  822   2.896   3.767   4.984 -0.0300 -0.3023 -0.0769
    1DPPC   C3A  823   3.075   3.434   4.889 -0.2790  0.1120  0.0854
    1DPPC   C4A  824   3.271   3.138   4.895 -0.1830  0.2198  0.2170
    1DPPC   C1B  825   3.003   4.641   4.900 -0.0533 -0.0257  0.2122
    1DPPC   C2B  826   3.067   4.500   4.375 -0.2016  0.1418 -0.2129
    1DPPC   C3B  827   3.471   4.353   4.211 -0.4054 -0.1271 -0.0292
    1DPPC   C4B  828   3.858   4.242   4.000 -0.3938 -0.0940  0.2916
    1DPPC   NC3  829  23.722  19.045   7.083 -0.0778  0.1668 -0.4720
    1DPPC   PO4  830  23.716  19.279   6.791 -0.0588 -0.1377 -0.0978
    1DPPC   GL1  831  23.857  19.241   6.331 -0.0897  0.0548  0.1822
    1DPPC   GL2  832  23.616  19.221   6.189  0.0916  0.1330  0.1006
    1DPPC   C1A  833  24.001  19.011   5.976  0.0163 -0.0814  0.3353
    1DPPC   C2A  834  24.177  19.046   5.576 -0.1743  0.3651  0.1463
    1DPPC   C3A  835  24.461  19.023   5.220 -0.1016  0.0096 -0.2029
    1DPPC   C4A  836  24.360  19.055   4.808 -0.1513 -0.3675  0.0638
    1DPPC   C1B  837  23.301  19.111   5.827  0.4076  0.0908  0.0731
    1DPPC   C2B  838  22.983  19.119   5.491 -0.1320  0.1203  0.0814
    1DPPC   C3B  839  23.083  18.860   5.163 -0.0083  0.4086 -0.1072
    1DPPC   C4B  840  22.955  18.697   4.769  0.3629  0.0157 -0.1291
    1DPPC   NC3  841   9.294  17.404   7.563 -0.1895  0.2104 -0.2672
    1DPPC   PO4  842   9.593  17.797   7.543 -0.0667  0.3035 -0.1006
    1DPPC   GL1  843   9.492  17.660   7.140 -0.0940  0.1996  0.0266
    1DPPC   GL2  844   9.655  17.295   7.176  0.0940  0.0763 -0.1949
    1DPPC   C1A  845   9.408  17.622   6.749  0.1000  0.1155  0.2045
    1DPPC   C2A  846   9.403  17.517   6.384  0.1239  0.0513 -0.2946
    1DPPC   C3A  847   9.397  17.345   5.963  0.0073  0.0443  0.1270
    1DPPC   C4A  848   9.544  17.247   5.570 -0.2175 -0.0566  0.2347
    1DPPC   C1B  849   9.680  17.174   6.761 -0.2599  0.2045 -0.0296
    1DPPC   C2B  850   9.592  17.077   6.312 -0.2021 -0.0546  0.3043
    1DPPC   C3B  851   9.353  16.897   6.096  0.1754  0.1065 -0.1186
    1DPPC   C4B  852   9.502  16.786   5.720 -0.4558  0.0615 -0.0251
    1DPPC   NC3  853  19.807  10.010   7.372 -0.0897 -0.0167  0.0805
    1DPPC   PO4  854  19.393  10.028   7.257 -0.1427  0.3088  0.4094
    1DPPC   GL1  855  19.416   9.991   6.904 -0.4103 -0.2045  0.1720
    1DPPC   GL2  856  19.301  10.255   6.740 -0.2467  0.0918  0.0456
    1DPPC   C1A  857  19.543   9.895   6.408 -0.1554  0.0809  0.2363
    1DPPC   C2A  858  19.826   9.877   6.016 -0.2601 -0.0863  0.2393
    1DPPC   C3A  859  20.077   9.808   5.611 -0.0241 -0.0908  0.0962
    1DPPC   C4A  860  20.063   9.435   5.290 -0.1108  0.4386  0.0087
    1DPPC   C1B  861  19.432  10.452   6.433  0.1493  0.3121  0.1253
    1DPPC   C2B  862  19.492  10.273   5.977 -0.1634 -0.2162  0.0540
    1DPPC   C3B  863  19.351   9.868   5.685  0.3317 -0.0772 -0.1742
    1DPPC   C4B  864  19.575   9.588   5.465 -0.0272 -0.2449 -0.1553
    1DPPC   NC3  865  13.187  14.947   7.755  0.1886 -0.1168  0.0449
    1DPPC   PO4  866  13.432  14.752   7.330  0.0219 -0.0907  0.2407
    1DPPC   GL1  867  13.521  14.793   6.868  0.2390 -0.0475 -0.1455
    1DPPC   GL2  868  13.371  14.546   6.783 -0.1027 -0.1690  0.0929
    1DPPC   C1A  869  13.639  14.589   6.346  0.1560  0.1882 -0.2585
    1DPPC   C2A  870  13.810  14.616   6.042 -0.0268 -0.0461  0.2616
    1DPPC   C3A  871  13.914  14.245   5.828 -0.0837 -0.0647  0.1120
    1DPPC   C4A  872  13.842  13.998   5.456  0.1144 -0.1500  0.0141
    1DPPC   C1B  873  13.256  14.912   6.416 -0.1297 -0.2741  0.2130
    1DPPC   C2B  874  13.007  15.082   6.122  0.1330 -0.0702  0.0510
    1DPPC   C3B  875  13.019  15.012   5.619  0.3009  0.0930 -0.0405
    1DPPC   C4B  876  13.090  14.769   5.223  0.1215  0.3386 -0.0356
    1DPPC   NC3  877  12.312   9.582   7.469 -0.0356 -0.1017 -0.3192
    1DPPC   PO4  878  11.874   9.405   7.420  0.4072 -0.1936  0.1234
    1DPPC   GL1  879  12.050   9.429   7.037 -0.1776  0.3054  0.1551
    1DPPC   GL2  880  12.184   9.615   6.939 -0.1486  0.0894 -0.0520
    1DPPC   C1A  881  12.134   9.163   6.687  0.0770  0.1039  0.0809
    1DPPC   C2A  882  12.254   9.090   6.268  0.3726 -0.1569 -0.0529
    1DPPC   C3A  883  12.129   9.171   5.861  0.0421  0.1632 -0.1794
    1DPPC   C4A  884  12.035   9.372   5.476 -0.0600  0.0138 -0.3924
    1DPPC   C1B  885  12.235   9.673   6.477 -0.0709 -0.0540 -0.0224
    1DPPC   C2B  886  12.251   9.607   6.090  0.1402 -0.0261  0.0008
    1DPPC   C3B  887  12.316   9.961   5.875 -0.0870 -0.1071  0.0144
    1DPPC   C4B  888  12.498  10.340   5.628 -0.0776  0.0195 -0.1442
    1DPPC   NC3  889  20.341   4.304   6.492  0.1428 -0.0273  0.0683
    1DPPC   PO4  890  20.494   4.780   6.308 -0.1999  0.0382 -0.0646
    1DPPC   GL1  891  20.208   4.748   6.013  0.3926 -0.2453 -0.3045
    1DPPC   GL2  892  20.055   4.481   6.042 -0.1435 -0.1791  0.1159
    1DPPC   C1A  893  19.823   4.816   5.819  0.1937  0.0173  0.0918
    1DPPC   C2A  894  19.602   4.662   5.398 -0.1328  0.1353 -0.4091
    1DPPC   C3A  895  19.275   4.451   5.043 -0.0025 -0.0857  0.0181
    1DPPC   C4A  896  19.285   4.660   4.517 -0.0590 -0.2089  0.3052
    1DPPC   C1B  897  20.118   4.494   5.558 -0.0978  0.1292 -0.2084
    1DPPC   C2B  898  19.966   4.914   5.268 -0.2016 -0.0076 -0.4460
    1DPPC   C3B  899  19.576   5.093   5.095  0.4549 -0.2400  0.0389
    1DPPC   C4B  900  19.189   5.066   4.783  0.2120  0.1213  0.0929
    1DPPC   NC3  901  14.597  15.028   7.560 -0.2229 -0.0145  0.2184
    1DPPC   PO4  902  14.285  15.361   7.634 -0.0564  0.3179 -0.2412
    1DPPC   GL1  903  14.287  15.099   7.208 -0.1658  0.1175  0.1713
    1DPPC   GL2  904  13.946  14.882   7.178 -0.0292 -0.0901 -0.2329
    1DPPC   C1A  905  14.469  14.766   6.874 -0.0151  0.3883 -0.0983
    1DPPC   C2A  906  14.644  14.678   6.525  0.1947  0.0799  0.2310
    1DPPC   C3A  907  14.818  14.710   6.134 -0.1724 -0.1660 -0.1076
    1DPPC   C4A  908  14.826  14.776   5.694 -0.2785 -0.2363 -0.1743
    1DPPC   C1B  909  14.030  14.849   6.727  0.0863  0.0537  0.0403
    1DPPC   C2B  910  14.132  14.663   6.422  0.0838  0.2681 -0.1388
    1DPPC   C3B  911  14.302  14.474   6.157 -0.0603 -0.1883 -0.2036
    1DPPC   C4B  912  14.570  14.171   6.157 -0.0212  0.1114  0.4019
    1DPPC   NC3  913  25.015  22.298   6.621 -0.3036 -0.2026 -0.0027
    1DPPC   PO4  914  24.875  22.417   6.176  0.0205  0.0622 -0.1209
    1DPPC   GL1  915  24.837  22.141   5.815 -0.0389  0.0507 -0.0782
    1DPPC   GL2  916  25.014  22.022   5.484 -0.2485  0.0774  0.1672
    1DPPC   C1A  917  24.521  22.014   5.618  0.1926 -0.3202 -0.2760
    1DPPC   C2A  918  24.208  21.820   5.446  0.3977 -0.0998  0.2929
    1DPPC   C3A  919  23.820  21.837   5.218  0.0131  0.2042  0.1295
    1DPPC   C4A  920  23.425  21.924   5.063  0.1962 -0.0877 -0.0577
    1DPPC   C1B  921  24.873  22.223   5.280 -0.0735  0.0035 -0.0803
    1DPPC   C2B  922  24.501  22.156   5.086  0.0070  0.0285  0.0489
    1DPPC   C3B  923  24.272  21.804   4.957 -0.3434 -0.0295  0.0276
    1DPPC   C4B  924  24.600  21.467   4.861 -0.0827  0.1634 -0.0951
    1DPPC   NC3  925  19.742  13.741   7.445 -0.2791  0.1440 -0.0798
    1DPPC   PO4  926  20.044  13.530   7.217 -0.0227 -0.1476  0.1888
    1DPPC   GL1  927  19.752  13.661   6.927  0.0456  0.4349  0.1086
    1DPPC   GL2  928  19.556  13.736   6.982  0.2037  0.2518 -0.0815
    1DPPC   C1A  929  19.805  13.665   6.514 -0.2200  0.0060 -0.1323
    1DPPC   C2A  930  19.903  13.988   6.135  0.2248  0.0538 -0.0635
    1DPPC   C3A  931  19.866  13.836   5.713  0.2524 -0.3045 -0.0711
    1DPPC   C4A  932  19.914  13.890   5.200  0.0910  0.0373 -0.2690
    1DPPC   C1B  933  19.247  13.759   6.679 -0.3095  0.2082  0.0486
    1DPPC   C2B  934  19.350  13.876   6.312 -0.1490  0.3709 -0.0744
    1DPPC   C3B  935  19.388  14.025   6.037 -0.2797  0.0882 -0.2017
    1DPPC   C4B  936  19.340  14.328   5.690 -0.1263 -0.3072  0.0318
    1DPPC   NC3  937  17.877  25.847   7.585  0.2762  0.4014  0.0070
    1DPPC   PO4  938  18.080  26.111   7.353  0.1673 -0.0067 -0.1626
    1DPPC   GL1  939  18.079  26.267   6.922  0.0724  0.1271 -0.0746
    1DPPC   GL2  940  18.342  26.479   6.956  0.3239 -0.0333  0.2032
    1DPPC   C1A  941  18.109  26.262   6.450 -0.2589  0.1289 -0.1084
    1DPPC   C2A  942  17.908  26.538   6.099 -0.0027  0.0353  0.1265
    1DPPC   C3A  943  17.749  26.335   5.795  0.1815 -0.0392 -0.1819
    1DPPC   C4A  944  17.680  26.079   5.438  0.0622 -0.1400 -0.2460
    1DPPC   C1B  945  18.559  26.459   6.543 -0.0589  0.0100 -0.0735
    1DPPC   C2B  946  18.531  26.285   6.141  0.3310 -0.3171  0.0450
    1DPPC   C3B  947  18.296  26.415   5.717  0.3524 -0.2653 -0.2099
    1DPPC   C4B  948  18.112  26.525   5.370  0.0103 -0.4138 -0.3369
    1DPPC   NC3  949   9.085  10.497   7.287 -0.1269  0.0878  0.0104
    1DPPC   PO4  950   9.029  10.071   7.429 -0.0167 -0.0020 -0.0595
    1DPPC   GL1  951   9.138  10.045   7.045 -0.2416  0.3122 -0.2155
    1DPPC   GL2  952   9.454   9.966   6.880 -0.0864 -0.1236  0.0823
    1DPPC   C1A  953   8.961  10.094   6.596  0.0175 -0.3185 -0.0932
    1DPPC   C2A  954   8.712   9.870   6.334 -0.0021  0.0228 -0.2910
    1DPPC   C3A  955   8.784   9.544   6.038  0.2749  0.1296  0.0410
    1DPPC   C4A  956   9.150   9.545   5.704 -0.1103 -0.4078  0.2440
    1DPPC   C1B  957   9.371   9.855   6.508  0.1174  0.2713 -0.0483
    1DPPC   C2B  958   9.149   9.845   6.129  0.1880  0.0766 -0.2184
    1DPPC   C3B  959   8.874  10.113   5.908 -0.0249  0.0708 -0.0971
    1DPPC   C4B  960   8.670  10.381   5.634  0.1332 -0.0216  0.0499
    1DPPC   NC3  961   7.798  27.123   7.008 -0.0943 -0.1948  0.3649
    1DPPC   PO4  962   7.277  27.221   6.752 -0.2384 -0.0084  0.1487
    1DPPC   GL1  963   7.354  27.352   6.323  0.3914  0.1725  0.0418
    1DPPC   GL2  964   7.351  27.696   6.287  0.2478 -0.1656  0.0927
    1DPPC   C1A  965   7.358  27.129   5.946  0.2551 -0.1587 -0.0929
    1DPPC   C2A  966   7.377  27.076   5.520  0.3122 -0.0800  0.2789
    1DPPC   C3A  967   7.543  27.204   5.030  0.1396 -0.0376 -0.4844
    1DPPC   C4A  968   7.793  27.382   4.825  0.2035  0.0407  0.0752
    1DPPC   C1B  969   7.327  27.672   5.826  0.2698  0.2081 -0.0915
    1DPPC   C2B  970   7.307  27.585   5.355  0.0835 -0.3269 -0.0564
    1DPPC   C3B  971   7.377  27.678   4.974  0.0526 -0.1055  0.3536
    1DPPC   C4B  972   7.449  27.617   4.581 -0.0717 -0.2367 -0.1041
    1DPPC   NC3  973  17.208  15.499   7.781 -0.3268  0.0054 -0.2242
    1DPPC   PO4  974  16.905  15.240   7.811  0.2351 -0.3085 -0.2112
    1DPPC   GL1  975  16.751  15.561   7.515 -0.1299  0.0449 -0.0414
    1DPPC   GL2  976  16.414  15.566   7.609  0.3257  0.0273  0.0350
    1DPPC   C1A  977  16.690  15.352   7.078 -0.2487  0.2293 -0.1971
    1DPPC   C2A  978  16.730  15.022   6.779 -0.3929 -0.0792  0.0580
    1DPPC   C3A  979  16.418  14.854   6.533  0.1998  0.0487  0.1288
    1DPPC   C4A  980  16.014  14.828   6.426  0.3454  0.1142 -0.0906
    1DPPC   C1B  981  16.244  15.141   7.349 -0.0960  0.2047 -0.1048
    1DPPC   C2B  982  16.131  14.833   6.963  0.1513  0.0212  0.3039
    1DPPC   C3B  983  15.863  14.394   6.780  0.1973 -0.3368 -0.1189
    1DPPC   C4B  984  15.387  14.207   6.731 -0.1074 -0.1914  0.1503
    1DPPC   NC3  985  12.764  18.901   7.696 -0.1192  0.0979 -0.2137
    1DPPC   PO4  986  12.560  18.627   7.363  0.0476 -0.3758  0.0143
    1DPPC   GL1  987  12.434  18.614   6.927  0.0730 -0.1208  0.0667
    1DPPC   GL2  988  12.582  18.858   6.648 -0.2711  0.3424  0.0847
    1DPPC   C1A  989  12.044  18.759   6.831 -0.2955  0.1987 -0.1657
    1DPPC   C2A  990  11.795  18.962   6.531  0.0579  0.0085  0.2707
    1DPPC   C3A  991  11.697  19.196   6.198 -0.0952 -0.3317  0.1217
    1DPPC   C4A  992  11.552  19.527   5.859  0.1640 -0.1694  0.1350
    1DPPC   C1B  993  12.751  18.751   6.212  0.2329  0.0550 -0.0903
    1DPPC   C2B  994  12.795  18.672   5.721 -0.1462  0.0467 -0.0989
    1DPPC   C3B  995  12.988  18.565   5.293 -0.3302 -0.0579 -0.0838
    1DPPC   C4B  996  13.017  18.742   4.933 -0.0393  0.4932 -0.0465
    1DPPC   NC3  997  10.601  22.541   7.520  0.2278  0.0141 -0.0783
    1DPPC   PO4  998  11.008  22.365   7.336  0.2232  0.4324  0.0411
    1DPPC   GL1  999  11.037  22.376   6.912 -0.2460 -0.2697  0.3310
    1DPPC   GL2 1000  11.039  22.646   6.819  0.1491 -0.1400  0.0084
    1DPPC   C1A 1001  10.904  22.100   6.534 -0.1021  0.0854 -0.1163
    1DPPC   C2A 1002  10.777  21.927   6.127 -0.1511  0.0756 -0.1379
    1DPPC   C3A 1003  10.484  21.797   5.880 -0.0490 -0.1149 -0.1926
    1DPPC   C4A 1004  10.213  21.864   5.555  0.2562 -0.0406  0.1233
    1DPPC   C1B 1005  11.179  22.526   6.411  0.2400  0.0985  0.3923
    1DPPC   C2B 1006  10.917  22.426   6.153  0.1752 -0.2275  0.0858
    1DPPC   C3B 1007  10.922  22.606   5.695  0.1613 -0.1075  0.2750
    1DPPC   C4B 1008  11.274  22.768   5.424  0.2648  0.1539 -0.0136
    1DPPC   NC3 1009  27.798   5.542   6.382  0.1114  0.0094 -0.0737
    1DPPC   PO4 1010  27.725   5.916   6.291  0.2645 -0.1046 -0.2306
    1DPPC   GL1 1011  27.655   6.098   5.888 -0.1021 -0.0526  0.0251
    1DPPC   GL2 1012  27.450   5.914   5.785  0.0049  0.1282 -0.0122
    1DPPC   C1A 1013  27.630   6.305   5.391 -0.0997 -0.0938  0.1540
    1DPPC   C2A 1014  27.530   6.379   4.944 -0.2432  0.2436  0.0057
    1DPPC   C3A 1015  27.301   6.450   4.630 -0.2403 -0.1598 -0.0160
    1DPPC   C4A 1016  27.040   6.709   4.437  0.0516 -0.1219  0.1678
    1DPPC   C1B 1017  27.331   5.933   5.292 -0.0225  0.0535  0.3722
    1DPPC   C2B 1018  27.296   5.897   4.911  0.1097  0.0577  0.0098
    1DPPC   C3B 1019  27.207   5.663   4.560  0.3972 -0.2751  0.0060
    1DPPC   C4B 1020  27.139   5.659   4.107 -0.1366  0.0991 -0.1973
    1DPPC   NC3 1021  26.588   1.522   6.945  0.1671 -0.1232  0.5259
    1DPPC   PO4 1022  26.544   1.115   6.758 -0.2167 -0.1396 -0.0760
    1DPPC   GL1 1023  26.410   0.937   6.443 -0.2146  0.1284 -0.0588
    1DPPC   GL2 1024  26.112   1.055   6.390 -0.2378  0.1378  0.0391
    1DPPC   C1A 1025  26.479   1.071   6.046  0.0543  0.1254 -0.1598
    1DPPC   C2A 1026  26.715   1.273   5.786  0.1352  0.3221  0.1688
    1DPPC   C3A 1027  26.662   1.597   5.457  0.1313  0.0443 -0.1035
    1DPPC   C4A 1028  26.600   1.962   5.252  0.1266 -0.2115 -0.4148
    1DPPC   C1B 1029  25.962   1.212   5.975 -0.2317 -0.0369 -0.1306
    1DPPC   C2B 1030  26.103   1.207   5.583  0.0685 -0.4275 -0.3577
    1DPPC   C3B 1031  26.092   0.940   5.148  0.2507  0.3138  0.0324
    1DPPC   C4B 1032  26.100   0.716   4.788  0.0822  0.0979 -0.1251
    1DPPC   NC3 1033   0.430   7.312   6.866 -0.1697 -0.0860 -0.0699
    1DPPC   PO4 1034   0.494   7.437   6.480 -0.0614 -0.1561 -0.0250
    1DPPC   GL1 1035   0.530   7.271   6.043 -0.0635 -0.0306  0.0298
    1DPPC   GL2 1036   0.407   7.055   5.854  0.0442 -0.0661 -0.0860
    1DPPC   C1A 1037   0.679   7.418   5.666  0.0054 -0.0403 -0.1311
    1DPPC   C2A 1038   0.596   7.490   5.262 -0.1062  0.1555 -0.0330
    1DPPC   C3A 1039   0.664   7.635   4.902  0.0923  0.2995 -0.1040
    1DPPC   C4A 1040   1.082   7.760   4.775  0.1499  0.0287  0.2609
    1DPPC   C1B 1041   0.249   7.175   5.439  0.1692 -0.2157  0.1401
    1DPPC   C2B 1042   0.070   7.135   5.060 -0.0369  0.0190  0.0813
    1DPPC   C3B 1043  28.029   7.162   4.675 -0.2567  0.3315  0.3581
    1DPPC   C4B 1044  28.048   6.892   4.313 -0.1725 -0.0116 -0.0496
    1DPPC   NC3 1045   1.269  21.665   6.249  0.1006  0.1304  0.5045
    1DPPC   PO4 1046   0.802  21.424   6.212  0.1226  0.0495 -0.0290
    1DPPC   GL1 1047   0.526  21.324   5.909  0.3127 -0.1020  0.2107
    1DPPC   GL2 1048   0.086  21.265   5.888 -0.1872 -0.1941 -0.0216
    1DPPC   C1A 1049   0.352  21.475   5.578  0.0660 -0.0822  0.2308
    1DPPC   C2A 1050   0.349  21.703   5.221  0.2465  0.0133 -0.1380
    1DPPC   C3A 1051   0.244  21.978   4.888 -0.0964 -0.1206  0.3093
    1DPPC   C4A 1052  28.124  22.068   4.596 -0.1057 -0.1705 -0.0178
    1DPPC   C1B 1053   0.026  21.046   5.466 -0.0426 -0.0948  0.1098
    1DPPC   C2B 1054  27.887  20.909   5.030  0.2651  0.3283 -0.0264
    1DPPC   C3B 1055  28.003  21.055   4.628  0.0922 -0.1804  0.0370
    1DPPC   C4B 1056   0.106  21.239   4.344  0.0969 -0.0586 -0.1742
    1DPPC   NC3 1057   5.635  26.308   6.766  0.1637 -0.0120  0.1564
    1DPPC   PO4 1058   5.278  26.561   6.823  0.1592  0.0186  0.1412
    1DPPC   GL1 1059   4.988  26.548   6.532 -0.1495  0.3897  0.0211
    1DPPC   GL2 1060   5.171  26.808   6.295 -0.1097 -0.1087  0.0219
    1DPPC   C1A 1061   4.778  26.640   6.048  0.2548 -0.0331 -0.1234
    1DPPC   C2A 1062   4.674  26.565   5.590  0.0259  0.0048  0.1796
    1DPPC   C3A 1063   4.741  26.480   5.206  0.0775  0.0917  0.1072
    1DPPC   C4A 1064   4.475  26.265   4.852 -0.1302  0.1108  0.0741
    1DPPC   C1B 1065   5.097  26.945   5.770  0.2921 -0.1827 -0.1483
    1DPPC   C2B 1066   5.140  26.782   5.404 -0.2415 -0.0166  0.2965
    1DPPC   C3B 1067   5.288  26.512   5.067  0.0971  0.2088  0.0716
    1DPPC   C4B 1068   5.485  26.675   4.756  0.0026  0.2970 -0.2748
    1DPPC   NC3 1069  24.735   7.156   6.618  0.1238 -0.0832  0.2725
    1DPPC   PO4 1070  24.909   6.902   6.505 -0.1486  0.0886 -0.2792
    1DPPC   GL1 1071  24.749   6.763   6.233  0.3801  0.1543  0.0723
    1DPPC   GL2 1072  24.727   6.964   6.021 -0.1080  0.0176 -0.0403
    1DPPC   C1A 1073  24.584   6.599   5.823 -0.2311  0.1799 -0.2639
    1DPPC   C2A 1074  24.727   6.362   5.529 -0.2276  0.2895 -0.1135
    1DPPC   C3A 1075  24.682   5.974   5.309  0.3341 -0.1133 -0.1131
    1DPPC   C4A 1076  24.758   5.870   5.028  0.1468  0.0843  0.0351
    1DPPC   C1B 1077  24.399   7.088   5.763  0.2526  0.0358 -0.0892
    1DPPC   C2B 1078  24.361   6.816   5.443  0.1423  0.4479  0.1462
    1DPPC   C3B 1079  24.261   6.676   5.198  0.1775 -0.0160 -0.0278
    1DPPC   C4B 1080  24.218   6.637   4.764 -0.1821  0.0175 -0.1841
    1DPPC   NC3 1081  17.890   1.243   7.424 -0.0010  0.0543  0.0504
    1DPPC   PO4 1082  17.522   1.462   7.333  0.3945 -0.2748  0.1045
    1DPPC   GL1 1083  17.427   1.769   6.976  0.0293 -0.1228 -0.2278
    1DPPC   GL2 1084  17.605   1.995   7.116  0.3268 -0.4684  0.0902
    1DPPC   C1A 1085  17.423   1.808   6.541 -0.1101  0.1649 -0.2044
    1DPPC   C2A 1086  17.248   2.029   6.267 -0.1051  0.1317  0.2373
    1DPPC   C3A 1087  16.791   2.051   6.058 -0.0846  0.1152 -0.2157
    1DPPC   C4A 1088  16.529   2.316   5.965 -0.1164 -0.3458 -0.0432
    1DPPC   C1B 1089  17.449   2.406   6.732 -0.0852 -0.1727  0.5159
    1DPPC   C2B 1090  17.150   2.685   6.422 -0.3102  0.2601  0.1041
    1DPPC   C3B 1091  16.815   2.693   6.032  0.0401 -0.0210 -0.1314
    1DPPC   C4B 1092  16.903   2.658   5.635 -0.0149 -0.0174  0.1459
    1DPPC   NC3 1093  11.620   5.754   7.672 -0.0612  0.3746 -0.0745
    1DPPC   PO4 1094  11.646   6.049   7.564 -0.1717  0.0371  0.3595
    1DPPC   GL1 1095  11.860   5.956   7.188 -0.0615  0.2844 -0.0032
    1DPPC   GL2 1096  11.774   5.671   7.158  0.0422 -0.0891  0.0974
    1DPPC   C1A 1097  12.221   5.985   6.899  0.1434 -0.1332  0.0341
    1DPPC   C2A 1098  12.212   5.924   6.535  0.0502 -0.0834 -0.1764
    1DPPC   C3A 1099  12.290   6.115   6.140  0.2243 -0.3542  0.1977
    1DPPC   C4A 1100  12.320   6.416   5.902 -0.2144  0.0223 -0.3839
    1DPPC   C1B 1101  11.708   5.848   6.738 -0.0083  0.1546  0.1010
    1DPPC   C2B 1102  11.581   6.187   6.622 -0.2348  0.0921 -0.0274
    1DPPC   C3B 1103  11.383   6.351   6.290 -0.0375  0.0762  0.0113
    1DPPC   C4B 1104  11.210   6.206   6.005  0.3667 -0.1968 -0.0696
    1DPPC   NC3 1105   1.846   4.471   5.777  0.4065 -0.1191 -0.0796
    1DPPC   PO4 1106   1.522   4.779   5.592  0.1156 -0.1663  0.0768
    1DPPC   GL1 1107   1.600   5.053   5.296 -0.1921 -0.0139 -0.0188
    1DPPC   GL2 1108   1.256   5.365   5.304 -0.1215 -0.1307 -0.0277
    1DPPC   C1A 1109   1.522   5.076   4.864  0.0520  0.0408 -0.0484
    1DPPC   C2A 1110   1.405   5.216   4.473 -0.1546  0.1916  0.0390
    1DPPC   C3A 1111   1.347   5.421   4.045  0.1130  0.2566  0.0899
    1DPPC   C4A 1112   1.430   5.772   3.975  0.0102  0.4510  0.1505
    1DPPC   C1B 1113   1.182   5.510   4.921 -0.1745  0.0033 -0.0619
    1DPPC   C2B 1114   1.149   5.777   4.699  0.1122 -0.1071  0.3222
    1DPPC   C3B 1115   0.979   5.886   4.378 -0.1706 -0.0629  0.1694
    1DPPC   C4B 1116   1.034   6.037   3.946 -0.1921 -0.0619 -0.1125
    1DPPC   NC3 1117  23.289  18.264   7.367  0.0048  0.2512  0.0350
    1DPPC   PO4 1118  23.554  18.562   7.180  0.0535  0.0039  0.3615
    1DPPC   GL1 1119  23.336  18.725   6.920 -0.0096  0.0530  0.2771
    1DPPC   GL2 1120  23.435  18.900   6.649 -0.0637 -0.4223  0.2522
    1DPPC   C1A 1121  22.960  18.665   6.591 -0.1083  0.1132  0.0125
    1DPPC   C2A 1122  22.760  18.365   6.389  0.2764  0.1655 -0.0527
    1DPPC   C3A 1123  22.680  17.962   6.529  0.2490  0.0535  0.0323
    1DPPC   C4A 1124  22.672  17.502   6.452  0.1251  0.1640 -0.2226
    1DPPC   C1B 1125  23.197  19.068   6.378  0.3046  0.0537 -0.0008
    1DPPC   C2B 1126  22.685  19.131   6.335 -0.0773  0.2696  0.2185
    1DPPC   C3B 1127  22.352  19.324   6.273 -0.1767 -0.1603 -0.1599
    1DPPC   C4B 1128  22.159  19.585   6.327  0.3017 -0.0442  0.3889
    1DPPC   NC3 1129   8.071   8.898   7.281 -0.1957 -0.1274  0.2875
    1DPPC   PO4 1130   8.081   9.274   7.047  0.1017 -0.1732 -0.0037
    1DPPC   GL1 1131   7.912   9.341   6.670 -0.3246  0.1918  0.0597
    1DPPC   GL2 1132   7.967   9.571   6.522 -0.2385  0.1912  0.3183
    1DPPC   C1A 1133   7.873   9.170   6.240 -0.2497  0.2628 -0.2596
    1DPPC   C2A 1134   7.859   9.327   5.841  0.1417 -0.2277  0.1098
    1DPPC   C3A 1135   7.965   9.586   5.512  0.2604 -0.1103  0.0024
    1DPPC   C4A 1136   8.050   9.606   5.096  0.1301  0.2142  0.1433
    1DPPC   C1B 1137   8.236   9.597   6.172 -0.1706  0.1527 -0.3720
    1DPPC   C2B 1138   8.395   9.315   5.843 -0.2485 -0.1086  0.2107
    1DPPC   C3B 1139   8.744   9.203   5.608  0.0220 -0.2004  0.3308
    1DPPC   C4B 1140   9.180   8.993   5.626 -0.0731 -0.3618  0.0492
    1DPPC   NC3 1141  11.437  10.176   7.238  0.1152 -0.0640  0.3745
    1DPPC   PO4 1142  11.088  10.009   7.389 -0.3033 -0.1182  0.0386
    1DPPC   GL1 1143  10.975   9.869   6.883 -0.2522 -0.0863  0.0921
    1DPPC   GL2 1144  11.350   9.998   6.724  0.0441  0.1241  0.0349
    1DPPC   C1A 1145  10.856   9.872   6.396 -0.3838  0.0221 -0.0191
    1DPPC   C2A 1146  10.718   9.601   6.046  0.0708  0.0420 -0.1972
    1DPPC   C3A 1147  10.600   9.317   5.805  0.0886  0.1412  0.0008
    1DPPC   C4A 1148  10.441   9.248   5.343 -0.4008 -0.3074 -0.0861
    1DPPC   C1B 1149  11.368   9.794   6.338 -0.0717  0.0647 -0.0034
    1DPPC   C2B 1150  11.284   9.753   5.933 -0.1421  0.3141 -0.0945
    1DPPC   C3B 1151  11.429   9.984   5.568  0.1161 -0.0366 -0.0871
    1DPPC   C4B 1152  11.625  10.268   5.193 -0.0227  0.3392 -0.1561
    1DPPC   NC3 1153  27.675   3.422   6.446 -0.1690 -0.0189 -0.1221
    1DPPC   PO4 1154  27.891   3.776   6.319 -0.0799  0.0194 -0.0103
    1DPPC   GL1 1155  27.734   3.697   5.938  0.2785  0.0311  0.1351
    1DPPC   GL2 1156  27.713   3.348   5.944  0.0364 -0.1533 -0.0737
    1DPPC   C1A 1157  27.587   3.699   5.550  0.2312  0.0887  0.1099
    1DPPC   C2A 1158  27.515   3.465   5.198  0.1246 -0.0837  0.2641
    1DPPC   C3A 1159  27.565   3.309   4.766 -0.1194 -0.1018  0.2208
    1DPPC   C4A 1160  27.951   3.471   4.552 -0.1175 -0.2557  0.1431
    1DPPC   C1B 1161  27.576   3.077   5.598 -0.0524  0.0316 -0.6085
    1DPPC   C2B 1162  27.346   2.645   5.339  0.1951  0.1092  0.1930
    1DPPC   C3B 1163  27.096   2.373   5.144 -0.0581 -0.2929  0.0585
    1DPPC   C4B 1164  26.912   2.114   4.872  0.1107  0.3696 -0.0470
    1DPPC   NC3 1165  18.049  26.984   7.682 -0.0872  0.0397 -0.3975
    1DPPC   PO4 1166  18.361  27.151   7.567  0.0744 -0.2727 -0.1624
    1DPPC   GL1 1167  18.413  27.182   7.174 -0.0220  0.0703 -0.1366
    1DPPC   GL2 1168  18.144  27.278   6.955  0.2060 -0.2496 -0.0832
    1DPPC   C1A 1169  18.515  27.003   6.729  0.2096  0.1365 -0.2338
    1DPPC   C2A 1170  18.710  27.084   6.357 -0.0153  0.0635  0.2205
    1DPPC   C3A 1171  18.910  27.184   5.971  0.0076  0.2595  0.2877
    1DPPC   C4A 1172  19.119  27.346   5.701  0.1711 -0.2443  0.0562
    1DPPC   C1B 1173  18.238  27.281   6.473 -0.0540  0.0653 -0.1224
    1DPPC   C2B 1174  18.230  27.350   6.074  0.0156  0.1244 -0.0249
    1DPPC   C3B 1175  18.487  27.248   5.734 -0.2073  0.0081  0.0483
    1DPPC   C4B 1176  18.531  26.850   5.634  0.1818 -0.0013 -0.4578
    1DPPC   NC3 1177  13.963   9.922   7.504  0.1952  0.0360 -0.4140
    1DPPC   PO4 1178  13.546   9.698   7.505  0.0451 -0.2473 -0.0986
    1DPPC   GL1 1179  13.245   9.605   7.147  0.3095  0.0169 -0.2442
    1DPPC   GL2 1180  13.138   9.888   7.008  0.2586  0.0639  0.0746
    1DPPC   C1A 1181  13.301   9.602   6.652 -0.0617 -0.1497  0.0646
    1DPPC   C2A 1182  13.404   9.423   6.246  0.1832 -0.0395  0.1897
    1DPPC   C3A 1183  13.358   9.156   5.923  0.2473  0.2261  0.1750
    1DPPC   C4A 1184  13.341   9.380   5.544 -0.4276 -0.1799  0.0562
    1DPPC   C1B 1185  13.015  10.044   6.644  0.0826 -0.2043  0.3173
    1DPPC   C2B 1186  13.275  10.023   6.311  0.4444 -0.2799  0.1540
    1DPPC   C3B 1187  13.358  10.131   5.972 -0.2536  0.0230  0.3088
    1DPPC   C4B 1188  13.597  10.175   5.629  0.0793  0.1279 -0.1634
    1DPPC   NC3 1189   5.969   4.996   6.603  0.0357 -0.2559 -0.0209
    1DPPC   PO4 1190   5.879   4.712   6.375 -0.0489  0.1331  0.3114
    1DPPC   GL1 1191   5.925   4.630   6.022 -0.0742 -0.0377  0.0313
    1DPPC   GL2 1192   6.182   4.768   5.861  0.0019 -0.3163 -0.1096
    1DPPC   C1A 1193   5.869   4.418   5.631  0.1367  0.0275  0.1112
    1DPPC   C2A 1194   5.756   4.326   5.241  0.5156 -0.0009  0.0263
    1DPPC   C3A 1195   5.770   4.401   4.805  0.1819  0.0586 -0.2746
    1DPPC   C4A 1196   5.688   4.587   4.451 -0.0118 -0.0363 -0.0226
    1DPPC   C1B 1197   6.268   4.713   5.470  0.0303 -0.0613  0.0914
    1DPPC   C2B 1198   6.220   4.563   5.096 -0.1265  0.2728 -0.0116
    1DPPC   C3B 1199   6.359   4.870   4.807 -0.0212 -0.1348  0.3950
    1DPPC   C4B 1200   6.241   4.769   4.465 -0.0881  0.0956  0.1684
    1DPPC   NC3 1201  27.206   8.312   6.494  0.0334 -0.0313 -0.0051
    1DPPC   PO4 1202  27.606   8.559   6.397  0.2819 -0.0768 -0.3512
    1DPPC   GL1 1203  27.314   8.690   6.175 -0.2867 -0.3297 -0.0348
    1DPPC   GL2 1204  26.965   8.703   6.308 -0.0913 -0.0629  0.0127
    1DPPC   C1A 1205  27.244   8.860   5.760  0.0401 -0.2349 -0.1111
    1DPPC   C2A 1206  27.119   8.845   5.365  0.1074  0.2193 -0.0475
    1DPPC   C3A 1207  26.845   8.666   5.031 -0.2622 -0.0529 -0.1104
    1DPPC   C4A 1208  26.534   8.757   4.812 -0.0481 -0.1575  0.1918
    1DPPC   C1B 1209  26.962   8.472   5.874  0.2380 -0.3902  0.2779
    1DPPC   C2B 1210  26.698   8.537   5.589  0.4476 -0.1194 -0.0161
    1DPPC   C3B 1211  26.355   8.432   5.327 -0.1955 -0.0625 -0.1292
    1DPPC   C4B 1212  26.188   8.066   5.295  0.1813  0.2832 -0.2480
    1DPPC   NC3 1213  15.069   3.984   7.559  0.0328  0.0241 -0.0989
    1DPPC   PO4 1214  14.820   4.373   7.491 -0.2421  0.0260 -0.2224
    1DPPC   GL1 1215  14.930   4.252   7.043  0.1249 -0.0123  0.1734
    1DPPC   GL2 1216  15.100   4.041   7.017 -0.1066  0.1168  0.0919
    1DPPC   C1A 1217  14.738   4.030   6.653  0.2443 -0.1483  0.0827
    1DPPC   C2A 1218  14.549   3.952   6.264  0.2465  0.0099  0.0621
    1DPPC   C3A 1219  14.509   4.120   5.861 -0.0692 -0.0742 -0.1028
    1DPPC   C4A 1220  14.466   4.094   5.492 -0.0438 -0.0030 -0.1415
    1DPPC   C1B 1221  15.310   3.955   6.621  0.1324  0.0449 -0.3735
    1DPPC   C2B 1222  15.772   3.899   6.488  0.0939  0.0779 -0.0974
    1DPPC   C3B 1223  16.047   4.168   6.190 -0.2734 -0.1208 -0.1260
    1DPPC   C4B 1224  15.844   4.002   5.846  0.1293  0.0307 -0.0270
    1DPPC   NC3 1225   0.277  16.437   6.858  0.1999  0.2833  0.3377
    1DPPC   PO4 1226   0.191  16.150   6.562  0.3927 -0.0339 -0.2744
    1DPPC   GL1 1227  28.080  16.159   6.190 -0.0658 -0.1376  0.0757
    1DPPC   GL2 1228   0.161  16.342   6.055 -0.2023  0.1821  0.1657
    1DPPC   C1A 1229  27.843  16.036   5.790  0.1391  0.3484  0.1856
    1DPPC   C2A 1230  28.009  16.047   5.329  0.0972  0.0012 -0.2058
    1DPPC   C3A 1231   0.017  15.885   5.014  0.1421 -0.0674 -0.0409
    1DPPC   C4A 1232  27.920  15.690   4.841  0.1809 -0.1013  0.1518
    1DPPC   C1B 1233   0.192  16.313   5.610  0.2832 -0.0942 -0.0865
    1DPPC   C2B 1234   0.369  16.039   5.331  0.3396 -0.0766  0.4065
    1DPPC   C3B 1235   0.770  15.960   5.068  0.1028 -0.0366 -0.0921
    1DPPC   C4B 1236   0.985  15.688   4.769 -0.3319 -0.2066 -0.1711
    1DPPC   NC3 1237  15.848  25.053   6.975 -0.1678  0.1296  0.1673
    1DPPC   PO4 1238  15.693  25.428   7.032 -0.1391 -0.0161  0.1319
    1DPPC   GL1 1239  15.779  25.393   6.609  0.2780 -0.0925 -0.1858
    1DPPC   GL2 1240  16.059  25.414   6.573  0.2368  0.0342  0.1506
    1DPPC   C1A 1241  15.499  25.336   6.324  0.0086  0.4225  0.1317
    1DPPC   C2A 1242  15.598  25.407   5.830  0.0789 -0.3774 -0.2759
    1DPPC   C3A 1243  15.731  25.606   5.440  0.0711  0.3743 -0.1094
    1DPPC   C4A 1244  15.941  25.994   5.230 -0.2794 -0.0830 -0.0576
    1DPPC   C1B 1245  16.151  25.087   6.188  0.1436 -0.1017  0.0489
    1DPPC   C2B 1246  16.264  24.759   5.768 -0.2784 -0.2289  0.1231
    1DPPC   C3B 1247  16.477  24.458   5.566 -0.2647  0.2658 -0.0621
    1DPPC   C4B 1248  16.816  24.473   5.449 -0.1816 -0.0663 -0.1722
    1DPPC   NC3 1249  10.550   8.818   7.799 -0.0421  0.0665  0.1973
    1DPPC   PO4 1250  10.436   8.733   7.417  0.0874 -0.3496 -0.0185
    1DPPC   GL1 1251  10.371   8.785   7.067 -0.1848  0.3127 -0.0680
    1DPPC   GL2 1252  10.133   8.753   6.893  0.0258  0.1387 -0.1423
    1DPPC   C1A 1253  10.542   8.986   6.733  0.0870 -0.0720  0.1743
    1DPPC   C2A 1254  10.698   9.148   6.363 -0.0325 -0.0984  0.1698
    1DPPC   C3A 1255  10.817   8.911   6.034  0.2004  0.1555  0.4278
    1DPPC   C4A 1256  10.851   9.025   5.463 -0.0330 -0.1372 -0.0424
    1DPPC   C1B 1257  10.158   8.981   6.411  0.4910  0.2872 -0.1787
    1DPPC   C2B 1258  10.198   9.064   5.978  0.2306  0.1270 -0.1788
    1DPPC   C3B 1259  10.454   8.804   5.703  0.1404  0.1382  0.1646
    1DPPC   C4B 1260  10.832   8.499   5.682  0.2194  0.0387  0.0366
    1DPPC   NC3 1261   9.563  27.721   6.529  0.4463 -0.4515  0.1320
    1DPPC   PO4 1262   9.273  27.939   6.768 -0.1294 -0.0742  0.2873
    1DPPC   GL1 1263   9.142  28.065   6.309  0.3305  0.3480 -0.1095
    1DPPC   GL2 1264   9.308   0.323   6.486 -0.2530 -0.1799 -0.1206
    1DPPC   C1A 1265   9.029  27.992   5.856 -0.4495  0.0520 -0.2899
    1DPPC   C2A 1266   8.928  28.125   5.465  0.3949  0.4149  0.0376
    1DPPC   C3A 1267   8.979  27.966   5.067  0.2342  0.0505  0.5057
    1DPPC   C4A 1268   9.281  27.807   4.724 -0.1973 -0.2331 -0.2204
    1DPPC   C1B 1269   9.575   0.169   6.143 -0.1445 -0.0276 -0.3610
    1DPPC   C2B 1270   9.539  27.928   5.886 -0.0285 -0.0971  0.0296
    1DPPC   C3B 1271   9.810  27.756   5.491 -0.3638  0.1991  0.4264
    1DPPC   C4B 1272  10.004  27.612   5.103 -0.1547 -0.0083 -0.3486
    1DPPC   NC3 1273   5.178   9.181   7.103 -0.1068  0.0930  0.0627
    1DPPC   PO4 1274   5.025   9.555   7.092 -0.0267 -0.4080 -0.1293
    1DPPC   GL1 1275   5.177   9.610   6.639  0.3760 -0.2181 -0.0183
    1DPPC   GL2 1276   5.222   9.454   6.336 -0.1978  0.0877 -0.0355
    1DPPC   C1A 1277   5.322   9.965   6.349  0.0250  0.1916 -0.1299
    1DPPC   C2A 1278   5.326  10.109   5.859  0.3447  0.1135 -0.3949
    1DPPC   C3A 1279   5.557   9.764   5.464  0.1552 -0.0209  0.2964
    1DPPC   C4A 1280   5.921   9.523   5.231 -0.0664 -0.0720 -0.0801
    1DPPC   C1B 1281   5.226   9.513   5.910  0.1335  0.0870 -0.1038
    1DPPC   C2B 1282   5.090   9.758   5.581 -0.0710  0.0050  0.0587
    1DPPC   C3B 1283   4.740   9.960   5.308 -0.0601  0.1328 -0.1487
    1DPPC   C4B 1284   4.521  10.105   5.012  0.5425  0.1179 -0.3788
    1DPPC   NC3 1285  15.886  20.455   7.588  0.4273 -0.2651 -0.3647
    1DPPC   PO4 1286  16.132  20.404   7.180  0.1170  0.0512  0.2645
    1DPPC   GL1 1287  16.251  20.323   6.828  0.0518 -0.1776 -0.0230
    1DPPC   GL2 1288  16.386  19.926   6.722 -0.1259 -0.0265 -0.2756
    1DPPC   C1A 1289  16.356  20.381   6.294 -0.5454  0.0433 -0.0074
    1DPPC   C2A 1290  16.728  20.248   6.017  0.0924 -0.0823  0.2895
    1DPPC   C3A 1291  17.083  20.107   5.765  0.1122  0.1247 -0.0125
    1DPPC   C4A 1292  17.456  20.014   5.617 -0.2147 -0.3527 -0.0295
    1DPPC   C1B 1293  16.406  19.887   6.234 -0.2219 -0.0205  0.2541
    1DPPC   C2B 1294  16.725  19.761   5.894  0.0129 -0.0791 -0.1256
    1DPPC   C3B 1295  16.699  19.894   5.477  0.1167 -0.0723 -0.1905
    1DPPC   C4B 1296  16.699  19.721   5.018  0.1859  0.1673 -0.2684
    1DPPC   NC3 1297   4.628  27.566   7.533  0.3006  0.0067  0.1849
    1DPPC   PO4 1298   4.769  27.419   7.210  0.0439 -0.2385 -0.0549
    1DPPC   GL1 1299   4.773  27.438   6.743 -0.1304 -0.0430  0.0765
    1DPPC   GL2 1300   5.028  27.462   6.495 -0.1691  0.0451 -0.5266
    1DPPC   C1A 1301   4.520  27.479   6.322  0.1059  0.1562 -0.1713
    1DPPC   C2A 1302   4.395  27.466   5.802 -0.1232 -0.1301  0.0669
    1DPPC   C3A 1303   4.431  27.405   5.302  0.1599  0.0618  0.1838
    1DPPC   C4A 1304   4.253  27.572   4.916  0.0824  0.5127  0.2086
    1DPPC   C1B 1305   4.914  27.697   6.098 -0.0303 -0.1708 -0.1382
    1DPPC   C2B 1306   4.847  27.720   5.719  0.1672  0.1530  0.0819
    1DPPC   C3B 1307   4.702  27.786   5.302  0.2899  0.0373 -0.0616
    1DPPC   C4B 1308   4.529   0.019   5.177  0.1805 -0.1936  0.0226
    1DPPC   NC3 1309  19.989  25.049   6.980  0.2474 -0.0491  0.0029
    1DPPC   PO4 1310  19.556  25.028   7.050 -0.1649  0.0492  0.2079
    1DPPC   GL1 1311  19.631  24.761   6.669 -0.0432  0.2482  0.1008
    1DPPC   GL2 1312  19.404  24.697   6.597  0.1794 -0.0191 -0.1549
    1DPPC   C1A 1313  19.837  24.510   6.300  0.1015  0.1168  0.0159
    1DPPC   C2A 1314  20.034  24.444   5.864  0.1404 -0.1605 -0.2057
    1DPPC   C3A 1315  20.081  24.476   5.358 -0.2198 -0.1204 -0.0651
    1DPPC   C4A 1316  19.919  24.659   5.023  0.0322  0.1027 -0.4225
    1DPPC   C1B 1317  19.346  24.969   6.247 -0.0332 -0.1559  0.2572
    1DPPC   C2B 1318  19.324  25.193   5.840 -0.1577 -0.2857 -0.0842
    1DPPC   C3B 1319  19.488  25.340   5.477  0.0925 -0.0175 -0.1146
    1DPPC   C4B 1320  19.424  25.531   5.127 -0.0290 -0.0111  0.0412
    1DPPC   NC3 1321  17.519  23.366   6.922  0.0976  0.2738 -0.1056
    1DPPC   PO4 1322  17.946  23.523   7.068  0.1234 -0.0357  0.2316
    1DPPC   GL1 1323  18.235  23.339   6.702 -0.4365 -0.0388 -0.0113
    1DPPC   GL2 1324  18.542  23.510   6.546  0.1332  0.3131  0.1213
    1DPPC   C1A 1325  18.490  23.036   6.423  0.2427  0.3645 -0.1029
    1DPPC   C2A 1326  18.747  22.863   6.074  0.1249  0.1786 -0.1489
    1DPPC   C3A 1327  18.796  22.648   5.627  0.1291  0.1924 -0.1697
    1DPPC   C4A 1328  18.643  22.267   5.573 -0.2945 -0.0533  0.0448
    1DPPC   C1B 1329  18.258  23.747   6.369 -0.3042 -0.1208  0.0691
    1DPPC   C2B 1330  18.210  24.157   6.178 -0.0959  0.2987  0.3285
    1DPPC   C3B 1331  18.307  24.538   6.217  0.0353  0.0526  0.1951
    1DPPC   C4B 1332  18.519  24.928   6.367  0.0103 -0.1781  0.1884
    1DPPC   NC3 1333   8.328  13.868   7.098  0.1562 -0.0265  0.1166
    1DPPC   PO4 1334   8.668  13.533   7.296  0.1131  0.0735 -0.3510
    1DPPC   GL1 1335   8.771  13.671   6.848  0.0958 -0.0302  0.0856
    1DPPC   GL2 1336   8.482  13.502   6.758  0.0404  0.1158  0.0367
    1DPPC   C1A 1337   8.865  14.000   6.523  0.0173  0.1575  0.2156
    1DPPC   C2A 1338   8.939  14.147   6.129  0.0982 -0.2163 -0.1668
    1DPPC   C3A 1339   8.712  14.117   5.773  0.1214 -0.2415  0.1206
    1DPPC   C4A 1340   8.674  14.337   5.340 -0.1413 -0.3007 -0.0858
    1DPPC   C1B 1341   8.368  13.892   6.452 -0.0835  0.2529  0.2885
    1DPPC   C2B 1342   8.196  13.964   6.141  0.1590 -0.1228 -0.2711
    1DPPC   C3B 1343   8.219  14.031   5.754 -0.1245 -0.2694 -0.0742
    1DPPC   C4B 1344   8.334  13.982   5.315 -0.0961 -0.0286  0.2370
    1DPPC   NC3 1345   4.111  24.273   7.201 -0.0309  0.2759  0.0857
    1DPPC   PO4 1346   3.782  24.105   6.981  0.0986  0.0906  0.0717
    1DPPC   GL1 1347   3.663  24.183   6.470 -0.0567 -0.0191  0.2618
    1DPPC   GL2 1348   3.907  23.995   6.272  0.1759  0.1829  0.2466
    1DPPC   C1A 1349   3.585  24.578   6.227 -0.1584  0.0521 -0.0988
    1DPPC   C2A 1350   3.634  24.622   5.795  0.2341 -0.0492  0.0371
    1DPPC   C3A 1351   3.428  24.884   5.607 -0.0726  0.1326  0.1793
    1DPPC   C4A 1352   3.331  25.109   5.196  0.1217 -0.1582  0.1292
    1DPPC   C1B 1353   3.737  24.113   5.925 -0.0563 -0.0074 -0.0628
    1DPPC   C2B 1354   3.780  24.107   5.485  0.1017  0.3390 -0.0626
    1DPPC   C3B 1355   3.752  23.874   5.166 -0.1435  0.2210 -0.0902
    1DPPC   C4B 1356   3.834  24.053   4.785  0.2488  0.3190  0.1737
    1DPPC   NC3 1357   7.230  26.525   6.877 -0.3684 -0.1558  0.0855
    1DPPC   PO4 1358   7.169  26.127   6.962  0.3380  0.1565  0.2298
    1DPPC   GL1 1359   7.257  26.200   6.530 -0.4287 -0.1883  0.0244
    1DPPC   GL2 1360   7.586  26.319   6.484 -0.1054 -0.0257 -0.2278
    1DPPC   C1A 1361   7.307  26.089   6.163  0.0491  0.1744  0.1499
    1DPPC   C2A 1362   7.543  26.011   5.839 -0.0304  0.0936 -0.1636
    1DPPC   C3A 1363   7.485  26.058   5.403 -0.3020 -0.0270 -0.1674
    1DPPC   C4A 1364   7.414  26.175   4.965 -0.0557 -0.0918 -0.1055
    1DPPC   C1B 1365   7.707  26.418   6.125  0.0956 -0.0335  0.0129
    1DPPC   C2B 1366   7.837  26.444   5.718  0.0793  0.0049 -0.2876
    1DPPC   C3B 1367   7.785  26.449   5.245 -0.1096  0.1340 -0.0363
    1DPPC   C4B 1368   8.007  26.406   4.837  0.1460 -0.0212 -0.2643
    1DPPC   NC3 1369  27.499   0.338   6.616 -0.1733  0.0866  0.0898
    1DPPC   PO4 1370  27.841  28.052   6.699 -0.3781  0.0213 -0.0534
    1DPPC   GL1 1371  27.884   0.092   6.274  0.1601 -0.0829 -0.2211
    1DPPC   GL2 1372   0.087  28.120   6.337 -0.0229  0.2357  0.2834
    1DPPC   C1A 1373  27.927   0.185   5.817  0.0232  0.2504 -0.2024
    1DPPC   C2A 1374  27.926   0.267   5.367  0.1069 -0.3185  0.2999
    1DPPC   C3A 1375  27.974   0.300   4.909  0.1229  0.0385  0.1069
    1DPPC   C4A 1376  28.091  27.996   4.812 -0.1187 -0.0460  0.1883
    1DPPC   C1B 1377  28.061  27.829   5.856  0.3067 -0.1554 -0.2375
    1DPPC   C2B 1378  27.932  27.864   5.416 -0.0639 -0.0140  0.0759
    1DPPC   C3B 1379  27.655  27.523   5.249  0.0343 -0.0029  0.3723
    1DPPC   C4B 1380  27.210  27.470   5.161 -0.2550  0.1017 -0.1787
    1DPPC   NC3 1381   6.549  17.709   7.592  0.0960 -0.0383 -0.2191
    1DPPC   PO4 1382   7.084  17.704   7.623 -0.1206 -0.1353 -0.1053
    1DPPC   GL1 1383   7.021  17.521   7.342  0.3618 -0.3176 -0.1317
    1DPPC   GL2 1384   7.068  17.127   7.113  0.1801 -0.0957 -0.1098
    1DPPC   C1A 1385   6.934  17.540   6.874 -0.2860  0.1751  0.0145
    1DPPC   C2A 1386   6.801  17.530   6.439 -0.0613  0.2224  0.2066
    1DPPC   C3A 1387   6.705  17.669   5.985 -0.1858 -0.0119  0.1406
    1DPPC   C4A 1388   6.704  17.945   5.541  0.3895 -0.1980 -0.1419
    1DPPC   C1B 1389   7.142  16.948   6.776  0.1297 -0.0515  0.0504
    1DPPC   C2B 1390   7.021  17.050   6.421 -0.2818 -0.0120 -0.0553
    1DPPC   C3B 1391   6.946  17.107   6.047 -0.1016  0.1214 -0.0352
    1DPPC   C4B 1392   6.597  16.986   5.788  0.2634 -0.1505 -0.2731
    1DPPC   NC3 1393  24.914   3.310   7.223  0.1622 -0.0374 -0.2868
    1DPPC   PO4 1394  24.488   3.063   7.112 -0.0483  0.1248  0.0233
    1DPPC   GL1 1395  24.176   3.160   6.763 -0.1051 -0.0638  0.2436
    1DPPC   GL2 1396  24.374   3.258   6.547  0.1491 -0.1122 -0.1122
    1DPPC   C1A 1397  23.860   2.998   6.405  0.0392  0.2026  0.0664
    1DPPC   C2A 1398  23.609   2.945   5.978  0.0730 -0.0977 -0.0195
    1DPPC   C3A 1399  23.319   2.758   5.671 -0.0100 -0.1390  0.1435
    1DPPC   C4A 1400  22.997   2.434   5.692  0.3726  0.2783 -0.0850
    1DPPC   C1B 1401  24.458   3.032   6.153  0.2339  0.2488 -0.1015
    1DPPC   C2B 1402  24.217   2.978   5.775 -0.0363 -0.0034 -0.0243
    1DPPC   C3B 1403  24.158   3.055   5.321  0.0045 -0.0788 -0.2694
    1DPPC   C4B 1404  23.921   3.338   5.055  0.1415 -0.2683 -0.4984
    1DPPC   NC3 1405   9.273  27.688   7.254  0.0103  0.0051  0.1423
    1DPPC   PO4 1406   9.349  27.436   6.848  0.3335 -0.3956  0.0649
    1DPPC   GL1 1407   9.131  27.481   6.471  0.1375  0.2188  0.0471
    1DPPC   GL2 1408   8.886  27.635   6.372 -0.1459 -0.1544 -0.0673
    1DPPC   C1A 1409   9.125  27.487   5.931  0.0796  0.1157 -0.0997
    1DPPC   C2A 1410   8.849  27.609   5.585  0.1095 -0.0577  0.1223
    1DPPC   C3A 1411   8.591  27.785   5.270  0.1988 -0.2162 -0.0337
    1DPPC   C4A 1412   8.231  28.042   5.132 -0.0610  0.3171  0.1068
    1DPPC   C1B 1413   8.624  27.558   6.083 -0.0162  0.0098 -0.1547
    1DPPC   C2B 1414   8.194  27.679   6.043 -0.0530 -0.2399  0.1116
    1DPPC   C3B 1415   7.822  27.833   5.910 -0.3357 -0.0400  0.1406
    1DPPC   C4B 1416   7.660  27.900   5.540 -0.3031  0.2580 -0.3139
    1DPPC   NC3 1417   2.042   0.081   7.287  0.1893 -0.2220  0.1518
    1DPPC   PO4 1418   2.097   0.193   6.833 -0.2918  0.0847  0.0520
    1DPPC   GL1 1419   2.111   0.316   6.449  0.0202 -0.1918  0.0364
    1DPPC   GL2 1420   1.999   0.605   6.518  0.1683  0.0148  0.4609
    1DPPC   C1A 1421   2.360   0.396   6.008  0.0118  0.1849  0.0827
    1DPPC   C2A 1422   2.702   0.242   5.824  0.0210 -0.2151 -0.0138
    1DPPC   C3A 1423   2.699   0.094   5.422 -0.1292 -0.3247 -0.0063
    1DPPC   C4A 1424   2.393  27.892   5.215 -0.0807  0.0387  0.0012
    1DPPC   C1B 1425   2.010   0.762   6.070  0.1166 -0.0325  0.2720
    1DPPC   C2B 1426   1.804   0.786   5.713  0.1435  0.4096  0.1345
    1DPPC   C3B 1427   1.875   0.884   5.269 -0.1110  0.2587 -0.1627
    1DPPC   C4B 1428   1.606   1.059   4.888 -0.3805 -0.4791 -0.2069
    1DPPC   NC3 1429  19.926  16.272   7.721 -0.0964  0.1462 -0.3417
    1DPPC   PO4 1430  19.702  16.534   7.449 -0.0938  0.1670 -0.0334
    1DPPC   GL1 1431  19.760  16.812   7.073 -0.1357  0.2280 -0.1440
    1DPPC   GL2 1432  19.976  16.668   6.833  0.1047 -0.2351  0.1050
    1DPPC   C1A 1433  19.696  17.120   6.699 -0.0672 -0.2489 -0.2037
    1DPPC   C2A 1434  19.798  17.368   6.367  0.0254 -0.1042 -0.0016
    1DPPC   C3A 1435  20.103  17.442   6.073 -0.1329 -0.0717  0.3881
    1DPPC   C4A 1436  20.425  17.512   5.860  0.1703  0.2817 -0.1022
    1DPPC   C1B 1437  20.287  16.544   6.495  0.0473  0.1323 -0.3775
    1DPPC   C2B 1438  20.272  16.599   6.155 -0.1100  0.2940 -0.1274
    1DPPC   C3B 1439  20.096  16.516   5.757 -0.2779 -0.1025 -0.0913
    1DPPC   C4B 1440  20.118  16.541   5.394  0.3961  0.0217 -0.1918
    1DPPC   NC3 1441  11.088  18.600   7.461  0.0112  0.1764  0.1893
    1DPPC   PO4 1442  11.141  19.039   7.490 -0.1854  0.0832 -0.0363
    1DPPC   GL1 1443  11.304  18.847   7.092 -0.1204 -0.0703 -0.0172
    1DPPC   GL2 1444  11.532  18.707   6.961  0.0469  0.0307 -0.1916
    1DPPC   C1A 1445  11.091  18.785   6.856  0.1827 -0.1201  0.1770
    1DPPC   C2A 1446  11.010  18.584   6.397 -0.2411  0.1017  0.0874
    1DPPC   C3A 1447  10.918  18.284   6.080  0.2014  0.4178  0.1074
    1DPPC   C4A 1448  10.655  17.997   5.896  0.0595  0.0518 -0.1424
    1DPPC   C1B 1449  11.724  18.475   6.571 -0.1869  0.0235  0.0969
    1DPPC   C2B 1450  11.440  18.617   6.190 -0.1428  0.0757 -0.2750
    1DPPC   C3B 1451  11.311  18.732   5.840 -0.0162 -0.0619  0.0584
    1DPPC   C4B 1452  10.893  18.824   5.691  0.1769  0.1237 -0.1276
    1DPPC   NC3 1453   5.706  21.920   6.942  0.2119  0.3475 -0.0465
    1DPPC   PO4 1454   5.623  22.331   7.015 -0.2007  0.0087  0.1096
    1DPPC   GL1 1455   5.671  22.380   6.591 -0.1131  0.0888 -0.1436
    1DPPC   GL2 1456   5.819  22.188   6.281  0.0663 -0.0993 -0.0610
    1DPPC   C1A 1457   5.455  22.477   6.175 -0.0118 -0.2212  0.5158
    1DPPC   C2A 1458   5.451  22.555   5.741  0.1633  0.1060  0.1287
    1DPPC   C3A 1459   5.309  22.721   5.326 -0.0815  0.0848  0.1463
    1DPPC   C4A 1460   5.467  22.830   4.918  0.0689  0.2298  0.0643
    1DPPC   C1B 1461   5.902  22.415   5.863 -0.0284  0.0056 -0.2406
    1DPPC   C2B 1462   5.881  22.366   5.411 -0.1584 -0.0061  0.0197
    1DPPC   C3B 1463   5.773  22.507   5.049 -0.2999  0.2136 -0.2273
    1DPPC   C4B 1464   5.957  22.776   4.709 -0.0926 -0.0403  0.2380
    1DPPC   NC3 1465  27.773  21.627   6.653 -0.1143  0.2670  0.1190
    1DPPC   PO4 1466  27.661  22.008   6.860 -0.0636  0.0334  0.1396
    1DPPC   GL1 1467  27.425  21.928   6.439 -0.4247  0.1076  0.0392
    1DPPC   GL2 1468  27.418  22.091   6.129 -0.2962  0.1932  0.0341
    1DPPC   C1A 1469  27.138  21.742   6.354  0.0331  0.2825  0.2997
    1DPPC   C2A 1470  27.044  21.767   5.927 -0.0869 -0.0223 -0.0460
    1DPPC   C3A 1471  27.159  21.876   5.445 -0.1996  0.2781  0.0361
    1DPPC   C4A 1472  27.438  21.763   5.157 -0.0981 -0.0831 -0.0798
    1DPPC   C1B 1473  27.206  22.228   5.821  0.0661  0.0922 -0.1473
    1DPPC   C2B 1474  26.808  22.149   5.546  0.0497  0.0083  0.1508
    1DPPC   C3B 1475  26.576  22.108   5.251 -0.0834 -0.1268 -0.1486
    1DPPC   C4B 1476  26.506  21.880   4.850  0.0708 -0.1746  0.1087
    1DPPC   NC3 1477  26.685   8.720   6.762 -0.2268 -0.3258  0.0392
    1DPPC   PO4 1478  26.714   8.256   6.603  0.3558  0.2158  0.1650
    1DPPC   GL1 1479  26.573   8.339   6.156 -0.1425 -0.0458  0.3087
    1DPPC   GL2 1480  26.520   8.684   6.109 -0.1407  0.2814  0.2458
    1DPPC   C1A 1481  26.508   8.117   5.754 -0.0191  0.1906  0.0154
    1DPPC   C2A 1482  26.571   7.707   5.529  0.2364  0.2273 -0.0914
    1DPPC   C3A 1483  26.913   7.685   5.187 -0.0798 -0.2405 -0.0127
    1DPPC   C4A 1484  27.084   7.333   5.057 -0.2038 -0.2651  0.0890
    1DPPC   C1B 1485  26.289   8.852   5.725  0.0909 -0.2431  0.0054
    1DPPC   C2B 1486  26.349   9.277   5.494 -0.0500 -0.0787  0.0864
    1DPPC   C3B 1487  26.404   9.750   5.418  0.2792 -0.2735  0.3680
    1DPPC   C4B 1488  26.484  10.199   5.533  0.3515 -0.0083 -0.0569
    1DPPC   NC3 1489  27.210  22.454   6.672  0.1386  0.1631 -0.2213
    1DPPC   PO4 1490  27.573  22.447   6.506 -0.2426  0.0481  0.0315
    1DPPC   GL1 1491  27.596  22.697   6.135 -0.4455  0.1178 -0.0458
    1DPPC   GL2 1492  27.832  22.963   6.095  0.2610 -0.0576  0.0131
    1DPPC   C1A 1493  27.599  22.737   5.654  0.1489 -0.3239  0.1654
    1DPPC   C2A 1494  27.527  22.830   5.240 -0.1812  0.0184 -0.3878
    1DPPC   C3A 1495  27.469  23.173   4.891 -0.1480  0.2643  0.0952
    1DPPC   C4A 1496  27.126  23.235   4.562  0.0428 -0.0737  0.0063
    1DPPC   C1B 1497  27.894  23.168   5.720  0.2574 -0.0004 -0.1657
    1DPPC   C2B 1498  27.833  23.311   5.302 -0.0854  0.0355  0.0729
    1DPPC   C3B 1499  27.822  23.659   4.964  0.0091  0.1099  0.1253
    1DPPC   C4B 1500  27.918  24.088   4.748 -0.0832 -0.1383  0.3832
    1DPPC   NC3 1501   5.521   7.950   6.413  0.1971  0.0579  0.2966
    1DPPC   PO4 1502   5.267   7.730   6.252 -0.1520 -0.0628 -0.0262
    1DPPC   GL1 1503   5.390   7.666   5.937 -0.2772  0.1602  0.1980
    1DPPC   GL2 1504   5.700   7.771   5.954 -0.0497 -0.1275 -0.2055
    1DPPC   C1A 1505   5.530   7.591   5.481 -0.0332 -0.0267  0.0046
    1DPPC   C2A 1506   5.632   7.647   5.078 -0.0156 -0.0966 -0.0430
    1DPPC   C3A 1507   5.886   7.835   4.807 -0.2168  0.0433  0.0576
    1DPPC   C4A 1508   6.230   7.822   4.610  0.0058 -0.0920  0.0440
    1DPPC   C1B 1509   5.653   7.295   5.867  0.0770  0.0449  0.3265
    1DPPC   C2B 1510   5.483   6.866   5.705  0.2464  0.2301 -0.1843
    1DPPC   C3B 1511   5.217   6.535   5.425  0.0897 -0.0890  0.0873
    1DPPC   C4B 1512   5.281   6.416   4.995 -0.0546  0.3230  0.1864
    1DPPC   NC3 1513  18.638   3.455   7.532  0.0086 -0.1396 -0.2856
    1DPPC   PO4 1514  18.461   3.725   7.150 -0.2126  0.0867 -0.0407
    1DPPC   GL1 1515  18.466   3.870   6.761  0.1488  0.0843  0.3095
    1DPPC   GL2 1516  18.450   3.585   6.572 -0.0384 -0.0459  0.1973
    1DPPC   C1A 1517  18.616   3.999   6.319  0.2245  0.0661 -0.1437
    1DPPC   C2A 1518  18.660   3.751   5.853  0.1608  0.0586  0.0993
    1DPPC   C3A 1519  18.730   3.539   5.445 -0.1705  0.2262  0.2049
    1DPPC   C4A 1520  19.004   3.537   5.108  0.1058  0.0374 -0.0920
    1DPPC   C1B 1521  18.266   3.724   6.116  0.1676 -0.0253  0.1707
    1DPPC   C2B 1522  18.187   3.723   5.741  0.0264 -0.2671  0.0802
    1DPPC   C3B 1523  18.187   3.490   5.380  0.1375  0.1184 -0.0763
    1DPPC   C4B 1524  18.120   3.263   4.977 -0.2124  0.0486 -0.0145
    1DPPC   NC3 1525   8.032  17.155   7.573  0.2499  0.3611  0.0446
    1DPPC   PO4 1526   8.346  17.377   7.379  0.1528 -0.2215 -0.2296
    1DPPC   GL1 1527   8.201  17.156   6.988  0.2932  0.1325  0.1505
    1DPPC   GL2 1528   8.056  16.966   7.127 -0.2832  0.1980 -0.1443
    1DPPC   C1A 1529   8.128  17.216   6.641 -0.2700  0.2087 -0.2455
    1DPPC   C2A 1530   8.108  17.224   6.300  0.2424  0.0449 -0.3067
    1DPPC   C3A 1531   7.885  17.175   5.978 -0.1580  0.0355 -0.0353
    1DPPC   C4A 1532   7.607  17.102   5.676  0.3209  0.1387 -0.1152
    1DPPC   C1B 1533   7.684  16.929   6.895  0.2622  0.0636 -0.0843
    1DPPC   C2B 1534   7.557  17.076   6.487 -0.1103  0.3557  0.0688
    1DPPC   C3B 1535   7.431  17.216   6.106 -0.2548 -0.0669  0.0339
    1DPPC   C4B 1536   7.221  17.513   5.899 -0.1050  0.2779  0.0532
    1DPPC   NC3 1537  16.124  21.725   7.245 -0.0482  0.4402  0.2561
    1DPPC   PO4 1538  16.617  21.797   6.984 -0.0325  0.3470  0.0199
    1DPPC   GL1 1539  16.699  21.859   6.438  0.1409 -0.2634 -0.1177
    1DPPC   GL2 1540  16.453  21.636   6.200  0.1523  0.3060  0.0906
    1DPPC   C1A 1541  16.740  22.059   6.069  0.0834  0.0293  0.3184
    1DPPC   C2A 1542  16.822  22.109   5.559  0.0731 -0.1494 -0.0852
    1DPPC   C3A 1543  17.074  22.380   5.244 -0.1146 -0.2145 -0.1057
    1DPPC   C4A 1544  17.452  22.546   5.069  0.0006  0.0689 -0.0249
    1DPPC   C1B 1545  16.473  21.710   5.881 -0.0340 -0.0264  0.0388
    1DPPC   C2B 1546  16.488  21.700   5.481 -0.0607 -0.3053  0.5273
    1DPPC   C3B 1547  16.597  21.372   5.218  0.1278 -0.0859  0.1289
    1DPPC   C4B 1548  17.012  21.180   5.023  0.1263  0.1271  0.2036
    1DPPC   NC3 1549   5.409  14.797   6.885 -0.0049 -0.0621  0.2044
    1DPPC   PO4 1550   5.805  14.933   6.867 -0.2191 -0.1933  0.2832
    1DPPC   GL1 1551   5.819  14.712   6.434  0.0062  0.2245  0.0234
    1DPPC   GL2 1552   5.851  14.404   6.213 -0.0672 -0.1138 -0.0496
    1DPPC   C1A 1553   5.742  14.982   6.079  0.0384 -0.0165 -0.0182
    1DPPC   C2A 1554   5.628  15.060   5.622  0.3644 -0.1950 -0.0557
    1DPPC   C3A 1555   5.813  15.201   5.321 -0.1869 -0.1422 -0.0534
    1DPPC   C4A 1556   5.569  15.320   4.922 -0.2917  0.2959 -0.1761
    1DPPC   C1B 1557   5.592  14.520   5.821  0.2457  0.1474 -0.0167
    1DPPC   C2B 1558   5.348  14.574   5.453 -0.1041 -0.0581  0.0631
    1DPPC   C3B 1559   5.250  14.938   5.213  0.0893 -0.0482  0.1553
    1DPPC   C4B 1560   5.271  15.352   5.492 -0.3228  0.1998 -0.2087
    1DPPC   NC3 1561   7.620  17.933   7.809  0.2436  0.3270 -0.4699
    1DPPC   PO4 1562   7.875  18.161   7.562  0.0013  0.0040  0.0675
    1DPPC   GL1 1563   7.871  18.115   7.143 -0.0736 -0.0217  0.0302
    1DPPC   GL2 1564   8.193  18.011   7.109 -0.2039 -0.1298 -0.2822
    1DPPC   C1A 1565   7.481  18.016   6.924 -0.0149 -0.0059 -0.0593
    1DPPC   C2A 1566   7.041  17.980   7.021 -0.2295  0.1225  0.3058
    1DPPC   C3A 1567   6.593  17.930   6.907  0.1525  0.0286  0.2174
    1DPPC   C4A 1568   6.366  17.544   6.957 -0.1016 -0.1436 -0.3321
    1DPPC   C1B 1569   8.109  18.207   6.698  0.4776  0.2990 -0.3448
    1DPPC   C2B 1570   8.169  18.276   6.306  0.0671  0.2940 -0.0491
    1DPPC   C3B 1571   8.215  18.088   5.938  0.2525  0.0319  0.0380
    1DPPC   C4B 1572   8.159  17.959   5.472  0.2600  0.0515  0.0169
    1DPPC   NC3 1573   1.604  15.025   6.364  0.2679  0.0091 -0.2692
    1DPPC   PO4 1574   1.956  14.725   6.264 -0.1704  0.1978  0.1050
    1DPPC   GL1 1575   2.269  15.016   6.117 -0.2402  0.1795 -0.1033
    1DPPC   GL2 1576   2.295  15.125   5.808  0.0997 -0.1528  0.0875
    1DPPC   C1A 1577   2.670  14.862   6.017 -0.3944  0.2712  0.2135
    1DPPC   C2A 1578   3.027  14.814   5.744  0.0916  0.3044  0.0019
    1DPPC   C3A 1579   3.090  15.059   5.455  0.4737  0.2221  0.2800
    1DPPC   C4A 1580   3.339  15.275   5.107  0.0933 -0.1530  0.0376
    1DPPC   C1B 1581   2.590  14.927   5.519 -0.1786  0.2326 -0.1969
    1DPPC   C2B 1582   2.833  14.669   5.234 -0.2570  0.0189  0.4179
    1DPPC   C3B 1583   3.050  14.750   4.899 -0.0720 -0.2604 -0.2641
    1DPPC   C4B 1584   3.217  15.121   4.635 -0.1392 -0.2616 -0.0899
    1DPPC   NC3 1585   9.011  20.986   7.609  0.2243  0.2674  0.1181
    1DPPC   PO4 1586   8.666  21.250   7.449  0.0651  0.2668  0.1751
    1DPPC   GL1 1587   8.454  21.359   7.031  0.0161 -0.1505  0.0335
    1DPPC   GL2 1588   8.202  21.276   7.106 -0.1222  0.0542  0.0952
    1DPPC   C1A 1589   8.542  21.665   6.603 -0.0062 -0.0247 -0.0569
    1DPPC   C2A 1590   8.312  21.656   6.333  0.1952 -0.0698 -0.1224
    1DPPC   C3A 1591   8.311  21.560   5.949 -0.2167 -0.1766 -0.0612
    1DPPC   C4A 1592   8.281  21.333   5.586 -0.0317 -0.0718 -0.2080
    1DPPC   C1B 1593   8.238  21.296   6.620 -0.0139  0.0850 -0.2690
    1DPPC   C2B 1594   7.939  21.177   6.317  0.1185 -0.2588 -0.0409
    1DPPC   C3B 1595   8.087  21.063   5.978 -0.3365 -0.0897 -0.0116
    1DPPC   C4B 1596   7.991  20.842   5.554  0.0236  0.0133  0.0846
    1DPPC   NC3 1597  14.709  18.998   7.182 -0.0591 -0.0377  0.0833
    1DPPC   PO4 1598  15.050  18.741   7.313  0.4412 -0.2553  0.0316
    1DPPC   GL1 1599  15.055  18.845   6.862  0.1566 -0.0902  0.0226
    1DPPC   GL2 1600  15.026  18.534   6.744 -0.0281 -0.2151 -0.0209
    1DPPC   C1A 1601  15.147  19.308   6.563 -0.0279 -0.1153 -0.1525
    1DPPC   C2A 1602  15.568  19.213   6.275 -0.4249  0.2210 -0.3928
    1DPPC   C3A 1603  15.683  19.116   5.898 -0.2424 -0.0407  0.1847
    1DPPC   C4A 1604  15.507  19.026   5.556  0.3742 -0.0202 -0.0865
    1DPPC   C1B 1605  15.450  18.624   6.577 -0.0292  0.1913  0.0151
    1DPPC   C2B 1606  15.763  18.753   6.414  0.2434 -0.0325  0.2788
    1DPPC   C3B 1607  16.048  18.609   6.066 -0.3751  0.2214  0.0645
    1DPPC   C4B 1608  16.167  18.397   5.681  0.1438  0.0108 -0.2317
    1DPPC   NC3 1609  11.960   4.898   8.044  0.3303  0.5052 -0.1792
    1DPPC   PO4 1610  12.238   4.614   7.738  0.0667 -0.1321  0.0908
    1DPPC   GL1 1611  12.065   4.824   7.413  0.3798  0.2890  0.1911
    1DPPC   GL2 1612  12.089   4.615   7.173  0.0723  0.2439  0.4312
    1DPPC   C1A 1613  11.874   5.107   7.146 -0.2736  0.2272  0.1168
    1DPPC   C2A 1614  11.751   5.299   6.725  0.4726 -0.1880 -0.0725
    1DPPC   C3A 1615  11.863   5.563   6.364 -0.1357  0.1637 -0.0585
    1DPPC   C4A 1616  12.182   5.620   6.078 -0.1645 -0.0339  0.1397
    1DPPC   C1B 1617  11.845   4.662   6.811 -0.2556 -0.1449  0.0917
    1DPPC   C2B 1618  11.667   4.611   6.290  0.5305  0.2167 -0.0806
    1DPPC   C3B 1619  11.291   4.469   6.059 -0.1517 -0.2194  0.1464
    1DPPC   C4B 1620  10.918   4.236   5.837 -0.0244 -0.2897 -0.0094
    1DPPC   NC3 1621   2.324  13.440   6.961  0.2372 -0.0987  0.0074
    1DPPC   PO4 1622   2.203  13.089   6.693  0.1573  0.2920 -0.1125
    1DPPC   GL1 1623   2.251  13.122   6.280 -0.0211  0.2735 -0.2219
    1DPPC   GL2 1624   1.977  12.882   6.047  0.4359  0.0145 -0.0938
    1DPPC   C1A 1625   2.290  13.230   5.812  0.2583 -0.0671 -0.0961
    1DPPC   C2A 1626   2.174  13.458   5.389 -0.0301 -0.1025 -0.1200
    1DPPC   C3A 1627   1.772  13.652   5.220  0.0114  0.1328 -0.0891
    1DPPC   C4A 1628   1.528  13.642   4.807  0.2050  0.0919 -0.1098
    1DPPC   C1B 1629   1.871  13.056   5.617 -0.1125  0.1008 -0.5670
    1DPPC   C2B 1630   1.702  12.790   5.269  0.1681 -0.2077 -0.1679
    1DPPC   C3B 1631   1.477  12.748   4.981  0.0178  0.1039 -0.0822
    1DPPC   C4B 1632   1.276  12.630   4.633 -0.0562  0.1511  0.2120
    1DPPC   NC3 1633  25.850  11.989   6.806  0.4061  0.0681  0.2069
    1DPPC   PO4 1634  25.777  12.405   6.542  0.0070  0.1186 -0.1100
    1DPPC   GL1 1635  25.781  12.462   6.153 -0.1872 -0.2152 -0.1924
    1DPPC   GL2 1636  25.939  12.678   6.029 -0.1478 -0.3076  0.0570
    1DPPC   C1A 1637  26.125  12.197   5.853  0.2404  0.1292 -0.1636
    1DPPC   C2A 1638  26.343  12.162   5.400 -0.2457 -0.0848  0.0882
    1DPPC   C3A 1639  26.238  12.190   4.934  0.2437  0.2191 -0.0453
    1DPPC   C4A 1640  25.932  12.167   4.633 -0.3343 -0.0565  0.0137
    1DPPC   C1B 1641  25.671  12.522   5.692  0.3376  0.1115 -0.1152
    1DPPC   C2B 1642  25.393  12.368   5.240  0.2117 -0.1190 -0.0750
    1DPPC   C3B 1643  25.441  12.046   4.911  0.0315 -0.1738 -0.0058
    1DPPC   C4B 1644  25.514  11.776   4.557 -0.2555 -0.2773 -0.1940
    1DPPC   NC3 1645  23.528   6.755   6.876 -0.1425 -0.2103 -0.2280
    1DPPC   PO4 1646  23.282   7.067   6.864  0.0985  0.0301  0.0121
    1DPPC   GL1 1647  23.353   6.948   6.387  0.2735 -0.1709  0.2741
    1DPPC   GL2 1648  23.617   6.732   6.340  0.0288  0.1555 -0.0174
    1DPPC   C1A 1649  23.215   7.122   6.053 -0.0663 -0.0393  0.2253
    1DPPC   C2A 1650  23.279   7.339   5.662 -0.0541 -0.1647  0.1759
    1DPPC   C3A 1651  23.394   7.570   5.306  0.2830 -0.3532  0.1524
    1DPPC   C4A 1652  23.082   7.671   4.953 -0.2149 -0.2156 -0.1115
    1DPPC   C1B 1653  23.591   6.493   5.990  0.0194 -0.1989  0.1068
    1DPPC   C2B 1654  23.508   6.655   5.597  0.0132 -0.1696  0.3068
    1DPPC   C3B 1655  23.170   6.973   5.326  0.3135 -0.0017 -0.0297
    1DPPC   C4B 1656  22.805   7.298   5.217 -0.2755  0.0291 -0.0613
    1DPPC   NC3 1657  27.552   4.304   6.413 -0.2081  0.0798 -0.1764
    1DPPC   PO4 1658  27.722   4.233   6.058 -0.0681 -0.0286 -0.0255
    1DPPC   GL1 1659  27.890   4.093   5.711  0.0583  0.0788 -0.3632
    1DPPC   GL2 1660  28.126   3.875   5.468  0.0970  0.2144  0.0693
    1DPPC   C1A 1661  27.756   4.201   5.344  0.4040 -0.0324 -0.0067
    1DPPC   C2A 1662  27.801   4.560   5.189 -0.0762  0.1831  0.1139
    1DPPC   C3A 1663  27.581   4.776   4.899 -0.1017 -0.1519 -0.1074
    1DPPC   C4A 1664  27.222   4.609   4.665 -0.0008 -0.0203 -0.0118
    1DPPC   C1B 1665  27.974   3.683   5.039  0.2524  0.1142  0.1835
    1DPPC   C2B 1666  27.626   3.831   4.738 -0.0570  0.0167  0.0775
    1DPPC   C3B 1667  27.351   4.019   4.490  0.0891 -0.0142 -0.2919
    1DPPC   C4B 1668  26.977   3.873   4.394  0.2129  0.0792  0.0228
    1DPPC   NC3 1669  11.968  13.695   8.463  0.0268 -0.2971 -0.2374
    1DPPC   PO4 1670  12.027  13.537   8.120 -0.1573 -0.1002 -0.1938
    1DPPC   GL1 1671  11.765  13.717   7.782 -0.3404 -0.0077 -0.2944
    1DPPC   GL2 1672  11.901  13.980   7.562  0.0930 -0.2466 -0.0133
    1DPPC   C1A 1673  11.462  13.841   7.322  0.2398 -0.1928 -0.1479
    1DPPC   C2A 1674  11.287  13.880   6.956 -0.0591 -0.0469 -0.0459
    1DPPC   C3A 1675  11.286  13.697   6.617 -0.0514  0.1679 -0.1299
    1DPPC   C4A 1676  11.424  13.461   6.243 -0.1100  0.1824  0.2876
    1DPPC   C1B 1677  11.862  13.570   7.357 -0.2449 -0.0436  0.2082
    1DPPC   C2B 1678  11.688  13.442   6.893 -0.0495 -0.1258 -0.0472
    1DPPC   C3B 1679  11.259  13.275   6.883 -0.1479  0.0463  0.1478
    1DPPC   C4B 1680  11.021  13.097   6.501  0.1334 -0.1389 -0.3441
    1DPPC   NC3 1681   7.577  27.821   6.731  0.2150 -0.1898  0.1336
    1DPPC   PO4 1682   7.820   0.060   6.793 -0.0533  0.1912  0.1419
    1DPPC   GL1 1683   7.621   0.145   6.372  0.1629 -0.1071  0.1230
    1DPPC   GL2 1684   7.555   0.464   6.308  0.0605 -0.1814  0.2463
    1DPPC   C1A 1685   7.309  28.125   6.005  0.0087 -0.1337 -0.0754
    1DPPC   C2A 1686   7.134  28.051   5.627  0.0536 -0.2641  0.1179
    1DPPC   C3A 1687   7.274   0.004   5.269 -0.2587  0.5047  0.1369
    1DPPC   C4A 1688   7.669  28.066   5.080 -0.2183 -0.3935 -0.1795
    1DPPC   C1B 1689   7.641   0.381   5.852 -0.1421  0.2775  0.1058
    1DPPC   C2B 1690   7.654   0.322   5.459 -0.2393  0.0293  0.3717
    1DPPC   C3B 1691   7.967   0.328   5.174  0.1509 -0.3417  0.4378
    1DPPC   C4B 1692   7.826   0.329   4.811 -0.0739  0.0296  0.0777
    1DPPC   NC3 1693  10.848   5.832   7.959 -0.1492 -0.0609  0.0238
    1DPPC   PO4 1694  10.473   5.879   7.786 -0.0941 -0.0119  0.2290
    1DPPC   GL1 1695  10.510   5.942   7.340 -0.0139 -0.1326 -0.1920
    1DPPC   GL2 1696  10.778   6.168   7.299  0.1417  0.0842  0.0149
    1DPPC   C1A 1697  10.335   6.177   7.114  0.0306  0.2412 -0.0213
    1DPPC   C2A 1698  10.512   6.274   6.676 -0.0117  0.2276 -0.0450
    1DPPC   C3A 1699  10.451   6.435   6.268  0.0795 -0.0764  0.2575
    1DPPC   C4A 1700  10.491   6.322   5.813 -0.0063 -0.0422 -0.0864
    1DPPC   C1B 1701  10.869   6.453   6.982 -0.0834  0.0399 -0.0639
    1DPPC   C2B 1702  10.949   6.493   6.541 -0.2520 -0.1071 -0.0683
    1DPPC   C3B 1703  10.881   6.604   6.070  0.0455  0.1562 -0.3382
    1DPPC   C4B 1704  10.574   6.880   6.020 -0.0244 -0.1054 -0.1921
    1DPPC   NC3 1705  15.951  19.906   7.079 -0.1377  0.0986 -0.0956
    1DPPC   PO4 1706  15.650  20.309   7.177 -0.1304 -0.1451 -0.0182
    1DPPC   GL1 1707  15.715  20.342   6.705  0.0219 -0.2465  0.1092
    1DPPC   GL2 1708  15.940  20.635   6.640  0.2623  0.4169 -0.1366
    1DPPC   C1A 1709  15.939  20.089   6.473  0.3873  0.0271  0.3403
    1DPPC   C2A 1710  16.017  20.039   5.980 -0.0179  0.1209  0.2779
    1DPPC   C3A 1711  15.843  20.080   5.498  0.1933 -0.0583  0.2852
    1DPPC   C4A 1712  15.413  19.784   5.378 -0.1540  0.2756 -0.0168
    1DPPC   C1B 1713  16.076  20.761   6.250  0.0154 -0.1809 -0.0301
    1DPPC   C2B 1714  16.135  20.635   5.771  0.2187  0.1485 -0.2057
    1DPPC   C3B 1715  16.194  20.569   5.312 -0.0159  0.0088  0.0389
    1DPPC   C4B 1716  16.344  20.933   5.052 -0.0148  0.2176 -0.3358
    1DPPC   NC3 1717  26.586  22.703   7.202 -0.0240 -0.0666 -0.0959
    1DPPC   PO4 1718  26.737  22.581   6.766  0.2365 -0.0330  0.0170
    1DPPC   GL1 1719  26.636  22.845   6.412  0.1386  0.0927 -0.1308
    1DPPC   GL2 1720  26.910  22.946   6.181 -0.0887 -0.1616 -0.0761
    1DPPC   C1A 1721  26.465  22.873   6.012  0.0331 -0.0759  0.1003
    1DPPC   C2A 1722  26.267  22.954   5.641 -0.1331 -0.1259 -0.1679
    1DPPC   C3A 1723  26.155  22.861   5.252  0.1121 -0.0067  0.1601
    1DPPC   C4A 1724  26.360  22.755   4.894  0.1635 -0.3199  0.2269
    1DPPC   C1B 1725  27.132  22.871   5.723  0.3880  0.1628 -0.1303
    1DPPC   C2B 1726  27.147  22.561   5.414 -0.2064  0.0913  0.3385
    1DPPC   C3B 1727  27.049  22.204   5.093 -0.0206 -0.0761  0.0213
    1DPPC   C4B 1728  26.768  22.363   4.808  0.2671 -0.0169 -0.2276
    1DPPC   NC3 1729  20.852  12.787   7.065 -0.1864 -0.2654 -0.3510
    1DPPC   PO4 1730  21.188  12.956   6.785  0.4631 -0.2060  0.0513
    1DPPC   GL1 1731  21.320  12.972   6.418 -0.1759  0.0209  0.1990
    1DPPC   GL2 1732  21.485  13.246   6.405 -0.3966 -0.1199 -0.0796
    1DPPC   C1A 1733  21.237  12.797   6.044 -0.3263  0.1360 -0.0771
    1DPPC   C2A 1734  21.334  12.689   5.595  0.1034 -0.0111  0.1211
    1DPPC   C3A 1735  21.614  12.589   5.378 -0.2165  0.1065 -0.0422
    1DPPC   C4A 1736  21.948  12.547   5.002  0.6214  0.2439  0.0732
    1DPPC   C1B 1737  21.607  13.158   5.979  0.1366 -0.0740 -0.2210
    1DPPC   C2B 1738  21.543  13.160   5.538 -0.2510 -0.0701  0.0036
    1DPPC   C3B 1739  21.809  13.026   5.216 -0.0273 -0.1724  0.3570
    1DPPC   C4B 1740  22.196  12.963   4.925 -0.2459 -0.2182 -0.0445
    1DPPC   NC3 1741   5.634   3.411   6.573 -0.1638  0.2257 -0.1252
    1DPPC   PO4 1742   5.440   3.778   6.550 -0.0113 -0.3483  0.3118
    1DPPC   GL1 1743   5.519   3.762   6.099 -0.1261  0.0236 -0.1727
    1DPPC   GL2 1744   5.337   4.075   6.052 -0.1947 -0.0788  0.0926
    1DPPC   C1A 1745   5.821   3.491   5.896  0.0702 -0.3052  0.2083
    1DPPC   C2A 1746   6.056   3.382   5.522 -0.2972  0.4242  0.1476
    1DPPC   C3A 1747   6.159   3.469   5.089 -0.1804  0.0868 -0.1408
    1DPPC   C4A 1748   6.363   3.329   4.731  0.2615 -0.0220  0.1713
    1DPPC   C1B 1749   5.471   4.061   5.653 -0.1572 -0.3263  0.1030
    1DPPC   C2B 1750   5.300   4.003   5.274 -0.0669 -0.3991 -0.0621
    1DPPC   C3B 1751   5.496   3.913   4.984  0.0245  0.1265 -0.2424
    1DPPC   C4B 1752   5.791   3.638   4.796 -0.4230  0.1476 -0.0243
    1DPPC   NC3 1753  10.840  14.755   8.358 -0.1535  0.4678  0.1517
    1DPPC   PO4 1754  11.115  14.584   8.005 -0.2640 -0.2141  0.2913
    1DPPC   GL1 1755  11.030  14.511   7.573 -0.2944  0.0466  0.0195
    1DPPC   GL2 1756  10.816  14.870   7.427  0.1845  0.4202  0.2104
    1DPPC   C1A 1757  10.960  14.255   7.206 -0.0815  0.1559 -0.2106
    1DPPC   C2A 1758  10.885  14.053   6.759  0.1644  0.1655  0.0356
    1DPPC   C3A 1759  10.522  13.946   6.545  0.3015 -0.2539 -0.2067
    1DPPC   C4A 1760  10.318  13.554   6.358  0.2486  0.2205  0.3409
    1DPPC   C1B 1761  10.567  14.531   7.222  0.2341  0.0692 -0.0450
    1DPPC   C2B 1762  10.360  14.237   6.952  0.1085  0.1252 -0.4027
    1DPPC   C3B 1763  10.262  14.344   6.486 -0.2802  0.3018 -0.4088
    1DPPC   C4B 1764  10.324  14.694   6.241  0.1774  0.1712  0.2489
    1DPPC   NC3 1765   9.630  12.127   7.744 -0.3547 -0.1602  0.1377
    1DPPC   PO4 1766   9.777  11.929   7.429  0.0057  0.0033  0.0260
    1DPPC   GL1 1767   9.805  11.652   6.999 -0.2919  0.0859 -0.1368
    1DPPC   GL2 1768   9.532  11.535   6.766  0.0180 -0.0461 -0.0223
    1DPPC   C1A 1769   9.948  11.820   6.613 -0.0301  0.1532  0.0953
    1DPPC   C2A 1770  10.228  12.028   6.254  0.2172  0.2473 -0.0751
    1DPPC   C3A 1771  10.567  12.143   6.014 -0.2713  0.0934  0.0237
    1DPPC   C4A 1772  10.623  12.390   5.764 -0.2267  0.0119  0.2233
    1DPPC   C1B 1773   9.525  11.394   6.305 -0.0157  0.0432 -0.0314
    1DPPC   C2B 1774   9.602  11.371   5.952 -0.1762  0.0379  0.1795
    1DPPC   C3B 1775   9.496  11.380   5.515 -0.3662 -0.2288  0.0066
    1DPPC   C4B 1776   9.361  11.216   5.165  0.1595  0.0302  0.3361
    1DPPC   NC3 1777  12.111  20.003   7.223 -0.0755  0.0140  0.1656
    1DPPC   PO4 1778  12.224  20.446   7.161 -0.0508  0.1401 -0.3962
    1DPPC   GL1 1779  12.125  20.585   6.786 -0.1031 -0.1245 -0.0355
    1DPPC   GL2 1780  12.189  20.822   6.562 -0.1365  0.4499  0.3867
    1DPPC   C1A 1781  11.844  20.461   6.470 -0.1275  0.0545  0.0406
    1DPPC   C2A 1782  11.842  20.379   6.035 -0.0661  0.0076 -0.2495
    1DPPC   C3A 1783  11.668  20.384   5.637 -0.0641  0.1931 -0.2433
    1DPPC   C4A 1784  11.522  20.153   5.255  0.2168  0.0462 -0.0962
    1DPPC   C1B 1785  12.090  20.795   6.208  0.0164  0.3045 -0.3156
    1DPPC   C2B 1786  11.738  20.842   5.935  0.1825 -0.2239  0.0200
    1DPPC   C3B 1787  11.541  20.859   5.486 -0.0489  0.2779  0.0487
    1DPPC   C4B 1788  11.343  20.601   5.111  0.3066 -0.0847  0.0004
    1DPPC   NC3 1789  15.908   2.907   8.151 -0.2637 -0.0078 -0.0856
    1DPPC   PO4 1790  15.918   3.053   7.644 -0.0240 -0.1984  0.3104
    1DPPC   GL1 1791  15.906   3.003   7.168  0.0338  0.3798 -0.0039
    1DPPC   GL2 1792  16.209   3.145   7.131  0.1590 -0.1770 -0.3117
    1DPPC   C1A 1793  15.783   2.966   6.739 -0.3320  0.0817 -0.3024
    1DPPC   C2A 1794  15.704   2.642   6.548 -0.1340  0.1277 -0.0090
    1DPPC   C3A 1795  15.445   2.666   6.236  0.3467 -0.0019  0.2274
    1DPPC   C4A 1796  15.618   2.525   5.897  0.0113 -0.1471  0.2342
    1DPPC   C1B 1797  16.025   3.500   6.893  0.2101  0.1351 -0.1102
    1DPPC   C2B 1798  16.061   3.442   6.494  0.1559  0.0861 -0.0814
    1DPPC   C3B 1799  16.031   3.546   6.104  0.2076  0.1807 -0.0499
    1DPPC   C4B 1800  16.080   3.274   5.832 -0.0613 -0.1339  0.0952
    1DPPC   NC3 1801   7.884  15.861   7.744 -0.3340 -0.2099 -0.1241
    1DPPC   PO4 1802   8.198  15.831   7.457  0.1379 -0.0414 -0.0624
    1DPPC   GL1 1803   8.360  15.851   6.957 -0.0873  0.1976 -0.0326
    1DPPC   GL2 1804   8.572  16.239   6.805 -0.0171 -0.3142 -0.1865
    1DPPC   C1A 1805   8.111  16.009   6.597  0.0085  0.2250 -0.2069
    1DPPC   C2A 1806   8.179  16.012   6.142  0.0104  0.0014 -0.1556
    1DPPC   C3A 1807   8.160  16.402   5.811  0.1337 -0.3014 -0.0669
    1DPPC   C4A 1808   8.101  16.848   5.679  0.3189  0.1426  0.2786
    1DPPC   C1B 1809   8.377  16.415   6.388  0.0069 -0.0631 -0.1453
    1DPPC   C2B 1810   8.348  16.804   6.084  0.0274 -0.2177 -0.1659
    1DPPC   C3B 1811   8.476  17.219   6.003  0.0074  0.3055  0.0126
    1DPPC   C4B 1812   8.202  17.555   5.785  0.0050 -0.1296 -0.1083
    1DPPC   NC3 1813  14.375   9.776   8.248  0.0017 -0.1946  0.1040
    1DPPC   PO4 1814  14.203   9.614   7.771  0.1022  0.1571  0.3253
    1DPPC   GL1 1815  14.149   9.529   7.323  0.0592  0.0767  0.2102
    1DPPC   GL2 1816  13.941   9.200   7.182  0.0019 -0.0789 -0.3268
    1DPPC   C1A 1817  14.188   9.560   6.820  0.0258 -0.1202 -0.2115
    1DPPC   C2A 1818  14.057   9.801   6.436  0.2533 -0.0023  0.0418
    1DPPC   C3A 1819  13.810   9.764   6.186  0.0284  0.1830 -0.1077
    1DPPC   C4A 1820  13.560   9.692   5.853  0.0330  0.3601 -0.0116
    1DPPC   C1B 1821  13.846   8.768   6.951  0.1618  0.5188  0.1051
    1DPPC   C2B 1822  13.723   8.833   6.529  0.0294  0.0395  0.0799
    1DPPC   C3B 1823  13.770   8.977   6.118 -0.0610 -0.2160  0.0768
    1DPPC   C4B 1824  13.824   9.205   5.735  0.1092 -0.0515  0.0018
    1DPPC   NC3 1825   5.666  27.202   6.835 -0.1624  0.0373  0.0213
    1DPPC   PO4 1826   5.911  27.467   6.553 -0.0355  0.0849  0.0297
    1DPPC   GL1 1827   5.827  27.561   6.183 -0.1449  0.2156 -0.0930
    1DPPC   GL2 1828   5.832  27.819   6.004  0.0925 -0.1847 -0.0563
    1DPPC   C1A 1829   6.019  27.464   5.695 -0.0635 -0.2594  0.0392
    1DPPC   C2A 1830   5.981  27.139   5.450 -0.0932 -0.0107  0.0851
    1DPPC   C3A 1831   5.849  26.936   5.157  0.2595 -0.3350 -0.0478
    1DPPC   C4A 1832   5.512  27.133   4.912  0.2751 -0.0878  0.2796
    1DPPC   C1B 1833   5.680  27.911   5.517  0.0425  0.3818 -0.0858
    1DPPC   C2B 1834   5.572  28.064   5.079  0.1274 -0.1780  0.1572
    1DPPC   C3B 1835   5.657   0.188   4.696  0.1282  0.0762  0.2276
    1DPPC   C4B 1836   6.090   0.295   4.738 -0.1155  0.3696  0.0433
    1DPPC   NC3 1837   3.712   5.966   6.571  0.0647 -0.0658 -0.1783
    1DPPC   PO4 1838   3.458   6.344   6.181  0.1054  0.1718  0.0171
    1DPPC   GL1 1839   3.317   6.395   5.780 -0.1581  0.1954 -0.1919
    1DPPC   GL2 1840   3.142   6.102   5.609  0.0770 -0.0874 -0.0474
    1DPPC   C1A 1841   3.479   6.452   5.315 -0.1852  0.1803 -0.2210
    1DPPC   C2A 1842   3.875   6.699   5.298 -0.1347  0.1770 -0.0011
    1DPPC   C3A 1843   4.153   6.731   4.977 -0.0931 -0.0417  0.0841
    1DPPC   C4A 1844   4.401   6.540   4.604 -0.2348 -0.1906 -0.2864
    1DPPC   C1B 1845   3.136   6.063   5.251 -0.0372 -0.3060  0.3120
    1DPPC   C2B 1846   3.216   6.066   4.886 -0.0803 -0.0676  0.2789
    1DPPC   C3B 1847   3.337   5.911   4.483 -0.1555 -0.0863 -0.3342
    1DPPC   C4B 1848   3.173   5.509   4.264  0.0983  0.1198  0.2882
    1DPPC   NC3 1849  11.440   3.713   7.467 -0.3870 -0.1807  0.1561
    1DPPC   PO4 1850  11.728   4.101   7.472 -0.4342  0.2553  0.0852
    1DPPC   GL1 1851  11.609   4.242   7.099  0.2460 -0.0963 -0.1629
    1DPPC   GL2 1852  11.558   4.649   7.211 -0.1650 -0.1805 -0.1865
    1DPPC   C1A 1853  11.471   4.338   6.665  0.0855 -0.1431  0.0994
    1DPPC   C2A 1854  11.468   4.134   6.369 -0.1432 -0.1540  0.1790
    1DPPC   C3A 1855  11.434   3.920   5.895 -0.0502  0.3126  0.2031
    1DPPC   C4A 1856  11.281   4.035   5.480  0.0790  0.1087  0.2986
    1DPPC   C1B 1857  11.383   4.902   6.874 -0.2046 -0.0273  0.0681
    1DPPC   C2B 1858  11.529   5.100   6.367  0.2257 -0.1266  0.0924
    1DPPC   C3B 1859  11.500   5.361   5.978  0.0214  0.2779 -0.0985
    1DPPC   C4B 1860  11.801   5.541   5.637 -0.0213  0.2803 -0.2084
    1DPPC   NC3 1861  13.486  10.636   7.602 -0.1103  0.4312  0.3924
    1DPPC   PO4 1862  13.019  10.645   7.431  0.1275 -0.0289  0.2094
    1DPPC   GL1 1863  13.276  10.549   7.061  0.0070 -0.1078  0.1446
    1DPPC   GL2 1864  13.355  10.339   6.792  0.1786 -0.1835  0.1972
    1DPPC   C1A 1865  13.423  10.828   6.778  0.1809  0.2036  0.0897
    1DPPC   C2A 1866  13.607  11.087   6.405 -0.0562 -0.0137  0.2148
    1DPPC   C3A 1867  13.400  11.394   6.292 -0.1012 -0.0010 -0.1997
    1DPPC   C4A 1868  13.175  11.431   5.965  0.0919 -0.0566 -0.0235
    1DPPC   C1B 1869  13.505  10.591   6.401  0.0864 -0.2002  0.1036
    1DPPC   C2B 1870  13.720  10.670   6.044  0.2781 -0.1025 -0.2623
    1DPPC   C3B 1871  13.940  10.612   5.674 -0.1439  0.0361 -0.0746
    1DPPC   C4B 1872  14.011  10.610   5.175 -0.3610  0.3370  0.0989
    1DPPC   NC3 1873   5.730  23.660   6.815 -0.4003  0.1014 -0.0814
    1DPPC   PO4 1874   5.960  23.304   6.761 -0.0434  0.0582  0.1061
    1DPPC   GL1 1875   5.709  23.354   6.432  0.0467 -0.3488 -0.0144
    1DPPC   GL2 1876   5.440  23.348   6.299 -0.0161 -0.0007 -0.0428
    1DPPC   C1A 1877   5.815  23.341   5.970  0.1547  0.1372  0.0813
    1DPPC   C2A 1878   5.836  23.370   5.573  0.1863 -0.0370 -0.0973
    1DPPC   C3A 1879   6.068  23.620   5.191 -0.0773  0.1678 -0.0728
    1DPPC   C4A 1880   6.326  23.962   4.915  0.1821  0.0476  0.0217
    1DPPC   C1B 1881   5.214  23.532   5.933 -0.4619  0.3216  0.0559
    1DPPC   C2B 1882   5.164  23.558   5.518 -0.0007  0.0106 -0.2580
    1DPPC   C3B 1883   5.551  23.687   5.299 -0.3770 -0.1527 -0.0300
    1DPPC   C4B 1884   5.632  23.858   4.859  0.0708  0.2006  0.2875
    1DPPC   NC3 1885  12.060  25.891   6.660 -0.1328 -0.1832 -0.3007
    1DPPC   PO4 1886  11.628  25.699   6.671  0.1120  0.0333  0.2291
    1DPPC   GL1 1887  11.294  25.679   6.318  0.0241 -0.3093 -0.0236
    1DPPC   GL2 1888  11.351  26.042   6.245  0.0681 -0.1116  0.0544
    1DPPC   C1A 1889  11.185  25.494   5.925 -0.0902 -0.3176 -0.0721
    1DPPC   C2A 1890  11.147  25.195   5.555 -0.0430 -0.1154 -0.0271
    1DPPC   C3A 1891  10.901  25.079   5.298  0.0141 -0.1051 -0.2120
    1DPPC   C4A 1892  10.510  24.994   5.204 -0.2821 -0.1354 -0.0746
    1DPPC   C1B 1893  11.629  26.422   6.047  0.0545 -0.2152  0.3469
    1DPPC   C2B 1894  11.835  26.353   5.666 -0.0326  0.1555  0.2159
    1DPPC   C3B 1895  11.942  26.249   5.246  0.1960 -0.1983  0.1188
    1DPPC   C4B 1896  11.696  26.063   4.908  0.0133  0.1248 -0.1689
    1DPPC   NC3 1897   6.186  25.693   7.286 -0.3055  0.1157  0.2248
    1DPPC   PO4 1898   6.414  25.312   7.150 -0.0233 -0.1148  0.1727
    1DPPC   GL1 1899   6.489  25.255   6.725  0.0211 -0.0503  0.2554
    1DPPC   GL2 1900   6.287  24.911   6.671  0.2709  0.1835  0.3240
    1DPPC   C1A 1901   6.637  25.310   6.298 -0.1777 -0.2189 -0.3061
    1DPPC   C2A 1902   6.886  25.215   6.048 -0.1211  0.2905 -0.1729
    1DPPC   C3A 1903   6.904  25.201   5.626 -0.0561  0.0284 -0.1846
    1DPPC   C4A 1904   7.025  25.097   5.195 -0.0090 -0.0785  0.0200
    1DPPC   C1B 1905   5.951  24.773   6.370  0.0081 -0.0715 -0.0998
    1DPPC   C2B 1906   5.811  24.892   5.975  0.1250  0.0666 -0.1370
    1DPPC   C3B 1907   5.808  24.945   5.532 -0.0732 -0.1277 -0.0820
    1DPPC   C4B 1908   5.887  25.077   5.189  0.0884 -0.1376  0.1582
    1DPPC   NC3 1909   0.882   7.668   6.237 -0.1012 -0.1365 -0.0705
    1DPPC   PO4 1910   0.701   8.045   6.411 -0.0103 -0.1695  0.0454
    1DPPC   GL1 1911   0.968   8.160   6.006  0.0891 -0.0024 -0.2816
    1DPPC   GL2 1912   0.975   7.845   5.783 -0.0264  0.0381 -0.1001
    1DPPC   C1A 1913   1.013   8.304   5.559 -0.1096  0.1919  0.1147
    1DPPC   C2A 1914   1.212   8.429   5.277 -0.0321  0.0608  0.0283
    1DPPC   C3A 1915   1.244   8.421   4.863  0.0386 -0.1553  0.0047
    1DPPC   C4A 1916   1.371   8.621   4.548 -0.0958 -0.0150 -0.0157
    1DPPC   C1B 1917   1.003   7.833   5.357 -0.4871  0.0003  0.5089
    1DPPC   C2B 1918   0.903   8.151   5.002  0.1948 -0.0364  0.0465
    1DPPC   C3B 1919   0.675   8.187   4.671 -0.1668 -0.0153  0.1097
    1DPPC   C4B 1920   0.608   8.197   4.245 -0.0037  0.0484  0.1579
    1DPPC   NC3 1921  25.236  10.090   7.130 -0.0819 -0.2390  0.0868
    1DPPC   PO4 1922  25.225   9.765   6.806  0.0817  0.1751  0.2620
    1DPPC   GL1 1923  24.970   9.664   6.418 -0.2729 -0.0276 -0.0962
    1DPPC   GL2 1924  24.645   9.467   6.516  0.1925  0.0734  0.1725
    1DPPC   C1A 1925  24.678   9.641   5.995 -0.0284 -0.0055  0.1742
    1DPPC   C2A 1926  24.357   9.558   5.691 -0.0347  0.4510 -0.0385
    1DPPC   C3A 1927  24.044   9.681   5.341  0.1586 -0.2851  0.1225
    1DPPC   C4A 1928  23.596   9.840   5.212  0.1301  0.1362  0.3305
    1DPPC   C1B 1929  24.772   9.184   6.178 -0.0165 -0.0310  0.0701
    1DPPC   C2B 1930  24.770   9.212   5.667  0.3416  0.1286 -0.1511
    1DPPC   C3B 1931  24.548   9.304   5.338 -0.0428 -0.2808  0.0592
    1DPPC   C4B 1932  24.190   9.225   5.120  0.1868  0.0415 -0.0072
    1DPPC   NC3 1933   1.925   1.444   6.809 -0.1738  0.1534  0.0943
    1DPPC   PO4 1934   1.797   1.700   6.502  0.2547  0.0245 -0.1970
    1DPPC   GL1 1935   1.749   1.578   6.043 -0.0587 -0.2978 -0.0780
    1DPPC   GL2 1936   2.172   1.522   5.989  0.3398  0.0314  0.0138
    1DPPC   C1A 1937   1.613   1.361   5.589  0.0735  0.1706 -0.0148
    1DPPC   C2A 1938   1.424   0.964   5.476 -0.1968  0.0884 -0.1776
    1DPPC   C3A 1939   1.082   0.771   5.486  0.0325 -0.4088 -0.0963
    1DPPC   C4A 1940   0.869   0.528   5.174 -0.2104  0.1768 -0.1058
    1DPPC   C1B 1941   2.070   1.224   5.796  0.0990  0.1487 -0.3051
    1DPPC   C2B 1942   2.292   1.094   5.399  0.2468  0.1931 -0.1480
    1DPPC   C3B 1943   2.508   1.021   5.002 -0.0861 -0.0121  0.0733
    1DPPC   C4B 1944   2.794   0.851   4.735 -0.0856  0.0129 -0.1822
    1DPPC   NC3 1945   3.979  10.227   6.568 -0.0500  0.0633 -0.0121
    1DPPC   PO4 1946   3.524  10.267   6.552  0.0937 -0.1025  0.0607
    1DPPC   GL1 1947   3.768  10.497   6.206  0.0498 -0.0446 -0.0995
    1DPPC   GL2 1948   3.543  10.730   6.086 -0.2374  0.1228 -0.2388
    1DPPC   C1A 1949   4.041  10.832   6.053 -0.0894 -0.1122 -0.1133
    1DPPC   C2A 1950   4.229  10.965   5.552  0.0105  0.0230 -0.0946
    1DPPC   C3A 1951   4.252  11.320   5.473  0.2769 -0.1299 -0.1840
    1DPPC   C4A 1952   4.156  11.626   5.204 -0.0347  0.1737  0.1117
    1DPPC   C1B 1953   3.782  10.680   5.660 -0.0250  0.0271  0.2447
    1DPPC   C2B 1954   3.867  10.757   5.216  0.0696 -0.2448 -0.1836
    1DPPC   C3B 1955   4.167  11.066   5.054 -0.0488  0.3166 -0.5204
    1DPPC   C4B 1956   4.620  11.248   5.115 -0.1043  0.0270  0.4061
    1DPPC   NC3 1957  26.003  20.571   6.779  0.2210  0.0700  0.1301
    1DPPC   PO4 1958  26.320  20.648   6.498  0.3169 -0.0062 -0.1264
    1DPPC   GL1 1959  26.490  20.262   6.167  0.2059  0.3125  0.0288
    1DPPC   GL2 1960  26.513  20.101   6.335  0.1806  0.0235  0.3513
    1DPPC   C1A 1961  26.547  20.314   5.805  0.1277 -0.3460  0.0460
    1DPPC   C2A 1962  26.576  20.304   5.403  0.1063  0.1273 -0.2265
    1DPPC   C3A 1963  26.184  20.246   5.131 -0.4351  0.0260  0.1129
    1DPPC   C4A 1964  25.716  20.275   4.867  0.0928 -0.1006  0.0178
    1DPPC   C1B 1965  26.583  19.775   5.979 -0.0024  0.0054 -0.1715
    1DPPC   C2B 1966  26.553  19.469   5.668  0.1769  0.1303 -0.3181
    1DPPC   C3B 1967  26.723  19.397   5.274  0.0594  0.1409 -0.0624
    1DPPC   C4B 1968  26.771  19.368   4.862 -0.2324  0.0949 -0.0352
    1DPPC   NC3 1969   3.363  17.541   6.708  0.0336 -0.1411  0.1196
    1DPPC   PO4 1970   3.679  17.316   6.742  0.0027  0.2755 -0.1603
    1DPPC   GL1 1971   3.892  17.067   6.500  0.1423  0.2416 -0.0772
    1DPPC   GL2 1972   4.085  17.222   6.442 -0.0197 -0.0510 -0.4682
    1DPPC   C1A 1973   3.802  17.038   5.996  0.3602  0.1799  0.0267
    1DPPC   C2A 1974   4.068  17.192   5.609 -0.2006 -0.2455  0.1484
    1DPPC   C3A 1975   4.289  17.320   5.268 -0.2078  0.1350  0.1171
    1DPPC   C4A 1976   4.227  17.328   4.837 -0.2211  0.1327 -0.1452
    1DPPC   C1B 1977   4.229  17.458   5.995  0.1227  0.2023 -0.2127
    1DPPC   C2B 1978   4.584  17.469   5.667  0.1438 -0.0170 -0.1558
    1DPPC   C3B 1979   4.938  17.171   5.624  0.1821 -0.1715  0.0052
    1DPPC   C4B 1980   4.812  16.667   5.772 -0.0692 -0.2899 -0.1346
    1DPPC   NC3 1981   1.386   3.963   6.291 -0.1725  0.0127  0.0561
    1DPPC   PO4 1982   1.170   3.885   5.880 -0.0033 -0.0892  0.0426
    1DPPC   GL1 1983   1.217   3.777   5.420 -0.0007  0.1051  0.3914
    1DPPC   GL2 1984   1.083   3.496   5.382 -0.1427  0.3752  0.2805
    1DPPC   C1A 1985   1.301   3.800   5.007 -0.1828  0.0645 -0.3046
    1DPPC   C2A 1986   1.492   3.598   4.678 -0.1458 -0.0894 -0.0181
    1DPPC   C3A 1987   1.484   3.711   4.323  0.1673 -0.0260 -0.1762
    1DPPC   C4A 1988   1.755   3.836   3.980  0.3184 -0.0173 -0.0059
    1DPPC   C1B 1989   0.826   3.585   5.109  0.1597  0.1112  0.0557
    1DPPC   C2B 1990   0.852   3.695   4.718  0.2773  0.0141  0.1610
    1DPPC   C3B 1991   0.990   3.606   4.313  0.1829 -0.2070 -0.0686
    1DPPC   C4B 1992   1.135   3.721   3.930 -0.3478  0.2166 -0.4408
    1DPPC   NC3 1993   8.797  28.117   6.683  0.0535 -0.3126  0.1402
    1DPPC   PO4 1994   8.762   0.401   6.432 -0.1210 -0.0714 -0.1397
    1DPPC   GL1 1995   8.840   0.288   6.084  0.1717  0.0804 -0.0954
    1DPPC   GL2 1996   8.636   0.304   5.854  0.1994 -0.0952 -0.3702
    1DPPC   C1A 1997   9.194   0.413   5.988 -0.0128  0.0463  0.0784
    1DPPC   C2A 1998   9.410   0.266   5.602  0.1206 -0.1553 -0.3254
    1DPPC   C3A 1999   9.371  28.010   5.388 -0.1646 -0.0242  0.1921
    1DPPC   C4A 2000   9.290  27.569   5.263  0.0144  0.0732  0.1805
    1DPPC   C1B 2001   8.879   0.474   5.599 -0.6706  0.0004 -0.0376
    1DPPC   C2B 2002   9.104   0.370   5.207  0.0245 -0.0020 -0.0647
    1DPPC   C3B 2003   9.130   0.235   4.777  0.2921  0.2361 -0.0632
    1DPPC   C4B 2004   8.868  28.091   4.581 -0.4568 -0.1744 -0.0265
    1DPPC   NC3 2005   5.378   1.606   6.393 -0.1324 -0.1148 -0.0018
    1DPPC   PO4 2006   5.266   1.271   6.530  0.2199  0.1455  0.1055
    1DPPC   GL1 2007   5.297   1.073   6.206  0.1503  0.1157 -0.0246
    1DPPC   GL2 2008   5.084   1.205   6.087 -0.0377  0.1470  0.0504
    1DPPC   C1A 2009   5.219   0.810   5.753 -0.1551 -0.2280  0.1872
    1DPPC   C2A 2010   5.146   0.765   5.355 -0.3240  0.1360  0.3647
    1DPPC   C3A 2011   5.222   0.614   4.920 -0.0354  0.1439 -0.0608
    1DPPC   C4A 2012   5.370   0.732   4.501  0.4456 -0.0708 -0.0216
    1DPPC   C1B 2013   5.030   1.548   5.792 -0.2658  0.1138  0.1190
    1DPPC   C2B 2014   5.064   1.676   5.346 -0.2707  0.0391  0.0442
    1DPPC   C3B 2015   4.904   1.936   5.196  0.3610  0.0613 -0.0237
    1DPPC   C4B 2016   4.837   1.696   4.836  0.0341 -0.0163  0.3257
    1DPPC   NC3 2017  15.125  15.340   7.718  0.0476 -0.0643 -0.1269
    1DPPC   PO4 2018  14.790  15.517   7.420  0.1789 -0.1755  0.0363
    1DPPC   GL1 2019  14.750  15.313   7.004  0.0755  0.2279 -0.1995
    1DPPC   GL2 2020  14.690  15.521   6.884 -0.0751 -0.0437  0.1054
    1DPPC   C1A 2021  14.897  15.071   6.665  0.1978  0.0123 -0.1037
    1DPPC   C2A 2022  15.108  15.215   6.198  0.0278  0.1133 -0.0223
    1DPPC   C3A 2023  15.195  15.065   5.913 -0.2869 -0.1596  0.1927
    1DPPC   C4A 2024  15.367  14.828   5.581  0.2323 -0.2997  0.1848
    1DPPC   C1B 2025  14.753  15.463   6.422  0.4017 -0.1512 -0.1401
    1DPPC   C2B 2026  14.737  15.303   5.940 -0.2003  0.0544  0.0087
    1DPPC   C3B 2027  14.501  15.164   5.497 -0.1080 -0.1645  0.0390
    1DPPC   C4B 2028  14.670  15.287   5.073  0.0644  0.1092  0.0786
    1DPPC   NC3 2029  27.659  19.455   6.597  0.0653  0.0443  0.1494
    1DPPC   PO4 2030  27.300  19.766   6.603  0.2364  0.2020  0.1938
    1DPPC   GL1 2031  27.201  19.584   6.213  0.3152 -0.1224  0.3001
    1DPPC   GL2 2032  26.799  19.347   6.138 -0.1227 -0.0504  0.0320
    1DPPC   C1A 2033  27.058  19.753   5.844 -0.2222 -0.1425  0.1606
    1DPPC   C2A 2034  26.902  19.871   5.406  0.0004  0.2353  0.0907
    1DPPC   C3A 2035  26.858  20.157   5.054 -0.0471  0.1543 -0.1432
    1DPPC   C4A 2036  26.560  20.577   4.979  0.5178 -0.0326  0.2231
    1DPPC   C1B 2037  26.982  19.159   5.735 -0.2055  0.0325 -0.0723
    1DPPC   C2B 2038  27.237  19.426   5.392  0.2259 -0.2515  0.0204
    1DPPC   C3B 2039  27.183  19.691   4.983  0.2988 -0.0268 -0.0872
    1DPPC   C4B 2040  26.875  19.834   4.702  0.0086 -0.1000 -0.0999
    1DPPC   NC3 2041  11.989   6.126   7.898 -0.3421 -0.1351 -0.2636
    1DPPC   PO4 2042  12.153   5.871   7.581 -0.2518  0.4178 -0.2999
    1DPPC   GL1 2043  12.605   6.012   7.362 -0.1311  0.0212  0.0334
    1DPPC   GL2 2044  12.729   6.295   7.310 -0.1888  0.1335  0.0017
    1DPPC   C1A 2045  12.715   5.856   6.966  0.2437 -0.3422  0.0977
    1DPPC   C2A 2046  12.799   5.945   6.577  0.0189  0.1562 -0.2763
    1DPPC   C3A 2047  12.672   5.711   6.217 -0.3183 -0.2775 -0.0250
    1DPPC   C4A 2048  12.567   5.774   5.718 -0.1632  0.2110 -0.2892
    1DPPC   C1B 2049  12.552   6.365   6.935 -0.0883  0.3265  0.0669
    1DPPC   C2B 2050  12.423   6.373   6.577  0.0440  0.1279  0.0615
    1DPPC   C3B 2051  11.972   6.405   6.390  0.0482 -0.0143 -0.1343
    1DPPC   C4B 2052  11.790   6.361   5.938 -0.0250 -0.0483 -0.1183
    1DPPC   NC3 2053  23.948   1.867   6.869  0.1161  0.0498  0.2810
    1DPPC   PO4 2054  24.087   2.191   6.805  0.1509 -0.4471 -0.4617
    1DPPC   GL1 2055  23.923   2.033   6.441 -0.1830  0.0209 -0.2439
    1DPPC   GL2 2056  23.580   2.115   6.376  0.1669 -0.3358 -0.0323
    1DPPC   C1A 2057  24.068   2.109   6.066 -0.0054 -0.0150 -0.1441
    1DPPC   C2A 2058  24.155   2.207   5.688  0.0369 -0.0780 -0.3936
    1DPPC   C3A 2059  24.255   2.501   5.341  0.2348  0.0133 -0.0792
    1DPPC   C4A 2060  24.271   2.654   4.975 -0.0956  0.0888 -0.0527
    1DPPC   C1B 2061  23.622   1.928   5.976  0.1464  0.2133 -0.0417
    1DPPC   C2B 2062  23.628   1.758   5.564 -0.2463  0.0877  0.1658
    1DPPC   C3B 2063  23.779   1.560   5.153 -0.2770 -0.0313  0.1125
    1DPPC   C4B 2064  23.745   1.631   4.651 -0.0497 -0.0225  0.1170
    1DPPC   NC3 2065  23.781   7.230   6.812 -0.0290  0.2131 -0.0679
    1DPPC   PO4 2066  24.207   7.274   6.665  0.0152 -0.1693 -0.1970
    1DPPC   GL1 2067  24.412   7.451   6.351 -0.0634  0.0636  0.1108
    1DPPC   GL2 2068  24.687   7.472   6.164  0.1559  0.0451  0.0955
    1DPPC   C1A 2069  24.163   7.529   5.940 -0.0174  0.2316 -0.0461
    1DPPC   C2A 2070  24.219   7.516   5.520  0.2113 -0.1005 -0.1904
    1DPPC   C3A 2071  24.405   7.652   5.128  0.3976  0.0086 -0.2652
    1DPPC   C4A 2072  24.854   7.640   5.024 -0.0810  0.2796  0.0783
    1DPPC   C1B 2073  24.705   7.547   5.755  0.1970 -0.0606 -0.0149
    1DPPC   C2B 2074  24.676   7.302   5.370 -0.0225 -0.1029  0.0805
    1DPPC   C3B 2075  24.712   7.186   4.916 -0.1998 -0.2275  0.0435
    1DPPC   C4B 2076  24.671   7.398   4.563  0.1845 -0.1883 -0.2083
    1DPPC   NC3 2077   4.869  23.863   7.366 -0.1127 -0.0515 -0.2936
    1DPPC   PO4 2078   5.017  24.225   7.027  0.2091  0.1322  0.0375
    1DPPC   GL1 2079   5.231  24.282   6.593  0.2037  0.1059  0.2112
    1DPPC   GL2 2080   5.399  24.504   6.687 -0.2383  0.0739  0.1896
    1DPPC   C1A 2081   5.147  24.342   6.147  0.2131 -0.2476 -0.0151
    1DPPC   C2A 2082   5.182  24.464   5.705  0.0469  0.0208  0.2756
    1DPPC   C3A 2083   5.201  24.827   5.565 -0.0041 -0.5053 -0.0352
    1DPPC   C4A 2084   5.377  25.181   5.390  0.1776 -0.1388 -0.3284
    1DPPC   C1B 2085   5.471  24.832   6.340  0.3899  0.2021  0.0811
    1DPPC   C2B 2086   5.187  24.882   6.039  0.0904 -0.1386  0.1570
    1DPPC   C3B 2087   5.087  25.293   5.822  0.0037 -0.1808 -0.0718
    1DPPC   C4B 2088   4.759  25.671   5.799  0.5864  0.0524 -0.1342
    1DPPC   NC3 2089   9.959   1.839   7.152 -0.1487 -0.0550 -0.0204
    1DPPC   PO4 2090  10.277   2.097   7.291  0.1882  0.2162  0.0823
    1DPPC   GL1 2091  10.601   2.050   6.924  0.0606  0.1411 -0.0154
    1DPPC   GL2 2092  10.597   1.788   6.749  0.0138 -0.0710 -0.2601
    1DPPC   C1A 2093  10.817   2.161   6.489  0.1854  0.0279 -0.2461
    1DPPC   C2A 2094  10.756   2.266   6.100  0.0970  0.0354  0.0458
    1DPPC   C3A 2095  10.928   2.563   5.874  0.0047 -0.1775  0.0049
    1DPPC   C4A 2096  10.983   3.133   5.802  0.3001  0.0139  0.0225
    1DPPC   C1B 2097  10.662   1.549   6.342  0.0338  0.1165  0.1277
    1DPPC   C2B 2098  10.887   1.598   6.016 -0.1142 -0.0267  0.1570
    1DPPC   C3B 2099  11.014   1.631   5.544  0.1064 -0.0631  0.4548
    1DPPC   C4B 2100  10.930   1.779   5.122 -0.2179 -0.2967  0.3961
    1DPPC   NC3 2101   6.571  22.349   6.832  0.1338 -0.2120 -0.0577
    1DPPC   PO4 2102   6.509  22.866   6.865 -0.0904  0.0412 -0.1192
    1DPPC   GL1 2103   6.564  22.631   6.459 -0.0503  0.1051  0.1164
    1DPPC   GL2 2104   6.192  22.546   6.306 -0.1123 -0.0569 -0.1695
    1DPPC   C1A 2105   6.828  22.349   6.149 -0.0762 -0.0965  0.0409
    1DPPC   C2A 2106   7.213  22.514   5.893 -0.1805  0.3168 -0.0120
    1DPPC   C3A 2107   7.243  22.370   5.501 -0.0294  0.0772 -0.0332
    1DPPC   C4A 2108   7.458  22.325   5.104  0.0814  0.0050  0.0375
    1DPPC   C1B 2109   6.369  22.478   5.805  0.2892  0.1533 -0.4543
    1DPPC   C2B 2110   6.699  22.104   5.675  0.0713 -0.3127 -0.0568
    1DPPC   C3B 2111   6.689  22.142   5.179 -0.0689  0.0913  0.2236
    1DPPC   C4B 2112   6.580  21.973   4.798  0.3637  0.3276  0.1471
    1DPPC   NC3 2113  20.320  27.502   7.179 -0.1853  0.1600 -0.0533
    1DPPC   PO4 2114  20.733  27.692   7.097  0.1659 -0.1207  0.2981
    1DPPC   GL1 2115  20.640  27.736   6.706  0.0645 -0.0284  0.1094
    1DPPC   GL2 2116  20.847  27.600   6.442  0.1181 -0.0903 -0.3447
    1DPPC   C1A 2117  20.626  28.024   6.338 -0.0641  0.0671 -0.0352
    1DPPC   C2A 2118  20.494  28.011   5.945 -0.0564  0.0676 -0.0491
    1DPPC   C3A 2119  20.447  28.050   5.571  0.0048 -0.3938 -0.1745
    1DPPC   C4A 2120  20.419  27.880   5.142  0.2709 -0.1227 -0.0161
    1DPPC   C1B 2121  21.015  27.855   6.034  0.1898 -0.0726 -0.0446
    1DPPC   C2B 2122  21.256  27.897   5.627  0.1156  0.1528 -0.0248
    1DPPC   C3B 2123  21.164  27.889   5.246  0.0107 -0.0380  0.1573
    1DPPC   C4B 2124  21.527  27.652   4.987 -0.2779  0.0820 -0.1281
    1DPPC   NC3 2125  12.928   4.241   7.624  0.0044 -0.3102 -0.1672
    1DPPC   PO4 2126  13.060   4.663   7.474 -0.1404  0.1028 -0.0484
    1DPPC   GL1 2127  13.068   4.957   7.132  0.0230 -0.2284  0.1336
    1DPPC   GL2 2128  13.359   5.254   7.164  0.4371  0.0096 -0.1825
    1DPPC   C1A 2129  12.702   5.032   6.899  0.1523  0.1643 -0.0581
    1DPPC   C2A 2130  12.291   5.061   6.747  0.2473  0.3081  0.1806
    1DPPC   C3A 2131  12.080   4.976   6.443 -0.1137 -0.2176 -0.0295
    1DPPC   C4A 2132  12.018   5.117   6.020  0.1067  0.1302 -0.0539
    1DPPC   C1B 2133  13.065   5.374   6.835  0.3415  0.0132 -0.1116
    1DPPC   C2B 2134  13.137   5.526   6.448 -0.0743  0.0450  0.2047
    1DPPC   C3B 2135  13.389   5.283   6.227 -0.2900  0.0121 -0.0864
    1DPPC   C4B 2136  13.741   5.003   6.146 -0.0678 -0.0029  0.0395
    1DPPC   NC3 2137  12.012  19.471   7.416 -0.2755 -0.0241  0.0448
    1DPPC   PO4 2138  11.695  19.836   7.411  0.0799  0.2616  0.3374
    1DPPC   GL1 2139  11.468  19.846   7.094  0.0733 -0.1857  0.2054
    1DPPC   GL2 2140  11.317  20.276   6.997  0.0601  0.0583  0.0900
    1DPPC   C1A 2141  11.370  19.786   6.726 -0.0087  0.2812  0.1569
    1DPPC   C2A 2142  11.395  19.559   6.336 -0.1589 -0.0570  0.0478
    1DPPC   C3A 2143  11.120  19.591   6.048 -0.0953 -0.2124  0.0794
    1DPPC   C4A 2144  11.138  19.284   5.713  0.1392 -0.1119  0.3820
    1DPPC   C1B 2145  11.405  20.324   6.624 -0.3447  0.1153 -0.1269
    1DPPC   C2B 2146  11.418  20.110   6.232  0.0198 -0.0527  0.0494
    1DPPC   C3B 2147  11.337  20.014   5.842 -0.0668 -0.0069 -0.2053
    1DPPC   C4B 2148  11.008  19.936   5.542 -0.1029 -0.1221 -0.2905
    1DPPC   NC3 2149   8.297  26.306   6.811 -0.2306 -0.2001 -0.2583
    1DPPC   PO4 2150   7.926  26.024   6.789 -0.0709 -0.1529 -0.1928
    1DPPC   GL1 2151   8.187  25.937   6.436  0.0780 -0.0578  0.4647
    1DPPC   GL2 2152   7.931  25.996   6.229 -0.4077 -0.0870  0.0514
    1DPPC   C1A 2153   8.259  25.689   6.077 -0.0763 -0.0237 -0.0517
    1DPPC   C2A 2154   8.416  25.708   5.596 -0.0427  0.4259 -0.0565
    1DPPC   C3A 2155   8.264  25.567   5.273  0.1665 -0.1331  0.1479
    1DPPC   C4A 2156   8.401  25.658   4.867 -0.1312  0.5587 -0.1368
    1DPPC   C1B 2157   8.104  26.078   5.865 -0.1479 -0.0321  0.1346
    1DPPC   C2B 2158   7.970  26.027   5.420  0.2492  0.0226  0.2070
    1DPPC   C3B 2159   7.816  25.948   5.021  0.0958 -0.1249 -0.0035
    1DPPC   C4B 2160   7.812  26.034   4.526  0.2481 -0.1174 -0.3302
    1DPPC   NC3 2161   0.240   6.450   6.471  0.1181  0.0431  0.1577
    1DPPC   PO4 2162   0.535   6.791   6.328 -0.0025  0.0468 -0.0121
    1DPPC   GL1 2163   0.515   6.580   5.955  0.0612  0.0580  0.0807
    1DPPC   GL2 2164   0.296   6.289   5.993 -0.4739  0.2804 -0.1425
    1DPPC   C1A 2165   0.413   6.502   5.540 -0.1426  0.0801  0.0497
    1DPPC   C2A 2166   0.259   6.640   5.097 -0.0828 -0.0284  0.1618
    1DPPC   C3A 2167   0.260   6.686   4.708 -0.0863  0.1412  0.2058
    1DPPC   C4A 2168   0.134   6.406   4.456  0.2377 -0.0245 -0.0108
    1DPPC   C1B 2169   0.006   6.217   5.693  0.1005 -0.2243  0.0645
    1DPPC   C2B 2170   0.051   6.239   5.273  0.0782 -0.1613 -0.2264
    1DPPC   C3B 2171  28.023   6.278   4.869 -0.0372 -0.0362 -0.2846
    1DPPC   C4B 2172  27.772   6.424   4.525  0.1434  0.1222  0.0242
    1DPPC   NC3 2173   2.880  22.512   6.754  0.2774  0.0583 -0.0760
    1DPPC   PO4 2174   2.529  22.530   6.412 -0.1035  0.0355 -0.2489
    1DPPC   GL1 2175   2.274  22.698   6.103 -0.0828 -0.2867 -0.1147
    1DPPC   GL2 2176   2.035  22.943   6.091 -0.0714 -0.2023  0.0166
    1DPPC   C1A 2177   2.416  22.573   5.655 -0.4182 -0.0715  0.3158
    1DPPC   C2A 2178   2.543  22.404   5.247  0.2656 -0.3710  0.1451
    1DPPC   C3A 2179   2.822  21.964   5.099 -0.1012  0.2973  0.0216
    1DPPC   C4A 2180   2.842  21.463   4.960  0.0593 -0.0449 -0.3116
    1DPPC   C1B 2181   2.031  23.061   5.714  0.0153  0.1780 -0.2422
    1DPPC   C2B 2182   1.889  23.217   5.323  0.0696 -0.4104  0.3336
    1DPPC   C3B 2183   1.849  23.063   4.924  0.4493  0.0682  0.0721
    1DPPC   C4B 2184   1.997  22.655   4.801 -0.2126 -0.2176  0.2818
    1DPPC   NC3 2185   9.410   6.754   7.542 -0.2545 -0.2121  0.1900
    1DPPC   PO4 2186   8.997   6.686   7.360 -0.1406 -0.1398  0.2632
    1DPPC   GL1 2187   8.675   6.654   7.028 -0.2062 -0.1136  0.0397
    1DPPC   GL2 2188   8.733   6.368   6.769  0.1682  0.0086 -0.0674
    1DPPC   C1A 2189   8.655   6.888   6.691 -0.2000  0.0999 -0.0275
    1DPPC   C2A 2190   8.276   6.823   6.463  0.2266 -0.2042 -0.3352
    1DPPC   C3A 2191   8.094   6.688   6.045  0.0849  0.0866 -0.1766
    1DPPC   C4A 2192   8.267   6.704   5.595  0.0994 -0.0481 -0.0044
    1DPPC   C1B 2193   8.687   6.498   6.354 -0.1688  0.0862 -0.0605
    1DPPC   C2B 2194   8.959   6.393   6.006 -0.1387 -0.3938 -0.0837
    1DPPC   C3B 2195   9.239   6.094   5.652  0.1353 -0.3609  0.1061
    1DPPC   C4B 2196   9.503   5.891   5.317 -0.0027  0.2291 -0.0720
    1DPPC   NC3 2197  25.811   3.404   6.874 -0.2048  0.0500  0.1036
    1DPPC   PO4 2198  25.704   3.799   6.775 -0.1839 -0.1647  0.2427
    1DPPC   GL1 2199  25.390   3.684   6.468  0.4765 -0.3295  0.0060
    1DPPC   GL2 2200  25.483   3.353   6.484  0.0919 -0.0529 -0.1115
    1DPPC   C1A 2201  25.209   3.757   6.079  0.1283 -0.0787  0.0884
    1DPPC   C2A 2202  25.033   3.642   5.684 -0.0027 -0.1421  0.3096
    1DPPC   C3A 2203  24.986   3.746   5.208 -0.0164  0.0235  0.1608
    1DPPC   C4A 2204  25.280   3.797   4.872 -0.0231  0.0269  0.2753
    1DPPC   C1B 2205  25.629   3.337   6.086  0.1053  0.1900  0.2993
    1DPPC   C2B 2206  25.455   3.341   5.615  0.0910 -0.0351 -0.1475
    1DPPC   C3B 2207  25.467   3.361   5.176 -0.1920 -0.0067 -0.0128
    1DPPC   C4B 2208  25.798   3.284   4.736  0.3436 -0.2936  0.2358
    1DPPC   NC3 2209   5.245  12.881   6.842  0.0348 -0.2252  0.0308
    1DPPC   PO4 2210   4.956  12.664   7.067 -0.1473  0.0137  0.1312
    1DPPC   GL1 2211   4.944  12.553   6.576 -0.1437  0.2379 -0.3861
    1DPPC   GL2 2212   5.268  12.507   6.524 -0.1460  0.0082  0.0183
    1DPPC   C1A 2213   4.836  12.591   6.179  0.1645  0.1346 -0.0799
    1DPPC   C2A 2214   4.888  12.746   5.800  0.0090  0.1218 -0.0865
    1DPPC   C3A 2215   4.858  12.550   5.468 -0.0096 -0.0653 -0.0922
    1DPPC   C4A 2216   4.565  12.319   5.222 -0.1282  0.0771 -0.1245
    1DPPC   C1B 2217   5.303  12.462   6.099  0.1849 -0.0897  0.0467
    1DPPC   C2B 2218   5.378  12.307   5.634  0.0495  0.0416  0.1530
    1DPPC   C3B 2219   5.457  12.241   5.220 -0.2622  0.0678 -0.0347
    1DPPC   C4B 2220   5.770  12.222   4.878 -0.1542 -0.0969  0.1062
    1DPPC   NC3 2221  11.172   6.273   7.546  0.1827  0.0268  0.0005
    1DPPC   PO4 2222  11.151   5.850   7.500  0.2523  0.0699 -0.2885
    1DPPC   GL1 2223  11.321   5.906   7.130  0.0689 -0.1321  0.0080
    1DPPC   GL2 2224  11.466   6.191   7.130  0.0432  0.1244 -0.1419
    1DPPC   C1A 2225  11.144   6.040   6.750 -0.0756 -0.4075 -0.1395
    1DPPC   C2A 2226  10.916   6.041   6.374  0.0392  0.1001  0.2007
    1DPPC   C3A 2227  10.730   5.914   6.025  0.1932  0.0139 -0.0019
    1DPPC   C4A 2228  10.699   5.957   5.540  0.0405  0.1282  0.0148
    1DPPC   C1B 2229  11.403   6.583   6.993  0.0734 -0.3415  0.2557
    1DPPC   C2B 2230  11.635   6.750   6.579  0.0586  0.1192 -0.0775
    1DPPC   C3B 2231  11.736   6.850   6.112 -0.0919  0.1595 -0.1673
    1DPPC   C4B 2232  11.833   6.967   5.642  0.1347  0.0259  0.2887
    1DPPC   NC3 2233  11.553   2.274   7.674  0.0414  0.1651  0.3442
    1DPPC   PO4 2234  11.284   1.986   7.589  0.1217  0.2899 -0.3014
    1DPPC   GL1 2235  11.199   1.983   7.163  0.1928  0.0326 -0.1531
    1DPPC   GL2 2236  10.999   1.722   7.056 -0.0718 -0.1172 -0.2576
    1DPPC   C1A 2237  11.126   2.162   6.844 -0.0784 -0.0869  0.0122
    1DPPC   C2A 2238  11.260   2.345   6.523  0.2526  0.2212  0.3500
    1DPPC   C3A 2239  11.362   2.487   6.201  0.0767 -0.0939  0.2050
    1DPPC   C4A 2240  11.350   2.816   5.944  0.0883 -0.1072 -0.2062
    1DPPC   C1B 2241  11.086   1.748   6.601  0.0578 -0.1674 -0.0297
    1DPPC   C2B 2242  11.181   1.970   6.159  0.1325 -0.0806  0.0644
    1DPPC   C3B 2243  11.146   2.182   5.780  0.0620  0.1148 -0.2635
    1DPPC   C4B 2244  11.235   2.118   5.349  0.3329  0.2461  0.2212
    1DPPC   NC3 2245   6.031   1.928   6.663 -0.1485  0.2385 -0.1496
    1DPPC   PO4 2246   5.633   1.960   6.584  0.1219 -0.0053  0.0458
    1DPPC   GL1 2247   5.645   2.172   6.246  0.2399  0.1149  0.1021
    1DPPC   GL2 2248   5.964   2.174   6.162 -0.1336 -0.0085  0.0670
    1DPPC   C1A 2249   5.696   2.186   5.718 -0.2728  0.0820  0.2977
    1DPPC   C2A 2250   5.900   2.412   5.438 -0.0368  0.0074  0.0448
    1DPPC   C3A 2251   6.240   2.498   5.238 -0.0319 -0.0220  0.3118
    1DPPC   C4A 2252   6.379   2.433   4.862 -0.0602  0.0130  0.2163
    1DPPC   C1B 2253   6.201   2.181   5.761  0.2822  0.3001  0.1241
    1DPPC   C2B 2254   6.316   2.053   5.371  0.0836  0.0328 -0.2464
    1DPPC   C3B 2255   6.558   1.886   5.133  0.0299  0.0957 -0.0791
    1DPPC   C4B 2256   6.574   1.573   5.047  0.0412 -0.0417  0.0247
    1DPPC   NC3 2257  15.572  24.387   7.394 -0.0108 -0.1793 -0.0213
    1DPPC   PO4 2258  15.509  24.494   7.018  0.0334 -0.0306  0.3243
    1DPPC   GL1 2259  15.610  24.628   6.725 -0.0910  0.0122 -0.1313
    1DPPC   GL2 2260  15.893  24.596   6.663  0.0066 -0.0668 -0.1562
    1DPPC   C1A 2261  15.500  24.712   6.304 -0.1666  0.2310  0.0538
    1DPPC   C2A 2262  15.690  24.962   6.067 -0.2127  0.1587  0.0835
    1DPPC   C3A 2263  15.756  24.953   5.693  0.1019  0.1047  0.2136
    1DPPC   C4A 2264  15.932  24.660   5.396  0.0698 -0.2097  0.1729
    1DPPC   C1B 2265  16.103  24.521   6.252 -0.1589  0.0407  0.1938
    1DPPC   C2B 2266  16.334  24.240   6.010 -0.0664  0.1798  0.0051
    1DPPC   C3B 2267  16.536  23.880   5.845  0.3193  0.0533  0.1300
    1DPPC   C4B 2268  16.278  23.679   5.604 -0.2275 -0.2249 -0.0199
    1DPPC   NC3 2269   8.314  27.875   6.913  0.3279  0.0498  0.1062
    1DPPC   PO4 2270   7.985  27.583   6.856 -0.1438 -0.1400 -0.3430
    1DPPC   GL1 2271   7.883  27.347   6.503  0.1618 -0.0264  0.2920
    1DPPC   GL2 2272   7.822  27.130   6.540 -0.0242  0.0805  0.1411
    1DPPC   C1A 2273   7.829  27.371   6.081  0.0965  0.4293 -0.4107
    1DPPC   C2A 2274   7.780  27.393   5.656 -0.2618  0.1015  0.1156
    1DPPC   C3A 2275   7.980  27.180   5.204 -0.0156 -0.0601 -0.1931
    1DPPC   C4A 2276   8.297  26.986   5.004 -0.2827  0.2886  0.1005
    1DPPC   C1B 2277   7.779  26.888   6.293 -0.1095 -0.3676  0.1986
    1DPPC   C2B 2278   7.815  26.903   5.857 -0.0324  0.0564  0.1377
    1DPPC   C3B 2279   8.081  26.823   5.566 -0.1311 -0.2824 -0.0253
    1DPPC   C4B 2280   8.217  26.517   5.415 -0.1546  0.1755  0.2382
    1DPPC   NC3 2281  14.911  17.656   7.236  0.3086  0.2403  0.2587
    1DPPC   PO4 2282  15.319  17.514   7.194 -0.1736  0.3225  0.2029
    1DPPC   GL1 2283  15.201  17.451   6.776 -0.2609  0.2878  0.0707
    1DPPC   GL2 2284  14.924  17.408   6.785  0.0271 -0.2056 -0.1206
    1DPPC   C1A 2285  15.298  17.603   6.373 -0.1595 -0.0435  0.0095
    1DPPC   C2A 2286  15.663  17.786   6.088  0.2288 -0.0212 -0.0552
    1DPPC   C3A 2287  15.484  17.823   5.624 -0.0035  0.1520  0.3059
    1DPPC   C4A 2288  15.428  17.359   5.387  0.1017 -0.1010 -0.0204
    1DPPC   C1B 2289  14.750  17.519   6.384 -0.2891 -0.2580 -0.0234
    1DPPC   C2B 2290  14.473  17.344   6.081 -0.1245  0.0954  0.1094
    1DPPC   C3B 2291  14.474  17.174   5.605  0.1156 -0.0425 -0.0880
    1DPPC   C4B 2292  14.249  17.322   5.248  0.0184 -0.1539  0.0822
    1DPPC   NC3 2293   9.968   0.181   7.230 -0.0092  0.2066 -0.0053
    1DPPC   PO4 2294  10.169  28.119   6.936  0.1802  0.0413  0.2255
    1DPPC   GL1 2295  10.059  27.916   6.459  0.0327 -0.0494 -0.1794
    1DPPC   GL2 2296   9.960  27.518   6.255 -0.2528  0.2516  0.0724
    1DPPC   C1A 2297  10.114   0.050   6.025 -0.1487  0.1982  0.0486
    1DPPC   C2A 2298   9.896   0.078   5.673  0.0532  0.0433  0.2381
    1DPPC   C3A 2299   9.755   0.227   5.295  0.2259 -0.2767 -0.1765
    1DPPC   C4A 2300   9.740  28.001   4.998  0.1468  0.0448  0.2050
    1DPPC   C1B 2301  10.119  27.646   5.860 -0.1523 -0.3381 -0.1843
    1DPPC   C2B 2302  10.294  27.404   5.488  0.1068 -0.2626 -0.4818
    1DPPC   C3B 2303  10.573  27.020   5.283 -0.1796  0.1253 -0.0631
    1DPPC   C4B 2304  10.994  26.877   5.091 -0.0811  0.2021 -0.1857
    1DPPC   NC3 2305   5.575  16.228   7.659 -0.0856 -0.1955  0.0758
    1DPPC   PO4 2306   5.288  16.005   7.406  0.2109 -0.0969 -0.2407
    1DPPC   GL1 2307   5.403  15.923   6.905  0.0125 -0.1571 -0.0605
    1DPPC   GL2 2308   5.734  15.880   6.808  0.1378 -0.2475  0.2151
    1DPPC   C1A 2309   5.506  16.131   6.461  0.1545 -0.2560 -0.0022
    1DPPC   C2A 2310   5.603  16.053   6.090  0.2215 -0.0059  0.0113
    1DPPC   C3A 2311   5.606  16.133   5.610 -0.1851  0.0905  0.4760
    1DPPC   C4A 2312   5.410  16.113   5.295  0.0783  0.1343 -0.2988
    1DPPC   C1B 2313   5.667  15.678   6.383 -0.0492  0.0205 -0.2380
    1DPPC   C2B 2314   5.571  15.461   5.969 -0.1332 -0.1637  0.2597
    1DPPC   C3B 2315   5.700  15.616   5.642 -0.0966 -0.2548  0.0571
    1DPPC   C4B 2316   5.668  15.692   5.292  0.1367 -0.0353  0.0030
    1DPPC   NC3 2317  10.096  25.851   7.089  0.1989 -0.1090  0.0853
    1DPPC   PO4 2318   9.872  26.002   6.766  0.1980 -0.1609  0.0448
    1DPPC   GL1 2319   9.760  25.813   6.395  0.1161  0.1796 -0.4138
    1DPPC   GL2 2320   9.494  25.545   6.276  0.1873 -0.3507 -0.0746
    1DPPC   C1A 2321   9.769  26.012   5.913  0.1406  0.0847 -0.1828
    1DPPC   C2A 2322   9.996  26.311   5.612 -0.1306  0.0290  0.0527
    1DPPC   C3A 2323  10.001  26.571   5.204  0.1681  0.2674  0.0848
    1DPPC   C4A 2324  10.061  26.675   4.772  0.1262 -0.3266  0.0892
    1DPPC   C1B 2325   9.501  25.601   5.843 -0.1199  0.2406  0.0444
    1DPPC   C2B 2326   9.481  25.622   5.422  0.0242  0.0097  0.1251
    1DPPC   C3B 2327   9.418  25.870   5.005 -0.2188 -0.2024  0.1817
    1DPPC   C4B 2328   9.328  26.238   4.786 -0.1291  0.1957 -0.3101
    1DPPC   NC3 2329   7.351   0.211   6.741  0.0201 -0.2357  0.1011
    1DPPC   PO4 2330   7.041  28.057   6.605  0.3472 -0.1697  0.3334
    1DPPC   GL1 2331   6.765   0.077   6.251 -0.2945 -0.1076  0.1837
    1DPPC   GL2 2332   6.535  28.122   6.228  0.0883  0.2770  0.0800
    1DPPC   C1A 2333   6.669   0.013   5.776 -0.1148 -0.1818  0.1729
    1DPPC   C2A 2334   6.815   0.104   5.256 -0.0987 -0.3180  0.1971
    1DPPC   C3A 2335   6.740   0.228   4.862 -0.0509 -0.1126  0.3321
    1DPPC   C4A 2336   6.934   0.628   4.833 -0.2778  0.0456 -0.1887
    1DPPC   C1B 2337   6.828  27.731   6.074  0.0133  0.0729  0.0811
    1DPPC   C2B 2338   6.892  27.401   5.870 -0.5447 -0.0284  0.0219
    1DPPC   C3B 2339   6.892  27.298   5.441  0.1997  0.1385 -0.1040
    1DPPC   C4B 2340   7.044  27.323   5.012 -0.1065 -0.3589 -0.1133
    1DPPC   NC3 2341   2.287   3.796   5.969  0.0314 -0.0389  0.0970
    1DPPC   PO4 2342   2.286   4.228   6.026 -0.3967  0.0726  0.1075
    1DPPC   GL1 2343   2.390   4.055   5.551 -0.0429 -0.0795  0.1361
    1DPPC   GL2 2344   2.685   4.009   5.343 -0.1265 -0.1334  0.0265
    1DPPC   C1A 2345   2.309   3.795   5.117  0.0136 -0.1136  0.1839
    1DPPC   C2A 2346   2.473   3.883   4.677  0.0000 -0.1874 -0.1063
    1DPPC   C3A 2347   2.787   3.755   4.510 -0.0781 -0.1005 -0.1064
    1DPPC   C4A 2348   3.101   3.980   4.350  0.1219  0.0956  0.1386
    1DPPC   C1B 2349   2.344   4.313   5.060 -0.1133 -0.2054  0.1036
    1DPPC   C2B 2350   2.224   4.328   4.666  0.0038 -0.1177 -0.0914
    1DPPC   C3B 2351   2.115   4.395   4.230  0.0762  0.0143  0.0523
    1DPPC   C4B 2352   1.859   4.357   3.840  0.3761  0.1169  0.2554
    1DPPC   NC3 2353  20.340  25.231   7.385 -0.1104 -0.1176 -0.0776
    1DPPC   PO4 2354  20.069  25.491   7.072 -0.0452  0.1161  0.0381
    1DPPC   GL1 2355  19.722  25.585   6.773 -0.0843  0.0576 -0.1182
    1DPPC   GL2 2356  19.731  25.275   6.678 -0.0174  0.0562 -0.0461
    1DPPC   C1A 2357  19.450  25.765   6.507  0.0130  0.1843  0.2534
    1DPPC   C2A 2358  19.012  25.693   6.498  0.0396  0.1484  0.0123
    1DPPC   C3A 2359  18.748  25.738   6.196 -0.1126  0.0938 -0.0582
    1DPPC   C4A 2360  18.624  25.911   5.852 -0.0616 -0.0878  0.0940
    1DPPC   C1B 2361  19.763  25.391   6.313 -0.3617  0.1899 -0.2027
    1DPPC   C2B 2362  19.803  25.401   5.895 -0.2112  0.2230 -0.0727
    1DPPC   C3B 2363  20.040  25.481   5.446  0.1058  0.4022 -0.2011
    1DPPC   C4B 2364  20.321  25.495   5.085 -0.1634  0.3211 -0.0442
    1DPPC   NC3 2365   3.177   2.961   6.181 -0.0068 -0.0257 -0.3230
    1DPPC   PO4 2366   3.529   2.798   6.174  0.0175 -0.1229  0.1041
    1DPPC   GL1 2367   3.491   3.041   5.791  0.1722 -0.1307 -0.0366
    1DPPC   GL2 2368   3.300   2.736   5.714 -0.2571  0.1894 -0.0819
    1DPPC   C1A 2369   3.512   2.992   5.345  0.0866 -0.3025 -0.2215
    1DPPC   C2A 2370   3.728   2.890   4.854  0.0543  0.2057  0.0007
    1DPPC   C3A 2371   4.071   2.544   4.813 -0.0325 -0.1136 -0.0511
    1DPPC   C4A 2372   4.447   2.513   4.564  0.1223  0.0714  0.0866
    1DPPC   C1B 2373   3.546   2.518   5.498 -0.0303  0.1294 -0.3168
    1DPPC   C2B 2374   3.932   2.251   5.547 -0.2678  0.4619  0.0976
    1DPPC   C3B 2375   4.082   1.872   5.747 -0.3346  0.0045 -0.0289
    1DPPC   C4B 2376   4.155   1.665   5.439 -0.0762 -0.0333  0.0255
    1DPPC   NC3 2377   8.924  14.514   7.244 -0.1850  0.1915  0.3525
    1DPPC   PO4 2378   8.437  14.518   7.161  0.2308  0.3134  0.0254
    1DPPC   GL1 2379   8.632  14.341   6.864 -0.0012  0.3596  0.0863
    1DPPC   GL2 2380   9.017  14.314   6.819  0.0021 -0.0753  0.0331
    1DPPC   C1A 2381   8.669  14.481   6.360  0.2096  0.0684  0.0134
    1DPPC   C2A 2382   8.478  14.516   6.006  0.0152 -0.3434 -0.0463
    1DPPC   C3A 2383   8.280  14.539   5.548 -0.0981  0.1590 -0.1365
    1DPPC   C4A 2384   8.430  14.775   5.114 -0.1532  0.0154  0.1804
    1DPPC   C1B 2385   9.320  14.174   6.546 -0.4270 -0.1202 -0.3746
    1DPPC   C2B 2386   9.421  14.226   6.134  0.1672  0.2430  0.0349
    1DPPC   C3B 2387   9.544  14.620   5.935  0.1189  0.0006  0.0162
    1DPPC   C4B 2388   9.885  14.829   5.682  0.0113  0.0202  0.3393
    1DPPC   NC3 2389  25.429  20.004   6.922 -0.2628  0.0813  0.1922
    1DPPC   PO4 2390  25.480  20.353   6.560  0.1196  0.0787  0.0314
    1DPPC   GL1 2391  25.264  20.148   6.229  0.0003 -0.0341 -0.2947
    1DPPC   GL2 2392  25.400  20.296   5.949 -0.3127 -0.0708  0.1974
    1DPPC   C1A 2393  25.161  19.873   5.945  0.2669  0.0121  0.1813
    1DPPC   C2A 2394  25.035  19.814   5.538  0.0176  0.2021  0.0218
    1DPPC   C3A 2395  25.223  19.633   5.124  0.0948  0.4885  0.2705
    1DPPC   C4A 2396  25.396  19.795   4.896 -0.2073 -0.0761 -0.1200
    1DPPC   C1B 2397  25.545  20.146   5.690  0.0262  0.1256  0.0420
    1DPPC   C2B 2398  25.662  20.311   5.368  0.0423  0.1529  0.0517
    1DPPC   C3B 2399  25.876  20.689   5.111  0.2638 -0.2565 -0.2273
    1DPPC   C4B 2400  26.272  20.930   5.008  0.0593  0.0116  0.0995
    1DPPC   NC3 2401  24.236   7.823   7.300  0.2483 -0.0682 -0.0720
    1DPPC   PO4 2402  23.965   7.631   7.001  0.1293 -0.2058 -0.1030
    1DPPC   GL1 2403  23.827   7.670   6.564  0.2808 -0.2214 -0.0961
    1DPPC   GL2 2404  24.041   7.829   6.355  0.1462  0.0598 -0.1511
    1DPPC   C1A 2405  23.659   7.557   6.036 -0.0517 -0.0331  0.3100
    1DPPC   C2A 2406  23.794   7.684   5.612  0.1114  0.1211  0.0830
    1DPPC   C3A 2407  23.916   7.828   5.189  0.0056  0.0257 -0.0445
    1DPPC   C4A 2408  23.660   7.729   4.880 -0.0353  0.0601 -0.0233
    1DPPC   C1B 2409  24.172   8.028   5.958 -0.2485 -0.0207 -0.0496
    1DPPC   C2B 2410  24.364   8.031   5.496 -0.0167  0.1711  0.0931
    1DPPC   C3B 2411  24.621   8.140   5.162 -0.0402  0.1302  0.1643
    1DPPC   C4B 2412  24.824   8.474   4.957  0.2730 -0.0344  0.2315
    1DPPC   NC3 2413   3.508  23.700   6.453  0.0434  0.0837  0.1550
    1DPPC   PO4 2414   3.512  23.303   6.703 -0.0131 -0.0502  0.1169
    1DPPC   GL1 2415   3.679  23.140   6.265  0.1381  0.2228 -0.2095
    1DPPC   GL2 2416   3.731  23.441   6.072  0.2695  0.0783  0.1019
    1DPPC   C1A 2417   3.819  22.702   6.128  0.3592  0.0995  0.1629
    1DPPC   C2A 2418   3.933  22.502   5.660  0.0924  0.0071  0.2245
    1DPPC   C3A 2419   4.067  22.194   5.339 -0.3029  0.2614  0.1843
    1DPPC   C4A 2420   4.182  21.769   5.233 -0.0981 -0.0667 -0.2134
    1DPPC   C1B 2421   3.787  23.101   5.768  0.2517  0.1491  0.1476
    1DPPC   C2B 2422   3.882  22.930   5.414  0.0464  0.0581 -0.0185
    1DPPC   C3B 2423   3.750  22.662   5.232 -0.0234 -0.0131  0.3954
    1DPPC   C4B 2424   3.590  22.261   5.274  0.0675 -0.1157 -0.0450
    1DPPC   NC3 2425   9.563  25.517   6.758  0.1077  0.0317 -0.0898
    1DPPC   PO4 2426   9.372  25.913   6.895 -0.2109 -0.2415 -0.1971
    1DPPC   GL1 2427   9.179  26.109   6.589  0.0267 -0.0900 -0.1155
    1DPPC   GL2 2428   9.175  26.367   6.642  0.1457 -0.1175  0.1645
    1DPPC   C1A 2429   9.236  26.002   6.175  0.0572 -0.0686  0.2607
    1DPPC   C2A 2430   9.242  26.132   5.792 -0.1166 -0.1553  0.2886
    1DPPC   C3A 2431   9.057  26.085   5.304 -0.2948 -0.2550  0.0340
    1DPPC   C4A 2432   8.852  26.157   4.862  0.0550  0.0639  0.3322
    1DPPC   C1B 2433   9.128  26.509   6.257  0.2059 -0.0901  0.1386
    1DPPC   C2B 2434   9.081  26.670   5.901 -0.1597 -0.1002  0.1666
    1DPPC   C3B 2435   9.145  26.534   5.486 -0.1167 -0.0931 -0.0570
    1DPPC   C4B 2436   9.116  26.577   5.085 -0.0252 -0.1073  0.0585
    1DPPC   NC3 2437   0.114   1.707   6.645 -0.0903 -0.0495 -0.2970
    1DPPC   PO4 2438   0.329   1.307   6.570  0.0639 -0.1409 -0.0842
    1DPPC   GL1 2439   0.137   1.418   6.117 -0.2620 -0.1301 -0.2485
    1DPPC   GL2 2440  28.110   1.723   6.138  0.0918  0.1049  0.0876
    1DPPC   C1A 2441   0.039   1.183   5.764 -0.3454 -0.0883 -0.0877
    1DPPC   C2A 2442  28.066   1.182   5.406 -0.0698 -0.1124  0.3556
    1DPPC   C3A 2443  28.082   0.766   5.176  0.1576 -0.0541 -0.2912
    1DPPC   C4A 2444   0.037   0.716   4.808 -0.1351 -0.1512  0.1216
    1DPPC   C1B 2445  27.788   1.512   5.793  0.0026  0.0239  0.0817
    1DPPC   C2B 2446  27.614   1.458   5.386 -0.3279  0.2816 -0.1424
    1DPPC   C3B 2447  27.634   1.121   5.149  0.1422  0.4050  0.0010
    1DPPC   C4B 2448  27.702   0.827   4.822  0.2082 -0.1550 -0.1619
    1DPPC   NC3 2449  27.783   1.814   6.925  0.0388  0.4047  0.3006
    1DPPC   PO4 2450  27.816   1.952   6.491  0.1504  0.4227 -0.2947
    1DPPC   GL1 2451  27.733   2.122   6.014  0.0856 -0.2488 -0.1066
    1DPPC   GL2 2452  27.969   2.011   5.742  0.1802  0.0809 -0.0235
    1DPPC   C1A 2453  27.534   2.055   5.531  0.0439 -0.4471 -0.2209
    1DPPC   C2A 2454  27.608   1.852   5.168  0.2201 -0.1278 -0.2755
    1DPPC   C3A 2455  27.520   1.554   4.866  0.0046  0.0090 -0.0950
    1DPPC   C4A 2456  27.488   1.675   4.411  0.0434 -0.3007  0.2062
    1DPPC   C1B 2457  27.990   2.204   5.337  0.0609  0.1099 -0.2619
    1DPPC   C2B 2458  27.729   2.359   5.088 -0.3543  0.1666 -0.2485
    1DPPC   C3B 2459  27.443   2.137   4.766  0.1296 -0.0348  0.1534
    1DPPC   C4B 2460  27.504   2.213   4.327 -0.0562  0.0928 -0.0101
    1DPPC   NC3 2461   7.359   8.518   6.854 -0.2663  0.1185  0.0812
    1DPPC   PO4 2462   7.739   8.563   7.175  0.1213 -0.1954  0.1305
    1DPPC   GL1 2463   7.925   8.483   6.691  0.0240 -0.2032 -0.1352
    1DPPC   GL2 2464   8.083   8.830   6.677  0.0856  0.0572 -0.3293
    1DPPC   C1A 2465   8.180   8.299   6.373  0.0963 -0.0147  0.1576
    1DPPC   C2A 2466   8.589   8.183   6.180  0.0251 -0.1093 -0.2080
    1DPPC   C3A 2467   8.923   8.223   5.829 -0.1135 -0.2921  0.2708
    1DPPC   C4A 2468   9.306   8.427   5.702  0.0224 -0.3050 -0.3122
    1DPPC   C1B 2469   8.179   8.754   6.182 -0.0048 -0.0230 -0.2379
    1DPPC   C2B 2470   8.223   8.759   5.849 -0.0742  0.0252 -0.1499
    1DPPC   C3B 2471   8.151   9.035   5.433 -0.1496  0.1322  0.0295
    1DPPC   C4B 2472   7.698   9.152   5.425  0.2303  0.1294 -0.0250
    1DPPC   NC3 2473   6.023  19.986   7.594  0.0486  0.1206 -0.0365
    1DPPC   PO4 2474   6.238  19.576   7.578 -0.2254  0.0392  0.0499
    1DPPC   GL1 2475   6.034  19.331   7.213  0.1264 -0.0945  0.1457
    1DPPC   GL2 2476   5.723  19.073   7.011 -0.0562 -0.0590  0.1064
    1DPPC   C1A 2477   6.275  18.993   6.965 -0.1347 -0.2901  0.4230
    1DPPC   C2A 2478   6.467  19.188   6.566  0.0611  0.0018  0.2540
    1DPPC   C3A 2479   6.969  19.304   6.637  0.0561 -0.2915 -0.1991
    1DPPC   C4A 2480   7.344  19.536   6.753 -0.1546  0.1653 -0.2494
    1DPPC   C1B 2481   5.950  19.085   6.580 -0.0295  0.1258 -0.0985
    1DPPC   C2B 2482   5.994  19.383   6.234  0.2246  0.0691  0.0570
    1DPPC   C3B 2483   6.410  19.566   6.208  0.1425 -0.4044  0.1165
    1DPPC   C4B 2484   6.528  20.002   6.272 -0.1475 -0.1936 -0.1193
    1DPPC   NC3 2485   1.611   7.064   6.137  0.0562  0.1550 -0.0434
    1DPPC   PO4 2486   1.284   7.445   6.277 -0.1982 -0.1547  0.2248
    1DPPC   GL1 2487   1.347   7.391   5.826 -0.0794  0.1546 -0.1000
    1DPPC   GL2 2488   1.272   7.207   5.784 -0.0097 -0.0187 -0.0215
    1DPPC   C1A 2489   1.580   7.406   5.444 -0.0559  0.0317  0.0265
    1DPPC   C2A 2490   1.503   7.515   4.991  0.0873 -0.3616 -0.0316
    1DPPC   C3A 2491   1.605   7.390   4.612  0.0126 -0.0613  0.2363
    1DPPC   C4A 2492   1.694   6.974   4.371  0.2969  0.0255  0.2813
    1DPPC   C1B 2493   1.086   7.330   5.414 -0.1225  0.0469 -0.1185
    1DPPC   C2B 2494   1.067   7.278   5.081 -0.0571 -0.0077 -0.1733
    1DPPC   C3B 2495   0.972   7.176   4.628 -0.1910 -0.1114 -0.2072
    1DPPC   C4B 2496   0.799   7.245   4.217  0.3037  0.2142  0.0223
    1DPPC   NC3 2497  15.079   6.999   7.958 -0.1949  0.1909 -0.2938
    1DPPC   PO4 2498  14.861   7.210   7.644 -0.0984 -0.3759 -0.1393
    1DPPC   GL1 2499  15.042   7.231   7.174  0.2390  0.0485  0.1835
    1DPPC   GL2 2500  15.246   7.408   7.050 -0.0877 -0.2246  0.0875
    1DPPC   C1A 2501  14.832   7.111   6.775 -0.0107 -0.0788  0.3168
    1DPPC   C2A 2502  14.526   6.913   6.393 -0.0848 -0.0094 -0.2865
    1DPPC   C3A 2503  14.513   7.007   5.985 -0.0440  0.0013  0.0219
    1DPPC   C4A 2504  14.595   7.299   5.785  0.2068  0.2456  0.1713
    1DPPC   C1B 2505  15.161   7.505   6.599 -0.0781  0.1305 -0.2473
    1DPPC   C2B 2506  15.285   7.602   6.210  0.2564 -0.0819 -0.0038
    1DPPC   C3B 2507  15.542   7.973   5.983  0.1863 -0.0516  0.1212
    1DPPC   C4B 2508  15.790   8.185   5.696  0.0670  0.0446 -0.2485
    1DPPC   NC3 2509   3.096   8.066   6.290  0.3109 -0.1679  0.0308
    1DPPC   PO4 2510   3.105   7.643   6.356 -0.0763 -0.2160 -0.0452
    1DPPC   GL1 2511   2.990   7.342   6.077  0.2801 -0.1824 -0.1447
    1DPPC   GL2 2512   2.665   7.343   6.120  0.0078  0.2729  0.2500
    1DPPC   C1A 2513   3.022   7.264   5.670  0.0422 -0.1589 -0.1721
    1DPPC   C2A 2514   2.958   7.547   5.328 -0.2258 -0.0228 -0.1869
    1DPPC   C3A 2515   2.903   7.525   4.893 -0.0577  0.1025 -0.0077
    1DPPC   C4A 2516   2.760   7.664   4.533  0.0747 -0.2374  0.4465
    1DPPC   C1B 2517   2.605   7.551   5.709  0.1896 -0.1624 -0.1485
    1DPPC   C2B 2518   2.496   7.704   5.267 -0.2847 -0.0908 -0.2657
    1DPPC   C3B 2519   2.467   7.978   4.981  0.0235 -0.1001 -0.1490
    1DPPC   C4B 2520   2.489   8.268   4.622 -0.2875 -0.0142 -0.1072
    1DPPC   NC3 2521   9.421   9.766   7.365  0.2451 -0.0442 -0.3151
    1DPPC   PO4 2522   9.000   9.602   7.146 -0.0615  0.2369 -0.2387
    1DPPC   GL1 2523   9.488   9.497   6.887 -0.2441 -0.1156 -0.2107
    1DPPC   GL2 2524   9.564   9.151   6.949 -0.0460 -0.0339  0.0475
    1DPPC   C1A 2525   9.704   9.468   6.600 -0.0924  0.1128 -0.1045
    1DPPC   C2A 2526   9.830   9.694   6.274 -0.1639 -0.0248  0.0505
    1DPPC   C3A 2527  10.229   9.948   6.168  0.1088  0.0524 -0.0365
    1DPPC   C4A 2528  10.585  10.240   6.178 -0.2040 -0.1484 -0.3064
    1DPPC   C1B 2529   9.713   8.888   6.593 -0.0454  0.1820  0.0953
    1DPPC   C2B 2530   9.357   8.736   6.310 -0.2359 -0.0298  0.0729
    1DPPC   C3B 2531   9.100   8.696   6.013 -0.0636 -0.2203  0.1720
    1DPPC   C4B 2532   8.757   8.702   5.737 -0.0071  0.0957 -0.2194
    1DPPC   NC3 2533   8.440   0.755   6.610  0.0413 -0.0790  0.1199
    1DPPC   PO4 2534   8.758   1.111   6.716 -0.0731 -0.2664  0.0072
    1DPPC   GL1 2535   8.624   1.264   6.350 -0.0286 -0.2249 -0.1806
    1DPPC   GL2 2536   8.706   0.864   6.183 -0.1240  0.2089 -0.0898
    1DPPC   C1A 2537   8.385   1.216   6.034  0.0059 -0.1933 -0.0315
    1DPPC   C2A 2538   8.333   1.285   5.649  0.0703  0.0289  0.0017
    1DPPC   C3A 2539   8.517   1.396   5.286  0.0945 -0.0169 -0.0124
    1DPPC   C4A 2540   8.584   1.433   4.945  0.0400  0.1334 -0.0117
    1DPPC   C1B 2541   8.646   0.890   5.762  0.2384 -0.0122  0.0765
    1DPPC   C2B 2542   8.472   0.735   5.325  0.2754  0.0810 -0.1650
    1DPPC   C3B 2543   8.461   0.947   4.985  0.3681  0.0011 -0.2808
    1DPPC   C4B 2544   8.535   1.010   4.492  0.0024  0.2874  0.0087
    1DPPC   NC3 2545  17.691   0.157   7.522 -0.2068  0.1623  0.1806
    1DPPC   PO4 2546  18.039   0.246   7.211 -0.1739 -0.1120 -0.1743
    1DPPC   GL1 2547  18.141   0.286   6.821 -0.2722  0.0503 -0.2118
    1DPPC   GL2 2548  18.470   0.384   6.724 -0.1628  0.0726  0.0142
    1DPPC   C1A 2549  18.077   0.128   6.389 -0.2631 -0.0182 -0.0595
    1DPPC   C2A 2550  18.192   0.076   5.969 -0.3777  0.0960  0.1575
    1DPPC   C3A 2551  18.299  27.719   5.790  0.3552  0.0523  0.1764
    1DPPC   C4A 2552  18.649  27.738   5.527  0.0231  0.4589  0.0020
    1DPPC   C1B 2553  18.284   0.597   6.363  0.1725  0.0115  0.1760
    1DPPC   C2B 2554  18.195   0.595   5.877 -0.0818  0.1342 -0.0336
    1DPPC   C3B 2555  18.430   0.377   5.527  0.1780 -0.1112  0.1340
    1DPPC   C4B 2556  18.207  28.076   5.430 -0.0100  0.1912 -0.1078
    1DPPC   NC3 2557   5.394  23.296   6.796 -0.4233 -0.0257  0.4683
    1DPPC   PO4 2558   5.315  23.756   6.589  0.2096  0.0035  0.3182
    1DPPC   GL1 2559   5.551  23.928   6.326  0.3918 -0.0647  0.1739
    1DPPC   GL2 2560   5.709  24.154   6.591 -0.2622  0.3807 -0.2396
    1DPPC   C1A 2561   5.439  23.985   5.877 -0.0102  0.0217  0.0814
    1DPPC   C2A 2562   5.466  24.106   5.489 -0.0227 -0.1347 -0.1035
    1DPPC   C3A 2563   5.387  24.176   5.170  0.0085  0.2386  0.1162
    1DPPC   C4A 2564   5.503  24.419   4.798 -0.0671 -0.0069  0.0444
    1DPPC   C1B 2565   5.681  24.320   6.181 -0.0567 -0.3224  0.2563
    1DPPC   C2B 2566   5.758  24.466   5.694  0.0242 -0.1500  0.0952
    1DPPC   C3B 2567   5.626  24.547   5.298  0.0146 -0.0809  0.0731
    1DPPC   C4B 2568   5.475  24.873   4.966  0.4987 -0.2295 -0.0927
    1DPPC   NC3 2569   7.728  10.051   7.375  0.0906 -0.1486 -0.2706
    1DPPC   PO4 2570   7.639  10.231   7.061 -0.1078 -0.1329  0.0907
    1DPPC   GL1 2571   7.847  10.247   6.723 -0.1580 -0.1282  0.0734
    1DPPC   GL2 2572   7.628  10.398   6.460 -0.0364 -0.0130 -0.2183
    1DPPC   C1A 2573   8.003  10.084   6.338 -0.0313  0.1904 -0.3651
    1DPPC   C2A 2574   7.924  10.017   5.853 -0.0480  0.0146  0.0821
    1DPPC   C3A 2575   7.866  10.188   5.427 -0.0274  0.0065 -0.2011
    1DPPC   C4A 2576   7.578  10.314   5.124  0.1574  0.0128 -0.3908
    1DPPC   C1B 2577   7.988  10.521   6.091  0.0978 -0.1197  0.2541
    1DPPC   C2B 2578   8.107  10.515   5.711  0.0475 -0.0329 -0.0628
    1DPPC   C3B 2579   8.375  10.771   5.475 -0.2017 -0.0887 -0.0118
    1DPPC   C4B 2580   8.666  11.000   5.560  0.0792 -0.3756 -0.1766
    1DPPC   NC3 2581   1.032   5.942   6.489  0.3141  0.0982 -0.2970
    1DPPC   PO4 2582   0.672   6.099   6.378  0.0528 -0.0178 -0.1858
    1DPPC   GL1 2583   0.738   5.991   5.950 -0.0949 -0.1882  0.0163
    1DPPC   GL2 2584   0.420   5.785   5.908  0.2410  0.1988 -0.1685
    1DPPC   C1A 2585   0.831   6.061   5.575 -0.4870 -0.0893 -0.0446
    1DPPC   C2A 2586   0.544   6.182   5.165  0.2182 -0.2634  0.4238
    1DPPC   C3A 2587   0.578   6.256   4.704  0.4854  0.0558 -0.0090
    1DPPC   C4A 2588   0.664   6.300   4.275 -0.2996  0.0036 -0.1507
    1DPPC   C1B 2589   0.352   5.905   5.497  0.0762 -0.0685 -0.0339
    1DPPC   C2B 2590   0.176   5.876   4.991 -0.2942 -0.0222  0.0444
    1DPPC   C3B 2591   0.038   5.906   4.432  0.1312  0.2370 -0.2376
    1DPPC   C4B 2592   0.143   6.161   3.968  0.0291  0.2496 -0.0373
    1DPPC   NC3 2593   2.403   7.041   6.520  0.1004 -0.3310  0.0101
    1DPPC   PO4 2594   2.067   7.171   6.320  0.1940 -0.0347  0.1055
    1DPPC   GL1 2595   2.036   7.119   5.880  0.0123  0.2869 -0.0959
    1DPPC   GL2 2596   2.327   7.062   5.920  0.2301  0.0029  0.0239
    1DPPC   C1A 2597   1.977   7.021   5.447  0.2389  0.0117  0.1536
    1DPPC   C2A 2598   1.948   7.141   4.863  0.2417 -0.2121  0.1364
    1DPPC   C3A 2599   2.060   7.334   4.427  0.2200  0.0348 -0.0599
    1DPPC   C4A 2600   2.400   7.516   4.193 -0.3681  0.0154 -0.0305
    1DPPC   C1B 2601   2.509   7.028   5.484  0.0183 -0.0303 -0.0142
    1DPPC   C2B 2602   2.433   7.139   5.065  0.0108 -0.0265 -0.0221
    1DPPC   C3B 2603   2.381   7.514   4.725  0.1835 -0.1563 -0.0073
    1DPPC   C4B 2604   2.244   7.863   4.492  0.0663 -0.2180  0.1780
    1DPPC   NC3 2605  17.439  27.302   7.418 -0.1172 -0.1164  0.0683
    1DPPC   PO4 2606  17.539  26.998   7.147 -0.1925  0.0375  0.2256
    1DPPC   GL1 2607  17.953  26.797   6.851 -0.0480  0.2663  0.1215
    1DPPC   GL2 2608  17.717  26.606   6.631 -0.1026 -0.3383 -0.1847
    1DPPC   C1A 2609  18.105  26.827   6.469  0.3882 -0.0970  0.0822
    1DPPC   C2A 2610  18.317  26.866   6.091  0.1875  0.1508  0.0308
    1DPPC   C3A 2611  18.078  26.902   5.747  0.0813  0.0347 -0.0656
    1DPPC   C4A 2612  17.781  26.885   5.396  0.2150  0.2322  0.1242
    1DPPC   C1B 2613  17.449  26.613   6.298 -0.0841 -0.0901  0.0561
    1DPPC   C2B 2614  17.084  26.639   5.975  0.1016 -0.3936  0.2571
    1DPPC   C3B 2615  16.818  26.672   5.619 -0.2514 -0.0042  0.2318
    1DPPC   C4B 2616  16.622  26.917   5.388  0.0631 -0.1630  0.1669
    1DPPC   NC3 2617   8.113   0.337   7.116  0.0098 -0.2317  0.0367
    1DPPC   PO4 2618   8.461   0.263   6.919 -0.0153 -0.2136  0.0618
    1DPPC   GL1 2619   8.376   0.066   6.467  0.0478  0.1733 -0.1433
    1DPPC   GL2 2620   8.536  28.025   6.242  0.0132 -0.0740 -0.3999
    1DPPC   C1A 2621   8.100   0.098   6.115 -0.1617  0.0451  0.2276
    1DPPC   C2A 2622   8.073   0.135   5.627  0.0235  0.2016  0.2589
    1DPPC   C3A 2623   8.462   0.236   5.433 -0.1401 -0.1467  0.0226
    1DPPC   C4A 2624   8.640   0.209   5.041 -0.1558  0.2431  0.1166
    1DPPC   C1B 2625   8.522  27.935   5.765 -0.0882 -0.2009 -0.3103
    1DPPC   C2B 2626   8.156  27.750   5.559  0.2440 -0.0190 -0.0569
    1DPPC   C3B 2627   7.953  27.651   5.188  0.1096  0.0463 -0.2341
    1DPPC   C4B 2628   7.927  27.845   4.779  0.2471 -0.1930  0.0001
    1DPPC   NC3 2629  20.344  22.620   7.740  0.1674 -0.1635  0.0179
    1DPPC   PO4 2630  20.418  23.053   7.425 -0.0342  0.1292 -0.0239
    1DPPC   GL1 2631  20.310  23.256   7.012  0.2361 -0.1913 -0.0780
    1DPPC   GL2 2632  19.974  23.361   6.904  0.2438  0.3560 -0.3406
    1DPPC   C1A 2633  20.459  23.262   6.476 -0.0213  0.1134 -0.0029
    1DPPC   C2A 2634  20.320  23.186   6.008  0.0100 -0.1643 -0.0908
    1DPPC   C3A 2635  20.345  23.080   5.577 -0.2918 -0.0764  0.0197
    1DPPC   C4A 2636  20.559  23.067   5.252  0.2930  0.1781  0.1483
    1DPPC   C1B 2637  19.981  23.443   6.576  0.1036 -0.0602 -0.0960
    1DPPC   C2B 2638  19.905  23.524   6.063  0.0832 -0.2435  0.1268
    1DPPC   C3B 2639  19.897  23.545   5.600  0.1175 -0.2550  0.0738
    1DPPC   C4B 2640  19.584  23.692   5.228  0.2149 -0.1878  0.2300
    1DPPC   NC3 2641  15.444  22.030   6.922 -0.1570 -0.0597  0.0548
    1DPPC   PO4 2642  15.919  21.981   6.896 -0.1260 -0.1237 -0.1520
    1DPPC   GL1 2643  15.593  21.948   6.467 -0.3276  0.1492 -0.3916
    1DPPC   GL2 2644  15.334  22.139   6.443 -0.2462  0.2360 -0.0348
    1DPPC   C1A 2645  15.696  22.091   6.068 -0.0545 -0.1069  0.0654
    1DPPC   C2A 2646  15.748  22.237   5.573 -0.0065 -0.0832 -0.3993
    1DPPC   C3A 2647  15.953  22.197   5.182  0.2321 -0.0536 -0.1508
    1DPPC   C4A 2648  15.765  22.486   4.878 -0.1717  0.2001 -0.0434
    1DPPC   C1B 2649  15.038  22.004   6.211  0.1621  0.0874  0.3767
    1DPPC   C2B 2650  14.763  22.061   5.920 -0.0421 -0.2576 -0.0054
    1DPPC   C3B 2651  14.813  22.190   5.591 -0.2207  0.4687  0.1396
    1DPPC   C4B 2652  14.985  22.246   5.135 -0.2926 -0.2511 -0.0079
    1DPPC   NC3 2653  26.880   3.744   6.542 -0.2321 -0.4149  0.0934
    1DPPC   PO4 2654  26.472   3.615   6.518 -0.3018  0.0630  0.0621
    1DPPC   GL1 2655  26.646   3.675   6.075  0.0328  0.3574  0.0494
    1DPPC   GL2 2656  26.813   3.845   6.023 -0.0671  0.1090  0.3104
    1DPPC   C1A 2657  26.632   3.393   5.658  0.0399  0.0180  0.1458
    1DPPC   C2A 2658  26.475   3.285   5.211 -0.0944 -0.0482  0.1813
    1DPPC   C3A 2659  26.540   3.087   4.817 -0.1091  0.1973  0.1375
    1DPPC   C4A 2660  26.166   2.839   4.740  0.0322  0.1012 -0.1335
    1DPPC   C1B 2661  27.000   3.792   5.660 -0.2301 -0.2025 -0.1748
    1DPPC   C2B 2662  26.858   3.689   5.268  0.0870  0.0552  0.1260
    1DPPC   C3B 2663  26.689   3.631   4.869  0.0841 -0.1675 -0.0559
    1DPPC   C4B 2664  26.482   3.943   4.559 -0.1100 -0.0537 -0.2339
    1DPPC   NC3 2665  13.453  19.605   7.181 -0.1971  0.0132 -0.1501
    1DPPC   PO4 2666  12.945  19.741   7.217  0.3077 -0.2724  0.1538
    1DPPC   GL1 2667  12.915  19.894   6.836 -0.0456 -0.1041 -0.4206
    1DPPC   GL2 2668  13.107  19.671   6.654  0.0306  0.0493 -0.0163
    1DPPC   C1A 2669  12.819  20.000   6.395  0.2810  0.0074  0.1899
    1DPPC   C2A 2670  12.858  20.089   5.942 -0.0376  0.1895  0.5932
    1DPPC   C3A 2671  12.895  19.983   5.470  0.1418 -0.1069  0.1985
    1DPPC   C4A 2672  13.257  19.860   5.261 -0.1930 -0.3380  0.2051
    1DPPC   C1B 2673  13.125  19.582   6.148 -0.2677  0.0338  0.1103
    1DPPC   C2B 2674  13.122  19.413   5.703  0.0739 -0.1201  0.1735
    1DPPC   C3B 2675  13.324  19.376   5.264 -0.2457  0.1621  0.3596
    1DPPC   C4B 2676  13.262  19.131   4.928 -0.3420  0.0199 -0.0053
    1DPPC   NC3 2677   7.985   5.233   6.792 -0.2214 -0.1065  0.0311
    1DPPC   PO4 2678   8.014   5.776   6.950  0.0628 -0.4112 -0.1536
    1DPPC   GL1 2679   7.875   5.951   6.551  0.3726 -0.0013 -0.1483
    1DPPC   GL2 2680   7.534   5.879   6.451 -0.3556 -0.0219  0.1390
    1DPPC   C1A 2681   7.761   6.206   6.115 -0.0781  0.0943  0.1005
    1DPPC   C2A 2682   7.804   6.275   5.636 -0.1606  0.0472 -0.3988
    1DPPC   C3A 2683   7.853   6.488   5.379  0.0095 -0.0838  0.2636
    1DPPC   C4A 2684   8.179   6.663   5.100  0.0004 -0.0839 -0.0958
    1DPPC   C1B 2685   7.296   6.106   6.249  0.1645 -0.2064  0.1139
    1DPPC   C2B 2686   7.337   6.360   5.813  0.1109 -0.1708 -0.0419
    1DPPC   C3B 2687   7.324   6.396   5.349 -0.3177 -0.0647 -0.1261
    1DPPC   C4B 2688   7.004   6.306   5.106 -0.0488  0.1026 -0.3089
    1DPPC   NC3 2689  27.146  18.642   6.706  0.0746  0.1070  0.2875
    1DPPC   PO4 2690  27.417  19.002   6.624 -0.3723  0.0440 -0.1244
    1DPPC   GL1 2691  27.373  19.088   6.202 -0.2164 -0.3348 -0.3102
    1DPPC   GL2 2692  27.129  18.898   6.129  0.1292  0.0797  0.2933
    1DPPC   C1A 2693  27.499  19.343   5.869  0.0006 -0.1896  0.0146
    1DPPC   C2A 2694  27.759  19.346   5.644  0.0260 -0.3240 -0.1435
    1DPPC   C3A 2695  27.735  19.165   5.228  0.1138 -0.0547  0.0184
    1DPPC   C4A 2696  27.746  19.300   4.817  0.1318  0.0808 -0.2308
    1DPPC   C1B 2697  27.369  18.819   5.703 -0.0482  0.0608  0.0568
    1DPPC   C2B 2698  27.303  18.949   5.362 -0.1993  0.0660  0.0327
    1DPPC   C3B 2699  27.264  19.176   4.971 -0.4962  0.0857 -0.2214
    1DPPC   C4B 2700  27.223  19.374   4.578 -0.0198 -0.2947 -0.2613
    1DPPC   NC3 2701   2.729  23.320   7.020  0.2207 -0.0838  0.2068
    1DPPC   PO4 2702   2.488  23.530   6.646 -0.3054  0.0124 -0.0453
    1DPPC   GL1 2703   2.623  23.596   6.281  0.0941 -0.0665 -0.0016
    1DPPC   GL2 2704   2.936  23.772   6.330  0.1960  0.1676 -0.1980
    1DPPC   C1A 2705   2.815  23.407   5.953 -0.1481 -0.1089 -0.0604
    1DPPC   C2A 2706   2.920  23.479   5.509 -0.3112  0.0089 -0.2915
    1DPPC   C3A 2707   2.892  23.351   5.040 -0.1007  0.1249 -0.1487
    1DPPC   C4A 2708   3.084  23.269   4.705 -0.3660  0.0979  0.0604
    1DPPC   C1B 2709   3.132  23.841   5.966  0.0424 -0.0256 -0.0820
    1DPPC   C2B 2710   3.314  23.937   5.517 -0.3743 -0.3155  0.1073
    1DPPC   C3B 2711   3.303  24.061   5.039 -0.1171 -0.1614 -0.1163
    1DPPC   C4B 2712   3.416  24.328   4.732  0.2792  0.0956  0.1285
    1DPPC   NC3 2713  19.280  24.013   7.048  0.1069  0.3137 -0.0785
    1DPPC   PO4 2714  19.742  23.803   7.078  0.3687 -0.0869 -0.0819
    1DPPC   GL1 2715  19.497  23.749   6.662 -0.0411 -0.0479  0.0660
    1DPPC   GL2 2716  19.815  23.869   6.463  0.0143 -0.2609  0.0311
    1DPPC   C1A 2717  19.399  23.552   6.357 -0.1099 -0.1289  0.1744
    1DPPC   C2A 2718  19.415  23.554   5.969  0.5103 -0.0590 -0.0352
    1DPPC   C3A 2719  19.241  23.478   5.512 -0.0483 -0.1024 -0.3014
    1DPPC   C4A 2720  18.721  23.635   5.403 -0.1074  0.0767  0.4614
    1DPPC   C1B 2721  19.957  24.032   6.057 -0.2763  0.1003 -0.2950
    1DPPC   C2B 2722  19.845  24.025   5.677  0.0513  0.0337 -0.1863
    1DPPC   C3B 2723  19.669  24.179   5.441 -0.0090 -0.0100  0.0290
    1DPPC   C4B 2724  19.385  24.522   5.288  0.0545  0.0321  0.2463
    1DPPC   NC3 2725   7.758   2.032   7.268  0.0903 -0.1624 -0.1205
    1DPPC   PO4 2726   8.155   2.194   7.071 -0.3501  0.2304 -0.4922
    1DPPC   GL1 2727   8.331   2.201   6.672 -0.1326  0.0498 -0.1500
    1DPPC   GL2 2728   8.651   2.118   6.685  0.0331 -0.1589  0.0249
    1DPPC   C1A 2729   8.356   2.248   6.259 -0.1160 -0.0550 -0.0630
    1DPPC   C2A 2730   8.356   2.275   5.791 -0.0615 -0.0360 -0.1711
    1DPPC   C3A 2731   8.460   2.583   5.538  0.1399  0.0567  0.1895
    1DPPC   C4A 2732   8.351   2.673   5.076  0.1369 -0.1212  0.0431
    1DPPC   C1B 2733   8.819   2.281   6.272  0.2933 -0.1322 -0.1345
    1DPPC   C2B 2734   8.954   2.328   5.967 -0.0983 -0.1854  0.0736
    1DPPC   C3B 2735   8.906   2.688   5.740 -0.0810 -0.1831 -0.0057
    1DPPC   C4B 2736   8.730   3.042   5.431 -0.0697  0.0585 -0.3799
    1DPPC   NC3 2737  11.778  20.753   7.088 -0.0689 -0.0029  0.0430
    1DPPC   PO4 2738  11.500  21.119   7.136 -0.1887 -0.0584 -0.1608
    1DPPC   GL1 2739  11.221  21.293   6.779 -0.0033  0.0374 -0.2189
    1DPPC   GL2 2740  11.084  21.556   6.874  0.2828  0.0642  0.1987
    1DPPC   C1A 2741  11.037  21.220   6.356  0.0685  0.2001 -0.1764
    1DPPC   C2A 2742  10.857  21.323   6.012 -0.1055  0.1731  0.1172
    1DPPC   C3A 2743  10.884  21.129   5.584 -0.0039 -0.0694 -0.0735
    1DPPC   C4A 2744  10.958  21.164   5.144 -0.0085  0.1296  0.1039
    1DPPC   C1B 2745  11.184  21.709   6.522 -0.4104 -0.1647 -0.2764
    1DPPC   C2B 2746  11.168  21.651   6.069  0.1082 -0.5227  0.0835
    1DPPC   C3B 2747  10.921  21.675   5.650 -0.2907 -0.3490 -0.2665
    1DPPC   C4B 2748  10.899  21.670   5.163 -0.0561 -0.1538  0.1305
    1DPPC   NC3 2749  16.266  19.159   7.337  0.1188 -0.1509  0.2278
    1DPPC   PO4 2750  16.303  19.496   7.126  0.4278 -0.0080 -0.0992
    1DPPC   GL1 2751  16.115  19.241   6.752  0.4243 -0.2592  0.3072
    1DPPC   GL2 2752  15.757  19.446   6.721  0.6512  0.2785  0.0526
    1DPPC   C1A 2753  16.108  19.105   6.208  0.0472 -0.1900 -0.0538
    1DPPC   C2A 2754  16.132  18.952   5.751  0.2236  0.0517 -0.1169
    1DPPC   C3A 2755  16.126  18.834   5.313  0.0171  0.4185 -0.0916
    1DPPC   C4A 2756  15.763  18.880   5.049 -0.1668 -0.0027  0.0891
    1DPPC   C1B 2757  16.030  19.545   6.407  0.0384 -0.1623  0.1205
    1DPPC   C2B 2758  16.096  19.562   5.996 -0.1401 -0.2186  0.1907
    1DPPC   C3B 2759  16.321  19.538   5.619  0.1656 -0.3155 -0.1495
    1DPPC   C4B 2760  16.236  19.773   5.307  0.1611 -0.1782  0.1963
    1DPPC   NC3 2761  17.082   3.559   7.479 -0.2005  0.0894 -0.0740
    1DPPC   PO4 2762  17.199   3.179   7.741  0.2215 -0.1932  0.1501
    1DPPC   GL1 2763  17.331   3.001   7.281 -0.1158 -0.2309 -0.0651
    1DPPC   GL2 2764  17.512   3.307   7.242 -0.1621  0.0005  0.0377
    1DPPC   C1A 2765  17.594   2.881   6.937  0.0709 -0.1216  0.0567
    1DPPC   C2A 2766  17.584   2.950   6.489 -0.0651 -0.0996  0.1014
    1DPPC   C3A 2767  17.477   3.004   6.151  0.0627 -0.2301 -0.0319
    1DPPC   C4A 2768  17.731   2.928   5.760 -0.1274  0.1070  0.1206
    1DPPC   C1B 2769  17.467   3.348   6.758  0.0354 -0.1545 -0.0336
    1DPPC   C2B 2770  17.182   3.336   6.375 -0.0891  0.0996  0.1118
    1DPPC   C3B 2771  16.953   3.171   6.082 -0.1953 -0.2678  0.0148
    1DPPC   C4B 2772  16.576   3.176   5.801  0.1202  0.0166  0.2088
    1DPPC   NC3 2773   7.297   2.313   6.791  0.0872 -0.0560 -0.1593
    1DPPC   PO4 2774   7.537   1.884   6.777 -0.1570  0.2538 -0.1808
    1DPPC   GL1 2775   7.299   1.783   6.371  0.2882 -0.2055 -0.0874
    1DPPC   GL2 2776   7.246   2.055   6.351  0.0462  0.0217  0.0359
    1DPPC   C1A 2777   7.096   1.854   5.944 -0.1208 -0.0563  0.2301
    1DPPC   C2A 2778   6.975   1.602   5.511 -0.1330  0.0012  0.1866
    1DPPC   C3A 2779   7.033   1.488   5.130 -0.0631  0.0325 -0.1498
    1DPPC   C4A 2780   7.272   1.490   4.785  0.0576 -0.0410  0.0488
    1DPPC   C1B 2781   7.438   2.183   5.958  0.1088  0.0982  0.2249
    1DPPC   C2B 2782   7.830   2.238   5.690 -0.0074  0.1165  0.0961
    1DPPC   C3B 2783   8.124   2.247   5.358  0.0752  0.1555  0.2242
    1DPPC   C4B 2784   8.538   2.232   5.137  0.0255  0.0234  0.3843
    1DPPC   NC3 2785  27.691  17.342   7.091 -0.1497 -0.1564 -0.1516
    1DPPC   PO4 2786  27.338  17.510   6.769  0.2993  0.0145  0.1908
    1DPPC   GL1 2787  27.289  17.777   6.499 -0.0442  0.0816  0.0711
    1DPPC   GL2 2788  27.514  17.814   6.341 -0.3231  0.2443 -0.3616
    1DPPC   C1A 2789  27.117  18.106   6.309 -0.1135 -0.0605  0.0158
    1DPPC   C2A 2790  27.250  18.351   5.955 -0.0728 -0.1811 -0.1079
    1DPPC   C3A 2791  27.402  18.294   5.493 -0.4093 -0.1909  0.0926
    1DPPC   C4A 2792  27.632  18.262   5.119  0.2178 -0.3304  0.0886
    1DPPC   C1B 2793  27.421  17.896   5.948 -0.1926  0.0803 -0.1066
    1DPPC   C2B 2794  27.077  17.931   5.742 -0.0596 -0.0039  0.2110
    1DPPC   C3B 2795  27.132  17.850   5.339 -0.1039  0.0201  0.1313
    1DPPC   C4B 2796  27.082  17.614   4.958  0.0975  0.4256  0.0764
    1DPPC   NC3 2797   8.913  22.212   7.451  0.1666 -0.1204 -0.0663
    1DPPC   PO4 2798   8.935  22.581   7.549 -0.1934  0.1781  0.2322
    1DPPC   GL1 2799   8.936  22.700   7.163  0.3254 -0.0156 -0.2703
    1DPPC   GL2 2800   8.674  22.681   7.017  0.1922  0.2437 -0.1371
    1DPPC   C1A 2801   9.241  22.876   6.794  0.2363 -0.0375  0.3614
    1DPPC   C2A 2802   9.056  22.812   6.370 -0.0106 -0.0162 -0.0767
    1DPPC   C3A 2803   9.005  22.736   5.936 -0.0732 -0.1335 -0.0645
    1DPPC   C4A 2804   8.963  22.683   5.460  0.2425 -0.0467 -0.0197
    1DPPC   C1B 2805   8.708  23.050   6.777 -0.0526 -0.2596  0.1519
    1DPPC   C2B 2806   8.595  23.351   6.392  0.1088 -0.2157 -0.0509
    1DPPC   C3B 2807   8.540  23.306   5.991  0.0925 -0.4663 -0.0769
    1DPPC   C4B 2808   8.280  23.122   5.758  0.1596  0.0032 -0.1950
    1DPPC   NC3 2809  10.910  17.700   7.753  0.0791 -0.0791  0.0932
    1DPPC   PO4 2810  11.323  17.612   7.644 -0.4877 -0.1717 -0.0416
    1DPPC   GL1 2811  11.070  17.489   7.303  0.0186 -0.0559 -0.1375
    1DPPC   GL2 2812  10.878  17.735   7.218 -0.0319 -0.1423  0.1336
    1DPPC   C1A 2813  11.269  17.479   6.837 -0.0715 -0.2953 -0.0734
    1DPPC   C2A 2814  11.262  17.416   6.401  0.3251 -0.0549  0.2015
    1DPPC   C3A 2815  11.183  17.147   6.077  0.3058  0.1874 -0.0785
    1DPPC   C4A 2816  11.472  16.956   5.870  0.0347  0.1100 -0.0946
    1DPPC   C1B 2817  10.931  17.862   6.809  0.4859  0.4320 -0.1033
    1DPPC   C2B 2818  10.907  17.770   6.366  0.1354 -0.0069 -0.2278
    1DPPC   C3B 2819  10.932  17.626   5.942  0.2572  0.1473 -0.3156
    1DPPC   C4B 2820  10.949  17.702   5.455  0.1810  0.2857 -0.2043
    1DPPC   NC3 2821   1.928  24.793   7.097  0.0967 -0.0861  0.0815
    1DPPC   PO4 2822   2.031  24.607   6.676  0.3215 -0.1750  0.3651
    1DPPC   GL1 2823   2.007  24.564   6.245 -0.1648  0.0470 -0.0503
    1DPPC   GL2 2824   2.278  24.383   6.147 -0.0281 -0.0452  0.0472
    1DPPC   C1A 2825   1.923  24.708   5.792 -0.0231  0.1528  0.0455
    1DPPC   C2A 2826   1.928  24.791   5.415  0.1406 -0.2747 -0.2474
    1DPPC   C3A 2827   1.920  24.884   5.048  0.2782 -0.0052 -0.0830
    1DPPC   C4A 2828   2.037  24.499   4.775  0.1011  0.0749  0.0292
    1DPPC   C1B 2829   2.369  24.407   5.726  0.4225  0.2180  0.0103
    1DPPC   C2B 2830   2.378  24.491   5.292  0.0493  0.2289 -0.0812
    1DPPC   C3B 2831   2.564  24.694   4.961  0.0355 -0.1056  0.0324
    1DPPC   C4B 2832   2.737  24.865   4.543  0.0315  0.5054  0.2932
    1DPPC   NC3 2833  16.900  22.175   6.802 -0.1060 -0.2163  0.1902
    1DPPC   PO4 2834  17.380  22.200   6.869  0.1356  0.1558  0.0924
    1DPPC   GL1 2835  17.226  22.105   6.485  0.0705  0.2120  0.0562
    1DPPC   GL2 2836  17.476  21.815   6.421  0.0730 -0.1063 -0.3446
    1DPPC   C1A 2837  17.218  22.186   5.995  0.1533  0.0648  0.0875
    1DPPC   C2A 2838  17.268  22.497   5.661 -0.2395  0.0652  0.1041
    1DPPC   C3A 2839  17.266  22.828   5.394 -0.0632  0.2128 -0.1555
    1DPPC   C4A 2840  17.565  23.014   5.211  0.0313  0.1330  0.3434
    1DPPC   C1B 2841  17.118  21.703   6.231 -0.0689 -0.1954 -0.0330
    1DPPC   C2B 2842  16.979  21.590   5.844 -0.1092 -0.3084 -0.3170
    1DPPC   C3B 2843  16.974  21.644   5.323 -0.0851  0.2424 -0.0110
    1DPPC   C4B 2844  16.867  21.972   4.971 -0.0930 -0.0966  0.2752
    1DPPC   NC3 2845  12.407  20.908   7.093 -0.1127  0.0431 -0.0154
    1DPPC   PO4 2846  12.135  21.134   7.001  0.1791 -0.0355 -0.4712
    1DPPC   GL1 2847  11.790  21.330   6.782  0.5566  0.0947 -0.1658
    1DPPC   GL2 2848  11.733  21.108   6.579 -0.0605 -0.1209  0.0911
    1DPPC   C1A 2849  11.663  21.568   6.472 -0.2137  0.0401  0.1861
    1DPPC   C2A 2850  11.696  21.622   6.017 -0.1906  0.0879  0.0905
    1DPPC   C3A 2851  11.481  21.757   5.646 -0.1872 -0.0113  0.0760
    1DPPC   C4A 2852  11.237  22.038   5.302  0.5171  0.0714 -0.0254
    1DPPC   C1B 2853  11.526  21.176   6.187  0.0063 -0.1125  0.0246
    1DPPC   C2B 2854  11.375  21.324   5.778 -0.0790  0.0793  0.1383
    1DPPC   C3B 2855  11.349  21.445   5.305 -0.2840 -0.0409  0.2660
    1DPPC   C4B 2856  11.483  21.212   4.984  0.0958  0.3936 -0.2078
    1DPPC   NC3 2857   5.213  22.583   6.821 -0.0407  0.2210 -0.1138
    1DPPC   PO4 2858   5.015  22.922   6.812 -0.4979  0.2391  0.1511
    1DPPC   GL1 2859   5.210  22.871   6.442 -0.0345 -0.0866 -0.0243
    1DPPC   GL2 2860   5.533  22.860   6.536 -0.0298  0.1904  0.1348
    1DPPC   C1A 2861   5.377  22.972   5.998 -0.1594  0.1088  0.2404
    1DPPC   C2A 2862   5.407  23.079   5.635  0.2927 -0.0724  0.0174
    1DPPC   C3A 2863   5.347  23.238   5.191  0.2638  0.3005  0.1701
    1DPPC   C4A 2864   4.957  23.415   5.041  0.0610  0.0733  0.0279
    1DPPC   C1B 2865   5.808  22.886   6.212 -0.0717 -0.1215  0.3813
    1DPPC   C2B 2866   5.835  22.859   5.702 -0.0354 -0.1632 -0.0180
    1DPPC   C3B 2867   5.922  22.981   5.306  0.0811 -0.0824 -0.1519
    1DPPC   C4B 2868   5.876  23.214   4.981  0.0365 -0.2650  0.0337
    1DPPC   NC3 2869  11.772  22.646   7.551 -0.1141 -0.2298  0.1399
    1DPPC   PO4 2870  11.866  22.329   7.175  0.0923  0.0601  0.1819
    1DPPC   GL1 2871  11.541  22.369   6.771 -0.0434 -0.2078  0.1308
    1DPPC   GL2 2872  11.446  22.124   6.659  0.0466 -0.1019  0.2005
    1DPPC   C1A 2873  11.686  22.506   6.346 -0.3992 -0.1181  0.2151
    1DPPC   C2A 2874  11.924  22.574   5.968  0.0001 -0.0821  0.0326
    1DPPC   C3A 2875  11.793  22.721   5.603 -0.0097 -0.1519  0.0801
    1DPPC   C4A 2876  11.846  22.740   5.103 -0.1814 -0.2707 -0.0028
    1DPPC   C1B 2877  11.395  22.094   6.175 -0.0183  0.1361 -0.0257
    1DPPC   C2B 2878  11.078  22.103   5.797  0.2665 -0.1248 -0.2322
    1DPPC   C3B 2879  10.661  22.121   5.571 -0.1721  0.1032  0.0195
    1DPPC   C4B 2880  10.331  22.287   5.742 -0.1351 -0.1844 -0.1664
    1DPPC   NC3 2881   4.518   2.645   6.559 -0.0301  0.1083  0.0958
    1DPPC   PO4 2882   4.967   2.632   6.662 -0.1102 -0.0177  0.2332
    1DPPC   GL1 2883   5.004   2.492   6.125  0.6395 -0.1973  0.1523
    1DPPC   GL2 2884   5.313   2.479   6.074 -0.0451 -0.2279 -0.2546
    1DPPC   C1A 2885   4.853   2.502   5.758  0.2630 -0.0135  0.0761
    1DPPC   C2A 2886   4.931   2.486   5.273  0.1232  0.0408  0.0282
    1DPPC   C3A 2887   4.852   2.446   4.882  0.1082 -0.0290 -0.0675
    1DPPC   C4A 2888   4.835   2.179   4.512  0.0707 -0.1398  0.2206
    1DPPC   C1B 2889   5.380   2.616   5.681 -0.0021  0.3927  0.3383
    1DPPC   C2B 2890   5.551   2.718   5.208  0.4035 -0.1623  0.1567
    1DPPC   C3B 2891   5.775   2.569   4.888 -0.0997  0.3427 -0.0111
    1DPPC   C4B 2892   5.995   2.498   4.573  0.1063 -0.2159  0.3959
    1DPPC   NC3 2893   5.440  11.949   7.107  0.2345  0.2340 -0.2916
    1DPPC   PO4 2894   5.099  12.141   6.883 -0.1893  0.2133  0.2430
    1DPPC   GL1 2895   5.431  11.980   6.610 -0.1393  0.0485 -0.0890
    1DPPC   GL2 2896   5.191  12.004   6.376 -0.1037 -0.3480 -0.0381
    1DPPC   C1A 2897   5.696  12.229   6.384 -0.0719 -0.5143  0.0176
    1DPPC   C2A 2898   5.781  12.323   5.896  0.0016  0.0988  0.2560
    1DPPC   C3A 2899   5.943  12.623   5.497 -0.0286 -0.3420 -0.1466
    1DPPC   C4A 2900   6.063  12.975   5.362  0.2436 -0.0409 -0.1914
    1DPPC   C1B 2901   5.451  11.968   6.045  0.1724 -0.3331 -0.0528
    1DPPC   C2B 2902   5.563  11.865   5.644  0.0760 -0.0682  0.2127
    1DPPC   C3B 2903   5.733  11.686   5.198  0.2188 -0.0176  0.1149
    1DPPC   C4B 2904   5.836  11.672   4.733 -0.0273 -0.0135 -0.5321
    1DPPC   NC3 2905   7.604  22.658   7.744  0.2993  0.0870  0.2087
    1DPPC   PO4 2906   7.505  22.611   7.337  0.1842  0.2197 -0.0004
    1DPPC   GL1 2907   7.420  22.353   6.946  0.1348  0.1746 -0.0182
    1DPPC   GL2 2908   7.468  21.948   6.955 -0.2257  0.1998  0.0794
    1DPPC   C1A 2909   7.234  22.169   6.523 -0.1338 -0.4162  0.2961
    1DPPC   C2A 2910   7.240  22.025   6.203  0.2585 -0.0639  0.1994
    1DPPC   C3A 2911   7.259  21.881   5.820 -0.1409  0.0761 -0.0758
    1DPPC   C4A 2912   7.101  21.889   5.430  0.0518 -0.1054 -0.1018
    1DPPC   C1B 2913   7.291  21.667   6.576 -0.1391 -0.2603 -0.1646
    1DPPC   C2B 2914   7.128  21.419   6.171 -0.2209 -0.0819 -0.1428
    1DPPC   C3B 2915   7.085  21.030   6.036 -0.0934 -0.0705 -0.0704
    1DPPC   C4B 2916   6.987  20.693   5.637  0.2195 -0.5591  0.2556
    1DPPC   NC3 2917   5.441   0.015   7.301  0.2010  0.3044  0.2676
    1DPPC   PO4 2918   5.583   0.028   6.895  0.2737 -0.1061  0.0153
    1DPPC   GL1 2919   5.432   0.073   6.424  0.2250  0.2160 -0.1780
    1DPPC   GL2 2920   5.203  28.030   6.297 -0.0439 -0.0968  0.1486
    1DPPC   C1A 2921   5.574   0.193   5.995 -0.0554  0.3661 -0.1955
    1DPPC   C2A 2922   5.377   0.332   5.616 -0.0922  0.0360  0.2677
    1DPPC   C3A 2923   5.556   0.500   5.332  0.2088 -0.2355  0.0410
    1DPPC   C4A 2924   5.700   0.666   4.922 -0.0723 -0.3368 -0.2755
    1DPPC   C1B 2925   5.349  27.854   5.913  0.0462 -0.2549  0.0978
    1DPPC   C2B 2926   5.204  27.935   5.426  0.2298  0.0519 -0.0266
    1DPPC   C3B 2927   5.159  27.700   4.999 -0.0118 -0.0575 -0.1657
    1DPPC   C4B 2928   5.158  27.451   4.647 -0.1356  0.4202  0.0418
    1DPPC   NC3 2929   3.882   4.654   5.823  0.0918  0.1178  0.2276
    1DPPC   PO4 2930   3.583   5.019   5.891 -0.0037 -0.2725 -0.2455
    1DPPC   GL1 2931   3.778   5.060   5.461 -0.2006 -0.1459 -0.0052
    1DPPC   GL2 2932   3.880   4.841   5.218 -0.0042  0.1438  0.2036
    1DPPC   C1A 2933   3.738   5.295   5.030  0.0408  0.1843 -0.1247
    1DPPC   C2A 2934   3.866   5.664   4.703  0.0858 -0.0411 -0.0136
    1DPPC   C3A 2935   3.938   5.711   4.294  0.2256 -0.2129 -0.0286
    1DPPC   C4A 2936   3.723   5.591   3.940  0.1966  0.4142 -0.0919
    1DPPC   C1B 2937   3.981   4.812   4.703 -0.0744  0.1214 -0.3284
    1DPPC   C2B 2938   3.907   4.701   4.328 -0.3095  0.1309  0.1998
    1DPPC   C3B 2939   3.843   4.929   3.958 -0.0465  0.3252  0.0531
    1DPPC   C4B 2940   3.696   5.107   3.553  0.0348 -0.3024 -0.0111
    1DPPC   NC3 2941  10.579  21.148   7.957 -0.2415 -0.0988  0.0420
    1DPPC   PO4 2942  10.496  21.217   7.466  0.1531  0.0164 -0.2179
    1DPPC   GL1 2943  10.525  21.449   7.024 -0.0554 -0.1086 -0.1269
    1DPPC   GL2 2944  10.432  21.241   6.821 -0.1708  0.1004 -0.4037
    1DPPC   C1A 2945  10.605  21.680   6.588  0.0592  0.1968 -0.1521
    1DPPC   C2A 2946  10.259  21.543   6.338 -0.2933  0.0723 -0.1826
    1DPPC   C3A 2947  10.384  21.330   5.914  0.0210 -0.1835 -0.2012
    1DPPC   C4A 2948  10.468  21.362   5.427 -0.2646 -0.1221  0.1272
    1DPPC   C1B 2949  10.402  21.074   6.338 -0.0568  0.0163  0.0696
    1DPPC   C2B 2950  10.162  20.895   5.999 -0.0437 -0.2100 -0.0099
    1DPPC   C3B 2951   9.935  21.116   5.789 -0.2366 -0.0421 -0.1259
    1DPPC   C4B 2952   9.919  21.374   5.410  0.2834  0.1506  0.0583
    1DPPC   NC3 2953  22.830  13.112   7.247 -0.2923 -0.1304 -0.3938
    1DPPC   PO4 2954  23.028  13.438   7.194 -0.3348  0.3086 -0.0537
    1DPPC   GL1 2955  23.043  13.252   6.797  0.2608 -0.0343 -0.2012
    1DPPC   GL2 2956  22.849  13.458   6.536 -0.0682  0.1964  0.2319
    1DPPC   C1A 2957  23.259  13.180   6.520 -0.1125 -0.1564 -0.0445
    1DPPC   C2A 2958  23.349  13.130   6.055  0.0472  0.1073  0.2359
    1DPPC   C3A 2959  23.292  13.173   5.589 -0.0202 -0.1237 -0.0377
    1DPPC   C4A 2960  23.098  13.165   5.247  0.0721  0.0176  0.0585
    1DPPC   C1B 2961  22.835  13.235   6.127 -0.1532  0.2382 -0.2883
    1DPPC   C2B 2962  22.780  13.425   5.765  0.2384  0.0816  0.3021
    1DPPC   C3B 2963  22.680  13.357   5.427 -0.0870 -0.0714 -0.1631
    1DPPC   C4B 2964  22.912  13.685   5.093 -0.1069  0.5293 -0.0682
    1DPPC   NC3 2965   9.908  24.582   7.299  0.3107 -0.1671  0.0630
    1DPPC   PO4 2966   9.597  24.561   7.084 -0.2085 -0.2871 -0.2151
    1DPPC   GL1 2967   9.663  24.656   6.686 -0.2214  0.0557 -0.2705
    1DPPC   GL2 2968   9.908  24.402   6.677  0.0041 -0.1156  0.1946
    1DPPC   C1A 2969   9.596  24.449   6.277 -0.2517 -0.0465 -0.0534
    1DPPC   C2A 2970   9.415  24.641   5.886 -0.0700  0.0390  0.5412
    1DPPC   C3A 2971   9.513  24.780   5.483  0.2670 -0.0118  0.5215
    1DPPC   C4A 2972   9.547  25.066   5.137  0.1886 -0.3535 -0.0546
    1DPPC   C1B 2973  10.034  24.184   6.250  0.0444  0.0417  0.0086
    1DPPC   C2B 2974   9.947  23.963   5.814 -0.0286  0.2797  0.0473
    1DPPC   C3B 2975   9.945  23.598   5.501  0.0058 -0.0288 -0.3560
    1DPPC   C4B 2976   9.684  23.208   5.454 -0.0542 -0.2986 -0.1471
    1DPPC   NC3 2977  24.931   0.491   6.791 -0.1387 -0.1674 -0.0938
    1DPPC   PO4 2978  24.653   0.155   6.985  0.1164  0.1895  0.0653
    1DPPC   GL1 2979  24.580   0.360   6.536  0.2936  0.0345  0.0199
    1DPPC   GL2 2980  24.544   0.667   6.427 -0.1091 -0.1805  0.0345
    1DPPC   C1A 2981  24.663   0.369   6.068  0.0289  0.2282 -0.3404
    1DPPC   C2A 2982  24.776   0.294   5.697  0.1614 -0.1207 -0.0243
    1DPPC   C3A 2983  24.462   0.164   5.470 -0.1067  0.4562  0.0689
    1DPPC   C4A 2984  24.026   0.023   5.219  0.0694 -0.0175  0.0970
    1DPPC   C1B 2985  24.299   0.630   5.932 -0.0369 -0.1619 -0.2540
    1DPPC   C2B 2986  24.204   0.863   5.592 -0.0692 -0.1638 -0.0603
    1DPPC   C3B 2987  24.190   1.206   5.318 -0.2384 -0.1117  0.0697
    1DPPC   C4B 2988  24.074   1.301   4.865 -0.2533 -0.1240  0.0722
    1DPPC   NC3 2989   5.831  17.203   7.956 -0.0541 -0.0236 -0.1071
    1DPPC   PO4 2990   5.718  17.254   7.521 -0.3995 -0.2589  0.2315
    1DPPC   GL1 2991   5.838  17.290   7.065 -0.1264 -0.0660 -0.1473
    1DPPC   GL2 2992   5.783  17.031   6.772 -0.0732 -0.1279  0.0426
    1DPPC   C1A 2993   5.931  17.472   6.727 -0.0501  0.0184 -0.0233
    1DPPC   C2A 2994   6.238  17.486   6.448  0.0712  0.2638  0.0511
    1DPPC   C3A 2995   6.225  17.369   5.949  0.0863 -0.0942  0.0020
    1DPPC   C4A 2996   6.461  17.473   5.620 -0.0163  0.6704 -0.1069
    1DPPC   C1B 2997   6.099  16.970   6.626 -0.4556  0.1554  0.1297
    1DPPC   C2B 2998   6.407  16.643   6.581 -0.1333  0.3037 -0.1391
    1DPPC   C3B 2999   6.523  16.189   6.418 -0.0338 -0.1110 -0.2826
    1DPPC   C4B 3000   6.731  16.026   6.053  0.1975  0.2274  0.2561
    1DPPC   NC3 3001  20.083  15.673   7.868 -0.1861  0.0314  0.1999
    1DPPC   PO4 3002  19.855  15.816   7.504  0.0046 -0.2799 -0.1820
    1DPPC   GL1 3003  20.030  15.994   7.195 -0.0262 -0.1858 -0.2071
    1DPPC   GL2 3004  20.082  16.307   7.223  0.4256 -0.0466 -0.1591
    1DPPC   C1A 3005  20.191  16.061   6.729 -0.0381  0.0820 -0.2117
    1DPPC   C2A 3006  20.209  16.088   6.301 -0.2787  0.0802 -0.0669
    1DPPC   C3A 3007  20.243  16.015   5.904  0.0701  0.0391  0.0883
    1DPPC   C4A 3008  20.396  16.119   5.566 -0.0743  0.3610 -0.2716
    1DPPC   C1B 3009  20.339  16.519   7.011  0.1430  0.0833  0.2163
    1DPPC   C2B 3010  20.810  16.659   6.755 -0.0663 -0.0261 -0.3997
    1DPPC   C3B 3011  20.839  16.736   6.292 -0.0074 -0.5264  0.1079
    1DPPC   C4B 3012  20.492  17.008   6.180 -0.1412  0.2312 -0.1084
    1DPPC   NC3 3013  22.467  19.052   7.316  0.1011 -0.2524 -0.3959
    1DPPC   PO4 3014  22.066  18.796   7.360  0.2383 -0.1102 -0.1946
    1DPPC   GL1 3015  22.204  18.876   6.884  0.1774  0.1415  0.1480
    1DPPC   GL2 3016  22.201  19.203   6.717  0.0711 -0.1181  0.0404
    1DPPC   C1A 3017  22.494  18.780   6.625  0.1460  0.4049 -0.2306
    1DPPC   C2A 3018  22.394  18.781   6.139  0.0841  0.1808  0.1662
    1DPPC   C3A 3019  22.238  18.556   5.829 -0.0771  0.0650 -0.1177
    1DPPC   C4A 3020  22.369  18.165   5.668  0.1625 -0.1418 -0.1607
    1DPPC   C1B 3021  21.936  19.114   6.319  0.1814 -0.2700  0.0043
    1DPPC   C2B 3022  21.955  18.996   5.835  0.0681 -0.1793 -0.0691
    1DPPC   C3B 3023  22.122  19.403   5.815  0.2818  0.1861 -0.1203
    1DPPC   C4B 3024  22.455  19.531   5.590 -0.1075  0.3661 -0.2231
    1DPPC   NC3 3025  18.855  26.517   7.583  0.2320 -0.2849 -0.3550
    1DPPC   PO4 3026  19.170  26.200   7.389  0.0903 -0.1180  0.1341
    1DPPC   GL1 3027  19.319  26.237   7.030  0.0393 -0.1892  0.0756
    1DPPC   GL2 3028  19.198  25.994   6.896  0.2893  0.0807 -0.0679
    1DPPC   C1A 3029  19.360  26.569   6.719  0.2117 -0.1274 -0.2792
    1DPPC   C2A 3030  19.113  26.711   6.394  0.0604  0.1573  0.1658
    1DPPC   C3A 3031  18.852  26.623   6.056 -0.2158  0.1666 -0.0681
    1DPPC   C4A 3032  18.748  26.412   5.597  0.0427 -0.0162  0.0497
    1DPPC   C1B 3033  19.000  26.203   6.512  0.2742  0.1094  0.4419
    1DPPC   C2B 3034  19.114  26.128   6.146 -0.1441  0.2365  0.2270
    1DPPC   C3B 3035  19.173  26.096   5.694  0.0728  0.0417 -0.1664
    1DPPC   C4B 3036  19.598  25.846   5.525 -0.3002  0.1776 -0.3144
    1DPPC   NC3 3037  24.781  10.670   7.359  0.1548  0.0312  0.4424
    1DPPC   PO4 3038  24.733  11.042   7.049 -0.1283  0.3310 -0.1011
    1DPPC   GL1 3039  24.633  10.842   6.592 -0.1837  0.2221 -0.3554
    1DPPC   GL2 3040  24.543  11.079   6.430  0.0676 -0.3139 -0.0154
    1DPPC   C1A 3041  24.544  10.577   6.167  0.0890 -0.3264 -0.0428
    1DPPC   C2A 3042  24.675  10.578   5.628 -0.2303  0.2316 -0.1017
    1DPPC   C3A 3043  24.807  10.940   5.343 -0.1131 -0.0180 -0.0262
    1DPPC   C4A 3044  25.258  11.259   5.450  0.1555  0.2041  0.1104
    1DPPC   C1B 3045  24.334  11.406   6.096  0.0748 -0.2526 -0.0938
    1DPPC   C2B 3046  24.315  11.597   5.773 -0.2992 -0.2071  0.1939
    1DPPC   C3B 3047  24.012  11.750   5.495 -0.0155  0.2036  0.1908
    1DPPC   C4B 3048  23.573  11.710   5.152  0.0097  0.2991  0.2288
    1DPPC   NC3 3049  19.280  25.526   7.098  0.0481  0.1877 -0.0965
    1DPPC   PO4 3050  18.835  25.299   7.071  0.1364  0.1557 -0.0394
    1DPPC   GL1 3051  18.710  25.337   6.650 -0.1751 -0.0105 -0.0688
    1DPPC   GL2 3052  18.453  25.532   6.572 -0.1666 -0.2560  0.1376
    1DPPC   C1A 3053  18.919  25.237   6.190 -0.0924 -0.2295 -0.0059
    1DPPC   C2A 3054  18.735  25.104   5.782 -0.0453 -0.0036  0.1304
    1DPPC   C3A 3055  18.705  24.751   5.521 -0.2873 -0.1128  0.1760
    1DPPC   C4A 3056  18.885  24.332   5.450 -0.1303 -0.1906 -0.2074
    1DPPC   C1B 3057  18.427  25.347   6.081 -0.1625  0.3860 -0.0569
    1DPPC   C2B 3058  18.259  24.956   5.839 -0.1357 -0.1812  0.0782
    1DPPC   C3B 3059  17.947  24.759   5.636 -0.0001  0.0079  0.1338
    1DPPC   C4B 3060  17.814  24.690   5.182  0.1087 -0.1566  0.1302
    1DPPC   NC3 3061  10.083  17.611   7.364  0.2396  0.2246  0.4644
    1DPPC   PO4 3062  10.121  17.112   7.419 -0.0152 -0.4304  0.0336
    1DPPC   GL1 3063  10.165  17.224   7.017  0.3102 -0.0577  0.0064
    1DPPC   GL2 3064  10.458  17.380   7.013 -0.0739 -0.1311 -0.1936
    1DPPC   C1A 3065  10.247  17.160   6.594  0.0108  0.1141 -0.0226
    1DPPC   C2A 3066  10.144  17.142   6.174 -0.0383 -0.2117  0.0575
    1DPPC   C3A 3067   9.961  17.230   5.827 -0.2396  0.2641  0.0092
    1DPPC   C4A 3068  10.141  17.246   5.457  0.1171 -0.0096 -0.0018
    1DPPC   C1B 3069  10.451  17.662   6.676 -0.1775 -0.0656  0.0815
    1DPPC   C2B 3070  10.407  17.685   6.150 -0.0416 -0.0964  0.0810
    1DPPC   C3B 3071  10.465  17.450   5.826 -0.0981 -0.1324  0.0176
    1DPPC   C4B 3072  10.621  17.350   5.458 -0.0826 -0.1149  0.0689
    1DPPC   NC3 3073   2.763   2.577   6.304 -0.3155  0.4666 -0.1244
    1DPPC   PO4 3074   2.786   2.805   5.870  0.2322  0.1573  0.1639
    1DPPC   GL1 3075   2.920   3.145   5.572 -0.1376 -0.0076 -0.4132
    1DPPC   GL2 3076   2.985   2.972   5.303 -0.1636  0.0878 -0.0197
    1DPPC   C1A 3077   2.791   3.397   5.294  0.2684 -0.0539 -0.1721
    1DPPC   C2A 3078   2.588   3.376   4.768 -0.1101 -0.0182  0.0055
    1DPPC   C3A 3079   2.401   3.495   4.334  0.1094 -0.1928  0.0051
    1DPPC   C4A 3080   2.021   3.429   4.106  0.1056 -0.0275  0.2229
    1DPPC   C1B 3081   2.781   2.935   4.968 -0.1384 -0.3503 -0.1304
    1DPPC   C2B 3082   2.561   2.790   4.574 -0.1361  0.0386 -0.1650
    1DPPC   C3B 3083   2.252   2.855   4.181 -0.0448  0.0754  0.2617
    1DPPC   C4B 3084   1.883   2.932   3.983  0.0327  0.0187 -0.1104
    1DPPC   NC3 3085  17.039  12.333   7.571  0.0732  0.3125 -0.2150
    1DPPC   PO4 3086  17.137  12.289   7.263  0.0234  0.0169 -0.0927
    1DPPC   GL1 3087  16.866  12.515   7.021 -0.2606  0.0773  0.1720
    1DPPC   GL2 3088  17.014  12.490   6.814  0.1426 -0.1149 -0.5888
    1DPPC   C1A 3089  16.448  12.520   6.774  0.3199 -0.0673 -0.0134
    1DPPC   C2A 3090  16.174  12.348   6.413  0.0848  0.3702  0.1141
    1DPPC   C3A 3091  15.789  12.259   6.100  0.2314  0.2520  0.0146
    1DPPC   C4A 3092  15.424  12.414   6.098 -0.1385 -0.2768 -0.0871
    1DPPC   C1B 3093  16.931  12.446   6.448  0.1489 -0.0492  0.0494
    1DPPC   C2B 3094  16.603  12.540   6.226  0.1545 -0.2659 -0.3174
    1DPPC   C3B 3095  16.596  12.683   5.793 -0.0792 -0.2291  0.1612
    1DPPC   C4B 3096  16.514  13.045   5.616 -0.0192  0.1990 -0.1136
    1DPPC   NC3 3097  26.167   0.799   6.876  0.2747  0.0886 -0.1994
    1DPPC   PO4 3098  25.793   0.834   6.645 -0.1518  0.0693 -0.3538
    1DPPC   GL1 3099  25.617   0.866   6.210  0.4204  0.2095 -0.5596
    1DPPC   GL2 3100  25.290   1.009   6.310  0.2696  0.1306 -0.3184
    1DPPC   C1A 3101  25.554   0.929   5.783  0.1025 -0.0550 -0.1817
    1DPPC   C2A 3102  25.646   0.985   5.371 -0.0653 -0.1703 -0.2120
    1DPPC   C3A 3103  25.609   0.928   4.967 -0.1142 -0.1407 -0.1572
    1DPPC   C4A 3104  25.679   0.976   4.547  0.2225  0.3836  0.0461
    1DPPC   C1B 3105  25.116   1.070   5.905 -0.2189  0.0028 -0.1806
    1DPPC   C2B 3106  25.137   1.108   5.461 -0.1457  0.2493 -0.1541
    1DPPC   C3B 3107  24.968   0.985   5.079  0.0076  0.2781 -0.3490
    1DPPC   C4B 3108  24.783   0.635   4.800  0.1311 -0.0819  0.2381
    1DPPC   NC3 3109  13.045   7.656   8.338  0.0404 -0.1798 -0.0107
    1DPPC   PO4 3110  13.192   7.390   8.051 -0.0950 -0.1646  0.1457
    1DPPC   GL1 3111  13.030   7.454   7.589 -0.1456 -0.0626  0.0493
    1DPPC   GL2 3112  12.879   7.271   7.444 -0.2688  0.2068  0.2094
    1DPPC   C1A 3113  13.151   7.625   7.161 -0.0414 -0.1988  0.0824
    1DPPC   C2A 3114  13.373   7.725   6.707  0.2073 -0.0266 -0.0434
    1DPPC   C3A 3115  13.509   7.934   6.422  0.3223 -0.0302 -0.2882
    1DPPC   C4A 3116  13.462   7.929   5.976 -0.4082 -0.0118 -0.1033
    1DPPC   C1B 3117  12.986   7.210   7.017  0.1263  0.1579  0.0228
    1DPPC   C2B 3118  13.061   7.212   6.629 -0.0540 -0.0023  0.0684
    1DPPC   C3B 3119  13.129   7.494   6.364  0.1617  0.0793  0.2023
    1DPPC   C4B 3120  12.930   7.496   5.975 -0.1314  0.0207  0.0452
    1DPPC   NC3 3121   9.623   8.081   7.649  0.2320 -0.3143 -0.1218
    1DPPC   PO4 3122  10.012   7.892   7.418  0.0662 -0.1620 -0.1802
    1DPPC   GL1 3123  10.468   7.808   7.216 -0.2977 -0.0657 -0.3343
    1DPPC   GL2 3124  10.792   7.661   7.351  0.1104 -0.1194  0.2039
    1DPPC   C1A 3125  10.699   7.867   6.818 -0.0454 -0.2436  0.3128
    1DPPC   C2A 3126  10.817   7.956   6.358  0.1500  0.0565  0.1248
    1DPPC   C3A 3127  10.625   8.104   5.925  0.0608  0.0726  0.0484
    1DPPC   C4A 3128  10.270   8.309   5.771  0.1381  0.1787 -0.1230
    1DPPC   C1B 3129  11.017   7.589   7.038  0.0679 -0.3855 -0.0538
    1DPPC   C2B 3130  11.011   7.351   6.746  0.1998  0.0864 -0.1804
    1DPPC   C3B 3131  11.120   7.411   6.296  0.0408  0.0006  0.0349
    1DPPC   C4B 3132  11.238   7.702   6.036 -0.0906  0.0963  0.1065
    1DPPC   NC3 3133  16.315  20.876   6.950  0.0133 -0.0381 -0.0117
    1DPPC   PO4 3134  16.062  21.132   6.847  0.2450 -0.1704  0.3740
    1DPPC   GL1 3135  15.785  21.162   6.537  0.4369  0.0909  0.0331
    1DPPC   GL2 3136  15.846  21.534   6.376  0.0046 -0.1661  0.4203
    1DPPC   C1A 3137  15.655  21.087   6.129 -0.3216 -0.0743 -0.3395
    1DPPC   C2A 3138  15.690  20.772   5.740 -0.3431  0.0076  0.1985
    1DPPC   C3A 3139  15.662  20.568   5.403 -0.2200  0.0369 -0.2246
    1DPPC   C4A 3140  15.243  20.392   5.231  0.1458  0.2576 -0.2292
    1DPPC   C1B 3141  15.927  21.659   5.977 -0.0686 -0.1440  0.4056
    1DPPC   C2B 3142  15.973  21.792   5.644  0.0987  0.0645 -0.2973
    1DPPC   C3B 3143  16.054  21.614   5.261  0.2295  0.0402 -0.6505
    1DPPC   C4B 3144  16.160  21.366   4.856 -0.1402 -0.1007 -0.0671
    1DPPC   NC3 3145  10.043   3.324   7.433  0.0746 -0.0391  0.1948
    1DPPC   PO4 3146   9.523   3.358   7.381 -0.1579 -0.1077 -0.0644
    1DPPC   GL1 3147   9.684   3.662   7.128  0.0545 -0.1421  0.1965
    1DPPC   GL2 3148   9.548   3.552   6.833 -0.1997 -0.1023  0.1764
    1DPPC   C1A 3149   9.687   3.997   6.951  0.0074  0.0775 -0.2471
    1DPPC   C2A 3150   9.793   4.201   6.633  0.2523 -0.5569  0.3318
    1DPPC   C3A 3151  10.156   4.373   6.336 -0.3033 -0.4724 -0.0226
    1DPPC   C4A 3152  10.287   4.461   5.844  0.2893 -0.2239 -0.0184
    1DPPC   C1B 3153   9.298   3.398   6.407 -0.1533  0.0903 -0.1012
    1DPPC   C2B 3154   9.052   3.110   6.159  0.2020 -0.0078  0.2766
    1DPPC   C3B 3155   9.139   3.186   5.761  0.2151  0.0355  0.1602
    1DPPC   C4B 3156   9.195   2.954   5.408 -0.0561 -0.3264 -0.2587
    1DPPC   NC3 3157   6.494  23.382   6.911  0.1293  0.2151 -0.2504
    1DPPC   PO4 3158   6.840  23.651   6.783 -0.0855  0.1418 -0.3113
    1DPPC   GL1 3159   6.679  23.447   6.470  0.2255 -0.2124  0.2232
    1DPPC   GL2 3160   6.768  23.064   6.516  0.2083  0.2137 -0.1564
    1DPPC   C1A 3161   6.792  23.395   5.991  0.1140 -0.1504 -0.2986
    1DPPC   C2A 3162   6.908  23.346   5.513  0.1087  0.0736  0.0652
    1DPPC   C3A 3163   6.841  23.003   5.226 -0.0785 -0.0502 -0.0473
    1DPPC   C4A 3164   6.937  22.533   5.123  0.0711  0.1468  0.4363
    1DPPC   C1B 3165   6.853  22.904   6.063  0.2726  0.1356  0.0491
    1DPPC   C2B 3166   6.761  22.690   5.654  0.2649 -0.2986 -0.2398
    1DPPC   C3B 3167   6.421  22.518   5.321  0.0096 -0.0823  0.0655
    1DPPC   C4B 3168   6.197  22.256   5.008  0.1219 -0.1087  0.3358
    1DPPC   NC3 3169  11.621  11.078   7.239 -0.1774 -0.2151 -0.1906
    1DPPC   PO4 3170  11.456  10.697   7.119  0.0541 -0.0013 -0.1983
    1DPPC   GL1 3171  11.594  10.540   6.865  0.2507  0.0320 -0.0047
    1DPPC   GL2 3172  11.899  10.382   6.851  0.1925 -0.2314  0.1904
    1DPPC   C1A 3173  11.619  10.468   6.386  0.2818 -0.0617  0.1901
    1DPPC   C2A 3174  11.877  10.424   5.979 -0.1576 -0.0328  0.1300
    1DPPC   C3A 3175  12.033  10.322   5.527  0.1005  0.2986 -0.2330
    1DPPC   C4A 3176  12.355  10.544   5.178 -0.1186 -0.2251  0.1999
    1DPPC   C1B 3177  12.108  10.426   6.418 -0.1340  0.0932  0.0152
    1DPPC   C2B 3178  12.404  10.452   6.075  0.0348  0.2063 -0.0955
    1DPPC   C3B 3179  12.851  10.569   5.939  0.2237  0.0521 -0.1691
    1DPPC   C4B 3180  13.074  10.609   5.639 -0.0668  0.1388 -0.1382
    1DPPC   NC3 3181   6.281  27.744   6.378 -0.1801  0.0012 -0.3390
    1DPPC   PO4 3182   6.381  27.333   6.313  0.1777  0.0611 -0.0918
    1DPPC   GL1 3183   6.310  27.182   5.979  0.1044  0.0497 -0.2974
    1DPPC   GL2 3184   5.944  27.056   6.032 -0.0290 -0.1355  0.2416
    1DPPC   C1A 3185   6.420  27.056   5.636 -0.0783  0.0521  0.4695
    1DPPC   C2A 3186   6.521  27.051   5.181  0.2047  0.1436  0.2921
    1DPPC   C3A 3187   6.554  27.208   4.816  0.4449 -0.0021  0.1086
    1DPPC   C4A 3188   6.447  27.603   4.707  0.1710  0.0487  0.2614
    1DPPC   C1B 3189   5.589  26.818   5.779  0.0567  0.2244  0.2341
    1DPPC   C2B 3190   5.614  26.541   5.422 -0.0173 -0.1589  0.3618
    1DPPC   C3B 3191   5.808  26.430   5.086 -0.2203  0.1632  0.1356
    1DPPC   C4B 3192   5.843  26.157   4.768  0.0675  0.0016 -0.1006
    1DPPC   NC3 3193  24.968  14.765   6.777  0.2271  0.0602  0.2743
    1DPPC   PO4 3194  24.562  14.818   6.813 -0.3428 -0.0365 -0.0332
    1DPPC   GL1 3195  24.169  14.783   6.537  0.0129  0.1027  0.0969
    1DPPC   GL2 3196  24.003  14.624   6.486 -0.0564  0.3251 -0.1306
    1DPPC   C1A 3197  24.088  14.851   6.025  0.1473 -0.0880 -0.2711
    1DPPC   C2A 3198  24.237  14.775   5.608 -0.3153  0.0732  0.0723
    1DPPC   C3A 3199  24.456  15.023   5.236  0.0724 -0.0412 -0.2028
    1DPPC   C4A 3200  24.343  15.086   4.808  0.3104  0.2667  0.2128
    1DPPC   C1B 3201  24.269  14.372   6.218 -0.1236 -0.3052 -0.0874
    1DPPC   C2B 3202  24.477  14.003   6.162  0.0881 -0.0773 -0.3384
    1DPPC   C3B 3203  24.641  13.860   5.847 -0.0420 -0.1297  0.0267
    1DPPC   C4B 3204  24.642  13.480   5.723 -0.2117  0.4246 -0.2161
    1DPPC   NC3 3205   7.786   3.078   6.809 -0.0027  0.0213 -0.0763
    1DPPC   PO4 3206   7.565   2.735   6.691  0.4534 -0.1237 -0.1737
    1DPPC   GL1 3207   7.580   2.478   6.324 -0.2589 -0.1915 -0.2205
    1DPPC   GL2 3208   7.537   2.833   6.112 -0.2418  0.2385 -0.2138
    1DPPC   C1A 3209   7.880   2.055   6.244 -0.1132  0.0896  0.0912
    1DPPC   C2A 3210   8.093   1.888   5.951  0.1465  0.0692 -0.2738
    1DPPC   C3A 3211   8.046   1.678   5.609 -0.0797  0.1577  0.1350
    1DPPC   C4A 3212   7.960   1.338   5.250 -0.0350 -0.0849 -0.0857
    1DPPC   C1B 3213   7.535   2.656   5.809  0.2153 -0.1671 -0.0250
    1DPPC   C2B 3214   7.423   2.628   5.375  0.5395  0.2489 -0.0201
    1DPPC   C3B 3215   7.199   2.628   5.052  0.2315 -0.2561  0.1864
    1DPPC   C4B 3216   6.853   2.444   4.666  0.0463  0.1440  0.0918
    1DPPC   NC3 3217   6.301  11.797   7.015  0.0976 -0.1532  0.0516
    1DPPC   PO4 3218   6.226  11.397   6.921  0.3278 -0.4421 -0.5478
    1DPPC   GL1 3219   6.383  11.574   6.471 -0.2141  0.1920 -0.0048
    1DPPC   GL2 3220   6.662  11.660   6.585 -0.2278 -0.2840 -0.0066
    1DPPC   C1A 3221   6.584  11.461   6.131 -0.2993 -0.1084  0.3050
    1DPPC   C2A 3222   6.823  11.402   5.792 -0.0666  0.1496 -0.2676
    1DPPC   C3A 3223   6.954  11.508   5.332  0.2098 -0.1400  0.2164
    1DPPC   C4A 3224   7.325  11.693   5.104  0.1060  0.1138 -0.0886
    1DPPC   C1B 3225   6.719  11.943   6.294  0.0350 -0.2954  0.0564
    1DPPC   C2B 3226   6.747  11.997   5.845 -0.0687  0.2045 -0.1411
    1DPPC   C3B 3227   6.779  12.136   5.480 -0.2158  0.0885 -0.1744
    1DPPC   C4B 3228   6.888  12.410   5.370  0.2750 -0.3632 -0.0526
    1DPPC   NC3 3229  26.333  17.757   7.388  0.2376  0.0347 -0.0580
    1DPPC   PO4 3230  26.456  17.872   6.953 -0.0825  0.0378 -0.0996
    1DPPC   GL1 3231  26.400  18.021   6.535  0.3211 -0.1902  0.0916
    1DPPC   GL2 3232  26.581  18.009   6.342 -0.1327 -0.2235 -0.3272
    1DPPC   C1A 3233  26.314  17.704   6.132  0.1965  0.1966  0.0198
    1DPPC   C2A 3234  26.402  17.466   5.801  0.2638  0.1865 -0.2535
    1DPPC   C3A 3235  26.179  17.333   5.407 -0.2234  0.2147 -0.0388
    1DPPC   C4A 3236  26.267  17.342   4.981 -0.0009 -0.3105  0.1732
    1DPPC   C1B 3237  26.643  18.097   5.976  0.2571 -0.1066 -0.0465
    1DPPC   C2B 3238  26.560  17.904   5.594  0.1003  0.1891  0.0077
    1DPPC   C3B 3239  26.674  17.938   5.273 -0.2417 -0.2101 -0.1844
    1DPPC   C4B 3240  26.833  18.105   4.872 -0.2647 -0.0794 -0.0011
    1DPPC   NC3 3241  19.273  12.831   7.373 -0.0258  0.2063 -0.0823
    1DPPC   PO4 3242  19.377  12.951   6.975 -0.2522 -0.0404  0.1117
    1DPPC   GL1 3243  19.299  13.301   6.692  0.0172  0.1681  0.0694
    1DPPC   GL2 3244  19.575  13.233   6.658  0.3568 -0.1032  0.1896
    1DPPC   C1A 3245  19.066  13.401   6.328 -0.2416  0.0994  0.2190
    1DPPC   C2A 3246  18.983  13.696   5.983  0.0529 -0.2669 -0.3354
    1DPPC   C3A 3247  19.049  13.907   5.554 -0.2063  0.0143  0.0431
    1DPPC   C4A 3248  19.464  13.930   5.434 -0.1974  0.2552 -0.3137
    1DPPC   C1B 3249  19.398  12.947   6.252  0.4309 -0.1753  0.1679
    1DPPC   C2B 3250  19.169  12.876   6.011 -0.1614  0.0629 -0.0361
    1DPPC   C3B 3251  19.062  12.876   5.474 -0.0472 -0.1204  0.1836
    1DPPC   C4B 3252  18.891  12.748   5.035 -0.2076 -0.0487  0.1740
    1DPPC   NC3 3253  22.967  11.236   7.095  0.2455  0.2073  0.2404
    1DPPC   PO4 3254  22.928  11.693   7.023 -0.1326 -0.0247 -0.2156
    1DPPC   GL1 3255  22.978  11.477   6.611 -0.0910  0.0333  0.0939
    1DPPC   GL2 3256  22.753  11.749   6.541  0.2086 -0.0114 -0.2602
    1DPPC   C1A 3257  22.855  11.232   6.229  0.0979 -0.4262  0.4877
    1DPPC   C2A 3258  22.820  11.212   5.781 -0.0219 -0.1575  0.1042
    1DPPC   C3A 3259  22.678  11.077   5.334  0.0212 -0.0629  0.1946
    1DPPC   C4A 3260  22.543  11.131   4.898  0.1162  0.0610 -0.1658
    1DPPC   C1B 3261  22.685  11.686   6.093  0.0224  0.1116  0.1334
    1DPPC   C2B 3262  22.735  11.705   5.587  0.1112 -0.0117 -0.4154
    1DPPC   C3B 3263  22.545  11.741   5.242  0.0047  0.0938  0.3102
    1DPPC   C4B 3264  22.255  11.738   4.880 -0.0536  0.1922  0.1842
    1DPPC   NC3 3265   9.971   6.065   7.731  0.0256  0.0977  0.0549
    1DPPC   PO4 3266   9.634   5.750   7.595  0.2032 -0.1036 -0.1008
    1DPPC   GL1 3267   9.874   5.878   7.194 -0.0058 -0.2123 -0.0574
    1DPPC   GL2 3268   9.799   5.617   7.016 -0.2137  0.1581 -0.0917
    1DPPC   C1A 3269  10.180   5.854   6.787 -0.0451 -0.2951  0.2588
    1DPPC   C2A 3270  10.308   5.890   6.310  0.0122  0.0380 -0.1577
    1DPPC   C3A 3271  10.105   6.010   5.929 -0.2899  0.2378  0.1645
    1DPPC   C4A 3272   9.738   5.928   5.753 -0.0614 -0.0536  0.0325
    1DPPC   C1B 3273   9.968   5.371   6.772  0.0082  0.3465 -0.1456
    1DPPC   C2B 3274  10.228   5.354   6.503  0.0613 -0.0488  0.3668
    1DPPC   C3B 3275  10.354   5.447   6.065 -0.2006  0.0707 -0.2102
    1DPPC   C4B 3276  10.375   5.642   5.710 -0.2292  0.0597 -0.0201
    1DPPC   NC3 3277   0.540  19.613   6.661  0.5109 -0.0643 -0.3507
    1DPPC   PO4 3278   0.469  19.969   6.409  0.0529  0.1085  0.0589
    1DPPC   GL1 3279   0.413  19.928   5.986  0.2878  0.0810 -0.1369
    1DPPC   GL2 3280   0.243  19.636   5.836 -0.0429 -0.2274 -0.0969
    1DPPC   C1A 3281   0.453  20.035   5.568  0.0244 -0.0813 -0.5478
    1DPPC   C2A 3282   0.435  20.105   5.136  0.1715 -0.0026 -0.0656
    1DPPC   C3A 3283  28.126  20.144   4.979 -0.2839 -0.0561 -0.0359
    1DPPC   C4A 3284  27.912  20.432   4.838  0.0859 -0.0288 -0.2211
    1DPPC   C1B 3285   0.500  19.499   5.514 -0.2447  0.4008 -0.2854
    1DPPC   C2B 3286   0.574  19.613   5.098 -0.0324 -0.3012  0.0878
    1DPPC   C3B 3287   0.890  19.708   4.764  0.2097 -0.0741 -0.0670
    1DPPC   C4B 3288   1.007  20.135   4.488 -0.1853  0.3954 -0.1071
    1DPPC   NC3 3289   8.869   7.521   7.931  0.0210  0.3314  0.1384
    1DPPC   PO4 3290   9.081   7.641   7.509  0.0504  0.2709  0.0998
    1DPPC   GL1 3291   9.307   7.773   7.136  0.0374 -0.0048  0.2121
    1DPPC   GL2 3292   9.610   7.928   7.065  0.1281 -0.0222  0.0768
    1DPPC   C1A 3293   9.246   8.042   6.712 -0.0334  0.2337 -0.2834
    1DPPC   C2A 3294   9.363   8.399   6.704 -0.0074  0.1466 -0.2141
    1DPPC   C3A 3295   9.223   8.765   6.824  0.2586 -0.0341 -0.0068
    1DPPC   C4A 3296   8.899   8.995   6.570  0.0488  0.1956  0.2687
    1DPPC   C1B 3297   9.796   8.147   6.693  0.0291 -0.0218  0.0229
    1DPPC   C2B 3298  10.072   8.471   6.453 -0.1633  0.2134 -0.0160
    1DPPC   C3B 3299   9.949   8.648   6.063 -0.3670 -0.0969 -0.2282
    1DPPC   C4B 3300   9.600   8.781   5.796  0.1979 -0.0887  0.2065
    1DPPC   NC3 3301  27.418   7.109   6.714  0.1084  0.1815 -0.1980
    1DPPC   PO4 3302  27.158   7.268   6.450 -0.2189 -0.2788 -0.3419
    1DPPC   GL1 3303  27.162   7.300   5.936  0.2849 -0.1852  0.0654
    1DPPC   GL2 3304  27.166   7.006   5.904  0.0013  0.4535 -0.0601
    1DPPC   C1A 3305  26.913   7.312   5.506 -0.0168 -0.2828 -0.0753
    1DPPC   C2A 3306  26.576   7.245   5.190 -0.0120  0.3231 -0.0874
    1DPPC   C3A 3307  26.130   7.115   5.022 -0.3223 -0.2617 -0.0718
    1DPPC   C4A 3308  25.778   6.785   4.863  0.1116 -0.1973 -0.0445
    1DPPC   C1B 3309  27.194   6.966   5.444 -0.3711  0.4570 -0.3682
    1DPPC   C2B 3310  27.246   6.890   5.014  0.2056 -0.2459 -0.2301
    1DPPC   C3B 3311  27.167   7.135   4.593 -0.1952 -0.0501  0.0335
    1DPPC   C4B 3312  26.914   7.257   4.382  0.1108  0.0893 -0.2583
    1DPPC   NC3 3313  18.375   9.141   7.781  0.0625 -0.1768 -0.2200
    1DPPC   PO4 3314  18.143   9.015   7.435 -0.1498 -0.3104 -0.0296
    1DPPC   GL1 3315  18.192   9.358   7.029  0.2009 -0.0469  0.1735
    1DPPC   GL2 3316  18.009   9.548   6.979  0.1530  0.1972  0.1220
    1DPPC   C1A 3317  18.530   9.394   6.738 -0.1299  0.0990  0.0265
    1DPPC   C2A 3318  18.390   9.394   6.300 -0.1363 -0.0112 -0.1469
    1DPPC   C3A 3319  18.221   9.238   5.905 -0.0530  0.2140 -0.3270
    1DPPC   C4A 3320  17.830   9.227   5.671  0.3336 -0.1344  0.0695
    1DPPC   C1B 3321  17.955   9.661   6.547  0.1902 -0.4872 -0.0020
    1DPPC   C2B 3322  17.648   9.898   6.255 -0.0525  0.1182 -0.2796
    1DPPC   C3B 3323  17.255   9.962   6.016  0.2295  0.2414  0.1237
    1DPPC   C4B 3324  17.005  10.256   5.898  0.0769  0.0326  0.1506
    1DPPC   NC3 3325  11.324  14.987   7.585 -0.2471  0.0633  0.0964
    1DPPC   PO4 3326  11.742  15.116   7.604  0.1200  0.1163 -0.0090
    1DPPC   GL1 3327  11.681  15.128   7.138 -0.0012  0.0813 -0.0240
    1DPPC   GL2 3328  11.570  14.788   7.049 -0.2215  0.0664 -0.0595
    1DPPC   C1A 3329  11.936  14.948   6.707 -0.1129  0.2745  0.0492
    1DPPC   C2A 3330  11.882  14.978   6.317 -0.0469  0.0187 -0.2510
    1DPPC   C3A 3331  11.906  14.799   5.905 -0.0648  0.0056  0.2317
    1DPPC   C4A 3332  11.869  15.091   5.598 -0.0738 -0.3862  0.1811
    1DPPC   C1B 3333  11.065  14.694   7.019 -0.1474 -0.1239  0.2791
    1DPPC   C2B 3334  10.740  14.521   6.721  0.1925  0.0291 -0.0875
    1DPPC   C3B 3335  10.738  14.307   6.300 -0.1576 -0.2902 -0.1421
    1DPPC   C4B 3336  10.802  14.174   5.942 -0.0904  0.0923 -0.1810
    1DPPC   NC3 3337  25.276  23.100   6.921 -0.2352 -0.3928 -0.0037
    1DPPC   PO4 3338  24.861  23.367   6.957 -0.4134  0.1119 -0.2025
    1DPPC   GL1 3339  24.900  23.410   6.455  0.5461  0.1681  0.2215
    1DPPC   GL2 3340  24.819  23.191   6.205  0.0864  0.1805 -0.1740
    1DPPC   C1A 3341  24.733  23.662   6.103  0.2482 -0.1670 -0.0852
    1DPPC   C2A 3342  24.669  23.838   5.628 -0.0704  0.1183  0.1237
    1DPPC   C3A 3343  24.568  24.287   5.519 -0.0234  0.2274 -0.2993
    1DPPC   C4A 3344  24.593  24.772   5.789 -0.0739  0.0556 -0.1047
    1DPPC   C1B 3345  24.733  22.933   5.773  0.0345  0.1461  0.0233
    1DPPC   C2B 3346  24.507  22.984   5.327  0.1924  0.0137  0.1900
    1DPPC   C3B 3347  24.151  23.083   5.161  0.1414  0.5437 -0.1476
    1DPPC   C4B 3348  23.879  22.935   4.897  0.1777 -0.0928 -0.0996
    1DPPC   NC3 3349  12.729  19.824   7.642 -0.3306  0.0294 -0.1044
    1DPPC   PO4 3350  12.441  19.715   7.448  0.0238  0.0702  0.0569
    1DPPC   GL1 3351  12.476  19.544   7.058  0.0060 -0.0165  0.1100
    1DPPC   GL2 3352  12.723  19.312   6.884 -0.0927  0.0056 -0.0604
    1DPPC   C1A 3353  12.415  19.641   6.635 -0.0293  0.0837  0.1592
    1DPPC   C2A 3354  12.476  19.640   6.130 -0.2814 -0.0301  0.0536
    1DPPC   C3A 3355  12.613  19.632   5.709 -0.3912 -0.2743  0.2382
    1DPPC   C4A 3356  12.370  19.772   5.423  0.4952  0.1837  0.0635
    1DPPC   C1B 3357  12.804  19.381   6.402 -0.1560  0.2656  0.4871
    1DPPC   C2B 3358  12.696  19.178   5.975  0.1139 -0.0876  0.1191
    1DPPC   C3B 3359  12.355  18.822   5.831 -0.2960 -0.0897 -0.0698
    1DPPC   C4B 3360  12.152  18.739   5.397  0.0742 -0.3198 -0.2561
    1DPPC   NC3 3361   9.929  18.867   7.992 -0.0054  0.0063  0.0087
    1DPPC   PO4 3362  10.307  19.004   7.785 -0.1356  0.2014  0.2675
    1DPPC   GL1 3363  10.467  18.846   7.400  0.4094  0.0380 -0.1361
    1DPPC   GL2 3364  10.743  18.861   7.226  0.0042  0.1055 -0.0659
    1DPPC   C1A 3365  10.269  18.440   7.105  0.1148  0.0337 -0.2407
    1DPPC   C2A 3366  10.042  18.286   6.720  0.1365 -0.1269 -0.0327
    1DPPC   C3A 3367   9.817  18.323   6.311  0.2872 -0.3288 -0.4319
    1DPPC   C4A 3368   9.549  18.345   5.980  0.2085 -0.0804 -0.0924
    1DPPC   C1B 3369  10.653  18.900   6.774  0.1534 -0.0082  0.2964
    1DPPC   C2B 3370  10.524  18.648   6.427 -0.1967  0.3877 -0.0807
    1DPPC   C3B 3371  10.511  18.641   5.943 -0.0483  0.2402  0.1920
    1DPPC   C4B 3372  10.570  18.418   5.546 -0.0594 -0.0252  0.0457
    1DPPC   NC3 3373   2.302  26.333   7.107  0.2198  0.1329  0.3388
    1DPPC   PO4 3374   2.136  26.198   6.663  0.0701  0.2352 -0.0143
    1DPPC   GL1 3375   2.245  26.378   6.341  0.1051  0.1418 -0.0911
    1DPPC   GL2 3376   2.437  26.214   6.266 -0.1088 -0.2333  0.0299
    1DPPC   C1A 3377   2.162  26.372   5.925 -0.1515  0.0281  0.2475
    1DPPC   C2A 3378   2.181  26.368   5.443 -0.0673  0.1066  0.0243
    1DPPC   C3A 3379   2.394  26.270   5.115 -0.2010  0.1864  0.0409
    1DPPC   C4A 3380   2.460  26.556   4.655  0.1334 -0.1221  0.1249
    1DPPC   C1B 3381   2.554  26.663   6.063  0.0997  0.0366  0.0531
    1DPPC   C2B 3382   2.611  27.151   5.825  0.1146 -0.1428  0.1817
    1DPPC   C3B 3383   2.668  27.516   5.478 -0.0882  0.1431 -0.0966
    1DPPC   C4B 3384   3.003  27.818   5.337  0.1214  0.0182 -0.0727
    1DPPC   NC3 3385  26.035  13.113   7.090 -0.1850 -0.0272  0.1969
    1DPPC   PO4 3386  25.693  12.916   6.723  0.1986 -0.3007  0.0943
    1DPPC   GL1 3387  25.696  13.037   6.304  0.1295 -0.2589  0.3167
    1DPPC   GL2 3388  25.767  13.300   6.090  0.2897  0.0560  0.2018
    1DPPC   C1A 3389  25.441  12.858   6.035  0.0321 -0.1409 -0.2809
    1DPPC   C2A 3390  25.192  12.581   5.755 -0.0019  0.0615  0.2296
    1DPPC   C3A 3391  24.951  12.485   5.467  0.1169 -0.2727 -0.1561
    1DPPC   C4A 3392  24.872  12.200   5.057 -0.2005  0.1051  0.0988
    1DPPC   C1B 3393  25.873  13.135   5.656  0.0091  0.0938  0.2836
    1DPPC   C2B 3394  25.707  12.900   5.355  0.0640  0.0131  0.0495
    1DPPC   C3B 3395  25.272  12.867   5.221  0.2596 -0.3722  0.0758
    1DPPC   C4B 3396  24.789  12.713   5.076  0.1510 -0.4467  0.3298
    1DPPC   NC3 3397  18.763  16.062   7.851  0.0411  0.3196  0.0671
    1DPPC   PO4 3398  18.921  16.188   7.478 -0.1327  0.1431  0.0154
    1DPPC   GL1 3399  19.194  16.010   7.090 -0.0583 -0.1067 -0.0213
    1DPPC   GL2 3400  19.549  15.836   7.114  0.3900  0.3047 -0.2130
    1DPPC   C1A 3401  19.173  16.222   6.638 -0.1684 -0.1877  0.2758
    1DPPC   C2A 3402  19.281  16.113   6.177  0.2282 -0.2025  0.0109
    1DPPC   C3A 3403  19.274  16.293   5.831  0.4708 -0.0916 -0.0943
    1DPPC   C4A 3404  19.510  16.586   5.484 -0.0863 -0.0515 -0.3496
    1DPPC   C1B 3405  19.700  15.571   6.718  0.3035 -0.0741 -0.2132
    1DPPC   C2B 3406  19.704  15.314   6.376 -0.1875  0.0128 -0.0305
    1DPPC   C3B 3407  19.460  15.216   6.059  0.3056 -0.1250  0.0795
    1DPPC   C4B 3408  19.047  15.275   6.157 -0.1825  0.2162 -0.3572
    1DPPC   NC3 3409   1.074   3.037   6.092  0.2697  0.0265 -0.3080
    1DPPC   PO4 3410   0.750   2.889   5.997  0.0336 -0.0301 -0.1285
    1DPPC   GL1 3411   0.563   2.861   5.647  0.0035  0.3544  0.0517
    1DPPC   GL2 3412   0.356   3.080   5.654  0.2171  0.3298 -0.0415
    1DPPC   C1A 3413   0.635   2.662   5.332 -0.2620  0.2283  0.0194
    1DPPC   C2A 3414   0.547   2.630   4.869  0.0647  0.3059 -0.1266
    1DPPC   C3A 3415   0.368   2.720   4.519  0.0804 -0.0171 -0.0191
    1DPPC   C4A 3416   0.532   2.896   4.070 -0.0112  0.0323  0.0952
    1DPPC   C1B 3417   0.697   3.141   5.228 -0.0135  0.1286  0.1653
    1DPPC   C2B 3418   0.622   3.177   4.886  0.1396  0.0280 -0.0426
    1DPPC   C3B 3419   0.641   3.208   4.480 -0.2965 -0.1066 -0.0327
    1DPPC   C4B 3420   0.963   3.109   4.202 -0.0671  0.0210  0.1050
    1DPPC   NC3 3421  25.658  15.065   6.672 -0.0369 -0.1240 -0.2889
    1DPPC   PO4 3422  25.648  14.961   6.242  0.0913 -0.0467 -0.0887
    1DPPC   GL1 3423  25.568  14.854   5.797  0.2437  0.1958  0.2367
    1DPPC   GL2 3424  25.485  15.151   5.726  0.0068  0.2787 -0.1669
    1DPPC   C1A 3425  25.918  14.865   5.598 -0.4687 -0.1526  0.1259
    1DPPC   C2A 3426  26.197  14.768   5.357 -0.0323  0.0804 -0.3626
    1DPPC   C3A 3427  26.264  14.445   5.026  0.1100 -0.0664 -0.2088
    1DPPC   C4A 3428  26.155  14.252   4.670 -0.0988 -0.0347  0.0568
    1DPPC   C1B 3429  25.487  15.499   5.470 -0.0891  0.0857 -0.2371
    1DPPC   C2B 3430  25.386  15.795   5.078 -0.1233  0.0819 -0.0700
    1DPPC   C3B 3431  25.172  16.036   4.835 -0.1187  0.1802 -0.3011
    1DPPC   C4B 3432  25.279  16.350   4.589 -0.0988 -0.1294  0.0736
    1DPPC   NC3 3433  24.933  13.418   6.922 -0.2320 -0.0928  0.0409
    1DPPC   PO4 3434  24.712  13.030   6.826  0.2373 -0.1941  0.4131
    1DPPC   GL1 3435  24.392  12.993   6.521 -0.1342  0.1861 -0.3806
    1DPPC   GL2 3436  24.420  13.099   6.140 -0.1799 -0.0411  0.2148
    1DPPC   C1A 3437  24.052  12.828   6.346  0.0294  0.3099  0.1446
    1DPPC   C2A 3438  24.048  12.697   5.879 -0.1583 -0.1704  0.1666
    1DPPC   C3A 3439  23.923  12.458   5.554  0.1249  0.1978 -0.1328
    1DPPC   C4A 3440  23.946  12.179   5.214 -0.1134  0.1183  0.1741
    1DPPC   C1B 3441  24.274  13.124   5.729  0.0281  0.0185  0.2246
    1DPPC   C2B 3442  24.094  12.970   5.434  0.1987 -0.2892 -0.2887
    1DPPC   C3B 3443  23.714  13.090   5.327  0.3085 -0.1142  0.1918
    1DPPC   C4B 3444  23.511  13.439   5.153  0.3896 -0.0564 -0.1577
    1DPPC   NC3 3445   1.189  22.978   6.322  0.0568  0.2421 -0.2393
    1DPPC   PO4 3446   0.901  23.306   6.479  0.0752 -0.1824 -0.0925
    1DPPC   GL1 3447   0.625  23.297   6.123  0.1263 -0.1185 -0.0332
    1DPPC   GL2 3448   0.501  23.631   6.237 -0.3326  0.0327 -0.0624
    1DPPC   C1A 3449   0.623  23.069   5.709  0.1493  0.1434  0.0977
    1DPPC   C2A 3450   0.407  22.933   5.313 -0.0117 -0.0453 -0.2745
    1DPPC   C3A 3451   0.333  22.791   4.917 -0.0185  0.0059 -0.0813
    1DPPC   C4A 3452   0.050  22.436   4.948 -0.2528 -0.0486  0.2457
    1DPPC   C1B 3453   0.653  23.720   5.823 -0.0714 -0.0262 -0.1992
    1DPPC   C2B 3454   0.633  23.532   5.355  0.0328 -0.1134 -0.0228
    1DPPC   C3B 3455   0.477  23.313   4.951 -0.0860 -0.4055  0.3194
    1DPPC   C4B 3456   0.058  23.225   4.924 -0.1899  0.0415 -0.0101
    1DPPC   NC3 3457  16.097  22.478   7.162 -0.0067  0.0331 -0.0684
    1DPPC   PO4 3458  16.414  22.688   6.992  0.0229  0.1310  0.0785
    1DPPC   GL1 3459  16.644  22.719   6.642 -0.2864  0.0047 -0.0100
    1DPPC   GL2 3460  16.533  22.967   6.542  0.0892 -0.4390 -0.0615
    1DPPC   C1A 3461  16.727  22.564   6.274  0.1313  0.2966  0.1099
    1DPPC   C2A 3462  16.770  22.579   5.904  0.0561  0.0387 -0.2580
    1DPPC   C3A 3463  16.696  22.722   5.429  0.1432  0.0273 -0.2732
    1DPPC   C4A 3464  16.953  23.178   5.365 -0.2422 -0.2127  0.0487
    1DPPC   C1B 3465  16.832  23.122   6.230  0.3156 -0.0233  0.1852
    1DPPC   C2B 3466  16.790  23.277   5.824  0.1013 -0.2514  0.1590
    1DPPC   C3B 3467  16.811  23.574   5.606 -0.2102  0.0738 -0.1062
    1DPPC   C4B 3468  17.102  23.767   5.516 -0.1875 -0.4050  0.3223
    1DPPC   NC3 3469  19.682  27.125   7.891  0.1796 -0.0153 -0.2245
    1DPPC   PO4 3470  19.354  27.123   7.590 -0.1264  0.1594  0.3059
    1DPPC   GL1 3471  19.464  27.151   7.193 -0.1534  0.0767  0.0211
    1DPPC   GL2 3472  19.268  27.360   7.045  0.1684 -0.4136 -0.1890
    1DPPC   C1A 3473  19.718  26.989   6.759  0.1814 -0.1933 -0.2327
    1DPPC   C2A 3474  19.589  26.809   6.365 -0.1320 -0.0537 -0.0247
    1DPPC   C3A 3475  19.441  27.008   5.996 -0.0155 -0.0480  0.2781
    1DPPC   C4A 3476  19.691  26.954   5.610  0.0287  0.3455 -0.0829
    1DPPC   C1B 3477  19.282  27.167   6.556 -0.0775 -0.2598  0.1865
    1DPPC   C2B 3478  19.253  27.403   6.256  0.0064 -0.0137 -0.0352
    1DPPC   C3B 3479  19.305  27.739   5.957 -0.2040 -0.0208  0.2309
    1DPPC   C4B 3480  19.572  28.087   5.847 -0.0914 -0.0860  0.0341
    1DPPC   NC3 3481  26.801   3.330   6.816  0.1047 -0.1516 -0.4222
    1DPPC   PO4 3482  27.235   3.293   6.690  0.3281  0.1673  0.1392
    1DPPC   GL1 3483  27.065   3.371   6.236  0.0097 -0.2501 -0.0229
    1DPPC   GL2 3484  27.215   3.494   5.958 -0.1152  0.0244 -0.1916
    1DPPC   C1A 3485  27.120   3.016   5.954  0.0839 -0.2341 -0.0142
    1DPPC   C2A 3486  26.963   2.829   5.568  0.0900 -0.2089  0.1809
    1DPPC   C3A 3487  26.775   2.773   5.152 -0.0584 -0.1921  0.0667
    1DPPC   C4A 3488  26.790   2.623   4.763  0.0941 -0.2390  0.1708
    1DPPC   C1B 3489  27.178   3.351   5.520  0.3007  0.0262 -0.0718
    1DPPC   C2B 3490  27.202   3.093   5.166  0.2413  0.0613  0.0341
    1DPPC   C3B 3491  27.124   3.017   4.683 -0.0523  0.0487  0.1485
    1DPPC   C4B 3492  26.980   2.981   4.253 -0.0867  0.1787  0.1415
    1DPPC   NC3 3493  15.640  23.644   6.762 -0.1703 -0.1501 -0.3849
    1DPPC   PO4 3494  15.698  24.112   6.623  0.0864  0.1913 -0.0985
    1DPPC   GL1 3495  15.658  24.164   6.209  0.2102 -0.2450 -0.4379
    1DPPC   GL2 3496  15.267  24.254   6.175  0.2290 -0.2529  0.0072
    1DPPC   C1A 3497  15.743  24.465   5.905  0.2102  0.0635 -0.0982
    1DPPC   C2A 3498  15.468  24.581   5.522 -0.2323  0.0205 -0.2337
    1DPPC   C3A 3499  15.524  24.673   5.072  0.1279  0.1830 -0.1481
    1DPPC   C4A 3500  15.160  24.665   4.875 -0.1972 -0.1823  0.2045
    1DPPC   C1B 3501  15.300  24.128   5.702  0.3896  0.0075  0.1114
    1DPPC   C2B 3502  15.282  23.803   5.400 -0.1772  0.1637  0.0809
    1DPPC   C3B 3503  15.239  23.829   4.941  0.1873 -0.0530 -0.1603
    1DPPC   C4B 3504  15.251  24.175   4.733 -0.2068 -0.0422 -0.0868
    1DPPC   NC3 3505   0.904  15.210   6.121  0.0024 -0.1438  0.1262
    1DPPC   PO4 3506   1.302  15.141   6.024 -0.0788  0.0669  0.0939
    1DPPC   GL1 3507   1.457  15.130   5.663  0.4210 -0.2101 -0.1997
    1DPPC   GL2 3508   1.819  15.054   5.741  0.0101  0.1396 -0.4276
    1DPPC   C1A 3509   1.540  15.407   5.316 -0.2250 -0.1128  0.0484
    1DPPC   C2A 3510   1.478  15.627   4.902 -0.0895  0.1576 -0.2359
    1DPPC   C3A 3511   1.430  15.945   4.650  0.0368 -0.0569 -0.1092
    1DPPC   C4A 3512   1.607  16.259   4.353 -0.0955  0.1151  0.1094
    1DPPC   C1B 3513   2.142  14.844   5.372  0.1893 -0.0376 -0.2194
    1DPPC   C2B 3514   2.352  14.675   4.975  0.0845  0.0546 -0.1438
    1DPPC   C3B 3515   2.136  14.936   4.634 -0.0478 -0.1463  0.1339
    1DPPC   C4B 3516   2.087  15.122   4.219 -0.0399 -0.1993 -0.2559
    1DPPC   NC3 3517  20.727  28.104   7.376  0.2252  0.2145 -0.3969
    1DPPC   PO4 3518  20.315  27.982   7.081 -0.0736 -0.2394  0.3233
    1DPPC   GL1 3519  20.108  27.847   6.773  0.2103  0.0711  0.2839
    1DPPC   GL2 3520  20.065   0.015   6.584 -0.1534 -0.0592 -0.1080
    1DPPC   C1A 3521  20.146  27.720   6.261 -0.0423 -0.0906  0.0743
    1DPPC   C2A 3522  20.066  27.815   5.792  0.3721 -0.3791 -0.2721
    1DPPC   C3A 3523  19.849  28.038   5.434 -0.1150  0.0136 -0.1035
    1DPPC   C4A 3524  19.690   0.015   5.066 -0.0485 -0.1256  0.0031
    1DPPC   C1B 3525  19.949   0.093   6.192 -0.0071  0.0705  0.0398
    1DPPC   C2B 3526  20.049   0.187   5.755 -0.2053 -0.3303  0.3005
    1DPPC   C3B 3527  19.864   0.543   5.455  0.1273  0.0933 -0.2983
    1DPPC   C4B 3528  19.399   0.740   5.439  0.0820 -0.0926 -0.1350
    1DPPC   NC3 3529   9.199  24.831   6.904 -0.1699 -0.2310  0.0721
    1DPPC   PO4 3530   9.390  25.094   6.679 -0.0075 -0.2925  0.1070
    1DPPC   GL1 3531   9.714  25.139   6.475 -0.1177  0.2914  0.2259
    1DPPC   GL2 3532   9.947  25.295   6.329 -0.0892  0.0765  0.0642
    1DPPC   C1A 3533   9.688  25.051   5.991 -0.3422 -0.0957 -0.1868
    1DPPC   C2A 3534   9.751  25.175   5.674 -0.1637 -0.0720  0.1253
    1DPPC   C3A 3535  10.042  25.210   5.284 -0.1141 -0.2603  0.0599
    1DPPC   C4A 3536   9.940  24.967   4.839 -0.0619  0.2465 -0.1917
    1DPPC   C1B 3537   9.980  25.575   6.019  0.2871 -0.2471 -0.3220
    1DPPC   C2B 3538   9.980  25.630   5.520  0.2123  0.0020 -0.1541
    1DPPC   C3B 3539   9.805  25.941   5.273  0.1817 -0.1184  0.0209
    1DPPC   C4B 3540   9.516  26.264   5.324  0.0190 -0.0168  0.0774
    1DPPC   NC3 3541  10.583   1.692   7.340 -0.1344  0.2008 -0.1928
    1DPPC   PO4 3542  10.647   1.311   7.061  0.0232  0.2594 -0.1612
    1DPPC   GL1 3543  10.847   1.229   6.717 -0.0836 -0.3322  0.4099
    1DPPC   GL2 3544  10.910   0.868   6.531 -0.1148 -0.0014  0.0940
    1DPPC   C1A 3545  11.103   1.254   6.266  0.1940  0.0828  0.0006
    1DPPC   C2A 3546  11.215   1.251   5.761  0.0838 -0.0725 -0.1682
    1DPPC   C3A 3547  11.468   0.897   5.475 -0.0270 -0.0899 -0.2306
    1DPPC   C4A 3548  11.370   0.652   5.071  0.0455  0.1705 -0.2714
    1DPPC   C1B 3549  10.555   0.639   6.285  0.5099  0.1637  0.1729
    1DPPC   C2B 3550  10.414   0.508   5.881 -0.0668  0.1048 -0.0964
    1DPPC   C3B 3551  10.220   0.460   5.458 -0.0558 -0.1331  0.2229
    1DPPC   C4B 3552   9.985   0.629   5.160 -0.3440 -0.0850 -0.2021
    1DPPC   NC3 3553  22.234  26.353   7.441  0.1896 -0.0217  0.3519
    1DPPC   PO4 3554  22.413  26.130   7.129  0.0449  0.1841  0.1962
    1DPPC   GL1 3555  22.329  26.195   6.726  0.0254 -0.0019 -0.0006
    1DPPC   GL2 3556  22.025  26.115   6.677 -0.0432  0.1316 -0.2753
    1DPPC   C1A 3557  22.387  26.396   6.239  0.2152 -0.1750  0.1609
    1DPPC   C2A 3558  22.644  26.431   5.839  0.2632  0.0239 -0.1276
    1DPPC   C3A 3559  22.607  26.665   5.464  0.1876 -0.0926 -0.3174
    1DPPC   C4A 3560  22.432  27.140   5.569 -0.2677  0.1053  0.1294
    1DPPC   C1B 3561  22.098  25.997   6.279  0.0098  0.0088 -0.2869
    1DPPC   C2B 3562  22.371  25.856   5.899  0.0789 -0.3642  0.0483
    1DPPC   C3B 3563  22.820  25.976   5.746 -0.1390 -0.1035 -0.3691
    1DPPC   C4B 3564  23.147  26.018   5.958  0.0035  0.1245  0.1942
    1DPPC   NC3 3565  24.677   4.266   7.272 -0.0608  0.2272  0.2123
    1DPPC   PO4 3566  24.478   4.119   6.902  0.1982 -0.0436 -0.1609
    1DPPC   GL1 3567  24.608   3.780   6.601 -0.0291  0.0810  0.1207
    1DPPC   GL2 3568  24.792   3.764   6.460 -0.4172  0.2039  0.1339
    1DPPC   C1A 3569  24.316   3.738   6.313  0.3648  0.0458  0.1118
    1DPPC   C2A 3570  23.995   3.961   6.089  0.2227  0.0112  0.0078
    1DPPC   C3A 3571  23.783   3.847   5.696  0.2932 -0.1123 -0.1267
    1DPPC   C4A 3572  23.544   3.981   5.326  0.0180 -0.0601  0.1682
    1DPPC   C1B 3573  24.722   3.495   6.074 -0.0303 -0.2294 -0.1657
    1DPPC   C2B 3574  24.650   3.337   5.740  0.2051  0.0713 -0.0598
    1DPPC   C3B 3575  24.572   3.393   5.317  0.0175 -0.0940 -0.0723
    1DPPC   C4B 3576  24.459   3.630   4.986  0.0033  0.0485  0.2659
    1DPPC   NC3 3577   8.667   8.123   7.397 -0.0570  0.1618  0.0865
    1DPPC   PO4 3578   8.325   7.878   7.218 -0.0621 -0.0472 -0.1023
    1DPPC   GL1 3579   8.355   7.890   6.800 -0.1226  0.0657 -0.1575
    1DPPC   GL2 3580   8.551   8.064   6.735  0.0941 -0.0357  0.0544
    1DPPC   C1A 3581   8.360   7.742   6.327 -0.2849 -0.1647  0.1595
    1DPPC   C2A 3582   8.260   7.597   5.915 -0.0780 -0.0088  0.1788
    1DPPC   C3A 3583   8.286   7.615   5.484 -0.3942  0.0363  0.3849
    1DPPC   C4A 3584   8.078   7.721   5.198 -0.0373  0.3493 -0.0775
    1DPPC   C1B 3585   8.847   7.857   6.409 -0.0373  0.3758 -0.0348
    1DPPC   C2B 3586   8.942   7.792   6.059  0.0292 -0.0097 -0.0714
    1DPPC   C3B 3587   8.889   7.632   5.709  0.1298 -0.1656 -0.0048
    1DPPC   C4B 3588   8.873   7.818   5.294  0.4339 -0.0162 -0.0376
    1DPPC   NC3 3589  26.027  26.936   7.248  0.1408  0.0098  0.0592
    1DPPC   PO4 3590  25.589  27.132   7.112  0.1405  0.2803 -0.0159
    1DPPC   GL1 3591  25.622  26.891   6.837  0.0724  0.1567  0.1941
    1DPPC   GL2 3592  25.531  26.608   6.747 -0.1893  0.1534 -0.0469
    1DPPC   C1A 3593  25.588  26.920   6.389  0.1721  0.0183 -0.1601
    1DPPC   C2A 3594  25.493  26.685   6.002 -0.2892 -0.1885 -0.1110
    1DPPC   C3A 3595  25.523  26.516   5.533 -0.1618  0.1603  0.4124
    1DPPC   C4A 3596  25.374  26.276   5.156  0.2229 -0.0088  0.2072
    1DPPC   C1B 3597  25.458  26.403   6.484 -0.0593 -0.4433  0.0765
    1DPPC   C2B 3598  25.328  26.169   6.101  0.2600 -0.2565 -0.1055
    1DPPC   C3B 3599  25.147  26.061   5.704 -0.2496 -0.2550  0.4275
    1DPPC   C4B 3600  24.797  26.317   5.523 -0.4264 -0.2727  0.1250
    1DPPC   NC3 3601   9.094   0.864   7.036 -0.3502 -0.2852 -0.1954
    1DPPC   PO4 3602   9.400   0.638   6.921 -0.1801  0.1274  0.0394
    1DPPC   GL1 3603   9.571   0.757   6.562  0.0010 -0.2756 -0.3494
    1DPPC   GL2 3604   9.828   0.955   6.543 -0.0815 -0.1479 -0.0853
    1DPPC   C1A 3605   9.439   0.865   6.226  0.0317  0.0348 -0.0276
    1DPPC   C2A 3606   9.133   0.879   5.827  0.1174 -0.1439 -0.2365
    1DPPC   C3A 3607   8.966   0.973   5.364 -0.2741  0.3974  0.1975
    1DPPC   C4A 3608   8.910   1.159   5.117  0.0502 -0.1202  0.2553
    1DPPC   C1B 3609   9.752   1.138   6.045 -0.0409 -0.2158 -0.3114
    1DPPC   C2B 3610   9.492   1.259   5.691  0.2321  0.1312  0.2384
    1DPPC   C3B 3611   9.411   1.315   5.240 -0.2397 -0.0182  0.0097
    1DPPC   C4B 3612   9.223   1.525   4.898  0.0526 -0.0389 -0.3268
    1DPPC   NC3 3613  23.404  11.262   6.859  0.0269  0.0303 -0.1455
    1DPPC   PO4 3614  23.567  10.874   6.779  0.2587  0.2373  0.1126
    1DPPC   GL1 3615  23.640  10.745   6.425 -0.0867  0.2789 -0.2494
    1DPPC   GL2 3616  23.416  10.554   6.300  0.2670 -0.0730  0.0711
    1DPPC   C1A 3617  23.581  10.896   5.997  0.3643  0.2070 -0.2806
    1DPPC   C2A 3618  23.823  10.762   5.591  0.3005 -0.0509  0.3172
    1DPPC   C3A 3619  23.924  10.690   5.114 -0.1086 -0.1368 -0.1150
    1DPPC   C4A 3620  23.815  10.599   4.724  0.1450 -0.0650  0.1882
    1DPPC   C1B 3621  23.464  10.429   5.812 -0.0396  0.1905 -0.2725
    1DPPC   C2B 3622  23.564  10.387   5.438 -0.1889  0.3582 -0.0883
    1DPPC   C3B 3623  23.432  10.331   5.067 -0.2195 -0.0436 -0.3951
    1DPPC   C4B 3624  23.373  10.032   4.661  0.1207 -0.1225  0.3168
    1DPPC   NC3 3625   0.929   6.462   6.227  0.1635 -0.2412 -0.0372
    1DPPC   PO4 3626   1.225   6.168   6.122 -0.1854  0.1570  0.0087
    1DPPC   GL1 3627   1.123   6.421   5.785 -0.3381  0.2670  0.0755
    1DPPC   GL2 3628   1.178   6.731   5.882 -0.2965  0.2405  0.0936
    1DPPC   C1A 3629   0.966   6.516   5.313 -0.1258 -0.0916 -0.3755
    1DPPC   C2A 3630   0.793   6.639   4.962  0.0396 -0.0113  0.2425
    1DPPC   C3A 3631   0.751   6.763   4.611 -0.0431  0.1212  0.0050
    1DPPC   C4A 3632   0.467   6.776   4.179  0.0473  0.1064  0.1326
    1DPPC   C1B 3633   0.883   6.899   5.609 -0.0610  0.0691  0.0336
    1DPPC   C2B 3634   0.662   6.939   5.351 -0.2221 -0.4531  0.2310
    1DPPC   C3B 3635   0.545   7.153   4.924 -0.2893 -0.0234 -0.0496
    1DPPC   C4B 3636   0.436   7.131   4.529  0.2156 -0.0535 -0.1223
    1DPPC   NC3 3637  10.035   2.442   7.621  0.1155 -0.0318 -0.1819
    1DPPC   PO4 3638  10.086   2.638   7.217  0.1913 -0.1339  0.1706
    1DPPC   GL1 3639  10.272   2.474   6.838  0.0090 -0.0832  0.0123
    1DPPC   GL2 3640  10.056   2.203   6.822  0.1170  0.3079  0.0137
    1DPPC   C1A 3641  10.450   2.530   6.417  0.0938  0.1690 -0.2115
    1DPPC   C2A 3642  10.494   2.822   5.978  0.1725 -0.1556 -0.0416
    1DPPC   C3A 3643  10.209   3.039   5.627 -0.2947  0.0014 -0.1293
    1DPPC   C4A 3644   9.748   3.121   5.560 -0.2265 -0.0053  0.0533
    1DPPC   C1B 3645  10.285   2.046   6.415 -0.2492 -0.0659  0.2525
    1DPPC   C2B 3646  10.450   1.888   6.047  0.2374  0.0395  0.2041
    1DPPC   C3B 3647  10.636   2.016   5.706 -0.3071  0.0829 -0.2431
    1DPPC   C4B 3648  10.716   2.357   5.475  0.0021  0.0188 -0.1248
    1DIPC   NC3 3649  23.456  27.968   7.364  0.1842  0.2851 -0.0306
    1DIPC   PO4 3650  23.057  28.102   7.051 -0.1033 -0.2664  0.0436
    1DIPC   GL1 3651  23.081  27.872   6.647  0.0593 -0.1182 -0.0775
    1DIPC   GL2 3652  23.343  27.742   6.692 -0.0815 -0.3126 -0.3533
    1DIPC   C1A 3653  23.192  27.892   6.180 -0.0257  0.1062 -0.2316
    1DIPC   D2A 3654  23.209  27.914   5.692  0.2694  0.0667  0.1323
    1DIPC   D3A 3655  23.570   0.008   5.496  0.1080 -0.2623  0.0797
    1DIPC   C4A 3656  23.388   0.160   5.144  0.0963  0.1837  0.7005
    1DIPC   C1B 3657  23.629  27.995   6.410 -0.0965 -0.0278  0.0509
    1DIPC   D2B 3658  23.723  28.028   5.976 -0.2852 -0.1438  0.1625
    1DIPC   D3B 3659  23.742   0.340   6.048  0.0878 -0.1201 -0.1456
    1DIPC   C4B 3660  23.696   0.345   6.481  0.0151  0.4066  0.0388
    1DIPC   NC3 3661  20.204  10.778   6.975  0.0872 -0.1012 -0.1514
    1DIPC   PO4 3662  19.808  10.912   7.048  0.0247 -0.0711  0.0203
    1DIPC   GL1 3663  19.520  10.787   6.786 -0.2773  0.0550  0.0344
    1DIPC   GL2 3664  19.170  10.748   6.788 -0.3584 -0.0924  0.1865
    1DIPC   C1A 3665  19.542  10.977   6.315  0.2022  0.3480 -0.0423
    1DIPC   D2A 3666  19.529  11.495   6.173 -0.0227  0.0787 -0.1335
    1DIPC   D3A 3667  19.724  11.212   5.908 -0.0343  0.0724  0.2987
    1DIPC   C4A 3668  19.582  10.884   5.813 -0.1476  0.2541  0.0996
    1DIPC   C1B 3669  18.906  10.519   6.468 -0.0015 -0.0639 -0.1937
    1DIPC   D2B 3670  18.965  10.335   6.071  0.0124 -0.3193 -0.0233
    1DIPC   D3B 3671  19.116   9.965   6.141  0.2365  0.0915  0.1775
    1DIPC   C4B 3672  18.763   9.696   6.233  0.0921 -0.4744  0.0910
    1DIPC   NC3 3673   9.830  20.618   7.696  0.1940 -0.3509 -0.0083
    1DIPC   PO4 3674   9.908  20.849   7.356  0.0328 -0.1007  0.0629
    1DIPC   GL1 3675  10.001  20.639   6.990  0.1259  0.1153 -0.2374
    1DIPC   GL2 3676  10.306  20.733   6.816  0.0304 -0.2521 -0.2670
    1DIPC   C1A 3677   9.989  20.415   6.590  0.4847 -0.0356 -0.1603
    1DIPC   D2A 3678  10.108  19.996   6.361 -0.2824  0.0414 -0.1079
    1DIPC   D3A 3679  10.222  19.864   5.921  0.1408  0.0296 -0.1606
    1DIPC   C4A 3680  10.332  19.777   5.477  0.2470  0.0628 -0.0898
    1DIPC   C1B 3681  10.524  20.500   6.822 -0.0062  0.0140  0.3109
    1DIPC   D2B 3682  10.439  20.193   7.083 -0.1158  0.2451  0.0417
    1DIPC   D3B 3683  10.220  19.798   6.989  0.3216  0.0490 -0.0331
    1DIPC   C4B 3684  10.241  19.505   6.556 -0.0858  0.1006 -0.0050
    1DIPC   NC3 3685  11.857   1.461   7.456  0.0323  0.1710 -0.0174
    1DIPC   PO4 3686  12.096   1.789   7.385  0.4474  0.0584  0.1170
    1DIPC   GL1 3687  12.069   1.527   7.032 -0.4521  0.3365 -0.1532
    1DIPC   GL2 3688  12.142   1.198   6.989 -0.0598  0.1836  0.1414
    1DIPC   C1A 3689  11.900   1.507   6.528 -0.1522  0.0302 -0.0099
    1DIPC   D2A 3690  12.076   1.641   6.171  0.2696 -0.3692 -0.1174
    1DIPC   D3A 3691  11.852   1.679   5.824  0.1487 -0.1382  0.1730
    1DIPC   C4A 3692  11.405   1.697   5.835 -0.1736 -0.1067  0.1398
    1DIPC   C1B 3693  12.099   1.010   6.601 -0.0112 -0.2142 -0.0884
    1DIPC   D2B 3694  11.837   1.016   6.294 -0.1376  0.1543 -0.1645
    1DIPC   D3B 3695  12.343   0.940   6.094 -0.2449 -0.2020 -0.0453
    1DIPC   C4B 3696  12.660   0.752   5.779 -0.0995 -0.0534 -0.0912
    1DIPC   NC3 3697  25.268  20.707   6.294  0.0078 -0.1391  0.1073
    1DIPC   PO4 3698  25.233  21.217   6.274  0.2846 -0.1080 -0.0624
    1DIPC   GL1 3699  25.518  21.091   5.883  0.0163 -0.0597  0.0562
    1DIPC   GL2 3700  25.825  21.144   6.005 -0.0818 -0.1180  0.0167
    1DIPC   C1A 3701  25.659  21.088   5.420  0.0072  0.0349 -0.2921
    1DIPC   D2A 3702  25.837  21.134   4.977 -0.0643 -0.1353 -0.0664
    1DIPC   D3A 3703  25.464  21.025   4.946  0.1176  0.2271  0.0266
    1DIPC   C4A 3704  25.431  20.650   4.629  0.4300  0.1367  0.1722
    1DIPC   C1B 3705  25.934  21.507   5.789 -0.4338  0.0034 -0.0664
    1DIPC   D2B 3706  26.211  21.817   5.505  0.0096 -0.0507  0.0660
    1DIPC   D3B 3707  26.032  21.839   4.983 -0.3003  0.1639  0.1487
    1DIPC   C4B 3708  25.701  21.629   4.715  0.1378  0.1403 -0.3167
    1DIPC   NC3 3709  16.536   9.785   7.350 -0.0909 -0.4016  0.4455
    1DIPC   PO4 3710  16.844  10.142   7.325 -0.0025 -0.0167  0.0673
    1DIPC   GL1 3711  16.804  10.063   6.934 -0.3724 -0.0473  0.1381
    1DIPC   GL2 3712  16.835  10.331   6.677 -0.1274 -0.0943 -0.1214
    1DIPC   C1A 3713  16.476   9.960   6.605 -0.0049  0.5356 -0.0065
    1DIPC   D2A 3714  16.354   9.985   6.169  0.1211 -0.3787 -0.2318
    1DIPC   D3A 3715  15.992   9.908   5.959  0.0472 -0.3112  0.3281
    1DIPC   C4A 3716  15.551  10.011   5.990 -0.0006  0.1779 -0.2526
    1DIPC   C1B 3717  16.638  10.384   6.234 -0.1861  0.1048  0.2145
    1DIPC   D2B 3718  16.446  10.650   6.010 -0.1719 -0.2029 -0.2092
    1DIPC   D3B 3719  16.304  10.624   5.608  0.0782 -0.1738 -0.1845
    1DIPC   C4B 3720  16.202  10.860   5.209  0.1938 -0.0035 -0.1892
    1DIPC   NC3 3721  14.904  20.744   7.398  0.1724 -0.1116  0.1246
    1DIPC   PO4 3722  14.971  21.077   7.169 -0.3551 -0.0408 -0.0638
    1DIPC   GL1 3723  15.008  21.089   6.770 -0.0118 -0.2607 -0.1576
    1DIPC   GL2 3724  15.370  21.061   6.799  0.2090 -0.4393 -0.0884
    1DIPC   C1A 3725  15.037  21.059   6.389 -0.0049  0.3068  0.1196
    1DIPC   D2A 3726  14.996  21.179   5.938  0.2156 -0.3305  0.3746
    1DIPC   D3A 3727  14.574  21.219   5.798  0.1119 -0.0228  0.2829
    1DIPC   C4A 3728  14.541  21.350   5.422  0.1482  0.1264 -0.0956
    1DIPC   C1B 3729  15.416  20.722   6.457  0.1031 -0.1390  0.2355
    1DIPC   D2B 3730  15.224  20.708   6.062  0.0896 -0.2170 -0.0177
    1DIPC   D3B 3731  15.183  20.844   5.624  0.1024 -0.5026  0.1570
    1DIPC   C4B 3732  15.482  21.219   5.665  0.0916 -0.1549 -0.0004
    1DIPC   NC3 3733  26.797  13.684   6.535 -0.0206 -0.0104 -0.2593
    1DIPC   PO4 3734  26.550  14.018   6.718 -0.2056 -0.1208  0.1180
    1DIPC   GL1 3735  26.499  14.187   6.277  0.0834  0.0729 -0.0890
    1DIPC   GL2 3736  26.473  14.480   6.173  0.1249  0.0168  0.1048
    1DIPC   C1A 3737  26.248  13.949   5.965  0.0133 -0.0000 -0.1120
    1DIPC   D2A 3738  25.960  14.059   5.512  0.0804 -0.3010 -0.1786
    1DIPC   D3A 3739  25.785  14.384   5.353 -0.1738  0.1705  0.2473
    1DIPC   C4A 3740  25.709  14.341   4.810  0.3322 -0.0539 -0.0483
    1DIPC   C1B 3741  26.779  14.327   5.843  0.1637 -0.0286 -0.0923
    1DIPC   D2B 3742  26.998  14.127   5.580 -0.0749 -0.0402  0.0733
    1DIPC   D3B 3743  26.908  13.818   5.255 -0.1174  0.2853  0.1684
    1DIPC   C4B 3744  27.191  13.489   5.077  0.0214  0.2646 -0.2605
    1DIPC   NC3 3745  13.988  27.129   7.253  0.0522 -0.2011 -0.2026
    1DIPC   PO4 3746  13.786  27.242   6.923 -0.1597  0.3768  0.2682
    1DIPC   GL1 3747  13.709  27.265   6.542 -0.1064 -0.1536 -0.0749
    1DIPC   GL2 3748  13.489  27.409   6.519  0.2597 -0.1303  0.1504
    1DIPC   C1A 3749  13.562  27.083   6.194  0.0403  0.0478 -0.1628
    1DIPC   D2A 3750  13.668  27.086   5.763 -0.0090  0.1774 -0.1080
    1DIPC   D3A 3751  13.984  26.803   6.026  0.2588 -0.1008 -0.2683
    1DIPC   C4A 3752  13.948  26.852   6.397  0.1094 -0.1855 -0.0694
    1DIPC   C1B 3753  13.535  27.604   6.023 -0.1120  0.3063  0.3776
    1DIPC   D2B 3754  13.637  27.578   5.582 -0.1053 -0.1050 -0.0505
    1DIPC   D3B 3755  13.472  27.894   5.394  0.0925  0.4008 -0.0671
    1DIPC   C4B 3756  13.401   0.177   5.487 -0.0242  0.0815 -0.1025
    1DIPC   NC3 3757  26.095  23.667   6.812  0.0127 -0.0863 -0.1845
    1DIPC   PO4 3758  26.550  23.577   6.619  0.3084  0.0556  0.1183
    1DIPC   GL1 3759  26.517  23.317   6.277  0.0242  0.0789 -0.1254
    1DIPC   GL2 3760  26.182  23.241   6.161  0.0773  0.1343 -0.2060
    1DIPC   C1A 3761  26.730  23.247   5.839 -0.0516 -0.1374 -0.2566
    1DIPC   D2A 3762  26.723  23.085   5.452 -0.0404  0.2450  0.4412
    1DIPC   D3A 3763  27.059  23.084   5.053 -0.0452 -0.2795 -0.0743
    1DIPC   C4A 3764  27.136  22.668   4.890 -0.2650  0.4436  0.2219
    1DIPC   C1B 3765  26.292  23.474   5.797  0.0185  0.1614 -0.0337
    1DIPC   D2B 3766  26.272  23.830   5.788 -0.1000  0.3501 -0.1643
    1DIPC   D3B 3767  26.218  23.841   5.319 -0.0560 -0.2084  0.1047
    1DIPC   C4B 3768  26.201  24.119   4.999 -0.2982 -0.0755  0.0989
    1DIPC   NC3 3769  20.793   0.473   7.106  0.0835 -0.0968  0.0586
    1DIPC   PO4 3770  21.127   0.120   7.151 -0.2075 -0.0341  0.0265
    1DIPC   GL1 3771  21.080   0.284   6.693 -0.1188 -0.4339 -0.1510
    1DIPC   GL2 3772  20.988   0.645   6.492  0.0141 -0.2597  0.0461
    1DIPC   C1A 3773  20.945   0.212   6.189  0.1380  0.1064  0.1469
    1DIPC   D2A 3774  20.879   0.118   5.757 -0.1079  0.2907  0.3862
    1DIPC   D3A 3775  20.873   0.614   5.775  0.1817 -0.1047  0.1412
    1DIPC   C4A 3776  21.213   0.862   5.757  0.2045 -0.3717  0.1101
    1DIPC   C1B 3777  20.944   0.847   6.177 -0.0794 -0.1387 -0.0794
    1DIPC   D2B 3778  20.792   1.339   6.217  0.1856 -0.0030 -0.0683
    1DIPC   D3B 3779  20.561   1.286   5.863 -0.2264 -0.2880 -0.2551
    1DIPC   C4B 3780  20.850   1.338   5.513  0.1119 -0.4149  0.3036
    1DIPC   NC3 3781   7.096  10.648   7.450  0.2167  0.1211 -0.1926
    1DIPC   PO4 3782   7.160  11.016   7.078  0.0491  0.0724  0.3293
    1DIPC   GL1 3783   6.862  10.868   6.719 -0.0464  0.0729 -0.1958
    1DIPC   GL2 3784   6.839  11.134   6.514  0.0706 -0.1587 -0.0950
    1DIPC   C1A 3785   6.626  10.666   6.391 -0.1421 -0.1366  0.2467
    1DIPC   D2A 3786   6.658  10.382   6.048  0.2263 -0.2403 -0.1238
    1DIPC   D3A 3787   6.703  10.867   5.935  0.0399  0.1489  0.0403
    1DIPC   C4A 3788   7.055  11.051   5.604 -0.1733  0.2464  0.0701
    1DIPC   C1B 3789   7.106  11.140   6.128  0.2969  0.2136 -0.3593
    1DIPC   D2B 3790   7.529  11.312   6.038 -0.0165  0.1645 -0.2767
    1DIPC   D3B 3791   7.546  11.202   5.556  0.1347 -0.1083 -0.2077
    1DIPC   C4B 3792   7.880  11.189   5.280 -0.1530  0.1903 -0.1659
    1DIPC   NC3 3793   0.488  15.981   6.144  0.4041  0.1536 -0.1816
    1DIPC   PO4 3794   0.612  15.568   6.429 -0.1352 -0.0553  0.1323
    1DIPC   GL1 3795   0.533  15.503   5.915  0.1706 -0.2204  0.1678
    1DIPC   GL2 3796   0.459  15.232   5.784 -0.1013  0.1548  0.0932
    1DIPC   C1A 3797   0.769  15.757   5.590 -0.0724  0.0555 -0.1812
    1DIPC   D2A 3798   1.093  15.582   5.302  0.3875  0.2144 -0.2284
    1DIPC   D3A 3799   1.270  15.624   5.640 -0.4038  0.3148 -0.2182
    1DIPC   C4A 3800   1.416  16.026   5.755 -0.4272 -0.0258 -0.1074
    1DIPC   C1B 3801   0.226  15.006   5.470 -0.2360 -0.0389 -0.0501
    1DIPC   D2B 3802   0.201  14.977   5.011  0.1834  0.5168  0.1505
    1DIPC   D3B 3803   0.563  14.885   5.003  0.0667 -0.3351 -0.1450
    1DIPC   C4B 3804   0.793  15.089   4.728 -0.1585  0.0748  0.1753
    1DIPC   NC3 3805   4.628  18.797   7.351 -0.4063  0.1977  0.0287
    1DIPC   PO4 3806   4.996  18.880   7.577 -0.1031  0.1271 -0.0953
    1DIPC   GL1 3807   5.042  19.032   7.092  0.1362  0.0547 -0.2689
    1DIPC   GL2 3808   4.755  18.999   6.805 -0.2201 -0.0487 -0.0554
    1DIPC   C1A 3809   5.266  19.190   6.836  0.3405  0.0902 -0.0001
    1DIPC   D2A 3810   5.512  19.383   6.462 -0.1243  0.1405  0.0514
    1DIPC   D3A 3811   5.400  19.282   5.967  0.1123  0.1251 -0.2627
    1DIPC   C4A 3812   5.690  19.279   5.639 -0.4989  0.4359 -0.1603
    1DIPC   C1B 3813   4.753  18.779   6.416 -0.1991 -0.2995  0.0779
    1DIPC   D2B 3814   4.727  18.848   6.023 -0.1955  0.1630  0.2901
    1DIPC   D3B 3815   4.364  18.824   5.625 -0.0606 -0.3017 -0.0573
    1DIPC   C4B 3816   4.381  18.367   5.401  0.0239  0.1977 -0.1065
    1DIPC   NC3 3817  24.410  21.661   6.452 -0.4356 -0.0342 -0.1001
    1DIPC   PO4 3818  24.432  22.047   6.315  0.1084 -0.2743 -0.0774
    1DIPC   GL1 3819  24.172  21.834   5.978  0.1024 -0.2438  0.2106
    1DIPC   GL2 3820  24.409  21.541   5.877 -0.2068 -0.1680  0.1880
    1DIPC   C1A 3821  23.750  21.792   5.783  0.0527 -0.0819 -0.2115
    1DIPC   D2A 3822  23.352  21.601   5.847  0.0432  0.0299  0.0937
    1DIPC   D3A 3823  23.552  21.477   5.433  0.0525 -0.1411  0.3336
    1DIPC   C4A 3824  23.412  21.039   5.209 -0.0724 -0.1674  0.1040
    1DIPC   C1B 3825  24.005  21.325   5.667 -0.0867  0.3084 -0.2755
    1DIPC   D2B 3826  23.530  21.089   5.777 -0.0401 -0.0771 -0.2093
    1DIPC   D3B 3827  23.113  21.189   5.613  0.0558 -0.0858  0.1397
    1DIPC   C4B 3828  22.917  20.863   5.421  0.1312 -0.0519 -0.0613
    1DIPC   NC3 3829  19.286  14.335   7.799 -0.1678  0.0249 -0.1130
    1DIPC   PO4 3830  19.630  14.223   7.568 -0.0719  0.0117  0.0798
    1DIPC   GL1 3831  19.389  14.403   7.240  0.1611  0.0925 -0.2312
    1DIPC   GL2 3832  19.522  14.205   6.987  0.1794 -0.1155  0.2119
    1DIPC   C1A 3833  19.367  14.716   6.849  0.0462 -0.1797  0.2017
    1DIPC   D2A 3834  19.428  14.860   6.404 -0.1499  0.1741  0.1079
    1DIPC   D3A 3835  19.898  14.774   6.337  0.5298 -0.4323  0.3116
    1DIPC   C4A 3836  20.095  14.383   6.359 -0.0458  0.0898 -0.1057
    1DIPC   C1B 3837  19.728  14.193   6.661 -0.0365 -0.1188  0.1420
    1DIPC   D2B 3838  19.579  14.358   6.320 -0.1426  0.0646  0.1428
    1DIPC   D3B 3839  19.715  14.459   5.920 -0.1217  0.0957  0.1060
    1DIPC   C4B 3840  20.094  14.304   5.784  0.0982 -0.0177 -0.0964
    1DIPC   NC3 3841   8.912  18.561   8.221  0.1284  0.0708  0.0885
    1DIPC   PO4 3842   8.698  18.663   7.861  0.0695 -0.1878  0.1676
    1DIPC   GL1 3843   8.553  18.815   7.400  0.2132 -0.0184  0.0511
    1DIPC   GL2 3844   8.343  19.053   7.337  0.1452  0.1853 -0.0413
    1DIPC   C1A 3845   8.800  19.041   7.043 -0.1160  0.0907  0.0184
    1DIPC   D2A 3846   8.700  19.543   6.863 -0.2307 -0.0293  0.0317
    1DIPC   D3A 3847   8.737  19.212   6.530  0.0898 -0.2486 -0.2795
    1DIPC   C4A 3848   9.014  19.105   6.287 -0.1701  0.1436 -0.1627
    1DIPC   C1B 3849   8.291  19.203   6.860 -0.0787 -0.1759  0.0920
    1DIPC   D2B 3850   8.263  19.305   6.491  0.0507 -0.0672  0.1800
    1DIPC   D3B 3851   8.483  19.299   6.096 -0.1661 -0.3765  0.0360
    1DIPC   C4B 3852   8.643  18.885   5.947  0.0384  0.0221 -0.0088
    1DIPC   NC3 3853  15.102  25.093   7.655  0.2174  0.4095 -0.0858
    1DIPC   PO4 3854  15.022  25.119   7.155  0.0243  0.0914  0.3258
    1DIPC   GL1 3855  14.889  25.231   6.694  0.1718  0.2956 -0.2045
    1DIPC   GL2 3856  14.570  25.352   6.725  0.2638  0.1480  0.1183
    1DIPC   C1A 3857  14.978  25.370   6.337  0.2187  0.3970  0.1749
    1DIPC   D2A 3858  15.153  25.694   6.027 -0.1823 -0.1058 -0.1366
    1DIPC   D3A 3859  14.907  25.496   5.856 -0.1336 -0.3894  0.0393
    1DIPC   C4A 3860  14.492  25.290   6.065 -0.0861  0.0682 -0.1665
    1DIPC   C1B 3861  14.730  25.755   6.486  0.4454 -0.1681 -0.1054
    1DIPC   D2B 3862  15.002  26.098   6.277 -0.1163  0.0272  0.4880
    1DIPC   D3B 3863  15.162  26.225   5.920  0.0249  0.1724 -0.2219
    1DIPC   C4B 3864  14.938  26.367   5.578 -0.0722  0.1213  0.2392
    1DIPC   NC3 3865  24.058  18.638   7.063  0.0211  0.0611  0.0457
    1DIPC   PO4 3866  23.866  18.524   6.766 -0.0936  0.1974 -0.2928
    1DIPC   GL1 3867  23.712  18.445   6.482 -0.0079  0.2505  0.1821
    1DIPC   GL2 3868  23.816  18.683   6.275  0.0385 -0.3514 -0.1717
    1DIPC   C1A 3869  23.620  18.221   6.190  0.2349  0.1827  0.1245
    1DIPC   D2A 3870  23.537  18.261   5.749 -0.2914  0.0830 -0.0190
    1DIPC   D3A 3871  23.776  18.706   5.583  0.2064 -0.0417 -0.4256
    1DIPC   C4A 3872  23.638  19.004   5.433  0.0859  0.1780  0.0258
    1DIPC   C1B 3873  23.439  18.691   6.059 -0.0315 -0.0977  0.3386
    1DIPC   D2B 3874  23.247  18.611   5.573  0.1014  0.0786 -0.2799
    1DIPC   D3B 3875  23.038  18.394   5.240  0.3562  0.3775 -0.2100
    1DIPC   C4B 3876  23.172  18.062   5.178  0.1842 -0.0083 -0.2529
    1DIPC   NC3 3877  18.462  12.715   7.113  0.1135  0.1547 -0.1090
    1DIPC   PO4 3878  18.211  12.446   6.989 -0.1405 -0.0490 -0.0890
    1DIPC   GL1 3879  18.019  12.568   6.594  0.2773 -0.1757 -0.0868
    1DIPC   GL2 3880  18.031  12.851   6.659  0.4152  0.1569  0.0060
    1DIPC   C1A 3881  17.809  12.452   6.258  0.0782 -0.0508 -0.3136
    1DIPC   D2A 3882  17.702  12.340   5.844 -0.1506  0.1050  0.1934
    1DIPC   D3A 3883  18.077  12.307   5.577 -0.1684 -0.0213 -0.2240
    1DIPC   C4A 3884  18.490  12.034   5.508  0.2103 -0.2040 -0.0954
    1DIPC   C1B 3885  17.976  12.999   6.251 -0.1746  0.0806  0.0984
    1DIPC   D2B 3886  18.369  13.092   5.950  0.3087 -0.0252 -0.3156
    1DIPC   D3B 3887  18.474  12.872   5.539 -0.1367  0.0361  0.0369
    1DIPC   C4B 3888  18.509  12.548   5.338  0.0264  0.3237 -0.1009
    1DIPC   NC3 3889   2.676  21.532   6.712 -0.0885  0.1876  0.2420
    1DIPC   PO4 3890   2.783  21.154   6.831  0.0468 -0.1225 -0.0052
    1DIPC   GL1 3891   2.523  20.990   6.372 -0.0326 -0.0450 -0.0087
    1DIPC   GL2 3892   2.448  21.252   6.351  0.1376  0.1897  0.4144
    1DIPC   C1A 3893   2.715  20.815   6.015 -0.0931  0.1030  0.2268
    1DIPC   D2A 3894   3.068  20.504   5.809  0.0139  0.0760  0.0697
    1DIPC   D3A 3895   2.641  20.491   5.649 -0.1522 -0.1582  0.4066
    1DIPC   C4A 3896   2.506  20.155   5.696 -0.0695  0.2003 -0.3002
    1DIPC   C1B 3897   2.704  21.311   5.909  0.3020  0.0720 -0.3775
    1DIPC   D2B 3898   3.161  21.212   5.890 -0.0779  0.2732 -0.0739
    1DIPC   D3B 3899   3.583  21.301   5.729  0.0983  0.0774 -0.1573
    1DIPC   C4B 3900   3.929  21.203   5.640  0.0199  0.0177  0.1295
    1DIPC   NC3 3901   1.494  14.504   6.540 -0.1178 -0.2579 -0.1297
    1DIPC   PO4 3902   1.195  14.786   6.498  0.0093 -0.2243  0.0086
    1DIPC   GL1 3903   1.239  14.553   6.110  0.0900  0.0562 -0.1979
    1DIPC   GL2 3904   1.531  14.703   6.009  0.0363 -0.1199  0.1319
    1DIPC   C1A 3905   1.202  14.328   5.760  0.0404 -0.0388 -0.0890
    1DIPC   D2A 3906   1.149  14.131   5.348 -0.4782 -0.0254  0.0389
    1DIPC   D3A 3907   1.251  13.682   5.207 -0.2268 -0.1154  0.0067
    1DIPC   C4A 3908   0.978  13.404   5.028  0.1372 -0.1672 -0.1379
    1DIPC   C1B 3909   1.591  14.553   5.599  0.2080 -0.1616 -0.2505
    1DIPC   D2B 3910   1.471  14.497   5.184 -0.1243 -0.2354  0.2191
    1DIPC   D3B 3911   1.584  14.923   5.271 -0.0333 -0.0938 -0.0632
    1DIPC   C4B 3912   1.853  15.120   5.027 -0.0746 -0.3163 -0.2894
    1DIPC   NC3 3913   8.105  22.013   7.573 -0.0555 -0.0527  0.0957
    1DIPC   PO4 3914   8.401  22.223   7.325 -0.0030 -0.0893  0.0643
    1DIPC   GL1 3915   8.631  22.187   6.921 -0.0316  0.2486  0.0039
    1DIPC   GL2 3916   8.898  21.995   6.997  0.0412  0.0903 -0.1223
    1DIPC   C1A 3917   8.768  22.066   6.500 -0.2346  0.0761  0.0672
    1DIPC   D2A 3918   8.993  22.289   6.225  0.1429 -0.1301 -0.0638
    1DIPC   D3A 3919   8.704  22.317   5.931 -0.0245 -0.1465  0.3709
    1DIPC   C4A 3920   8.541  22.587   5.679 -0.0885 -0.0097  0.2038
    1DIPC   C1B 3921   9.001  21.597   6.759 -0.6218 -0.1482 -0.1730
    1DIPC   D2B 3922   9.354  21.416   6.576 -0.1104  0.0345 -0.1998
    1DIPC   D3B 3923   9.466  21.458   6.174  0.1410 -0.1533 -0.1767
    1DIPC   C4B 3924   9.534  21.381   5.697 -0.1113 -0.1153  0.1561
    1DIPC   NC3 3925  23.954  17.209   7.216 -0.0702 -0.0102 -0.1682
    1DIPC   PO4 3926  23.519  17.320   7.271  0.2204 -0.0299  0.0411
    1DIPC   GL1 3927  23.439  17.475   6.817 -0.1152 -0.0876 -0.2237
    1DIPC   GL2 3928  23.287  17.096   6.719  0.0916 -0.1023 -0.0355
    1DIPC   C1A 3929  23.360  17.324   6.336 -0.2197  0.0292 -0.1681
    1DIPC   D2A 3930  23.512  17.019   5.983 -0.0674 -0.0109 -0.1568
    1DIPC   D3A 3931  23.484  17.252   5.529 -0.1283  0.1824  0.0430
    1DIPC   C4A 3932  23.277  16.991   5.119 -0.0598 -0.1383 -0.2136
    1DIPC   C1B 3933  22.932  17.070   6.341  0.2306 -0.1930  0.0251
    1DIPC   D2B 3934  22.654  16.909   5.968 -0.4445 -0.1632  0.1993
    1DIPC   D3B 3935  23.046  16.987   5.743 -0.0323 -0.1386  0.1104
    1DIPC   C4B 3936  23.146  17.395   5.865 -0.1801 -0.0501  0.1141
    1DIPC   NC3 3937  18.999  15.327   7.323  0.0311 -0.1486 -0.0429
    1DIPC   PO4 3938  18.829  15.632   7.613  0.1234 -0.1021 -0.0791
    1DIPC   GL1 3939  18.667  15.709   7.158  0.1737  0.2056  0.0250
    1DIPC   GL2 3940  18.570  16.017   7.064 -0.2623 -0.0242  0.2852
    1DIPC   C1A 3941  18.779  15.756   6.690 -0.2584  0.5184  0.0059
    1DIPC   D2A 3942  18.839  15.780   6.236 -0.1612  0.0215  0.1346
    1DIPC   D3A 3943  19.160  15.676   5.880  0.1669  0.2595 -0.0082
    1DIPC   C4A 3944  19.507  15.631   5.762 -0.0222 -0.1508  0.1106
    1DIPC   C1B 3945  18.620  16.198   6.548 -0.4759 -0.2736  0.2326
    1DIPC   D2B 3946  18.803  16.354   6.144 -0.3366  0.0353  0.0427
    1DIPC   D3B 3947  18.615  16.197   5.917 -0.0510  0.4816 -0.2947
    1DIPC   C4B 3948  18.707  15.812   5.707  0.2809  0.1842 -0.1357
    1DIPC   NC3 3949   2.027  14.290   6.519 -0.1862 -0.2247 -0.2867
    1DIPC   PO4 3950   1.734  14.030   6.557 -0.2922 -0.0802  0.2971
    1DIPC   GL1 3951   1.982  13.946   6.204  0.1097 -0.0808  0.1675
    1DIPC   GL2 3952   1.857  14.170   5.986  0.0925 -0.0889  0.2749
    1DIPC   C1A 3953   2.322  14.110   5.916 -0.0763 -0.1808 -0.1096
    1DIPC   D2A 3954   2.558  14.431   5.724  0.1277  0.1020 -0.1548
    1DIPC   D3A 3955   2.429  14.309   5.348 -0.1362 -0.0645 -0.0746
    1DIPC   C4A 3956   2.555  14.251   4.916  0.3631  0.0561 -0.0334
    1DIPC   C1B 3957   2.009  14.366   5.606  0.0434  0.3273 -0.0116
    1DIPC   D2B 3958   1.973  14.394   5.139 -0.0416  0.2128  0.0196
    1DIPC   D3B 3959   1.859  14.628   4.920  0.0028  0.2376  0.4237
    1DIPC   C4B 3960   1.508  14.462   4.666 -0.0311 -0.0795  0.0681
    1DIPC   NC3 3961   7.786  12.322   7.631  0.2768 -0.2325 -0.0214
    1DIPC   PO4 3962   7.936  12.557   7.294 -0.1316  0.2190 -0.1681
    1DIPC   GL1 3963   8.121  12.566   6.879 -0.1034  0.1731  0.0642
    1DIPC   GL2 3964   8.272  12.336   6.755 -0.3144 -0.0087  0.1777
    1DIPC   C1A 3965   8.096  12.709   6.461  0.0120 -0.2318  0.0892
    1DIPC   D2A 3966   8.117  12.728   5.956 -0.2880 -0.0152  0.3809
    1DIPC   D3A 3967   8.261  13.054   5.654 -0.0567 -0.0151 -0.3345
    1DIPC   C4A 3968   8.201  13.478   5.819 -0.0361  0.2223 -0.0402
    1DIPC   C1B 3969   8.414  12.091   6.352  0.0248 -0.2130 -0.1655
    1DIPC   D2B 3970   8.613  12.250   5.903  0.0077  0.1968  0.2792
    1DIPC   D3B 3971   8.579  12.219   5.399  0.3346 -0.2588  0.0434
    1DIPC   C4B 3972   8.745  12.506   5.115  0.1145 -0.1310  0.2175
    1DIPC   NC3 3973   2.290  15.720   6.652  0.0554  0.0529  0.0204
    1DIPC   PO4 3974   2.097  15.517   6.237  0.4946 -0.3297  0.1886
    1DIPC   GL1 3975   2.442  15.868   6.171 -0.0489 -0.1140 -0.0321
    1DIPC   GL2 3976   2.637  15.680   5.986 -0.1496 -0.1012  0.1027
    1DIPC   C1A 3977   2.650  16.204   5.998 -0.1731 -0.0638  0.0767
    1DIPC   D2A 3978   2.754  16.339   5.568 -0.0333 -0.0470 -0.2858
    1DIPC   D3A 3979   2.835  15.859   5.480 -0.1893  0.0159 -0.1817
    1DIPC   C4A 3980   2.853  15.523   5.138 -0.0747 -0.0888  0.0381
    1DIPC   C1B 3981   2.460  15.527   5.576 -0.0903  0.1970 -0.0004
    1DIPC   D2B 3982   2.256  15.353   5.303  0.2265 -0.0602 -0.1017
    1DIPC   D3B 3983   2.393  15.326   4.836  0.2724 -0.0611 -0.1223
    1DIPC   C4B 3984   2.705  15.114   4.602  0.0393 -0.1231 -0.0949
    1DIPC   NC3 3985   3.609   7.552   6.638  0.0421 -0.0277 -0.0278
    1DIPC   PO4 3986   3.564   7.414   6.168  0.1390 -0.2989 -0.0147
    1DIPC   GL1 3987   3.665   7.170   5.778 -0.2580 -0.1113 -0.2157
    1DIPC   GL2 3988   3.508   6.876   5.610 -0.1924 -0.0604  0.0216
    1DIPC   C1A 3989   3.869   7.180   5.333  0.2148 -0.1323  0.2020
    1DIPC   D2A 3990   3.793   7.566   5.069 -0.1518  0.2629 -0.3319
    1DIPC   D3A 3991   4.041   7.554   4.651  0.3979  0.1137  0.2328
    1DIPC   C4A 3992   3.896   8.018   4.555 -0.0254 -0.2116  0.2224
    1DIPC   C1B 3993   3.396   6.952   5.193  0.0933 -0.0885  0.0561
    1DIPC   D2B 3994   3.144   7.019   4.797  0.2038  0.0650  0.0846
    1DIPC   D3B 3995   3.371   7.358   4.855 -0.0016  0.0301  0.1338
    1DIPC   C4B 3996   3.394   7.662   4.611  0.1482  0.0599  0.2694
    1DIPC   NC3 3997  26.611  23.893   6.276  0.0940  0.0003  0.1270
    1DIPC   PO4 3998  26.698  24.316   6.400 -0.0158 -0.1451 -0.3090
    1DIPC   GL1 3999  26.564  24.291   5.995 -0.0577 -0.3352  0.0967
    1DIPC   GL2 4000  26.562  24.564   5.877 -0.0553  0.0300  0.1116
    1DIPC   C1A 4001  26.626  24.113   5.561 -0.2904  0.2270 -0.0329
    1DIPC   D2A 4002  26.670  24.131   5.147  0.1323 -0.3061 -0.0421
    1DIPC   D3A 4003  26.565  23.691   4.954 -0.0576 -0.2074  0.1499
    1DIPC   C4A 4004  26.303  23.316   5.109 -0.1145 -0.2102  0.1501
    1DIPC   C1B 4005  26.372  24.555   5.443  0.0685  0.3799 -0.2362
    1DIPC   D2B 4006  26.339  24.750   5.000  0.0195 -0.2173 -0.1796
    1DIPC   D3B 4007  26.338  24.453   4.688 -0.3680  0.3369  0.1682
    1DIPC   C4B 4008  26.308  23.982   4.548 -0.1122 -0.0843 -0.0709
    1DIPC   NC3 4009  14.731   0.988   7.932  0.2419  0.1554 -0.2202
    1DIPC   PO4 4010  14.449   0.820   7.546  0.3188 -0.3750  0.0799
    1DIPC   GL1 4011  14.430   1.073   7.187  0.1177  0.4886  0.0870
    1DIPC   GL2 4012  14.449   1.350   7.125 -0.3980  0.2406  0.4941
    1DIPC   C1A 4013  14.509   1.018   6.722  0.3009  0.0502  0.0973
    1DIPC   D2A 4014  14.427   1.014   6.373  0.1465  0.3411 -0.1170
    1DIPC   D3A 4015  14.133   1.326   6.188  0.3185  0.0476 -0.1033
    1DIPC   C4A 4016  14.096   1.653   5.911 -0.0012  0.2220  0.2489
    1DIPC   C1B 4017  14.206   1.389   6.674  0.0472  0.0921 -0.1595
    1DIPC   D2B 4018  13.752   1.359   6.519 -0.0566 -0.0555 -0.2679
    1DIPC   D3B 4019  13.488   1.400   6.844  0.0675 -0.2365  0.1407
    1DIPC   C4B 4020  13.143   1.395   6.653 -0.1695  0.2605  0.1636
    1DIPC   NC3 4021  16.677   1.425   7.642  0.3179 -0.0512  0.0934
    1DIPC   PO4 4022  16.759   1.895   7.768 -0.2387 -0.4057  0.0287
    1DIPC   GL1 4023  16.525   1.894   7.439 -0.1042 -0.2531 -0.3350
    1DIPC   GL2 4024  16.651   1.857   7.276 -0.2238 -0.0162  0.0023
    1DIPC   C1A 4025  16.181   2.077   7.145 -0.0461  0.3287 -0.0638
    1DIPC   D2A 4026  16.033   2.294   6.775 -0.1570 -0.5354  0.2170
    1DIPC   D3A 4027  16.280   2.151   6.373 -0.1140 -0.3020  0.2717
    1DIPC   C4A 4028  16.479   1.743   6.351  0.1144 -0.0347  0.2864
    1DIPC   C1B 4029  16.461   1.769   6.898 -0.1504  0.0627 -0.2076
    1DIPC   D2B 4030  16.479   1.345   6.668 -0.0653 -0.4089 -0.0515
    1DIPC   D3B 4031  16.110   1.364   6.761 -0.0421  0.0409 -0.4460
    1DIPC   C4B 4032  15.738   1.250   6.469 -0.3724  0.0525  0.1865
    1DIPC   NC3 4033  24.466   9.507   6.987 -0.1746 -0.1308  0.2254
    1DIPC   PO4 4034  24.040   9.407   6.864 -0.0150  0.0073  0.0457
    1DIPC   GL1 4035  24.261   9.111   6.690 -0.0960  0.1303 -0.0860
    1DIPC   GL2 4036  24.030   8.940   6.498 -0.1762 -0.0725  0.3436
    1DIPC   C1A 4037  24.418   8.798   6.236  0.2056 -0.0425 -0.0971
    1DIPC   D2A 4038  24.786   8.615   5.986 -0.3902  0.0095 -0.2337
    1DIPC   D3A 4039  24.857   8.096   5.850 -0.2736  0.2080  0.1635
    1DIPC   C4A 4040  24.883   7.886   5.464 -0.0548 -0.1002 -0.2387
    1DIPC   C1B 4041  23.673   9.223   6.228  0.1628  0.0161 -0.0437
    1DIPC   D2B 4042  23.642   9.538   6.130  0.0008 -0.0704  0.2492
    1DIPC   D3B 4043  23.642   9.595   5.623  0.2981  0.2048  0.1297
    1DIPC   C4B 4044  23.751   9.286   5.419 -0.2515  0.0910 -0.0148
    1DIPC   NC3 4045   3.907  19.444   7.042  0.0280  0.1745  0.0927
    1DIPC   PO4 4046   3.763  19.744   6.799 -0.0549  0.0028 -0.0020
    1DIPC   GL1 4047   3.563  19.967   6.475  0.0289 -0.0589  0.2720
    1DIPC   GL2 4048   3.795  19.940   6.298  0.2828 -0.1519  0.1970
    1DIPC   C1A 4049   3.559  20.253   6.071 -0.0554 -0.1275  0.0163
    1DIPC   D2A 4050   3.476  20.283   5.643 -0.0291 -0.2289  0.1628
    1DIPC   D3A 4051   3.557  19.902   5.363 -0.1228  0.0600 -0.1284
    1DIPC   C4A 4052   3.544  19.450   5.420 -0.3927  0.0372 -0.0918
    1DIPC   C1B 4053   4.069  19.589   6.156  0.1719 -0.0996  0.2039
    1DIPC   D2B 4054   4.212  19.178   6.033  0.0627 -0.0711  0.1489
    1DIPC   D3B 4055   4.510  19.279   5.666 -0.0382  0.0099 -0.0402
    1DIPC   C4B 4056   4.915  19.180   5.695 -0.0597 -0.3122  0.0413
    1DIPC   NC3 4057  24.485  18.257   6.905 -0.0836 -0.0538  0.2585
    1DIPC   PO4 4058  24.366  17.857   6.831  0.1013  0.0097 -0.0403
    1DIPC   GL1 4059  24.093  18.104   6.615 -0.1647 -0.0699 -0.1794
    1DIPC   GL2 4060  23.897  17.912   6.576  0.1699 -0.2980 -0.3081
    1DIPC   C1A 4061  24.082  18.269   6.239 -0.0276 -0.1170 -0.3277
    1DIPC   D2A 4062  24.037  18.414   5.910  0.2902  0.1092  0.3738
    1DIPC   D3A 4063  23.952  17.938   5.761  0.0445  0.2733 -0.3532
    1DIPC   C4A 4064  24.203  17.779   5.463  0.1453 -0.0711  0.0244
    1DIPC   C1B 4065  24.125  17.745   6.246  0.0281  0.2808 -0.2361
    1DIPC   D2B 4066  24.460  17.744   5.959  0.0035 -0.1574  0.3302
    1DIPC   D3B 4067  24.467  18.117   5.707 -0.1107 -0.0067 -0.0690
    1DIPC   C4B 4068  24.585  18.100   5.282  0.2217 -0.0959  0.0590
    1DIPC   NC3 4069   5.234  20.479   7.399 -0.2749  0.1974  0.2663
    1DIPC   PO4 4070   5.587  20.278   7.593  0.0661 -0.1263 -0.2213
    1DIPC   GL1 4071   5.614  20.187   7.206  0.0702 -0.1106  0.1457
    1DIPC   GL2 4072   5.380  20.251   6.977  0.0901  0.1455  0.1201
    1DIPC   C1A 4073   5.867  20.292   6.852  0.3314 -0.0274 -0.1330
    1DIPC   D2A 4074   6.024  20.171   6.497  0.0021 -0.2031  0.4655
    1DIPC   D3A 4075   5.692  20.141   6.229 -0.3048 -0.2144 -0.0749
    1DIPC   C4A 4076   5.291  20.244   6.389 -0.0686 -0.1810  0.1895
    1DIPC   C1B 4077   4.989  20.573   6.715 -0.0163  0.0194  0.0700
    1DIPC   D2B 4078   4.580  20.844   6.728 -0.0091  0.0532 -0.1019
    1DIPC   D3B 4079   4.753  21.037   6.508 -0.1559 -0.2141  0.2561
    1DIPC   C4B 4080   4.757  20.919   6.067 -0.0717 -0.2287 -0.0088
    1DIPC   NC3 4081   6.626   8.987   6.717 -0.2675  0.0345 -0.3655
    1DIPC   PO4 4082   6.427   8.672   6.651 -0.1022  0.1378  0.1930
    1DIPC   GL1 4083   6.625   8.866   6.211  0.0739 -0.0885  0.2743
    1DIPC   GL2 4084   6.463   8.817   6.021  0.0783  0.0778  0.0824
    1DIPC   C1A 4085   6.984   8.762   5.873 -0.1662  0.0509  0.2585
    1DIPC   D2A 4086   7.199   8.682   5.501 -0.4088 -0.0446 -0.0423
    1DIPC   D3A 4087   7.346   8.941   5.179  0.2081  0.3141  0.0721
    1DIPC   C4A 4088   7.169   9.183   4.875  0.1504 -0.1242  0.1695
    1DIPC   C1B 4089   6.298   9.023   5.648  0.1321  0.2059  0.1459
    1DIPC   D2B 4090   5.992   8.990   5.291  0.1819  0.0044 -0.2785
    1DIPC   D3B 4091   5.696   8.677   5.152  0.0136 -0.1453 -0.0697
    1DIPC   C4B 4092   5.432   8.695   4.744  0.2286  0.2562 -0.0331
    1DIPC   NC3 4093  11.960  14.696   8.366  0.1129 -0.3783 -0.0346
    1DIPC   PO4 4094  11.881  14.370   8.082 -0.3074 -0.0081 -0.0620
    1DIPC   GL1 4095  11.830  14.477   7.653  0.3382 -0.4518  0.1675
    1DIPC   GL2 4096  11.921  14.657   7.330 -0.2255  0.0592 -0.0144
    1DIPC   C1A 4097  11.532  14.351   7.328  0.4539  0.0902  0.0488
    1DIPC   D2A 4098  11.423  14.373   6.840  0.2239 -0.1206 -0.0678
    1DIPC   D3A 4099  11.819  14.478   6.716  0.4458  0.2195 -0.6108
    1DIPC   C4A 4100  11.898  14.482   6.335  0.0670 -0.2364 -0.2590
    1DIPC   C1B 4101  11.986  14.270   7.191 -0.2431  0.0699  0.0141
    1DIPC   D2B 4102  11.793  13.987   6.967  0.4550 -0.3192  0.0062
    1DIPC   D3B 4103  11.639  14.077   6.497 -0.0098  0.0507  0.1094
    1DIPC   C4B 4104  11.252  14.112   6.353  0.3949  0.2158 -0.1041
    1DIPC   NC3 4105   3.174   1.889   6.999  0.0077  0.2650 -0.0090
    1DIPC   PO4 4106   3.262   1.970   6.614 -0.0569  0.0849 -0.0463
    1DIPC   GL1 4107   3.391   1.869   6.201  0.1038 -0.0851 -0.0652
    1DIPC   GL2 4108   3.124   1.827   5.946  0.1415  0.3040  0.1521
    1DIPC   C1A 4109   3.679   1.551   5.878  0.1326  0.1392 -0.0037
    1DIPC   D2A 4110   4.054   1.249   5.718 -0.1609  0.0261 -0.2743
    1DIPC   D3A 4111   3.803   1.239   5.421 -0.2732  0.0030  0.4779
    1DIPC   C4A 4112   3.901   1.442   5.094  0.2535 -0.0275 -0.1995
    1DIPC   C1B 4113   2.994   1.848   5.534 -0.0180 -0.0618 -0.0990
    1DIPC   D2B 4114   2.918   1.819   5.110  0.1103 -0.1570  0.1383
    1DIPC   D3B 4115   2.500   1.982   4.958 -0.2012 -0.0146 -0.2415
    1DIPC   C4B 4116   2.164   2.153   5.256  0.2422 -0.3708 -0.1728
    1DIPC   NC3 4117  16.217  23.101   7.158  0.0417 -0.0890  0.5350
    1DIPC   PO4 4118  15.751  23.081   7.024 -0.0838 -0.0797  0.2120
    1DIPC   GL1 4119  15.726  22.926   6.733  0.0090 -0.1588  0.3724
    1DIPC   GL2 4120  16.089  22.792   6.618 -0.0862 -0.1985  0.3107
    1DIPC   C1A 4121  15.723  23.123   6.265 -0.1494  0.0605  0.1764
    1DIPC   D2A 4122  15.350  23.097   6.018 -0.4240 -0.1232  0.4046
    1DIPC   D3A 4123  15.417  22.902   5.566  0.0173 -0.3153 -0.0648
    1DIPC   C4A 4124  15.820  22.672   5.347 -0.0928  0.0175 -0.0702
    1DIPC   C1B 4125  15.868  22.545   6.318 -0.0900  0.2516 -0.4568
    1DIPC   D2B 4126  15.505  22.628   6.062 -0.0815 -0.3036  0.0469
    1DIPC   D3B 4127  15.827  22.793   5.894  0.0761 -0.3293  0.1132
    1DIPC   C4B 4128  16.268  22.760   6.106 -0.0050 -0.0755 -0.1639
    1DIPC   NC3 4129  26.083  15.783   6.693 -0.0846 -0.1475 -0.0103
    1DIPC   PO4 4130  25.833  15.813   6.271 -0.1486 -0.1707  0.4821
    1DIPC   GL1 4131  25.950  15.494   5.905  0.1791  0.0926 -0.3074
    1DIPC   GL2 4132  26.170  15.271   5.931 -0.2033  0.0883  0.0645
    1DIPC   C1A 4133  25.962  15.336   5.406  0.2156  0.0887  0.1033
    1DIPC   D2A 4134  26.193  15.176   5.072  0.3667  0.0667  0.1751
    1DIPC   D3A 4135  25.841  14.801   5.012  0.2164  0.0728  0.3160
    1DIPC   C4A 4136  25.466  14.830   5.282 -0.1193  0.4463 -0.3069
    1DIPC   C1B 4137  26.446  15.171   5.531 -0.1496  0.0306 -0.2684
    1DIPC   D2B 4138  26.674  15.248   5.123 -0.0743 -0.2657  0.1549
    1DIPC   D3B 4139  26.559  14.841   4.907  0.0599  0.1332  0.1658
    1DIPC   C4B 4140  26.261  14.875   4.539 -0.2458 -0.2104 -0.3241
    1DIPC   NC3 4141   3.937   7.813   6.263 -0.0176  0.0773 -0.0062
    1DIPC   PO4 4142   3.577   7.997   6.416 -0.1066 -0.3719 -0.1480
    1DIPC   GL1 4143   3.532   7.915   5.990 -0.1273  0.3069 -0.1343
    1DIPC   GL2 4144   3.423   8.330   6.046 -0.4620  0.2634  0.3470
    1DIPC   C1A 4145   3.369   7.662   5.626 -0.0385  0.1856 -0.3057
    1DIPC   D2A 4146   3.336   7.758   5.138 -0.2108  0.0450 -0.0023
    1DIPC   D3A 4147   3.241   8.122   5.010  0.0283  0.0354 -0.2561
    1DIPC   C4A 4148   2.955   8.018   4.814  0.0048 -0.4575 -0.0450
    1DIPC   C1B 4149   3.642   8.392   5.779 -0.2077  0.0113  0.1581
    1DIPC   D2B 4150   4.057   8.476   5.543 -0.2577 -0.0198 -0.1233
    1DIPC   D3B 4151   4.315   8.179   5.299  0.0734  0.2141 -0.0271
    1DIPC   C4B 4152   4.776   8.167   5.055  0.1289 -0.3176 -0.2932
    1DIPC   NC3 4153  22.375   7.812   7.348 -0.0228 -0.4705  0.0560
    1DIPC   PO4 4154  22.027   7.967   7.050 -0.0177  0.3656 -0.2965
    1DIPC   GL1 4155  22.057   8.067   6.680 -0.0559 -0.1482 -0.1343
    1DIPC   GL2 4156  22.221   8.378   6.618  0.0534 -0.0022  0.0566
    1DIPC   C1A 4157  22.071   8.034   6.253  0.1826  0.2168 -0.2927
    1DIPC   D2A 4158  21.737   8.095   5.875  0.0172  0.2523 -0.3389
    1DIPC   D3A 4159  21.900   7.855   5.440 -0.2338  0.0655  0.1882
    1DIPC   C4A 4160  22.257   7.829   5.215 -0.0570  0.0082  0.2397
    1DIPC   C1B 4161  22.550   8.027   6.370  0.2611  0.0003 -0.1626
    1DIPC   D2B 4162  22.628   7.681   6.143 -0.2365  0.1082  0.0959
    1DIPC   D3B 4163  23.115   7.815   6.136  0.1123 -0.3583 -0.1477
    1DIPC   C4B 4164  23.329   7.874   5.705  0.0483 -0.1857 -0.0593
    1DIPC   NC3 4165  20.422   8.583   6.791 -0.1779  0.3874  0.1787
    1DIPC   PO4 4166  20.528   8.198   6.562 -0.0101 -0.0138  0.3246
    1DIPC   GL1 4167  20.458   7.859   6.224 -0.0094 -0.0035 -0.0757
    1DIPC   GL2 4168  20.131   7.963   6.190  0.2228 -0.3240  0.0766
    1DIPC   C1A 4169  20.390   7.548   5.933  0.0684 -0.0875  0.1043
    1DIPC   D2A 4170  20.505   7.192   5.738  0.3258 -0.1059  0.0853
    1DIPC   D3A 4171  20.521   7.556   5.383 -0.1320  0.0227 -0.2415
    1DIPC   C4A 4172  20.759   7.501   4.963  0.1744  0.0397 -0.0146
    1DIPC   C1B 4173  19.844   7.705   5.882  0.3279 -0.0528 -0.2915
    1DIPC   D2B 4174  19.539   7.613   5.439 -0.3316  0.0333 -0.0395
    1DIPC   D3B 4175  19.673   7.632   5.039 -0.0034  0.5145 -0.0052
    1DIPC   C4B 4176  20.072   7.758   4.941 -0.0599 -0.1633 -0.1522
    1DIPC   NC3 4177  14.402   2.444   8.075  0.1272  0.0118 -0.1715
    1DIPC   PO4 4178  14.467   2.607   7.621  0.1098 -0.1758 -0.0651
    1DIPC   GL1 4179  14.291   2.441   7.372  0.2101 -0.0371 -0.2182
    1DIPC   GL2 4180  14.326   2.534   7.036 -0.3558  0.0972  0.2181
    1DIPC   C1A 4181  13.983   2.257   7.185  0.1100 -0.1425 -0.0332
    1DIPC   D2A 4182  13.814   2.316   6.737  0.1525 -0.0133 -0.1825
    1DIPC   D3A 4183  14.137   2.472   6.549  0.1323  0.2565  0.2688
    1DIPC   C4A 4184  14.554   2.381   6.479 -0.1585 -0.0385  0.0362
    1DIPC   C1B 4185  14.382   2.161   6.894 -0.1305  0.0918 -0.0513
    1DIPC   D2B 4186  14.435   1.843   6.618 -0.1551 -0.2824 -0.0505
    1DIPC   D3B 4187  14.386   1.992   6.175 -0.0210 -0.2209  0.0698
    1DIPC   C4B 4188  14.658   2.277   5.970 -0.0862  0.0182  0.0419
    1DIPC   NC3 4189  25.255  17.328   6.930  0.1653  0.2643 -0.1043
    1DIPC   PO4 4190  25.401  17.709   6.794 -0.3470  0.2428  0.0783
    1DIPC   GL1 4191  25.553  17.873   6.491 -0.0052 -0.1577 -0.1434
    1DIPC   GL2 4192  25.802  17.641   6.384 -0.0876  0.3748  0.0531
    1DIPC   C1A 4193  25.443  18.189   6.274 -0.1764 -0.0236  0.1797
    1DIPC   D2A 4194  25.099  18.409   6.153  0.1052 -0.2892 -0.2311
    1DIPC   D3A 4195  25.292  18.822   6.199  0.1237 -0.2261 -0.0204
    1DIPC   C4A 4196  25.153  19.101   5.871 -0.0991  0.2746  0.1788
    1DIPC   C1B 4197  25.873  17.519   5.975  0.3279 -0.0150 -0.0307
    1DIPC   D2B 4198  25.721  17.385   5.667 -0.0147  0.0547 -0.1943
    1DIPC   D3B 4199  25.621  17.606   5.275 -0.2176 -0.0299  0.1072
    1DIPC   C4B 4200  25.736  17.299   4.951  0.4873  0.1809 -0.2295
    1DIPC   NC3 4201  21.809  25.092   7.289 -0.0331  0.1508 -0.1567
    1DIPC   PO4 4202  21.320  25.182   7.278  0.1358 -0.2160  0.2493
    1DIPC   GL1 4203  21.093  25.482   6.913  0.1046  0.3285 -0.0075
    1DIPC   GL2 4204  21.235  25.534   6.629 -0.1213 -0.0480 -0.0976
    1DIPC   C1A 4205  20.763  25.552   6.599 -0.1443  0.0146  0.2797
    1DIPC   D2A 4206  20.902  25.292   6.287 -0.2064 -0.2234 -0.3187
    1DIPC   D3A 4207  21.038  24.870   6.253 -0.0516  0.3743 -0.1008
    1DIPC   C4A 4208  21.352  24.896   5.930 -0.0840  0.1494 -0.1048
    1DIPC   C1B 4209  21.129  25.651   6.155  0.5251 -0.1019  0.0619
    1DIPC   D2B 4210  20.871  25.608   5.853  0.1854 -0.1409 -0.3112
    1DIPC   D3B 4211  21.043  25.195   5.734  0.1207  0.1940  0.1732
    1DIPC   C4B 4212  21.401  25.154   5.460 -0.2025  0.0490 -0.1901
    1DIPC   NC3 4213  11.177  11.987   7.677 -0.0709  0.0342 -0.0155
    1DIPC   PO4 4214  11.502  11.754   7.750 -0.0546  0.0076 -0.0825
    1DIPC   GL1 4215  11.583  11.744   7.356 -0.0429  0.1509 -0.4640
    1DIPC   GL2 4216  11.355  11.856   7.132 -0.2468  0.3483  0.2683
    1DIPC   C1A 4217  11.711  11.668   6.855 -0.0307 -0.3707 -0.0707
    1DIPC   D2A 4218  11.796  11.555   6.384  0.2412  0.0350 -0.3250
    1DIPC   D3A 4219  11.966  11.547   6.062  0.0504 -0.0992 -0.1494
    1DIPC   C4A 4220  11.782  11.836   5.808 -0.3052 -0.3801  0.4392
    1DIPC   C1B 4221  11.265  11.873   6.633 -0.3446  0.0990 -0.0047
    1DIPC   D2B 4222  11.103  12.073   6.357  0.2267  0.2391  0.0169
    1DIPC   D3B 4223  11.418  11.755   6.152  0.0606 -0.2453  0.0487
    1DIPC   C4B 4224  11.369  11.343   6.403 -0.2257 -0.0139  0.0239
    1DIPC   NC3 4225  24.564  25.564   7.140  0.0979  0.0331 -0.0363
    1DIPC   PO4 4226  24.533  25.261   6.874 -0.1171  0.1074  0.0156
    1DIPC   GL1 4227  24.788  25.256   6.478 -0.0537  0.0456  0.0397
    1DIPC   GL2 4228  25.100  25.285   6.514  0.1829 -0.0441  0.2576
    1DIPC   C1A 4229  24.897  25.111   6.016  0.1262 -0.1157  0.1561
    1DIPC   D2A 4230  24.688  25.253   5.586  0.0381 -0.1656  0.1213
    1DIPC   D3A 4231  24.791  24.968   5.349  0.4962  0.0444  0.1478
    1DIPC   C4A 4232  24.882  24.592   5.333 -0.0154 -0.0735  0.1755
    1DIPC   C1B 4233  25.343  25.158   6.199 -0.0483  0.0289 -0.0455
    1DIPC   D2B 4234  25.694  25.297   6.001  0.1018  0.1183 -0.3618
    1DIPC   D3B 4235  25.501  25.685   5.804 -0.0509  0.0588 -0.0313
    1DIPC   C4B 4236  25.431  25.832   5.383  0.0972  0.0763 -0.0902
    1DIPC   NC3 4237  11.829  10.472   7.358 -0.1034  0.1865 -0.3933
    1DIPC   PO4 4238  11.987  10.821   7.381 -0.1759  0.3735 -0.0997
    1DIPC   GL1 4239  12.140  10.901   6.957 -0.0301 -0.0465 -0.0933
    1DIPC   GL2 4240  12.328  10.706   6.796  0.2530 -0.0156  0.0253
    1DIPC   C1A 4241  12.205  11.189   6.584  0.2655  0.1088 -0.1005
    1DIPC   D2A 4242  12.369  11.397   6.290 -0.0199 -0.0745  0.0633
    1DIPC   D3A 4243  12.554  11.748   6.201  0.3753 -0.1860  0.0086
    1DIPC   C4A 4244  12.661  12.092   6.487 -0.1192 -0.0999 -0.1828
    1DIPC   C1B 4245  12.777  10.882   6.798 -0.3872 -0.1720  0.1093
    1DIPC   D2B 4246  13.032  11.189   6.686  0.0299 -0.0087  0.0296
    1DIPC   D3B 4247  12.833  11.248   6.346 -0.1858  0.1465 -0.2681
    1DIPC   C4B 4248  12.504  10.870   6.355  0.1591 -0.1717  0.0978
    1DIPC   NC3 4249  15.201   6.774   7.154 -0.1038 -0.2003  0.1050
    1DIPC   PO4 4250  15.192   6.415   7.509 -0.2764 -0.0526 -0.0188
    1DIPC   GL1 4251  14.749   6.436   7.220  0.0380 -0.0446  0.0172
    1DIPC   GL2 4252  14.815   6.052   7.116  0.0806  0.0065 -0.4446
    1DIPC   C1A 4253  14.547   6.838   7.094 -0.0566 -0.0772  0.0264
    1DIPC   D2A 4254  14.260   7.204   7.058  0.1158  0.0047 -0.0587
    1DIPC   D3A 4255  13.916   7.206   7.271  0.2343  0.1399  0.2744
    1DIPC   C4A 4256  13.597   7.463   7.039  0.1225  0.0975  0.2403
    1DIPC   C1B 4257  14.762   6.232   6.747  0.2396  0.1007 -0.1464
    1DIPC   D2B 4258  14.813   6.642   6.681 -0.0355  0.0276 -0.2539
    1DIPC   D3B 4259  14.986   6.808   6.356  0.1581  0.0308 -0.0332
    1DIPC   C4B 4260  14.874   7.285   6.225  0.0318 -0.0535  0.0554
    1DIPC   NC3 4261  20.556  21.986   7.251 -0.2483 -0.2249  0.1698
    1DIPC   PO4 4262  20.130  22.128   7.538  0.2023  0.1850  0.0383
    1DIPC   GL1 4263  20.046  22.161   7.094 -0.1872  0.4199  0.3309
    1DIPC   GL2 4264  19.826  22.386   6.908  0.0875  0.1570  0.1492
    1DIPC   C1A 4265  20.266  22.380   6.718  0.1741 -0.0862  0.1169
    1DIPC   D2A 4266  20.668  22.605   6.553 -0.0418 -0.1528 -0.4288
    1DIPC   D3A 4267  20.778  22.874   6.329 -0.2187  0.0673 -0.0538
    1DIPC   C4A 4268  20.708  22.848   5.885  0.2183  0.3948 -0.2977
    1DIPC   C1B 4269  19.825  22.583   6.478  0.1391  0.0058 -0.4213
    1DIPC   D2B 4270  19.815  22.475   6.115  0.5414 -0.3702 -0.0914
    1DIPC   D3B 4271  19.936  22.102   6.065  0.3382 -0.0916  0.0771
    1DIPC   C4B 4272  20.044  21.982   6.461 -0.2505 -0.0343 -0.1111
    1DIPC   NC3 4273  19.863  15.349   7.324  0.0158 -0.0513 -0.1080
    1DIPC   PO4 4274  20.288  15.599   7.341  0.1180 -0.1561 -0.1314
    1DIPC   GL1 4275  20.416  15.627   6.929  0.2283  0.0579  0.1662
    1DIPC   GL2 4276  20.708  15.480   6.899 -0.4277 -0.1288 -0.0180
    1DIPC   C1A 4277  20.463  15.662   6.499 -0.0860 -0.0046 -0.0306
    1DIPC   D2A 4278  20.409  15.582   6.128 -0.1585 -0.0784 -0.1242
    1DIPC   D3A 4279  20.320  15.259   5.785 -0.0120  0.2926  0.0849
    1DIPC   C4A 4280  20.128  15.170   5.331  0.0883 -0.1957 -0.0186
    1DIPC   C1B 4281  20.664  15.188   6.714 -0.0770  0.2581 -0.0404
    1DIPC   D2B 4282  20.609  15.098   6.206  0.0575 -0.1763  0.3007
    1DIPC   D3B 4283  20.274  14.738   6.007  0.2176 -0.1468 -0.1096
    1DIPC   C4B 4284  19.966  14.777   5.678 -0.1386  0.3312 -0.0342
    1DIPC   NC3 4285  14.041  27.644   6.788  0.2654  0.2275  0.0593
    1DIPC   PO4 4286  14.072  28.058   6.957 -0.0953 -0.0833  0.1056
    1DIPC   GL1 4287  13.939   0.232   6.576  0.1215 -0.2921  0.2908
    1DIPC   GL2 4288  13.675   0.238   6.349 -0.1550  0.3677 -0.0651
    1DIPC   C1A 4289  14.147   0.283   6.198 -0.3361  0.0788 -0.0336
    1DIPC   D2A 4290  14.204   0.415   5.767  0.0966  0.2736  0.0447
    1DIPC   D3A 4291  13.774   0.250   5.855  0.0787 -0.2086 -0.3074
    1DIPC   C4A 4292  13.722  27.989   5.775  0.2355 -0.1536 -0.1153
    1DIPC   C1B 4293  13.388   0.488   6.222 -0.1555 -0.0961 -0.0086
    1DIPC   D2B 4294  13.377   0.615   5.876 -0.0671 -0.1262 -0.1593
    1DIPC   D3B 4295  13.138   0.676   5.600 -0.0584  0.0267  0.0694
    1DIPC   C4B 4296  12.808   0.455   5.402 -0.0641 -0.0729 -0.0462
    1DIPC   NC3 4297   2.551  11.783   6.773  0.1131  0.0450 -0.0188
    1DIPC   PO4 4298   2.278  11.759   6.413  0.0715 -0.0796  0.0612
    1DIPC   GL1 4299   2.533  11.874   6.064 -0.1335  0.2496  0.1380
    1DIPC   GL2 4300   2.841  11.997   6.217  0.0184 -0.1174 -0.3395
    1DIPC   C1A 4301   2.582  11.794   5.640 -0.3845  0.1262 -0.2957
    1DIPC   D2A 4302   2.485  11.831   5.213  0.0282  0.2102  0.3983
    1DIPC   D3A 4303   2.770  12.012   4.899 -0.3691 -0.0347 -0.1295
    1DIPC   C4A 4304   3.119  12.393   5.037 -0.0969  0.2645  0.1507
    1DIPC   C1B 4305   3.315  11.864   6.208 -0.0328 -0.1950 -0.0183
    1DIPC   D2B 4306   3.666  12.064   6.006 -0.5767  0.0712 -0.1495
    1DIPC   D3B 4307   3.827  12.182   5.602  0.1022  0.0069  0.1711
    1DIPC   C4B 4308   4.197  12.056   5.469  0.0831 -0.3103  0.0439
    1DIPC   NC3 4309  21.495   6.403   6.675 -0.0058 -0.2988 -0.1649
    1DIPC   PO4 4310  21.909   6.227   6.533  0.0691  0.1869  0.0307
    1DIPC   GL1 4311  21.799   6.119   6.065  0.2990 -0.0942  0.1434
    1DIPC   GL2 4312  21.389   6.169   6.104  0.0902 -0.2455  0.0995
    1DIPC   C1A 4313  21.843   6.072   5.595 -0.0344  0.0590 -0.0122
    1DIPC   D2A 4314  21.974   6.120   5.185  0.1534 -0.2985 -0.0290
    1DIPC   D3A 4315  21.807   5.745   5.126 -0.3272 -0.2883  0.1844
    1DIPC   C4A 4316  21.751   5.393   4.758  0.2350 -0.2361 -0.1467
    1DIPC   C1B 4317  21.251   6.104   5.695 -0.2456 -0.0193 -0.0122
    1DIPC   D2B 4318  21.484   6.148   5.292  0.4138 -0.2816  0.0573
    1DIPC   D3B 4319  21.068   6.247   5.059 -0.0831  0.0537 -0.2305
    1DIPC   C4B 4320  20.697   6.483   5.027  0.1177 -0.4701  0.2776
    1DIPC   NC3 4321  10.294  12.750   7.926 -0.0548 -0.1958 -0.2018
    1DIPC   PO4 4322  10.616  12.946   7.953 -0.6108 -0.2368 -0.1047
    1DIPC   GL1 4323  10.582  13.000   7.587  0.0282 -0.1415 -0.0822
    1DIPC   GL2 4324  10.785  13.280   7.539  0.1697  0.2274  0.1017
    1DIPC   C1A 4325  10.368  13.082   7.327  0.0394  0.0473 -0.3326
    1DIPC   D2A 4326  10.436  13.254   7.005  0.0194 -0.0627 -0.1818
    1DIPC   D3A 4327  10.814  13.054   6.935 -0.1672  0.0770  0.0670
    1DIPC   C4A 4328  10.879  12.846   7.237  0.0755  0.1677  0.0699
    1DIPC   C1B 4329  11.181  13.195   7.551  0.2635 -0.1649 -0.2430
    1DIPC   D2B 4330  11.577  13.202   7.616 -0.4264  0.2058 -0.1131
    1DIPC   D3B 4331  11.628  13.034   7.191  0.0508  0.2787  0.1068
    1DIPC   C4B 4332  11.969  13.089   7.015 -0.0156 -0.2005 -0.3223
    1DIPC   NC3 4333  19.996  23.594   7.464  0.2994  0.0608  0.0877
    1DIPC   PO4 4334  20.252  23.705   7.151  0.0731  0.1172 -0.2399
    1DIPC   GL1 4335  20.383  23.664   6.764  0.0351  0.0658 -0.1961
    1DIPC   GL2 4336  20.622  23.867   6.741 -0.1287 -0.0120  0.0522
    1DIPC   C1A 4337  20.314  23.783   6.296 -0.1863  0.3146  0.1159
    1DIPC   D2A 4338  20.316  23.716   5.934  0.0125 -0.2606  0.2532
    1DIPC   D3A 4339  20.312  24.009   5.720 -0.0231  0.2007 -0.1144
    1DIPC   C4A 4340  20.538  24.319   5.641  0.1325 -0.1476 -0.0891
    1DIPC   C1B 4341  20.787  23.883   6.412 -0.2014 -0.3096  0.0302
    1DIPC   D2B 4342  20.786  23.947   5.911 -0.3955  0.2242  0.2565
    1DIPC   D3B 4343  21.127  24.140   6.029  0.0262  0.1841  0.0809
    1DIPC   C4B 4344  21.090  24.474   5.847 -0.0396  0.1618 -0.1227
    1DIPC   NC3 4345  14.205  16.267   7.847  0.1719 -0.4298 -0.1327
    1DIPC   PO4 4346  14.455  16.409   7.563 -0.2829 -0.3049  0.2184
    1DIPC   GL1 4347  14.699  16.435   7.231 -0.1846  0.1630 -0.0501
    1DIPC   GL2 4348  15.079  16.585   7.252  0.1474  0.1216 -0.0594
    1DIPC   C1A 4349  14.504  16.193   6.900  0.2892  0.0040  0.0265
    1DIPC   D2A 4350  14.710  16.026   6.477 -0.1451 -0.0707  0.0638
    1DIPC   D3A 4351  14.399  15.702   6.171 -0.4528 -0.3090 -0.0484
    1DIPC   C4A 4352  14.252  15.466   5.834 -0.0613  0.2141  0.1563
    1DIPC   C1B 4353  15.076  16.382   6.822 -0.1737 -0.1741  0.2752
    1DIPC   D2B 4354  15.403  16.198   6.558 -0.0684 -0.0390  0.2679
    1DIPC   D3B 4355  15.219  16.279   6.159 -0.0277  0.1033  0.1877
    1DIPC   C4B 4356  14.988  16.552   5.992 -0.2286  0.1372 -0.2448
    1DIPC   NC3 4357  21.381   5.402   6.403 -0.1237  0.0868  0.2058
    1DIPC   PO4 4358  21.484   5.151   6.072 -0.4531 -0.1452 -0.2905
    1DIPC   GL1 4359  21.333   5.408   5.664  0.0633  0.1582 -0.0249
    1DIPC   GL2 4360  21.592   5.651   5.546 -0.0254  0.0014  0.1619
    1DIPC   C1A 4361  20.983   5.250   5.364  0.1922  0.1190  0.2453
    1DIPC   D2A 4362  20.786   4.939   5.101 -0.1207  0.0279 -0.2108
    1DIPC   D3A 4363  20.570   5.212   4.901 -0.1480  0.2404 -0.0259
    1DIPC   C4A 4364  20.398   5.654   4.830  0.0284 -0.0110  0.0613
    1DIPC   C1B 4365  21.294   5.690   5.207 -0.3509 -0.3411 -0.0942
    1DIPC   D2B 4366  21.376   5.696   4.827  0.1079  0.2103 -0.0795
    1DIPC   D3B 4367  21.606   6.056   4.751  0.0927 -0.0315 -0.2020
    1DIPC   C4B 4368  21.578   6.535   5.018 -0.3995  0.1145  0.2153
    1DIPC   NC3 4369  19.224  20.175   7.372  0.3378  0.2220  0.2803
    1DIPC   PO4 4370  19.133  20.555   7.493  0.2923 -0.1351  0.2330
    1DIPC   GL1 4371  19.270  20.586   7.022 -0.2022 -0.1144  0.0181
    1DIPC   GL2 4372  19.448  20.834   6.831 -0.0913 -0.1336 -0.2532
    1DIPC   C1A 4373  19.087  20.608   6.637 -0.0426  0.0286  0.1365
    1DIPC   D2A 4374  18.943  20.339   6.315  0.0026 -0.5399  0.3957
    1DIPC   D3A 4375  19.011  19.999   6.121 -0.0707  0.2246 -0.1403
    1DIPC   C4A 4376  18.979  19.571   5.883 -0.0235 -0.2435 -0.0216
    1DIPC   C1B 4377  19.556  21.161   6.581  0.0226  0.1203  0.1879
    1DIPC   D2B 4378  19.467  21.494   6.879  0.2278 -0.0657 -0.0935
    1DIPC   D3B 4379  19.640  21.944   6.732  0.0243 -0.1379 -0.1714
    1DIPC   C4B 4380  19.576  22.092   6.359 -0.2782 -0.0181  0.0075
    1DIPC   NC3 4381  21.087  22.721   6.998 -0.5746  0.1397 -0.0615
    1DIPC   PO4 4382  21.467  22.542   7.214 -0.0804  0.1651 -0.2608
    1DIPC   GL1 4383  21.296  22.286   6.784  0.0215  0.2077 -0.0863
    1DIPC   GL2 4384  21.141  22.064   6.702 -0.3286  0.0742  0.1391
    1DIPC   C1A 4385  21.462  22.167   6.403  0.1736 -0.0554 -0.0478
    1DIPC   D2A 4386  21.627  22.109   5.985  0.0329  0.0596 -0.0847
    1DIPC   D3A 4387  21.208  21.915   5.806 -0.1488 -0.0643 -0.0411
    1DIPC   C4A 4388  20.847  22.227   5.647 -0.4101  0.2624 -0.3441
    1DIPC   C1B 4389  20.779  22.191   6.367  0.2945 -0.0915  0.1520
    1DIPC   D2B 4390  20.422  22.348   6.154  0.0762  0.1631  0.0923
    1DIPC   D3B 4391  20.370  22.052   5.826 -0.1700  0.1148  0.3989
    1DIPC   C4B 4392  20.042  22.228   5.613  0.2915 -0.0717  0.1592
    1DIPC   NC3 4393   1.833  25.982   6.241  0.1847 -0.3635 -0.2927
    1DIPC   PO4 4394   1.394  26.098   6.352 -0.2222  0.0929 -0.0657
    1DIPC   GL1 4395   1.506  26.306   5.930 -0.0591  0.0186  0.0681
    1DIPC   GL2 4396   1.290  26.477   5.900  0.0701 -0.2013  0.0613
    1DIPC   C1A 4397   1.340  26.017   5.608 -0.1939 -0.2626  0.3091
    1DIPC   D2A 4398   1.411  26.069   5.193  0.2213  0.1335 -0.0061
    1DIPC   D3A 4399   1.745  26.129   5.153 -0.0909  0.1482  0.2226
    1DIPC   C4A 4400   1.813  26.104   4.678  0.0724  0.0841 -0.2805
    1DIPC   C1B 4401   1.035  26.393   5.391 -0.1486  0.0996  0.1892
    1DIPC   D2B 4402   0.607  26.190   5.128 -0.0894 -0.2497 -0.2730
    1DIPC   D3B 4403   0.274  26.369   4.919 -0.1674 -0.0247 -0.3299
    1DIPC   C4B 4404  27.977  26.482   5.023  0.0648  0.2214  0.2453
    1DIPC   NC3 4405   5.428  18.802   7.299 -0.2054 -0.0687  0.3102
    1DIPC   PO4 4406   5.728  18.548   7.360  0.0180  0.3384  0.0972
    1DIPC   GL1 4407   5.613  18.504   6.892 -0.1348  0.0494  0.1173
    1DIPC   GL2 4408   5.459  18.226   6.890 -0.0778  0.1730 -0.1387
    1DIPC   C1A 4409   5.552  18.789   6.493 -0.0686  0.1699  0.1398
    1DIPC   D2A 4410   5.805  18.661   6.206  0.0101 -0.1608 -0.2343
    1DIPC   D3A 4411   5.881  18.978   5.989  0.1723 -0.2040  0.0222
    1DIPC   C4A 4412   6.326  19.119   6.000  0.0959 -0.0882 -0.0297
    1DIPC   C1B 4413   5.455  18.272   6.359  0.0155 -0.1551  0.2364
    1DIPC   D2B 4414   5.465  18.295   5.927 -0.2737 -0.1458 -0.1580
    1DIPC   D3B 4415   5.620  18.646   5.738  0.2674  0.1707 -0.1277
    1DIPC   C4B 4416   5.879  18.634   5.500  0.0777 -0.0044  0.1751
    1DIPC   NC3 4417  18.353  15.452   7.552 -0.1178 -0.1508 -0.0990
    1DIPC   PO4 4418  18.153  15.763   7.731  0.2978  0.0457  0.0184
    1DIPC   GL1 4419  18.120  15.824   7.281  0.0559 -0.0334 -0.1218
    1DIPC   GL2 4420  18.036  16.091   6.995  0.3175 -0.1801 -0.0323
    1DIPC   C1A 4421  17.793  15.656   6.863  0.0582  0.0049 -0.1139
    1DIPC   D2A 4422  17.599  15.551   6.511 -0.1121  0.2749  0.0345
    1DIPC   D3A 4423  17.767  15.881   6.332 -0.0534 -0.1885 -0.3352
    1DIPC   C4A 4424  17.590  15.988   5.909  0.0715 -0.3018 -0.1522
    1DIPC   C1B 4425  18.118  16.108   6.621 -0.3137  0.1199 -0.0763
    1DIPC   D2B 4426  18.299  15.782   6.396  0.3171 -0.3683  0.1350
    1DIPC   D3B 4427  18.279  15.647   6.841 -0.0721  0.2661  0.1917
    1DIPC   C4B 4428  18.216  15.230   6.991  0.1036  0.3818 -0.1326
    1DIPC   NC3 4429   3.460  18.693   7.480  0.0883  0.0303 -0.0910
    1DIPC   PO4 4430   3.732  18.887   7.121  0.3063  0.0020  0.1688
    1DIPC   GL1 4431   3.758  18.672   6.660 -0.0101 -0.2226  0.0204
    1DIPC   GL2 4432   3.512  18.635   6.328  0.2850 -0.0322 -0.4293
    1DIPC   C1A 4433   3.997  18.521   6.289 -0.1019 -0.1363  0.0306
    1DIPC   D2A 4434   4.347  18.550   6.058  0.1465 -0.3071  0.3349
    1DIPC   D3A 4435   4.664  18.135   5.889 -0.0773  0.3981 -0.2056
    1DIPC   C4A 4436   4.602  17.967   5.402  0.0073 -0.2979  0.1687
    1DIPC   C1B 4437   3.400  18.905   5.904  0.1535  0.2578 -0.4582
    1DIPC   D2B 4438   3.183  18.985   5.612  0.0018 -0.0085 -0.1863
    1DIPC   D3B 4439   3.098  18.574   5.470  0.3573 -0.2915 -0.2351
    1DIPC   C4B 4440   3.017  18.145   5.645  0.1381 -0.3309 -0.2611
    1DIPC   NC3 4441  13.968  26.130   7.092 -0.0754  0.1540  0.4728
    1DIPC   PO4 4442  14.280  26.310   7.244  0.1866  0.1399  0.1255
    1DIPC   GL1 4443  14.336  26.362   6.810 -0.2419  0.0539 -0.1802
    1DIPC   GL2 4444  14.208  26.074   6.621  0.1007  0.0302  0.1294
    1DIPC   C1A 4445  14.668  26.380   6.425  0.1185 -0.3339  0.2056
    1DIPC   D2A 4446  14.749  26.612   6.027 -0.1490  0.1441  0.1095
    1DIPC   D3A 4447  14.426  26.614   5.767 -0.5558  0.4540 -0.1780
    1DIPC   C4A 4448  14.532  26.702   5.290  0.2554 -0.0718 -0.1892
    1DIPC   C1B 4449  13.920  25.958   6.230 -0.0280 -0.0081  0.0081
    1DIPC   D2B 4450  13.729  25.865   5.818 -0.2067 -0.0393  0.0977
    1DIPC   D3B 4451  14.065  25.763   5.708 -0.1482 -0.0002 -0.0448
    1DIPC   C4B 4452  14.229  25.405   5.666 -0.2033 -0.1123  0.4726
    1DIPC   NC3 4453  27.793   4.941   6.810 -0.2771  0.0997 -0.1689
    1DIPC   PO4 4454  28.049   5.144   6.522  0.5036 -0.1431 -0.1126
    1DIPC   GL1 4455  27.932   5.254   6.023 -0.2040 -0.1280 -0.2128
    1DIPC   GL2 4456  27.619   5.353   5.877  0.0017 -0.4487 -0.0751
    1DIPC   C1A 4457  27.991   5.240   5.563  0.0319 -0.2685  0.2553
    1DIPC   D2A 4458  27.838   5.145   5.182  0.4873 -0.2674  0.3573
    1DIPC   D3A 4459   0.015   5.310   5.053 -0.1526  0.2673 -0.1466
    1DIPC   C4A 4460   0.265   5.453   5.317  0.0549 -0.1487 -0.2378
    1DIPC   C1B 4461  27.512   5.479   5.468  0.0754  0.1535 -0.3720
    1DIPC   D2B 4462  27.379   5.423   5.107  0.0425 -0.0452  0.0916
    1DIPC   D3B 4463  27.427   4.961   5.344 -0.2827 -0.0752  0.1156
    1DIPC   C4B 4464  27.165   4.531   5.121 -0.0238 -0.2501  0.1938
    1DIPC   NC3 4465  17.789  24.363   6.930 -0.0254  0.2251  0.2268
    1DIPC   PO4 4466  17.950  24.781   6.941  0.1027  0.1385 -0.3737
    1DIPC   GL1 4467  17.861  24.777   6.567  0.0845  0.1616  0.4210
    1DIPC   GL2 4468  17.677  25.056   6.499 -0.3990 -0.1342  0.1918
    1DIPC   C1A 4469  17.898  24.739   6.123  0.1241 -0.1284  0.1266
    1DIPC   D2A 4470  17.688  25.110   5.937 -0.3372 -0.0277 -0.1463
    1DIPC   D3A 4471  17.752  25.206   5.444 -0.0793 -0.1832  0.0132
    1DIPC   C4A 4472  18.018  25.505   5.218 -0.1487 -0.3384 -0.3593
    1DIPC   C1B 4473  17.327  24.908   6.664  0.2515  0.1271 -0.3150
    1DIPC   D2B 4474  16.881  24.987   6.833 -0.1789 -0.2145 -0.0848
    1DIPC   D3B 4475  16.889  25.049   6.327 -0.1949  0.0966  0.1567
    1DIPC   C4B 4476  16.636  25.169   5.992  0.2122  0.0277  0.2915
    1DIPC   NC3 4477  13.082  26.533   7.193 -0.0693 -0.1913  0.1827
    1DIPC   PO4 4478  13.000  26.851   6.973 -0.3309  0.0313  0.0899
    1DIPC   GL1 4479  12.965  26.812   6.657 -0.3331  0.3129 -0.0832
    1DIPC   GL2 4480  13.137  27.007   6.473  0.2550  0.0034  0.0176
    1DIPC   C1A 4481  12.811  26.489   6.360  0.1495  0.2428  0.3118
    1DIPC   D2A 4482  12.640  26.264   6.060 -0.0465  0.0798 -0.2131
    1DIPC   D3A 4483  12.918  26.609   5.885 -0.3122  0.0012 -0.0183
    1DIPC   C4A 4484  12.792  26.972   6.066  0.1552  0.4680 -0.0114
    1DIPC   C1B 4485  13.274  26.673   6.273 -0.0862  0.0479 -0.0402
    1DIPC   D2B 4486  13.611  26.384   6.121 -0.1325 -0.3758 -0.1847
    1DIPC   D3B 4487  13.517  26.309   5.677  0.2776 -0.1740  0.0362
    1DIPC   C4B 4488  13.080  26.288   5.519  0.0516  0.0720 -0.0077
    1DIPC   NC3 4489  22.282  18.136   7.916 -0.1027 -0.1652  0.1347
    1DIPC   PO4 4490  22.227  17.721   7.619 -0.1493  0.2357 -0.0681
    1DIPC   GL1 4491  22.101  17.645   7.163  0.3821 -0.0519  0.2348
    1DIPC   GL2 4492  21.938  17.860   6.972 -0.1429  0.0644  0.0091
    1DIPC   C1A 4493  22.024  17.409   6.808 -0.2122  0.2698  0.1280
    1DIPC   D2A 4494  21.827  17.143   6.505  0.1097 -0.0029  0.0074
    1DIPC   D3A 4495  21.899  17.451   6.296 -0.0767  0.1052 -0.2213
    1DIPC   C4A 4496  22.203  17.700   6.350 -0.4203  0.2101 -0.0057
    1DIPC   C1B 4497  21.844  17.855   6.596  0.1536 -0.4640 -0.2570
    1DIPC   D2B 4498  21.763  17.914   6.189 -0.2266 -0.1457 -0.0446
    1DIPC   D3B 4499  21.437  17.927   5.959  0.1853 -0.0024 -0.2085
    1DIPC   C4B 4500  21.067  17.709   5.988  0.1574 -0.0127  0.1912
    1DIPC   NC3 4501  14.497  25.929   7.525 -0.1477 -0.3014 -0.1887
    1DIPC   PO4 4502  14.972  25.981   7.217 -0.0725 -0.0055 -0.1060
    1DIPC   GL1 4503  15.138  26.018   6.743 -0.0756 -0.0084 -0.0750
    1DIPC   GL2 4504  15.174  26.296   6.747 -0.0172  0.1450  0.3062
    1DIPC   C1A 4505  15.399  25.784   6.524  0.1071  0.0903 -0.0363
    1DIPC   D2A 4506  15.660  25.800   6.117 -0.1222  0.0962  0.0364
    1DIPC   D3A 4507  15.994  25.542   6.037 -0.1452  0.0109 -0.0270
    1DIPC   C4A 4508  16.089  25.302   5.679 -0.0801 -0.1966 -0.1157
    1DIPC   C1B 4509  15.120  26.582   6.385  0.5126 -0.0569 -0.5490
    1DIPC   D2B 4510  15.201  26.740   5.942 -0.3751 -0.3099  0.2798
    1DIPC   D3B 4511  15.483  26.934   6.155 -0.2319 -0.0448  0.0645
    1DIPC   C4B 4512  15.494  26.810   6.576  0.1413  0.3518  0.2697
    1DIPC   NC3 4513  14.680  20.652   6.952  0.0034  0.0028 -0.0466
    1DIPC   PO4 4514  14.299  20.714   6.738 -0.0144 -0.0426  0.1065
    1DIPC   GL1 4515  14.549  20.780   6.405  0.3684 -0.0400  0.2324
    1DIPC   GL2 4516  14.533  21.133   6.300 -0.0395  0.1102  0.0217
    1DIPC   C1A 4517  14.701  20.734   6.045 -0.2863 -0.0533 -0.0360
    1DIPC   D2A 4518  14.675  20.797   5.615  0.2033 -0.1547 -0.0154
    1DIPC   D3A 4519  14.777  20.440   5.464 -0.3196 -0.3452 -0.3933
    1DIPC   C4A 4520  14.865  20.542   4.970  0.1429 -0.0560  0.1148
    1DIPC   C1B 4521  14.258  21.417   6.100 -0.0659  0.0285  0.1043
    1DIPC   D2B 4522  13.981  21.320   5.827 -0.2231  0.2174  0.0414
    1DIPC   D3B 4523  13.706  21.260   5.479 -0.1805  0.1978 -0.4231
    1DIPC   C4B 4524  13.770  20.944   5.256 -0.1424 -0.2751  0.2418
    1DIPC   NC3 4525   0.131  10.190   6.597 -0.0663  0.2970 -0.0612
    1DIPC   PO4 4526   0.381   9.867   6.849 -0.1666  0.0260 -0.1360
    1DIPC   GL1 4527   0.646   9.976   6.448  0.1857 -0.1158 -0.0217
    1DIPC   GL2 4528   0.877  10.157   6.419 -0.2297 -0.1637  0.0563
    1DIPC   C1A 4529   0.679   9.785   6.136 -0.1221  0.0417 -0.0173
    1DIPC   D2A 4530   0.392   9.635   5.794 -0.1623  0.1063  0.0916
    1DIPC   D3A 4531   0.709   9.377   5.632  0.2848  0.0045  0.1326
    1DIPC   C4A 4532   0.573   9.037   5.321  0.1735  0.0548  0.0822
    1DIPC   C1B 4533   1.053  10.305   6.035  0.1915  0.1143  0.2750
    1DIPC   D2B 4534   0.937  10.705   5.847  0.1649 -0.0724  0.0350
    1DIPC   D3B 4535   1.013  10.761   5.447 -0.0074 -0.4189 -0.2052
    1DIPC   C4B 4536   0.790  10.895   5.015  0.0323  0.2874  0.0211
    1DIPC   NC3 4537   7.596  23.350   7.168  0.0209  0.0306 -0.0874
    1DIPC   PO4 4538   7.298  23.516   6.944  0.0126 -0.0164  0.1531
    1DIPC   GL1 4539   7.339  23.849   6.646  0.0104  0.2467  0.3068
    1DIPC   GL2 4540   7.097  24.095   6.556  0.3349 -0.2169  0.0867
    1DIPC   C1A 4541   7.667  23.865   6.370  0.0332  0.1961  0.0420
    1DIPC   D2A 4542   7.948  23.887   5.992  0.0006 -0.0073  0.0624
    1DIPC   D3A 4543   8.017  23.501   6.132 -0.0675 -0.2868  0.3946
    1DIPC   C4A 4544   7.809  23.320   6.362 -0.4007  0.0648 -0.3613
    1DIPC   C1B 4545   7.307  24.361   6.229 -0.3313  0.1231  0.0444
    1DIPC   D2B 4546   7.467  24.491   5.855  0.0321 -0.0279 -0.1724
    1DIPC   D3B 4547   7.510  24.112   5.846 -0.1419 -0.2271  0.1937
    1DIPC   C4B 4548   7.173  23.898   6.085 -0.2025  0.0172  0.0217
    1DIPC   NC3 4549   0.522  13.731   6.431  0.0685  0.0230 -0.0447
    1DIPC   PO4 4550   0.286  14.089   6.319 -0.2192 -0.0022  0.0660
    1DIPC   GL1 4551   0.486  14.038   5.922  0.2256 -0.2424 -0.2901
    1DIPC   GL2 4552   0.731  14.107   5.983  0.0561  0.0082 -0.1543
    1DIPC   C1A 4553   0.684  14.156   5.495  0.2064  0.0290  0.2928
    1DIPC   D2A 4554   0.728  14.352   5.107 -0.0493 -0.1737  0.2128
    1DIPC   D3A 4555   1.029  14.368   4.729  0.2080 -0.2368 -0.4275
    1DIPC   C4A 4556   1.080  14.685   4.463  0.1210  0.2043 -0.0341
    1DIPC   C1B 4557   1.020  13.843   5.722  0.3243 -0.1667  0.0200
    1DIPC   D2B 4558   1.418  13.777   5.668 -0.4378 -0.0874 -0.2367
    1DIPC   D3B 4559   1.637  14.085   5.407  0.3524 -0.0050 -0.0359
    1DIPC   C4B 4560   1.429  14.104   4.972 -0.0438  0.3626 -0.1558
    1DIPC   NC3 4561  20.529   2.172   6.939  0.0233 -0.2797  0.2777
    1DIPC   PO4 4562  20.165   2.080   6.885  0.1536  0.0639  0.0355
    1DIPC   GL1 4563  20.294   2.168   6.452  0.2650  0.3174  0.2712
    1DIPC   GL2 4564  20.336   2.458   6.408  0.1360  0.1709  0.0908
    1DIPC   C1A 4565  20.206   2.063   6.048 -0.0996  0.0415 -0.1377
    1DIPC   D2A 4566  20.460   1.771   5.789 -0.0575 -0.1787  0.2187
    1DIPC   D3A 4567  20.559   1.978   5.379 -0.1091  0.1147  0.0981
    1DIPC   C4A 4568  20.191   1.876   5.094  0.1557  0.1818 -0.0608
    1DIPC   C1B 4569  20.720   2.649   6.269 -0.1697  0.0589 -0.1643
    1DIPC   D2B 4570  20.819   2.907   5.906  0.1279  0.1339  0.1353
    1DIPC   D3B 4571  20.513   3.185   5.672 -0.3991  0.1517 -0.0286
    1DIPC   C4B 4572  20.484   2.868   5.353 -0.0373 -0.0061 -0.0169
    1DIPC   NC3 4573  20.219  19.752   7.541 -0.2286 -0.2606  0.1611
    1DIPC   PO4 4574  19.738  19.869   7.366 -0.3978  0.0251 -0.1663
    1DIPC   GL1 4575  19.593  20.135   6.995  0.3170  0.1574  0.0126
    1DIPC   GL2 4576  19.774  20.396   7.031 -0.0225 -0.0964 -0.2945
    1DIPC   C1A 4577  19.451  20.310   6.686  0.1237 -0.2459 -0.2484
    1DIPC   D2A 4578  19.493  20.642   6.336 -0.2510 -0.0296 -0.2326
    1DIPC   D3A 4579  19.322  20.760   6.136  0.5096 -0.0486 -0.1742
    1DIPC   C4A 4580  19.237  20.435   5.909  0.2173 -0.2006  0.2147
    1DIPC   C1B 4581  20.060  20.354   6.786  0.1933  0.1882 -0.1804
    1DIPC   D2B 4582  20.460  20.315   6.907 -0.1994  0.2301  0.1993
    1DIPC   D3B 4583  20.494  20.748   6.760  0.0099 -0.3173  0.1160
    1DIPC   C4B 4584  20.759  20.783   6.455 -0.0128  0.2078 -0.2583
    1DIPC   NC3 4585   9.780  10.708   7.306  0.1452 -0.1811 -0.1427
    1DIPC   PO4 4586  10.103  11.034   7.324 -0.0456  0.2002 -0.1866
    1DIPC   GL1 4587  10.278  11.111   7.017 -0.1458  0.0863 -0.0091
    1DIPC   GL2 4588  10.274  11.442   7.035 -0.0874  0.0180  0.1153
    1DIPC   C1A 4589  10.410  11.077   6.597  0.2082  0.2130  0.2671
    1DIPC   D2A 4590  10.382  11.006   6.139 -0.3953 -0.0474  0.1727
    1DIPC   D3A 4591  10.203  10.575   6.178 -0.1224  0.2153 -0.0798
    1DIPC   C4A 4592  10.193  10.406   5.764 -0.0666  0.3688  0.0492
    1DIPC   C1B 4593  10.376  11.555   6.691  0.2014 -0.0763  0.0445
    1DIPC   D2B 4594  10.540  11.464   6.285  0.2014 -0.1785 -0.2515
    1DIPC   D3B 4595  10.393  11.677   5.908  0.1945 -0.0240 -0.1059
    1DIPC   C4B 4596  10.547  11.386   5.609  0.3132 -0.0423  0.0585
    1DIPC   NC3 4597   8.877  17.414   7.887 -0.1868 -0.0113  0.0249
    1DIPC   PO4 4598   9.039  17.785   7.670 -0.3353 -0.0192 -0.0288
    1DIPC   GL1 4599   8.866  17.923   7.214  0.0246 -0.0151  0.0980
    1DIPC   GL2 4600   8.663  18.160   7.093  0.0908 -0.0774 -0.1068
    1DIPC   C1A 4601   8.940  17.531   6.933 -0.1584 -0.0407 -0.2288
    1DIPC   D2A 4602   8.668  17.208   6.856 -0.0655  0.0445 -0.2423
    1DIPC   D3A 4603   8.600  16.918   6.501  0.0816  0.1908  0.4395
    1DIPC   C4A 4604   8.336  16.699   6.806  0.0242 -0.1306  0.4120
    1DIPC   C1B 4605   8.716  18.530   7.041 -0.2716 -0.0921 -0.0934
    1DIPC   D2B 4606   8.955  18.730   6.700  0.0383  0.0835  0.0744
    1DIPC   D3B 4607   8.487  18.791   6.721  0.0152  0.0056  0.1020
    1DIPC   C4B 4608   8.237  18.849   6.353 -0.0643 -0.1777  0.0408
    1DIPC   NC3 4609  15.800  27.435   7.372 -0.0844  0.0141  0.3030
    1DIPC   PO4 4610  16.110  27.147   7.533 -0.2141  0.0054 -0.1838
    1DIPC   GL1 4611  16.129  27.047   7.068  0.0249 -0.2409 -0.1125
    1DIPC   GL2 4612  15.857  26.950   6.923 -0.2879  0.0313  0.3904
    1DIPC   C1A 4613  16.314  27.334   6.782 -0.1703  0.0151  0.2235
    1DIPC   D2A 4614  16.346  27.422   6.339 -0.2553 -0.0887  0.2447
    1DIPC   D3A 4615  15.896  27.636   6.338 -0.0157  0.0263 -0.0341
    1DIPC   C4A 4616  15.718  27.989   6.208  0.2407 -0.0178 -0.1406
    1DIPC   C1B 4617  15.792  27.213   6.509  0.2110 -0.1255 -0.0015
    1DIPC   D2B 4618  15.842  27.214   6.068  0.0818  0.0755 -0.2398
    1DIPC   D3B 4619  16.284  27.175   5.833  0.0365  0.1396 -0.1103
    1DIPC   C4B 4620  16.246  26.789   5.660 -0.1779  0.0672  0.1581
    1DIPC   NC3 4621  15.641  28.046   7.647  0.0127  0.0919 -0.0908
    1DIPC   PO4 4622  15.941  28.117   7.285 -0.0649  0.1403 -0.2502
    1DIPC   GL1 4623  15.941   0.292   7.055  0.2894 -0.1318  0.0574
    1DIPC   GL2 4624  15.684   0.452   7.155 -0.1302  0.0630  0.2180
    1DIPC   C1A 4625  16.034   0.449   6.670  0.0153  0.1805 -0.0143
    1DIPC   D2A 4626  15.891   0.738   6.334  0.3577 -0.0557 -0.1688
    1DIPC   D3A 4627  15.677   0.657   5.911  0.0116 -0.1221 -0.0318
    1DIPC   C4A 4628  15.451   1.018   5.730 -0.0446  0.0611 -0.0925
    1DIPC   C1B 4629  15.719   0.790   6.864 -0.1021  0.1047 -0.0358
    1DIPC   D2B 4630  15.669   1.315   6.947  0.1870  0.0396 -0.3237
    1DIPC   D3B 4631  15.316   1.156   6.693 -0.1508 -0.1193  0.2238
    1DIPC   C4B 4632  15.361   0.720   6.493  0.1887 -0.1776 -0.2955
    1DIPC   NC3 4633  10.513  15.280   7.698  0.2711 -0.1118 -0.0492
    1DIPC   PO4 4634  10.885  15.314   7.578 -0.0229 -0.1682  0.2965
    1DIPC   GL1 4635  10.787  15.528   7.215  0.0588 -0.0591  0.1360
    1DIPC   GL2 4636  10.550  15.570   7.176  0.3127  0.0111  0.0278
    1DIPC   C1A 4637  10.924  15.508   6.796 -0.0302  0.0563 -0.0783
    1DIPC   D2A 4638  10.758  15.579   6.361 -0.2818 -0.3088  0.0870
    1DIPC   D3A 4639  10.442  15.400   6.201  0.1632 -0.0690  0.2446
    1DIPC   C4A 4640  10.446  15.092   5.880  0.1028  0.0188  0.1457
    1DIPC   C1B 4641  10.572  15.883   6.897 -0.0842 -0.0973  0.0706
    1DIPC   D2B 4642  10.635  16.216   6.912 -0.3140  0.0301 -0.2576
    1DIPC   D3B 4643  10.902  16.161   6.571  0.2311  0.1404  0.0987
    1DIPC   C4B 4644  11.312  16.290   6.383  0.0704  0.0755  0.1371
    1DIPC   NC3 4645  21.547  10.822   6.848  0.0448  0.0969  0.2970
    1DIPC   PO4 4646  21.136  11.025   6.890  0.0013  0.0166  0.1013
    1DIPC   GL1 4647  20.875  11.307   6.545  0.0828 -0.1240  0.0759
    1DIPC   GL2 4648  21.043  11.562   6.597  0.0271  0.0689  0.0344
    1DIPC   C1A 4649  20.888  11.355   6.062 -0.1070 -0.0158  0.3622
    1DIPC   D2A 4650  20.813  11.243   5.631 -0.1698  0.1675 -0.0356
    1DIPC   D3A 4651  20.990  10.868   5.568  0.1603 -0.1387 -0.2124
    1DIPC   C4A 4652  21.000  10.700   5.049 -0.0029 -0.3361 -0.1944
    1DIPC   C1B 4653  21.280  11.521   6.214 -0.0098  0.0446  0.0179
    1DIPC   D2B 4654  21.444  11.710   5.913  0.0716  0.1742  0.0253
    1DIPC   D3B 4655  21.263  11.493   5.530 -0.1114  0.0486 -0.1982
    1DIPC   C4B 4656  21.389  11.596   5.118  0.0796  0.0314  0.0043
    1DIPC   NC3 4657   0.617  19.044   6.385  0.0628  0.3512 -0.1975
    1DIPC   PO4 4658   0.415  18.639   6.532  0.2446 -0.1100  0.0516
    1DIPC   GL1 4659   0.348  18.321   6.232  0.0463 -0.3316 -0.0305
    1DIPC   GL2 4660   0.613  18.170   6.168 -0.0012 -0.0259 -0.0186
    1DIPC   C1A 4661   0.174  18.098   5.901 -0.0946 -0.0175 -0.0445
    1DIPC   D2A 4662   0.083  18.014   5.574 -0.1225 -0.0862  0.0479
    1DIPC   D3A 4663   0.309  17.730   5.371 -0.0705 -0.2353  0.0512
    1DIPC   C4A 4664   0.338  17.928   5.003  0.2352  0.0445  0.0359
    1DIPC   C1B 4665   0.684  18.302   5.644  0.0804  0.0233 -0.1771
    1DIPC   D2B 4666   0.940  18.425   5.291 -0.2223 -0.2904 -0.1884
    1DIPC   D3B 4667   1.140  18.711   5.654 -0.2465 -0.1599 -0.1398
    1DIPC   C4B 4668   1.488  18.506   5.926 -0.4074  0.0312 -0.0979
    1DIPC   NC3 4669  15.343   1.528   7.483 -0.3038 -0.1495  0.2194
    1DIPC   PO4 4670  15.224   1.936   7.290 -0.2373 -0.2027  0.3731
    1DIPC   GL1 4671  15.301   2.202   7.035  0.0113  0.0943 -0.0121
    1DIPC   GL2 4672  15.568   2.357   6.981 -0.0690 -0.1833  0.0158
    1DIPC   C1A 4673  15.117   2.460   6.721 -0.1908  0.0985  0.2662
    1DIPC   D2A 4674  14.921   2.605   6.307  0.1194 -0.0327 -0.2180
    1DIPC   D3A 4675  14.664   2.803   6.050 -0.1143  0.1136 -0.3833
    1DIPC   C4A 4676  14.675   3.081   5.753 -0.1791 -0.3585  0.1498
    1DIPC   C1B 4677  15.466   2.153   6.597  0.0166  0.0522 -0.1434
    1DIPC   D2B 4678  15.741   2.253   6.249 -0.1038 -0.2944  0.1014
    1DIPC   D3B 4679  16.090   2.570   6.254 -0.1932 -0.0496  0.0411
    1DIPC   C4B 4680  15.955   2.961   6.222  0.2278  0.0869 -0.0635
    1DIPC   NC3 4681   5.555   9.770   6.872 -0.1089 -0.0140 -0.1996
    1DIPC   PO4 4682   5.658   9.270   6.703  0.1385  0.2889  0.0093
    1DIPC   GL1 4683   5.776   9.676   6.450 -0.3386  0.3704  0.2331
    1DIPC   GL2 4684   5.978   9.763   6.427 -0.0629  0.1471  0.1765
    1DIPC   C1A 4685   5.720   9.774   6.002 -0.1905 -0.1441  0.1121
    1DIPC   D2A 4686   6.026   9.790   5.640  0.2534 -0.0596 -0.2075
    1DIPC   D3A 4687   6.240   9.956   5.228 -0.0521 -0.1924  0.1920
    1DIPC   C4A 4688   6.650   9.952   5.238  0.2041 -0.0387 -0.1137
    1DIPC   C1B 4689   6.238   9.967   6.074 -0.2736  0.0489 -0.0367
    1DIPC   D2B 4690   6.311  10.205   5.701 -0.1572 -0.2869 -0.0528
    1DIPC   D3B 4691   6.216  10.627   5.795  0.0848  0.0163  0.1970
    1DIPC   C4B 4692   5.745  10.690   5.645  0.1867  0.0241  0.0212
    1DIPC   NC3 4693   0.539  24.921   6.557  0.2505 -0.3325  0.0888
    1DIPC   PO4 4694   0.565  24.411   6.563 -0.0566 -0.0101  0.0103
    1DIPC   GL1 4695   0.629  24.517   6.105 -0.1899  0.0257 -0.0619
    1DIPC   GL2 4696   0.797  24.232   6.033 -0.3533 -0.0706  0.1176
    1DIPC   C1A 4697   0.496  24.589   5.646 -0.0800 -0.0104 -0.1414
    1DIPC   D2A 4698   0.080  24.757   5.391  0.1248 -0.0594  0.0597
    1DIPC   D3A 4699   0.037  25.131   5.187  0.2269 -0.0337 -0.0701
    1DIPC   C4A 4700   0.386  25.238   4.823  0.0419 -0.0304 -0.0665
    1DIPC   C1B 4701   1.234  24.198   5.817  0.0227 -0.0948 -0.0876
    1DIPC   D2B 4702   1.525  24.001   5.498  0.0152 -0.0310 -0.0042
    1DIPC   D3B 4703   1.462  23.812   5.142 -0.0269 -0.1057  0.3104
    1DIPC   C4B 4704   1.361  23.801   4.736 -0.0421 -0.1159  0.0631
    1DIPC   NC3 4705   5.939  14.465   6.957  0.2070  0.2891  0.1275
    1DIPC   PO4 4706   6.205  14.151   6.855  0.0199 -0.0287 -0.0522
    1DIPC   GL1 4707   6.302  14.425   6.451  0.1428  0.2953 -0.2270
    1DIPC   GL2 4708   6.273  14.682   6.636 -0.1073 -0.2395 -0.0409
    1DIPC   C1A 4709   6.366  14.518   6.005  0.2636  0.2326  0.0182
    1DIPC   D2A 4710   6.457  14.459   5.556  0.0052  0.2497  0.0719
    1DIPC   D3A 4711   6.559  14.501   5.170 -0.0011  0.1159  0.0542
    1DIPC   C4A 4712   6.364  14.672   4.771 -0.1856  0.3295 -0.0665
    1DIPC   C1B 4713   6.208  14.919   6.198 -0.0555 -0.2095  0.2974
    1DIPC   D2B 4714   6.116  14.874   5.777  0.1483 -0.4115  0.1347
    1DIPC   D3B 4715   6.077  14.739   5.258 -0.2069 -0.0018 -0.2572
    1DIPC   C4B 4716   6.133  14.261   5.149 -0.0625  0.0182 -0.0748
    1DIPC   NC3 4717  23.812   4.008   7.143 -0.1366  0.1716 -0.2987
    1DIPC   PO4 4718  23.396   3.817   7.367 -0.1225  0.0654 -0.0175
    1DIPC   GL1 4719  23.423   3.897   6.882 -0.1486 -0.2016  0.0937
    1DIPC   GL2 4720  23.364   4.175   6.666  0.2128 -0.0222 -0.3753
    1DIPC   C1A 4721  23.182   3.671   6.530 -0.0496 -0.0493 -0.0890
    1DIPC   D2A 4722  22.969   3.585   6.230 -0.0960  0.0191  0.1153
    1DIPC   D3A 4723  22.830   3.371   5.825  0.1703  0.1182 -0.2636
    1DIPC   C4A 4724  22.691   3.360   5.395  0.2019 -0.2104 -0.0522
    1DIPC   C1B 4725  23.110   4.165   6.368  0.3197  0.0268  0.0517
    1DIPC   D2B 4726  22.639   4.109   6.238 -0.0194  0.0659 -0.0442
    1DIPC   D3B 4727  22.368   4.335   6.031  0.1634 -0.0517 -0.2428
    1DIPC   C4B 4728  22.288   4.352   5.529  0.0920 -0.1584  0.1423
    1DIPC   NC3 4729   2.844  27.668   7.416 -0.1507 -0.0615 -0.1586
    1DIPC   PO4 4730   2.598  27.608   6.964 -0.0903  0.1103 -0.0365
    1DIPC   GL1 4731   2.741  27.551   6.543 -0.1158  0.3226  0.0406
    1DIPC   GL2 4732   2.858  27.187   6.400 -0.1391  0.1903 -0.2691
    1DIPC   C1A 4733   2.560  27.527   6.171 -0.1928 -0.0185  0.1176
    1DIPC   D2A 4734   2.293  27.576   5.821  0.0501  0.2465  0.1665
    1DIPC   D3A 4735   2.478  27.929   5.718 -0.0752 -0.1558  0.2911
    1DIPC   C4A 4736   2.978  27.970   5.794  0.1575 -0.1682  0.0747
    1DIPC   C1B 4737   3.076  27.517   6.086 -0.0322  0.0671  0.2459
    1DIPC   D2B 4738   3.503  27.377   6.058  0.4886 -0.1399 -0.1692
    1DIPC   D3B 4739   3.565  26.947   5.848  0.1398  0.5068 -0.1464
    1DIPC   C4B 4740   3.797  26.611   5.944  0.1600 -0.1739 -0.1514
    1DIPC   NC3 4741  18.840  21.270   7.768 -0.2619  0.1335 -0.0878
    1DIPC   PO4 4742  18.792  21.692   7.555 -0.2304 -0.0337 -0.1949
    1DIPC   GL1 4743  18.898  21.540   7.122  0.2701  0.1975  0.0614
    1DIPC   GL2 4744  18.835  21.811   6.875 -0.0119  0.0405 -0.0967
    1DIPC   C1A 4745  19.011  21.330   6.775  0.3226  0.0059  0.2482
    1DIPC   D2A 4746  19.050  21.071   6.517 -0.0109  0.0041  0.0979
    1DIPC   D3A 4747  19.100  21.194   6.068 -0.2526  0.2838 -0.0420
    1DIPC   C4A 4748  18.995  20.862   5.683  0.4050  0.2848 -0.1381
    1DIPC   C1B 4749  19.177  21.851   6.551 -0.0925 -0.0224  0.1736
    1DIPC   D2B 4750  19.251  21.580   6.268 -0.2230  0.1102 -0.2403
    1DIPC   D3B 4751  19.531  21.683   5.821  0.2559 -0.1656 -0.1796
    1DIPC   C4B 4752  19.554  22.088   5.759  0.1340  0.2677  0.5360
    1DIPC   NC3 4753   5.468   6.348   6.820  0.1279  0.1364 -0.1941
    1DIPC   PO4 4754   5.831   6.630   6.664 -0.2817  0.1984  0.0934
    1DIPC   GL1 4755   5.718   6.425   6.343 -0.0835 -0.1232  0.2274
    1DIPC   GL2 4756   5.384   6.349   6.307 -0.0813 -0.1378 -0.2605
    1DIPC   C1A 4757   5.920   6.249   6.081 -0.1708 -0.4014 -0.1638
    1DIPC   D2A 4758   6.270   6.160   6.032 -0.1555 -0.1383  0.0488
    1DIPC   D3A 4759   6.250   6.408   5.679 -0.0645  0.2302 -0.0037
    1DIPC   C4A 4760   6.475   6.537   5.278 -0.1282 -0.2337  0.3370
    1DIPC   C1B 4761   5.468   6.423   5.884  0.2581 -0.2246  0.2342
    1DIPC   D2B 4762   5.783   6.504   5.526 -0.1430  0.0179  0.0630
    1DIPC   D3B 4763   5.717   6.481   5.137 -0.0587 -0.2149 -0.1739
    1DIPC   C4B 4764   6.057   6.481   4.861 -0.1729 -0.0039 -0.0498
    1DIPC   NC3 4765  14.576  24.818   6.908  0.0823 -0.0643  0.2356
    1DIPC   PO4 4766  14.124  24.791   6.747 -0.1347  0.2009 -0.1645
    1DIPC   GL1 4767  14.379  24.728   6.444  0.1820 -0.0219 -0.1266
    1DIPC   GL2 4768  14.531  24.417   6.410 -0.0840 -0.0442 -0.1184
    1DIPC   C1A 4769  14.693  24.833   6.073 -0.1859  0.2663 -0.0802
    1DIPC   D2A 4770  14.755  25.055   5.711  0.1357  0.0706 -0.0373
    1DIPC   D3A 4771  14.925  24.863   5.279  0.3603  0.1225  0.1357
    1DIPC   C4A 4772  15.292  25.096   5.110  0.1534 -0.1746 -0.1201
    1DIPC   C1B 4773  14.726  24.287   5.992 -0.0013 -0.0002  0.2694
    1DIPC   D2B 4774  14.945  24.539   5.744  0.0480 -0.1686  0.0932
    1DIPC   D3B 4775  15.034  24.355   5.340 -0.1096 -0.1660 -0.2407
    1DIPC   C4B 4776  15.397  24.217   5.175  0.0324  0.1189 -0.3399
    1DIPC   NC3 4777  22.644   0.153   7.283 -0.0180  0.0667  0.0157
    1DIPC   PO4 4778  22.244  27.995   7.277  0.2919  0.1271  0.0447
    1DIPC   GL1 4779  22.031  27.924   6.905  0.5048 -0.0905 -0.4116
    1DIPC   GL2 4780  22.174  27.682   6.753  0.2510  0.1826  0.1323
    1DIPC   C1A 4781  21.936   0.217   6.476 -0.2498  0.1749 -0.0067
    1DIPC   D2A 4782  22.061   0.441   6.097  0.1675  0.0384 -0.0240
    1DIPC   D3A 4783  22.002   0.252   5.710  0.1841 -0.2586  0.1924
    1DIPC   C4A 4784  22.383   0.164   5.452 -0.0230 -0.1200 -0.2977
    1DIPC   C1B 4785  22.211  27.834   6.345 -0.0912  0.4783  0.2520
    1DIPC   D2B 4786  22.262  28.087   5.969  0.1363 -0.1411 -0.1098
    1DIPC   D3B 4787  22.127  27.803   5.542 -0.0062  0.0074 -0.2893
    1DIPC   C4B 4788  21.748  27.607   5.470  0.1299  0.2496 -0.1079
    1DIPC   NC3 4789  16.844   5.046   7.250 -0.3835  0.1000 -0.2708
    1DIPC   PO4 4790  17.290   4.943   7.255 -0.3156  0.0697 -0.0838
    1DIPC   GL1 4791  17.346   4.806   6.841  0.1099 -0.2671  0.0345
    1DIPC   GL2 4792  17.428   5.101   6.725 -0.0994 -0.0958 -0.0347
    1DIPC   C1A 4793  17.266   4.360   6.766  0.0002  0.4043  0.1829
    1DIPC   D2A 4794  16.899   4.217   6.487  0.1174  0.2171  0.0398
    1DIPC   D3A 4795  16.642   3.976   6.766  0.0404 -0.0063  0.1487
    1DIPC   C4A 4796  16.337   3.853   6.503  0.0777  0.1239  0.0175
    1DIPC   C1B 4797  17.425   4.804   6.374  0.1334 -0.1390 -0.0133
    1DIPC   D2B 4798  17.611   4.797   5.930  0.0415  0.3225  0.0137
    1DIPC   D3B 4799  17.428   4.459   5.577  0.0605  0.0909  0.1698
    1DIPC   C4B 4800  16.984   4.441   5.566  0.2903  0.1578  0.0482
    1DIPC   NC3 4801   6.970   6.644   7.407 -0.1818  0.1595  0.0667
    1DIPC   PO4 4802   6.839   6.849   6.979 -0.1145 -0.1383 -0.2810
    1DIPC   GL1 4803   6.841   6.756   6.595 -0.0133  0.4238 -0.2542
    1DIPC   GL2 4804   7.022   6.564   6.348  0.3103 -0.1452 -0.0853
    1DIPC   C1A 4805   6.617   6.702   6.135 -0.0053  0.0127 -0.0487
    1DIPC   D2A 4806   6.545   6.852   5.688  0.0062 -0.2519  0.0607
    1DIPC   D3A 4807   6.592   7.112   5.392 -0.0803  0.1490 -0.1918
    1DIPC   C4A 4808   6.777   7.216   5.041 -0.1162 -0.0794 -0.1312
    1DIPC   C1B 4809   7.495   6.450   6.479  0.2326  0.3067 -0.3136
    1DIPC   D2B 4810   7.925   6.475   6.618 -0.0729 -0.1171  0.0380
    1DIPC   D3B 4811   8.234   6.276   6.382 -0.0423 -0.3253  0.2570
    1DIPC   C4B 4812   8.351   6.286   5.930 -0.3048  0.1452  0.0111
    1DIPC   NC3 4813   4.043   5.588   6.409 -0.3308  0.1550 -0.0366
    1DIPC   PO4 4814   3.655   5.612   6.239 -0.3351  0.1284 -0.1268
    1DIPC   GL1 4815   3.714   5.555   5.789  0.3839  0.0998 -0.0280
    1DIPC   GL2 4816   3.416   5.520   5.649  0.2703 -0.2064  0.1704
    1DIPC   C1A 4817   3.974   5.527   5.407  0.2682  0.1001  0.1059
    1DIPC   D2A 4818   4.263   5.419   5.121 -0.2565  0.3314  0.1225
    1DIPC   D3A 4819   4.300   5.498   4.620  0.0733 -0.0421 -0.2212
    1DIPC   C4A 4820   4.589   5.437   4.379  0.2577 -0.1090 -0.4599
    1DIPC   C1B 4821   3.468   5.674   5.292  0.1922  0.3752  0.0501
    1DIPC   D2B 4822   3.349   5.590   4.834 -0.1387 -0.3771 -0.2121
    1DIPC   D3B 4823   3.557   5.301   4.618  0.2365  0.1360  0.0927
    1DIPC   C4B 4824   3.924   5.225   4.362  0.1745  0.0632 -0.1040
    1DIPC   NC3 4825  21.285  18.610   7.149  0.0821  0.1564 -0.2798
    1DIPC   PO4 4826  21.461  19.041   7.285  0.1017  0.1018 -0.0226
    1DIPC   GL1 4827  21.355  19.051   6.904 -0.1983 -0.0743 -0.1103
    1DIPC   GL2 4828  21.711  18.988   6.751 -0.4716 -0.1708  0.1312
    1DIPC   C1A 4829  21.222  19.253   6.572  0.1836  0.0576 -0.2170
    1DIPC   D2A 4830  20.756  19.300   6.429 -0.0522  0.1448  0.3016
    1DIPC   D3A 4831  20.833  19.601   6.054  0.1140 -0.0883  0.1804
    1DIPC   C4A 4832  20.475  19.957   5.954 -0.0361 -0.0107  0.2327
    1DIPC   C1B 4833  21.594  18.793   6.313 -0.2548 -0.2484 -0.2176
    1DIPC   D2B 4834  21.419  18.855   5.937  0.1247 -0.0590  0.1123
    1DIPC   D3B 4835  21.393  19.141   5.562  0.1261 -0.2681  0.1543
    1DIPC   C4B 4836  21.650  19.479   5.525  0.0140  0.3880  0.0726
    1DIPC   NC3 4837   1.872  18.194   6.660 -0.3579 -0.1173  0.3335
    1DIPC   PO4 4838   1.828  17.784   6.936  0.2313 -0.1119  0.1725
    1DIPC   GL1 4839   1.576  17.855   6.500 -0.0374 -0.0329  0.1186
    1DIPC   GL2 4840   1.647  18.171   6.239  0.0814  0.1368  0.0598
    1DIPC   C1A 4841   1.588  17.689   6.103 -0.1069  0.0083 -0.1652
    1DIPC   D2A 4842   1.725  17.595   5.698 -0.1992 -0.0271 -0.0552
    1DIPC   D3A 4843   1.672  17.529   5.348 -0.0108  0.1740  0.4243
    1DIPC   C4A 4844   1.606  17.694   4.879  0.1131 -0.0752  0.1333
    1DIPC   C1B 4845   1.848  18.150   5.798 -0.1372 -0.2534  0.0503
    1DIPC   D2B 4846   1.990  18.043   5.418  0.0004 -0.0145  0.4541
    1DIPC   D3B 4847   2.051  17.877   5.106 -0.1606 -0.0768 -0.1539
    1DIPC   C4B 4848   2.071  17.837   4.700  0.0291 -0.1090  0.3540
    1DIPC   NC3 4849   2.055  10.999   6.843  0.1536 -0.0077  0.3386
    1DIPC   PO4 4850   1.736  10.548   6.755  0.1788  0.0105  0.0782
    1DIPC   GL1 4851   1.873  10.848   6.398  0.3378  0.0371  0.0490
    1DIPC   GL2 4852   2.269  10.803   6.240  0.2327  0.2533 -0.1391
    1DIPC   C1A 4853   1.860  11.274   6.239 -0.2481  0.2067 -0.2711
    1DIPC   D2A 4854   1.644  11.536   5.953 -0.0137  0.2396  0.1583
    1DIPC   D3A 4855   1.523  11.704   5.594  0.0811 -0.0430 -0.1342
    1DIPC   C4A 4856   1.541  11.467   5.165  0.0656  0.0610 -0.0855
    1DIPC   C1B 4857   2.352  11.118   5.988  0.1923 -0.1830 -0.0437
    1DIPC   D2B 4858   2.237  11.479   5.965  0.1248 -0.0943 -0.0146
    1DIPC   D3B 4859   1.979  11.249   5.687  0.0022  0.1419  0.0437
    1DIPC   C4B 4860   1.833  10.927   5.882  0.3478 -0.0696  0.0481
    1DIPC   NC3 4861   3.210  19.733   6.766 -0.1056 -0.0918  0.4799
    1DIPC   PO4 4862   2.981  20.101   6.715 -0.0648  0.1807 -0.0112
    1DIPC   GL1 4863   3.024  20.293   6.358  0.1018 -0.1012 -0.2246
    1DIPC   GL2 4864   3.147  20.631   6.395  0.1728 -0.5423  0.0123
    1DIPC   C1A 4865   2.681  20.284   6.117  0.2120  0.1994 -0.1201
    1DIPC   D2A 4866   2.298  20.411   6.008 -0.0457 -0.4014 -0.0834
    1DIPC   D3A 4867   2.136  20.437   5.477  0.3140 -0.2080  0.0963
    1DIPC   C4A 4868   2.144  20.721   5.080 -0.1409 -0.0792 -0.1353
    1DIPC   C1B 4869   3.390  20.853   6.108 -0.1814  0.0312 -0.1220
    1DIPC   D2B 4870   3.826  21.015   6.093 -0.2449 -0.1331  0.0228
    1DIPC   D3B 4871   3.782  20.699   5.873  0.2121  0.1853  0.0443
    1DIPC   C4B 4872   3.406  20.807   5.602  0.1114 -0.0645  0.2689
    1DIPC   NC3 4873  27.812  23.657   6.810  0.1138  0.3220  0.0354
    1DIPC   PO4 4874  27.583  23.927   6.493  0.2591  0.3510 -0.0582
    1DIPC   GL1 4875  27.264  24.102   6.152 -0.0021 -0.5586 -0.3514
    1DIPC   GL2 4876  27.082  24.373   6.102 -0.1023 -0.3021  0.1147
    1DIPC   C1A 4877  27.028  23.987   5.783 -0.3531 -0.0085 -0.0320
    1DIPC   D2A 4878  26.810  23.601   5.465 -0.0919  0.0788  0.0779
    1DIPC   D3A 4879  27.041  23.563   5.101  0.0864 -0.3087  0.0592
    1DIPC   C4A 4880  27.108  23.874   4.918 -0.0453 -0.0563  0.2757
    1DIPC   C1B 4881  27.081  24.422   5.585  0.1635  0.0367  0.2788
    1DIPC   D2B 4882  27.012  24.458   5.142  0.1779 -0.1563  0.0019
    1DIPC   D3B 4883  27.369  24.633   5.014  0.0184  0.1031 -0.2500
    1DIPC   C4B 4884  27.501  24.469   4.736  0.2994  0.1019 -0.0980
    1DIPC   NC3 4885  10.145  23.860   7.517 -0.0337  0.0333  0.1493
    1DIPC   PO4 4886  10.573  23.893   7.407 -0.0690  0.0139  0.0052
    1DIPC   GL1 4887  10.325  23.660   7.116 -0.1530 -0.2805  0.1597
    1DIPC   GL2 4888  10.705  23.731   6.971 -0.2154 -0.1408  0.2694
    1DIPC   C1A 4889  10.337  23.507   6.660  0.0914 -0.1653  0.0593
    1DIPC   D2A 4890  10.539  23.326   6.264  0.0548 -0.0425  0.2450
    1DIPC   D3A 4891  10.187  23.077   6.236 -0.0808  0.2009  0.0167
    1DIPC   C4A 4892   9.956  23.059   5.850  0.2436  0.3191  0.0336
    1DIPC   C1B 4893  10.694  23.912   6.452  0.2064  0.0842 -0.0210
    1DIPC   D2B 4894  10.422  24.024   6.024  0.0742  0.0364 -0.4671
    1DIPC   D3B 4895  10.809  24.220   5.942 -0.1362  0.3818  0.1742
    1DIPC   C4B 4896  10.898  24.173   5.618 -0.1400  0.2364 -0.2038
    1DIPC   NC3 4897  26.321   7.078   6.741  0.0361  0.0822 -0.0455
    1DIPC   PO4 4898  26.814   6.984   6.715  0.1921  0.1663  0.0954
    1DIPC   GL1 4899  26.605   6.995   6.222 -0.2029  0.2716  0.0007
    1DIPC   GL2 4900  26.315   7.156   6.216 -0.0947  0.0688  0.2332
    1DIPC   C1A 4901  26.748   6.867   5.657 -0.1104  0.1253 -0.4004
    1DIPC   D2A 4902  26.773   6.746   5.244  0.0045 -0.1849  0.0254
    1DIPC   D3A 4903  26.417   6.743   5.322 -0.0333  0.0926  0.0987
    1DIPC   C4A 4904  26.260   6.631   4.948  0.1042 -0.0665  0.1039
    1DIPC   C1B 4905  25.990   7.285   5.909 -0.1550 -0.0988 -0.0232
    1DIPC   D2B 4906  25.664   7.258   5.706  0.1140 -0.1046  0.0885
    1DIPC   D3B 4907  25.763   7.313   5.302  0.1795  0.1124 -0.0544
    1DIPC   C4B 4908  25.792   7.555   5.033 -0.2534  0.0051  0.0445
    1DIPC   NC3 4909  20.143   6.971   6.915 -0.2622 -0.0040 -0.0087
    1DIPC   PO4 4910  19.657   6.979   7.008  0.0077  0.1687 -0.0817
    1DIPC   GL1 4911  19.504   6.802   6.664 -0.2055 -0.0777 -0.0966
    1DIPC   GL2 4912  19.545   6.830   6.315  0.3600  0.1502  0.1450
    1DIPC   C1A 4913  19.191   7.120   6.477  0.2511  0.2798 -0.1646
    1DIPC   D2A 4914  18.930   6.939   6.175 -0.2579 -0.1404 -0.0936
    1DIPC   D3A 4915  19.195   7.097   5.947 -0.3901  0.1085 -0.0910
    1DIPC   C4A 4916  19.109   7.294   5.546 -0.0700 -0.1085 -0.2157
    1DIPC   C1B 4917  19.542   6.746   5.838  0.1021  0.0313 -0.0294
    1DIPC   D2B 4918  19.216   6.593   5.677  0.0041  0.1861  0.0209
    1DIPC   D3B 4919  18.904   6.768   5.541 -0.2604  0.1443 -0.0176
    1DIPC   C4B 4920  18.854   7.058   5.138 -0.0422  0.0177  0.1205
    1DIPC   NC3 4921  27.157  14.683   6.757  0.3399 -0.0539  0.0604
    1DIPC   PO4 4922  26.970  14.743   6.389 -0.2669 -0.2727 -0.0153
    1DIPC   GL1 4923  26.955  14.859   5.973  0.0394  0.2658 -0.1733
    1DIPC   GL2 4924  26.605  14.775   5.789  0.2582  0.0711  0.0416
    1DIPC   C1A 4925  26.947  15.149   5.668  0.0568 -0.2830  0.2020
    1DIPC   D2A 4926  26.865  15.504   5.475 -0.3630 -0.2192  0.1438
    1DIPC   D3A 4927  27.020  15.719   5.082  0.4620 -0.0881  0.1578
    1DIPC   C4A 4928  26.676  15.952   4.839  0.1536  0.1731 -0.0769
    1DIPC   C1B 4929  26.681  14.547   5.347  0.3589  0.4905 -0.3017
    1DIPC   D2B 4930  26.734  14.367   4.952  0.2596  0.0961 -0.2106
    1DIPC   D3B 4931  26.733  14.081   4.694  0.0187  0.1145  0.3590
    1DIPC   C4B 4932  26.879  13.585   4.729  0.1587  0.1335  0.1374
    1DIPC   NC3 4933  25.411  19.160   7.055 -0.0334 -0.2937  0.0701
    1DIPC   PO4 4934  25.554  19.494   6.810  0.1500 -0.1085  0.3157
    1DIPC   GL1 4935  25.325  19.669   6.436 -0.0620 -0.0479  0.1965
    1DIPC   GL2 4936  25.547  19.817   6.348 -0.0273  0.1907 -0.0127
    1DIPC   C1A 4937  24.987  19.468   6.202  0.5239 -0.1264  0.2099
    1DIPC   D2A 4938  24.769  19.535   5.868 -0.0269 -0.0280  0.1985
    1DIPC   D3A 4939  24.642  19.917   5.772 -0.1190 -0.2528 -0.1745
    1DIPC   C4A 4940  24.275  19.896   5.662  0.0498 -0.1510 -0.2864
    1DIPC   C1B 4941  25.685  19.715   5.913  0.2494 -0.0976 -0.0626
    1DIPC   D2B 4942  25.453  19.504   5.488  0.0048 -0.0004 -0.2958
    1DIPC   D3B 4943  25.670  19.783   5.372  0.0130 -0.2801 -0.0661
    1DIPC   C4B 4944  25.970  19.734   5.082  0.2121 -0.1983  0.2153
    1DIPC   NC3 4945  15.927   6.199   7.000 -0.0588  0.0853 -0.2855
    1DIPC   PO4 4946  16.181   6.391   7.379 -0.0760 -0.2525 -0.0632
    1DIPC   GL1 4947  16.316   6.488   6.850  0.0163 -0.2417  0.3537
    1DIPC   GL2 4948  16.268   6.756   6.623  0.0903 -0.3747 -0.0806
    1DIPC   C1A 4949  16.402   6.276   6.458  0.1386 -0.1255 -0.2109
    1DIPC   D2A 4950  16.550   5.899   6.287 -0.1051  0.3082  0.0611
    1DIPC   D3A 4951  16.216   5.652   6.044 -0.3034  0.1352 -0.1671
    1DIPC   C4A 4952  16.137   5.833   5.684  0.1258  0.1590  0.3166
    1DIPC   C1B 4953  16.435   6.673   6.133 -0.0851 -0.2652 -0.2503
    1DIPC   D2B 4954  16.359   6.231   5.962 -0.3531 -0.0807  0.0305
    1DIPC   D3B 4955  16.415   6.370   5.517  0.0363  0.2000 -0.0035
    1DIPC   C4B 4956  16.630   6.297   5.138  0.0512 -0.2613 -0.1284
    1DIPC   NC3 4957  27.411   6.357   6.254  0.0390  0.1401 -0.0083
    1DIPC   PO4 4958  27.139   5.969   6.165  0.1743  0.0083  0.1695
    1DIPC   GL1 4959  27.049   6.203   5.852  0.2307 -0.1107 -0.1747
    1DIPC   GL2 4960  27.214   6.488   5.793 -0.1470 -0.0842 -0.0418
    1DIPC   C1A 4961  26.885   5.947   5.533  0.1032  0.1096  0.1768
    1DIPC   D2A 4962  26.939   5.669   5.261  0.3103 -0.1545  0.0455
    1DIPC   D3A 4963  26.570   5.455   5.432 -0.0257  0.0298 -0.0740
    1DIPC   C4A 4964  26.607   5.147   5.111  0.1143 -0.0741  0.0682
    1DIPC   C1B 4965  27.156   6.470   5.386 -0.0083 -0.1115  0.0253
    1DIPC   D2B 4966  27.010   6.324   5.042 -0.1269  0.0560  0.2818
    1DIPC   D3B 4967  26.707   6.561   4.795  0.1120  0.0257 -0.1544
    1DIPC   C4B 4968  26.758   6.958   4.816 -0.2450  0.2010 -0.2587
    1DIPC   NC3 4969  19.773   2.309   6.787 -0.0149 -0.0645  0.1652
    1DIPC   PO4 4970  19.436   2.031   6.707 -0.2019 -0.0515 -0.3664
    1DIPC   GL1 4971  19.340   1.735   6.376 -0.0772 -0.3224 -0.3592
    1DIPC   GL2 4972  19.389   2.078   6.228  0.0221  0.0691  0.3386
    1DIPC   C1A 4973  18.988   1.613   6.168  0.1271  0.0146 -0.1560
    1DIPC   D2A 4974  18.884   1.369   5.887 -0.1632  0.2771 -0.0145
    1DIPC   D3A 4975  18.497   1.498   5.813 -0.2560  0.0880  0.1886
    1DIPC   C4A 4976  18.122   1.302   5.691  0.2006  0.2191  0.1524
    1DIPC   C1B 4977  19.132   2.349   6.019  0.0950 -0.1414  0.0583
    1DIPC   D2B 4978  19.104   2.581   5.706  0.0811 -0.1810  0.3058
    1DIPC   D3B 4979  19.347   2.434   5.287 -0.2061 -0.3797  0.0951
    1DIPC   C4B 4980  19.858   2.309   5.231 -0.2375  0.1155 -0.1587
    1DIPC   NC3 4981  21.124   7.975   7.107  0.0065 -0.0406  0.0543
    1DIPC   PO4 4982  20.894   7.628   6.956  0.1111  0.3159 -0.0150
    1DIPC   GL1 4983  20.855   7.612   6.534 -0.0593 -0.1306  0.1381
    1DIPC   GL2 4984  20.652   7.451   6.398  0.1382 -0.0561  0.1368
    1DIPC   C1A 4985  20.892   7.639   6.045 -0.3676  0.0710 -0.2684
    1DIPC   D2A 4986  20.751   7.965   5.727 -0.0384  0.0477 -0.3666
    1DIPC   D3A 4987  20.954   7.924   5.259 -0.0763 -0.1282 -0.0942
    1DIPC   C4A 4988  20.995   8.173   4.985 -0.4458  0.0501  0.2490
    1DIPC   C1B 4989  20.826   7.141   6.131  0.2931 -0.2927  0.0729
    1DIPC   D2B 4990  20.981   7.035   5.712  0.1424 -0.1170  0.1172
    1DIPC   D3B 4991  20.998   7.477   5.505 -0.1108 -0.1427  0.0719
    1DIPC   C4B 4992  21.291   7.471   5.248 -0.3347 -0.4623  0.0754
    1DIPC   NC3 4993  10.072  21.345   7.280  0.0951  0.2117 -0.0461
    1DIPC   PO4 4994   9.691  21.653   7.283  0.1256 -0.2402 -0.2466
    1DIPC   GL1 4995   9.744  21.599   6.906 -0.0205  0.2470 -0.0458
    1DIPC   GL2 4996  10.039  21.514   6.796  0.0455  0.3860  0.1095
    1DIPC   C1A 4997   9.721  21.811   6.531  0.0893  0.1354  0.5245
    1DIPC   D2A 4998   9.524  21.970   6.147 -0.1368 -0.1601  0.2488
    1DIPC   D3A 4999   9.373  21.805   5.767  0.1843 -0.0481  0.1885
    1DIPC   C4A 5000   9.107  22.186   5.607 -0.0561 -0.0865  0.0119
    1DIPC   C1B 5001   9.772  21.168   6.462 -0.5055  0.0400  0.4293
    1DIPC   D2B 5002   9.368  20.892   6.380 -0.0099 -0.0104  0.1414
    1DIPC   D3B 5003   9.472  20.949   5.978  0.0278 -0.0730  0.2380
    1DIPC   C4B 5004   9.247  20.846   5.799 -0.1149 -0.0844 -0.1030
    1DIPC   NC3 5005  12.319   0.720   7.416 -0.1596  0.1759 -0.3747
    1DIPC   PO4 5006  11.885   0.756   7.322  0.2665  0.1078  0.2263
    1DIPC   GL1 5007  11.909   0.643   6.948  0.0296  0.4592  0.0142
    1DIPC   GL2 5008  12.254   0.624   6.863  0.0080 -0.4975  0.0972
    1DIPC   C1A 5009  11.671   0.335   6.588 -0.3634 -0.0689 -0.1741
    1DIPC   D2A 5010  11.545   0.022   6.333 -0.0931  0.3482  0.1870
    1DIPC   D3A 5011  11.353  27.732   6.339 -0.0171  0.0367  0.2790
    1DIPC   C4A 5012  11.231  27.511   5.994 -0.1506  0.0543  0.1261
    1DIPC   C1B 5013  12.115   0.566   6.407 -0.0954 -0.3362  0.1130
    1DIPC   D2B 5014  11.938   0.170   6.122 -0.0380  0.4035 -0.1870
    1DIPC   D3B 5015  12.044   0.097   5.699 -0.1176 -0.0222  0.1273
    1DIPC   C4B 5016  12.231  27.868   5.720 -0.0334 -0.3334  0.1137
    1DIPC   NC3 5017  24.119  20.626   6.775 -0.2082 -0.2569  0.2401
    1DIPC   PO4 5018  23.892  20.264   6.937  0.0494 -0.0586  0.1556
    1DIPC   GL1 5019  23.821  19.948   6.609  0.0695 -0.1730 -0.1224
    1DIPC   GL2 5020  23.727  20.179   6.376 -0.2106 -0.0509  0.1613
    1DIPC   C1A 5021  23.509  19.680   6.344 -0.1637  0.0160 -0.0745
    1DIPC   D2A 5022  23.314  19.600   5.896  0.0057 -0.0028  0.1903
    1DIPC   D3A 5023  22.990  19.710   5.561  0.1515 -0.1000 -0.1447
    1DIPC   C4A 5024  22.937  19.575   5.268  0.0147 -0.4341  0.0804
    1DIPC   C1B 5025  23.890  20.156   5.914  0.0586  0.0296  0.1113
    1DIPC   D2B 5026  24.099  20.350   5.560 -0.0452 -0.0898 -0.0596
    1DIPC   D3B 5027  24.486  20.319   5.460 -0.0843  0.2466 -0.0462
    1DIPC   C4B 5028  24.700  20.612   5.394 -0.2157 -0.2186  0.0626
    1DIPC   NC3 5029   6.971  23.124   6.930 -0.0492  0.1881 -0.0356
    1DIPC   PO4 5030   7.433  22.899   6.913  0.1473  0.0835 -0.2854
    1DIPC   GL1 5031   7.383  22.674   6.598  0.0441  0.0345  0.3460
    1DIPC   GL2 5032   7.092  22.681   6.423 -0.0265  0.2312 -0.0153
    1DIPC   C1A 5033   7.577  22.481   6.271 -0.0652 -0.0350  0.0727
    1DIPC   D2A 5034   7.660  22.201   5.922 -0.1782 -0.0102  0.3169
    1DIPC   D3A 5035   7.685  22.613   5.758  0.2841 -0.0535  0.1270
    1DIPC   C4A 5036   7.277  22.930   5.647 -0.0661 -0.0946 -0.0781
    1DIPC   C1B 5037   7.359  22.948   6.145 -0.0385  0.1072 -0.3516
    1DIPC   D2B 5038   7.788  23.054   5.893  0.1317 -0.0297 -0.1398
    1DIPC   D3B 5039   7.745  23.113   5.462  0.3042  0.2392 -0.1568
    1DIPC   C4B 5040   8.077  23.225   5.245  0.1010 -0.0527  0.2642
    1DIPC   NC3 5041  26.206   2.698   7.372 -0.0691 -0.0552 -0.1246
    1DIPC   PO4 5042  26.494   2.969   7.172 -0.0056 -0.0450 -0.0792
    1DIPC   GL1 5043  26.536   2.788   6.747  0.0582  0.2597  0.0696
    1DIPC   GL2 5044  26.294   2.620   6.550 -0.0274 -0.0747  0.2767
    1DIPC   C1A 5045  26.738   2.551   6.384 -0.1201  0.0623 -0.1060
    1DIPC   D2A 5046  26.921   2.427   5.995 -0.3202  0.0273  0.1283
    1DIPC   D3A 5047  27.212   2.374   5.701 -0.1873  0.0242  0.0286
    1DIPC   C4A 5048  27.584   2.583   5.788  0.4569  0.1391 -0.2470
    1DIPC   C1B 5049  26.081   2.703   6.150 -0.0636 -0.0026 -0.2295
    1DIPC   D2B 5050  25.980   2.599   5.799 -0.0295 -0.0898  0.0043
    1DIPC   D3B 5051  26.258   2.310   5.520 -0.1097  0.1024  0.3405
    1DIPC   C4B 5052  26.390   2.387   5.065  0.3786  0.1024 -0.2737
    1DIPC   NC3 5053   1.374  19.893   7.396  0.2332  0.2327 -0.3239
    1DIPC   PO4 5054   1.679  20.186   7.133 -0.2688  0.1162  0.0919
    1DIPC   GL1 5055   1.821  19.942   6.791 -0.3362 -0.2408  0.1160
    1DIPC   GL2 5056   2.153  19.705   6.717  0.1595  0.0615 -0.0884
    1DIPC   C1A 5057   1.727  19.950   6.378  0.2197 -0.0028  0.0802
    1DIPC   D2A 5058   1.739  19.753   5.943  0.2480 -0.0344  0.1342
    1DIPC   D3A 5059   1.537  20.102   5.933 -0.1285 -0.2280 -0.1317
    1DIPC   C4A 5060   1.703  20.456   5.676  0.1521 -0.2232 -0.2235
    1DIPC   C1B 5061   2.215  19.878   6.139 -0.2770  0.2504 -0.0219
    1DIPC   D2B 5062   2.210  19.756   5.729 -0.2137  0.1964 -0.0664
    1DIPC   D3B 5063   1.921  20.001   5.531 -0.2268  0.2413  0.2152
    1DIPC   C4B 5064   2.003  20.214   4.982 -0.0693  0.0869 -0.2169
    1DIPC   NC3 5065  26.220  10.800   7.523 -0.5601  0.1078  0.2245
    1DIPC   PO4 5066  26.182  11.236   7.267 -0.2317 -0.0304  0.0517
    1DIPC   GL1 5067  26.093  11.193   6.860 -0.2716 -0.0734  0.0468
    1DIPC   GL2 5068  26.383  11.018   6.808 -0.1993  0.3018 -0.1296
    1DIPC   C1A 5069  25.801  11.074   6.613  0.0025 -0.1250 -0.2150
    1DIPC   D2A 5070  25.616  11.258   6.229 -0.2577  0.2367 -0.1165
    1DIPC   D3A 5071  25.485  10.865   6.197  0.3142  0.1746  0.2128
    1DIPC   C4A 5072  25.401  10.754   5.807  0.1002  0.0780  0.2514
    1DIPC   C1B 5073  26.281  11.093   6.313  0.3572  0.0974 -0.2199
    1DIPC   D2B 5074  26.326  11.129   5.937 -0.4530  0.0569 -0.1642
    1DIPC   D3B 5075  26.079  11.406   5.983 -0.0191 -0.4375  0.1375
    1DIPC   C4B 5076  26.388  11.624   6.117 -0.0040 -0.0390 -0.0242
    1DIPC   NC3 5077  13.528   4.898   7.585 -0.0014  0.0825 -0.1247
    1DIPC   PO4 5078  13.860   4.600   7.729 -0.0453  0.1629  0.0021
    1DIPC   GL1 5079  14.103   4.436   7.303  0.1378  0.1195 -0.1597
    1DIPC   GL2 5080  14.395   4.303   7.198 -0.0406 -0.0322  0.4710
    1DIPC   C1A 5081  13.830   4.288   6.956  0.2845 -0.2013 -0.1296
    1DIPC   D2A 5082  13.396   4.218   6.814 -0.1579 -0.1278 -0.2430
    1DIPC   D3A 5083  13.404   4.349   6.380  0.3177  0.1878 -0.2109
    1DIPC   C4A 5084  13.243   4.722   6.190 -0.3796 -0.3612 -0.2864
    1DIPC   C1B 5085  14.648   4.542   6.796  0.1181  0.3030 -0.1042
    1DIPC   D2B 5086  15.116   4.492   6.642  0.1714 -0.3658  0.0737
    1DIPC   D3B 5087  15.362   4.751   6.387  0.1463  0.0834  0.3339
    1DIPC   C4B 5088  15.123   4.599   6.067  0.0674  0.2579  0.2156
    1DIPC   NC3 5089   1.951   6.763   6.503 -0.2699 -0.0781  0.1842
    1DIPC   PO4 5090   1.844   6.634   6.085  0.0222  0.0079  0.1095
    1DIPC   GL1 5091   2.018   6.600   5.743 -0.5400 -0.0925 -0.0135
    1DIPC   GL2 5092   2.341   6.629   5.729 -0.1709 -0.0006  0.0896
    1DIPC   C1A 5093   1.876   6.529   5.415  0.0156  0.5854 -0.1980
    1DIPC   D2A 5094   1.499   6.299   5.358 -0.0391 -0.1904  0.1652
    1DIPC   D3A 5095   1.539   6.315   4.886  0.1924 -0.0590 -0.1067
    1DIPC   C4A 5096   1.796   6.671   4.731 -0.0778  0.0057 -0.2887
    1DIPC   C1B 5097   2.326   6.601   5.297 -0.0118 -0.0150  0.1533
    1DIPC   D2B 5098   2.303   6.592   4.804 -0.0792  0.0283  0.1496
    1DIPC   D3B 5099   2.680   6.753   4.913  0.3914  0.1326  0.0504
    1DIPC   C4B 5100   2.932   7.101   5.201  0.2044 -0.0965 -0.0463
    1DIPC   NC3 5101  13.720  19.019   7.128 -0.1906 -0.2959  0.1602
    1DIPC   PO4 5102  13.342  18.695   7.058  0.0118 -0.2567 -0.1525
    1DIPC   GL1 5103  13.133  18.706   6.710  0.1288 -0.0113  0.0125
    1DIPC   GL2 5104  13.206  18.458   6.538  0.4788 -0.0805 -0.1950
    1DIPC   C1A 5105  13.146  19.003   6.367  0.0769 -0.0373 -0.1267
    1DIPC   D2A 5106  13.428  19.193   6.070  0.0417  0.2015 -0.0613
    1DIPC   D3A 5107  13.546  19.126   5.658 -0.1311 -0.0392  0.1554
    1DIPC   C4A 5108  13.334  18.903   5.402  0.0938  0.1590 -0.2903
    1DIPC   C1B 5109  13.121  18.337   6.097 -0.1973 -0.1156 -0.2096
    1DIPC   D2B 5110  12.946  18.188   5.636 -0.0460 -0.1813 -0.0344
    1DIPC   D3B 5111  13.156  18.056   5.219 -0.2749  0.0251  0.0163
    1DIPC   C4B 5112  13.052  17.685   4.986 -0.0616  0.0677 -0.1128
    1DIPC   NC3 5113   1.421  12.296   7.034  0.0008  0.0206 -0.2163
    1DIPC   PO4 5114   1.656  12.308   6.691  0.0233  0.1314 -0.0782
    1DIPC   GL1 5115   1.707  12.225   6.240 -0.0704 -0.3497 -0.6668
    1DIPC   GL2 5116   1.693  12.474   6.112 -0.0854 -0.3451 -0.0942
    1DIPC   C1A 5117   1.851  12.036   5.808  0.0174 -0.2057  0.0851
    1DIPC   D2A 5118   2.078  11.734   5.569  0.4191 -0.1752 -0.1812
    1DIPC   D3A 5119   2.038  11.448   5.219  0.1296 -0.1107  0.2323
    1DIPC   C4A 5120   1.964  11.594   4.892 -0.0350  0.0017  0.0310
    1DIPC   C1B 5121   1.894  12.513   5.698 -0.0466  0.0138 -0.1101
    1DIPC   D2B 5122   2.020  12.407   5.324 -0.0813  0.0215 -0.0022
    1DIPC   D3B 5123   1.814  11.981   5.219 -0.0501  0.2656  0.3912
    1DIPC   C4B 5124   1.344  11.933   5.112  0.0243 -0.0544 -0.1614
    1DIPC   NC3 5125   2.723  18.157   6.461  0.3679 -0.0529  0.1036
    1DIPC   PO4 5126   2.641  17.682   6.632 -0.0628  0.1285  0.0609
    1DIPC   GL1 5127   2.427  17.427   6.365 -0.0592  0.5214  0.2686
    1DIPC   GL2 5128   2.629  17.319   6.089  0.4791 -0.0272 -0.0409
    1DIPC   C1A 5129   1.986  17.283   6.113 -0.2476  0.0536  0.0985
    1DIPC   D2A 5130   1.657  17.172   6.031 -0.2187  0.0263 -0.0606
    1DIPC   D3A 5131   1.817  17.135   5.686 -0.4164  0.0470  0.1987
    1DIPC   C4A 5132   1.482  17.027   5.397  0.0161  0.0642  0.1393
    1DIPC   C1B 5133   2.332  17.309   5.747 -0.0912 -0.1387 -0.0881
    1DIPC   D2B 5134   2.220  17.515   5.385  0.0636  0.2812  0.0956
    1DIPC   D3B 5135   2.511  17.331   5.232  0.1250  0.0737 -0.2885
    1DIPC   C4B 5136   2.922  17.648   5.280 -0.0713  0.0382 -0.2016
    1DIPC   NC3 5137  19.147   7.123   7.136  0.0660 -0.0755  0.0788
    1DIPC   PO4 5138  18.670   7.293   6.946  0.2074  0.2503  0.0464
    1DIPC   GL1 5139  18.632   7.284   6.457 -0.1046  0.2797 -0.1985
    1DIPC   GL2 5140  18.442   6.972   6.415 -0.0448 -0.1246  0.1887
    1DIPC   C1A 5141  18.307   7.484   6.321  0.0764  0.0356  0.0679
    1DIPC   D2A 5142  18.283   7.918   6.212  0.1149 -0.2187 -0.2872
    1DIPC   D3A 5143  18.339   8.236   6.529  0.1388 -0.4829 -0.0525
    1DIPC   C4A 5144  18.066   8.549   6.530 -0.4877 -0.0059 -0.0622
    1DIPC   C1B 5145  17.963   6.994   6.361 -0.4510  0.0525  0.0145
    1DIPC   D2B 5146  17.562   7.037   6.339 -0.0509 -0.0361 -0.0033
    1DIPC   D3B 5147  17.407   6.875   5.907  0.2893 -0.1084  0.1041
    1DIPC   C4B 5148  17.071   6.715   5.951 -0.5615  0.1067 -0.0203
    1DIPC   NC3 5149  13.554  19.725   6.579  0.2697  0.1279 -0.0098
    1DIPC   PO4 5150  13.751  19.404   6.818 -0.0693 -0.3672 -0.1721
    1DIPC   GL1 5151  13.832  19.284   6.370  0.1187  0.1340 -0.3154
    1DIPC   GL2 5152  14.123  19.199   6.443 -0.0389 -0.3552 -0.1674
    1DIPC   C1A 5153  13.949  19.474   5.922 -0.2039  0.2379  0.2506
    1DIPC   D2A 5154  14.061  19.610   5.558 -0.1022 -0.2226 -0.0573
    1DIPC   D3A 5155  14.077  19.429   5.199 -0.1125  0.2845  0.5111
    1DIPC   C4A 5156  13.787  19.075   5.188  0.0085 -0.3121  0.2106
    1DIPC   C1B 5157  14.023  18.992   6.051 -0.1430  0.2826 -0.1008
    1DIPC   D2B 5158  14.104  19.085   5.622 -0.1027 -0.1436 -0.1005
    1DIPC   D3B 5159  14.447  19.091   5.514 -0.0537 -0.0141 -0.1832
    1DIPC   C4B 5160  14.599  18.788   5.835  0.0285 -0.1225 -0.1166
    1DIPC   NC3 5161   2.516  19.334   6.641  0.1708 -0.0004 -0.0614
    1DIPC   PO4 5162   2.920  19.308   6.704 -0.3046 -0.2845 -0.1051
    1DIPC   GL1 5163   3.225  19.203   6.334  0.0990 -0.0836  0.0496
    1DIPC   GL2 5164   3.456  19.486   6.395 -0.1237  0.0954 -0.0610
    1DIPC   C1A 5165   3.078  19.332   5.937  0.0247 -0.0388 -0.0402
    1DIPC   D2A 5166   3.046  19.545   5.577 -0.0205  0.1126  0.1924
    1DIPC   D3A 5167   2.600  19.688   5.481  0.1423  0.1356  0.0200
    1DIPC   C4A 5168   2.437  19.952   5.240 -0.1992 -0.2509 -0.2338
    1DIPC   C1B 5169   3.403  19.780   6.013 -0.1383  0.1490 -0.1445
    1DIPC   D2B 5170   3.022  20.003   5.856  0.0442 -0.0620 -0.0607
    1DIPC   D3B 5171   2.935  20.034   5.430  0.1403  0.4263 -0.1877
    1DIPC   C4B 5172   3.149  20.386   5.312 -0.1229  0.1705  0.0665
    1DIPC   NC3 5173   5.969   3.810   6.874 -0.0065  0.0610  0.2707
    1DIPC   PO4 5174   5.931   3.268   6.966  0.2378  0.0320 -0.3467
    1DIPC   GL1 5175   6.123   2.947   6.565 -0.0340  0.2775  0.0076
    1DIPC   GL2 5176   5.898   3.071   6.252  0.1457  0.2652  0.3734
    1DIPC   C1A 5177   6.253   2.629   6.195  0.1738  0.2413  0.5529
    1DIPC   D2A 5178   6.397   2.227   6.322 -0.1138 -0.2628 -0.2322
    1DIPC   D3A 5179   6.618   1.883   6.162  0.0232 -0.3842 -0.0675
    1DIPC   C4A 5180   6.626   1.932   5.699 -0.0361  0.0990  0.0223
    1DIPC   C1B 5181   6.256   3.267   6.183  0.0148  0.0837  0.0830
    1DIPC   D2B 5182   6.706   3.354   6.233 -0.1386  0.0649 -0.3164
    1DIPC   D3B 5183   6.840   3.777   6.095 -0.0722 -0.0630  0.0596
    1DIPC   C4B 5184   6.795   3.967   5.712  0.1018 -0.0706 -0.0302
    1DIPC   NC3 5185  21.112   6.850   7.319  0.0349  0.0123 -0.2528
    1DIPC   PO4 5186  21.061   6.699   6.854  0.0501  0.2875  0.1153
    1DIPC   GL1 5187  21.053   6.724   6.440  0.0281  0.1901 -0.2697
    1DIPC   GL2 5188  21.199   6.867   6.310  0.0572  0.2081  0.0431
    1DIPC   C1A 5189  20.816   6.631   5.989  0.1963  0.2968  0.1881
    1DIPC   D2A 5190  20.811   6.679   5.474 -0.2092 -0.0816  0.1592
    1DIPC   D3A 5191  20.824   6.331   5.624  0.2571  0.1897 -0.0319
    1DIPC   C4A 5192  20.796   6.139   6.020 -0.7360 -0.1036 -0.0051
    1DIPC   C1B 5193  21.275   6.663   5.961 -0.0923  0.2169 -0.2090
    1DIPC   D2B 5194  21.331   6.558   5.485  0.0172 -0.2201  0.0477
    1DIPC   D3B 5195  21.148   6.950   5.237 -0.0141 -0.1098  0.0202
    1DIPC   C4B 5196  21.172   7.238   4.873  0.2141 -0.2635  0.1952
    1DIPC   NC3 5197  26.564   5.383   6.693  0.2239  0.1090  0.0971
    1DIPC   PO4 5198  27.028   5.162   6.505 -0.1756 -0.0939  0.1272
    1DIPC   GL1 5199  26.947   5.135   6.032 -0.0244  0.2195  0.4076
    1DIPC   GL2 5200  27.160   5.050   5.797  0.0260  0.3971  0.3220
    1DIPC   C1A 5201  26.699   4.861   5.719  0.0337 -0.0116 -0.0407
    1DIPC   D2A 5202  26.764   4.721   5.291 -0.0314  0.1696  0.2341
    1DIPC   D3A 5203  26.368   4.724   5.075 -0.1948  0.0644 -0.0656
    1DIPC   C4A 5204  25.990   4.701   5.318  0.0764 -0.1804  0.3182
    1DIPC   C1B 5205  26.972   5.154   5.392 -0.0823  0.1848 -0.0764
    1DIPC   D2B 5206  27.099   5.022   4.927  0.2047  0.0138  0.3429
    1DIPC   D3B 5207  26.938   5.414   4.863  0.1618  0.0215 -0.1313
    1DIPC   C4B 5208  26.638   5.460   4.477 -0.0480 -0.1735  0.1772
    1DIPC   NC3 5209   5.189  21.341   7.392  0.1616 -0.0308  0.0567
    1DIPC   PO4 5210   5.523  21.735   7.385 -0.0898 -0.1447  0.1994
    1DIPC   GL1 5211   5.526  21.445   7.044  0.0583  0.1683 -0.3232
    1DIPC   GL2 5212   5.280  21.499   6.758  0.0003  0.4030  0.1569
    1DIPC   C1A 5213   5.791  21.381   6.630 -0.3058  0.2098  0.0073
    1DIPC   D2A 5214   5.634  21.171   6.237  0.2760 -0.0324  0.2222
    1DIPC   D3A 5215   5.214  21.244   6.120  0.2395 -0.1085 -0.1237
    1DIPC   C4A 5216   5.061  21.154   5.682  0.2290 -0.2616 -0.3091
    1DIPC   C1B 5217   5.362  21.707   6.315 -0.0169  0.0226 -0.0587
    1DIPC   D2B 5218   5.713  21.730   5.966  0.1242 -0.3627 -0.1752
    1DIPC   D3B 5219   5.622  21.240   5.745  0.1366 -0.0621  0.0441
    1DIPC   C4B 5220   5.790  21.147   5.286  0.1770  0.0891 -0.0261
    1DIPC   NC3 5221   7.823  22.577   6.916  0.1645  0.1282 -0.1553
    1DIPC   PO4 5222   8.223  22.512   6.906  0.1163  0.1920 -0.1347
    1DIPC   GL1 5223   8.057  22.512   6.449  0.0837 -0.1590 -0.2742
    1DIPC   GL2 5224   7.886  22.844   6.413 -0.2231 -0.0230 -0.3481
    1DIPC   C1A 5225   8.073  22.565   6.024  0.5626  0.0619  0.2274
    1DIPC   D2A 5226   8.080  22.742   5.457  0.0638 -0.0738  0.0400
    1DIPC   D3A 5227   7.862  22.738   5.103 -0.3079  0.0359 -0.2334
    1DIPC   C4A 5228   7.724  23.078   4.854 -0.0527  0.1918  0.0682
    1DIPC   C1B 5229   8.241  23.019   6.320  0.1631 -0.0804 -0.1115
    1DIPC   D2B 5230   8.588  22.816   6.157  0.2440  0.0770  0.1253
    1DIPC   D3B 5231   8.599  22.566   6.496  0.1758  0.2073  0.0352
    1DIPC   C4B 5232   8.998  22.477   6.716  0.0830 -0.1402  0.1835
    1DIPC   NC3 5233   4.988   1.111   7.090  0.3029  0.1454 -0.0753
    1DIPC   PO4 5234   5.158   0.839   6.893 -0.3013 -0.1589 -0.1757
    1DIPC   GL1 5235   5.316   0.656   6.456  0.0626  0.0954 -0.2907
    1DIPC   GL2 5236   5.162   0.432   6.178 -0.1701 -0.1738 -0.0419
    1DIPC   C1A 5237   5.659   0.716   6.211  0.0081  0.0544  0.1466
    1DIPC   D2A 5238   5.757   0.801   5.725  0.1462 -0.1985 -0.0246
    1DIPC   D3A 5239   5.876   0.341   5.662  0.0081  0.1853  0.3460
    1DIPC   C4A 5240   5.930   0.179   5.269  0.1729 -0.0115  0.1149
    1DIPC   C1B 5241   4.939   0.149   5.871  0.2286  0.0658  0.2257
    1DIPC   D2B 5242   4.653   0.138   5.743 -0.0671 -0.3512 -0.1413
    1DIPC   D3B 5243   4.685  28.122   6.223  0.3784 -0.0960  0.1490
    1DIPC   C4B 5244   4.792  27.880   6.544 -0.0051 -0.0767 -0.0073
    1DIPC   NC3 5245  11.845  23.410   6.711  0.1147  0.1720  0.0261
    1DIPC   PO4 5246  11.382  23.537   6.829  0.3798 -0.1085 -0.0522
    1DIPC   GL1 5247  11.438  23.578   6.421 -0.4013  0.0578  0.0460
    1DIPC   GL2 5248  11.417  23.930   6.207  0.2000 -0.0096  0.1509
    1DIPC   C1A 5249  11.352  23.246   6.140  0.1836 -0.2595  0.1384
    1DIPC   D2A 5250  11.493  23.119   5.718  0.2860  0.1317 -0.1505
    1DIPC   D3A 5251  11.246  23.320   5.342 -0.3065 -0.4174  0.3291
    1DIPC   C4A 5252  11.474  23.405   4.919 -0.1062  0.0521  0.1103
    1DIPC   C1B 5253  11.777  24.126   6.099 -0.0635 -0.1710  0.0382
    1DIPC   D2B 5254  12.064  24.240   5.777 -0.0429  0.1017  0.0828
    1DIPC   D3B 5255  11.947  24.190   5.415  0.1135  0.1577  0.0415
    1DIPC   C4B 5256  11.673  24.542   5.252 -0.0249  0.5035 -0.1476
    1DIPC   NC3 5257  19.806   9.095   6.856 -0.1296 -0.2747  0.2085
    1DIPC   PO4 5258  19.887   8.703   6.801  0.4206  0.1776  0.2141
    1DIPC   GL1 5259  20.018   8.576   6.331 -0.1467  0.0014 -0.0694
    1DIPC   GL2 5260  20.351   8.456   6.200  0.1248  0.0562  0.2220
    1DIPC   C1A 5261  20.069   8.765   5.917 -0.0421 -0.0615  0.0694
    1DIPC   D2A 5262  20.219   8.631   5.495 -0.0367 -0.1015 -0.2597
    1DIPC   D3A 5263  20.548   8.859   5.599 -0.0423  0.3033  0.1171
    1DIPC   C4A 5264  20.407   9.173   5.740 -0.2382  0.0792 -0.0345
    1DIPC   C1B 5265  20.383   8.298   5.815  0.1448 -0.1940 -0.0651
    1DIPC   D2B 5266  20.212   7.992   5.690  0.4233 -0.1358  0.0056
    1DIPC   D3B 5267  20.461   8.084   5.339 -0.0541  0.1616  0.1681
    1DIPC   C4B 5268  20.674   8.406   5.319  0.0646  0.1571 -0.1094
    1DIPC   NC3 5269  15.633   4.635   7.725 -0.0640 -0.0203  0.0739
    1DIPC   PO4 5270  15.509   4.829   7.302 -0.0677  0.1776 -0.0159
    1DIPC   GL1 5271  15.480   4.842   6.848  0.0960  0.0025 -0.2507
    1DIPC   GL2 5272  15.707   5.059   6.668  0.2630 -0.3131  0.0533
    1DIPC   C1A 5273  15.916   4.655   6.494  0.1000  0.1612 -0.3604
    1DIPC   D2A 5274  16.106   4.699   6.142  0.0712  0.1480  0.1376
    1DIPC   D3A 5275  16.166   4.410   5.752 -0.2193  0.0901 -0.2130
    1DIPC   C4A 5276  16.478   4.408   5.634  0.0928 -0.1166  0.1370
    1DIPC   C1B 5277  15.719   4.954   6.139  0.2418  0.3602  0.2571
    1DIPC   D2B 5278  15.878   4.913   5.770 -0.2257 -0.0182  0.1115
    1DIPC   D3B 5279  15.755   5.162   5.536  0.2814  0.1096  0.4228
    1DIPC   C4B 5280  15.953   5.276   5.222 -0.1697 -0.3018 -0.0146
    1DIPC   NC3 5281  14.922  16.164   7.992 -0.1395 -0.0552  0.1157
    1DIPC   PO4 5282  14.993  16.299   7.622  0.0407  0.0176  0.2100
    1DIPC   GL1 5283  15.170  16.092   7.198 -0.0225  0.1343  0.0078
    1DIPC   GL2 5284  14.892  15.933   7.055 -0.1704 -0.1427  0.0149
    1DIPC   C1A 5285  15.524  16.032   7.002 -0.2239  0.0335 -0.0795
    1DIPC   D2A 5286  15.821  15.745   6.862  0.1271  0.1854  0.0216
    1DIPC   D3A 5287  15.769  15.312   6.976  0.1032  0.0537  0.0760
    1DIPC   C4A 5288  15.661  14.887   6.892 -0.0995 -0.1889  0.2677
    1DIPC   C1B 5289  15.139  15.723   6.690 -0.3818  0.2067  0.0590
    1DIPC   D2B 5290  15.100  15.738   6.249  0.1593 -0.1007  0.2018
    1DIPC   D3B 5291  14.897  15.951   5.939 -0.0557  0.2464 -0.2072
    1DIPC   C4B 5292  15.136  16.088   5.596  0.1603  0.0073  0.1008
    1DIPC   NC3 5293  21.542   9.223   7.027  0.1202  0.0081 -0.1346
    1DIPC   PO4 5294  21.644   8.827   7.085 -0.0529  0.0011 -0.0857
    1DIPC   GL1 5295  21.718   8.644   6.752 -0.1543  0.2526  0.3072
    1DIPC   GL2 5296  21.713   8.918   6.612 -0.2652  0.0198  0.1114
    1DIPC   C1A 5297  21.799   8.437   6.367  0.0414  0.0555  0.2003
    1DIPC   D2A 5298  22.100   8.474   5.988 -0.1201  0.3906  0.0736
    1DIPC   D3A 5299  22.076   8.343   5.561  0.0004  0.3046  0.1011
    1DIPC   C4A 5300  21.784   8.522   5.327  0.0732  0.2214  0.0946
    1DIPC   C1B 5301  21.597   8.847   6.169 -0.0909  0.1952 -0.2990
    1DIPC   D2B 5302  21.411   8.748   5.803  0.0080 -0.0658 -0.5858
    1DIPC   D3B 5303  21.510   9.118   5.711  0.1111 -0.5652  0.0082
    1DIPC   C4B 5304  21.743   9.183   5.473 -0.2687 -0.0351  0.2949
    1DIPC   NC3 5305   3.228  15.468   6.899  0.1905 -0.0890 -0.0722
    1DIPC   PO4 5306   2.936  15.160   6.825  0.5213 -0.0167  0.2682
    1DIPC   GL1 5307   3.079  15.321   6.428 -0.3103  0.2315 -0.0323
    1DIPC   GL2 5308   3.337  15.463   6.375 -0.0624 -0.1745  0.0072
    1DIPC   C1A 5309   2.904  15.289   6.027  0.0121  0.1464 -0.5504
    1DIPC   D2A 5310   2.938  15.414   5.668 -0.0125  0.1123  0.0190
    1DIPC   D3A 5311   3.361  15.551   5.608 -0.4480 -0.1680 -0.1432
    1DIPC   C4A 5312   3.709  15.578   5.215 -0.4278  0.0064 -0.5392
    1DIPC   C1B 5313   3.708  15.305   6.326 -0.3824  0.0385  0.0177
    1DIPC   D2B 5314   3.746  14.818   6.206  0.1623 -0.2314 -0.0121
    1DIPC   D3B 5315   4.034  14.686   5.896  0.0111 -0.0180  0.1638
    1DIPC   C4B 5316   4.000  14.675   5.441  0.0560  0.1250  0.3154
    1DIPC   NC3 5317  15.556   9.479   7.522 -0.0204 -0.0087  0.2856
    1DIPC   PO4 5318  15.777   9.121   7.444  0.0166 -0.2247  0.1731
    1DIPC   GL1 5319  15.690   9.348   7.062 -0.2953  0.1404 -0.0708
    1DIPC   GL2 5320  15.425   9.288   6.953 -0.2174  0.1580 -0.0232
    1DIPC   C1A 5321  15.881   9.586   6.728  0.1170  0.0438 -0.0359
    1DIPC   D2A 5322  16.064   9.597   6.331  0.2134  0.2293  0.2864
    1DIPC   D3A 5323  16.113   9.243   6.350 -0.0830 -0.1273  0.1166
    1DIPC   C4A 5324  16.068   8.996   5.989 -0.1111 -0.1746  0.0363
    1DIPC   C1B 5325  15.222   9.336   6.600 -0.2189  0.1423  0.0722
    1DIPC   D2B 5326  15.129   9.231   6.187 -0.1470 -0.3567 -0.0933
    1DIPC   D3B 5327  15.057   8.923   5.839 -0.0871 -0.2486  0.0552
    1DIPC   C4B 5328  14.660   8.895   5.612  0.2603  0.0781  0.3000
    1DIPC   NC3 5329  20.948  13.390   7.478 -0.1047 -0.1228 -0.0883
    1DIPC   PO4 5330  20.895  13.284   7.016  0.2640 -0.1929 -0.0659
    1DIPC   GL1 5331  20.709  13.308   6.660 -0.0068 -0.0732 -0.1847
    1DIPC   GL2 5332  21.010  13.526   6.484  0.2745 -0.3420 -0.0160
    1DIPC   C1A 5333  20.542  13.497   6.278 -0.3267 -0.1164 -0.0845
    1DIPC   D2A 5334  20.218  13.550   5.939  0.1074 -0.1233  0.0413
    1DIPC   D3A 5335  20.463  13.339   5.586 -0.1658 -0.1675 -0.2141
    1DIPC   C4A 5336  20.210  13.501   5.313 -0.1481  0.0130  0.0758
    1DIPC   C1B 5337  21.003  13.281   6.071  0.1767  0.3218 -0.1771
    1DIPC   D2B 5338  20.920  13.451   5.684  0.1504  0.2577 -0.2805
    1DIPC   D3B 5339  20.685  13.804   5.608 -0.3138  0.0197 -0.3795
    1DIPC   C4B 5340  20.320  13.923   5.512  0.0747 -0.0368 -0.0667
    1DIPC   NC3 5341  23.679  20.840   7.399 -0.2280  0.2938 -0.2134
    1DIPC   PO4 5342  23.647  20.863   6.972 -0.1915  0.0145 -0.0717
    1DIPC   GL1 5343  23.615  20.600   6.564 -0.0852 -0.3590 -0.0522
    1DIPC   GL2 5344  23.949  20.608   6.292 -0.1902  0.0397  0.0528
    1DIPC   C1A 5345  23.437  20.755   6.155 -0.2449  0.4136  0.2839
    1DIPC   D2A 5346  23.294  20.633   5.765 -0.1465 -0.2347 -0.0876
    1DIPC   D3A 5347  22.968  20.448   5.836 -0.4514 -0.2246  0.0389
    1DIPC   C4A 5348  22.990  20.223   5.434 -0.0901  0.0868 -0.1468
    1DIPC   C1B 5349  23.899  20.826   5.885  0.0348 -0.0778  0.3772
    1DIPC   D2B 5350  23.749  20.774   5.435 -0.1278  0.4393 -0.0097
    1DIPC   D3B 5351  24.153  20.863   5.409 -0.1115  0.4046 -0.1923
    1DIPC   C4B 5352  24.279  20.519   5.068  0.1489 -0.2031  0.0613
    1DIPC   NC3 5353  11.370  16.590   7.626 -0.0392  0.3789  0.2268
    1DIPC   PO4 5354  11.661  16.515   7.388 -0.3811  0.0852  0.1952
    1DIPC   GL1 5355  11.470  16.604   7.036  0.0097 -0.0912 -0.2249
    1DIPC   GL2 5356  11.317  16.896   7.236  0.1020  0.2177  0.3491
    1DIPC   C1A 5357  11.662  16.531   6.590  0.1486 -0.0337  0.0133
    1DIPC   D2A 5358  11.792  16.569   6.124  0.2379 -0.0434 -0.0238
    1DIPC   D3A 5359  11.520  16.454   5.824 -0.0233  0.2151 -0.3004
    1DIPC   C4A 5360  11.695  16.102   5.443  0.2601 -0.3206 -0.0364
    1DIPC   C1B 5361  11.273  16.938   6.760 -0.0701 -0.0365 -0.0630
    1DIPC   D2B 5362  11.448  16.924   6.403  0.1991  0.1102  0.1512
    1DIPC   D3B 5363  11.704  17.258   6.648  0.0350  0.1509  0.2396
    1DIPC   C4B 5364  12.111  17.375   6.524 -0.1999 -0.0781  0.1198
    1DIPC   NC3 5365  26.892   9.850   6.849  0.1935  0.0374  0.1577
    1DIPC   PO4 5366  27.222   9.611   6.645  0.0815  0.2521 -0.0252
    1DIPC   GL1 5367  27.113   9.631   6.160 -0.1599 -0.0632 -0.0810
    1DIPC   GL2 5368  26.957   9.864   6.095  0.0397 -0.1271  0.0612
    1DIPC   C1A 5369  27.133   9.358   5.841 -0.0339  0.2328 -0.1631
    1DIPC   D2A 5370  27.507   9.152   6.027 -0.2483  0.3142 -0.1677
    1DIPC   D3A 5371  27.727   9.270   5.641  0.0862 -0.1650 -0.1508
    1DIPC   C4A 5372  27.996   9.630   5.767 -0.1872  0.0729 -0.1010
    1DIPC   C1B 5373  26.838   9.902   5.676 -0.0816 -0.0725 -0.1160
    1DIPC   D2B 5374  26.855   9.879   5.207  0.0538 -0.1679  0.0508
    1DIPC   D3B 5375  26.904   9.490   5.399 -0.1419  0.0089  0.2827
    1DIPC   C4B 5376  27.370   9.280   5.323  0.2663 -0.0610 -0.0913
    1DIPC   NC3 5377  13.819  15.694   7.502  0.1084 -0.0534  0.0736
    1DIPC   PO4 5378  14.073  16.047   7.437  0.1971 -0.2193  0.1014
    1DIPC   GL1 5379  14.086  15.933   6.948  0.1437 -0.3411  0.4580
    1DIPC   GL2 5380  13.818  15.813   6.737  0.1088  0.0720 -0.0924
    1DIPC   C1A 5381  14.210  15.588   6.665  0.0697  0.2501 -0.0673
    1DIPC   D2A 5382  14.377  15.200   6.630 -0.0704  0.0153 -0.0771
    1DIPC   D3A 5383  14.152  15.133   6.215 -0.1566 -0.0331  0.0905
    1DIPC   C4A 5384  14.390  14.935   5.935 -0.2430 -0.1201 -0.1005
    1DIPC   C1B 5385  13.782  15.651   6.300  0.0048  0.4539 -0.2575
    1DIPC   D2B 5386  13.804  15.426   5.979  0.2383  0.2027  0.0076
    1DIPC   D3B 5387  13.510  15.806   5.709 -0.1431  0.2127  0.0455
    1DIPC   C4B 5388  13.113  15.907   5.836 -0.1971  0.0995  0.2559
    1DIPC   NC3 5389  20.025   3.764   6.824 -0.0231 -0.1762 -0.1164
    1DIPC   PO4 5390  20.430   3.852   6.696 -0.2090  0.1451 -0.0896
    1DIPC   GL1 5391  20.253   3.629   6.316 -0.1807  0.0010 -0.1368
    1DIPC   GL2 5392  20.092   3.877   6.173 -0.2321  0.1356  0.0641
    1DIPC   C1A 5393  20.134   3.456   5.880 -0.0177  0.1099 -0.4100
    1DIPC   D2A 5394  19.991   3.168   5.546  0.0316  0.0190 -0.1233
    1DIPC   D3A 5395  19.703   3.266   5.212 -0.4630  0.2759  0.2889
    1DIPC   C4A 5396  19.863   3.449   4.732 -0.0310  0.0522 -0.0737
    1DIPC   C1B 5397  20.267   3.953   5.797  0.0716 -0.0495  0.2618
    1DIPC   D2B 5398  20.516   4.119   5.534 -0.1038 -0.0532 -0.1020
    1DIPC   D3B 5399  20.377   3.673   5.420  0.0469  0.1993 -0.3705
    1DIPC   C4B 5400  19.946   3.720   5.324  0.0025 -0.2818 -0.1865
    1DIPC   NC3 5401  15.974  15.775   7.860 -0.1204  0.2192 -0.1858
    1DIPC   PO4 5402  15.605  15.608   7.748 -0.1717  0.0129 -0.2224
    1DIPC   GL1 5403  15.829  15.673   7.379  0.1597  0.2498 -0.1878
    1DIPC   GL2 5404  15.970  15.971   7.386 -0.2623 -0.0643 -0.0229
    1DIPC   C1A 5405  16.262  15.647   7.089  0.2339  0.1240 -0.2686
    1DIPC   D2A 5406  16.234  15.284   6.809 -0.1190 -0.1370 -0.2470
    1DIPC   D3A 5407  16.005  15.357   6.372 -0.3603  0.1346 -0.0498
    1DIPC   C4A 5408  16.224  15.381   6.077  0.4591  0.0014 -0.1765
    1DIPC   C1B 5409  16.277  16.089   6.988  0.2701  0.0847 -0.1728
    1DIPC   D2B 5410  16.280  15.811   6.613  0.0894  0.1177  0.1979
    1DIPC   D3B 5411  16.264  16.132   6.376  0.0873  0.0178 -0.1075
    1DIPC   C4B 5412  16.599  16.358   6.215 -0.1753  0.1729 -0.1052
    1DIPC   NC3 5413  26.175  16.974   6.786  0.1887  0.1142  0.0510
    1DIPC   PO4 5414  26.613  16.991   6.773  0.2038  0.1003 -0.0382
    1DIPC   GL1 5415  26.434  16.988   6.356  0.0795  0.1980 -0.1475
    1DIPC   GL2 5416  26.438  16.730   6.236  0.0111  0.1231 -0.2367
    1DIPC   C1A 5417  26.639  17.281   6.186  0.0360 -0.1309 -0.0997
    1DIPC   D2A 5418  26.869  17.669   6.130 -0.1760  0.1636  0.1534
    1DIPC   D3A 5419  26.862  17.499   5.655 -0.1192 -0.1571 -0.4012
    1DIPC   C4A 5420  26.667  17.428   5.274 -0.2720  0.2677 -0.0509
    1DIPC   C1B 5421  26.195  16.533   6.044 -0.2837 -0.1138 -0.2150
    1DIPC   D2B 5422  26.392  16.408   5.675  0.2514 -0.0078 -0.2334
    1DIPC   D3B 5423  26.138  15.973   5.796 -0.0955 -0.0164  0.1434
    1DIPC   C4B 5424  25.912  15.852   5.406 -0.0867  0.0190 -0.0691
    1DIPC   NC3 5425  23.318   7.887   6.779  0.0590 -0.0357  0.3225
    1DIPC   PO4 5426  23.039   8.174   6.866  0.0061 -0.3164 -0.3902
    1DIPC   GL1 5427  23.102   8.283   6.481  0.2629  0.3816 -0.0500
    1DIPC   GL2 5428  23.373   8.512   6.398  0.1723 -0.2646  0.3060
    1DIPC   C1A 5429  23.036   8.272   6.084 -0.2852  0.0244  0.2505
    1DIPC   D2A 5430  22.767   8.078   5.777 -0.3771  0.1906  0.0247
    1DIPC   D3A 5431  22.876   7.828   5.378 -0.0825 -0.0859  0.0951
    1DIPC   C4A 5432  22.673   7.957   4.972 -0.0111  0.0224 -0.2196
    1DIPC   C1B 5433  23.021   8.772   6.363 -0.0517 -0.3598  0.0621
    1DIPC   D2B 5434  22.724   9.035   6.359  0.1555  0.1027  0.1842
    1DIPC   D3B 5435  22.505   8.996   5.963  0.0398 -0.2553  0.2573
    1DIPC   C4B 5436  22.812   8.922   5.593  0.0875 -0.2306 -0.0498
    1DIPC   NC3 5437  24.732  16.850   7.424  0.0384 -0.2425  0.1912
    1DIPC   PO4 5438  24.473  16.843   7.135 -0.2609  0.0096  0.1449
    1DIPC   GL1 5439  24.017  16.821   6.860 -0.0712 -0.1539  0.2957
    1DIPC   GL2 5440  23.860  17.077   6.733 -0.0320  0.4404  0.1831
    1DIPC   C1A 5441  23.804  16.699   6.428  0.1219 -0.0121 -0.1418
    1DIPC   D2A 5442  23.764  16.545   6.076  0.1072 -0.4754  0.0665
    1DIPC   D3A 5443  24.062  16.895   5.935  0.0944 -0.1914 -0.0104
    1DIPC   C4A 5444  24.164  16.821   5.531  0.2810 -0.2413  0.3558
    1DIPC   C1B 5445  23.889  17.324   6.206  0.1141  0.2759 -0.2098
    1DIPC   D2B 5446  24.048  17.409   5.864  0.0922  0.0450 -0.0601
    1DIPC   D3B 5447  24.067  17.291   5.388 -0.0684  0.2147 -0.0364
    1DIPC   C4B 5448  24.157  17.522   5.041  0.2859  0.0344  0.0805
    1DIPC   NC3 5449  20.688  26.200   7.223 -0.1495  0.0818  0.0220
    1DIPC   PO4 5450  20.793  26.521   6.922  0.1097 -0.1100 -0.0111
    1DIPC   GL1 5451  21.112  26.573   6.536  0.2025  0.0189 -0.0028
    1DIPC   GL2 5452  21.120  26.868   6.529 -0.0609  0.0129 -0.2171
    1DIPC   C1A 5453  21.119  26.583   6.049 -0.0128  0.1821  0.3493
    1DIPC   D2A 5454  20.917  26.525   5.715 -0.0987 -0.0739 -0.2795
    1DIPC   D3A 5455  21.268  26.458   5.414  0.1947  0.0571  0.3019
    1DIPC   C4A 5456  21.288  26.616   4.988  0.0582  0.3355  0.1369
    1DIPC   C1B 5457  20.990  27.127   6.181 -0.0657 -0.0995  0.0683
    1DIPC   D2B 5458  21.156  27.106   5.845 -0.0339  0.0531 -0.0249
    1DIPC   D3B 5459  20.818  27.050   5.555 -0.1649 -0.0364  0.0118
    1DIPC   C4B 5460  20.413  27.036   5.282  0.1510 -0.1755 -0.4048
    1DIPC   NC3 5461   2.960  13.742   6.746  0.4331 -0.0185  0.1118
    1DIPC   PO4 5462   2.967  13.273   6.686 -0.2550  0.0016 -0.1055
    1DIPC   GL1 5463   3.159  12.926   6.486 -0.0435  0.5527  0.2280
    1DIPC   GL2 5464   3.500  13.095   6.435  0.2166 -0.2603  0.0684
    1DIPC   C1A 5465   3.040  12.716   6.222  0.0774  0.1705  0.2957
    1DIPC   D2A 5466   2.842  12.423   5.857  0.0976 -0.0889  0.1884
    1DIPC   D3A 5467   3.197  12.193   5.858  0.1929 -0.1773 -0.5585
    1DIPC   C4A 5468   3.186  11.721   5.761 -0.1205  0.0663  0.2138
    1DIPC   C1B 5469   3.802  12.923   6.035  0.1936  0.0008  0.1510
    1DIPC   D2B 5470   3.893  12.688   5.651  0.2950 -0.0636 -0.3026
    1DIPC   D3B 5471   3.565  12.562   5.376 -0.2262 -0.1223 -0.0303
    1DIPC   C4B 5472   3.425  12.131   5.371  0.0376  0.1727 -0.0722
    1DIPC   NC3 5473   3.047   0.725   6.485  0.0105  0.1150  0.2314
    1DIPC   PO4 5474   2.922   1.158   6.356  0.1260  0.2684  0.0794
    1DIPC   GL1 5475   3.174   1.262   6.016 -0.0427 -0.2672 -0.2106
    1DIPC   GL2 5476   2.949   1.126   5.771 -0.0511  0.0051 -0.2243
    1DIPC   C1A 5477   3.287   1.468   5.561  0.1237 -0.0226  0.0705
    1DIPC   D2A 5478   3.423   1.470   5.106  0.1792  0.1350  0.1576
    1DIPC   D3A 5479   3.374   1.836   4.919 -0.0536 -0.0372 -0.2821
    1DIPC   C4A 5480   3.336   2.159   5.197 -0.1269  0.1223 -0.0605
    1DIPC   C1B 5481   2.822   1.283   5.343  0.1933  0.0267 -0.2274
    1DIPC   D2B 5482   3.021   1.277   4.917 -0.0365 -0.1656 -0.1834
    1DIPC   D3B 5483   3.050   1.574   4.628  0.0486  0.1161 -0.1915
    1DIPC   C4B 5484   3.312   1.913   4.453  0.1602  0.0374 -0.2688
    1DIPC   NC3 5485   0.810  14.487   6.461 -0.4234 -0.0096  0.0761
    1DIPC   PO4 5486   0.723  14.759   6.163  0.1069 -0.2748  0.4150
    1DIPC   GL1 5487   0.801  14.730   5.754  0.1437 -0.4042  0.0973
    1DIPC   GL2 5488   0.604  14.677   5.510  0.0228 -0.2310  0.0603
    1DIPC   C1A 5489   1.068  14.799   5.485  0.3863 -0.1459  0.0695
    1DIPC   D2A 5490   1.130  15.128   5.109  0.1548 -0.0211 -0.2250
    1DIPC   D3A 5491   1.317  15.161   4.875  0.0650 -0.0277 -0.2151
    1DIPC   C4A 5492   1.186  15.242   4.496 -0.4405 -0.2253  0.1052
    1DIPC   C1B 5493   0.276  14.514   5.257  0.4097 -0.0201 -0.1009
    1DIPC   D2B 5494   0.277  14.437   4.884 -0.1085 -0.1585  0.0137
    1DIPC   D3B 5495   0.287  14.783   4.564  0.1198  0.0530 -0.1586
    1DIPC   C4B 5496   0.579  14.521   4.346  0.1401 -0.0985 -0.1366
    1DIPC   NC3 5497   6.158   8.994   6.356  0.3325  0.0427 -0.3798
    1DIPC   PO4 5498   6.415   9.374   6.430 -0.0209  0.1796 -0.0720
    1DIPC   GL1 5499   6.405   9.327   6.061 -0.3481  0.0523 -0.0289
    1DIPC   GL2 5500   6.153   9.379   5.968 -0.0767  0.0092  0.1701
    1DIPC   C1A 5501   6.764   9.237   5.850 -0.3057 -0.0776  0.0038
    1DIPC   D2A 5502   7.163   9.191   5.602  0.2149  0.0787  0.2771
    1DIPC   D3A 5503   7.269   9.269   5.993 -0.3336  0.1850 -0.2673
    1DIPC   C4A 5504   7.024   9.597   6.117 -0.2514 -0.2438 -0.2618
    1DIPC   C1B 5505   5.780   9.312   5.683 -0.1521 -0.0040 -0.3071
    1DIPC   D2B 5506   5.453   9.161   5.550  0.3355  0.1759  0.1065
    1DIPC   D3B 5507   5.050   8.882   5.461  0.3369 -0.1113 -0.0065
    1DIPC   C4B 5508   5.002   8.947   5.010  0.0145  0.0476  0.3882
    1DIPC   NC3 5509  12.827  17.015   7.116  0.1438  0.1505  0.1112
    1DIPC   PO4 5510  12.780  16.469   7.106 -0.1875  0.0576 -0.0462
    1DIPC   GL1 5511  12.968  16.593   6.635 -0.1762 -0.1783 -0.1067
    1DIPC   GL2 5512  12.698  16.510   6.441 -0.0035  0.2023 -0.1475
    1DIPC   C1A 5513  13.176  16.625   6.246 -0.1768 -0.2624  0.2166
    1DIPC   D2A 5514  13.353  16.383   5.944  0.0288  0.3397  0.5279
    1DIPC   D3A 5515  13.821  16.560   5.809  0.3280  0.1022 -0.0134
    1DIPC   C4A 5516  14.128  16.334   5.682 -0.0810 -0.0792 -0.1597
    1DIPC   C1B 5517  12.697  16.242   6.055 -0.1322 -0.1158 -0.1144
    1DIPC   D2B 5518  12.490  15.893   5.773  0.4121 -0.2139 -0.2019
    1DIPC   D3B 5519  12.172  15.713   6.063  0.2051  0.0946  0.0569
    1DIPC   C4B 5520  12.129  15.301   5.985  0.0904 -0.3398 -0.1497
    1DIPC   NC3 5521  15.260  14.416   7.632  0.0413 -0.2026 -0.2413
    1DIPC   PO4 5522  15.128  14.013   7.662  0.1553 -0.3704 -0.2112
    1DIPC   GL1 5523  15.229  14.042   7.192  0.3532 -0.0939 -0.0042
    1DIPC   GL2 5524  15.027  13.825   6.995 -0.0976  0.1271  0.4220
    1DIPC   C1A 5525  15.624  14.141   7.126  0.4296 -0.2291  0.1518
    1DIPC   D2A 5526  15.909  14.482   7.256  0.3012  0.0917 -0.1769
    1DIPC   D3A 5527  16.241  14.252   7.038 -0.1604  0.0198 -0.3419
    1DIPC   C4A 5528  16.346  14.329   6.619  0.1098 -0.0045  0.1194
    1DIPC   C1B 5529  14.907  13.868   6.545 -0.1393 -0.0688  0.2851
    1DIPC   D2B 5530  15.126  13.880   6.157  0.1794  0.3658 -0.0262
    1DIPC   D3B 5531  15.038  14.306   6.314 -0.3149 -0.1053  0.0065
    1DIPC   C4B 5532  15.305  14.640   6.081 -0.0038 -0.0426 -0.1180
    1DIPC   NC3 5533  25.960  17.844   6.843  0.3217 -0.0093  0.0736
    1DIPC   PO4 5534  25.854  17.326   6.765  0.2446 -0.0801  0.2805
    1DIPC   GL1 5535  25.434  17.323   6.479  0.1441  0.1430  0.1373
    1DIPC   GL2 5536  25.224  17.117   6.391 -0.1767 -0.0323  0.0093
    1DIPC   C1A 5537  25.397  17.582   6.046 -0.0471  0.3547  0.3029
    1DIPC   D2A 5538  25.412  17.774   5.735 -0.0092  0.1960 -0.2080
    1DIPC   D3A 5539  25.115  17.544   5.427 -0.1822  0.2524 -0.3841
    1DIPC   C4A 5540  25.223  17.175   5.216  0.1317  0.2298  0.3538
    1DIPC   C1B 5541  24.954  17.529   6.399 -0.3696 -0.0730  0.0847
    1DIPC   D2B 5542  24.576  17.635   6.417  0.2682  0.0191 -0.0555
    1DIPC   D3B 5543  24.503  17.319   6.248 -0.0552 -0.1491  0.0406
    1DIPC   C4B 5544  24.253  16.992   6.447  0.3735  0.2486  0.1572
    1DIPC   NC3 5545  10.402  10.547   7.894  0.0482 -0.0213  0.2256
    1DIPC   PO4 5546  10.151  10.427   7.428  0.2557  0.0634 -0.2526
    1DIPC   GL1 5547  10.227  10.537   6.974 -0.1923 -0.0759 -0.0973
    1DIPC   GL2 5548  10.552  10.695   6.850  0.0638  0.1929  0.0834
    1DIPC   C1A 5549  10.059  10.738   6.636 -0.0344  0.0121  0.0229
    1DIPC   D2A 5550   9.755  10.837   6.394  0.0239  0.4716  0.1035
    1DIPC   D3A 5551   9.904  10.875   5.984  0.4362 -0.4998 -0.1726
    1DIPC   C4A 5552   9.771  10.595   5.792 -0.0767  0.2256 -0.2473
    1DIPC   C1B 5553  10.668  10.698   6.439 -0.2808  0.1213 -0.2074
    1DIPC   D2B 5554  10.986  10.630   6.096  0.0985 -0.1099  0.3273
    1DIPC   D3B 5555  10.657  10.650   5.845  0.0518  0.0719  0.2339
    1DIPC   C4B 5556  10.812  10.563   5.469 -0.2801  0.0743 -0.1664
    1DIPC   NC3 5557  12.611  27.299   7.503 -0.1967  0.3892  0.0710
    1DIPC   PO4 5558  12.927  27.526   7.265  0.1271 -0.3407 -0.2219
    1DIPC   GL1 5559  12.897  27.734   6.932  0.3165  0.1200 -0.0117
    1DIPC   GL2 5560  13.055  27.590   6.703 -0.2408  0.0751  0.2126
    1DIPC   C1A 5561  12.709  27.854   6.538  0.1081 -0.0529 -0.0453
    1DIPC   D2A 5562  12.361  28.039   6.236 -0.0654  0.1856  0.0617
    1DIPC   D3A 5563  12.452   0.275   6.128  0.1197 -0.1618  0.0836
    1DIPC   C4A 5564  12.576   0.139   5.783 -0.1860 -0.1995 -0.2692
    1DIPC   C1B 5565  13.147  27.723   6.274  0.0777  0.1459  0.1957
    1DIPC   D2B 5566  13.401  28.052   6.169  0.3685  0.1627 -0.0520
    1DIPC   D3B 5567  13.117  27.895   5.814  0.1365 -0.1411 -0.4902
    1DIPC   C4B 5568  12.757  27.812   5.966  0.2257  0.1861  0.1709
    1DIPC   NC3 5569  17.863   3.918   7.398  0.1105 -0.2179  0.0287
    1DIPC   PO4 5570  17.487   3.859   7.369 -0.0305 -0.1056  0.0899
    1DIPC   GL1 5571  17.568   3.811   6.920  0.2447  0.0597  0.0036
    1DIPC   GL2 5572  17.742   4.085   6.930  0.1965 -0.1309  0.3090
    1DIPC   C1A 5573  17.440   3.840   6.530 -0.1251 -0.1475  0.1410
    1DIPC   D2A 5574  17.379   3.657   6.053  0.1017  0.2015  0.2395
    1DIPC   D3A 5575  17.380   4.050   5.957 -0.1053  0.0561  0.3026
    1DIPC   C4A 5576  17.189   4.443   6.053  0.0453  0.0338 -0.0945
    1DIPC   C1B 5577  17.894   3.825   6.585 -0.1332 -0.1588  0.2102
    1DIPC   D2B 5578  17.814   3.872   6.113  0.2387 -0.1697  0.2835
    1DIPC   D3B 5579  17.738   3.442   6.401 -0.0462  0.2489  0.1668
    1DIPC   C4B 5580  17.995   3.152   6.726 -0.0012 -0.0560 -0.1371
    1DIPC   NC3 5581   7.557  11.655   7.191 -0.2727  0.1180 -0.0302
    1DIPC   PO4 5582   7.996  11.577   7.158  0.2334 -0.1944 -0.0204
    1DIPC   GL1 5583   7.856  11.739   6.746 -0.0298  0.0070  0.2111
    1DIPC   GL2 5584   8.037  11.916   6.586 -0.0672 -0.0402  0.2409
    1DIPC   C1A 5585   7.630  11.736   6.347 -0.2368  0.2966 -0.2582
    1DIPC   D2A 5586   7.621  11.955   5.875  0.0031  0.0409  0.0437
    1DIPC   D3A 5587   7.179  12.166   5.789 -0.0149 -0.1225  0.3684
    1DIPC   C4A 5588   7.360  12.507   5.527  0.3469 -0.0781 -0.0967
    1DIPC   C1B 5589   8.110  11.766   6.108 -0.1723 -0.2460 -0.0355
    1DIPC   D2B 5590   8.002  11.609   5.702  0.3033 -0.1481  0.1208
    1DIPC   D3B 5591   8.308  11.416   5.368 -0.1138  0.1711  0.0913
    1DIPC   C4B 5592   8.676  11.723   5.188 -0.0351  0.0701  0.0221
    1DIPC   NC3 5593  22.843  22.196   7.096  0.1236  0.0615  0.2331
    1DIPC   PO4 5594  23.325  21.893   6.946  0.2582  0.1003 -0.4299
    1DIPC   GL1 5595  22.974  22.033   6.584  0.0417  0.0075 -0.0346
    1DIPC   GL2 5596  22.662  22.239   6.583  0.0316 -0.2396 -0.1343
    1DIPC   C1A 5597  23.010  21.989   6.051  0.2534 -0.1936  0.0777
    1DIPC   D2A 5598  23.210  22.010   5.618 -0.0442 -0.2115 -0.0546
    1DIPC   D3A 5599  23.048  22.225   5.260  0.2233 -0.0926 -0.2372
    1DIPC   C4A 5600  23.059  22.248   4.832 -0.0118  0.0716 -0.3431
    1DIPC   C1B 5601  22.607  22.332   6.100 -0.1718 -0.3077  0.2627
    1DIPC   D2B 5602  22.749  22.225   5.740 -0.2686 -0.0935  0.1640
    1DIPC   D3B 5603  22.551  22.185   5.361  0.0098 -0.0083 -0.0712
    1DIPC   C4B 5604  22.725  21.878   5.012  0.0479 -0.0438  0.1948
    1DIPC   NC3 5605  13.324   1.226   7.463  0.0879 -0.0667  0.1480
    1DIPC   PO4 5606  13.567   0.930   7.190  0.0746 -0.0796  0.2542
    1DIPC   GL1 5607  13.457   0.834   6.820 -0.1647 -0.0325 -0.1988
    1DIPC   GL2 5608  13.516   0.500   6.715  0.0205  0.0388 -0.1932
    1DIPC   C1A 5609  13.410   0.960   6.410  0.0659 -0.1431  0.0816
    1DIPC   D2A 5610  13.117   0.993   6.040  0.0174  0.0624 -0.0299
    1DIPC   D3A 5611  13.212   1.389   6.080 -0.2251 -0.1692  0.0823
    1DIPC   C4A 5612  13.288   1.548   5.682 -0.0098  0.0181 -0.1740
    1DIPC   C1B 5613  13.084   0.519   6.659  0.0777  0.2388 -0.0627
    1DIPC   D2B 5614  12.868   0.647   6.340 -0.1531  0.2099 -0.1665
    1DIPC   D3B 5615  12.664   0.901   6.696 -0.1336 -0.1952  0.3124
    1DIPC   C4B 5616  12.953   1.001   6.990  0.0769  0.1899  0.1707
    1DIPC   NC3 5617   4.560   7.806   6.618 -0.3540  0.1408  0.2158
    1DIPC   PO4 5618   4.390   8.033   6.323 -0.1007  0.1678  0.1100
    1DIPC   GL1 5619   4.378   7.873   5.867  0.2457 -0.0136  0.1194
    1DIPC   GL2 5620   4.102   8.019   5.821 -0.0301 -0.2841 -0.1199
    1DIPC   C1A 5621   4.337   7.674   5.578 -0.2070 -0.0627  0.0267
    1DIPC   D2A 5622   4.315   7.609   5.194  0.1039  0.4668 -0.2537
    1DIPC   D3A 5623   4.322   7.899   4.857 -0.0443 -0.0323  0.2406
    1DIPC   C4A 5624   4.754   7.884   4.628 -0.0956 -0.1365 -0.1914
    1DIPC   C1B 5625   3.788   7.930   5.454  0.0885 -0.0533 -0.0089
    1DIPC   D2B 5626   3.784   8.076   5.109  0.3669  0.4355 -0.3689
    1DIPC   D3B 5627   4.071   8.459   4.982  0.0662 -0.1074 -0.1482
    1DIPC   C4B 5628   4.210   8.786   4.696 -0.1846 -0.0217 -0.5285
    1DIPC   NC3 5629   9.240   8.213   7.335  0.3087 -0.2908  0.0380
    1DIPC   PO4 5630   9.025   8.574   7.462  0.1649  0.1044 -0.1427
    1DIPC   GL1 5631   8.744   8.486   7.053 -0.1393  0.1738 -0.1406
    1DIPC   GL2 5632   8.922   8.283   6.934 -0.1282  0.0474 -0.1632
    1DIPC   C1A 5633   8.508   8.579   6.710 -0.0712 -0.1886 -0.1626
    1DIPC   D2A 5634   8.635   8.686   6.339  0.2870  0.0350  0.1206
    1DIPC   D3A 5635   8.700   9.013   6.128  0.1432  0.0345  0.0587
    1DIPC   C4A 5636   8.592   9.323   6.453 -0.0503 -0.0197  0.0663
    1DIPC   C1B 5637   8.918   8.374   6.572 -0.2488 -0.0338  0.4102
    1DIPC   D2B 5638   9.223   8.253   6.250 -0.0061  0.0998 -0.3793
    1DIPC   D3B 5639   9.606   8.320   6.191 -0.0125  0.0726  0.0563
    1DIPC   C4B 5640   9.742   8.259   5.718 -0.1674  0.1350  0.0089
    1DIPC   NC3 5641   7.464  13.824   6.851  0.2727  0.1294 -0.1544
    1DIPC   PO4 5642   7.460  13.366   6.898 -0.1720 -0.1863 -0.1636
    1DIPC   GL1 5643   7.594  13.410   6.600 -0.0041 -0.1823  0.1315
    1DIPC   GL2 5644   7.910  13.635   6.607 -0.3126 -0.0720  0.1264
    1DIPC   C1A 5645   7.562  13.519   6.214  0.1190  0.0448 -0.2466
    1DIPC   D2A 5646   7.666  13.336   5.922 -0.2623 -0.2276 -0.0154
    1DIPC   D3A 5647   7.746  13.085   6.157 -0.0048 -0.0896  0.0991
    1DIPC   C4A 5648   7.596  12.593   6.067 -0.1499 -0.2142 -0.0439
    1DIPC   C1B 5649   8.068  13.463   6.310 -0.1059  0.2812 -0.1993
    1DIPC   D2B 5650   8.328  13.119   6.238  0.1941  0.0520  0.1882
    1DIPC   D3B 5651   8.698  13.147   5.961 -0.0404 -0.0225 -0.4184
    1DIPC   C4B 5652   8.640  13.626   6.041  0.0665  0.0951 -0.3177
    1DIPC   NC3 5653   7.197  15.262   6.967 -0.1986  0.1970  0.0226
    1DIPC   PO4 5654   7.582  15.158   7.092  0.1322 -0.1894 -0.0072
    1DIPC   GL1 5655   7.859  15.041   6.774  0.2848 -0.1137  0.1019
    1DIPC   GL2 5656   7.758  14.759   6.809 -0.1650 -0.0214  0.0593
    1DIPC   C1A 5657   7.995  15.134   6.351 -0.0866 -0.1987  0.1819
    1DIPC   D2A 5658   7.627  15.116   6.102 -0.0166  0.2889 -0.1026
    1DIPC   D3A 5659   7.105  15.071   5.983  0.1858 -0.1033  0.1446
    1DIPC   C4A 5660   6.910  15.222   5.580  0.0266 -0.1448  0.1268
    1DIPC   C1B 5661   7.644  14.691   6.378 -0.0096 -0.1932  0.2969
    1DIPC   D2B 5662   7.276  14.599   6.227 -0.0145 -0.1348 -0.2728
    1DIPC   D3B 5663   7.599  14.493   5.885  0.0010 -0.0814 -0.0401
    1DIPC   C4B 5664   7.951  14.436   6.038  0.0363 -0.2626 -0.1275
    1DIPC   NC3 5665  23.531  16.839   7.016  0.0681  0.4453  0.1628
    1DIPC   PO4 5666  23.092  16.648   6.892  0.0226 -0.2787  0.0773
    1DIPC   GL1 5667  23.128  16.692   6.532 -0.4514  0.0476  0.0045
    1DIPC   GL2 5668  22.816  16.621   6.414 -0.2957  0.1234 -0.2898
    1DIPC   C1A 5669  23.168  16.560   6.057  0.1173  0.0435 -0.1395
    1DIPC   D2A 5670  23.231  16.574   5.545 -0.0878  0.0183  0.0790
    1DIPC   D3A 5671  23.646  16.811   5.503 -0.0199 -0.1667  0.0855
    1DIPC   C4A 5672  23.777  16.917   5.141 -0.3141 -0.3546 -0.2193
    1DIPC   C1B 5673  22.951  16.154   6.328 -0.2120 -0.2290 -0.0153
    1DIPC   D2B 5674  23.066  15.715   6.230 -0.1084  0.1779 -0.0446
    1DIPC   D3B 5675  22.739  15.858   5.939 -0.0671 -0.0903 -0.1286
    1DIPC   C4B 5676  22.390  16.073   5.713 -0.1852 -0.0048  0.0421
    1DIPC   NC3 5677  25.764  24.393   6.732 -0.2099 -0.0357 -0.3171
    1DIPC   PO4 5678  25.819  24.815   6.683 -0.0259 -0.0221 -0.0539
    1DIPC   GL1 5679  25.741  24.694   6.227  0.3596 -0.0109 -0.0850
    1DIPC   GL2 5680  26.017  24.881   6.200  0.0121 -0.0319  0.1408
    1DIPC   C1A 5681  25.632  24.798   5.736  0.0268 -0.1549  0.0211
    1DIPC   D2A 5682  25.824  24.928   5.365 -0.3489  0.0609  0.1753
    1DIPC   D3A 5683  25.944  25.275   5.551 -0.3887  0.0819  0.2804
    1DIPC   C4A 5684  25.855  25.624   5.192 -0.0815 -0.4085  0.4563
    1DIPC   C1B 5685  26.126  24.857   5.804  0.2030 -0.1277 -0.2017
    1DIPC   D2B 5686  26.370  25.049   5.483 -0.0274  0.0195 -0.1917
    1DIPC   D3B 5687  26.587  25.152   5.122  0.1705  0.0779  0.0605
    1DIPC   C4B 5688  26.774  25.513   5.015  0.0268 -0.0781 -0.0835
    1DIPC   NC3 5689   9.512  19.390   7.373 -0.0109  0.1139 -0.0468
    1DIPC   PO4 5690   9.614  18.986   7.556  0.0459 -0.0064 -0.4198
    1DIPC   GL1 5691   9.367  18.875   7.212  0.1156 -0.0041 -0.0856
    1DIPC   GL2 5692   9.184  18.550   7.212  0.3110  0.1784 -0.2961
    1DIPC   C1A 5693   9.252  19.063   6.816 -0.0435 -0.0758 -0.1247
    1DIPC   D2A 5694   9.322  19.434   6.674  0.1630 -0.1722  0.3849
    1DIPC   D3A 5695   9.005  19.761   6.568  0.1780 -0.0835  0.0660
    1DIPC   C4A 5696   9.151  19.740   6.120  0.0076  0.1747  0.1337
    1DIPC   C1B 5697   9.109  18.271   6.854 -0.2081  0.1119  0.1492
    1DIPC   D2B 5698   8.936  17.925   6.676  0.0461 -0.2214  0.2520
    1DIPC   D3B 5699   8.659  18.238   6.602  0.2327  0.0752 -0.1140
    1DIPC   C4B 5700   8.651  18.521   6.285 -0.1635  0.2759  0.1215
    1DIPC   NC3 5701  15.887   7.123   7.541 -0.3491  0.0631 -0.2422
    1DIPC   PO4 5702  15.630   7.072   7.129  0.1965  0.1592 -0.0691
    1DIPC   GL1 5703  15.655   6.794   6.703  0.0927  0.1359  0.2738
    1DIPC   GL2 5704  15.830   6.576   6.705  0.2913  0.1714 -0.1521
    1DIPC   C1A 5705  15.390   6.563   6.438 -0.2418  0.3788  0.2045
    1DIPC   D2A 5706  15.095   6.233   6.420  0.0438  0.1510 -0.2424
    1DIPC   D3A 5707  14.736   6.393   6.208 -0.0763 -0.1287 -0.1482
    1DIPC   C4A 5708  14.586   6.549   5.800  0.1805  0.1312  0.0586
    1DIPC   C1B 5709  15.925   6.512   6.215  0.0120 -0.1017  0.2435
    1DIPC   D2B 5710  15.962   6.719   5.785 -0.0663  0.2376  0.0269
    1DIPC   D3B 5711  15.864   6.372   5.492  0.0192  0.0130  0.1697
    1DIPC   C4B 5712  15.387   6.200   5.588 -0.1666 -0.2492 -0.0801
    1DIPC   NC3 5713  17.904  20.753   7.201  0.3512  0.1383 -0.0001
    1DIPC   PO4 5714  17.568  20.825   6.898 -0.0016  0.1149 -0.2487
    1DIPC   GL1 5715  17.635  20.927   6.443 -0.3099 -0.1517  0.0898
    1DIPC   GL2 5716  18.016  20.916   6.453  0.3047 -0.0510 -0.0609
    1DIPC   C1A 5717  17.667  20.920   6.059 -0.1153  0.1200 -0.2190
    1DIPC   D2A 5718  17.729  20.899   5.647 -0.1867 -0.3276 -0.0249
    1DIPC   D3A 5719  17.661  20.754   5.313  0.2936 -0.1588  0.0069
    1DIPC   C4A 5720  18.005  20.440   5.204 -0.0487 -0.3185 -0.0354
    1DIPC   C1B 5721  18.197  20.899   6.061  0.3696 -0.0752 -0.1587
    1DIPC   D2B 5722  18.527  21.032   6.059  0.0987 -0.0320  0.0354
    1DIPC   D3B 5723  18.765  20.823   6.271 -0.1723  0.0116 -0.0367
    1DIPC   C4B 5724  18.610  20.568   6.710 -0.0381 -0.1117  0.1674
    1DIPC   NC3 5725  17.839  11.806   7.542 -0.3004  0.2885 -0.0216
    1DIPC   PO4 5726  17.966  11.371   7.603 -0.1547 -0.0885  0.0967
    1DIPC   GL1 5727  18.109  11.446   7.160  0.0560 -0.0873  0.3443
    1DIPC   GL2 5728  18.352  11.161   7.001 -0.5060 -0.1488 -0.1543
    1DIPC   C1A 5729  17.854  11.611   6.812  0.0418  0.3864  0.0738
    1DIPC   D2A 5730  17.943  11.500   6.286 -0.0482  0.0825  0.0747
    1DIPC   D3A 5731  17.687  11.378   6.030 -0.0102 -0.1183  0.0468
    1DIPC   C4A 5732  17.323  11.560   6.014  0.1193  0.0275  0.1685
    1DIPC   C1B 5733  18.248  11.140   6.592  0.1301 -0.0586 -0.0863
    1DIPC   D2B 5734  18.229  11.129   6.183  0.1114 -0.0710  0.0422
    1DIPC   D3B 5735  18.649  11.221   5.944 -0.0770 -0.2117  0.1598
    1DIPC   C4B 5736  18.663  11.568   5.652 -0.1201  0.0484  0.1800
    1DIPC   NC3 5737  15.525  11.692   7.947 -0.0083  0.1312  0.0048
    1DIPC   PO4 5738  15.520  12.024   7.935  0.1242  0.4490 -0.2345
    1DIPC   GL1 5739  15.492  12.048   7.548 -0.3081 -0.2818  0.2173
    1DIPC   GL2 5740  15.657  11.825   7.451 -0.4885 -0.0375  0.2681
    1DIPC   C1A 5741  15.465  12.145   7.127 -0.1282  0.0062  0.1387
    1DIPC   D2A 5742  15.686  12.058   6.668  0.2397  0.3010 -0.1284
    1DIPC   D3A 5743  15.675  11.806   6.286 -0.0647  0.1569  0.3204
    1DIPC   C4A 5744  15.403  11.516   6.481  0.2482  0.1739  0.2377
    1DIPC   C1B 5745  15.980  11.947   7.146 -0.2022  0.3307 -0.0177
    1DIPC   D2B 5746  16.220  12.093   6.802  0.0301 -0.2367  0.0025
    1DIPC   D3B 5747  16.273  11.749   6.593  0.1070 -0.1466  0.0456
    1DIPC   C4B 5748  16.163  11.865   6.161  0.2822 -0.0856 -0.2186
    1DIPC   NC3 5749  11.934  24.409   6.782 -0.1993  0.0067  0.1373
    1DIPC   PO4 5750  12.241  23.989   6.562  0.1376  0.1118  0.2731
    1DIPC   GL1 5751  12.316  23.936   6.124 -0.3163  0.0408 -0.3129
    1DIPC   GL2 5752  12.629  23.770   6.113 -0.2430 -0.1130 -0.0800
    1DIPC   C1A 5753  12.269  23.808   5.661 -0.1080  0.0242 -0.1652
    1DIPC   D2A 5754  12.166  23.556   5.329 -0.2249 -0.1845  0.0823
    1DIPC   D3A 5755  11.990  23.633   5.054  0.1884  0.0972  0.1561
    1DIPC   C4A 5756  12.196  23.879   4.753  0.1591  0.1832 -0.0546
    1DIPC   C1B 5757  12.688  23.485   5.749  0.1564 -0.3988 -0.3289
    1DIPC   D2B 5758  12.671  23.407   5.359 -0.2999 -0.1469 -0.2185
    1DIPC   D3B 5759  12.532  23.795   5.147 -0.3775  0.1305  0.1398
    1DIPC   C4B 5760  12.474  24.216   5.368  0.1093  0.1153 -0.0912
    1DIPC   NC3 5761  25.217  12.912   6.832 -0.0215 -0.2798 -0.1366
    1DIPC   PO4 5762  25.482  13.369   6.899  0.2657 -0.0123  0.0359
    1DIPC   GL1 5763  25.308  13.360   6.499 -0.0337 -0.0871 -0.0685
    1DIPC   GL2 5764  25.025  13.114   6.374 -0.0023  0.0830 -0.3363
    1DIPC   C1A 5765  24.840  13.523   6.296 -0.1896 -0.2556 -0.0590
    1DIPC   D2A 5766  24.408  13.560   6.391  0.0358  0.1063 -0.1360
    1DIPC   D3A 5767  24.128  13.613   5.995 -0.1302  0.2014 -0.1751
    1DIPC   C4A 5768  24.013  13.982   5.815  0.2029 -0.0324 -0.4218
    1DIPC   C1B 5769  25.060  13.287   5.966 -0.4321 -0.0206  0.1797
    1DIPC   D2B 5770  25.340  13.269   5.596  0.1404  0.1621 -0.0923
    1DIPC   D3B 5771  25.459  13.376   5.182  0.1508 -0.1159 -0.1217
    1DIPC   C4B 5772  25.294  13.621   4.776 -0.3072  0.0279  0.1463
    1DIPC   NC3 5773  12.866  13.283   8.239 -0.1986 -0.1241 -0.1893
    1DIPC   PO4 5774  12.828  13.224   7.750 -0.1304  0.1124 -0.0985
    1DIPC   GL1 5775  12.753  13.069   7.343  0.0219 -0.0895  0.0561
    1DIPC   GL2 5776  12.558  13.378   7.247 -0.1539 -0.0996  0.0214
    1DIPC   C1A 5777  12.364  12.845   7.142  0.2232 -0.0334  0.0815
    1DIPC   D2A 5778  11.968  12.622   7.087  0.1092 -0.1542 -0.1077
    1DIPC   D3A 5779  11.776  12.669   6.690 -0.1641  0.0228 -0.0289
    1DIPC   C4A 5780  11.713  13.061   6.556 -0.4120  0.1767  0.1284
    1DIPC   C1B 5781  12.651  13.674   6.942 -0.4552  0.2349  0.1098
    1DIPC   D2B 5782  12.895  13.620   6.596 -0.1117 -0.2904 -0.2551
    1DIPC   D3B 5783  13.055  13.970   6.734  0.1346 -0.1500 -0.0363
    1DIPC   C4B 5784  12.873  14.075   7.184 -0.3466  0.0331 -0.0341
    1DIPC   NC3 5785  27.736  11.150   7.296 -0.2745  0.0900 -0.0497
    1DIPC   PO4 5786  27.600  11.072   6.864 -0.0623  0.1113  0.2524
    1DIPC   GL1 5787  27.400  11.020   6.417 -0.0256  0.1168 -0.0763
    1DIPC   GL2 5788  27.040  11.164   6.349 -0.0231  0.0914  0.3183
    1DIPC   C1A 5789  27.272  10.931   5.967  0.1921  0.0681 -0.1669
    1DIPC   D2A 5790  27.234  11.214   5.537 -0.3448  0.2104 -0.1414
    1DIPC   D3A 5791  27.294  10.802   5.448 -0.4000  0.0920  0.0979
    1DIPC   C4A 5792  27.356  10.668   4.910 -0.1785 -0.1422 -0.3265
    1DIPC   C1B 5793  26.791  11.319   6.014  0.1994 -0.1593 -0.3368
    1DIPC   D2B 5794  27.060  11.586   5.883 -0.1758  0.0231 -0.2468
    1DIPC   D3B 5795  26.783  11.897   6.156  0.0534 -0.0350  0.0159
    1DIPC   C4B 5796  26.616  12.245   5.891  0.0443  0.0715  0.2407
    1DIPC   NC3 5797  24.151   6.083   7.313 -0.2712 -0.1013  0.0971
    1DIPC   PO4 5798  23.880   6.321   7.039 -0.3350  0.1707  0.1157
    1DIPC   GL1 5799  23.973   6.162   6.687  0.0200  0.4084  0.0536
    1DIPC   GL2 5800  24.076   5.846   6.722 -0.0817 -0.3031  0.1718
    1DIPC   C1A 5801  23.990   6.413   6.340  0.1337  0.0391 -0.1604
    1DIPC   D2A 5802  24.075   6.664   5.971 -0.0439  0.0940 -0.4437
    1DIPC   D3A 5803  23.935   6.455   5.563 -0.0338  0.1490  0.2044
    1DIPC   C4A 5804  24.163   6.136   5.464  0.0582  0.3294  0.2010
    1DIPC   C1B 5805  24.099   5.748   6.291  0.3961  0.1609 -0.0137
    1DIPC   D2B 5806  23.964   5.491   6.011 -0.3296 -0.2582  0.4787
    1DIPC   D3B 5807  23.957   5.153   6.290  0.0835 -0.2053  0.1035
    1DIPC   C4B 5808  23.637   4.882   6.129 -0.0088 -0.2846 -0.0258
    1DIPC   NC3 5809  25.120   5.209   7.115 -0.1284 -0.0244 -0.0123
    1DIPC   PO4 5810  25.534   5.083   7.013 -0.2761  0.0604  0.2962
    1DIPC   GL1 5811  25.626   4.958   6.544  0.4184 -0.0299  0.1707
    1DIPC   GL2 5812  25.454   4.688   6.351  0.1278 -0.0285 -0.0389
    1DIPC   C1A 5813  25.831   4.952   6.183  0.1240 -0.1003  0.0337
    1DIPC   D2A 5814  26.197   4.879   5.956  0.4090  0.1520 -0.3821
    1DIPC   D3A 5815  26.228   4.349   5.782  0.4285 -0.0358 -0.1045
    1DIPC   C4A 5816  26.620   4.309   5.889  0.1329 -0.2910  0.3064
    1DIPC   C1B 5817  25.346   4.838   5.937 -0.0253 -0.0215  0.1401
    1DIPC   D2B 5818  25.370   5.322   5.790  0.1826  0.0383  0.0384
    1DIPC   D3B 5819  25.422   5.130   5.383  0.2917  0.0854  0.0791
    1DIPC   C4B 5820  25.499   4.666   5.277 -0.0468 -0.0064 -0.2326
    1DIPC   NC3 5821  23.142  24.592   6.943  0.0045 -0.2726  0.0574
    1DIPC   PO4 5822  23.347  24.245   6.879 -0.1628  0.0207 -0.3271
    1DIPC   GL1 5823  23.247  24.564   6.489 -0.1681 -0.2007  0.3654
    1DIPC   GL2 5824  23.151  24.253   6.277  0.1146  0.1302  0.0624
    1DIPC   C1A 5825  23.359  24.658   6.044  0.1565 -0.2707  0.0284
    1DIPC   D2A 5826  23.555  24.811   5.738  0.0420  0.0774 -0.1514
    1DIPC   D3A 5827  23.374  24.590   5.504 -0.0701 -0.2646  0.0898
    1DIPC   C4A 5828  23.057  24.410   5.660 -0.2247  0.0241  0.1627
    1DIPC   C1B 5829  22.772  24.652   6.061 -0.1048 -0.1900  0.1230
    1DIPC   D2B 5830  22.681  24.724   5.587  0.0966  0.0016 -0.0546
    1DIPC   D3B 5831  22.468  24.388   5.480  0.1292  0.0452  0.0683
    1DIPC   C4B 5832  21.996  24.519   5.348 -0.2262  0.0280 -0.0379
    1DIPC   NC3 5833   1.692   9.730   6.376 -0.2482 -0.0703 -0.2913
    1DIPC   PO4 5834   1.952  10.068   6.516 -0.1599  0.4946  0.0944
    1DIPC   GL1 5835   1.970  10.367   6.181 -0.2182  0.0651  0.2032
    1DIPC   GL2 5836   1.755  10.399   5.912 -0.2099  0.1977 -0.1087
    1DIPC   C1A 5837   2.207  10.560   5.824 -0.2894  0.1110  0.0336
    1DIPC   D2A 5838   2.422  10.498   5.496  0.1312  0.1722 -0.1091
    1DIPC   D3A 5839   2.276  10.884   5.485 -0.0049 -0.0577  0.0889
    1DIPC   C4A 5840   2.111  10.964   5.203  0.0569  0.1855  0.1895
    1DIPC   C1B 5841   1.811  10.420   5.496 -0.0466  0.0982 -0.1521
    1DIPC   D2B 5842   1.920  10.489   5.102  0.3248 -0.2866 -0.0031
    1DIPC   D3B 5843   2.006  10.249   4.828 -0.1395 -0.2782 -0.2148
    1DIPC   C4B 5844   1.726   9.899   4.688  0.0076 -0.3479  0.2045
    1DIPC   NC3 5845   1.701  11.818   6.924  0.0964  0.2030  0.0137
    1DIPC   PO4 5846   1.603  11.341   6.792 -0.1800 -0.0487 -0.0142
    1DIPC   GL1 5847   1.318  11.449   6.386 -0.1880  0.1087  0.0857
    1DIPC   GL2 5848   1.263  11.750   6.244 -0.2378 -0.1857 -0.1577
    1DIPC   C1A 5849   1.091  11.397   5.969 -0.2047  0.0612 -0.1419
    1DIPC   D2A 5850   1.274  11.174   5.522 -0.2192 -0.4547  0.0127
    1DIPC   D3A 5851   1.683  10.969   5.404 -0.2020 -0.0132  0.3076
    1DIPC   C4A 5852   1.729  10.886   4.857 -0.1374  0.2585  0.1807
    1DIPC   C1B 5853   1.186  12.115   6.249 -0.2445 -0.3124  0.1475
    1DIPC   D2B 5854   1.180  12.543   6.071 -0.2410  0.0938  0.0489
    1DIPC   D3B 5855   1.434  12.276   5.727  0.0364 -0.0018 -0.1596
    1DIPC   C4B 5856   1.480  12.369   5.329 -0.0892  0.0373  0.2219
    1DIPC   NC3 5857  28.068  22.250   6.633 -0.1842  0.1246  0.3697
    1DIPC   PO4 5858  27.887  22.071   6.322  0.2637  0.2525  0.0116
    1DIPC   GL1 5859  27.863  21.807   5.945 -0.0651  0.2228  0.0819
    1DIPC   GL2 5860  27.989  21.707   5.715 -0.0649  0.1784  0.3213
    1DIPC   C1A 5861  27.484  21.697   5.726 -0.2552  0.0553 -0.5165
    1DIPC   D2A 5862  27.245  21.350   5.524  0.0880 -0.1668  0.5551
    1DIPC   D3A 5863  27.004  21.501   5.110  0.0459 -0.2756 -0.0907
    1DIPC   C4A 5864  26.741  21.135   5.064 -0.1125 -0.1621 -0.1300
    1DIPC   C1B 5865  28.030  21.881   5.345  0.0906 -0.2180 -0.0329
    1DIPC   D2B 5866  27.955  21.764   4.969 -0.1832 -0.1409  0.0033
    1DIPC   D3B 5867  28.066  21.557   4.695 -0.1129  0.1184  0.1144
    1DIPC   C4B 5868  28.018  21.713   4.276 -0.1064  0.3706 -0.2323
    1DIPC   NC3 5869   6.279   6.836   6.646  0.1548  0.1462 -0.3337
    1DIPC   PO4 5870   6.140   7.200   6.489 -0.2025  0.2044 -0.2282
    1DIPC   GL1 5871   6.072   7.236   6.101 -0.2132 -0.0043  0.0594
    1DIPC   GL2 5872   6.335   7.421   5.962 -0.1659  0.3198  0.1889
    1DIPC   C1A 5873   6.062   7.043   5.698  0.0003 -0.0957 -0.4132
    1DIPC   D2A 5874   6.104   6.782   5.243  0.0399 -0.2981 -0.0610
    1DIPC   D3A 5875   6.297   6.961   4.903  0.0601 -0.1323 -0.0559
    1DIPC   C4A 5876   6.340   7.398   4.924 -0.3177 -0.2111  0.0022
    1DIPC   C1B 5877   6.226   7.473   5.544  0.1590 -0.0282 -0.3027
    1DIPC   D2B 5878   6.177   7.737   5.258  0.2348  0.1099  0.4970
    1DIPC   D3B 5879   6.481   8.061   5.468  0.1668 -0.2282 -0.1336
    1DIPC   C4B 5880   6.461   8.533   5.651 -0.1092 -0.3867 -0.0367
    1DIPC   NC3 5881  13.618  18.317   6.814 -0.4947  0.2410 -0.1782
    1DIPC   PO4 5882  13.913  18.586   7.132  0.0391  0.2781  0.0566
    1DIPC   GL1 5883  14.041  18.514   6.619  0.0742  0.0837 -0.2483
    1DIPC   GL2 5884  14.236  18.712   6.342 -0.4013  0.0400 -0.3052
    1DIPC   C1A 5885  14.413  18.299   6.464  0.1310  0.1743  0.1351
    1DIPC   D2A 5886  14.723  18.405   6.136  0.2730 -0.1225  0.0121
    1DIPC   D3A 5887  15.047  18.567   5.770 -0.0425  0.1182 -0.1571
    1DIPC   C4A 5888  15.010  18.590   5.295  0.0922 -0.2329  0.2762
    1DIPC   C1B 5889  14.161  18.522   5.935  0.0117  0.1027 -0.2276
    1DIPC   D2B 5890  13.960  18.631   5.548  0.0542 -0.2426  0.1403
    1DIPC   D3B 5891  14.332  18.484   5.422 -0.1199 -0.2197  0.1555
    1DIPC   C4B 5892  14.400  18.435   4.954  0.0788 -0.3025  0.0479
    1DIPC   NC3 5893  16.649  25.139   7.287 -0.3892  0.0333  0.1966
    1DIPC   PO4 5894  16.335  25.209   7.021  0.0102  0.0180  0.1009
    1DIPC   GL1 5895  16.281  24.937   6.616  0.1586  0.2354  0.0115
    1DIPC   GL2 5896  16.370  24.575   6.719 -0.1574 -0.0108 -0.1584
    1DIPC   C1A 5897  16.517  24.722   6.228  0.0014  0.0716 -0.1161
    1DIPC   D2A 5898  16.802  24.711   5.924  0.3540  0.1260 -0.2501
    1DIPC   D3A 5899  16.767  24.938   5.467  0.0544  0.0257 -0.1995
    1DIPC   C4A 5900  16.383  25.045   5.307 -0.1938 -0.1476 -0.3779
    1DIPC   C1B 5901  16.476  24.135   6.611 -0.2260 -0.0946 -0.0106
    1DIPC   D2B 5902  16.281  23.869   6.330  0.1107 -0.3524 -0.0202
    1DIPC   D3B 5903  15.961  23.770   6.202  0.1841 -0.0660  0.2004
    1DIPC   C4B 5904  15.910  23.999   5.819 -0.0228  0.0619 -0.2472
    1DIPC   NC3 5905  23.027   3.554   7.117 -0.1312  0.2869 -0.0346
    1DIPC   PO4 5906  23.074   3.136   7.075  0.2431  0.3197 -0.0867
    1DIPC   GL1 5907  23.371   3.257   6.772 -0.1606  0.3100 -0.1449
    1DIPC   GL2 5908  23.616   3.425   6.564 -0.0307  0.1809  0.2075
    1DIPC   C1A 5909  23.328   3.064   6.384  0.4051 -0.2176  0.1950
    1DIPC   D2A 5910  23.141   3.020   6.009  0.0408  0.0092  0.0549
    1DIPC   D3A 5911  22.707   3.106   6.232 -0.1434  0.1553 -0.1311
    1DIPC   C4A 5912  22.374   2.870   6.147 -0.0045 -0.1437  0.0568
    1DIPC   C1B 5913  23.838   3.477   6.299 -0.3814 -0.3699  0.0570
    1DIPC   D2B 5914  24.190   3.510   5.908 -0.0062 -0.2156 -0.0020
    1DIPC   D3B 5915  23.920   3.370   5.815  0.1665  0.2002  0.0175
    1DIPC   C4B 5916  23.433   3.491   5.939 -0.1242  0.0087  0.1796
    1DIPC   NC3 5917  15.923  18.317   7.271 -0.0090  0.1555 -0.1368
    1DIPC   PO4 5918  16.141  17.959   7.169 -0.2841  0.1441 -0.0480
    1DIPC   GL1 5919  15.953  17.676   7.011 -0.3203  0.3505 -0.1464
    1DIPC   GL2 5920  15.637  17.670   6.761 -0.2233 -0.1337 -0.0841
    1DIPC   C1A 5921  15.962  17.342   6.771  0.0158  0.0911 -0.1034
    1DIPC   D2A 5922  15.573  17.149   6.620  0.1224 -0.0355 -0.0158
    1DIPC   D3A 5923  15.713  17.322   6.315  0.0504  0.1109 -0.0919
    1DIPC   C4A 5924  15.951  17.370   5.947  0.3419 -0.3278 -0.1339
    1DIPC   C1B 5925  15.986  17.810   6.477 -0.1299  0.2692  0.2805
    1DIPC   D2B 5926  16.435  17.961   6.498  0.1131  0.1203  0.0760
    1DIPC   D3B 5927  16.568  17.562   6.467  0.1684  0.0111 -0.2318
    1DIPC   C4B 5928  16.463  17.207   6.820  0.2627 -0.0169  0.1296
    1DIPC   NC3 5929  28.075  15.274   6.098  0.0144  0.0510  0.0718
    1DIPC   PO4 5930  27.668  15.104   6.122 -0.1342 -0.2926  0.2164
    1DIPC   GL1 5931  27.678  14.860   5.772 -0.2277 -0.1104  0.2369
    1DIPC   GL2 5932  27.921  14.815   5.691 -0.0525 -0.3321 -0.0044
    1DIPC   C1A 5933  27.471  15.004   5.425  0.2256  0.5036  0.1945
    1DIPC   D2A 5934  27.320  15.338   5.182  0.3659  0.1241 -0.4610
    1DIPC   D3A 5935  27.603  15.636   5.262  0.3306 -0.0345 -0.0896
    1DIPC   C4A 5936  27.708  15.588   5.635 -0.0598 -0.0401 -0.1536
    1DIPC   C1B 5937  27.925  14.772   5.214 -0.2095  0.2198  0.0235
    1DIPC   D2B 5938  27.888  14.730   4.756  0.1099  0.0134  0.3215
    1DIPC   D3B 5939  27.932  14.413   4.468 -0.2150  0.1455  0.4441
    1DIPC   C4B 5940  27.504  14.142   4.438 -0.2112  0.0276 -0.0203
    1DIPC   NC3 5941  17.000  26.653   7.747 -0.2198 -0.0061  0.2930
    1DIPC   PO4 5942  16.965  26.716   7.255 -0.0274  0.0327 -0.0643
    1DIPC   GL1 5943  16.931  27.094   6.988  0.2575  0.4039 -0.2793
    1DIPC   GL2 5944  16.993  27.399   7.051 -0.1314  0.1122  0.0307
    1DIPC   C1A 5945  16.774  27.180   6.548 -0.0769  0.2585 -0.1189
    1DIPC   D2A 5946  16.678  27.041   6.142 -0.0823  0.3578  0.2882
    1DIPC   D3A 5947  16.741  27.244   5.786 -0.1021  0.1626 -0.1554
    1DIPC   C4A 5948  16.445  27.453   5.466 -0.1713 -0.0597  0.2347
    1DIPC   C1B 5949  17.212  27.349   6.696 -0.2221 -0.0387  0.1132
    1DIPC   D2B 5950  17.214  26.930   6.557 -0.0266  0.0330 -0.2473
    1DIPC   D3B 5951  17.174  27.061   6.140 -0.1775  0.1145 -0.0084
    1DIPC   C4B 5952  17.177  27.414   6.033  0.3869  0.0285 -0.0121
    1DIPC   NC3 5953  18.569   6.855   7.087  0.1522 -0.0983  0.0895
    1DIPC   PO4 5954  18.827   6.422   7.115 -0.1928  0.0650  0.2516
    1DIPC   GL1 5955  18.586   6.293   6.739 -0.1900 -0.0778 -0.2262
    1DIPC   GL2 5956  18.717   6.444   6.560  0.0248  0.0740 -0.0700
    1DIPC   C1A 5957  18.339   6.083   6.388  0.1614 -0.2366  0.0903
    1DIPC   D2A 5958  18.171   5.698   6.137 -0.3101 -0.1645  0.2665
    1DIPC   D3A 5959  18.191   6.163   5.927  0.0180  0.1772  0.0424
    1DIPC   C4A 5960  18.322   6.549   6.216 -0.1816  0.2335 -0.0717
    1DIPC   C1B 5961  18.827   6.079   6.315  0.1086 -0.1546 -0.1059
    1DIPC   D2B 5962  18.680   5.683   6.398  0.2346  0.1313  0.0127
    1DIPC   D3B 5963  18.631   5.654   6.033 -0.0200 -0.2144 -0.2409
    1DIPC   C4B 5964  18.686   5.320   5.842  0.2192 -0.1114 -0.0602
    1DIPC   NC3 5965   4.589  12.286   6.908  0.0722 -0.2074  0.0555
    1DIPC   PO4 5966   4.338  12.560   6.726 -0.0951 -0.0338  0.3247
    1DIPC   GL1 5967   4.351  12.776   6.305  0.1813 -0.1213  0.1340
    1DIPC   GL2 5968   4.425  13.130   6.363  0.3051  0.2542 -0.0942
    1DIPC   C1A 5969   4.348  12.880   5.926  0.3813 -0.6381  0.1355
    1DIPC   D2A 5970   4.251  12.976   5.515 -0.0450  0.1091  0.1212
    1DIPC   D3A 5971   4.334  12.566   5.544 -0.1291  0.0278  0.0971
    1DIPC   C4A 5972   4.475  12.383   5.896  0.2009 -0.0224 -0.0011
    1DIPC   C1B 5973   4.807  13.102   6.201 -0.1251 -0.4397  0.3072
    1DIPC   D2B 5974   5.185  13.012   6.326  0.0377 -0.5085 -0.0813
    1DIPC   D3B 5975   5.496  13.335   6.111  0.3887  0.2327 -0.2312
    1DIPC   C4B 5976   5.807  13.666   6.068  0.0817 -0.0023  0.0565
    1DIPC   NC3 5977  21.693  19.494   7.527  0.0785  0.1181 -0.0213
    1DIPC   PO4 5978  22.191  19.497   7.492 -0.1397 -0.1746 -0.0397
    1DIPC   GL1 5979  22.214  19.705   7.014 -0.2542  0.0426 -0.1137
    1DIPC   GL2 5980  22.538  19.565   6.889  0.2141 -0.0723  0.1793
    1DIPC   C1A 5981  21.912  19.911   6.715  0.0404  0.2703 -0.1831
    1DIPC   D2A 5982  21.745  20.021   6.317  0.1697 -0.0216 -0.0430
    1DIPC   D3A 5983  21.436  20.255   6.436  0.2296  0.2141 -0.0522
    1DIPC   C4A 5984  21.569  20.370   6.824 -0.0392 -0.0713 -0.1403
    1DIPC   C1B 5985  22.667  19.659   6.499  0.3613 -0.2410  0.1984
    1DIPC   D2B 5986  23.001  19.533   6.355  0.0231 -0.3360 -0.2004
    1DIPC   D3B 5987  22.847  19.401   5.976 -0.2727  0.3353 -0.0977
    1DIPC   C4B 5988  22.582  19.024   5.793 -0.1593 -0.2076 -0.0125
    1DIPC   NC3 5989  12.816  15.870   7.334  0.0905  0.0092 -0.1162
    1DIPC   PO4 5990  12.382  15.882   7.325 -0.1223 -0.1795  0.0174
    1DIPC   GL1 5991  12.556  15.973   6.883  0.0409  0.2014  0.0102
    1DIPC   GL2 5992  12.930  16.109   6.824 -0.2077  0.0772 -0.1750
    1DIPC   C1A 5993  12.464  16.025   6.446 -0.1496 -0.1134 -0.0657
    1DIPC   D2A 5994  12.202  16.275   6.136 -0.2078 -0.2662 -0.0399
    1DIPC   D3A 5995  12.151  16.424   5.733 -0.0573  0.3001  0.0802
    1DIPC   C4A 5996  11.954  16.790   5.718 -0.1511  0.0070  0.1553
    1DIPC   C1B 5997  13.032  16.082   6.359 -0.1457 -0.4137  0.0909
    1DIPC   D2B 5998  13.385  15.957   6.209 -0.0425 -0.2066  0.0922
    1DIPC   D3B 5999  13.278  15.539   6.231 -0.3498  0.1359  0.2207
    1DIPC   C4B 6000  13.324  15.387   5.867 -0.2576 -0.0871 -0.3893
    1DIPC   NC3 6001  21.385  14.133   7.266 -0.1177  0.0262 -0.0463
    1DIPC   PO4 6002  21.048  13.783   7.209 -0.0122 -0.1008 -0.0521
    1DIPC   GL1 6003  21.204  13.981   6.781 -0.0049 -0.1402  0.4603
    1DIPC   GL2 6004  20.976  14.242   6.897 -0.0899 -0.2546  0.3640
    1DIPC   C1A 6005  21.282  14.380   6.441 -0.0570  0.4776  0.1133
    1DIPC   D2A 6006  21.158  14.711   6.120  0.1915 -0.0323  0.0192
    1DIPC   D3A 6007  20.813  14.626   5.926  0.1505  0.2125  0.3156
    1DIPC   C4A 6008  20.822  14.328   5.613 -0.0948  0.0963  0.3083
    1DIPC   C1B 6009  20.842  14.152   6.453 -0.2674  0.4730 -0.1237
    1DIPC   D2B 6010  21.085  14.169   6.004  0.0077  0.0972 -0.1073
    1DIPC   D3B 6011  20.808  13.823   6.085 -0.1186 -0.0458 -0.0144
    1DIPC   C4B 6012  20.388  13.979   6.192 -0.1505  0.3896 -0.2859
    1DIPC   NC3 6013   3.470  10.855   7.097 -0.2194 -0.2864 -0.2542
    1DIPC   PO4 6014   3.159  10.989   6.779  0.0974  0.3021 -0.2866
    1DIPC   GL1 6015   3.239  11.114   6.324 -0.1822 -0.0972 -0.0315
    1DIPC   GL2 6016   3.086  11.411   6.152  0.0843 -0.0654  0.0541
    1DIPC   C1A 6017   3.170  11.045   5.838  0.2286  0.1004  0.0047
    1DIPC   D2A 6018   3.247  11.288   5.548 -0.0295 -0.0706 -0.2628
    1DIPC   D3A 6019   3.435  10.861   5.383  0.1736  0.2589 -0.0427
    1DIPC   C4A 6020   3.210  10.616   5.131 -0.1151  0.2021 -0.0808
    1DIPC   C1B 6021   2.777  11.381   5.880 -0.0538 -0.3502 -0.1002
    1DIPC   D2B 6022   2.579  11.271   5.555 -0.0618  0.2427 -0.1424
    1DIPC   D3B 6023   2.731  11.398   5.132 -0.3469  0.1724  0.3309
    1DIPC   C4B 6024   2.383  11.229   4.894 -0.1082  0.4542 -0.0624
    1DIPC   NC3 6025  13.632   3.113   7.758 -0.1094 -0.2174  0.0023
    1DIPC   PO4 6026  13.783   3.322   7.322 -0.0957  0.0887  0.3566
    1DIPC   GL1 6027  13.589   3.121   7.012  0.0864  0.0872 -0.0534
    1DIPC   GL2 6028  13.566   2.798   7.081 -0.1032  0.0852 -0.0484
    1DIPC   C1A 6029  13.588   2.725   6.558 -0.0973  0.2528  0.1549
    1DIPC   D2A 6030  13.291   2.606   6.295 -0.1203  0.0168 -0.2303
    1DIPC   D3A 6031  13.315   2.855   5.928  0.0342 -0.1928  0.0410
    1DIPC   C4A 6032  13.764   2.980   5.845  0.1427  0.1121  0.1154
    1DIPC   C1B 6033  13.954   2.872   6.892 -0.2446 -0.0563 -0.0068
    1DIPC   D2B 6034  14.195   3.214   6.722 -0.0706 -0.0504 -0.0041
    1DIPC   D3B 6035  14.475   2.839   6.529 -0.0457 -0.3585  0.1045
    1DIPC   C4B 6036  14.771   2.792   6.891  0.1575 -0.2566 -0.4212
    1DIPC   NC3 6037  10.826  26.279   6.912 -0.2193 -0.2373  0.0056
    1DIPC   PO4 6038  10.482  26.175   6.682 -0.2828  0.1242 -0.1080
    1DIPC   GL1 6039  10.256  25.999   6.259 -0.0969 -0.2553 -0.0170
    1DIPC   GL2 6040  10.220  26.279   6.103  0.2754  0.1583 -0.1102
    1DIPC   C1A 6041  10.336  25.940   5.741 -0.3172  0.1845 -0.1965
    1DIPC   D2A 6042  10.314  25.931   5.297  0.0283  0.1015 -0.2117
    1DIPC   D3A 6043  10.187  25.890   4.856 -0.2632  0.0665 -0.1867
    1DIPC   C4A 6044   9.854  26.210   4.833 -0.1150  0.0300  0.1495
    1DIPC   C1B 6045  10.697  26.316   5.899 -0.1383 -0.0631  0.2002
    1DIPC   D2B 6046  10.832  26.695   5.639  0.1511  0.1102  0.0740
    1DIPC   D3B 6047  10.934  26.399   5.371 -0.1149  0.0569  0.0192
    1DIPC   C4B 6048  11.310  26.211   5.328 -0.3019 -0.1291 -0.2955
    1DIPC   NC3 6049  11.790   6.307   8.296 -0.2781 -0.3387  0.2545
    1DIPC   PO4 6050  11.585   6.523   8.044 -0.2750  0.4476  0.2326
    1DIPC   GL1 6051  11.579   6.613   7.591 -0.2621  0.0796 -0.3015
    1DIPC   GL2 6052  11.558   6.897   7.400 -0.2296 -0.0746 -0.0065
    1DIPC   C1A 6053  11.820   6.506   7.248 -0.0168 -0.1867  0.4006
    1DIPC   D2A 6054  11.995   6.453   6.938 -0.2197  0.0097 -0.2315
    1DIPC   D3A 6055  12.069   6.803   6.719  0.0858  0.1048 -0.3118
    1DIPC   C4A 6056  12.257   6.878   6.349 -0.2673  0.2979  0.2635
    1DIPC   C1B 6057  11.394   7.097   7.005 -0.1300 -0.1359  0.0660
    1DIPC   D2B 6058  11.108   6.870   6.794 -0.2237  0.1761  0.1023
    1DIPC   D3B 6059  10.818   6.972   7.076 -0.3420 -0.2799 -0.1534
    1DIPC   C4B 6060  11.061   7.163   7.412  0.1336 -0.1770  0.2834
    1DIPC   NC3 6061  22.911   5.446   6.721 -0.0130 -0.1498  0.0437
    1DIPC   PO4 6062  23.282   5.698   6.654 -0.3801  0.0200  0.0411
    1DIPC   GL1 6063  23.192   5.666   6.279  0.1934 -0.4158  0.0881
    1DIPC   GL2 6064  23.157   5.309   6.212  0.0348 -0.0469  0.0463
    1DIPC   C1A 6065  23.355   5.713   5.809  0.1110  0.1013  0.1847
    1DIPC   D2A 6066  23.233   5.366   5.521 -0.1967  0.0279  0.1487
    1DIPC   D3A 6067  22.875   5.552   5.343 -0.2711  0.2826 -0.0452
    1DIPC   C4A 6068  22.804   5.463   4.823 -0.0697 -0.0737  0.0950
    1DIPC   C1B 6069  22.892   5.463   5.882  0.2557 -0.2542 -0.1184
    1DIPC   D2B 6070  22.626   5.736   5.809 -0.0804 -0.0385 -0.1931
    1DIPC   D3B 6071  22.696   6.031   5.489  0.3454 -0.0569 -0.1193
    1DIPC   C4B 6072  22.635   5.890   5.050 -0.1910  0.0336 -0.1186
    1DIPC   NC3 6073   4.040  18.038   7.322  0.0461  0.2492 -0.2415
    1DIPC   PO4 6074   4.502  18.312   7.162 -0.3804 -0.1260 -0.0472
    1DIPC   GL1 6075   4.421  18.557   6.751  0.0238  0.0041 -0.4143
    1DIPC   GL2 6076   4.541  18.343   6.532 -0.2234 -0.2533  0.1768
    1DIPC   C1A 6077   4.281  18.872   6.482 -0.0318 -0.0332  0.0630
    1DIPC   D2A 6078   3.901  19.231   6.589  0.0207  0.0823 -0.1013
    1DIPC   D3A 6079   3.789  19.108   6.299 -0.2981  0.1805 -0.0997
    1DIPC   C4A 6080   3.702  19.312   5.930  0.1024 -0.0229 -0.0522
    1DIPC   C1B 6081   4.914  18.413   6.159  0.1416 -0.0974  0.2075
    1DIPC   D2B 6082   4.861  18.519   5.635 -0.2019 -0.1236 -0.0829
    1DIPC   D3B 6083   4.793  18.492   5.139 -0.0255  0.2257 -0.2285
    1DIPC   C4B 6084   4.686  18.184   4.897  0.1327 -0.1548  0.1716
    1DIPC   NC3 6085   0.788  16.349   6.352 -0.2046 -0.3077  0.1557
    1DIPC   PO4 6086   0.922  16.052   6.336  0.0461  0.0582 -0.1191
    1DIPC   GL1 6087   0.907  16.142   5.882  0.0182  0.2885 -0.3049
    1DIPC   GL2 6088   0.652  16.301   5.768  0.1093 -0.0218  0.2445
    1DIPC   C1A 6089   1.020  16.172   5.434  0.0849  0.2534 -0.3364
    1DIPC   D2A 6090   1.354  16.023   5.221  0.0369  0.2345  0.4188
    1DIPC   D3A 6091   1.147  16.285   4.912  0.3399  0.2003 -0.0084
    1DIPC   C4A 6092   1.220  16.464   4.619 -0.0658 -0.1492 -0.2150
    1DIPC   C1B 6093   0.616  16.457   5.381  0.3774 -0.5500  0.2556
    1DIPC   D2B 6094   0.406  16.861   5.235 -0.2783 -0.2896  0.0406
    1DIPC   D3B 6095   0.106  16.580   5.015  0.3129 -0.0309  0.3067
    1DIPC   C4B 6096   0.326  16.227   4.886 -0.2296 -0.2327  0.0988
    1DIPC   NC3 6097   6.957  16.055   7.376  0.0893 -0.2601  0.2582
    1DIPC   PO4 6098   7.335  16.174   7.175 -0.5606 -0.1013 -0.2780
    1DIPC   GL1 6099   7.132  16.070   6.892 -0.0007  0.0736 -0.1661
    1DIPC   GL2 6100   7.174  15.782   6.873  0.1175  0.1949  0.0169
    1DIPC   C1A 6101   7.066  16.128   6.444  0.0759 -0.0637  0.0707
    1DIPC   D2A 6102   7.242  15.964   6.121  0.2305  0.0707 -0.0429
    1DIPC   D3A 6103   6.996  15.687   5.798  0.1519  0.4150  0.1743
    1DIPC   C4A 6104   7.028  15.794   5.383 -0.2873  0.1372  0.0425
    1DIPC   C1B 6105   7.054  15.637   6.533 -0.0083  0.5126 -0.1289
    1DIPC   D2B 6106   7.269  15.451   6.260 -0.1323  0.1792 -0.2185
    1DIPC   D3B 6107   7.522  15.628   5.901 -0.0045  0.2115  0.2036
    1DIPC   C4B 6108   7.354  15.389   5.496  0.1946 -0.3125 -0.0259
    1DIPC   NC3 6109  23.295  23.339   6.847 -0.1006  0.1474  0.0512
    1DIPC   PO4 6110  22.818  23.496   6.942 -0.2276 -0.2835  0.3798
    1DIPC   GL1 6111  22.811  23.487   6.522 -0.0321 -0.1750 -0.3382
    1DIPC   GL2 6112  23.034  23.295   6.391  0.0627  0.1687  0.2207
    1DIPC   C1A 6113  22.687  23.427   6.034 -0.1393  0.2372 -0.0729
    1DIPC   D2A 6114  22.420  23.174   5.761 -0.2857  0.3929 -0.3196
    1DIPC   D3A 6115  22.203  23.467   5.823 -0.0242  0.3415 -0.1655
    1DIPC   C4A 6116  22.303  23.744   5.816  0.2163  0.0453  0.2496
    1DIPC   C1B 6117  23.443  23.283   6.197  0.1294 -0.1163 -0.2485
    1DIPC   D2B 6118  23.774  23.260   5.997 -0.0184  0.2792  0.1141
    1DIPC   D3B 6119  23.377  23.416   5.749 -0.0050  0.2214 -0.0529
    1DIPC   C4B 6120  23.225  23.639   5.402  0.0206 -0.1642 -0.1437
    1DIPC   NC3 6121  12.616  20.161   7.284 -0.1799  0.1807  0.0708
    1DIPC   PO4 6122  12.745  20.555   7.153 -0.0442 -0.0516  0.4044
    1DIPC   GL1 6123  12.604  20.574   6.752 -0.2127 -0.2033 -0.2457
    1DIPC   GL2 6124  12.841  20.485   6.602  0.0103  0.0397 -0.2897
    1DIPC   C1A 6125  12.549  20.821   6.261 -0.3529 -0.2489 -0.1090
    1DIPC   D2A 6126  12.564  21.295   6.165 -0.1017  0.0919  0.2065
    1DIPC   D3A 6127  12.354  21.072   5.798  0.0062  0.1958  0.2964
    1DIPC   C4A 6128  12.578  20.706   5.646  0.1131  0.2038 -0.1887
    1DIPC   C1B 6129  12.865  20.487   6.208 -0.2450  0.1653  0.0203
    1DIPC   D2B 6130  13.059  20.546   5.765 -0.0331  0.0922  0.1270
    1DIPC   D3B 6131  13.268  20.322   5.442  0.3454 -0.2265  0.0087
    1DIPC   C4B 6132  13.412  20.647   5.156  0.1383  0.0190  0.1098
    1DIPC   NC3 6133  16.797  10.619   7.112  0.1687 -0.3493 -0.1622
    1DIPC   PO4 6134  16.506  10.798   7.284 -0.0792  0.0731  0.1717
    1DIPC   GL1 6135  16.261  11.063   7.052  0.1215 -0.1548 -0.1452
    1DIPC   GL2 6136  16.013  11.322   7.157  0.1193 -0.2403  0.1125
    1DIPC   C1A 6137  16.348  11.206   6.743  0.1411  0.1662  0.0138
    1DIPC   D2A 6138  16.635  11.460   6.497  0.1510 -0.3054 -0.1967
    1DIPC   D3A 6139  16.427  11.489   6.106 -0.2726 -0.3442  0.0597
    1DIPC   C4A 6140  16.474  11.671   5.719 -0.0110  0.0254  0.1062
    1DIPC   C1B 6141  15.833  11.578   6.783 -0.2869 -0.1891  0.0557
    1DIPC   D2B 6142  15.929  11.407   6.389  0.2072 -0.2912 -0.1361
    1DIPC   D3B 6143  15.804  11.457   5.926 -0.0192 -0.2662 -0.2846
    1DIPC   C4B 6144  15.925  11.670   5.473 -0.2390  0.3850 -0.0022
    1DIPC   NC3 6145  28.026  27.534   7.245 -0.0566 -0.2946 -0.0093
    1DIPC   PO4 6146   0.030  27.226   6.909 -0.1929 -0.0395  0.0454
    1DIPC   GL1 6147   0.153  27.214   6.502 -0.0526  0.0695 -0.0100
    1DIPC   GL2 6148   0.296  26.895   6.523  0.4058 -0.2227 -0.3914
    1DIPC   C1A 6149   0.068  27.239   6.013 -0.1520 -0.4505 -0.2133
    1DIPC   D2A 6150  27.963  27.263   5.725 -0.1096  0.2060 -0.0426
    1DIPC   D3A 6151   0.111  27.433   5.499 -0.0161 -0.0587  0.1953
    1DIPC   C4A 6152   0.380  27.193   5.293 -0.0598 -0.0137  0.1589
    1DIPC   C1B 6153   0.318  26.831   6.125 -0.3136 -0.3791  0.2637
    1DIPC   D2B 6154   0.489  26.586   5.891 -0.0702  0.0704 -0.2079
    1DIPC   D3B 6155   0.585  26.730   5.388  0.0619 -0.0445 -0.1217
    1DIPC   C4B 6156   0.179  26.779   5.231 -0.1987 -0.1623 -0.1492
    1DIPC   NC3 6157  13.536  12.138   7.852  0.0310 -0.2923  0.3242
    1DIPC   PO4 6158  13.768  12.552   7.864 -0.1906  0.0400 -0.3216
    1DIPC   GL1 6159  13.996  12.414   7.606  0.1283 -0.0513  0.2649
    1DIPC   GL2 6160  13.980  12.099   7.531 -0.0895  0.0754 -0.0817
    1DIPC   C1A 6161  14.192  12.722   7.327  0.2960 -0.0971  0.1388
    1DIPC   D2A 6162  14.468  13.064   7.203 -0.0800 -0.2446 -0.2950
    1DIPC   D3A 6163  14.083  13.182   7.010  0.2986  0.0490 -0.1340
    1DIPC   C4A 6164  13.819  12.925   6.713 -0.0871 -0.0706 -0.0772
    1DIPC   C1B 6165  13.862  12.273   7.148  0.0833 -0.2976  0.3484
    1DIPC   D2B 6166  14.035  12.435   6.794  0.0243  0.0347 -0.0003
    1DIPC   D3B 6167  13.821  12.068   6.617  0.2457 -0.1770 -0.1528
    1DIPC   C4B 6168  13.625  12.319   6.312 -0.0717 -0.1696 -0.1097
    1DIPC   NC3 6169   3.293   8.932   6.655 -0.0248 -0.1326  0.4025
    1DIPC   PO4 6170   3.611   8.658   6.363  0.0771  0.1466 -0.1520
    1DIPC   GL1 6171   3.720   8.855   5.989 -0.0962  0.1942  0.0534
    1DIPC   GL2 6172   4.025   9.025   6.190 -0.2744  0.1133 -0.1196
    1DIPC   C1A 6173   3.868   8.924   5.582 -0.0496 -0.0124  0.0029
    1DIPC   D2A 6174   3.970   8.911   5.100  0.1974 -0.1022 -0.1001
    1DIPC   D3A 6175   4.065   9.262   5.331  0.1785  0.0267 -0.2121
    1DIPC   C4A 6176   3.924   9.536   5.566  0.2824 -0.2026  0.1161
    1DIPC   C1B 6177   3.941   9.433   6.084 -0.0379 -0.0156  0.2318
    1DIPC   D2B 6178   4.070   9.823   6.003 -0.0033 -0.2204 -0.0138
    1DIPC   D3B 6179   3.656  10.052   5.980 -0.3362 -0.0456  0.3234
    1DIPC   C4B 6180   3.333   9.854   5.677  0.2146  0.2073 -0.0491
    1DIPC   NC3 6181   4.067  23.736   7.214  0.3869 -0.1312  0.0657
    1DIPC   PO4 6182   4.475  23.931   7.086  0.2746 -0.0019  0.1156
    1DIPC   GL1 6183   4.416  23.588   6.846  0.2166  0.0143  0.0387
    1DIPC   GL2 6184   4.424  23.695   6.539  0.2260  0.0251  0.1196
    1DIPC   C1A 6185   4.275  23.233   6.499 -0.2318 -0.2810  0.2874
    1DIPC   D2A 6186   4.167  23.081   6.052 -0.0034  0.0220 -0.2074
    1DIPC   D3A 6187   4.379  22.741   6.207 -0.0633 -0.3549  0.0105
    1DIPC   C4A 6188   4.590  22.388   6.060  0.2285 -0.0557  0.2407
    1DIPC   C1B 6189   4.205  23.619   6.117 -0.0918  0.1549  0.0097
    1DIPC   D2B 6190   4.239  23.854   5.763 -0.0266  0.0882 -0.2363
    1DIPC   D3B 6191   4.200  23.386   5.671 -0.4500 -0.1128 -0.0216
    1DIPC   C4B 6192   4.288  23.161   5.315 -0.4678 -0.2149  0.3373
    1DIPC   NC3 6193  13.088   0.525   7.573 -0.0771 -0.3186  0.0600
    1DIPC   PO4 6194  12.684   0.412   7.634  0.1070 -0.1935  0.2865
    1DIPC   GL1 6195  12.737   0.306   7.265 -0.0378 -0.0666 -0.4087
    1DIPC   GL2 6196  12.753   0.519   7.092 -0.0283  0.0511  0.0312
    1DIPC   C1A 6197  12.933   0.108   6.938 -0.0105 -0.0194  0.0686
    1DIPC   D2A 6198  13.221  28.059   6.663  0.2617 -0.3972  0.3694
    1DIPC   D3A 6199  12.912   0.118   6.299  0.0608 -0.2793 -0.0666
    1DIPC   C4A 6200  12.993   0.329   5.959  0.1082 -0.0709  0.0527
    1DIPC   C1B 6201  12.538   0.319   6.649 -0.0471  0.0878 -0.3076
    1DIPC   D2B 6202  12.112   0.138   6.583 -0.2334  0.0372 -0.0955
    1DIPC   D3B 6203  11.871  27.820   6.388 -0.1530  0.2014 -0.0609
    1DIPC   C4B 6204  11.694  27.880   5.933  0.2857 -0.1661 -0.1226
    1DIPC   NC3 6205  18.452   8.079   7.052 -0.1008 -0.2894  0.0097
    1DIPC   PO4 6206  18.838   7.952   7.043 -0.1101  0.2819 -0.0448
    1DIPC   GL1 6207  19.040   8.152   6.739 -0.0765  0.2072  0.4119
    1DIPC   GL2 6208  19.236   8.439   6.706 -0.1582  0.2341  0.0295
    1DIPC   C1A 6209  19.134   8.131   6.247  0.0196  0.0418 -0.2148
    1DIPC   D2A 6210  19.186   8.367   5.868  0.0023  0.4405  0.1707
    1DIPC   D3A 6211  18.968   8.123   5.472  0.0130 -0.0195  0.2026
    1DIPC   C4A 6212  18.932   8.203   4.970  0.1232 -0.1345  0.0053
    1DIPC   C1B 6213  19.147   8.832   6.507  0.0942  0.3309  0.4719
    1DIPC   D2B 6214  19.226   8.947   6.142 -0.1841  0.0065 -0.1073
    1DIPC   D3B 6215  19.569   8.924   5.899 -0.2293 -0.3110 -0.3550
    1DIPC   C4B 6216  19.862   9.117   5.619 -0.0014 -0.2662 -0.0750
    1DIPC   NC3 6217  24.941  12.168   7.080 -0.2492 -0.0305 -0.0479
    1DIPC   PO4 6218  24.943  12.510   6.769  0.4718 -0.1843 -0.2614
    1DIPC   GL1 6219  24.823  12.257   6.382 -0.0281  0.2865 -0.1471
    1DIPC   GL2 6220  24.934  11.992   6.333  0.0756 -0.0327  0.0656
    1DIPC   C1A 6221  24.809  12.285   5.949 -0.1294  0.1340 -0.2545
    1DIPC   D2A 6222  24.704  12.003   5.655 -0.2349 -0.3443 -0.0674
    1DIPC   D3A 6223  24.409  11.980   5.293 -0.0777  0.0905  0.1907
    1DIPC   C4A 6224  24.122  11.705   4.949 -0.1140  0.1072 -0.1433
    1DIPC   C1B 6225  24.837  11.635   6.022 -0.0713 -0.0750  0.2180
    1DIPC   D2B 6226  24.787  11.480   5.616  0.2249  0.4020 -0.0373
    1DIPC   D3B 6227  24.693  11.189   5.862  0.4673 -0.2385 -0.3460
    1DIPC   C4B 6228  24.973  10.852   6.067  0.0679 -0.1195 -0.2151
    1DIPC   NC3 6229   8.470  15.426   7.394  0.0844 -0.1706  0.0032
    1DIPC   PO4 6230   8.943  15.365   7.453 -0.0838  0.2393 -0.1022
    1DIPC   GL1 6231   9.230  15.495   7.218 -0.1776  0.4052 -0.0208
    1DIPC   GL2 6232   9.560  15.328   7.136  0.1628  0.3344  0.2857
    1DIPC   C1A 6233   9.310  15.701   6.848  0.0301 -0.0796  0.0636
    1DIPC   D2A 6234   9.589  15.526   6.570  0.2073 -0.1164  0.2068
    1DIPC   D3A 6235  10.020  15.616   6.420 -0.2386  0.1040 -0.1202
    1DIPC   C4A 6236   9.895  15.963   6.247 -0.1313  0.1751 -0.1077
    1DIPC   C1B 6237   9.962  15.324   6.796  0.2615 -0.1628  0.0751
    1DIPC   D2B 6238  10.377  15.465   6.723  0.0949 -0.2900  0.0631
    1DIPC   D3B 6239  10.417  15.008   6.556 -0.0398  0.1381 -0.1294
    1DIPC   C4B 6240  10.275  14.733   6.821 -0.0734 -0.1298  0.0743
    1DIPC   NC3 6241  15.984   8.527   7.400 -0.3456 -0.1425  0.1128
    1DIPC   PO4 6242  16.187   8.021   7.346 -0.0492  0.0380  0.1100
    1DIPC   GL1 6243  16.104   7.886   6.853 -0.2183  0.0159  0.1397
    1DIPC   GL2 6244  16.076   7.615   6.633  0.0321  0.0176  0.0848
    1DIPC   C1A 6245  16.072   8.137   6.483  0.0012  0.2003  0.2399
    1DIPC   D2A 6246  16.095   8.035   6.071 -0.3281  0.6290 -0.2176
    1DIPC   D3A 6247  16.145   7.665   5.772  0.0033  0.2411 -0.0822
    1DIPC   C4A 6248  15.790   7.688   5.560  0.3335  0.0856  0.1083
    1DIPC   C1B 6249  16.361   7.569   6.230  0.1060  0.0775  0.1274
    1DIPC   D2B 6250  16.780   7.627   6.057  0.0445 -0.2220  0.0719
    1DIPC   D3B 6251  17.240   7.747   5.928 -0.1127 -0.1678  0.1570
    1DIPC   C4B 6252  17.266   7.723   5.483  0.0720  0.1021 -0.0506
    1DIPC   NC3 6253  22.033  10.061   7.258  0.3846 -0.3860  0.0896
    1DIPC   PO4 6254  21.828  10.344   6.826  0.1881 -0.0992  0.0226
    1DIPC   GL1 6255  21.736  10.118   6.452  0.2214  0.4306  0.1262
    1DIPC   GL2 6256  21.637   9.717   6.454  0.1332  0.2087 -0.0826
    1DIPC   C1A 6257  21.611  10.251   5.968 -0.0219  0.0053 -0.0309
    1DIPC   D2A 6258  21.708  10.280   5.522 -0.0169  0.0244  0.3090
    1DIPC   D3A 6259  21.350  10.545   5.432 -0.0719 -0.2834  0.1078
    1DIPC   C4A 6260  20.920  10.359   5.517 -0.2239  0.1463 -0.1096
    1DIPC   C1B 6261  21.608   9.760   5.960  0.0412 -0.1217 -0.2325
    1DIPC   D2B 6262  21.574   9.656   5.460  0.0523  0.2768 -0.0122
    1DIPC   D3B 6263  21.358  10.027   5.346 -0.1409 -0.3592 -0.4744
    1DIPC   C4B 6264  20.934   9.982   5.172 -0.3302  0.0599  0.0808
    1DIPC   NC3 6265  22.876   1.666   7.183 -0.1782 -0.2408 -0.1024
    1DIPC   PO4 6266  22.900   1.659   6.816  0.2160 -0.1069  0.3192
    1DIPC   GL1 6267  23.026   1.666   6.343 -0.0797 -0.3317  0.3005
    1DIPC   GL2 6268  23.033   2.002   6.180  0.3605  0.0762  0.1303
    1DIPC   C1A 6269  23.308   1.509   5.951 -0.4083 -0.3937  0.2364
    1DIPC   D2A 6270  23.361   1.300   5.508  0.0854 -0.0665  0.1270
    1DIPC   D3A 6271  23.135   1.588   5.390 -0.1327 -0.2078 -0.2680
    1DIPC   C4A 6272  23.145   1.992   5.646  0.0085  0.0438 -0.1647
    1DIPC   C1B 6273  22.568   1.714   6.137  0.0933 -0.0195 -0.0764
    1DIPC   D2B 6274  22.269   1.788   5.767 -0.2742  0.0135  0.0629
    1DIPC   D3B 6275  22.122   2.127   5.530 -0.1006 -0.0165 -0.4197
    1DIPC   C4B 6276  22.531   2.444   5.456 -0.1666 -0.1489  0.1391
    1DIPC   NC3 6277   0.774  25.994   7.419 -0.1880  0.1009 -0.0069
    1DIPC   PO4 6278   0.778  26.292   7.102 -0.1756 -0.0964  0.2042
    1DIPC   GL1 6279   0.770  26.330   6.655 -0.0252  0.0927  0.0978
    1DIPC   GL2 6280   0.839  26.050   6.473  0.1877 -0.1984 -0.0786
    1DIPC   C1A 6281   0.794  26.701   6.277 -0.0713  0.2482 -0.0331
    1DIPC   D2A 6282   0.883  26.786   5.801  0.1327 -0.2341  0.0041
    1DIPC   D3A 6283   1.214  26.782   5.532  0.0015 -0.3351  0.1463
    1DIPC   C4A 6284   1.016  26.903   5.202 -0.2176  0.1557  0.2964
    1DIPC   C1B 6285   0.711  25.754   6.147  0.0196  0.4197  0.0143
    1DIPC   D2B 6286   0.556  25.540   5.797 -0.1369  0.0692 -0.0614
    1DIPC   D3B 6287   0.602  25.435   5.297  0.2173  0.0418 -0.1464
    1DIPC   C4B 6288   0.430  25.689   4.999  0.3600  0.2699 -0.0207
    1DIPC   NC3 6289  10.001  26.405   6.555  0.1536  0.2070  0.5161
    1DIPC   PO4 6290  10.049  26.798   6.833 -0.1128 -0.0311 -0.1797
    1DIPC   GL1 6291  10.160  27.016   6.493 -0.1004 -0.3757  0.0589
    1DIPC   GL2 6292  10.256  26.817   6.244 -0.1302 -0.1873  0.1129
    1DIPC   C1A 6293  10.391  27.293   6.176 -0.3129  0.2458  0.1247
    1DIPC   D2A 6294  10.566  27.086   5.814 -0.0041 -0.0055  0.1290
    1DIPC   D3A 6295  10.891  27.265   5.667  0.2365 -0.0139  0.3763
    1DIPC   C4A 6296  11.108  27.420   5.295  0.1679 -0.0641  0.1640
    1DIPC   C1B 6297  10.668  26.724   6.159 -0.1740 -0.0213  0.3710
    1DIPC   D2B 6298  10.814  26.235   6.373  0.0559  0.3714  0.3073
    1DIPC   D3B 6299  11.159  26.530   6.150 -0.0937 -0.0554  0.2212
    1DIPC   C4B 6300  11.204  26.371   5.771  0.0689 -0.1036  0.1302
    1DIPC   NC3 6301   3.214   9.886   6.709 -0.0240  0.2359 -0.0245
    1DIPC   PO4 6302   2.915  10.276   6.665  0.0011 -0.1594 -0.0299
    1DIPC   GL1 6303   2.546  10.344   6.340  0.2009  0.1019  0.0305
    1DIPC   GL2 6304   2.735  10.577   6.057 -0.1909 -0.0826  0.2060
    1DIPC   C1A 6305   2.432  10.163   6.008 -0.0602 -0.3473 -0.0659
    1DIPC   D2A 6306   2.035   9.974   5.829 -0.1205 -0.1127  0.0933
    1DIPC   D3A 6307   2.091   9.593   5.720 -0.1730 -0.1001 -0.0192
    1DIPC   C4A 6308   1.771   9.337   5.497  0.1804 -0.1131  0.0015
    1DIPC   C1B 6309   2.903  10.686   5.651  0.1447  0.1025  0.0341
    1DIPC   D2B 6310   2.932  10.990   5.357  0.2262  0.3800 -0.1429
    1DIPC   D3B 6311   2.645  10.815   5.129  0.0626  0.2384  0.2097
    1DIPC   C4B 6312   2.716  10.830   4.689  0.0149  0.1091  0.0491
    1DIPC   NC3 6313   0.894   9.953   6.843  0.0100  0.1150  0.0712
    1DIPC   PO4 6314   1.195   9.615   6.867  0.0784 -0.0574  0.1761
    1DIPC   GL1 6315   1.106   9.653   6.442 -0.1884  0.2744  0.0129
    1DIPC   GL2 6316   1.255   9.904   6.237  0.3929 -0.2118 -0.1060
    1DIPC   C1A 6317   1.120   9.436   5.930  0.3622  0.1456 -0.2208
    1DIPC   D2A 6318   1.175   9.254   5.434 -0.2395 -0.2556  0.0194
    1DIPC   D3A 6319   1.257   9.662   5.339 -0.0474 -0.1702  0.0613
    1DIPC   C4A 6320   1.537   9.557   5.052  0.0511  0.1869 -0.1937
    1DIPC   C1B 6321   1.049   9.866   5.724 -0.0222  0.3200 -0.1016
    1DIPC   D2B 6322   0.780   9.855   5.446 -0.1181 -0.1211  0.0059
    1DIPC   D3B 6323   1.021  10.166   5.090 -0.0700  0.2457  0.3396
    1DIPC   C4B 6324   0.992  10.414   4.871 -0.3826  0.0719 -0.0932
    1DIPC   NC3 6325   9.319   3.124   6.988  0.1003  0.0506  0.4105
    1DIPC   PO4 6326   9.110   3.484   7.068  0.1036  0.0403  0.0894
    1DIPC   GL1 6327   9.005   3.784   6.748  0.3094 -0.3133  0.5393
    1DIPC   GL2 6328   9.206   3.973   6.877 -0.3210  0.0396 -0.1367
    1DIPC   C1A 6329   8.806   3.890   6.328  0.0870 -0.0854 -0.1181
    1DIPC   D2A 6330   8.483   4.195   6.063 -0.0462  0.2458 -0.1722
    1DIPC   D3A 6331   8.448   4.510   5.827  0.1007  0.0143 -0.2890
    1DIPC   C4A 6332   8.440   4.556   5.490 -0.1137  0.1548  0.0592
    1DIPC   C1B 6333   9.361   4.063   6.423 -0.2200  0.0175 -0.2802
    1DIPC   D2B 6334   9.532   3.885   6.041 -0.2600 -0.3352 -0.0892
    1DIPC   D3B 6335   9.855   4.185   5.880  0.1746  0.0530 -0.0166
    1DIPC   C4B 6336   9.979   4.301   5.498  0.0117  0.0482  0.1063
    1DIPC   NC3 6337  12.101  26.916   6.909 -0.0682  0.1006  0.2863
    1DIPC   PO4 6338  11.646  27.083   6.891 -0.4337  0.1446  0.2150
    1DIPC   GL1 6339  11.891  27.272   6.573 -0.0213  0.0300  0.1906
    1DIPC   GL2 6340  11.720  27.340   6.215 -0.2626 -0.1775 -0.2381
    1DIPC   C1A 6341  12.270  27.125   6.332 -0.0381 -0.0341  0.2821
    1DIPC   D2A 6342  12.422  26.758   6.424 -0.0902 -0.2562 -0.4264
    1DIPC   D3A 6343  12.305  26.665   6.122  0.0744 -0.0642 -0.0858
    1DIPC   C4A 6344  12.460  26.535   5.690  0.0283 -0.0699 -0.0161
    1DIPC   C1B 6345  11.847  27.330   5.901  0.2534 -0.0810  0.1603
    1DIPC   D2B 6346  11.749  27.128   5.522 -0.0410 -0.3030  0.0898
    1DIPC   D3B 6347  11.599  27.466   5.437  0.2818 -0.1139 -0.1951
    1DIPC   C4B 6348  11.680  27.652   5.081  0.3043 -0.0543  0.1165
    1DIPC   NC3 6349   7.612  15.647   7.207  0.3455  0.1561  0.0522
    1DIPC   PO4 6350   8.044  15.391   7.118  0.0574  0.1262 -0.5057
    1DIPC   GL1 6351   7.946  15.578   6.711 -0.0880  0.2332 -0.2454
    1DIPC   GL2 6352   7.556  15.492   6.694 -0.0338  0.1343  0.1082
    1DIPC   C1A 6353   7.861  15.638   6.269  0.2721  0.1253 -0.1807
    1DIPC   D2A 6354   8.061  15.384   5.916 -0.3945  0.0784 -0.3282
    1DIPC   D3A 6355   8.024  15.744   5.797  0.1322  0.0391 -0.0153
    1DIPC   C4A 6356   7.757  15.959   5.510  0.1450 -0.3645 -0.0190
    1DIPC   C1B 6357   7.539  15.911   6.563  0.0090 -0.1554 -0.0423
    1DIPC   D2B 6358   7.745  16.218   6.394  0.0435  0.1329  0.1600
    1DIPC   D3B 6359   7.685  16.139   5.971 -0.1050 -0.1000  0.2157
    1DIPC   C4B 6360   7.348  16.177   5.596  0.0627 -0.1626 -0.2161
    1DIPC   NC3 6361  16.374   4.285   7.585  0.0772 -0.0114  0.5158
    1DIPC   PO4 6362  16.622   4.252   7.216  0.3291 -0.1023 -0.2829
    1DIPC   GL1 6363  16.348   4.347   6.892  0.1285  0.0842  0.3812
    1DIPC   GL2 6364  16.367   4.507   6.576  0.1572  0.1850 -0.2403
    1DIPC   C1A 6365  15.961   4.191   6.926  0.0294  0.1960  0.0137
    1DIPC   D2A 6366  15.583   4.376   6.685  0.4293 -0.0818  0.3579
    1DIPC   D3A 6367  15.524   4.248   6.242  0.0594 -0.1388 -0.0094
    1DIPC   C4A 6368  15.689   4.480   5.939 -0.1773  0.2545 -0.0678
    1DIPC   C1B 6369  16.523   4.315   6.159  0.1250 -0.0046  0.3899
    1DIPC   D2B 6370  16.854   4.009   5.932  0.0167  0.1440  0.1630
    1DIPC   D3B 6371  16.962   3.583   5.695  0.2297 -0.0959 -0.1109
    1DIPC   C4B 6372  16.737   3.615   5.298 -0.0952 -0.0525  0.0658
    1DIPC   NC3 6373  21.806  22.226   6.900 -0.2392  0.5389 -0.1996
    1DIPC   PO4 6374  22.171  22.268   6.756 -0.0591 -0.2245 -0.1983
    1DIPC   GL1 6375  22.230  22.592   6.372  0.0761 -0.2310  0.3166
    1DIPC   GL2 6376  22.169  22.908   6.559 -0.1481 -0.1959  0.1741
    1DIPC   C1A 6377  22.118  22.887   6.033  0.4766  0.2314 -0.1633
    1DIPC   D2A 6378  21.992  22.964   5.507 -0.0121 -0.3162  0.3454
    1DIPC   D3A 6379  21.608  22.827   5.342  0.2157 -0.0035  0.1650
    1DIPC   C4A 6380  21.500  22.368   5.547  0.0221 -0.1845  0.1646
    1DIPC   C1B 6381  22.364  23.242   6.383  0.1279  0.2279  0.1094
    1DIPC   D2B 6382  22.319  23.677   6.370 -0.0625 -0.2126  0.1564
    1DIPC   D3B 6383  21.895  23.755   6.166  0.1737  0.0054 -0.1359
    1DIPC   C4B 6384  21.856  23.802   5.722  0.0901  0.2173  0.1567
    1DIPC   NC3 6385  22.676  16.587   7.192 -0.1845  0.1311 -0.0178
    1DIPC   PO4 6386  22.333  16.355   7.328  0.0190  0.1878 -0.1060
    1DIPC   GL1 6387  21.981  16.512   7.047  0.2067  0.1288  0.1775
    1DIPC   GL2 6388  21.728  16.701   6.982  0.0612 -0.5017 -0.2916
    1DIPC   C1A 6389  21.990  16.551   6.599  0.0707 -0.2490 -0.0599
    1DIPC   D2A 6390  21.716  16.618   6.253 -0.0286  0.0421 -0.0025
    1DIPC   D3A 6391  21.747  16.931   5.860 -0.0959  0.4358 -0.3229
    1DIPC   C4A 6392  21.704  16.692   5.506  0.0795 -0.0413  0.0923
    1DIPC   C1B 6393  21.452  16.786   6.692 -0.1122  0.0137  0.1076
    1DIPC   D2B 6394  21.303  16.908   6.281 -0.1638 -0.0449  0.0594
    1DIPC   D3B 6395  21.078  17.045   6.599 -0.0423 -0.0274 -0.0612
    1DIPC   C4B 6396  20.623  17.148   6.666 -0.2176  0.1832  0.2000
    1DIPC   NC3 6397  21.482   6.967   6.676 -0.2922  0.2507  0.3228
    1DIPC   PO4 6398  21.890   6.756   6.750 -0.1150 -0.1818  0.0445
    1DIPC   GL1 6399  22.054   6.774   6.396 -0.3458 -0.1806 -0.2027
    1DIPC   GL2 6400  22.133   6.496   6.113  0.0290 -0.0938 -0.0797
    1DIPC   C1A 6401  21.864   6.919   6.021 -0.2293 -0.1895  0.1875
    1DIPC   D2A 6402  21.745   6.521   5.725  0.1789  0.0112  0.1243
    1DIPC   D3A 6403  21.904   6.737   5.313 -0.1366  0.0330 -0.1554
    1DIPC   C4A 6404  21.614   7.068   5.181  0.0209  0.2173  0.1545
    1DIPC   C1B 6405  22.246   6.806   5.741  0.5137  0.1610 -0.2400
    1DIPC   D2B 6406  22.422   6.849   5.418  0.2145 -0.1730 -0.2856
    1DIPC   D3B 6407  22.324   7.286   5.336  0.0175 -0.0303 -0.0335
    1DIPC   C4B 6408  22.383   7.455   4.897 -0.0093 -0.1771 -0.1003
    1DIPC   NC3 6409  20.997   8.137   6.645 -0.3137  0.1672 -0.2346
    1DIPC   PO4 6410  21.054   8.485   6.924  0.0473 -0.0781 -0.1174
    1DIPC   GL1 6411  21.306   8.592   6.522 -0.0781  0.4134  0.0726
    1DIPC   GL2 6412  21.311   8.454   6.237 -0.0300 -0.2867  0.0730
    1DIPC   C1A 6413  21.048   8.891   6.158 -0.1046  0.2771  0.1645
    1DIPC   D2A 6414  21.020   8.968   5.599 -0.1125  0.3836  0.1069
    1DIPC   D3A 6415  21.260   9.204   5.298  0.0080 -0.1104  0.1831
    1DIPC   C4A 6416  21.051   9.554   5.437 -0.0869  0.1508 -0.2195
    1DIPC   C1B 6417  21.202   8.257   5.755  0.1568 -0.0295  0.0568
    1DIPC   D2B 6418  21.333   7.824   5.578  0.0031  0.2055 -0.1888
    1DIPC   D3B 6419  21.657   7.610   5.778  0.3902  0.0024 -0.4494
    1DIPC   C4B 6420  21.741   7.676   6.104  0.0423  0.1380 -0.0355
    1DIPC   NC3 6421  21.092  19.967   7.483  0.1881  0.4931 -0.1642
    1DIPC   PO4 6422  21.489  20.053   7.499  0.0986 -0.0566 -0.0384
    1DIPC   GL1 6423  21.500  19.902   7.148  0.0362 -0.2188  0.0212
    1DIPC   GL2 6424  21.513  19.630   7.022 -0.1429 -0.2019  0.1591
    1DIPC   C1A 6425  21.224  19.983   6.810 -0.1590 -0.2775  0.2746
    1DIPC   D2A 6426  21.006  19.733   6.502 -0.0494 -0.0636 -0.1520
    1DIPC   D3A 6427  21.283  19.816   6.268  0.2249  0.0892  0.2845
    1DIPC   C4A 6428  21.051  19.981   5.890 -0.1385  0.1088  0.1446
    1DIPC   C1B 6429  21.640  19.464   6.755  0.0245  0.0015 -0.1497
    1DIPC   D2B 6430  21.668  19.525   6.384  0.0994 -0.0186 -0.0413
    1DIPC   D3B 6431  21.481  19.519   5.978  0.0150 -0.4581  0.0414
    1DIPC   C4B 6432  21.518  19.934   5.767  0.1102 -0.1132 -0.3230
    1DIPC   NC3 6433   6.843  11.852   7.334 -0.0241  0.1766  0.1781
    1DIPC   PO4 6434   6.923  11.747   6.972  0.0615 -0.3404 -0.0533
    1DIPC   GL1 6435   7.189  11.534   6.622 -0.2011  0.2641 -0.0496
    1DIPC   GL2 6436   7.410  11.457   6.716  0.1091 -0.2711 -0.2423
    1DIPC   C1A 6437   7.161  11.723   6.199  0.3500 -0.1182  0.1920
    1DIPC   D2A 6438   7.211  11.633   5.794  0.0848  0.1518  0.0722
    1DIPC   D3A 6439   7.585  11.657   5.508  0.4436  0.4141 -0.0647
    1DIPC   C4A 6440   7.710  12.067   5.422 -0.1092  0.0241  0.1878
    1DIPC   C1B 6441   7.668  11.252   6.528  0.0558 -0.1391 -0.1544
    1DIPC   D2B 6442   8.038  11.319   6.249 -0.0238 -0.1792  0.5779
    1DIPC   D3B 6443   7.908  10.973   5.987  0.0420  0.3118  0.1390
    1DIPC   C4B 6444   7.483  10.839   6.001 -0.0865 -0.0732 -0.0816
    1DIPC   NC3 6445  10.325  19.854   7.512  0.1464 -0.0062 -0.3293
    1DIPC   PO4 6446   9.836  19.804   7.336 -0.0769 -0.3604 -0.2672
    1DIPC   GL1 6447   9.843  19.516   6.997  0.1282  0.0298 -0.3963
    1DIPC   GL2 6448   9.724  19.204   6.927 -0.1075 -0.0101 -0.0162
    1DIPC   C1A 6449   9.769  19.714   6.617  0.4432  0.0384  0.4194
    1DIPC   D2A 6450   9.535  19.877   6.427 -0.0409 -0.0634 -0.1507
    1DIPC   D3A 6451   9.657  19.730   5.987 -0.0349 -0.2138  0.0906
    1DIPC   C4A 6452   9.431  19.831   5.770 -0.2421  0.1490  0.2093
    1DIPC   C1B 6453   9.740  19.190   6.546  0.3188  0.1024  0.3405
    1DIPC   D2B 6454   9.515  19.222   6.204  0.0187 -0.1392 -0.2361
    1DIPC   D3B 6455   9.910  19.205   6.044  0.1675  0.2549  0.4357
    1DIPC   C4B 6456  10.185  19.381   5.829 -0.1381  0.1652  0.0612
    1DIPC   NC3 6457  12.189   4.185   7.381  0.4075  0.2052 -0.0161
    1DIPC   PO4 6458  12.662   4.061   7.282  0.1716 -0.0308 -0.1130
    1DIPC   GL1 6459  12.455   4.055   6.928 -0.1965  0.2816  0.1901
    1DIPC   GL2 6460  12.428   4.415   6.850  0.0214  0.2572  0.0173
    1DIPC   C1A 6461  12.321   3.892   6.421 -0.0129  0.1704  0.0428
    1DIPC   D2A 6462  12.448   3.768   5.993 -0.2018  0.0867  0.1195
    1DIPC   D3A 6463  12.819   3.889   5.994 -0.2730  0.3000 -0.1755
    1DIPC   C4A 6464  13.089   3.776   6.327  0.0927 -0.0214  0.4141
    1DIPC   C1B 6465  12.487   4.597   6.489  0.3238 -0.0920  0.1905
    1DIPC   D2B 6466  12.659   4.718   6.094 -0.1179 -0.5599  0.2444
    1DIPC   D3B 6467  12.997   4.859   5.716  0.0317 -0.0256  0.1375
    1DIPC   C4B 6468  13.185   4.832   5.239 -0.0427 -0.0306  0.1081
    1DIPC   NC3 6469   4.161  17.445   6.925 -0.0729 -0.0948 -0.0715
    1DIPC   PO4 6470   3.924  17.707   6.583  0.0493  0.1057 -0.0034
    1DIPC   GL1 6471   3.752  17.518   6.188  0.2001 -0.1827  0.1206
    1DIPC   GL2 6472   3.466  17.353   6.228  0.0472 -0.0615 -0.2853
    1DIPC   C1A 6473   3.707  17.507   5.772 -0.0964 -0.2885  0.2181
    1DIPC   D2A 6474   3.437  17.515   5.327 -0.0893  0.1231  0.0287
    1DIPC   D3A 6475   3.234  17.240   5.062  0.2531  0.0530  0.2836
    1DIPC   C4A 6476   3.369  17.022   4.715 -0.3494 -0.1126 -0.0642
    1DIPC   C1B 6477   3.131  17.638   6.033 -0.2803  0.1152 -0.0608
    1DIPC   D2B 6478   2.727  17.871   5.874 -0.0073  0.2692  0.3190
    1DIPC   D3B 6479   2.531  17.835   6.110 -0.0129  0.1462 -0.1464
    1DIPC   C4B 6480   2.191  17.784   5.894  0.1466  0.0698  0.0880
    1DIPC   NC3 6481   9.286  16.362   7.852  0.0071  0.1709  0.2209
    1DIPC   PO4 6482   9.050  16.441   7.487 -0.1522 -0.1494 -0.2130
    1DIPC   GL1 6483   9.268  16.695   7.247  0.0090 -0.1295  0.5328
    1DIPC   GL2 6484   9.091  17.008   7.140  0.0044 -0.0356  0.3374
    1DIPC   C1A 6485   9.466  16.734   6.846 -0.2861 -0.2419 -0.1895
    1DIPC   D2A 6486   9.438  16.484   6.439  0.0358 -0.0968  0.2154
    1DIPC   D3A 6487   9.576  16.383   6.038 -0.3174 -0.0761  0.2394
    1DIPC   C4A 6488   9.421  16.159   5.697  0.2201 -0.1245  0.0761
    1DIPC   C1B 6489   9.175  17.059   6.644  0.3848  0.2338  0.1840
    1DIPC   D2B 6490   8.899  17.346   6.373 -0.2531  0.3241 -0.0163
    1DIPC   D3B 6491   9.009  17.711   6.205 -0.0303  0.5841  0.1554
    1DIPC   C4B 6492   9.325  17.921   6.012 -0.0848  0.3882  0.1080
    1DIPC   NC3 6493  28.049  25.847   6.763 -0.1632  0.0041  0.0694
    1DIPC   PO4 6494  27.696  25.574   6.953  0.0603 -0.1039  0.3453
    1DIPC   GL1 6495  27.580  25.616   6.457  0.1698 -0.1813 -0.2866
    1DIPC   GL2 6496  27.702  25.935   6.344 -0.1971  0.0004 -0.3597
    1DIPC   C1A 6497  27.369  25.634   6.192  0.0468  0.1672  0.1135
    1DIPC   D2A 6498  26.979  25.683   5.979 -0.1087  0.1789  0.1171
    1DIPC   D3A 6499  27.009  25.173   6.135 -0.0423 -0.1530 -0.2190
    1DIPC   C4A 6500  27.124  24.890   5.883 -0.3655 -0.1433 -0.2951
    1DIPC   C1B 6501  27.883  25.704   6.061 -0.0282 -0.0931 -0.1546
    1DIPC   D2B 6502   0.007  25.480   5.813 -0.4361  0.2702  0.2184
    1DIPC   D3B 6503  28.121  25.606   5.401  0.0770  0.0221  0.1460
    1DIPC   C4B 6504  27.722  25.433   5.266  0.1237  0.1279 -0.2010
    1DIPC   NC3 6505  24.599  26.996   6.869  0.2894 -0.0063 -0.2579
    1DIPC   PO4 6506  24.784  27.320   6.588 -0.1034  0.1559  0.1850
    1DIPC   GL1 6507  24.513  27.584   6.308 -0.2068  0.0164  0.1302
    1DIPC   GL2 6508  24.620  27.968   6.293  0.2207  0.2782 -0.2202
    1DIPC   C1A 6509  24.147  27.684   6.102  0.0295  0.0335  0.1151
    1DIPC   D2A 6510  23.907  27.629   5.729  0.0525 -0.0965 -0.2425
    1DIPC   D3A 6511  23.815  27.238   5.794 -0.0950 -0.0159 -0.0972
    1DIPC   C4A 6512  23.966  26.984   5.512 -0.0436  0.2687  0.2335
    1DIPC   C1B 6513  24.629  27.916   5.896  0.0652 -0.1287 -0.0160
    1DIPC   D2B 6514  24.828  27.758   5.551  0.3639  0.0715  0.1773
    1DIPC   D3B 6515  25.111  27.968   5.775 -0.1271  0.1437 -0.0855
    1DIPC   C4B 6516  25.130   0.041   6.206 -0.2109  0.1512 -0.1407
    1DIPC   NC3 6517   4.648  22.548   6.707  0.1347 -0.3039  0.0552
    1DIPC   PO4 6518   4.858  22.240   6.803  0.0306  0.0415  0.2989
    1DIPC   GL1 6519   5.067  22.367   6.401  0.0765 -0.0093 -0.2895
    1DIPC   GL2 6520   5.003  22.146   6.170  0.0238  0.4387 -0.0936
    1DIPC   C1A 6521   4.986  22.674   6.029 -0.0003  0.0402 -0.4044
    1DIPC   D2A 6522   4.954  22.589   5.651 -0.0240  0.1084  0.2530
    1DIPC   D3A 6523   4.496  22.504   5.568 -0.3202  0.1155 -0.2096
    1DIPC   C4A 6524   4.298  22.821   5.688 -0.0478  0.3333  0.0816
    1DIPC   C1B 6525   5.165  22.101   5.867  0.0605  0.0636  0.0282
    1DIPC   D2B 6526   5.564  22.073   5.615 -0.0299 -0.0503 -0.2159
    1DIPC   D3B 6527   5.786  21.650   5.460 -0.0566  0.1024  0.1280
    1DIPC   C4B 6528   6.085  21.461   5.603  0.1178  0.0774  0.3140
    1DIPC   NC3 6529  13.151  20.791   7.461 -0.2387  0.0935 -0.0369
    1DIPC   PO4 6530  13.257  21.117   7.257 -0.0206 -0.3617  0.1855
    1DIPC   GL1 6531  13.327  21.131   6.739 -0.6083 -0.1321 -0.2121
    1DIPC   GL2 6532  13.566  21.306   6.747  0.0128  0.1046 -0.0545
    1DIPC   C1A 6533  13.029  20.940   6.444  0.0550 -0.1929  0.2136
    1DIPC   D2A 6534  12.849  20.954   5.945 -0.2261 -0.0775  0.1773
    1DIPC   D3A 6535  13.239  20.975   5.708 -0.1927 -0.1450  0.1251
    1DIPC   C4A 6536  13.342  21.441   5.724  0.0249 -0.3294 -0.0399
    1DIPC   C1B 6537  13.365  21.684   6.500 -0.1495 -0.0043  0.1221
    1DIPC   D2B 6538  13.656  22.063   6.441 -0.0702 -0.1771 -0.1255
    1DIPC   D3B 6539  13.824  22.035   6.086  0.0973  0.3184  0.1853
    1DIPC   C4B 6540  13.821  21.771   5.786  0.0635  0.0066 -0.1673
    1DIPC   NC3 6541  17.958   2.510   7.813 -0.3123 -0.0053  0.1936
    1DIPC   PO4 6542  18.031   2.278   7.456 -0.0940  0.3523  0.1303
    1DIPC   GL1 6543  18.147   2.171   7.075 -0.0201  0.1157  0.3814
    1DIPC   GL2 6544  18.465   2.258   6.913 -0.1107 -0.4552 -0.0543
    1DIPC   C1A 6545  18.086   1.918   6.754  0.1220  0.1968  0.0377
    1DIPC   D2A 6546  17.848   2.083   6.450 -0.0978  0.0475 -0.2073
    1DIPC   D3A 6547  17.663   2.020   6.031 -0.1621 -0.0507 -0.0633
    1DIPC   C4A 6548  17.706   2.296   5.688 -0.1318 -0.0648 -0.2496
    1DIPC   C1B 6549  18.446   2.340   6.576 -0.2892  0.2222 -0.1604
    1DIPC   D2B 6550  18.596   2.277   6.167 -0.1819  0.0990 -0.3252
    1DIPC   D3B 6551  18.786   2.011   5.869 -0.1412  0.0239  0.2988
    1DIPC   C4B 6552  19.023   2.057   5.547  0.0549 -0.0478  0.1736
    1DIPC   NC3 6553  25.721  25.977   7.228  0.3757 -0.0381  0.2126
    1DIPC   PO4 6554  25.893  26.413   7.250  0.1147 -0.1214  0.2947
    1DIPC   GL1 6555  25.831  26.125   6.773 -0.0237  0.1521  0.2084
    1DIPC   GL2 6556  25.980  25.798   6.655  0.0751  0.1467 -0.0640
    1DIPC   C1A 6557  25.904  26.474   6.394 -0.1661 -0.2574 -0.1984
    1DIPC   D2A 6558  25.959  26.816   6.074 -0.1699  0.2478  0.0337
    1DIPC   D3A 6559  26.136  26.569   5.689 -0.2861 -0.0484 -0.0210
    1DIPC   C4A 6560  26.120  26.781   5.379 -0.1481  0.1031  0.3163
    1DIPC   C1B 6561  26.062  25.634   6.232  0.3098  0.0816 -0.2402
    1DIPC   D2B 6562  25.958  25.806   5.782 -0.0747  0.1208  0.0499
    1DIPC   D3B 6563  25.818  26.128   5.472  0.1477  0.1131 -0.0490
    1DIPC   C4B 6564  26.103  26.301   5.107  0.2919  0.3463 -0.1134
    1DIPC   NC3 6565   0.863  24.016   6.474  0.4766  0.1077  0.3794
    1DIPC   PO4 6566   1.244  24.106   6.482 -0.0289  0.1186  0.2841
    1DIPC   GL1 6567   1.627  24.129   6.169  0.1235 -0.2788  0.1668
    1DIPC   GL2 6568   1.534  23.875   5.937 -0.2129  0.1651 -0.2676
    1DIPC   C1A 6569   1.874  24.208   5.839  0.2057  0.3091  0.0317
    1DIPC   D2A 6570   2.148  24.129   5.426  0.2743  0.2510  0.0682
    1DIPC   D3A 6571   2.144  24.101   5.002 -0.2984 -0.3032  0.2765
    1DIPC   C4A 6572   2.650  24.202   4.841  0.2052  0.0497 -0.0142
    1DIPC   C1B 6573   1.140  23.722   5.701  0.2600 -0.3108 -0.1408
    1DIPC   D2B 6574   0.827  24.020   5.486 -0.0213  0.0413 -0.1241
    1DIPC   D3B 6575   1.095  24.103   5.127  0.0021  0.4416 -0.2266
    1DIPC   C4B 6576   0.958  24.110   4.773 -0.0129  0.1404 -0.0545
    1DIPC   NC3 6577  23.210  12.037   7.211  0.1167  0.2112  0.0956
    1DIPC   PO4 6578  23.443  12.303   6.917 -0.0248  0.2020  0.0729
    1DIPC   GL1 6579  23.419  12.126   6.502  0.1756 -0.1133  0.2157
    1DIPC   GL2 6580  23.356  12.255   6.272 -0.1559  0.2971 -0.1444
    1DIPC   C1A 6581  23.172  11.822   6.325 -0.2406  0.0231  0.0317
    1DIPC   D2A 6582  23.195  11.886   6.024  0.1821 -0.3594  0.1926
    1DIPC   D3A 6583  23.227  11.530   5.856  0.0410 -0.2896 -0.0471
    1DIPC   C4A 6584  23.746  11.447   5.835 -0.1390 -0.1871  0.2453
    1DIPC   C1B 6585  23.103  12.603   6.385  0.0684 -0.0006  0.3027
    1DIPC   D2B 6586  22.733  12.754   6.344 -0.0412  0.1142  0.0934
    1DIPC   D3B 6587  22.666  12.720   5.924 -0.0467  0.0138  0.0405
    1DIPC   C4B 6588  22.840  12.934   5.687  0.0344 -0.0658 -0.2451
    1DIPC   NC3 6589  21.932   3.123   6.880  0.2595 -0.0168  0.3342
    1DIPC   PO4 6590  22.005   2.709   6.704  0.0828  0.2152  0.0691
    1DIPC   GL1 6591  22.059   2.520   6.340  0.1446  0.1615 -0.2140
    1DIPC   GL2 6592  21.718   2.364   6.347 -0.0070 -0.1713 -0.1031
    1DIPC   C1A 6593  22.096   2.558   5.853 -0.0433  0.0628  0.1961
    1DIPC   D2A 6594  22.299   2.969   5.614  0.0126 -0.0372  0.1910
    1DIPC   D3A 6595  22.109   2.648   5.354  0.2761 -0.1462  0.0983
    1DIPC   C4A 6596  21.852   2.507   5.123 -0.1814 -0.2804  0.0698
    1DIPC   C1B 6597  21.621   2.358   5.896  0.0658  0.0199 -0.2356
    1DIPC   D2B 6598  21.464   2.600   5.601 -0.0545  0.5145  0.0073
    1DIPC   D3B 6599  21.082   2.736   5.465 -0.0182  0.1918 -0.3570
    1DIPC   C4B 6600  20.984   3.188   5.497  0.0152 -0.2024  0.0067
    1DIPC   NC3 6601  21.957  23.881   7.226 -0.1820  0.1394  0.2213
    1DIPC   PO4 6602  22.104  24.160   6.940  0.1434  0.2276 -0.0137
    1DIPC   GL1 6603  22.271  24.081   6.685 -0.4202  0.1168  0.0704
    1DIPC   GL2 6604  22.617  23.906   6.659 -0.2750 -0.0993 -0.2387
    1DIPC   C1A 6605  22.364  24.345   6.291  0.0242  0.0182  0.1399
    1DIPC   D2A 6606  22.291  24.630   5.938 -0.1061 -0.1125 -0.0384
    1DIPC   D3A 6607  22.145  24.221   5.845 -0.2505 -0.1470  0.1279
    1DIPC   C4A 6608  22.152  24.011   5.410  0.0963 -0.1376 -0.0877
    1DIPC   C1B 6609  22.736  24.016   6.225 -0.0435  0.0738 -0.1084
    1DIPC   D2B 6610  22.700  24.157   5.886  0.0470 -0.2835  0.2420
    1DIPC   D3B 6611  22.809  23.910   5.655 -0.0299  0.2544  0.0144
    1DIPC   C4B 6612  22.934  24.093   5.280 -0.0574 -0.3338 -0.1900
    1DIPC   NC3 6613  26.909  12.750   6.717  0.2689  0.3098 -0.1347
    1DIPC   PO4 6614  26.848  13.238   6.811 -0.1022 -0.0208  0.0959
    1DIPC   GL1 6615  27.070  13.286   6.399 -0.1933  0.1074 -0.1704
    1DIPC   GL2 6616  27.241  13.014   6.267  0.0452 -0.3052 -0.2626
    1DIPC   C1A 6617  26.913  13.303   6.014 -0.0389  0.2537 -0.4388
    1DIPC   D2A 6618  26.976  13.396   5.591  0.3450  0.1873  0.1465
    1DIPC   D3A 6619  26.990  13.045   5.300 -0.3279  0.2466 -0.2302
    1DIPC   C4A 6620  27.388  12.814   5.330 -0.0573 -0.1461  0.3592
    1DIPC   C1B 6621  27.335  12.665   5.923 -0.2435  0.3693 -0.2606
    1DIPC   D2B 6622  27.136  12.533   5.645 -0.0711  0.1828  0.0995
    1DIPC   D3B 6623  27.501  12.318   5.476 -0.1300 -0.1828  0.0825
    1DIPC   C4B 6624  27.510  12.257   5.190 -0.0419 -0.1938 -0.0649
    1DIPC   NC3 6625  22.406   2.423   6.816  0.1230 -0.1939  0.1245
    1DIPC   PO4 6626  22.700   2.464   6.582  0.1160  0.0688 -0.2463
    1DIPC   GL1 6627  22.846   2.553   6.133  0.4323  0.1666 -0.3198
    1DIPC   GL2 6628  22.603   2.299   6.082 -0.0927  0.1570  0.0626
    1DIPC   C1A 6629  22.754   2.857   5.766  0.0352  0.1333  0.1333
    1DIPC   D2A 6630  22.890   2.772   5.327 -0.0804 -0.1629  0.1561
    1DIPC   D3A 6631  23.218   2.469   5.236  0.0087  0.1146 -0.1185
    1DIPC   C4A 6632  23.429   2.358   4.869  0.1539  0.0288  0.0025
    1DIPC   C1B 6633  22.692   2.014   5.705 -0.2968  0.1529  0.2800
    1DIPC   D2B 6634  22.854   2.020   5.246  0.0840 -0.0704  0.2071
    1DIPC   D3B 6635  22.871   1.679   4.934  0.0033  0.1401  0.1283
    1DIPC   C4B 6636  22.867   1.257   5.011  0.0954 -0.2242 -0.1975
    1DIPC   NC3 6637  21.627  25.368   6.926  0.2384  0.0767  0.2568
    1DIPC   PO4 6638  22.057  25.205   6.798  0.3120  0.2101 -0.0756
    1DIPC   GL1 6639  21.922  25.440   6.490  0.2491 -0.3086  0.1005
    1DIPC   GL2 6640  22.241  25.503   6.415 -0.1694 -0.1029  0.0642
    1DIPC   C1A 6641  21.677  25.730   6.177 -0.0359  0.1082 -0.0273
    1DIPC   D2A 6642  21.500  25.925   5.948 -0.0958  0.0515  0.1257
    1DIPC   D3A 6643  21.432  25.380   5.906 -0.1206 -0.0191 -0.0937
    1DIPC   C4A 6644  21.443  25.180   6.314 -0.2438 -0.0545 -0.1746
    1DIPC   C1B 6645  22.058  25.488   6.022  0.2273  0.3138 -0.0067
    1DIPC   D2B 6646  22.021  25.426   5.527  0.1510  0.1431  0.1417
    1DIPC   D3B 6647  22.213  25.403   5.156 -0.0735  0.3759  0.2314
    1DIPC   C4B 6648  22.087  25.441   4.842 -0.3162 -0.1591  0.0043
    1DIPC   NC3 6649  25.454  25.114   6.817  0.1620  0.2319  0.2558
    1DIPC   PO4 6650  25.458  25.630   6.989 -0.0407 -0.0027  0.0556
    1DIPC   GL1 6651  25.526  25.672   6.647  0.4448  0.1570  0.0094
    1DIPC   GL2 6652  25.433  25.606   6.385 -0.0947  0.1624  0.0182
    1DIPC   C1A 6653  25.770  25.992   6.250  0.3140 -0.2827  0.0423
    1DIPC   D2A 6654  25.799  26.226   5.947  0.0055 -0.0580 -0.4004
    1DIPC   D3A 6655  26.202  26.244   6.072 -0.0711 -0.2047 -0.0320
    1DIPC   C4A 6656  26.495  26.561   6.069 -0.1011 -0.2365  0.0850
    1DIPC   C1B 6657  25.005  25.644   6.172 -0.1998  0.0067 -0.1241
    1DIPC   D2B 6658  24.963  25.603   5.817  0.2982  0.1823  0.1851
    1DIPC   D3B 6659  24.745  25.731   5.439 -0.0566  0.0434  0.0865
    1DIPC   C4B 6660  24.387  26.009   5.397  0.1870 -0.1602  0.0738
    1DIPC   NC3 6661  23.790  25.094   7.143  0.1494 -0.1226  0.1421
    1DIPC   PO4 6662  23.530  25.500   7.050  0.2649 -0.0223 -0.1900
    1DIPC   GL1 6663  23.588  25.768   6.699 -0.0952 -0.1501  0.0268
    1DIPC   GL2 6664  23.820  25.583   6.585  0.1893 -0.1019 -0.0048
    1DIPC   C1A 6665  23.612  25.991   6.311 -0.4070  0.0203  0.1138
    1DIPC   D2A 6666  23.629  26.449   6.211  0.1337  0.0749  0.0039
    1DIPC   D3A 6667  24.011  26.449   6.002  0.2031 -0.0523  0.1592
    1DIPC   C4A 6668  24.101  26.393   5.544 -0.1481  0.0113 -0.2056
    1DIPC   C1B 6669  23.932  25.532   6.176  0.4785  0.2757  0.0343
    1DIPC   D2B 6670  23.917  25.259   5.806  0.2450 -0.0363 -0.4013
    1DIPC   D3B 6671  23.605  25.230   5.460  0.2889 -0.2497  0.1292
    1DIPC   C4B 6672  23.475  25.587   5.136 -0.1718  0.2130  0.0454
    1DIPC   NC3 6673  11.402  22.085   7.142 -0.0554 -0.1892  0.1962
    1DIPC   PO4 6674  11.807  21.834   6.973 -0.1140 -0.0392 -0.2019
    1DIPC   GL1 6675  12.076  21.964   6.661 -0.3047 -0.0731 -0.1336
    1DIPC   GL2 6676  12.226  22.238   6.496 -0.0518  0.1840  0.1136
    1DIPC   C1A 6677  11.840  22.037   6.306 -0.1991 -0.3635  0.1004
    1DIPC   D2A 6678  11.877  22.048   5.854 -0.0158  0.1388  0.1208
    1DIPC   D3A 6679  11.531  22.315   5.680  0.2109 -0.1550 -0.1434
    1DIPC   C4A 6680  11.358  22.637   5.989 -0.2319  0.0083  0.1506
    1DIPC   C1B 6681  12.358  22.208   6.019 -0.0012  0.2585  0.0247
    1DIPC   D2B 6682  12.404  22.096   5.562 -0.0083 -0.0777 -0.0013
    1DIPC   D3B 6683  12.036  22.267   5.436  0.4850 -0.2416  0.0906
    1DIPC   C4B 6684  11.730  22.025   5.208 -0.1080 -0.1974  0.2427
    1DIPC   NC3 6685  11.080  15.740   7.639  0.2269  0.0326 -0.2955
    1DIPC   PO4 6686  11.368  15.466   7.414 -0.3067 -0.0755  0.0070
    1DIPC   GL1 6687  11.316  15.715   7.032 -0.1981 -0.0540  0.2301
    1DIPC   GL2 6688  11.054  15.932   7.077  0.1372  0.0219 -0.0398
    1DIPC   C1A 6689  11.268  15.810   6.566 -0.1726 -0.2677  0.2103
    1DIPC   D2A 6690  11.236  15.442   6.326 -0.0041 -0.1212  0.0345
    1DIPC   D3A 6691  11.252  15.837   6.041  0.1036 -0.1103  0.0003
    1DIPC   C4A 6692  10.888  16.167   6.014  0.0997  0.1350  0.0798
    1DIPC   C1B 6693  11.353  16.173   6.878  0.0855 -0.1793  0.2261
    1DIPC   D2B 6694  11.773  16.201   6.944  0.1024  0.1184 -0.2830
    1DIPC   D3B 6695  11.904  15.733   6.855  0.2769  0.1471 -0.0376
    1DIPC   C4B 6696  11.751  15.559   6.425  0.1182  0.2757  0.0576
    1DIPC   NC3 6697  15.246  20.101   6.950 -0.4333 -0.0535  0.3572
    1DIPC   PO4 6698  14.875  20.181   7.097  0.0975 -0.3874  0.0791
    1DIPC   GL1 6699  14.903  20.316   6.620  0.2947 -0.1396  0.0953
    1DIPC   GL2 6700  14.956  20.635   6.521 -0.0670  0.0085  0.1520
    1DIPC   C1A 6701  14.728  20.281   6.246 -0.1797  0.2194  0.2688
    1DIPC   D2A 6702  14.656  20.089   5.847 -0.1544 -0.1503 -0.1967
    1DIPC   D3A 6703  14.170  20.030   5.750 -0.0032 -0.0031 -0.2940
    1DIPC   C4A 6704  13.888  19.971   6.013 -0.0806 -0.0715  0.1610
    1DIPC   C1B 6705  15.259  20.273   6.327 -0.2001  0.2398 -0.2143
    1DIPC   D2B 6706  15.647  20.363   6.115  0.2239 -0.1597 -0.0049
    1DIPC   D3B 6707  15.525  20.288   5.807  0.3561 -0.0779  0.1628
    1DIPC   C4B 6708  15.115  20.296   5.718 -0.4356  0.2329 -0.2573
    1DIPC   NC3 6709  13.911  22.171   7.177  0.2131 -0.0615 -0.1903
    1DIPC   PO4 6710  14.046  22.350   6.814  0.2906  0.1338 -0.2839
    1DIPC   GL1 6711  14.169  22.066   6.546 -0.2936  0.3123 -0.0908
    1DIPC   GL2 6712  14.517  22.065   6.527 -0.3746 -0.1776  0.0024
    1DIPC   C1A 6713  14.307  21.920   6.085  0.1881  0.1540 -0.1936
    1DIPC   D2A 6714  14.323  21.740   5.706 -0.0592 -0.0730 -0.0243
    1DIPC   D3A 6715  14.549  21.873   5.268  0.1581 -0.1079  0.1514
    1DIPC   C4A 6716  14.280  21.907   5.025  0.2373 -0.1624  0.1780
    1DIPC   C1B 6717  14.413  22.403   6.121 -0.1549  0.2759 -0.1888
    1DIPC   D2B 6718  14.267  22.242   5.684  0.1526 -0.0070  0.4221
    1DIPC   D3B 6719  13.996  22.219   5.432 -0.0109 -0.2900  0.2312
    1DIPC   C4B 6720  13.758  21.902   5.266  0.1446  0.0815  0.0438
    1DIPC   NC3 6721  14.265   3.458   7.253 -0.0572  0.1540  0.1520
    1DIPC   PO4 6722  14.130   3.767   7.495  0.1761  0.1591 -0.0123
    1DIPC   GL1 6723  14.080   3.855   7.064 -0.2111 -0.0277  0.0493
    1DIPC   GL2 6724  13.788   3.672   6.879 -0.1683 -0.1090  0.3591
    1DIPC   C1A 6725  14.200   3.680   6.599  0.0113  0.1406 -0.0170
    1DIPC   D2A 6726  14.034   3.561   6.240 -0.2001 -0.2107 -0.2432
    1DIPC   D3A 6727  14.000   3.936   6.116 -0.2489  0.1673 -0.0876
    1DIPC   C4A 6728  14.028   4.288   5.728  0.0743  0.3323 -0.1649
    1DIPC   C1B 6729  13.767   3.352   6.584 -0.3051 -0.0797 -0.0724
    1DIPC   D2B 6730  13.921   3.035   6.369 -0.2589  0.0282  0.3136
    1DIPC   D3B 6731  14.296   3.146   6.180  0.0655  0.1862 -0.0574
    1DIPC   C4B 6732  14.515   3.380   6.426 -0.2444 -0.1323  0.1380
    1DIPC   NC3 6733  10.375   7.644   7.735 -0.1285  0.0804 -0.0412
    1DIPC   PO4 6734  10.247   7.419   7.377  0.0365  0.1646 -0.1071
    1DIPC   GL1 6735   9.944   7.536   7.112  0.1241  0.2131 -0.0234
    1DIPC   GL2 6736  10.034   7.669   6.847 -0.0290 -0.1957 -0.0650
    1DIPC   C1A 6737   9.586   7.406   6.881  0.2585 -0.0154  0.2372
    1DIPC   D2A 6738   9.510   7.120   6.610 -0.2039  0.1224  0.4016
    1DIPC   D3A 6739   9.622   7.269   6.116 -0.0098 -0.1442  0.0045
    1DIPC   C4A 6740   9.773   7.209   5.695 -0.0695  0.4163  0.0594
    1DIPC   C1B 6741   9.972   7.617   6.410 -0.1183 -0.1697  0.2058
    1DIPC   D2B 6742   9.791   7.798   6.071 -0.1530 -0.1302  0.0347
    1DIPC   D3B 6743   9.425   7.865   5.927 -0.2299 -0.0198 -0.2027
    1DIPC   C4B 6744   9.326   8.030   5.491  0.4774  0.1197 -0.0612
    1DIPC   NC3 6745  27.230  15.223   6.290  0.4371  0.3148 -0.0249
    1DIPC   PO4 6746  26.886  15.482   6.387 -0.4558 -0.0388  0.0077
    1DIPC   GL1 6747  26.947  15.588   6.019 -0.1295 -0.1400 -0.0009
    1DIPC   GL2 6748  26.652  15.448   5.913  0.3960  0.1783 -0.2600
    1DIPC   C1A 6749  27.142  15.829   5.675 -0.4877 -0.0208 -0.4315
    1DIPC   D2A 6750  27.389  16.116   5.355  0.0025 -0.0779  0.1772
    1DIPC   D3A 6751  27.507  15.951   4.898 -0.2685  0.1238  0.1702
    1DIPC   C4A 6752  27.348  16.408   4.617  0.4443 -0.1428 -0.1745
    1DIPC   C1B 6753  26.392  15.645   5.612  0.0580 -0.0921 -0.0876
    1DIPC   D2B 6754  26.383  15.648   5.182  0.3904  0.1184 -0.1395
    1DIPC   D3B 6755  26.045  15.636   4.892 -0.0586 -0.0766 -0.3803
    1DIPC   C4B 6756  25.646  15.355   5.006 -0.0456 -0.0073 -0.2555
    1DIPC   NC3 6757   9.205  20.521   8.256 -0.3403  0.2532 -0.2232
    1DIPC   PO4 6758   8.941  20.530   7.798 -0.2750 -0.0854  0.3421
    1DIPC   GL1 6759   8.828  20.543   7.337 -0.0989 -0.2146  0.0437
    1DIPC   GL2 6760   8.837  20.895   7.151 -0.0615 -0.2057 -0.2614
    1DIPC   C1A 6761   8.776  20.447   6.941  0.1880  0.0136  0.2997
    1DIPC   D2A 6762   8.754  20.258   6.565  0.3595 -0.2510 -0.1428
    1DIPC   D3A 6763   8.929  20.691   6.537 -0.0326  0.1480 -0.1462
    1DIPC   C4A 6764   9.241  21.012   6.859  0.0421  0.0647  0.4277
    1DIPC   C1B 6765   8.772  21.145   6.713  0.1985  0.1233 -0.1123
    1DIPC   D2B 6766   8.531  21.206   6.275 -0.4804 -0.2453 -0.0617
    1DIPC   D3B 6767   8.975  21.100   6.166  0.0809 -0.0902  0.3494
    1DIPC   C4B 6768   8.965  21.340   5.749 -0.0304  0.3663 -0.1537
    1DIPC   NC3 6769   2.071  13.521   6.447 -0.0722 -0.0192 -0.0522
    1DIPC   PO4 6770   2.547  13.471   6.546 -0.2730 -0.2534 -0.1231
    1DIPC   GL1 6771   2.917  13.520   6.192  0.0762  0.2885 -0.2772
    1DIPC   GL2 6772   3.263  13.524   6.317  0.1298 -0.0359 -0.1362
    1DIPC   C1A 6773   3.100  13.580   5.817  0.3115  0.1994  0.4289
    1DIPC   D2A 6774   3.299  13.568   5.417  0.2334  0.1418  0.1501
    1DIPC   D3A 6775   3.398  13.703   5.018  0.1466  0.1555  0.2050
    1DIPC   C4A 6776   3.709  14.000   4.921 -0.0451 -0.1165 -0.2974
    1DIPC   C1B 6777   3.268  13.168   6.023 -0.0121 -0.1885 -0.1012
    1DIPC   D2B 6778   3.297  13.088   5.562  0.0458 -0.1199  0.0437
    1DIPC   D3B 6779   3.778  13.181   5.483  0.2001  0.1511  0.1950
    1DIPC   C4B 6780   3.752  12.911   5.108  0.0033 -0.1371 -0.0424
    1DIPC   NC3 6781  14.722  26.415   7.210 -0.3669  0.1504 -0.1060
    1DIPC   PO4 6782  15.029  26.709   7.095  0.0133 -0.0904  0.1580
    1DIPC   GL1 6783  14.790  26.825   6.688 -0.0220 -0.0661 -0.0366
    1DIPC   GL2 6784  14.464  26.816   6.618 -0.0526 -0.2982 -0.1282
    1DIPC   C1A 6785  14.813  27.083   6.367  0.3289 -0.2484  0.0757
    1DIPC   D2A 6786  14.841  27.103   5.902 -0.0011 -0.2247  0.1221
    1DIPC   D3A 6787  14.932  26.896   5.525 -0.0790  0.0891  0.0774
    1DIPC   C4A 6788  15.383  26.712   5.472  0.1016 -0.3208 -0.2083
    1DIPC   C1B 6789  14.399  26.941   6.173  0.1678 -0.1277  0.2647
    1DIPC   D2B 6790  14.357  27.076   5.756  0.0533  0.0726 -0.1919
    1DIPC   D3B 6791  14.030  26.768   5.514  0.1004  0.1239 -0.1859
    1DIPC   C4B 6792  13.718  26.855   5.199 -0.3417 -0.2525  0.2038
    1DIPC   NC3 6793  21.685  18.205   7.736 -0.2970  0.0253 -0.1669
    1DIPC   PO4 6794  21.369  18.209   7.389  0.0399 -0.3706  0.1703
    1DIPC   GL1 6795  21.416  18.095   6.941  0.1290 -0.1718 -0.3203
    1DIPC   GL2 6796  21.458  17.745   6.898 -0.3541  0.3605 -0.0661
    1DIPC   C1A 6797  21.329  18.000   6.429 -0.1285 -0.1306  0.2262
    1DIPC   D2A 6798  21.264  18.355   6.167 -0.0527  0.1405  0.1653
    1DIPC   D3A 6799  21.145  18.310   5.793  0.0632 -0.3280 -0.2360
    1DIPC   C4A 6800  20.849  18.239   5.546 -0.3703  0.2542  0.0347
    1DIPC   C1B 6801  21.364  17.450   6.529 -0.2016 -0.3333  0.1155
    1DIPC   D2B 6802  21.408  17.395   6.123  0.0449  0.0531  0.0658
    1DIPC   D3B 6803  21.818  17.472   5.821  0.1592 -0.0995 -0.2040
    1DIPC   C4B 6804  22.181  17.762   5.869  0.1688 -0.1008 -0.1581
    1DIPC   NC3 6805  20.993  23.258   7.590 -0.2342 -0.1471 -0.1839
    1DIPC   PO4 6806  21.130  23.178   7.224  0.2551  0.4678 -0.1363
    1DIPC   GL1 6807  21.254  23.248   6.889  0.1889 -0.0869  0.1195
    1DIPC   GL2 6808  21.203  23.049   6.638  0.1704 -0.2989 -0.1286
    1DIPC   C1A 6809  21.511  23.475   6.582 -0.0433 -0.1632 -0.1748
    1DIPC   D2A 6810  21.733  23.828   6.773  0.0309 -0.0807  0.1325
    1DIPC   D3A 6811  21.398  23.989   6.478  0.2197  0.3215 -0.0302
    1DIPC   C4A 6812  21.370  23.675   6.153 -0.1868 -0.5288  0.5275
    1DIPC   C1B 6813  21.285  22.621   6.339  0.2527 -0.0144  0.2970
    1DIPC   D2B 6814  20.989  22.431   6.034 -0.2504 -0.0684 -0.0784
    1DIPC   D3B 6815  21.214  22.789   5.802 -0.0861 -0.0099 -0.1698
    1DIPC   C4B 6816  20.920  22.765   5.446  0.1777 -0.3353 -0.2212
    1DIPC   NC3 6817  18.921  11.770   7.444 -0.0571 -0.0028 -0.0886
    1DIPC   PO4 6818  19.100  11.675   7.033 -0.0444 -0.2651  0.2330
    1DIPC   GL1 6819  18.942  11.419   6.704  0.2283 -0.2006  0.1839
    1DIPC   GL2 6820  19.128  11.205   6.597 -0.3591 -0.4159 -0.2763
    1DIPC   C1A 6821  18.986  11.480   6.189  0.3069  0.3138  0.1331
    1DIPC   D2A 6822  19.187  11.212   5.849  0.2471  0.1103  0.0800
    1DIPC   D3A 6823  18.977  11.223   5.412 -0.3204  0.0721 -0.0925
    1DIPC   C4A 6824  18.947  11.624   5.221 -0.2997 -0.0388 -0.0339
    1DIPC   C1B 6825  18.752  11.029   6.399 -0.0661 -0.0142 -0.1684
    1DIPC   D2B 6826  18.572  10.743   6.060 -0.1491 -0.0164 -0.0568
    1DIPC   D3B 6827  18.575  10.348   5.691  0.0755  0.0208  0.1512
    1DIPC   C4B 6828  18.274  10.045   5.696 -0.0077  0.1170  0.2234
    1DIPC   NC3 6829  24.296  19.898   6.854  0.0242 -0.2476 -0.3461
    1DIPC   PO4 6830  24.550  19.459   6.844  0.2069  0.0719 -0.3515
    1DIPC   GL1 6831  24.642  19.219   6.521  0.0470  0.0556 -0.2128
    1DIPC   GL2 6832  24.360  19.223   6.301 -0.1985 -0.0105  0.3509
    1DIPC   C1A 6833  24.813  18.992   6.182 -0.2450 -0.0554  0.3734
    1DIPC   D2A 6834  24.673  19.055   5.680  0.0135  0.3096  0.1140
    1DIPC   D3A 6835  24.960  19.193   5.375  0.0952  0.0716 -0.1029
    1DIPC   C4A 6836  25.198  19.043   5.060  0.3309  0.2469  0.1814
    1DIPC   C1B 6837  24.303  19.413   5.927  0.2022 -0.0474 -0.1449
    1DIPC   D2B 6838  24.394  19.466   5.501 -0.3261 -0.2067 -0.1556
    1DIPC   D3B 6839  24.678  19.685   5.199  0.3150  0.0359  0.1960
    1DIPC   C4B 6840  24.787  19.349   4.938 -0.0651 -0.0935  0.0243
    1DIPC   NC3 6841  13.750  25.076   6.764  0.1314 -0.0182 -0.0231
    1DIPC   PO4 6842  13.529  25.389   6.915  0.2539  0.1931  0.1808
    1DIPC   GL1 6843  13.791  25.501   6.438  0.2187 -0.3834 -0.5474
    1DIPC   GL2 6844  14.237  25.636   6.405 -0.0337 -0.1477 -0.0891
    1DIPC   C1A 6845  13.948  25.437   6.057  0.0793  0.3344 -0.1361
    1DIPC   D2A 6846  13.730  25.086   5.786  0.2575  0.0301 -0.0159
    1DIPC   D3A 6847  13.767  25.382   5.545 -0.0519  0.2671 -0.1259
    1DIPC   C4A 6848  13.634  25.365   5.172 -0.0394 -0.2450  0.2135
    1DIPC   C1B 6849  14.441  25.862   6.063 -0.0402 -0.3884  0.2072
    1DIPC   D2B 6850  14.641  26.085   5.825 -0.1942 -0.1312  0.0303
    1DIPC   D3B 6851  14.583  25.783   5.526 -0.0223 -0.0697 -0.0937
    1DIPC   C4B 6852  14.771  25.818   5.105 -0.3015  0.2109 -0.1536
    1DIPC   NC3 6853   8.480  12.632   7.316 -0.1160 -0.0063  0.0779
    1DIPC   PO4 6854   8.612  12.379   7.098  0.1686  0.2048  0.5823
    1DIPC   GL1 6855   8.798  12.811   7.018 -0.1862 -0.0263  0.3329
    1DIPC   GL2 6856   8.550  13.085   7.032  0.1247  0.1997 -0.0180
    1DIPC   C1A 6857   8.974  12.711   6.557 -0.2672  0.1859 -0.1555
    1DIPC   D2A 6858   9.297  12.477   6.378 -0.1427 -0.0043  0.3173
    1DIPC   D3A 6859   9.456  12.668   5.994  0.0921  0.3297  0.1787
    1DIPC   C4A 6860   9.844  12.671   5.784 -0.2408  0.0716  0.0723
    1DIPC   C1B 6861   8.505  12.865   6.663  0.2448  0.0332 -0.0676
    1DIPC   D2B 6862   8.538  12.614   6.287  0.2124 -0.0873  0.0080
    1DIPC   D3B 6863   8.932  12.627   6.057  0.0186 -0.0539  0.0247
    1DIPC   C4B 6864   9.145  12.249   6.000  0.1140  0.1254 -0.3157
    1DIPC   NC3 6865  16.948  16.898   7.598  0.1075 -0.0253  0.0790
    1DIPC   PO4 6866  17.369  16.741   7.458 -0.0471  0.0273 -0.0792
    1DIPC   GL1 6867  17.371  16.397   7.231  0.2198  0.2268 -0.1199
    1DIPC   GL2 6868  17.493  16.536   6.981 -0.3169  0.0074 -0.2765
    1DIPC   C1A 6869  17.520  15.976   7.151 -0.0936 -0.0597 -0.2770
    1DIPC   D2A 6870  17.314  15.610   7.005 -0.0572  0.2146 -0.3069
    1DIPC   D3A 6871  17.106  15.966   6.701 -0.0246 -0.1163 -0.1088
    1DIPC   C4A 6872  17.238  15.891   6.276 -0.0521  0.0477 -0.0141
    1DIPC   C1B 6873  17.683  16.350   6.703  0.0661  0.1227 -0.0393
    1DIPC   D2B 6874  17.563  16.374   6.270 -0.1764 -0.0540  0.1084
    1DIPC   D3B 6875  18.071  16.212   6.151 -0.1382 -0.4141 -0.2297
    1DIPC   C4B 6876  18.180  15.863   5.843  0.1606 -0.0471  0.1537
    1DIPC   NC3 6877   2.144  27.792   6.916 -0.1199 -0.2572 -0.1305
    1DIPC   PO4 6878   1.763  27.949   6.766 -0.2254 -0.0314 -0.0729
    1DIPC   GL1 6879   1.853  28.055   6.314  0.0182  0.0690  0.1105
    1DIPC   GL2 6880   1.528  28.027   6.186 -0.1846  0.1628 -0.0021
    1DIPC   C1A 6881   1.973  27.922   6.024 -0.0395  0.0469  0.0714
    1DIPC   D2A 6882   1.914  27.938   5.528 -0.2579  0.0055  0.1293
    1DIPC   D3A 6883   1.486  27.727   5.302 -0.1102  0.2245 -0.1291
    1DIPC   C4A 6884   1.116  27.846   5.311 -0.0719 -0.2504 -0.0132
    1DIPC   C1B 6885   1.450  28.118   5.790 -0.3237  0.1207  0.1347
    1DIPC   D2B 6886   1.434   0.063   5.338 -0.1106  0.0718  0.2196
    1DIPC   D3B 6887   1.273   0.245   5.028  0.0688 -0.0672 -0.0696
    1DIPC   C4B 6888   0.854   0.256   4.715 -0.2002 -0.1043 -0.0541
    1DIPC   NC3 6889  14.456  13.113   7.712 -0.0864  0.0245 -0.2827
    1DIPC   PO4 6890  14.303  13.462   7.747  0.0953  0.0120  0.0337
    1DIPC   GL1 6891  14.513  13.583   7.321 -0.1214  0.1236  0.2774
    1DIPC   GL2 6892  14.735  13.778   7.365 -0.0959 -0.0178 -0.3979
    1DIPC   C1A 6893  14.603  13.606   6.870  0.0621 -0.1204 -0.1518
    1DIPC   D2A 6894  14.619  13.573   6.335  0.1819 -0.0325 -0.2539
    1DIPC   D3A 6895  14.347  13.447   6.078 -0.0539  0.3136  0.0402
    1DIPC   C4A 6896  13.943  13.527   6.266  0.0112  0.0634 -0.0859
    1DIPC   C1B 6897  14.419  14.027   7.080  0.0306  0.4197 -0.0435
    1DIPC   D2B 6898  14.198  14.416   7.103 -0.1096  0.2026 -0.1347
    1DIPC   D3B 6899  13.839  14.407   6.843 -0.0826  0.1169 -0.1820
    1DIPC   C4B 6900  13.945  14.114   6.351 -0.1116  0.0495  0.1936
    1DIPC   NC3 6901   9.849  23.696   7.166 -0.1002  0.1696  0.2117
    1DIPC   PO4 6902  10.088  24.206   7.079 -0.0818  0.2575 -0.0115
    1DIPC   GL1 6903  10.278  24.119   6.695 -0.2178  0.1724 -0.1365
    1DIPC   GL2 6904  10.011  23.912   6.650  0.1806  0.0913 -0.0051
    1DIPC   C1A 6905  10.439  24.391   6.362 -0.0409 -0.0553  0.0758
    1DIPC   D2A 6906  10.402  24.516   5.911 -0.1539 -0.2151 -0.2447
    1DIPC   D3A 6907  10.394  24.180   5.560  0.0827  0.1516  0.0085
    1DIPC   C4A 6908  10.606  23.762   5.568 -0.2701 -0.2277 -0.0643
    1DIPC   C1B 6909  10.128  23.695   6.250 -0.1181 -0.3505 -0.2174
    1DIPC   D2B 6910  10.287  23.526   5.899 -0.3255  0.0692  0.3583
    1DIPC   D3B 6911  10.437  23.318   5.672  0.2397  0.1706 -0.1962
    1DIPC   C4B 6912  10.194  23.053   5.406  0.0578  0.1012  0.1102
    1DIPC   NC3 6913   3.019   0.170   6.705 -0.3411 -0.2495 -0.0052
    1DIPC   PO4 6914   3.373  27.997   6.582  0.0602 -0.1502 -0.1579
    1DIPC   GL1 6915   3.380  27.894   6.102 -0.3318 -0.0120 -0.0214
    1DIPC   GL2 6916   3.697  28.097   6.082 -0.1687 -0.0986  0.0530
    1DIPC   C1A 6917   3.421  27.709   5.684  0.0482 -0.2939 -0.2582
    1DIPC   D2A 6918   3.403  27.475   5.392 -0.1992 -0.2222 -0.0451
    1DIPC   D3A 6919   3.581  27.132   5.360  0.2817  0.2420 -0.0805
    1DIPC   C4A 6920   3.876  27.047   5.142 -0.0167  0.1139  0.1016
    1DIPC   C1B 6921   3.701  28.113   5.641  0.1334  0.0421  0.1448
    1DIPC   D2B 6922   3.776   0.092   5.234 -0.2109 -0.3352  0.0293
    1DIPC   D3B 6923   3.466  27.958   5.197  0.1619 -0.3254 -0.0414
    1DIPC   C4B 6924   3.230  27.772   4.810  0.2289 -0.0913 -0.2145
    1DIPC   NC3 6925  14.156  13.936   8.003 -0.2137  0.0221  0.0875
    1DIPC   PO4 6926  13.735  13.979   7.756 -0.1525 -0.6613 -0.1098
    1DIPC   GL1 6927  13.542  13.769   7.413 -0.1197  0.4497 -0.3234
    1DIPC   GL2 6928  13.318  13.738   7.140  0.1234 -0.0253  0.0630
    1DIPC   C1A 6929  13.603  13.307   7.271 -0.0907  0.4052 -0.1210
    1DIPC   D2A 6930  13.690  12.854   7.222 -0.2719 -0.0028  0.3089
    1DIPC   D3A 6931  13.546  12.518   7.459 -0.0521 -0.1904 -0.0468
    1DIPC   C4A 6932  13.193  12.319   7.254 -0.3191  0.2292  0.0193
    1DIPC   C1B 6933  13.022  13.254   7.009  0.1266 -0.0860 -0.0953
    1DIPC   D2B 6934  12.684  13.130   6.832  0.1072  0.1175  0.2112
    1DIPC   D3B 6935  12.464  12.900   6.388 -0.1303 -0.2831  0.3681
    1DIPC   C4B 6936  12.384  12.855   5.975 -0.1994  0.0938 -0.0138
    1DIPC   NC3 6937   7.009  14.750   7.666 -0.1904  0.3169 -0.1295
    1DIPC   PO4 6938   6.827  14.894   7.175 -0.1612  0.2732 -0.0144
    1DIPC   GL1 6939   6.815  14.963   6.805  0.1993 -0.1288 -0.1484
    1DIPC   GL2 6940   7.035  14.648   6.643  0.2122  0.0494 -0.0247
    1DIPC   C1A 6941   6.800  15.169   6.397 -0.1581  0.2129  0.3155
    1DIPC   D2A 6942   6.584  15.257   5.956  0.2440  0.3520 -0.1492
    1DIPC   D3A 6943   6.498  15.607   6.066  0.0107  0.0444  0.1490
    1DIPC   C4A 6944   6.544  15.723   6.541  0.1706 -0.0887 -0.1338
    1DIPC   C1B 6945   6.729  14.660   6.263 -0.1786  0.3163 -0.0180
    1DIPC   D2B 6946   6.718  14.792   5.789 -0.4329  0.3750 -0.0391
    1DIPC   D3B 6947   7.005  14.619   5.751 -0.0218 -0.1976 -0.1123
    1DIPC   C4B 6948   7.344  14.889   5.585 -0.1544  0.0334  0.3144
    1DIPC   NC3 6949   7.899   8.050   7.092 -0.2203 -0.0098  0.0540
    1DIPC   PO4 6950   7.486   8.056   6.863 -0.3655  0.1604  0.0941
    1DIPC   GL1 6951   7.367   8.177   6.403  0.1414 -0.1068 -0.0345
    1DIPC   GL2 6952   7.014   8.002   6.326 -0.1611  0.0152 -0.3938
    1DIPC   C1A 6953   7.303   8.356   5.951 -0.2978 -0.2705  0.2551
    1DIPC   D2A 6954   7.504   8.253   5.505  0.0066 -0.0375  0.0013
    1DIPC   D3A 6955   7.745   8.638   5.396  0.1568 -0.1386 -0.0277
    1DIPC   C4A 6956   7.613   8.822   5.792  0.0974  0.0969 -0.1807
    1DIPC   C1B 6957   7.273   7.702   6.077 -0.2059 -0.1136 -0.0230
    1DIPC   D2B 6958   6.916   7.370   5.862 -0.0748  0.0885 -0.1596
    1DIPC   D3B 6959   7.156   7.743   5.624 -0.3689  0.2282  0.2688
    1DIPC   C4B 6960   7.175   7.618   5.121  0.4408  0.0003 -0.1343
    1DIPC   NC3 6961   6.212  18.391   7.604  0.0162  0.0667 -0.0577
    1DIPC   PO4 6962   6.112  18.029   7.344  0.3519 -0.0875 -0.3085
    1DIPC   GL1 6963   5.965  18.045   6.919 -0.0610 -0.1267 -0.2750
    1DIPC   GL2 6964   6.205  17.956   6.665  0.1060 -0.0706  0.0199
    1DIPC   C1A 6965   5.759  17.945   6.521  0.2400  0.3553 -0.2537
    1DIPC   D2A 6966   5.788  17.855   6.116 -0.0708  0.1829  0.0125
    1DIPC   D3A 6967   6.027  18.246   6.129 -0.0646 -0.2242 -0.3129
    1DIPC   C4A 6968   6.008  18.434   6.610  0.0282  0.2661 -0.1405
    1DIPC   C1B 6969   6.533  17.997   6.387  0.1738 -0.2055 -0.0650
    1DIPC   D2B 6970   6.587  18.139   5.997 -0.1041 -0.4592  0.1976
    1DIPC   D3B 6971   6.235  17.858   5.878  0.4612 -0.0969 -0.0951
    1DIPC   C4B 6972   6.270  17.840   5.370 -0.1316 -0.0421  0.4052
    1DIPC   NC3 6973  14.696  17.639   7.705 -0.0324 -0.0269  0.4431
    1DIPC   PO4 6974  14.608  17.297   7.540  0.2256 -0.4023  0.1314
    1DIPC   GL1 6975  14.837  17.142   7.230  0.2338 -0.1768  0.0119
    1DIPC   GL2 6976  15.108  17.071   7.173  0.0650  0.3245  0.2544
    1DIPC   C1A 6977  14.677  16.898   6.877  0.1593  0.2685  0.1230
    1DIPC   D2A 6978  14.477  16.972   6.481 -0.0806  0.1005 -0.0427
    1DIPC   D3A 6979  14.665  16.554   6.406  0.0881 -0.1122 -0.0269
    1DIPC   C4A 6980  14.531  16.282   6.111 -0.4355 -0.2582 -0.2111
    1DIPC   C1B 6981  15.211  16.887   6.833  0.0326  0.0658 -0.2548
    1DIPC   D2B 6982  15.007  16.889   6.462 -0.0370 -0.0076 -0.0094
    1DIPC   D3B 6983  15.323  16.877   6.190  0.0562 -0.0112  0.2145
    1DIPC   C4B 6984  15.462  17.224   5.859 -0.0976  0.4159 -0.0671
    1DIPC   NC3 6985   4.304   6.435   6.785  0.0150 -0.0261  0.3026
    1DIPC   PO4 6986   4.214   6.052   6.549 -0.1875 -0.0568 -0.0771
    1DIPC   GL1 6987   4.382   5.877   6.170  0.1992  0.3370 -0.1039
    1DIPC   GL2 6988   4.202   5.730   5.856  0.0315  0.2779  0.2072
    1DIPC   C1A 6989   4.664   5.919   5.807 -0.1384 -0.0355  0.2485
    1DIPC   D2A 6990   4.682   6.191   5.443 -0.1011  0.3748 -0.1086
    1DIPC   D3A 6991   4.682   6.272   4.994 -0.1168  0.1027  0.3042
    1DIPC   C4A 6992   4.357   6.061   4.646  0.0240  0.0960 -0.1094
    1DIPC   C1B 6993   4.194   6.051   5.663  0.1528  0.0336 -0.3203
    1DIPC   D2B 6994   4.335   6.459   5.755 -0.2029  0.1083  0.4211
    1DIPC   D3B 6995   4.715   6.481   6.012 -0.2305  0.0058  0.1902
    1DIPC   C4B 6996   4.987   6.258   6.061 -0.0088  0.1218 -0.2960
    1DIPC   NC3 6997  12.551  17.632   7.206  0.0809 -0.0151  0.1445
    1DIPC   PO4 6998  13.013  17.474   7.172  0.0557 -0.1316  0.1611
    1DIPC   GL1 6999  12.798  17.556   6.781  0.0228  0.1444 -0.4700
    1DIPC   GL2 7000  12.796  17.839   6.806 -0.2565 -0.1588  0.0075
    1DIPC   C1A 7001  12.729  17.465   6.353  0.0071 -0.2414  0.0720
    1DIPC   D2A 7002  12.700  17.550   5.886  0.1065  0.0007 -0.2169
    1DIPC   D3A 7003  12.927  17.745   5.926  0.1859 -0.1542 -0.1651
    1DIPC   C4A 7004  13.198  17.609   6.045  0.4221  0.0954 -0.0353
    1DIPC   C1B 7005  13.092  17.964   6.408 -0.0345  0.1743  0.3428
    1DIPC   D2B 7006  13.493  18.020   6.400  0.1307  0.0640  0.3547
    1DIPC   D3B 7007  13.633  17.947   5.851  0.1612  0.2582 -0.0180
    1DIPC   C4B 7008  13.375  17.817   5.570 -0.0078 -0.2350  0.3471
    1DIPC   NC3 7009  10.543  10.758   7.314 -0.1316 -0.1680  0.0309
    1DIPC   PO4 7010  10.888  10.490   7.527 -0.3387 -0.0252 -0.1083
    1DIPC   GL1 7011  10.801  10.340   7.125  0.0980 -0.1462 -0.0691
    1DIPC   GL2 7012  11.029  10.493   6.919  0.1346 -0.0095  0.1846
    1DIPC   C1A 7013  10.603  10.189   6.759  0.3188 -0.1140 -0.2167
    1DIPC   D2A 7014  10.461   9.775   6.656  0.0599 -0.2384 -0.0450
    1DIPC   D3A 7015  10.644   9.479   6.779 -0.1066  0.2678 -0.1937
    1DIPC   C4A 7016  11.076   9.389   6.556 -0.1196 -0.1586 -0.2472
    1DIPC   C1B 7017  11.052  10.347   6.511  0.0658  0.0304  0.2863
    1DIPC   D2B 7018  11.283  10.241   6.069 -0.0570  0.2239  0.1352
    1DIPC   D3B 7019  10.954  10.152   5.747  0.0850 -0.0597 -0.1493
    1DIPC   C4B 7020  10.884   9.735   5.623 -0.0255 -0.0896  0.2537
    1DIPC   NC3 7021   6.594  12.994   7.326  0.0044  0.1565  0.0725
    1DIPC   PO4 7022   6.263  12.941   7.018  0.0225  0.0687  0.2200
    1DIPC   GL1 7023   6.423  13.105   6.681 -0.2884 -0.0314 -0.0033
    1DIPC   GL2 7024   6.745  13.200   6.791 -0.4388 -0.1020  0.0689
    1DIPC   C1A 7025   6.583  13.181   6.171 -0.2241  0.0704 -0.0129
    1DIPC   D2A 7026   6.421  13.100   5.864 -0.0995 -0.2342 -0.0879
    1DIPC   D3A 7027   6.403  13.434   5.613  0.1556  0.4066  0.1950
    1DIPC   C4A 7028   6.190  13.494   5.339  0.1451  0.1323  0.0677
    1DIPC   C1B 7029   6.839  12.868   6.439  0.0030  0.0404  0.1536
    1DIPC   D2B 7030   6.625  12.506   6.403 -0.0804 -0.1928 -0.0753
    1DIPC   D3B 7031   6.312  12.758   6.326 -0.0683  0.1274  0.1872
    1DIPC   C4B 7032   6.108  12.718   5.926 -0.0995  0.1014 -0.0379
    1DIPC   NC3 7033   2.381   9.980   6.780 -0.1257 -0.0233  0.2747
    1DIPC   PO4 7034   2.778   9.811   6.539  0.0111 -0.2135  0.0209
    1DIPC   GL1 7035   3.011  10.128   6.248 -0.2080 -0.0836  0.0831
    1DIPC   GL2 7036   3.245  10.294   6.083  0.1450  0.0633 -0.0817
    1DIPC   C1A 7037   2.847  10.167   5.773  0.0399  0.3303 -0.1621
    1DIPC   D2A 7038   2.877  10.252   5.300 -0.1679  0.1151 -0.2657
    1DIPC   D3A 7039   2.905   9.973   5.085 -0.1904 -0.2783  0.0627
    1DIPC   C4A 7040   3.223   9.724   5.252 -0.2188 -0.3666  0.1188
    1DIPC   C1B 7041   3.342  10.370   5.563 -0.3040  0.1360 -0.2845
    1DIPC   D2B 7042   3.453  10.183   5.189 -0.0268  0.0079 -0.1329
    1DIPC   D3B 7043   3.751   9.998   5.382 -0.0753  0.0616  0.3600
    1DIPC   C4B 7044   3.740   9.595   5.138  0.0477 -0.1849 -0.0057
    1DIPC   NC3 7045   7.497  14.278   7.021 -0.0128 -0.5936  0.1286
    1DIPC   PO4 7046   7.065  14.218   6.857 -0.0542 -0.1530 -0.2680
    1DIPC   GL1 7047   7.133  14.074   6.557 -0.2224 -0.1936 -0.0407
    1DIPC   GL2 7048   7.268  13.824   6.396 -0.3119 -0.0484 -0.1786
    1DIPC   C1A 7049   6.961  14.227   6.255  0.2093 -0.0203 -0.1364
    1DIPC   D2A 7050   6.788  14.203   5.884  0.1721  0.1596 -0.2303
    1DIPC   D3A 7051   6.434  14.060   6.052  0.1604 -0.2264  0.1049
    1DIPC   C4A 7052   6.292  13.629   6.003 -0.2063  0.1598 -0.1316
    1DIPC   C1B 7053   7.226  13.831   5.976 -0.1491  0.0023  0.1417
    1DIPC   D2B 7054   7.252  13.563   5.674 -0.1240  0.0136 -0.0913
    1DIPC   D3B 7055   7.019  13.853   5.526  0.1695  0.2827 -0.0938
    1DIPC   C4B 7056   7.363  14.200   5.598 -0.2937  0.1482  0.1650
    1DIPC   NC3 7057   2.218   8.083   6.528 -0.0923  0.1892 -0.1966
    1DIPC   PO4 7058   2.104   8.449   6.503 -0.3645 -0.2252 -0.1828
    1DIPC   GL1 7059   2.243   8.414   6.088 -0.1159 -0.1692  0.0260
    1DIPC   GL2 7060   2.582   8.236   6.098 -0.1638  0.0193  0.2112
    1DIPC   C1A 7061   2.376   8.545   5.708  0.0485  0.0180 -0.0305
    1DIPC   D2A 7062   2.762   8.839   5.553  0.2443  0.2621 -0.2677
    1DIPC   D3A 7063   3.069   8.479   5.680  0.2685  0.1117 -0.2579
    1DIPC   C4A 7064   3.317   8.201   5.476  0.0306 -0.2971  0.4607
    1DIPC   C1B 7065   2.608   8.085   5.585 -0.1431  0.1222 -0.1189
    1DIPC   D2B 7066   2.894   8.015   5.282 -0.2276  0.2312  0.1160
    1DIPC   D3B 7067   2.751   8.360   5.173 -0.1154  0.4904 -0.0306
    1DIPC   C4B 7068   2.450   8.593   5.226  0.1658  0.0925 -0.1540
    1DIPC   NC3 7069  23.043   1.031   7.260 -0.0055 -0.3654 -0.0346
    1DIPC   PO4 7070  23.505   0.867   7.143  0.0115  0.0128 -0.2621
    1DIPC   GL1 7071  23.313   0.638   6.746  0.1011  0.0058  0.1207
    1DIPC   GL2 7072  23.252   0.253   6.705 -0.0671 -0.1121  0.0884
    1DIPC   C1A 7073  23.260   0.592   6.275 -0.0958 -0.1421  0.1030
    1DIPC   D2A 7074  23.239   0.248   6.042  0.1066  0.1800  0.1052
    1DIPC   D3A 7075  23.316   0.382   5.668 -0.3328 -0.0249  0.0481
    1DIPC   C4A 7076  22.973   0.520   5.395  0.1252  0.1522 -0.1518
    1DIPC   C1B 7077  22.960   0.171   6.434 -0.0730  0.1252  0.2021
    1DIPC   D2B 7078  22.523   0.111   6.456 -0.1873  0.1871  0.0565
    1DIPC   D3B 7079  22.550   0.504   6.260 -0.2558  0.2209 -0.0889
    1DIPC   C4B 7080  22.855   0.780   6.480  0.0484  0.0928 -0.1010
    1DIPC   NC3 7081   1.979  27.113   6.757 -0.0366  0.0877  0.1218
    1DIPC   PO4 7082   2.376  27.195   6.741 -0.1719 -0.0944  0.2352
    1DIPC   GL1 7083   2.235  27.130   6.268  0.1397  0.0494  0.3002
    1DIPC   GL2 7084   2.038  26.856   6.235 -0.0661  0.0777  0.1363
    1DIPC   C1A 7085   2.100  27.104   5.810 -0.3056  0.1242 -0.0805
    1DIPC   D2A 7086   2.074  27.340   5.439 -0.0782 -0.0328  0.0010
    1DIPC   D3A 7087   2.341  27.391   5.158 -0.0888 -0.1092  0.1307
    1DIPC   C4A 7088   2.337  27.169   4.679 -0.0610 -0.0013 -0.0425
    1DIPC   C1B 7089   1.768  26.715   5.899 -0.1446  0.0605 -0.1904
    1DIPC   D2B 7090   1.727  26.473   5.483 -0.0513 -0.1013 -0.1415
    1DIPC   D3B 7091   1.989  26.830   5.329  0.3665 -0.2240 -0.3216
    1DIPC   C4B 7092   2.307  26.844   5.096  0.2528 -0.0135 -0.2606
    1DIPC   NC3 7093  20.527   1.214   6.982 -0.0622  0.0523  0.2727
    1DIPC   PO4 7094  20.633   0.831   6.745  0.0106 -0.1548 -0.1371
    1DIPC   GL1 7095  20.473   0.657   6.465 -0.0273 -0.0916  0.0650
    1DIPC   GL2 7096  20.450   0.357   6.393 -0.0004 -0.0655  0.0132
    1DIPC   C1A 7097  20.366   0.868   6.044  0.0251  0.1062  0.1833
    1DIPC   D2A 7098  20.196   0.755   5.750  0.0159  0.0129 -0.1540
    1DIPC   D3A 7099  20.485   0.989   5.504  0.4575 -0.0245 -0.0448
    1DIPC   C4A 7100  20.463   0.889   5.055 -0.1468  0.0971  0.2234
    1DIPC   C1B 7101  20.524   0.387   5.955  0.2948  0.1041  0.0503
    1DIPC   D2B 7102  20.512   0.390   5.529 -0.1334  0.1449 -0.0034
    1DIPC   D3B 7103  20.297   0.224   5.166  0.0442  0.2025  0.1522
    1DIPC   C4B 7104  20.503   0.418   4.798 -0.0941  0.0071  0.0339
    1DIPC   NC3 7105  13.331   6.969   7.809 -0.1633  0.0116  0.2256
    1DIPC   PO4 7106  13.481   6.886   7.356 -0.2736  0.1295  0.1287
    1DIPC   GL1 7107  13.523   6.659   7.017  0.1059 -0.1635 -0.2039
    1DIPC   GL2 7108  13.262   6.723   6.765 -0.1553 -0.1339 -0.0167
    1DIPC   C1A 7109  13.708   6.589   6.634  0.1352  0.0566  0.2351
    1DIPC   D2A 7110  13.638   6.582   6.205  0.2874  0.1211 -0.1101
    1DIPC   D3A 7111  13.609   6.283   5.838 -0.3584  0.0924 -0.0979
    1DIPC   C4A 7112  14.005   6.080   5.693 -0.0656  0.0901 -0.1597
    1DIPC   C1B 7113  13.170   6.769   6.369  0.1314 -0.1956  0.0357
    1DIPC   D2B 7114  13.166   7.042   6.122  0.1964 -0.1321 -0.1118
    1DIPC   D3B 7115  13.470   7.176   5.873  0.0956 -0.1221  0.1785
    1DIPC   C4B 7116  13.661   6.923   5.587 -0.0488 -0.0870 -0.1188
    1DIPC   NC3 7117  27.766  12.353   6.726 -0.0997  0.1778 -0.1648
    1DIPC   PO4 7118  27.816  12.792   6.757 -0.3580 -0.0264 -0.0256
    1DIPC   GL1 7119  27.787  12.954   6.424  0.2515  0.0129  0.3664
    1DIPC   GL2 7120  28.016  13.191   6.350 -0.0779  0.1329  0.0172
    1DIPC   C1A 7121  27.796  12.846   5.907 -0.1860 -0.0276 -0.0613
    1DIPC   D2A 7122  27.897  12.715   5.526  0.3637 -0.0330 -0.0146
    1DIPC   D3A 7123  27.856  12.874   5.139 -0.1451  0.2371 -0.2556
    1DIPC   C4A 7124  28.031  13.253   4.981  0.0413  0.1447  0.2616
    1DIPC   C1B 7125   0.108  13.044   6.029  0.0404  0.2892  0.0661
    1DIPC   D2B 7126   0.132  13.136   5.588 -0.0938  0.0801 -0.1604
    1DIPC   D3B 7127   0.047  13.556   5.354 -0.1884 -0.3017 -0.0834
    1DIPC   C4B 7128  27.874  13.822   5.558  0.0775 -0.0703 -0.0422
    1DIPC   NC3 7129   1.049   9.183   6.851  0.3412  0.1547  0.0612
    1DIPC   PO4 7130   0.670   9.014   6.904 -0.0083  0.1594 -0.0220
    1DIPC   GL1 7131   0.789   8.932   6.458 -0.3014 -0.2058  0.1028
    1DIPC   GL2 7132   1.020   9.190   6.324  0.2650 -0.2149 -0.0654
    1DIPC   C1A 7133   0.868   8.956   5.929 -0.0435  0.1684  0.1415
    1DIPC   D2A 7134   0.982   8.767   5.529 -0.1376 -0.4976  0.0095
    1DIPC   D3A 7135   0.656   8.518   5.220  0.1490  0.1606  0.0985
    1DIPC   C4A 7136   0.555   8.804   4.887 -0.1207 -0.0194 -0.2028
    1DIPC   C1B 7137   0.565   9.252   6.169 -0.1853  0.0617  0.1209
    1DIPC   D2B 7138   0.249   8.972   6.061 -0.0008  0.5577  0.0235
    1DIPC   D3B 7139   0.417   8.810   5.678  0.2708 -0.0994 -0.0044
    1DIPC   C4B 7140   0.621   8.434   5.750  0.0088 -0.2872 -0.2759
    1DIPC   NC3 7141  22.769  14.409   6.974 -0.1685 -0.0123 -0.2279
    1DIPC   PO4 7142  22.392  14.230   6.742  0.0008  0.2940  0.0624
    1DIPC   GL1 7143  22.169  14.179   6.416 -0.0785  0.0321 -0.0282
    1DIPC   GL2 7144  22.356  14.154   6.220  0.2944 -0.0709 -0.1620
    1DIPC   C1A 7145  21.872  14.407   6.229  0.2104  0.0986  0.1095
    1DIPC   D2A 7146  21.670  14.774   6.375 -0.4016 -0.1895 -0.0433
    1DIPC   D3A 7147  21.845  14.952   5.995 -0.2593 -0.1619 -0.0329
    1DIPC   C4A 7148  22.013  14.630   5.790  0.1298  0.0282  0.1488
    1DIPC   C1B 7149  22.041  14.102   5.858  0.0882  0.0696  0.0630
    1DIPC   D2B 7150  21.653  14.038   5.823 -0.3238 -0.2838  0.0801
    1DIPC   D3B 7151  21.523  14.481   5.936 -0.0254  0.2038  0.0036
    1DIPC   C4B 7152  21.476  14.813   5.605 -0.2701  0.1066  0.2284
    1DIPC   NC3 7153   5.100  11.644   6.814 -0.0326  0.2014 -0.1590
    1DIPC   PO4 7154   5.446  11.486   6.709 -0.0868 -0.2208  0.0007
    1DIPC   GL1 7155   5.457  11.529   6.355 -0.1449  0.0096  0.2683
    1DIPC   GL2 7156   5.105  11.582   6.256 -0.1672  0.0896  0.1514
    1DIPC   C1A 7157   5.653  11.421   5.904  0.4172  0.1488  0.1475
    1DIPC   D2A 7158   5.561  11.119   5.539  0.3186  0.2200 -0.0934
    1DIPC   D3A 7159   5.170  11.226   5.568  0.2042 -0.1861 -0.2352
    1DIPC   C4A 7160   5.119  11.681   5.733 -0.1917  0.2383 -0.2234
    1DIPC   C1B 7161   5.019  11.111   6.082  0.1286  0.0967  0.0263
    1DIPC   D2B 7162   5.222  10.732   5.924 -0.0643  0.1275 -0.1176
    1DIPC   D3B 7163   5.291  10.540   5.543  0.1300 -0.4020 -0.0339
    1DIPC   C4B 7164   4.913  10.271   5.669 -0.0561  0.4341 -0.4399
    1DIPC   NC3 7165  18.420   0.574   7.331  0.0293  0.2059 -0.2759
    1DIPC   PO4 7166  18.645   0.846   7.409 -0.1318  0.2458  0.0995
    1DIPC   GL1 7167  18.757   0.837   7.020 -0.0396 -0.0442  0.0993
    1DIPC   GL2 7168  18.764   1.243   6.995  0.1753  0.1041  0.1047
    1DIPC   C1A 7169  18.515   0.970   6.665 -0.0945 -0.0721  0.3487
    1DIPC   D2A 7170  18.056   1.058   6.539 -0.0185  0.0200  0.1153
    1DIPC   D3A 7171  18.139   1.103   6.165 -0.0350 -0.0932 -0.0685
    1DIPC   C4A 7172  18.466   0.969   5.927 -0.3403  0.0793 -0.1552
    1DIPC   C1B 7173  18.852   1.412   6.619  0.1333  0.0876  0.2443
    1DIPC   D2B 7174  18.534   1.375   6.289  0.1096  0.1202  0.2799
    1DIPC   D3B 7175  18.326   1.452   6.704  0.0451 -0.2051  0.1035
    1DIPC   C4B 7176  18.609   1.763   6.939  0.2996 -0.0269 -0.2065
    1DIPC   NC3 7177   5.775   5.804   7.262  0.4412 -0.1512  0.0491
    1DIPC   PO4 7178   5.595   5.774   6.840 -0.0892 -0.1160 -0.2563
    1DIPC   GL1 7179   5.668   5.915   6.383 -0.0001  0.0674 -0.1493
    1DIPC   GL2 7180   5.447   5.739   6.207  0.2125 -0.0339 -0.1957
    1DIPC   C1A 7181   5.896   5.768   6.092 -0.0189  0.1654 -0.2568
    1DIPC   D2A 7182   6.008   5.895   5.676 -0.1604 -0.1875 -0.0359
    1DIPC   D3A 7183   6.304   5.624   5.321  0.2572  0.1273  0.0773
    1DIPC   C4A 7184   6.331   5.661   4.953  0.2224 -0.3475 -0.2144
    1DIPC   C1B 7185   5.384   5.932   5.933  0.0808 -0.1926  0.1240
    1DIPC   D2B 7186   5.171   6.092   5.638 -0.4868  0.0539  0.0760
    1DIPC   D3B 7187   5.071   5.992   5.185  0.0472 -0.0635  0.0262
    1DIPC   C4B 7188   5.315   5.681   4.915  0.0532 -0.2463  0.2563
    1DIPC   NC3 7189  22.289   9.335   7.506 -0.0885 -0.1913 -0.3365
    1DIPC   PO4 7190  21.969   9.562   7.257  0.0429 -0.0078  0.0005
    1DIPC   GL1 7191  22.215   9.439   6.846  0.0526  0.0674  0.0683
    1DIPC   GL2 7192  22.429   9.356   6.679 -0.2748 -0.0551  0.2357
    1DIPC   C1A 7193  22.172   9.776   6.450 -0.0464 -0.2404 -0.1006
    1DIPC   D2A 7194  22.466   9.928   6.153  0.3100  0.3303 -0.2746
    1DIPC   D3A 7195  22.068  10.001   5.987 -0.1100 -0.2040 -0.2156
    1DIPC   C4A 7196  22.030   9.906   5.528 -0.1663  0.0132 -0.2208
    1DIPC   C1B 7197  22.450   9.464   6.207 -0.0004  0.1320  0.0806
    1DIPC   D2B 7198  22.423   9.572   5.819  0.2216 -0.3955  0.0820
    1DIPC   D3B 7199  21.996   9.515   5.961 -0.1010  0.1976  0.1673
    1DIPC   C4B 7200  21.917   9.313   6.316 -0.1029 -0.0723  0.0182
    1DIPC   NC3 7201   8.835  25.181   7.431 -0.1512  0.0671 -0.1023
    1DIPC   PO4 7202   8.770  25.027   6.956 -0.1129 -0.2127  0.1124
    1DIPC   GL1 7203   8.900  24.633   6.600  0.0838 -0.1876  0.2243
    1DIPC   GL2 7204   9.176  24.718   6.420  0.0673 -0.0565  0.0646
    1DIPC   C1A 7205   9.109  24.225   6.537  0.1193  0.0993  0.1195
    1DIPC   D2A 7206   9.151  24.083   6.100  0.3338 -0.0140 -0.0145
    1DIPC   D3A 7207   9.486  24.139   5.715 -0.1610 -0.1107  0.0595
    1DIPC   C4A 7208   9.480  23.990   5.338 -0.0913 -0.1220  0.3211
    1DIPC   C1B 7209   8.897  24.688   6.111 -0.0056  0.1807 -0.1184
    1DIPC   D2B 7210   8.899  24.718   5.707 -0.3736 -0.1595  0.3123
    1DIPC   D3B 7211   8.496  24.782   5.849  0.4982 -0.1878 -0.0145
    1DIPC   C4B 7212   8.236  24.630   6.248  0.0442  0.4049  0.3322
    1DIPC   NC3 7213  14.922  10.103   7.992 -0.1517  0.0805 -0.3729
    1DIPC   PO4 7214  14.916  10.102   7.485  0.0451  0.1160 -0.1162
    1DIPC   GL1 7215  14.827  10.273   7.071  0.2128  0.1550  0.2460
    1DIPC   GL2 7216  14.810   9.885   6.953  0.0977 -0.0397  0.1233
    1DIPC   C1A 7217  14.731  10.475   6.604 -0.1948  0.1406  0.0516
    1DIPC   D2A 7218  14.504  10.344   6.158  0.1739 -0.0451 -0.0322
    1DIPC   D3A 7219  14.671  10.675   5.941 -0.1826 -0.1137  0.2246
    1DIPC   C4A 7220  14.404  10.635   5.538  0.3709 -0.0019  0.1198
    1DIPC   C1B 7221  14.626   9.942   6.477 -0.0469  0.2270 -0.0921
    1DIPC   D2B 7222  14.576   9.574   6.191  0.0684  0.1012 -0.0631
    1DIPC   D3B 7223  14.699   9.713   5.784  0.1874  0.1773  0.0306
    1DIPC   C4B 7224  14.754   9.353   5.460  0.0739  0.2176  0.1890
    1DIPC   NC3 7225   7.524  10.690   6.872 -0.0624  0.0865  0.2815
    1DIPC   PO4 7226   7.145  10.350   7.024 -0.0244 -0.0848  0.1443
    1DIPC   GL1 7227   7.083  10.348   6.607  0.2847 -0.1700  0.5004
    1DIPC   GL2 7228   6.866  10.264   6.448  0.1263  0.0957 -0.0043
    1DIPC   C1A 7229   7.171  10.633   6.244 -0.0257 -0.1887  0.1991
    1DIPC   D2A 7230   7.086  10.578   5.797 -0.1640  0.0502  0.1858
    1DIPC   D3A 7231   7.291  10.637   5.415 -0.4939  0.0262 -0.2860
    1DIPC   C4A 7232   7.745  10.714   5.460  0.2748 -0.1509  0.2314
    1DIPC   C1B 7233   7.253  10.173   6.110  0.2126  0.0801  0.0082
    1DIPC   D2B 7234   7.579  10.402   5.796  0.0465  0.2012  0.0955
    1DIPC   D3B 7235   7.386  10.086   5.526 -0.1140 -0.2039 -0.0379
    1DIPC   C4B 7236   7.026  10.126   5.564  0.5476 -0.1518  0.2540
    1DIPC   NC3 7237  18.136   9.524   7.513 -0.3357 -0.2443  0.3599
    1DIPC   PO4 7238  18.421   9.853   7.496 -0.3577  0.0140  0.0165
    1DIPC   GL1 7239  18.482   9.882   7.095  0.0150  0.1355  0.2472
    1DIPC   GL2 7240  18.600  10.205   6.886  0.0475  0.1099 -0.2695
    1DIPC   C1A 7241  18.404   9.837   6.653 -0.0525 -0.1997 -0.0268
    1DIPC   D2A 7242  18.524  10.270   6.349  0.3443  0.1782  0.2843
    1DIPC   D3A 7243  18.368  10.629   6.528 -0.1339  0.0716 -0.0538
    1DIPC   C4A 7244  17.985  10.749   6.432 -0.4469  0.0504 -0.0102
    1DIPC   C1B 7245  18.923  10.026   6.566  0.2356 -0.0340 -0.1332
    1DIPC   D2B 7246  19.136   9.637   6.552  0.0569  0.1011  0.0681
    1DIPC   D3B 7247  19.255   9.401   6.313 -0.0161  0.0291  0.0322
    1DIPC   C4B 7248  19.554   9.411   5.991 -0.1360 -0.0493  0.0593
    1DIPC   NC3 7249  20.209  12.229   7.197  0.1437  0.0599 -0.0730
    1DIPC   PO4 7250  19.822  12.624   7.094 -0.3537 -0.3851 -0.0186
    1DIPC   GL1 7251  19.670  12.696   6.597 -0.5555 -0.1656  0.0305
    1DIPC   GL2 7252  19.830  12.834   6.424  0.1297  0.0229  0.1040
    1DIPC   C1A 7253  19.530  12.476   6.216  0.2268 -0.1918 -0.1318
    1DIPC   D2A 7254  19.347  12.461   5.772  0.0228 -0.1044 -0.1101
    1DIPC   D3A 7255  19.620  11.990   5.764 -0.0811 -0.0678 -0.0355
    1DIPC   C4A 7256  19.408  11.638   5.744  0.0078  0.0309  0.3561
    1DIPC   C1B 7257  19.824  12.827   5.994  0.2067 -0.0953 -0.3636
    1DIPC   D2B 7258  19.537  12.889   5.660 -0.0023 -0.3948 -0.1587
    1DIPC   D3B 7259  19.491  13.082   5.290 -0.0565 -0.2557  0.2097
    1DIPC   C4B 7260  19.667  13.438   5.340 -0.3659  0.5599 -0.2580
    1DIPC   NC3 7261  13.909  21.040   7.406  0.1521 -0.0564 -0.1433
    1DIPC   PO4 7262  13.697  20.874   7.052  0.0097  0.1583 -0.1486
    1DIPC   GL1 7263  13.812  20.896   6.647  0.0192  0.2894 -0.1828
    1DIPC   GL2 7264  14.070  21.072   6.439  0.2253  0.3454  0.2504
    1DIPC   C1A 7265  13.879  20.562   6.291  0.2069 -0.3400 -0.2034
    1DIPC   D2A 7266  14.251  20.283   6.246  0.0820 -0.1316 -0.2111
    1DIPC   D3A 7267  14.303  20.487   5.760  0.0917 -0.0117 -0.2588
    1DIPC   C4A 7268  14.299  20.314   5.320 -0.2560  0.0672 -0.1238
    1DIPC   C1B 7269  14.216  20.933   6.012 -0.1691 -0.0130 -0.3398
    1DIPC   D2B 7270  14.181  20.953   5.547  0.3343 -0.0246 -0.0318
    1DIPC   D3B 7271  14.448  20.847   5.161 -0.0452  0.0960 -0.0907
    1DIPC   C4B 7272  14.831  21.035   5.146  0.0114  0.1932 -0.2513
    1DIPC   NC3 7273   7.657  19.630   7.764 -0.0403 -0.2880 -0.0286
    1DIPC   PO4 7274   7.500  19.433   7.371  0.0210 -0.0987  0.1993
    1DIPC   GL1 7275   7.876  19.341   7.182  0.1210 -0.0601 -0.0768
    1DIPC   GL2 7276   7.879  19.022   7.108 -0.2528 -0.0994  0.1543
    1DIPC   C1A 7277   8.174  19.671   6.914 -0.0034  0.0593 -0.1190
    1DIPC   D2A 7278   8.419  19.928   6.732 -0.0349 -0.2159 -0.0188
    1DIPC   D3A 7279   8.186  19.774   6.358  0.1845 -0.2210 -0.2466
    1DIPC   C4A 7280   8.141  19.993   5.968  0.0762  0.0368  0.0043
    1DIPC   C1B 7281   7.829  19.138   6.685 -0.1726  0.2717 -0.2414
    1DIPC   D2B 7282   7.687  19.451   6.361  0.1607 -0.2169  0.3839
    1DIPC   D3B 7283   7.867  19.601   5.981  0.2174  0.0447 -0.1856
    1DIPC   C4B 7284   8.189  19.569   5.677 -0.1930  0.2990  0.0720
    1DIPC   NC3 7285  13.537  23.394   6.489  0.1345 -0.1044 -0.0940
    1DIPC   PO4 7286  13.281  23.102   6.795 -0.0647  0.1988 -0.2397
    1DIPC   GL1 7287  13.070  23.099   6.439  0.0486 -0.3137  0.5533
    1DIPC   GL2 7288  13.086  23.331   6.217  0.1532 -0.1668 -0.0540
    1DIPC   C1A 7289  12.696  23.009   6.331 -0.2132 -0.0380  0.1539
    1DIPC   D2A 7290  12.407  22.677   6.309 -0.2497  0.1106  0.0057
    1DIPC   D3A 7291  12.038  22.817   6.514  0.0028 -0.0515 -0.1822
    1DIPC   C4A 7292  11.776  22.999   6.131  0.0900  0.1062 -0.0590
    1DIPC   C1B 7293  13.213  23.268   5.826 -0.1989 -0.1500 -0.0060
    1DIPC   D2B 7294  13.389  23.100   5.526  0.2714  0.0474  0.3394
    1DIPC   D3B 7295  13.437  23.581   5.446  0.0137 -0.0367 -0.1176
    1DIPC   C4B 7296  13.520  23.969   5.632 -0.0025 -0.0130 -0.1775
    1DIPC   NC3 7297  18.784  18.901   7.428 -0.1412 -0.0645  0.1053
    1DIPC   PO4 7298  18.637  19.084   7.235 -0.0047  0.2044  0.1803
    1DIPC   GL1 7299  18.854  19.227   6.871 -0.2068 -0.1567 -0.0251
    1DIPC   GL2 7300  18.860  19.541   6.794  0.2522 -0.2410  0.0714
    1DIPC   C1A 7301  18.800  19.248   6.408 -0.0883 -0.0695 -0.1576
    1DIPC   D2A 7302  18.659  18.963   6.108 -0.0854  0.0416  0.2436
    1DIPC   D3A 7303  19.089  18.814   6.137  0.0252 -0.0549 -0.2311
    1DIPC   C4A 7304  19.245  19.128   6.152 -0.0759  0.2645 -0.0124
    1DIPC   C1B 7305  18.707  19.775   6.479 -0.0860  0.0139 -0.0725
    1DIPC   D2B 7306  18.436  20.039   6.116  0.0729  0.1082 -0.1741
    1DIPC   D3B 7307  18.571  19.880   5.780 -0.0717  0.2280 -0.2661
    1DIPC   C4B 7308  18.612  19.729   5.412 -0.2256  0.2009  0.2017
    1DIPC   NC3 7309  27.091   1.124   6.744 -0.0735  0.2777 -0.0384
    1DIPC   PO4 7310  27.166   0.741   6.881  0.0694 -0.0839  0.3618
    1DIPC   GL1 7311  26.846   0.706   6.598  0.2872  0.1523 -0.0985
    1DIPC   GL2 7312  26.603   0.492   6.634 -0.1736  0.2200  0.4260
    1DIPC   C1A 7313  26.748   0.677   6.192 -0.4169  0.1068  0.1616
    1DIPC   D2A 7314  26.851   0.780   5.831 -0.0746  0.1429  0.1465
    1DIPC   D3A 7315  27.248   0.595   5.755 -0.0035  0.1503  0.0615
    1DIPC   C4A 7316  27.617   0.516   5.972  0.0024  0.1173 -0.0135
    1DIPC   C1B 7317  26.558   0.233   6.262  0.0608 -0.0166 -0.1052
    1DIPC   D2B 7318  26.838   0.269   5.857  0.1771  0.0960  0.0091
    1DIPC   D3B 7319  26.921   0.085   5.407 -0.3047 -0.2510 -0.2542
    1DIPC   C4B 7320  26.877  27.805   5.299 -0.0182 -0.0811 -0.1334
    1DIPC   NC3 7321  19.834  21.707   7.234  0.1899  0.0509 -0.2663
    1DIPC   PO4 7322  20.227  21.695   7.002  0.0402 -0.1048  0.0329
    1DIPC   GL1 7323  20.305  21.528   6.632  0.0878 -0.1414 -0.0170
    1DIPC   GL2 7324  19.961  21.419   6.697 -0.0082 -0.1014 -0.2152
    1DIPC   C1A 7325  20.321  21.106   6.479 -0.3106  0.1522 -0.1253
    1DIPC   D2A 7326  20.311  20.663   6.271  0.5049  0.0393 -0.1578
    1DIPC   D3A 7327  20.354  20.857   5.860 -0.1295 -0.2317 -0.1685
    1DIPC   C4A 7328  20.183  20.687   5.513 -0.0038 -0.0297  0.0730
    1DIPC   C1B 7329  19.772  21.526   6.359  0.2797 -0.3069  0.0742
    1DIPC   D2B 7330  19.568  21.292   6.076 -0.0825  0.1213 -0.1256
    1DIPC   D3B 7331  19.533  21.002   5.743  0.1171 -0.1999  0.1399
    1DIPC   C4B 7332  19.695  20.601   5.811 -0.3630  0.0985 -0.1872
    1DIPC   NC3 7333  25.414  15.684   7.310 -0.1111  0.0862 -0.2025
    1DIPC   PO4 7334  25.690  15.545   6.895 -0.2205 -0.1250 -0.0258
    1DIPC   GL1 7335  25.448  15.626   6.520 -0.0699 -0.0324  0.1052
    1DIPC   GL2 7336  25.456  15.493   6.143  0.1766  0.1059  0.1356
    1DIPC   C1A 7337  25.028  15.602   6.431 -0.0978  0.4662 -0.1891
    1DIPC   D2A 7338  24.779  15.311   6.302 -0.1745  0.0066  0.2711
    1DIPC   D3A 7339  24.908  15.302   5.847 -0.1821 -0.3531 -0.0459
    1DIPC   C4A 7340  24.612  15.036   5.691 -0.0790  0.1289  0.0082
    1DIPC   C1B 7341  25.055  15.778   5.965 -0.1803  0.1737  0.0166
    1DIPC   D2B 7342  25.095  15.781   5.606 -0.1089  0.1356 -0.2764
    1DIPC   D3B 7343  25.015  15.561   5.223 -0.1621 -0.0527  0.0495
    1DIPC   C4B 7344  25.095  15.140   5.269 -0.5292 -0.0317 -0.0039
    1DIPC   NC3 7345  25.553  16.938   6.978  0.0584 -0.0107  0.2065
    1DIPC   PO4 7346  25.777  16.655   6.696 -0.1111 -0.0273  0.3008
    1DIPC   GL1 7347  25.645  16.739   6.356  0.0276 -0.1265 -0.3964
    1DIPC   GL2 7348  25.563  16.422   6.233  0.0245 -0.1948 -0.1035
    1DIPC   C1A 7349  25.505  16.984   6.016 -0.2126  0.1325  0.1231
    1DIPC   D2A 7350  25.241  17.107   5.751 -0.1256  0.1490 -0.1304
    1DIPC   D3A 7351  25.570  16.859   5.497  0.2487 -0.2017  0.0688
    1DIPC   C4A 7352  25.920  16.840   5.219  0.1189 -0.1677  0.0149
    1DIPC   C1B 7353  25.734  16.489   5.820 -0.1579  0.0146 -0.1069
    1DIPC   D2B 7354  25.934  16.488   5.575 -0.1574 -0.0866  0.0646
    1DIPC   D3B 7355  26.094  16.885   5.746  0.0280  0.1866  0.2307
    1DIPC   C4B 7356  26.066  17.064   6.038  0.0617  0.1675 -0.2257
    1DIPC   NC3 7357  16.437  25.556   7.349  0.1596  0.2923  0.0193
    1DIPC   PO4 7358  16.897  25.557   7.233  0.0264  0.2528  0.1327
    1DIPC   GL1 7359  16.925  25.481   6.847  0.1071 -0.1955  0.2984
    1DIPC   GL2 7360  17.166  25.400   6.682  0.1861  0.1582  0.3478
    1DIPC   C1A 7361  16.689  25.484   6.445  0.0078  0.3322  0.2025
    1DIPC   D2A 7362  16.333  25.804   6.328 -0.4489  0.1552  0.0716
    1DIPC   D3A 7363  16.553  26.109   6.203  0.0325  0.0060 -0.1211
    1DIPC   C4A 7364  16.486  26.525   6.088 -0.0072 -0.2765 -0.0267
    1DIPC   C1B 7365  17.341  25.283   6.240  0.1196 -0.1902 -0.0557
    1DIPC   D2B 7366  17.192  25.157   5.848  0.1535 -0.1049 -0.3614
    1DIPC   D3B 7367  16.915  25.381   5.523  0.1884 -0.1069 -0.0271
    1DIPC   C4B 7368  16.852  25.867   5.335 -0.1193  0.0223 -0.1600
    1DIPC   NC3 7369  13.974   5.635   7.837  0.2832  0.3091  0.1429
    1DIPC   PO4 7370  13.613   5.984   7.872 -0.3471  0.2887  0.5836
    1DIPC   GL1 7371  13.609   5.895   7.457 -0.1190 -0.0740  0.0623
    1DIPC   GL2 7372  13.576   5.685   7.305  0.0971  0.4536  0.0216
    1DIPC   C1A 7373  13.605   6.184   7.049  0.0391 -0.2059  0.2040
    1DIPC   D2A 7374  13.871   6.165   6.678 -0.0394 -0.0749 -0.3510
    1DIPC   D3A 7375  13.840   6.111   6.238 -0.0720  0.2231 -0.0736
    1DIPC   C4A 7376  13.864   5.684   5.969 -0.1309 -0.2113 -0.0588
    1DIPC   C1B 7377  13.815   5.568   6.976  0.0781  0.0277 -0.0664
    1DIPC   D2B 7378  14.126   5.300   7.005 -0.0657 -0.0298  0.2168
    1DIPC   D3B 7379  13.903   5.031   6.721  0.2696  0.0329  0.0203
    1DIPC   C4B 7380  13.473   5.138   6.663 -0.0167 -0.3111  0.0156
    1DIPC   NC3 7381  23.073  20.233   7.610 -0.0962  0.3942  0.1754
    1DIPC   PO4 7382  22.982  20.268   7.201 -0.0643 -0.0044  0.3191
    1DIPC   GL1 7383  22.781  20.361   6.868 -0.4439 -0.1986 -0.0053
    1DIPC   GL2 7384  22.625  20.721   6.912  0.0426  0.0622  0.2236
    1DIPC   C1A 7385  22.747  20.251   6.405  0.1733  0.1288  0.1521
    1DIPC   D2A 7386  22.914  20.005   6.065 -0.1936  0.2795  0.1857
    1DIPC   D3A 7387  22.433  19.867   6.047  0.1685  0.0699 -0.0897
    1DIPC   C4A 7388  21.973  19.869   5.933  0.2231 -0.0734  0.0582
    1DIPC   C1B 7389  22.491  20.733   6.537  0.4749  0.0779  0.0992
    1DIPC   D2B 7390  22.180  20.891   6.163 -0.0644 -0.0316  0.1306
    1DIPC   D3B 7391  22.528  20.599   6.012 -0.2939  0.2348  0.0275
    1DIPC   C4B 7392  22.399  20.229   5.683  0.2195  0.0642  0.2719
    1DIPC   NC3 7393   2.641   9.335   6.396  0.2821  0.1686 -0.1722
    1DIPC   PO4 7394   2.792   9.058   6.416 -0.2280 -0.4524 -0.2029
    1DIPC   GL1 7395   3.022   9.197   6.046  0.1669 -0.1252  0.1822
    1DIPC   GL2 7396   3.032   8.994   5.919  0.0183  0.0749  0.1364
    1DIPC   C1A 7397   2.951   9.340   5.596 -0.1735 -0.1840  0.0522
    1DIPC   D2A 7398   2.819   9.473   5.190  0.0499  0.0481  0.0260
    1DIPC   D3A 7399   2.576   9.621   5.523 -0.1871  0.0675  0.0663
    1DIPC   C4A 7400   2.305  10.034   5.437 -0.2333 -0.0351  0.0111
    1DIPC   C1B 7401   3.350   8.873   5.621  0.0613 -0.1241  0.0889
    1DIPC   D2B 7402   3.557   8.662   5.358  0.2554  0.1548  0.4103
    1DIPC   D3B 7403   3.169   8.607   5.172  0.0719  0.3204  0.3816
    1DIPC   C4B 7404   2.844   8.924   5.082 -0.0133  0.1535 -0.0275
    1DIPC   NC3 7405  11.324  11.170   7.713  0.1909  0.1761 -0.0375
    1DIPC   PO4 7406  11.121  11.525   7.474  0.1966 -0.2056 -0.0509
    1DIPC   GL1 7407  10.837  11.663   7.236 -0.2813  0.0789  0.0406
    1DIPC   GL2 7408  10.901  11.804   6.953 -0.2936 -0.1406 -0.2491
    1DIPC   C1A 7409  10.457  11.963   7.022  0.1614  0.0502 -0.3152
    1DIPC   D2A 7410  10.212  12.234   7.152  0.1936 -0.1638  0.1221
    1DIPC   D3A 7411  10.265  12.264   6.670  0.1662 -0.0252  0.1682
    1DIPC   C4A 7412  10.611  12.020   6.547 -0.2539  0.1241 -0.0995
    1DIPC   C1B 7413  10.905  11.501   6.616 -0.2941 -0.2292  0.1909
    1DIPC   D2B 7414  10.909  11.089   6.208 -0.3197 -0.2929 -0.1944
    1DIPC   D3B 7415  10.984  11.480   5.977 -0.1494  0.1182  0.2785
    1DIPC   C4B 7416  10.901  11.802   5.944  0.0939 -0.0470 -0.0156
    1DIPC   NC3 7417   0.993  22.183   6.907 -0.1712 -0.3021 -0.0354
    1DIPC   PO4 7418   1.318  22.169   6.501 -0.0605 -0.0200 -0.0044
    1DIPC   GL1 7419   1.167  22.464   6.230  0.0816 -0.1040 -0.3083
    1DIPC   GL2 7420   1.020  22.709   5.904 -0.1354  0.0847 -0.2532
    1DIPC   C1A 7421   1.432  22.402   5.770  0.2139  0.1917  0.1087
    1DIPC   D2A 7422   1.612  22.338   5.319  0.2432  0.1412 -0.2101
    1DIPC   D3A 7423   1.698  21.887   5.568 -0.3037  0.0136 -0.0825
    1DIPC   C4A 7424   1.528  21.487   5.466 -0.0964  0.1419  0.0639
    1DIPC   C1B 7425   0.877  22.268   5.812 -0.4002  0.4181  0.0923
    1DIPC   D2B 7426   1.226  21.945   5.746 -0.4317  0.5094 -0.0477
    1DIPC   D3B 7427   1.170  22.153   5.351  0.1320 -0.0607 -0.0113
    1DIPC   C4B 7428   1.107  22.591   5.376 -0.0084  0.1019 -0.1728
    1DIPC   NC3 7429  18.572  14.187   8.217  0.1099  0.2255 -0.1762
    1DIPC   PO4 7430  18.567  14.391   7.798  0.1824 -0.0164 -0.0486
    1DIPC   GL1 7431  18.425  14.591   7.416  0.2080  0.3152 -0.2781
    1DIPC   GL2 7432  18.091  14.541   7.274  0.1372  0.0034 -0.3047
    1DIPC   C1A 7433  18.533  14.807   7.160 -0.1005 -0.1711  0.1563
    1DIPC   D2A 7434  18.793  15.126   6.923  0.0649  0.3034  0.1266
    1DIPC   D3A 7435  18.687  15.242   6.511  0.0157 -0.0993 -0.2638
    1DIPC   C4A 7436  18.751  14.863   6.220  0.2674 -0.0043  0.0467
    1DIPC   C1B 7437  18.158  14.675   6.806  0.0548  0.2785  0.0331
    1DIPC   D2B 7438  18.353  14.899   6.492  0.0311 -0.2124  0.2179
    1DIPC   D3B 7439  18.269  15.103   6.156  0.0573 -0.3069  0.1401
    1DIPC   C4B 7440  18.512  15.439   6.033 -0.2912  0.3741  0.3071
    1DIPC   NC3 7441   9.204  20.203   7.353  0.3080 -0.1028  0.0061
    1DIPC   PO4 7442   9.635  20.278   7.341  0.0215 -0.0823  0.3517
    1DIPC   GL1 7443   9.555  20.415   6.979 -0.2812  0.0678 -0.0117
    1DIPC   GL2 7444   9.250  20.490   6.935  0.0679  0.2503 -0.1323
    1DIPC   C1A 7445   9.619  20.715   6.691  0.1871 -0.1316  0.0380
    1DIPC   D2A 7446   9.795  20.698   6.248 -0.0128  0.1087 -0.1389
    1DIPC   D3A 7447   9.788  20.232   6.077  0.1860  0.1269  0.0319
    1DIPC   C4A 7448   9.944  20.115   5.667  0.0693 -0.1073  0.1597
    1DIPC   C1B 7449   9.236  20.239   6.603  0.1490  0.0806 -0.1154
    1DIPC   D2B 7450   9.155  20.364   6.215 -0.3194 -0.1496 -0.2566
    1DIPC   D3B 7451   8.793  20.326   6.094  0.0548 -0.1740  0.0879
    1DIPC   C4B 7452   8.699  20.136   5.672  0.1394  0.0600  0.0464
    1DIPC   NC3 7453  24.017  18.090   7.108 -0.0110 -0.1136  0.0936
    1DIPC   PO4 7454  23.540  18.087   6.989  0.3071  0.2449 -0.1550
    1DIPC   GL1 7455  23.428  18.002   6.596  0.3052  0.2119  0.2215
    1DIPC   GL2 7456  23.266  18.307   6.590 -0.1949  0.0192  0.0938
    1DIPC   C1A 7457  23.572  17.767   6.217 -0.0101 -0.0774  0.0553
    1DIPC   D2A 7458  23.575  17.581   5.876 -0.0981  0.1323 -0.3545
    1DIPC   D3A 7459  23.449  17.820   5.506 -0.1540 -0.0802  0.0316
    1DIPC   C4A 7460  23.721  17.741   5.199 -0.0934 -0.1155 -0.0057
    1DIPC   C1B 7461  23.134  18.299   6.100 -0.0825  0.0431 -0.2171
    1DIPC   D2B 7462  23.054  18.177   5.726 -0.0621  0.1626 -0.0328
    1DIPC   D3B 7463  22.731  18.500   5.873 -0.1026 -0.1583  0.0639
    1DIPC   C4B 7464  22.972  18.758   6.087 -0.1003  0.0796 -0.2898
    1DIPC   NC3 7465   2.887  17.228   6.571 -0.0338 -0.1056 -0.1204
    1DIPC   PO4 7466   2.488  17.020   6.637  0.3748 -0.1897 -0.3047
    1DIPC   GL1 7467   2.755  16.769   6.373  0.0389  0.0819 -0.3320
    1DIPC   GL2 7468   2.957  16.991   6.089 -0.0124 -0.0464  0.0879
    1DIPC   C1A 7469   2.948  16.485   6.264 -0.3334  0.4481  0.1652
    1DIPC   D2A 7470   3.209  16.370   6.057  0.2853  0.4096  0.3477
    1DIPC   D3A 7471   3.418  16.015   6.296  0.3008  0.1910 -0.0152
    1DIPC   C4A 7472   3.704  15.806   6.149  0.2247 -0.2102 -0.0199
    1DIPC   C1B 7473   2.895  16.807   5.836  0.0878 -0.1275  0.0808
    1DIPC   D2B 7474   3.014  16.835   5.377  0.0919 -0.3301 -0.0282
    1DIPC   D3B 7475   2.953  17.195   5.456  0.2621 -0.2832  0.1764
    1DIPC   C4B 7476   2.841  17.336   5.674  0.0779 -0.1036  0.1322
    1DIPC   NC3 7477  19.696  11.475   7.051  0.1725 -0.1379 -0.1159
    1DIPC   PO4 7478  20.039  11.704   6.727  0.2933  0.2774  0.1209
    1DIPC   GL1 7479  19.987  12.034   6.469 -0.2186 -0.2078  0.1766
    1DIPC   GL2 7480  19.960  11.783   6.190 -0.0417 -0.0419  0.0060
    1DIPC   C1A 7481  19.944  12.273   6.101 -0.0552  0.0812 -0.0477
    1DIPC   D2A 7482  19.848  12.448   5.715 -0.2057  0.1159 -0.3972
    1DIPC   D3A 7483  20.194  12.346   5.485  0.3856  0.0579 -0.0205
    1DIPC   C4A 7484  20.188  12.626   5.079 -0.4439  0.4310 -0.0240
    1DIPC   C1B 7485  19.494  11.959   6.252  0.2579 -0.2087  0.2665
    1DIPC   D2B 7486  19.145  12.149   6.135 -0.1383 -0.0946  0.1250
    1DIPC   D3B 7487  19.016  12.418   6.432  0.1218  0.0225  0.0883
    1DIPC   C4B 7488  18.982  12.864   6.464  0.1700  0.2372 -0.3388
    1DIPC   NC3 7489   3.115  14.794   6.515  0.0281 -0.1479  0.0275
    1DIPC   PO4 7490   3.485  14.576   6.605 -0.0545  0.0770  0.2661
    1DIPC   GL1 7491   3.408  14.384   6.240  0.0496 -0.0149 -0.1899
    1DIPC   GL2 7492   3.051  14.457   6.128 -0.1653  0.2213  0.0972
    1DIPC   C1A 7493   3.351  13.978   6.041 -0.0326  0.2317 -0.1139
    1DIPC   D2A 7494   3.621  13.534   5.891  0.1445 -0.0461  0.1533
    1DIPC   D3A 7495   3.813  13.662   5.550  0.2316 -0.1116  0.6068
    1DIPC   C4A 7496   3.805  13.467   5.069 -0.0424 -0.0124 -0.0629
    1DIPC   C1B 7497   3.105  14.241   5.705  0.0158 -0.0293 -0.0792
    1DIPC   D2B 7498   3.447  14.093   5.475 -0.1117 -0.1009 -0.0487
    1DIPC   D3B 7499   3.849  14.191   5.397 -0.1930  0.2060  0.3548
    1DIPC   C4B 7500   4.163  13.955   5.368 -0.0748  0.0925 -0.0890
    1DIPC   NC3 7501  17.405   2.637   7.623  0.3255  0.2127 -0.2342
    1DIPC   PO4 7502  17.140   2.206   7.628 -0.0477  0.0742 -0.1456
    1DIPC   GL1 7503  17.156   2.355   7.187 -0.0440  0.0487 -0.0580
    1DIPC   GL2 7504  17.037   2.140   7.039  0.1109 -0.1269  0.0774
    1DIPC   C1A 7505  17.013   2.637   6.912  0.3575  0.1846  0.3060
    1DIPC   D2A 7506  16.540   2.835   7.036  0.1670 -0.0917  0.0417
    1DIPC   D3A 7507  16.285   2.887   6.708 -0.1364 -0.1468  0.1552
    1DIPC   C4A 7508  16.455   2.894   6.212  0.2280  0.1452  0.0719
    1DIPC   C1B 7509  16.882   2.002   6.689 -0.0647  0.1558 -0.2389
    1DIPC   D2B 7510  17.015   1.559   6.576  0.3434 -0.0830 -0.4294
    1DIPC   D3B 7511  16.949   1.547   6.072  0.2310  0.3600 -0.0333
    1DIPC   C4B 7512  16.482   1.441   5.937 -0.2470  0.2667 -0.0883
    1DIPC   NC3 7513  11.155   3.114   7.942  0.2422  0.3609 -0.0514
    1DIPC   PO4 7514  11.368   3.219   7.620 -0.2876 -0.0428  0.0789
    1DIPC   GL1 7515  11.481   3.263   7.173  0.1886  0.2513  0.3792
    1DIPC   GL2 7516  11.412   2.989   7.033  0.1380  0.4223  0.1540
    1DIPC   C1A 7517  11.877   3.295   6.881  0.0203  0.0675 -0.0482
    1DIPC   D2A 7518  12.165   3.440   6.661  0.2243  0.0008 -0.0710
    1DIPC   D3A 7519  12.203   3.356   6.234  0.1525  0.2436  0.1743
    1DIPC   C4A 7520  12.333   2.979   6.107 -0.2389  0.1572  0.2541
    1DIPC   C1B 7521  11.365   3.308   6.740  0.0397 -0.0117  0.2537
    1DIPC   D2B 7522  11.160   3.591   6.475  0.0544  0.0023  0.2635
    1DIPC   D3B 7523  11.334   3.280   6.231  0.2845 -0.0107  0.3395
    1DIPC   C4B 7524  11.402   3.373   5.803 -0.0150 -0.0892 -0.3059
    1DIPC   NC3 7525   7.738   4.583   7.319  0.2138  0.0566 -0.0790
    1DIPC   PO4 7526   8.151   4.820   7.060 -0.0822  0.4659  0.0855
    1DIPC   GL1 7527   8.160   4.693   6.716 -0.3823 -0.2466  0.0766
    1DIPC   GL2 7528   8.108   4.904   6.453 -0.1870 -0.1023  0.2430
    1DIPC   C1A 7529   8.088   4.366   6.436 -0.0500  0.0908 -0.0662
    1DIPC   D2A 7530   8.097   3.918   6.282 -0.1298  0.0356 -0.1688
    1DIPC   D3A 7531   8.413   3.717   6.494 -0.1819  0.0268 -0.1368
    1DIPC   C4A 7532   8.576   3.399   6.436 -0.2139  0.0954 -0.0117
    1DIPC   C1B 7533   8.249   4.966   6.045 -0.3519 -0.0862  0.1064
    1DIPC   D2B 7534   8.243   5.060   5.564 -0.1481 -0.1183 -0.0664
    1DIPC   D3B 7535   8.654   5.050   5.491  0.1869 -0.0361  0.2158
    1DIPC   C4B 7536   8.587   5.421   5.217  0.0273  0.1934  0.0119
    1DIPC   NC3 7537  20.680  18.007   7.161 -0.0453 -0.0893  0.2820
    1DIPC   PO4 7538  20.816  18.382   7.055  0.0135  0.2397  0.0063
    1DIPC   GL1 7539  20.983  18.744   6.805  0.0798  0.4322 -0.3729
    1DIPC   GL2 7540  21.315  18.592   6.639  0.1831  0.2756  0.1340
    1DIPC   C1A 7541  21.054  18.894   6.311  0.1360 -0.1645  0.0379
    1DIPC   D2A 7542  21.075  19.192   5.962 -0.1376  0.3425  0.0154
    1DIPC   D3A 7543  20.929  18.797   5.768 -0.1655  0.1632 -0.0599
    1DIPC   C4A 7544  20.606  18.740   5.478  0.1478 -0.2061  0.1498
    1DIPC   C1B 7545  21.649  18.408   6.571 -0.1470  0.1062 -0.1755
    1DIPC   D2B 7546  22.021  18.619   6.382 -0.0478 -0.2599  0.1222
    1DIPC   D3B 7547  21.793  18.421   6.102 -0.0161 -0.1234  0.1766
    1DIPC   C4B 7548  21.912  18.214   5.783  0.1394 -0.1623  0.0464
    1DIPC   NC3 7549  21.037  24.796   7.180  0.2441  0.2765 -0.0939
    1DIPC   PO4 7550  20.705  24.472   7.469  0.0116 -0.0259  0.0284
    1DIPC   GL1 7551  20.623  24.429   6.985 -0.4444  0.1903 -0.1529
    1DIPC   GL2 7552  20.612  24.766   6.819 -0.3338  0.4690 -0.3372
    1DIPC   C1A 7553  20.708  24.344   6.560 -0.2664  0.0336  0.1720
    1DIPC   D2A 7554  20.771  24.425   6.220 -0.1187 -0.2880  0.0520
    1DIPC   D3A 7555  20.482  24.221   6.108 -0.0387  0.1030  0.0140
    1DIPC   C4A 7556  20.249  24.246   6.433 -0.3374 -0.1032 -0.4474
    1DIPC   C1B 7557  20.601  24.960   6.466  0.2866  0.1803  0.1226
    1DIPC   D2B 7558  20.393  24.762   6.129  0.2710 -0.0021 -0.2593
    1DIPC   D3B 7559  20.675  24.829   5.883 -0.1547 -0.1794 -0.1564
    1DIPC   C4B 7560  20.527  24.745   5.385  0.2484 -0.1045 -0.1341
    1DIPC   NC3 7561   5.455   4.553   6.162  0.2607 -0.0382 -0.2089
    1DIPC   PO4 7562   5.130   4.723   6.132  0.1832  0.0876 -0.0437
    1DIPC   GL1 7563   5.273   4.954   5.804 -0.0275 -0.2377 -0.1636
    1DIPC   GL2 7564   5.524   4.771   5.729  0.0578 -0.2418  0.1085
    1DIPC   C1A 7565   5.335   5.135   5.417 -0.3696  0.1024 -0.0883
    1DIPC   D2A 7566   5.481   5.250   5.066  0.2856  0.0056 -0.1525
    1DIPC   D3A 7567   5.455   5.291   4.685 -0.1893  0.1526 -0.1440
    1DIPC   C4A 7568   5.558   5.694   4.446  0.1376  0.1004  0.1703
    1DIPC   C1B 7569   5.753   4.825   5.366  0.1290  0.2886 -0.0225
    1DIPC   D2B 7570   5.811   4.911   4.866  0.0241  0.0455 -0.1951
    1DIPC   D3B 7571   5.992   5.268   4.537  0.1298 -0.1497  0.1774
    1DIPC   C4B 7572   6.363   5.402   4.585  0.0536 -0.0612  0.1914
    1DIPC   NC3 7573   7.084  18.533   7.467  0.2189  0.0190  0.1214
    1DIPC   PO4 7574   6.655  18.700   7.493  0.1854  0.1832  0.0463
    1DIPC   GL1 7575   6.737  18.716   7.037  0.2680  0.0768 -0.0079
    1DIPC   GL2 7576   6.774  19.004   6.981  0.1099 -0.0846  0.4754
    1DIPC   C1A 7577   6.478  18.520   6.718  0.0380  0.2725 -0.2164
    1DIPC   D2A 7578   6.338  18.688   6.329  0.2444  0.0469  0.2792
    1DIPC   D3A 7579   6.202  18.638   5.823 -0.4553 -0.0119 -0.0359
    1DIPC   C4A 7580   6.347  18.279   5.585  0.0479  0.0003 -0.1961
    1DIPC   C1B 7581   6.904  18.815   6.533  0.2735 -0.1192 -0.1858
    1DIPC   D2B 7582   6.801  19.084   6.115 -0.1565  0.0320 -0.0822
    1DIPC   D3B 7583   7.012  19.163   5.733 -0.1145 -0.1333 -0.0511
    1DIPC   C4B 7584   7.124  18.833   5.488  0.1701 -0.2472  0.2392
    1DIPC   NC3 7585  17.404  26.531   7.100  0.1419  0.0062 -0.1146
    1DIPC   PO4 7586  17.580  26.087   7.192  0.1825 -0.0247 -0.0635
    1DIPC   GL1 7587  17.585  26.154   6.761 -0.1463 -0.1556 -0.0082
    1DIPC   GL2 7588  17.242  26.395   6.648 -0.2523  0.1289 -0.1035
    1DIPC   C1A 7589  17.667  26.133   6.276 -0.0675 -0.1113 -0.2206
    1DIPC   D2A 7590  17.357  26.103   6.016 -0.1606 -0.0240  0.0387
    1DIPC   D3A 7591  16.927  26.172   5.873  0.0251 -0.2914  0.2297
    1DIPC   C4A 7592  16.568  26.154   5.642 -0.0040 -0.2361  0.0851
    1DIPC   C1B 7593  16.833  26.596   6.437  0.3907 -0.2871 -0.0014
    1DIPC   D2B 7594  16.511  26.765   6.631 -0.2435  0.2796 -0.0488
    1DIPC   D3B 7595  16.397  26.354   6.615  0.0734 -0.0838 -0.2714
    1DIPC   C4B 7596  16.025  26.234   6.335  0.1658  0.1880 -0.2988
    1DIPC   NC3 7597  20.973  12.253   7.116 -0.0139 -0.0121  0.1046
    1DIPC   PO4 7598  21.010  12.044   6.762 -0.0962 -0.2606 -0.1670
    1DIPC   GL1 7599  20.895  12.167   6.385  0.0152 -0.1182  0.0256
    1DIPC   GL2 7600  20.958  12.362   6.151 -0.2749  0.1595 -0.0733
    1DIPC   C1A 7601  20.848  11.869   6.163 -0.0175  0.2090  0.0034
    1DIPC   D2A 7602  20.820  11.830   5.703 -0.1360 -0.2494  0.3773
    1DIPC   D3A 7603  20.465  11.594   5.534  0.3133  0.1518 -0.0083
    1DIPC   C4A 7604  20.219  11.717   5.088 -0.0445  0.0389  0.1795
    1DIPC   C1B 7605  20.867  12.331   5.685 -0.0609  0.0362  0.0203
    1DIPC   D2B 7606  21.070  12.128   5.320  0.0940  0.0872 -0.0496
    1DIPC   D3B 7607  21.148  12.011   4.898 -0.0611 -0.0614 -0.2246
    1DIPC   C4B 7608  21.394  12.420   4.946  0.1959  0.0917  0.1718
    1DIPC   NC3 7609  17.882  12.601   7.764  0.0743  0.1471 -0.0688
    1DIPC   PO4 7610  17.919  12.337   7.384 -0.2115  0.1833  0.2463
    1DIPC   GL1 7611  17.618  12.309   6.978 -0.0331  0.1160  0.3918
    1DIPC   GL2 7612  17.566  11.952   7.080  0.0911 -0.2925 -0.0644
    1DIPC   C1A 7613  17.505  12.496   6.680 -0.0237 -0.0153  0.1206
    1DIPC   D2A 7614  17.540  12.865   6.470  0.2587  0.0506  0.2275
    1DIPC   D3A 7615  17.322  12.575   6.150  0.1511 -0.2031 -0.1741
    1DIPC   C4A 7616  16.988  12.374   5.991  0.0615  0.1592 -0.1875
    1DIPC   C1B 7617  17.741  12.014   6.592  0.3929 -0.0733  0.0371
    1DIPC   D2B 7618  18.210  12.181   6.468 -0.3657  0.2314 -0.1990
    1DIPC   D3B 7619  18.222  12.217   6.049  0.3176  0.0833  0.1306
    1DIPC   C4B 7620  18.121  12.620   5.955  0.0855  0.2579 -0.0207
    1DIPC   NC3 7621  14.526   9.811   7.447 -0.0631  0.2269  0.2218
    1DIPC   PO4 7622  14.400  10.065   7.729 -0.0468 -0.0100  0.1044
    1DIPC   GL1 7623  14.421  10.253   7.333 -0.0525 -0.0491  0.0511
    1DIPC   GL2 7624  14.294  10.007   7.068  0.0461 -0.0125  0.0421
    1DIPC   C1A 7625  14.325  10.495   7.004 -0.0826 -0.1243 -0.1128
    1DIPC   D2A 7626  14.343  10.919   6.860  0.3622  0.0073  0.1489
    1DIPC   D3A 7627  14.739  11.060   6.630  0.2800  0.0329  0.1344
    1DIPC   C4A 7628  14.970  10.850   6.281 -0.0181 -0.1377 -0.1756
    1DIPC   C1B 7629  14.023  10.112   6.805  0.3573  0.1270 -0.0343
    1DIPC   D2B 7630  13.719  10.206   6.465  0.0319 -0.0482 -0.0448
    1DIPC   D3B 7631  13.940  10.195   6.056 -0.2202  0.1749 -0.2299
    1DIPC   C4B 7632  14.279   9.886   5.973 -0.1175  0.3036  0.0701
    1DIPC   NC3 7633  11.183   1.172   7.042 -0.0360 -0.1015  0.0928
    1DIPC   PO4 7634  11.584   1.075   7.113 -0.0044 -0.1832  0.0436
    1DIPC   GL1 7635  11.653   1.120   6.753  0.2093  0.2052  0.1486
    1DIPC   GL2 7636  11.481   1.375   6.655  0.3968  0.0300 -0.1756
    1DIPC   C1A 7637  11.391   0.852   6.364  0.1898 -0.0380  0.0705
    1DIPC   D2A 7638  11.512   0.457   6.148  0.1370 -0.0986  0.0279
    1DIPC   D3A 7639  11.796   0.664   5.894  0.0234  0.1756 -0.0493
    1DIPC   C4A 7640  12.226   0.590   5.690 -0.0395 -0.2614  0.0344
    1DIPC   C1B 7641  11.603   1.394   6.161 -0.0494  0.0188 -0.3232
    1DIPC   D2B 7642  11.716   1.225   5.778 -0.1343 -0.1007  0.1191
    1DIPC   D3B 7643  12.190   1.247   5.688 -0.1704 -0.5025  0.1294
    1DIPC   C4B 7644  12.309   1.421   5.204 -0.0148  0.2309  0.3833
    1DIPC   NC3 7645  16.402  26.579   7.149  0.0906 -0.2731  0.0992
    1DIPC   PO4 7646  16.166  26.148   7.097 -0.2540 -0.2342 -0.1212
    1DIPC   GL1 7647  15.972  26.419   6.847  0.5226 -0.0554 -0.0171
    1DIPC   GL2 7648  15.691  26.289   6.660  0.1294  0.1448  0.0648
    1DIPC   C1A 7649  16.043  26.724   6.498  0.2754 -0.0744 -0.0570
    1DIPC   D2A 7650  15.987  26.702   6.109 -0.0306  0.0081  0.3010
    1DIPC   D3A 7651  16.104  26.386   5.817  0.1990  0.3471 -0.2497
    1DIPC   C4A 7652  15.909  26.053   5.793 -0.0638  0.0293 -0.2978
    1DIPC   C1B 7653  15.551  26.363   6.202 -0.2706 -0.0640 -0.0424
    1DIPC   D2B 7654  15.627  26.498   5.870 -0.0252 -0.0198 -0.0532
    1DIPC   D3B 7655  15.874  26.473   5.409 -0.0960  0.1829  0.1012
    1DIPC   C4B 7656  16.326  26.429   5.306  0.1309  0.2523  0.0306
    1DIPC   NC3 7657  14.452  23.175   6.597 -0.2310 -0.0221  0.2211
    1DIPC   PO4 7658  14.059  23.487   6.579 -0.1462  0.3030  0.1057
    1DIPC   GL1 7659  14.028  23.254   6.252  0.1385 -0.3698  0.0826
    1DIPC   GL2 7660  14.055  22.911   6.252 -0.0051  0.1873 -0.1919
    1DIPC   C1A 7661  14.187  23.257   5.907  0.2131 -0.1729 -0.0951
    1DIPC   D2A 7662  14.678  23.202   5.692 -0.1886  0.0120  0.0412
    1DIPC   D3A 7663  14.978  23.453   5.740  0.0288  0.2069  0.0647
    1DIPC   C4A 7664  14.944  23.828   5.833  0.0513  0.3323  0.0545
    1DIPC   C1B 7665  13.960  22.545   6.062 -0.0213  0.1628  0.0337
    1DIPC   D2B 7666  13.653  22.509   5.681  0.1745  0.0794  0.0809
    1DIPC   D3B 7667  13.780  22.741   5.318 -0.1135  0.1011 -0.0256
    1DIPC   C4B 7668  13.588  22.800   4.934 -0.0673 -0.1124 -0.1371
    1DIPC   NC3 7669  20.310  20.032   7.897 -0.1816 -0.3593 -0.1829
    1DIPC   PO4 7670  20.634  20.069   7.632  0.0166  0.1870 -0.0643
    1DIPC   GL1 7671  20.657  19.875   7.213  0.0402 -0.1505  0.0997
    1DIPC   GL2 7672  20.987  19.630   7.006 -0.2360  0.0321 -0.1480
    1DIPC   C1A 7673  20.560  19.784   6.781 -0.1239  0.0376  0.3105
    1DIPC   D2A 7674  20.474  19.734   6.368  0.0529  0.0295  0.5569
    1DIPC   D3A 7675  20.300  20.203   6.422  0.0664  0.0147 -0.4416
    1DIPC   C4A 7676  19.924  20.359   6.267  0.0286  0.1616 -0.0124
    1DIPC   C1B 7677  20.789  19.291   6.896 -0.0972 -0.0136 -0.0076
    1DIPC   D2B 7678  20.514  18.930   6.916 -0.2833 -0.3601  0.1983
    1DIPC   D3B 7679  20.512  18.774   6.515 -0.2195  0.0727 -0.0994
    1DIPC   C4B 7680  20.561  18.934   6.107  0.1836 -0.0937  0.0807
    1DIPC   NC3 7681  15.255  19.179   7.184 -0.2378 -0.5572  0.1702
    1DIPC   PO4 7682  15.421  19.595   7.074  0.1151 -0.1157 -0.2326
    1DIPC   GL1 7683  14.990  19.706   6.917 -0.1159  0.1453 -0.0613
    1DIPC   GL2 7684  14.832  19.418   6.945 -0.4205  0.0850  0.1224
    1DIPC   C1A 7685  14.629  19.822   6.627  0.1336 -0.0642 -0.0160
    1DIPC   D2A 7686  14.884  19.741   6.136 -0.3775 -0.2785 -0.0976
    1DIPC   D3A 7687  15.097  19.761   5.760 -0.0028 -0.2278  0.0676
    1DIPC   C4A 7688  14.985  19.507   5.418  0.1379 -0.3358 -0.0455
    1DIPC   C1B 7689  14.547  19.348   6.509  0.0658  0.1328 -0.4032
    1DIPC   D2B 7690  14.450  19.221   6.083 -0.1332 -0.1192 -0.0891
    1DIPC   D3B 7691  14.846  19.254   6.099 -0.3439 -0.0285  0.0110
    1DIPC   C4B 7692  15.215  19.252   5.971 -0.0402 -0.1820  0.1708
    1DIPC   NC3 7693  19.395   1.962   7.215 -0.3618  0.0366  0.2033
    1DIPC   PO4 7694  19.044   2.143   7.185 -0.0048 -0.2138  0.1512
    1DIPC   GL1 7695  18.997   2.256   6.702  0.0902 -0.0140  0.1004
    1DIPC   GL2 7696  18.953   2.056   6.531 -0.2006  0.0648  0.0722
    1DIPC   C1A 7697  18.998   2.644   6.480  0.0971 -0.1833  0.0359
    1DIPC   D2A 7698  18.997   2.869   6.094  0.1012  0.0612 -0.0544
    1DIPC   D3A 7699  18.674   2.732   5.972  0.1850 -0.1717 -0.0547
    1DIPC   C4A 7700  18.604   2.480   5.680  0.1430 -0.1843  0.3712
    1DIPC   C1B 7701  18.600   1.854   6.437 -0.3663  0.1651 -0.2450
    1DIPC   D2B 7702  18.285   1.846   6.049 -0.1404  0.1305  0.4763
    1DIPC   D3B 7703  18.185   2.250   5.854 -0.2618 -0.1335  0.0148
    1DIPC   C4B 7704  18.101   2.669   5.935 -0.0057 -0.0318  0.0332
    1DIPC   NC3 7705   9.289  22.298   7.798  0.1400  0.2861 -0.0412
    1DIPC   PO4 7706   9.398  22.373   7.374 -0.0476 -0.3702  0.3144
    1DIPC   GL1 7707   9.324  22.255   7.003 -0.3073 -0.0807  0.0970
    1DIPC   GL2 7708   9.438  22.030   6.912 -0.2434  0.0135 -0.2305
    1DIPC   C1A 7709   9.430  22.456   6.515  0.1315  0.4769 -0.0925
    1DIPC   D2A 7710   9.544  22.457   6.029 -0.1046 -0.0297  0.1110
    1DIPC   D3A 7711   9.729  22.175   5.689  0.1613 -0.2599 -0.1915
    1DIPC   C4A 7712   9.610  22.283   5.352  0.2682  0.0983  0.2891
    1DIPC   C1B 7713   9.223  21.989   6.553 -0.2614  0.0111  0.1449
    1DIPC   D2B 7714   9.028  21.754   6.199  0.0746  0.0358  0.0052
    1DIPC   D3B 7715   8.719  21.802   5.936 -0.1058  0.1333 -0.0801
    1DIPC   C4B 7716   8.638  22.065   5.547 -0.2284  0.2830  0.3418
    1DIPC   NC3 7717  23.985  15.911   7.180  0.2420 -0.3574  0.3723
    1DIPC   PO4 7718  23.475  15.835   6.975 -0.0647 -0.3094  0.0507
    1DIPC   GL1 7719  23.534  15.772   6.510  0.3005 -0.0425 -0.0865
    1DIPC   GL2 7720  23.470  16.139   6.300 -0.0359  0.0933  0.1699
    1DIPC   C1A 7721  23.558  15.575   6.108 -0.1183  0.0620  0.2800
    1DIPC   D2A 7722  23.631  15.602   5.749  0.1431  0.1460  0.1107
    1DIPC   D3A 7723  23.966  15.384   5.766  0.0983 -0.0573  0.0312
    1DIPC   C4A 7724  24.166  15.391   5.407  0.0991  0.3167  0.0762
    1DIPC   C1B 7725  23.351  16.119   5.885  0.1189 -0.1196 -0.2617
    1DIPC   D2B 7726  23.193  15.881   5.757  0.1279 -0.2627  0.2939
    1DIPC   D3B 7727  23.412  15.987   5.382  0.0039  0.1566  0.0012
    1DIPC   C4B 7728  23.725  15.673   5.194 -0.1141  0.1059  0.0745
    1DIPC   NC3 7729  16.981   9.948   7.833 -0.0261 -0.1063 -0.4339
    1DIPC   PO4 7730  17.017   9.715   7.528  0.0477  0.0320  0.2357
    1DIPC   GL1 7731  16.843   9.474   7.164 -0.0638  0.0446  0.0069
    1DIPC   GL2 7732  16.958   9.242   7.039 -0.1654  0.0045 -0.1845
    1DIPC   C1A 7733  16.911   9.621   6.759  0.2141  0.1436 -0.3179
    1DIPC   D2A 7734  16.900   9.876   6.324  0.2137 -0.0496 -0.0664
    1DIPC   D3A 7735  16.720   9.843   5.869 -0.2813 -0.1005 -0.1459
    1DIPC   C4A 7736  16.534  10.163   5.728  0.0964  0.0652 -0.2795
    1DIPC   C1B 7737  16.849   9.121   6.626  0.2700  0.1430  0.0954
    1DIPC   D2B 7738  16.540   8.924   6.497  0.0116 -0.0129  0.2023
    1DIPC   D3B 7739  16.132   8.739   6.409  0.3172  0.1032 -0.0620
    1DIPC   C4B 7740  15.977   8.514   6.064 -0.2901  0.0768 -0.3291
    1DIPC   NC3 7741  10.683  28.118   6.891  0.3166  0.0998 -0.1392
    1DIPC   PO4 7742  11.025   0.351   7.041 -0.0392 -0.2284  0.0147
    1DIPC   GL1 7743  11.155   0.400   6.504 -0.0193 -0.1325  0.2774
    1DIPC   GL2 7744  10.981   0.124   6.411  0.1232 -0.0461 -0.1597
    1DIPC   C1A 7745  11.011   0.494   6.079 -0.1735 -0.4158 -0.2332
    1DIPC   D2A 7746  11.179   0.791   5.921  0.0511 -0.1180 -0.2070
    1DIPC   D3A 7747  10.785   0.964   6.039  0.0563 -0.1469 -0.0901
    1DIPC   C4A 7748  10.608   1.309   5.739 -0.0965  0.1369 -0.2850
    1DIPC   C1B 7749  11.157  28.040   6.017  0.0746 -0.2543 -0.0624
    1DIPC   D2B 7750  11.212  27.838   5.590  0.0288  0.0196 -0.1251
    1DIPC   D3B 7751  11.386   0.002   5.244 -0.1850  0.0508 -0.1221
    1DIPC   C4B 7752  11.834  28.044   5.328 -0.1618  0.0501  0.0071
    1DIPC   NC3 7753  24.469  24.757   6.930  0.1379 -0.2034 -0.2623
    1DIPC   PO4 7754  24.994  24.856   6.842  0.1210  0.1315  0.2190
    1DIPC   GL1 7755  24.730  24.788   6.476 -0.1358  0.0043 -0.0368
    1DIPC   GL2 7756  24.447  24.874   6.432  0.0874 -0.1898 -0.3538
    1DIPC   C1A 7757  24.650  24.466   6.179 -0.0324 -0.1929 -0.1796
    1DIPC   D2A 7758  24.581  24.121   6.048  0.1103  0.2963  0.5093
    1DIPC   D3A 7759  24.230  24.428   5.972 -0.2534 -0.4129  0.0641
    1DIPC   C4A 7760  23.850  24.591   6.109  0.1191  0.1727  0.1254
    1DIPC   C1B 7761  24.251  24.965   6.104  0.2589  0.0324  0.1403
    1DIPC   D2B 7762  24.052  24.794   5.709  0.0399  0.3580 -0.0895
    1DIPC   D3B 7763  24.314  24.675   5.282  0.0008  0.0017 -0.1562
    1DIPC   C4B 7764  24.392  24.941   4.928  0.4247 -0.1999 -0.0463
    1DIPC   NC3 7765  14.733  27.195   7.018 -0.2337 -0.2721  0.2204
    1DIPC   PO4 7766  14.309  27.218   6.879 -0.3880 -0.2551  0.2682
    1DIPC   GL1 7767  14.231  27.240   6.533  0.0223 -0.3906 -0.2278
    1DIPC   GL2 7768  14.364  27.498   6.428  0.0874  0.0582 -0.2554
    1DIPC   C1A 7769  14.033  27.291   6.143  0.1508 -0.3351  0.1352
    1DIPC   D2A 7770  14.031  27.506   5.827 -0.2029  0.2010 -0.1338
    1DIPC   D3A 7771  14.053  27.352   5.450 -0.1864  0.3572 -0.1254
    1DIPC   C4A 7772  14.463  27.382   5.339 -0.1266 -0.2061 -0.6040
    1DIPC   C1B 7773  14.494  27.510   6.052 -0.0217  0.2195  0.1115
    1DIPC   D2B 7774  14.705  27.735   5.694 -0.3236  0.2502  0.0587
    1DIPC   D3B 7775  14.982  27.454   5.332 -0.0993 -0.0132  0.0925
    1DIPC   C4B 7776  15.414  27.267   5.476  0.1560 -0.3411  0.1488
    1DIPC   NC3 7777   9.346  22.899   7.473 -0.0670 -0.0474  0.1625
    1DIPC   PO4 7778   9.595  23.259   7.298 -0.3691 -0.0318 -0.0457
    1DIPC   GL1 7779   9.536  23.288   6.945  0.0128  0.1599  0.2671
    1DIPC   GL2 7780   9.384  23.573   6.836 -0.2273 -0.0622  0.1154
    1DIPC   C1A 7781   9.759  23.471   6.506 -0.1505 -0.1607  0.2180
    1DIPC   D2A 7782   9.746  23.443   6.058 -0.1117 -0.0392 -0.5354
    1DIPC   D3A 7783   9.466  23.706   6.164  0.2748  0.1743  0.3956
    1DIPC   C4A 7784   9.545  23.939   6.565  0.1450  0.4054 -0.1550
    1DIPC   C1B 7785   9.190  23.360   6.483 -0.0235  0.2513 -0.0175
    1DIPC   D2B 7786   9.023  23.214   6.115  0.3381 -0.3341  0.1376
    1DIPC   D3B 7787   8.854  23.149   5.636 -0.2744 -0.2597 -0.0743
    1DIPC   C4B 7788   9.039  23.171   5.255  0.1271  0.0065  0.0215
    1DIPC   NC3 7789  24.996  22.807   6.500  0.1994  0.0698  0.1801
    1DIPC   PO4 7790  25.357  22.680   6.661  0.1760 -0.0384 -0.0508
    1DIPC   GL1 7791  25.357  22.600   6.173  0.2355  0.1870  0.0104
    1DIPC   GL2 7792  25.142  22.825   6.011 -0.1804 -0.2584  0.1785
    1DIPC   C1A 7793  25.355  22.403   5.731 -0.5905 -0.0180  0.3268
    1DIPC   D2A 7794  25.399  22.369   5.258  0.1327  0.0356 -0.0093
    1DIPC   D3A 7795  25.388  21.882   5.170 -0.1488  0.0409 -0.2305
    1DIPC   C4A 7796  25.762  21.547   5.299 -0.0383  0.1671 -0.0921
    1DIPC   C1B 7797  25.181  23.100   5.844 -0.2162  0.0715  0.1589
    1DIPC   D2B 7798  24.934  23.396   5.677 -0.1175  0.3976  0.0398
    1DIPC   D3B 7799  24.960  23.172   5.348  0.0504  0.1428  0.1438
    1DIPC   C4B 7800  25.003  22.716   5.400 -0.0392  0.0236 -0.0035
    1DIPC   NC3 7801  18.147  27.865   7.557  0.1516  0.1293  0.0443
    1DIPC   PO4 7802  17.837  27.890   7.286 -0.0751 -0.3551 -0.0217
    1DIPC   GL1 7803  17.913  27.930   6.952  0.1760 -0.0054 -0.2245
    1DIPC   GL2 7804  18.210  27.902   6.801  0.0674 -0.1001  0.0314
    1DIPC   C1A 7805  17.820  27.878   6.528 -0.4431  0.0021 -0.1138
    1DIPC   D2A 7806  17.992  27.770   6.190 -0.0122  0.1426 -0.0725
    1DIPC   D3A 7807  18.416  27.756   6.269 -0.1830 -0.0264 -0.2994
    1DIPC   C4A 7808  18.768  27.627   6.008  0.1783  0.2637  0.1431
    1DIPC   C1B 7809  18.584  27.998   6.694 -0.1645  0.3122  0.4147
    1DIPC   D2B 7810  18.948  28.001   7.028 -0.1586  0.1481  0.0592
    1DIPC   D3B 7811  19.292  27.773   6.774  0.0729  0.0302  0.0786
    1DIPC   C4B 7812  19.611  27.967   6.772  0.0323  0.0368  0.0872
    1DIPC   NC3 7813  16.517   5.186   7.617  0.3622  0.1898  0.2910
    1DIPC   PO4 7814  16.230   5.307   7.206  0.1424 -0.4088 -0.2568
    1DIPC   GL1 7815  16.111   5.426   6.777  0.2868  0.0670 -0.3181
    1DIPC   GL2 7816  16.162   5.718   6.639  0.2245 -0.5039 -0.0984
    1DIPC   C1A 7817  15.844   5.457   6.370  0.6152 -0.1221 -0.2004
    1DIPC   D2A 7818  15.702   5.435   5.966  0.1259  0.1899  0.1684
    1DIPC   D3A 7819  15.686   5.628   5.630  0.1892  0.0373  0.0397
    1DIPC   C4A 7820  15.231   5.640   5.387 -0.1897  0.0761 -0.2591
    1DIPC   C1B 7821  15.952   6.009   6.305  0.0024 -0.0338  0.1212
    1DIPC   D2B 7822  15.810   6.073   5.934 -0.0082 -0.1604 -0.1164
    1DIPC   D3B 7823  15.453   6.342   6.026  0.0291 -0.0314  0.2846
    1DIPC   C4B 7824  15.045   6.444   5.864  0.0101  0.0071 -0.0628
    1DIPC   NC3 7825  23.730   8.131   6.801 -0.5119 -0.0164  0.3140
    1DIPC   PO4 7826  23.962   8.329   6.474  0.1034 -0.1041 -0.1505
    1DIPC   GL1 7827  24.017   8.585   6.062 -0.0508  0.0733 -0.0211
    1DIPC   GL2 7828  23.931   8.762   6.055 -0.0038 -0.2420 -0.0849
    1DIPC   C1A 7829  24.341   8.490   5.759  0.2896  0.0149 -0.0531
    1DIPC   D2A 7830  24.754   8.461   5.502  0.1175 -0.4034 -0.2796
    1DIPC   D3A 7831  24.913   8.804   5.402 -0.0609  0.1769  0.0551
    1DIPC   C4A 7832  24.760   8.962   4.985  0.0243 -0.2428  0.1469
    1DIPC   C1B 7833  23.662   8.923   5.805 -0.4048  0.1260  0.0998
    1DIPC   D2B 7834  23.368   9.169   5.787  0.2396  0.0071  0.0668
    1DIPC   D3B 7835  23.234   8.670   5.868  0.1275 -0.0193 -0.0965
    1DIPC   C4B 7836  23.127   8.359   5.609 -0.1184 -0.1724  0.0454
    1DIPC   NC3 7837  16.763  16.290   8.365 -0.2940 -0.3661  0.0620
    1DIPC   PO4 7838  16.335  16.057   8.134  0.1312  0.3329 -0.5070
    1DIPC   GL1 7839  16.272  16.230   7.741 -0.3479 -0.0534  0.1014
    1DIPC   GL2 7840  15.936  16.338   7.688  0.0058  0.0575 -0.3750
    1DIPC   C1A 7841  16.372  16.382   7.375 -0.2426  0.2172  0.0199
    1DIPC   D2A 7842  16.525  16.682   7.004  0.0463  0.0547  0.0624
    1DIPC   D3A 7843  16.287  16.563   6.586 -0.1829 -0.3486  0.3743
    1DIPC   C4A 7844  15.914  16.284   6.716  0.0606 -0.4768 -0.4084
    1DIPC   C1B 7845  15.848  16.413   7.200 -0.1261  0.2300  0.2068
    1DIPC   D2B 7846  15.557  16.532   6.934  0.0762  0.0868  0.0921
    1DIPC   D3B 7847  15.699  16.646   6.455  0.0967  0.1192  0.2392
    1DIPC   C4B 7848  15.793  16.779   6.042  0.1394  0.0471  0.0685
    1DIPC   NC3 7849   3.646  22.261   6.548  0.0148  0.0219 -0.0248
    1DIPC   PO4 7850   3.148  22.205   6.403 -0.2089  0.0597 -0.1720
    1DIPC   GL1 7851   2.872  22.203   6.072  0.1304 -0.2287  0.1069
    1DIPC   GL2 7852   2.888  22.478   5.942  0.0347  0.0914  0.2438
    1DIPC   C1A 7853   2.641  22.120   5.692 -0.2062 -0.0185  0.2406
    1DIPC   D2A 7854   2.541  21.630   5.468 -0.2717 -0.0691 -0.0183
    1DIPC   D3A 7855   2.717  21.278   5.409 -0.2660 -0.1172  0.1969
    1DIPC   C4A 7856   2.934  20.926   5.527  0.0233  0.0658 -0.0094
    1DIPC   C1B 7857   2.984  22.440   5.490  0.1676 -0.1561 -0.2594
    1DIPC   D2B 7858   3.076  22.341   5.091 -0.0981 -0.1603 -0.0718
    1DIPC   D3B 7859   3.268  22.414   4.747  0.2237 -0.1155 -0.0163
    1DIPC   C4B 7860   3.029  22.237   4.454  0.0647 -0.0972 -0.1256
    1DIPC   NC3 7861  17.588   8.614   7.161 -0.2477 -0.0437 -0.1267
    1DIPC   PO4 7862  17.212   8.837   7.204 -0.0075 -0.3608  0.0291
    1DIPC   GL1 7863  17.279   8.734   6.756 -0.0476  0.0427 -0.1672
    1DIPC   GL2 7864  17.351   8.390   6.712 -0.1858  0.0718  0.0306
    1DIPC   C1A 7865  17.183   8.793   6.288  0.2910  0.0897 -0.2714
    1DIPC   D2A 7866  17.440   9.060   6.058  0.1728  0.0071  0.0719
    1DIPC   D3A 7867  17.738   9.331   6.206  0.1874 -0.2492 -0.1922
    1DIPC   C4A 7868  17.997   9.190   6.559  0.0887  0.1497  0.0069
    1DIPC   C1B 7869  16.929   8.341   6.588 -0.1686  0.1037  0.2640
    1DIPC   D2B 7870  16.551   8.415   6.523 -0.2554  0.2783  0.3648
    1DIPC   D3B 7871  16.529   8.574   6.122 -0.1216 -0.2710  0.2191
    1DIPC   C4B 7872  16.722   9.020   6.100 -0.0285  0.2260  0.2103
    1DIPC   NC3 7873   4.415  10.814   7.075 -0.3997  0.2141  0.0385
    1DIPC   PO4 7874   4.123  10.815   6.758  0.0065 -0.3100  0.1605
    1DIPC   GL1 7875   4.285  11.178   6.453  0.1202 -0.0726 -0.1068
    1DIPC   GL2 7876   4.146  11.446   6.432  0.1891 -0.1293  0.1675
    1DIPC   C1A 7877   4.521  11.041   6.117  0.0807 -0.1681  0.0878
    1DIPC   D2A 7878   4.651  11.167   5.732  0.1685 -0.2226  0.0828
    1DIPC   D3A 7879   4.887  10.845   5.481 -0.1549  0.1240 -0.2604
    1DIPC   C4A 7880   4.954  10.427   5.171  0.0800  0.0547 -0.1542
    1DIPC   C1B 7881   4.121  11.418   5.998 -0.1232  0.2986 -0.2017
    1DIPC   D2B 7882   3.970  11.711   5.730  0.0093  0.0153 -0.2732
    1DIPC   D3B 7883   3.645  11.724   5.604  0.2795  0.2447 -0.1380
    1DIPC   C4B 7884   3.681  11.731   5.098  0.0255  0.1372 -0.2325
    1DIPC   NC3 7885  20.662   6.443   6.771 -0.0638 -0.1236 -0.1175
    1DIPC   PO4 7886  20.310   6.564   6.657  0.1790 -0.2888  0.2528
    1DIPC   GL1 7887  20.443   6.616   6.283  0.1074  0.1145 -0.1365
    1DIPC   GL2 7888  20.415   6.892   6.160  0.0977 -0.0064 -0.1772
    1DIPC   C1A 7889  20.397   6.653   5.762  0.1132  0.2968 -0.1235
    1DIPC   D2A 7890  20.394   6.377   5.387  0.2408  0.0376  0.2816
    1DIPC   D3A 7891  20.004   6.417   5.464  0.0831  0.0441 -0.1848
    1DIPC   C4A 7892  19.750   6.162   5.229 -0.0367  0.0741  0.0432
    1DIPC   C1B 7893  20.067   7.176   6.044 -0.0582 -0.1780 -0.1441
    1DIPC   D2B 7894  19.650   7.257   5.818 -0.1871  0.0419 -0.2754
    1DIPC   D3B 7895  20.044   7.335   5.576  0.2871  0.0295  0.1209
    1DIPC   C4B 7896  20.016   7.288   5.147  0.0128  0.0798  0.0958
    1DIPC   NC3 7897  17.792   4.798   7.550 -0.3126  0.1399 -0.1837
    1DIPC   PO4 7898  18.134   4.869   7.538 -0.3650  0.0014 -0.0444
    1DIPC   GL1 7899  18.314   4.771   7.122  0.0265  0.1110 -0.0012
    1DIPC   GL2 7900  18.046   4.863   6.944  0.2051 -0.0359 -0.2531
    1DIPC   C1A 7901  18.424   4.955   6.707 -0.0745 -0.0778 -0.0895
    1DIPC   D2A 7902  18.419   5.293   6.481  0.2208  0.0085  0.0926
    1DIPC   D3A 7903  18.505   4.904   6.158 -0.1914  0.1672 -0.1414
    1DIPC   C4A 7904  18.152   4.740   5.863  0.1868 -0.2145 -0.0055
    1DIPC   C1B 7905  17.870   4.690   6.543  0.0505  0.0980  0.1494
    1DIPC   D2B 7906  17.700   4.303   6.410  0.2203 -0.2100  0.0456
    1DIPC   D3B 7907  17.824   4.363   5.841  0.0320  0.1968 -0.0581
    1DIPC   C4B 7908  17.852   4.015   5.533 -0.0804  0.1918  0.1233
    1DIPC   NC3 7909  22.531  21.585   7.230 -0.3158 -0.1833  0.0213
    1DIPC   PO4 7910  22.337  21.318   6.890 -0.2036 -0.1048  0.1947
    1DIPC   GL1 7911  22.138  21.462   6.596  0.0956  0.0199  0.1842
    1DIPC   GL2 7912  22.024  21.698   6.556 -0.1337  0.0439 -0.0443
    1DIPC   C1A 7913  21.746  21.210   6.393  0.0650 -0.0633  0.1958
    1DIPC   D2A 7914  21.700  21.022   5.996  0.0992 -0.1835 -0.0903
    1DIPC   D3A 7915  21.449  21.185   5.856 -0.2557 -0.2648  0.3046
    1DIPC   C4A 7916  21.290  21.388   5.604 -0.1963 -0.0913  0.0087
    1DIPC   C1B 7917  22.239  21.401   6.139  0.2497  0.1560 -0.1330
    1DIPC   D2B 7918  22.212  21.291   5.721 -0.0858  0.1199 -0.1627
    1DIPC   D3B 7919  21.812  21.226   5.523 -0.0773  0.2856  0.1090
    1DIPC   C4B 7920  21.777  21.284   5.134  0.0362 -0.3708 -0.0345
    1DIPC   NC3 7921   9.291   7.042   8.178 -0.1477 -0.1712  0.0526
    1DIPC   PO4 7922   9.415   7.189   7.794 -0.4704 -0.1745 -0.1242
    1DIPC   GL1 7923   9.354   7.165   7.317 -0.1458  0.3869  0.2808
    1DIPC   GL2 7924   9.375   6.990   7.109  0.1709  0.0780  0.0279
    1DIPC   C1A 7925   9.096   7.333   6.896 -0.0181 -0.1956  0.0447
    1DIPC   D2A 7926   9.219   7.502   6.455  0.3580  0.3546  0.2375
    1DIPC   D3A 7927   9.077   7.348   6.077  0.0933  0.0608 -0.0710
    1DIPC   C4A 7928   9.142   7.223   5.701  0.2492 -0.1949  0.3407
    1DIPC   C1B 7929   9.154   6.827   6.779 -0.0229 -0.0579  0.0874
    1DIPC   D2B 7930   9.047   6.855   6.333  0.3005 -0.2934 -0.1694
    1DIPC   D3B 7931   9.226   6.861   6.003 -0.0489  0.3468 -0.0506
    1DIPC   C4B 7932   9.392   6.543   5.733 -0.1090 -0.0968  0.0484
    1DIPC   NC3 7933  22.944   6.069   6.570  0.1917 -0.0682  0.1099
    1DIPC   PO4 7934  22.452   6.096   6.692 -0.0161 -0.0407 -0.2586
    1DIPC   GL1 7935  22.499   6.267   6.333  0.6088  0.1187  0.0827
    1DIPC   GL2 7936  22.742   6.209   6.115  0.1084  0.1555 -0.1276
    1DIPC   C1A 7937  22.269   6.072   5.890  0.1821  0.0561 -0.1772
    1DIPC   D2A 7938  22.034   5.690   5.810  0.2783 -0.0677  0.1611
    1DIPC   D3A 7939  22.270   5.774   5.397  0.0888 -0.0005  0.2340
    1DIPC   C4A 7940  22.407   5.412   5.154  0.2119  0.3357 -0.1741
    1DIPC   C1B 7941  22.586   6.429   5.767  0.2852 -0.3918 -0.1610
    1DIPC   D2B 7942  22.296   6.349   5.495 -0.2232  0.0373 -0.1933
    1DIPC   D3B 7943  22.428   6.326   5.147  0.0566  0.1018 -0.0126
    1DIPC   C4B 7944  22.170   6.561   4.920  0.0459  0.3184  0.1218
    1DIPC   NC3 7945   1.458  25.208   6.494 -0.3009  0.0665  0.0866
    1DIPC   PO4 7946   1.192  25.630   6.599  0.1034  0.1427 -0.1374
    1DIPC   GL1 7947   1.233  25.559   6.164  0.0939  0.0620  0.0009
    1DIPC   GL2 7948   1.495  25.755   5.966 -0.0192  0.1130 -0.0302
    1DIPC   C1A 7949   1.031  25.596   5.700  0.0188 -0.1131  0.2584
    1DIPC   D2A 7950   0.864  25.872   5.378 -0.2485  0.5953 -0.0727
    1DIPC   D3A 7951   0.643  26.166   5.631  0.1187  0.2704 -0.1858
    1DIPC   C4A 7952   0.902  26.220   5.986 -0.0124  0.1225  0.0882
    1DIPC   C1B 7953   1.510  25.555   5.537  0.1065 -0.3510 -0.0537
    1DIPC   D2B 7954   1.555  25.037   5.638  0.1247 -0.3647  0.0273
    1DIPC   D3B 7955   1.098  25.042   5.475 -0.1395  0.1412  0.0424
    1DIPC   C4B 7956   1.068  25.446   5.188 -0.2503 -0.1391 -0.1262
    1DIPC   NC3 7957   7.033  17.298   7.986 -0.0790 -0.0777  0.1116
    1DIPC   PO4 7958   6.697  17.213   7.660  0.1080 -0.3483  0.2148
    1DIPC   GL1 7959   6.570  17.194   7.222 -0.1248 -0.3344 -0.4159
    1DIPC   GL2 7960   6.303  17.028   7.040 -0.1542 -0.0640 -0.0600
    1DIPC   C1A 7961   6.690  17.115   6.761  0.1549 -0.2368 -0.1512
    1DIPC   D2A 7962   6.545  17.103   6.381 -0.1884 -0.0132  0.0211
    1DIPC   D3A 7963   6.242  16.857   6.126 -0.0779 -0.2043 -0.0933
    1DIPC   C4A 7964   6.413  16.461   5.809 -0.0858 -0.2011 -0.1161
    1DIPC   C1B 7965   6.682  16.693   7.004 -0.1367 -0.0296  0.1090
    1DIPC   D2B 7966   6.743  16.350   6.917 -0.2640  0.1570  0.1589
    1DIPC   D3B 7967   6.891  16.604   6.568  0.3933 -0.0282  0.2217
    1DIPC   C4B 7968   6.723  16.665   6.149 -0.0256  0.1385 -0.1841
    1DIPC   NC3 7969   3.619  11.524   7.499 -0.2073  0.0240  0.0854
    1DIPC   PO4 7970   3.864  11.262   7.234 -0.3041  0.1027 -0.1956
    1DIPC   GL1 7971   3.789  11.289   6.763 -0.2234 -0.1313 -0.2011
    1DIPC   GL2 7972   3.703  11.614   6.529  0.0750  0.2815  0.0998
    1DIPC   C1A 7973   3.716  11.202   6.287  0.0924 -0.1217 -0.2031
    1DIPC   D2A 7974   3.603  11.443   6.006  0.1206 -0.2811 -0.3484
    1DIPC   D3A 7975   3.762  11.151   5.787  0.0697  0.0580  0.1254
    1DIPC   C4A 7976   3.745  11.251   5.397 -0.1284  0.1835  0.4866
    1DIPC   C1B 7977   3.927  11.884   6.371 -0.0748 -0.2607 -0.2967
    1DIPC   D2B 7978   4.240  11.953   6.080 -0.0236  0.1032  0.2166
    1DIPC   D3B 7979   4.286  12.290   6.365  0.0130  0.3039  0.1213
    1DIPC   C4B 7980   3.975  12.455   6.215  0.0093 -0.2826  0.3169
    1DIPC   NC3 7981   0.814  11.078   6.389 -0.2923 -0.1225  0.1565
    1DIPC   PO4 7982   0.321  11.112   6.445 -0.1934 -0.2470 -0.1181
    1DIPC   GL1 7983   0.134  11.091   6.009  0.2568 -0.0242 -0.1205
    1DIPC   GL2 7984   0.432  11.342   5.910  0.2021 -0.3574  0.0917
    1DIPC   C1A 7985   0.407  10.835   5.759  0.3815 -0.2058  0.3610
    1DIPC   D2A 7986   0.517  10.854   5.368  0.0974 -0.0081  0.0039
    1DIPC   D3A 7987   0.198  11.014   5.181 -0.4030 -0.0210 -0.1487
    1DIPC   C4A 7988  27.828  11.032   5.320 -0.3801  0.1984 -0.0933
    1DIPC   C1B 7989   0.733  11.175   5.670  0.0168 -0.0281  0.2667
    1DIPC   D2B 7990   0.866  11.332   5.272 -0.2660 -0.1035  0.0169
    1DIPC   D3B 7991   0.951  11.728   5.485 -0.1454 -0.3114  0.0468
    1DIPC   C4B 7992   0.818  11.877   5.958 -0.0225  0.0967  0.1768
    1DIPC   NC3 7993  14.865   9.045   7.722  0.1266 -0.0384  0.1524
    1DIPC   PO4 7994  15.154   9.385   7.830 -0.0334  0.1822 -0.2195
    1DIPC   GL1 7995  15.077   9.588   7.414 -0.0976 -0.0778 -0.1889
    1DIPC   GL2 7996  15.268   9.818   7.190  0.2243  0.3597  0.0293
    1DIPC   C1A 7997  14.954   9.436   7.017 -0.1788  0.0920  0.0821
    1DIPC   D2A 7998  14.753   9.333   6.696 -0.0344  0.0632  0.1346
    1DIPC   D3A 7999  14.794   8.971   6.495  0.2634 -0.2827 -0.1287
    1DIPC   C4A 8000  14.625   9.085   6.072  0.3202 -0.0248  0.2075
    1DIPC   C1B 8001  15.418   9.770   6.743 -0.2895  0.0890 -0.2457
    1DIPC   D2B 8002  15.541   9.649   6.344  0.2698 -0.0700 -0.1402
    1DIPC   D3B 8003  15.636   9.204   6.383  0.0899  0.1200  0.2164
    1DIPC   C4B 8004  15.511   8.842   6.204 -0.0333  0.0547  0.1221
    1DIPC   NC3 8005   4.394  21.386   6.873  0.2835 -0.2371 -0.0990
    1DIPC   PO4 8006   4.859  21.262   6.930 -0.0420  0.1118 -0.0259
    1DIPC   GL1 8007   4.767  21.514   6.565  0.0561  0.0264 -0.0964
    1DIPC   GL2 8008   4.886  21.765   6.531  0.0314 -0.3972  0.0678
    1DIPC   C1A 8009   4.493  21.419   6.178  0.3074 -0.0533 -0.1403
    1DIPC   D2A 8010   4.407  21.273   5.721 -0.0857  0.3169  0.1670
    1DIPC   D3A 8011   4.652  20.798   5.587  0.1431  0.1712  0.1006
    1DIPC   C4A 8012   4.959  20.557   5.660 -0.1125 -0.1551 -0.1240
    1DIPC   C1B 8013   4.929  21.679   6.030  0.0877  0.0357  0.1025
    1DIPC   D2B 8014   5.278  21.663   5.776  0.1467 -0.4385 -0.1192
    1DIPC   D3B 8015   5.207  21.722   5.348 -0.2326 -0.2031 -0.2325
    1DIPC   C4B 8016   5.486  21.609   5.070  0.2157 -0.0977  0.2022
    1DIPC   NC3 8017   6.585   4.458   6.815 -0.1329  0.0044  0.2167
    1DIPC   PO4 8018   6.421   4.903   6.753 -0.3358  0.1248  0.1236
    1DIPC   GL1 8019   6.411   4.816   6.403  0.2594 -0.1149 -0.4862
    1DIPC   GL2 8020   6.431   4.471   6.308 -0.1655 -0.2350  0.3271
    1DIPC   C1A 8021   6.520   5.111   6.115 -0.1543  0.0437  0.0392
    1DIPC   D2A 8022   6.798   5.295   5.871  0.2607  0.0139  0.0020
    1DIPC   D3A 8023   6.392   5.242   5.644 -0.2779 -0.0279 -0.0165
    1DIPC   C4A 8024   6.441   5.144   5.274 -0.4191 -0.0995 -0.0640
    1DIPC   C1B 8025   6.435   4.275   5.923 -0.2942  0.2296  0.1376
    1DIPC   D2B 8026   6.291   4.173   5.585  0.1566 -0.3194 -0.0046
    1DIPC   D3B 8027   6.568   4.158   5.173 -0.1589 -0.1078 -0.1184
    1DIPC   C4B 8028   6.953   4.184   5.277 -0.1846  0.0609 -0.3024
    1DIPC   NC3 8029  27.748  13.851   6.782 -0.1460  0.0486  0.0446
    1DIPC   PO4 8030  27.845  13.773   6.303 -0.2455 -0.0527 -0.1781
    1DIPC   GL1 8031  28.063  13.551   5.983 -0.0088  0.1357  0.1186
    1DIPC   GL2 8032   0.161  13.605   6.123  0.1679  0.1653  0.0591
    1DIPC   C1A 8033  27.805  13.312   5.746 -0.2607  0.1524 -0.0416
    1DIPC   D2A 8034  27.388  13.153   5.718 -0.0701  0.2370  0.0573
    1DIPC   D3A 8035  27.601  13.311   5.301 -0.2732  0.1100  0.1016
    1DIPC   C4A 8036  27.511  13.114   4.813 -0.0669 -0.0046  0.1919
    1DIPC   C1B 8037   0.424  13.509   5.782  0.0112  0.0315 -0.0419
    1DIPC   D2B 8038   0.708  13.609   5.416 -0.2385 -0.0256  0.1927
    1DIPC   D3B 8039   0.810  13.882   5.031 -0.1497  0.2447 -0.0077
    1DIPC   C4B 8040   0.982  13.861   4.755 -0.1594  0.0467 -0.0511
    1DIPC   NC3 8041  21.588  11.236   7.223 -0.2592 -0.1339 -0.0867
    1DIPC   PO4 8042  21.925  11.209   6.883  0.1443 -0.0696 -0.0133
    1DIPC   GL1 8043  21.555  11.212   6.551  0.0575  0.0151  0.1952
    1DIPC   GL2 8044  21.336  11.056   6.326  0.2242 -0.4115  0.0303
    1DIPC   C1A 8045  21.727  11.271   6.045 -0.0596 -0.0117 -0.1425
    1DIPC   D2A 8046  21.807  11.380   5.619 -0.1050 -0.0627 -0.0799
    1DIPC   D3A 8047  21.971  10.924   5.590 -0.2381  0.0030 -0.1344
    1DIPC   C4A 8048  21.730  10.697   5.766  0.0011  0.2293 -0.1855
    1DIPC   C1B 8049  21.345  11.053   5.827  0.0777  0.1784  0.3165
    1DIPC   D2B 8050  21.479  11.042   5.329  0.0024 -0.1081 -0.1688
    1DIPC   D3B 8051  21.074  11.200   5.205 -0.1243 -0.2422 -0.1189
    1DIPC   C4B 8052  20.876  11.675   5.219 -0.1066  0.1154 -0.1422
    1DIPC   NC3 8053  14.992  23.300   6.997 -0.1488 -0.2361 -0.1192
    1DIPC   PO4 8054  14.876  22.970   6.701  0.1400 -0.3448  0.3011
    1DIPC   GL1 8055  14.849  22.948   6.216 -0.2908  0.2293 -0.1677
    1DIPC   GL2 8056  14.604  22.836   6.095 -0.3026  0.0376 -0.2584
    1DIPC   C1A 8057  14.998  22.811   5.782 -0.1458  0.0689 -0.2117
    1DIPC   D2A 8058  14.781  22.702   5.324 -0.0659 -0.4013 -0.2104
    1DIPC   D3A 8059  14.912  23.050   5.068  0.2521 -0.1034  0.0129
    1DIPC   C4A 8060  14.838  23.426   5.195  0.0659 -0.0276 -0.1482
    1DIPC   C1B 8061  14.423  22.782   5.700  0.0889  0.0819 -0.1800
    1DIPC   D2B 8062  14.218  22.633   5.297 -0.1938 -0.2143 -0.1793
    1DIPC   D3B 8063  14.439  22.397   5.173 -0.0115  0.1603  0.0509
    1DIPC   C4B 8064  14.620  22.440   4.808 -0.0038 -0.1155 -0.1031
    1DIPC   NC3 8065  17.143  20.638   7.049 -0.0328 -0.2380  0.2243
    1DIPC   PO4 8066  17.026  21.007   6.689 -0.1980 -0.0483 -0.0175
    1DIPC   GL1 8067  17.145  20.800   6.309 -0.3391 -0.0101 -0.2256
    1DIPC   GL2 8068  16.949  20.537   6.332  0.0571  0.1255 -0.2689
    1DIPC   C1A 8069  17.218  20.806   5.876 -0.0066 -0.2405 -0.2171
    1DIPC   D2A 8070  16.948  21.184   5.587 -0.3213 -0.1293  0.0642
    1DIPC   D3A 8071  17.085  20.773   5.381  0.0211  0.2684  0.0292
    1DIPC   C4A 8072  17.290  20.775   4.963  0.0115 -0.4934  0.2161
    1DIPC   C1B 8073  17.322  20.373   6.075  0.1167 -0.1595 -0.1618
    1DIPC   D2B 8074  17.634  20.471   5.837  0.1181 -0.1438 -0.2285
    1DIPC   D3B 8075  18.065  20.522   5.861  0.0349  0.1222 -0.1459
    1DIPC   C4B 8076  18.314  20.852   5.558 -0.1673 -0.0297  0.0586
    1DIPC   NC3 8077   4.785   8.762   6.660  0.1550 -0.2333  0.0032
    1DIPC   PO4 8078   4.931   8.645   6.226  0.1289 -0.2370  0.0215
    1DIPC   GL1 8079   4.731   8.436   5.935  0.0145  0.3334 -0.1051
    1DIPC   GL2 8080   4.442   8.368   5.820  0.2907  0.3072 -0.0523
    1DIPC   C1A 8081   4.893   8.354   5.516 -0.2722 -0.0839 -0.1031
    1DIPC   D2A 8082   5.154   8.459   5.093  0.2002  0.2200  0.0494
    1DIPC   D3A 8083   5.229   8.072   5.215  0.0849 -0.0105  0.0187
    1DIPC   C4A 8084   5.430   8.074   5.631 -0.2690  0.0121  0.0108
    1DIPC   C1B 8085   4.233   8.726   5.885 -0.2756  0.2572 -0.0321
    1DIPC   D2B 8086   4.355   9.083   5.748  0.2788 -0.0833  0.1956
    1DIPC   D3B 8087   4.476   9.049   5.277  0.2147  0.0605  0.3611
    1DIPC   C4B 8088   4.583   8.639   5.043 -0.0623  0.0993 -0.0909
    1DIPC   NC3 8089  14.945  28.082   7.443 -0.2232 -0.1692 -0.2059
    1DIPC   PO4 8090  14.842  27.545   7.457 -0.4441  0.1004  0.2232
    1DIPC   GL1 8091  15.085  27.612   7.142  0.2107  0.1252 -0.0118
    1DIPC   GL2 8092  14.947  27.937   6.982  0.0002  0.0312  0.2481
    1DIPC   C1A 8093  15.474  27.624   6.835 -0.2712 -0.2882  0.0965
    1DIPC   D2A 8094  15.942  27.698   6.998  0.0433  0.3753  0.2081
    1DIPC   D3A 8095  15.984  28.069   6.689 -0.2813  0.3250  0.1929
    1DIPC   C4A 8096  16.371  27.782   6.700 -0.1158 -0.2701 -0.1255
    1DIPC   C1B 8097  15.198  27.931   6.501  0.1963 -0.0161  0.1299
    1DIPC   D2B 8098  15.266  27.973   6.021  0.2663 -0.2137  0.3102
    1DIPC   D3B 8099  15.474   0.187   5.845  0.1086 -0.1551  0.2992
    1DIPC   C4B 8100  15.812   0.016   5.739  0.1170  0.0027  0.0581
    1DIPC   NC3 8101  24.157   5.085   7.018 -0.1422 -0.0392  0.0180
    1DIPC   PO4 8102  24.549   5.127   7.206  0.0884  0.0799  0.3419
    1DIPC   GL1 8103  24.688   5.125   6.845 -0.1375  0.0712  0.0954
    1DIPC   GL2 8104  24.507   4.990   6.624  0.0214  0.0844  0.1810
    1DIPC   C1A 8105  24.834   5.315   6.470  0.1244  0.2014  0.0165
    1DIPC   D2A 8106  25.092   5.557   6.099 -0.1376 -0.1426 -0.0331
    1DIPC   D3A 8107  25.267   5.919   6.134 -0.0479  0.0983  0.2381
    1DIPC   C4A 8108  25.102   6.125   5.762  0.1770  0.2377 -0.1539
    1DIPC   C1B 8109  24.409   4.960   6.180  0.0632 -0.2418 -0.2208
    1DIPC   D2B 8110  24.570   4.674   5.819  0.0043 -0.2087 -0.0131
    1DIPC   D3B 8111  24.423   5.152   5.634 -0.1168 -0.3270  0.1692
    1DIPC   C4B 8112  24.201   5.124   5.233  0.1669 -0.0388  0.0706
    1DIPC   NC3 8113   8.309  25.203   7.060 -0.0259 -0.3493  0.1521
    1DIPC   PO4 8114   8.005  25.481   6.815 -0.1886  0.3126 -0.2208
    1DIPC   GL1 8115   8.083  25.408   6.412 -0.0732 -0.0800  0.0308
    1DIPC   GL2 8116   7.852  25.107   6.348 -0.0253  0.2049 -0.0057
    1DIPC   C1A 8117   8.018  25.268   5.919 -0.1111  0.3425 -0.0601
    1DIPC   D2A 8118   8.010  25.177   5.404  0.0379 -0.0089 -0.0698
    1DIPC   D3A 8119   8.013  24.807   5.697 -0.3263 -0.3609 -0.2399
    1DIPC   C4A 8120   7.794  24.447   5.455  0.0826  0.2885 -0.2651
    1DIPC   C1B 8121   7.766  24.808   6.166  0.2946 -0.1058 -0.1899
    1DIPC   D2B 8122   7.790  24.341   6.186 -0.1565 -0.1244  0.3536
    1DIPC   D3B 8123   8.115  24.325   5.889 -0.1980 -0.1574  0.0739
    1DIPC   C4B 8124   8.132  24.112   5.596  0.2173  0.1489  0.0415
    1DIPC   NC3 8125  17.352  19.068   7.289  0.1780  0.0088 -0.0461
    1DIPC   PO4 8126  17.672  18.828   6.933 -0.1025  0.0226 -0.3310
    1DIPC   GL1 8127  17.902  18.489   6.681  0.2369 -0.0724 -0.0440
    1DIPC   GL2 8128  18.182  18.530   6.756  0.1490 -0.0236  0.2882
    1DIPC   C1A 8129  17.892  18.281   6.416  0.0168 -0.1552 -0.1722
    1DIPC   D2A 8130  17.834  17.936   6.345 -0.0380 -0.4459 -0.2097
    1DIPC   D3A 8131  17.662  17.753   5.930 -0.5315 -0.2781 -0.1117
    1DIPC   C4A 8132  17.271  17.668   5.852  0.0895 -0.0800 -0.1081
    1DIPC   C1B 8133  18.437  18.545   6.393  0.0561 -0.2097 -0.0402
    1DIPC   D2B 8134  18.820  18.459   6.134  0.0534  0.3297 -0.1629
    1DIPC   D3B 8135  18.666  18.613   5.789 -0.4890  0.5376  0.7128
    1DIPC   C4B 8136  18.307  18.370   5.580  0.3027  0.0011  0.4065
    1DIPC   NC3 8137  13.649   9.095   8.090  0.1568 -0.1475  0.1322
    1DIPC   PO4 8138  13.421   8.743   7.796 -0.1816 -0.2432 -0.0621
    1DIPC   GL1 8139  13.429   8.581   7.410  0.3700 -0.0702 -0.1314
    1DIPC   GL2 8140  13.091   8.639   7.260 -0.0914 -0.2058  0.0336
    1DIPC   C1A 8141  13.737   8.352   7.201  0.0261 -0.0137  0.0026
    1DIPC   D2A 8142  14.150   8.278   7.341  0.0240  0.3653 -0.2020
    1DIPC   D3A 8143  14.195   8.360   6.944  0.0650  0.4251 -0.0306
    1DIPC   C4A 8144  14.041   7.941   6.526 -0.1472  0.1821  0.1147
    1DIPC   C1B 8145  13.182   8.726   6.848 -0.2236  0.0630  0.0366
    1DIPC   D2B 8146  13.288   9.003   6.445  0.3141 -0.3307  0.0503
    1DIPC   D3B 8147  13.064   8.691   6.189  0.0087 -0.1031 -0.2254
    1DIPC   C4B 8148  13.312   8.646   5.784  0.1264 -0.0118  0.1158
    1DIPC   NC3 8149  23.655  14.671   7.433  0.0112 -0.1440 -0.0541
    1DIPC   PO4 8150  23.620  14.974   7.144 -0.0392  0.0461  0.1016
    1DIPC   GL1 8151  23.749  15.100   6.676 -0.0902  0.0744  0.0824
    1DIPC   GL2 8152  23.465  15.116   6.436  0.4431  0.0035  0.3050
    1DIPC   C1A 8153  23.943  15.363   6.380 -0.0260  0.0110 -0.1088
    1DIPC   D2A 8154  24.253  15.416   6.097  0.0204 -0.0954 -0.1273
    1DIPC   D3A 8155  24.508  15.514   5.727 -0.2666  0.3288  0.2326
    1DIPC   C4A 8156  24.524  15.899   5.432  0.0657  0.1231  0.0868
    1DIPC   C1B 8157  23.587  15.034   6.015  0.2483 -0.1610 -0.1695
    1DIPC   D2B 8158  23.571  15.127   5.607  0.0333 -0.0372 -0.0858
    1DIPC   D3B 8159  23.381  15.002   5.347  0.2169  0.0739 -0.0849
    1DIPC   C4B 8160  22.895  14.905   5.396 -0.1387  0.2512 -0.1742
    1DIPC   NC3 8161   8.852  24.129   7.341 -0.2425  0.0612  0.0190
    1DIPC   PO4 8162   8.948  23.799   7.043 -0.2768 -0.2554 -0.1686
    1DIPC   GL1 8163   8.750  23.695   6.718  0.1934  0.2081  0.1278
    1DIPC   GL2 8164   8.435  23.789   6.626  0.4517 -0.0848 -0.0984
    1DIPC   C1A 8165   8.885  23.694   6.222 -0.1853  0.0936 -0.0892
    1DIPC   D2A 8166   8.903  23.631   5.710  0.0277 -0.0679 -0.1190
    1DIPC   D3A 8167   9.000  23.765   5.364 -0.0061 -0.0394 -0.0499
    1DIPC   C4A 8168   9.057  24.230   5.403  0.2018  0.0368  0.1330
    1DIPC   C1B 8169   8.412  23.814   6.164 -0.0990  0.1692  0.0374
    1DIPC   D2B 8170   8.415  23.747   5.780  0.4152  0.1052  0.3696
    1DIPC   D3B 8171   7.969  23.646   5.550  0.1424  0.0994  0.1435
    1DIPC   C4B 8172   7.997  23.693   5.096 -0.1433  0.1583 -0.3198
    1DIPC   NC3 8173  16.909  14.889   7.523 -0.2537  0.0571  0.0752
    1DIPC   PO4 8174  17.069  14.589   7.669  0.0088 -0.3791 -0.1256
    1DIPC   GL1 8175  17.138  14.585   7.228  0.1206 -0.1020 -0.2310
    1DIPC   GL2 8176  17.152  14.330   7.062 -0.2317 -0.2809 -0.3489
    1DIPC   C1A 8177  17.227  14.839   6.940  0.3412  0.1920  0.0866
    1DIPC   D2A 8178  17.163  15.175   6.653 -0.0842 -0.0462  0.1993
    1DIPC   D3A 8179  16.880  15.029   6.307 -0.5613  0.0386 -0.0260
    1DIPC   C4A 8180  16.642  15.185   6.000  0.2572  0.3586  0.1408
    1DIPC   C1B 8181  17.283  14.288   6.741  0.2651 -0.1050 -0.1108
    1DIPC   D2B 8182  17.520  14.240   6.362 -0.2371 -0.1135  0.2143
    1DIPC   D3B 8183  17.518  14.563   6.084 -0.0201 -0.0426 -0.0193
    1DIPC   C4B 8184  17.815  14.913   6.350  0.0702  0.2597  0.1963
    1DIPC   NC3 8185  27.319  26.652   6.774 -0.5576  0.0605 -0.2841
    1DIPC   PO4 8186  27.760  26.648   7.037 -0.0709 -0.4429 -0.0903
    1DIPC   GL1 8187  27.791  26.921   6.624 -0.0743  0.2070  0.0760
    1DIPC   GL2 8188  27.938  26.842   6.349 -0.3097  0.0711  0.0750
    1DIPC   C1A 8189  27.838  27.332   6.323 -0.0319  0.1971 -0.3238
    1DIPC   D2A 8190  27.869  27.756   6.327 -0.3220  0.2152 -0.3184
    1DIPC   D3A 8191  27.414  27.513   6.468  0.0988 -0.1041 -0.2045
    1DIPC   C4A 8192  27.190  27.531   6.099 -0.1685 -0.0320  0.0566
    1DIPC   C1B 8193  27.946  26.780   5.969  0.2582 -0.1825 -0.2494
    1DIPC   D2B 8194   0.131  26.868   5.678  0.1021 -0.1587  0.1908
    1DIPC   D3B 8195  27.834  26.899   5.438 -0.0359  0.3209 -0.0496
    1DIPC   C4B 8196  27.896  27.044   4.974  0.1006  0.1391  0.2115
    1DIPC   NC3 8197  23.493  10.389   6.820  0.0825 -0.0631 -0.1532
    1DIPC   PO4 8198  23.128  10.345   6.668  0.0859  0.3757 -0.1364
    1DIPC   GL1 8199  22.840  10.202   6.355 -0.0089  0.1068 -0.1053
    1DIPC   GL2 8200  23.037  10.290   6.144 -0.0957  0.0077 -0.0294
    1DIPC   C1A 8201  22.503  10.433   6.112  0.0101 -0.0354  0.0853
    1DIPC   D2A 8202  22.498  10.802   6.218 -0.2357 -0.3623 -0.1013
    1DIPC   D3A 8203  22.073  10.712   6.153 -0.2251  0.4093  0.3327
    1DIPC   C4A 8204  22.134  10.419   5.804 -0.0263  0.0188  0.3735
    1DIPC   C1B 8205  23.030  10.720   6.026  0.0651 -0.2508  0.1151
    1DIPC   D2B 8206  23.196  10.959   5.710  0.0799  0.0381 -0.0440
    1DIPC   D3B 8207  23.100  10.804   5.284  0.1022 -0.2903 -0.3966
    1DIPC   C4B 8208  23.406  10.833   4.952  0.0313 -0.0169 -0.3091
    1DIPC   NC3 8209   7.076   4.278   6.967 -0.1136  0.2275 -0.0382
    1DIPC   PO4 8210   6.885   4.098   6.653  0.2242 -0.1042  0.0860
    1DIPC   GL1 8211   6.958   4.277   6.270 -0.1176 -0.0627  0.6106
    1DIPC   GL2 8212   7.185   4.527   6.192 -0.4372 -0.0597 -0.3291
    1DIPC   C1A 8213   7.218   4.041   5.931 -0.1737 -0.0921 -0.1649
    1DIPC   D2A 8214   7.250   3.728   5.757  0.1240  0.1345 -0.1288
    1DIPC   D3A 8215   7.666   3.873   5.738  0.4000 -0.0963 -0.2113
    1DIPC   C4A 8216   7.923   4.150   5.405 -0.1044 -0.4128  0.0376
    1DIPC   C1B 8217   7.126   4.504   5.732  0.1486  0.0943 -0.2437
    1DIPC   D2B 8218   7.376   4.237   5.507  0.0394  0.0009  0.1035
    1DIPC   D3B 8219   7.257   4.568   5.239  0.1310 -0.1683  0.0691
    1DIPC   C4B 8220   7.485   4.784   5.117 -0.2815 -0.2731  0.2429
    1DIPC   NC3 8221  12.863   2.494   7.611  0.1170  0.0749 -0.1965
    1DIPC   PO4 8222  13.256   2.502   7.308  0.1020  0.0791  0.2036
    1DIPC   GL1 8223  13.401   2.228   7.054 -0.1388  0.0976 -0.2363
    1DIPC   GL2 8224  13.319   2.352   6.745  0.0182 -0.0725 -0.0085
    1DIPC   C1A 8225  13.429   1.903   6.768  0.1067  0.1677 -0.0690
    1DIPC   D2A 8226  13.420   1.709   6.427  0.1790  0.2243  0.2417
    1DIPC   D3A 8227  13.112   1.910   6.042 -0.0982 -0.0402 -0.0461
    1DIPC   C4A 8228  13.188   2.124   5.786 -0.0858 -0.1046 -0.0359
    1DIPC   C1B 8229  13.467   2.150   6.355  0.0742 -0.1871  0.1803
    1DIPC   D2B 8230  13.626   1.857   5.978 -0.0912  0.0771 -0.0819
    1DIPC   D3B 8231  13.673   1.430   6.039 -0.2475  0.1852  0.0929
    1DIPC   C4B 8232  13.586   1.136   5.908 -0.0302  0.0512  0.1466
    1DIPC   NC3 8233   7.330  20.440   7.788 -0.0799 -0.0856  0.2151
    1DIPC   PO4 8234   7.657  20.244   7.665  0.0721  0.1288 -0.1841
    1DIPC   GL1 8235   7.614  20.424   7.324  0.0969 -0.2411  0.3334
    1DIPC   GL2 8236   7.285  20.337   7.273 -0.0480  0.1316  0.0152
    1DIPC   C1A 8237   7.722  20.379   6.983 -0.1968  0.3056  0.1710
    1DIPC   D2A 8238   7.797  19.973   6.731  0.0846  0.2360  0.0222
    1DIPC   D3A 8239   7.755  20.098   6.314  0.0490  0.3557  0.3238
    1DIPC   C4A 8240   7.393  19.833   6.035 -0.1760 -0.0321 -0.0272
    1DIPC   C1B 8241   7.079  20.466   6.878  0.0476 -0.0117  0.4837
    1DIPC   D2B 8242   7.018  20.713   6.501 -0.1052  0.0787  0.2493
    1DIPC   D3B 8243   6.813  21.160   6.437 -0.0976  0.1490  0.1413
    1DIPC   C4B 8244   6.545  21.026   6.156  0.1239  0.2322 -0.0655
    1DIPC   NC3 8245  21.517   2.035   7.133  0.1691  0.1317 -0.0683
    1DIPC   PO4 8246  21.536   1.563   7.153  0.1463  0.2289  0.0091
    1DIPC   GL1 8247  21.351   1.508   6.864  0.0898  0.1964 -0.0447
    1DIPC   GL2 8248  21.561   1.416   6.565  0.0314  0.3017 -0.0495
    1DIPC   C1A 8249  21.114   1.684   6.475  0.0017 -0.2042 -0.0705
    1DIPC   D2A 8250  21.126   2.055   6.224 -0.0722 -0.3166  0.1399
    1DIPC   D3A 8251  20.825   2.113   5.935  0.2133 -0.0837  0.1533
    1DIPC   C4A 8252  20.723   2.393   5.658  0.0121  0.1093 -0.3020
    1DIPC   C1B 8253  21.409   1.603   6.129  0.2570  0.3230  0.0690
    1DIPC   D2B 8254  20.978   1.673   5.904 -0.0809 -0.0025  0.0025
    1DIPC   D3B 8255  21.336   1.385   5.602  0.0926 -0.0829 -0.1784
    1DIPC   C4B 8256  21.266   1.061   5.335 -0.0121  0.1071 -0.0771
    1DIPC   NC3 8257   4.451   9.471   7.015  0.2724 -0.3065 -0.4370
    1DIPC   PO4 8258   4.791   9.221   6.766  0.0924 -0.1752  0.1393
    1DIPC   GL1 8259   4.654   9.672   6.617  0.3022  0.1948  0.1666
    1DIPC   GL2 8260   4.764   9.908   6.744  0.0834 -0.2535 -0.1255
    1DIPC   C1A 8261   4.472  10.018   6.321 -0.2171 -0.0075  0.2652
    1DIPC   D2A 8262   4.244  10.263   6.098 -0.0726 -0.2578 -0.2419
    1DIPC   D3A 8263   4.139  10.295   5.752  0.1130 -0.1449 -0.1596
    1DIPC   C4A 8264   4.256  10.051   5.542 -0.0764 -0.0602  0.3866
    1DIPC   C1B 8265   4.945  10.221   6.521  0.0735 -0.3410  0.2574
    1DIPC   D2B 8266   5.033  10.322   6.206 -0.0909  0.2787 -0.1536
    1DIPC   D3B 8267   4.903   9.786   6.127 -0.0751 -0.1141  0.2133
    1DIPC   C4B 8268   4.621   9.905   5.826  0.1579 -0.1596 -0.0194
    1DIPC   NC3 8269  23.962   4.630   7.806  0.0973  0.2397 -0.1183
    1DIPC   PO4 8270  23.871   4.644   7.303 -0.1512 -0.0544  0.1538
    1DIPC   GL1 8271  23.807   4.407   6.832 -0.0012  0.1086  0.0271
    1DIPC   GL2 8272  24.093   4.389   6.673  0.0637  0.4040 -0.0292
    1DIPC   C1A 8273  23.630   4.352   6.324 -0.1179  0.1183  0.2763
    1DIPC   D2A 8274  23.601   4.300   5.905 -0.3481  0.2968  0.1612
    1DIPC   D3A 8275  23.236   4.364   5.566 -0.1285  0.0202 -0.0183
    1DIPC   C4A 8276  23.297   4.629   5.208  0.0617 -0.2986  0.2424
    1DIPC   C1B 8277  24.081   4.572   6.305 -0.1541  0.0105  0.2596
    1DIPC   D2B 8278  24.080   4.654   5.881 -0.1651 -0.0459  0.0214
    1DIPC   D3B 8279  24.045   4.278   5.719  0.3793  0.2761  0.0084
    1DIPC   C4B 8280  24.171   4.292   5.134  0.0299 -0.0649 -0.0909
    1DIPC   NC3 8281  25.749  22.910   6.824 -0.1568  0.2472 -0.0373
    1DIPC   PO4 8282  26.159  23.122   6.685 -0.0131  0.2722  0.0380
    1DIPC   GL1 8283  26.157  22.736   6.351 -0.2440 -0.1556  0.2426
    1DIPC   GL2 8284  25.847  22.622   6.386 -0.0778  0.2076 -0.0842
    1DIPC   C1A 8285  26.151  22.490   5.958 -0.0652 -0.0303 -0.0282
    1DIPC   D2A 8286  26.319  22.305   5.600  0.2901 -0.1464 -0.0998
    1DIPC   D3A 8287  26.203  22.362   5.112 -0.1744  0.2845  0.1661
    1DIPC   C4A 8288  25.721  22.628   4.975 -0.1444 -0.0552 -0.2428
    1DIPC   C1B 8289  25.716  22.833   5.964 -0.1662  0.1807 -0.1245
    1DIPC   D2B 8290  25.499  22.842   5.487 -0.0931 -0.1209  0.0177
    1DIPC   D3B 8291  25.815  22.487   5.550  0.0660 -0.1073  0.0512
    1DIPC   C4B 8292  25.779  22.122   5.357  0.1119  0.1426 -0.0505
    1DIPC   NC3 8293  17.578   7.695   7.461 -0.0101  0.1084  0.0562
    1DIPC   PO4 8294  17.814   7.521   7.113 -0.1387 -0.2841  0.1185
    1DIPC   GL1 8295  17.946   7.582   6.660  0.0589  0.1620 -0.1529
    1DIPC   GL2 8296  18.043   7.875   6.769 -0.2446  0.0824  0.0126
    1DIPC   C1A 8297  17.686   7.539   6.290  0.3816 -0.1223  0.2665
    1DIPC   D2A 8298  17.711   7.288   5.943 -0.0215  0.1355  0.0320
    1DIPC   D3A 8299  17.827   7.617   5.665  0.1732  0.1689  0.0810
    1DIPC   C4A 8300  17.770   8.003   5.968 -0.0525 -0.2292  0.0709
    1DIPC   C1B 8301  17.822   8.096   6.487 -0.5669  0.2327 -0.1649
    1DIPC   D2B 8302  17.556   8.406   6.219 -0.0838 -0.0534  0.1652
    1DIPC   D3B 8303  17.386   8.327   5.727  0.1038 -0.2780  0.2475
    1DIPC   C4B 8304  17.657   8.025   5.429 -0.1601 -0.0883 -0.1659
    1DIPC   NC3 8305  25.648   9.402   6.782  0.3538  0.0246  0.1594
    1DIPC   PO4 8306  25.989   9.112   6.631 -0.2831 -0.0420  0.0284
    1DIPC   GL1 8307  25.701   9.251   6.321  0.2970 -0.3056 -0.0915
    1DIPC   GL2 8308  25.373   9.472   6.309 -0.0506 -0.0065  0.0904
    1DIPC   C1A 8309  25.730   9.384   5.830  0.2243 -0.1767 -0.0502
    1DIPC   D2A 8310  25.498   9.356   5.515 -0.1085 -0.1455  0.0072
    1DIPC   D3A 8311  25.180   9.229   5.278 -0.1452 -0.2741  0.1730
    1DIPC   C4A 8312  25.233   9.253   4.790 -0.3084 -0.0741 -0.3375
    1DIPC   C1B 8313  25.391   9.910   6.031  0.0319 -0.2384  0.0043
    1DIPC   D2B 8314  25.467   9.875   5.569 -0.5569 -0.0847  0.1154
    1DIPC   D3B 8315  25.403   9.704   5.105 -0.3976  0.1032 -0.3158
    1DIPC   C4B 8316  25.690   9.407   5.042  0.0070 -0.0355  0.1134
    1DIPC   NC3 8317  21.230   4.855   6.646 -0.2770 -0.0543  0.0802
    1DIPC   PO4 8318  20.892   5.225   6.498 -0.0913 -0.0299 -0.1136
    1DIPC   GL1 8319  20.941   5.297   6.072 -0.1067  0.1784 -0.0086
    1DIPC   GL2 8320  21.095   5.609   6.030 -0.1862  0.0028  0.1672
    1DIPC   C1A 8321  20.617   5.162   5.787 -0.1364  0.1029 -0.0745
    1DIPC   D2A 8322  20.398   5.149   5.366 -0.2703  0.0842  0.0508
    1DIPC   D3A 8323  20.419   5.495   5.368 -0.0830 -0.4623  0.0570
    1DIPC   C4A 8324  20.191   5.796   5.331 -0.0192 -0.2105 -0.0671
    1DIPC   C1B 8325  20.929   5.768   5.523  0.2994  0.0310 -0.2962
    1DIPC   D2B 8326  20.715   5.960   5.263  0.2839 -0.1223 -0.1612
    1DIPC   D3B 8327  20.859   5.642   4.987 -0.1141 -0.0663  0.1206
    1DIPC   C4B 8328  21.120   5.255   4.845  0.0112 -0.1885 -0.0491
    1DIPC   NC3 8329   0.574  27.482   6.672 -0.0828  0.0509 -0.0543
    1DIPC   PO4 8330   0.667  27.869   6.492  0.3084  0.2940 -0.1609
    1DIPC   GL1 8331   0.759  27.507   6.200  0.0403 -0.0587  0.1746
    1DIPC   GL2 8332   0.575  27.259   6.210 -0.2399  0.2241 -0.3853
    1DIPC   C1A 8333   0.981  27.376   5.971  0.0259 -0.2671  0.2115
    1DIPC   D2A 8334   1.285  27.491   5.681 -0.1994  0.2397  0.1110
    1DIPC   D3A 8335   1.721  27.559   5.753 -0.0319 -0.1178  0.1948
    1DIPC   C4A 8336   1.807  27.389   6.091  0.0607  0.2599  0.1623
    1DIPC   C1B 8337   0.569  27.251   5.736  0.2778  0.0674  0.1823
    1DIPC   D2B 8338   0.823  27.409   5.384 -0.1964  0.4063 -0.1729
    1DIPC   D3B 8339   0.751  27.484   4.964  0.0990 -0.2674  0.0784
    1DIPC   C4B 8340   0.419  27.234   4.777 -0.1419 -0.0911  0.0654
    1DIPC   NC3 8341  21.480   3.899   6.507 -0.3037 -0.1133  0.0019
    1DIPC   PO4 8342  21.827   4.214   6.479 -0.2191  0.3266  0.2052
    1DIPC   GL1 8343  21.843   4.181   6.014 -0.0575  0.2417 -0.1321
    1DIPC   GL2 8344  22.083   3.975   5.818 -0.1583 -0.1637 -0.0339
    1DIPC   C1A 8345  21.668   4.406   5.587 -0.2833 -0.0125  0.0369
    1DIPC   D2A 8346  21.466   4.207   5.269  0.0675  0.2032 -0.1605
    1DIPC   D3A 8347  21.449   4.579   5.118 -0.1072  0.0402  0.0670
    1DIPC   C4A 8348  21.150   4.633   4.850 -0.3460 -0.2485 -0.1488
    1DIPC   C1B 8349  21.928   3.914   5.431  0.0939 -0.0174 -0.1539
    1DIPC   D2B 8350  21.602   3.598   5.364 -0.2590 -0.0912 -0.0181
    1DIPC   D3B 8351  21.720   3.495   4.916 -0.1360 -0.0410  0.0379
    1DIPC   C4B 8352  21.754   3.918   4.869 -0.0506 -0.0081  0.2285
    1DIPC   NC3 8353  13.949   6.277   7.694  0.2259 -0.0212  0.1101
    1DIPC   PO4 8354  14.361   6.524   7.794  0.0665 -0.1531  0.0436
    1DIPC   GL1 8355  14.260   6.516   7.308 -0.3813  0.0324 -0.2791
    1DIPC   GL2 8356  13.938   6.558   7.261  0.3748  0.0710 -0.3456
    1DIPC   C1A 8357  14.261   6.262   6.936 -0.1326 -0.2548 -0.4576
    1DIPC   D2A 8358  14.319   6.461   6.508  0.3164  0.0972  0.0109
    1DIPC   D3A 8359  14.201   6.357   6.113 -0.2401  0.2810  0.0023
    1DIPC   C4A 8360  14.062   6.580   5.838  0.1100  0.0591 -0.1055
    1DIPC   C1B 8361  14.091   6.770   6.909  0.2117  0.6544  0.0816
    1DIPC   D2B 8362  14.015   6.933   6.381 -0.0056 -0.0084  0.0315
    1DIPC   D3B 8363  13.970   7.135   5.934 -0.5577 -0.2279  0.1183
    1DIPC   C4B 8364  14.189   7.066   5.597  0.1036  0.2211  0.1076
    1DIPC   NC3 8365  17.049  13.298   7.672 -0.0779  0.1483 -0.1203
    1DIPC   PO4 8366  17.331  13.152   7.452  0.1759 -0.0922  0.2487
    1DIPC   GL1 8367  17.046  13.271   7.131 -0.0460 -0.2967  0.2578
    1DIPC   GL2 8368  16.696  13.432   7.085 -0.1500  0.2059 -0.1498
    1DIPC   C1A 8369  17.195  13.244   6.706 -0.1614  0.0175  0.0699
    1DIPC   D2A 8370  17.442  13.324   6.315 -0.0757  0.2065  0.1103
    1DIPC   D3A 8371  17.302  13.317   5.982  0.1350  0.1974  0.1591
    1DIPC   C4A 8372  17.053  13.717   5.817 -0.2388  0.1284  0.1095
    1DIPC   C1B 8373  16.771  13.475   6.639 -0.2216  0.0638 -0.3372
    1DIPC   D2B 8374  16.944  13.576   6.320  0.1086  0.3085 -0.0558
    1DIPC   D3B 8375  16.713  13.518   6.069  0.0411 -0.3288  0.0250
    1DIPC   C4B 8376  16.754  13.471   5.606  0.1732 -0.1170 -0.2674
    1DIPC   NC3 8377  14.014  17.322   7.353  0.0534 -0.1400  0.1879
    1DIPC   PO4 8378  13.909  17.780   7.276 -0.0694 -0.3597 -0.1723
    1DIPC   GL1 8379  14.051  17.744   6.827  0.1337 -0.2592 -0.1595
    1DIPC   GL2 8380  13.913  17.918   6.654  0.1380 -0.0720 -0.1590
    1DIPC   C1A 8381  14.286  17.709   6.357 -0.0900 -0.4579 -0.0441
    1DIPC   D2A 8382  14.606  17.921   6.069  0.2454 -0.1246 -0.0840
    1DIPC   D3A 8383  14.578  17.679   5.643 -0.0714 -0.0184  0.1793
    1DIPC   C4A 8384  14.985  17.741   5.412  0.1664  0.0456 -0.0845
    1DIPC   C1B 8385  13.999  18.101   6.238 -0.2705 -0.1423 -0.2970
    1DIPC   D2B 8386  14.183  17.914   5.833  0.0410 -0.0259 -0.1209
    1DIPC   D3B 8387  14.021  17.462   5.907  0.1337  0.4440  0.1415
    1DIPC   C4B 8388  13.993  16.966   5.911  0.0519  0.1634 -0.2110
    1DIPC   NC3 8389   5.454   8.702   6.237 -0.3763  0.1239 -0.1041
    1DIPC   PO4 8390   5.689   8.386   6.227 -0.0616  0.3945 -0.0428
    1DIPC   GL1 8391   5.926   8.307   5.774  0.0836  0.1107  0.0222
    1DIPC   GL2 8392   6.000   7.982   5.639  0.1000  0.0142  0.0882
    1DIPC   C1A 8393   6.125   8.395   5.293 -0.0251 -0.0177 -0.1409
    1DIPC   D2A 8394   6.322   8.192   5.036  0.2665 -0.3038 -0.0065
    1DIPC   D3A 8395   6.229   8.409   4.725  0.0830 -0.2968 -0.2055
    1DIPC   C4A 8396   6.625   8.602   4.566 -0.2379 -0.1223  0.0930
    1DIPC   C1B 8397   6.341   7.961   5.962 -0.0363 -0.1901  0.0591
    1DIPC   D2B 8398   6.771   7.857   5.889 -0.1898 -0.0196 -0.3249
    1DIPC   D3B 8399   6.982   8.247   5.622  0.1219 -0.2212 -0.2494
    1DIPC   C4B 8400   7.046   8.081   5.289  0.0349 -0.0919  0.2245
    1DIPC   NC3 8401  26.897  21.924   7.388 -0.2859 -0.2574  0.4022
    1DIPC   PO4 8402  26.833  21.665   6.963 -0.0697 -0.1789 -0.0891
    1DIPC   GL1 8403  26.859  21.389   6.605 -0.0364 -0.1156  0.1039
    1DIPC   GL2 8404  26.695  21.597   6.379  0.0288  0.1188  0.1224
    1DIPC   C1A 8405  26.914  21.164   6.193 -0.0586 -0.0977  0.0742
    1DIPC   D2A 8406  27.202  20.998   5.928  0.0906 -0.1234  0.2678
    1DIPC   D3A 8407  27.618  20.771   5.856  0.1486 -0.0104  0.2005
    1DIPC   C4A 8408  27.626  20.375   5.815  0.1131 -0.1162 -0.0912
    1DIPC   C1B 8409  26.611  21.574   5.877  0.1739  0.1695  0.1086
    1DIPC   D2B 8410  26.688  21.647   5.468 -0.0503  0.2994  0.3046
    1DIPC   D3B 8411  26.794  21.224   5.625 -0.1528  0.1554  0.1136
    1DIPC   C4B 8412  27.044  20.964   5.379 -0.0155  0.1102 -0.2033
    1DIPC   NC3 8413   2.032  20.947   6.486 -0.1600 -0.2859 -0.1205
    1DIPC   PO4 8414   2.240  20.601   6.500 -0.2035 -0.0937 -0.2544
    1DIPC   GL1 8415   2.200  20.894   6.010 -0.0561 -0.1759  0.1069
    1DIPC   GL2 8416   2.111  21.176   5.952  0.3740 -0.0195 -0.0372
    1DIPC   C1A 8417   2.392  20.969   5.546 -0.0598  0.1506 -0.1028
    1DIPC   D2A 8418   2.606  20.789   5.217  0.1346 -0.2703 -0.3056
    1DIPC   D3A 8419   2.473  21.099   4.929 -0.2227  0.0373  0.2261
    1DIPC   C4A 8420   2.440  21.398   4.629  0.1062  0.4354  0.2964
    1DIPC   C1B 8421   1.794  21.051   5.640  0.0712 -0.1847  0.2608
    1DIPC   D2B 8422   1.547  20.920   5.431  0.0061 -0.1008 -0.0016
    1DIPC   D3B 8423   1.606  20.577   5.156 -0.0847  0.2758  0.2466
    1DIPC   C4B 8424   1.265  20.361   5.296  0.0020  0.1968 -0.1401
    1DIPC   NC3 8425  21.830  21.145   7.850 -0.0727 -0.1098 -0.0413
    1DIPC   PO4 8426  21.774  21.009   7.405  0.2113  0.0015  0.0755
    1DIPC   GL1 8427  21.964  20.867   7.021 -0.1147 -0.3553  0.2552
    1DIPC   GL2 8428  22.102  20.939   6.737  0.0378 -0.0655 -0.0977
    1DIPC   C1A 8429  22.067  20.461   6.776 -0.1896  0.0840  0.0861
    1DIPC   D2A 8430  22.350  20.101   6.709 -0.0929  0.1161  0.2795
    1DIPC   D3A 8431  22.236  20.328   6.359 -0.1167 -0.2941  0.2045
    1DIPC   C4A 8432  21.953  20.410   6.128  0.1560  0.0082  0.1412
    1DIPC   C1B 8433  21.670  20.807   6.633  0.1014 -0.1850  0.1415
    1DIPC   D2B 8434  21.277  20.800   6.581  0.1010  0.1560  0.1151
    1DIPC   D3B 8435  21.283  20.731   6.117  0.0533  0.2817  0.0307
    1DIPC   C4B 8436  20.992  20.882   5.808  0.1064 -0.1805 -0.2541
    1DIPC   NC3 8437  14.697  16.837   7.632 -0.0481  0.2033  0.1864
    1DIPC   PO4 8438  14.304  16.910   7.426 -0.0586 -0.3275  0.3167
    1DIPC   GL1 8439  14.156  16.954   6.998 -0.1543 -0.3445 -0.0942
    1DIPC   GL2 8440  13.798  17.065   6.994  0.0102  0.0089 -0.0797
    1DIPC   C1A 8441  14.250  16.642   6.795 -0.0679 -0.0535  0.0944
    1DIPC   D2A 8442  14.233  16.249   6.491  0.0274  0.1116 -0.0541
    1DIPC   D3A 8443  14.145  16.626   6.194 -0.2711  0.2336 -0.1319
    1DIPC   C4A 8444  14.482  16.771   5.922 -0.0269 -0.0578  0.2364
    1DIPC   C1B 8445  13.618  17.343   6.757 -0.0932 -0.0936  0.1977
    1DIPC   D2B 8446  13.681  17.543   6.349  0.0870  0.2113  0.0664
    1DIPC   D3B 8447  13.560  17.327   6.133 -0.1762 -0.1415  0.1614
    1DIPC   C4B 8448  13.561  17.354   5.735 -0.3459 -0.0459  0.2003
    1DIPC   NC3 8449  11.839   3.124   7.546 -0.0777  0.1148 -0.1798
    1DIPC   PO4 8450  11.901   2.652   7.671 -0.0071 -0.1443  0.1664
    1DIPC   GL1 8451  12.029   2.731   7.306  0.1255  0.1007  0.1233
    1DIPC   GL2 8452  11.976   2.481   7.146 -0.0539  0.4417  0.1138
    1DIPC   C1A 8453  11.849   2.806   6.842 -0.0192 -0.0806 -0.1046
    1DIPC   D2A 8454  12.094   2.952   6.501 -0.0080  0.0934 -0.1763
    1DIPC   D3A 8455  11.745   3.078   6.423  0.0517  0.0383 -0.0135
    1DIPC   C4A 8456  11.386   2.831   6.573 -0.2428  0.1246 -0.1947
    1DIPC   C1B 8457  11.543   2.448   7.023 -0.0987  0.0477 -0.0535
    1DIPC   D2B 8458  11.069   2.489   7.150  0.3343 -0.0954 -0.1383
    1DIPC   D3B 8459  10.871   2.727   6.762  0.1797  0.1939 -0.2519
    1DIPC   C4B 8460  10.904   2.674   6.356  0.2024  0.4360  0.1600
    1DIPC   NC3 8461   2.384  25.823   6.535  0.1363 -0.2153 -0.0443
    1DIPC   PO4 8462   2.097  25.522   6.255  0.0020 -0.0166 -0.0072
    1DIPC   GL1 8463   2.449  25.628   6.030  0.0548  0.0519 -0.0796
    1DIPC   GL2 8464   2.261  25.883   5.943 -0.1275  0.2480 -0.0381
    1DIPC   C1A 8465   2.844  25.751   5.768 -0.0584  0.0834  0.0290
    1DIPC   D2A 8466   3.116  25.952   5.669 -0.1090 -0.1690  0.1796
    1DIPC   D3A 8467   2.865  26.083   5.376 -0.2145 -0.1801  0.1326
    1DIPC   C4A 8468   2.844  25.983   4.953  0.0779  0.2538 -0.0413
    1DIPC   C1B 8469   2.499  26.164   5.717 -0.0289  0.2166 -0.0049
    1DIPC   D2B 8470   2.784  26.266   5.897  0.2908 -0.0445  0.3161
    1DIPC   D3B 8471   2.687  26.562   5.509  0.3149 -0.3322 -0.0494
    1DIPC   C4B 8472   2.823  26.469   5.026  0.0304  0.1367 -0.0954
    1DIPC   NC3 8473  26.256  24.542   6.539 -0.0881  0.2017  0.0113
    1DIPC   PO4 8474  26.169  24.079   6.621  0.0216  0.0665  0.2016
    1DIPC   GL1 8475  25.721  23.908   6.446  0.0844 -0.1734  0.1792
    1DIPC   GL2 8476  25.551  24.222   6.221  0.2204  0.2147 -0.0258
    1DIPC   C1A 8477  25.689  23.553   6.323 -0.2226 -0.1318 -0.1751
    1DIPC   D2A 8478  25.655  23.412   5.941 -0.1168  0.1606 -0.0866
    1DIPC   D3A 8479  25.444  23.424   5.549  0.3464 -0.0160 -0.0759
    1DIPC   C4A 8480  25.180  23.718   5.296 -0.0600  0.3930 -0.1107
    1DIPC   C1B 8481  25.744  23.905   5.969 -0.3692  0.0286 -0.0476
    1DIPC   D2B 8482  25.759  23.802   5.561 -0.2370  0.4056  0.3125
    1DIPC   D3B 8483  25.960  23.367   5.449 -0.2599 -0.3759 -0.1114
    1DIPC   C4B 8484  25.779  23.152   5.113 -0.1567 -0.0750 -0.0378
    1DIPC   NC3 8485   4.647  25.363   7.533 -0.2247 -0.0923  0.1065
    1DIPC   PO4 8486   4.804  25.250   7.083  0.2826 -0.1055 -0.0562
    1DIPC   GL1 8487   4.859  25.370   6.705  0.2641  0.2903  0.2024
    1DIPC   GL2 8488   4.804  25.741   6.737 -0.0415  0.1069  0.1255
    1DIPC   C1A 8489   4.944  25.501   6.345 -0.1361  0.1276 -0.1139
    1DIPC   D2A 8490   5.286  25.716   6.142  0.3468 -0.1443  0.0055
    1DIPC   D3A 8491   5.685  25.888   6.007  0.3580 -0.0495  0.1888
    1DIPC   C4A 8492   6.062  25.665   6.198 -0.0443  0.0452 -0.0105
    1DIPC   C1B 8493   4.812  26.015   6.285  0.0197  0.1068 -0.1522
    1DIPC   D2B 8494   4.671  26.192   5.889  0.1690 -0.1919  0.1371
    1DIPC   D3B 8495   4.338  25.882   6.202 -0.3286  0.0706  0.1057
    1DIPC   C4B 8496   4.455  25.478   6.349  0.1943  0.3321 -0.1055
    1DIPC   NC3 8497   8.702  12.046   7.627 -0.0853  0.0180  0.2706
    1DIPC   PO4 8498   8.962  12.252   7.455 -0.0229 -0.1796 -0.1351
    1DIPC   GL1 8499   9.115  12.443   7.060 -0.0761  0.0419 -0.0501
    1DIPC   GL2 8500   9.035  12.264   6.815 -0.0565  0.2638 -0.0135
    1DIPC   C1A 8501   9.330  12.818   7.021 -0.1720  0.2674  0.0877
    1DIPC   D2A 8502   9.554  13.151   7.310 -0.0696  0.0614  0.2582
    1DIPC   D3A 8503   9.563  13.274   6.839  0.3285  0.0138  0.0857
    1DIPC   C4A 8504   9.934  13.393   6.702  0.1749  0.0345  0.0845
    1DIPC   C1B 8505   8.875  12.093   6.408  0.1813 -0.2645  0.1909
    1DIPC   D2B 8506   8.844  11.834   6.003 -0.0289 -0.0510 -0.0045
    1DIPC   D3B 8507   9.060  11.457   6.032  0.2335 -0.0004 -0.0254
    1DIPC   C4B 8508   8.827  11.150   6.108  0.6528  0.1185  0.1559
    1DIPC   NC3 8509   4.390  13.831   7.159 -0.1036 -0.1575  0.3839
    1DIPC   PO4 8510   4.501  14.103   6.857 -0.0325 -0.1158 -0.0077
    1DIPC   GL1 8511   4.515  13.976   6.471 -0.3338  0.0956  0.0843
    1DIPC   GL2 8512   4.645  14.309   6.406 -0.2419 -0.0988  0.3955
    1DIPC   C1A 8513   4.847  13.943   6.014 -0.0340 -0.0019  0.0081
    1DIPC   D2A 8514   5.175  14.202   5.813  0.2311  0.1206  0.1787
    1DIPC   D3A 8515   5.316  14.065   5.413 -0.1941 -0.0993 -0.0400
    1DIPC   C4A 8516   5.055  13.876   5.150  0.3885  0.2381 -0.1115
    1DIPC   C1B 8517   4.459  14.269   6.041 -0.0172 -0.2053 -0.3318
    1DIPC   D2B 8518   4.264  14.273   5.687  0.1298 -0.1800 -0.2564
    1DIPC   D3B 8519   4.464  14.633   5.675 -0.0684 -0.0432  0.1291
    1DIPC   C4B 8520   4.306  15.073   5.766  0.0414  0.0969  0.2812
    1DIPC   NC3 8521  15.388   0.658   7.539  0.1463  0.0346 -0.0331
    1DIPC   PO4 8522  15.341   0.275   7.468  0.1466 -0.2388  0.3031
    1DIPC   GL1 8523  15.004   0.407   7.151  0.0609 -0.4300 -0.1642
    1DIPC   GL2 8524  14.687   0.600   7.030  0.1309  0.0192 -0.1839
    1DIPC   C1A 8525  14.992   0.216   6.753 -0.2252  0.0060  0.0727
    1DIPC   D2A 8526  15.081   0.308   6.366  0.2582  0.1501  0.0417
    1DIPC   D3A 8527  15.151   0.635   5.969 -0.4372 -0.1626 -0.0079
    1DIPC   C4A 8528  15.347   0.573   5.525  0.0782  0.2270  0.1904
    1DIPC   C1B 8529  14.930   0.776   6.711 -0.0696  0.0117 -0.2775
    1DIPC   D2B 8530  14.911   1.016   6.298  0.0034  0.2111  0.2408
    1DIPC   D3B 8531  15.257   1.226   6.232  0.1694  0.0507  0.2588
    1DIPC   C4B 8532  15.176   1.496   5.990  0.1376 -0.1079  0.0412
    1DIPC   NC3 8533  13.211  20.550   7.040  0.1750 -0.0601  0.1027
    1DIPC   PO4 8534  13.348  20.118   6.955  0.0118  0.2085 -0.0600
    1DIPC   GL1 8535  13.324  20.165   6.570 -0.4152 -0.0895  0.0776
    1DIPC   GL2 8536  13.450  20.533   6.632 -0.4645  0.0243 -0.1353
    1DIPC   C1A 8537  13.235  20.151   6.174 -0.1594 -0.0543 -0.0819
    1DIPC   D2A 8538  13.534  20.323   5.891  0.3163 -0.0911 -0.1623
    1DIPC   D3A 8539  13.349  19.943   5.734 -0.1430 -0.0320 -0.0538
    1DIPC   C4A 8540  13.567  19.624   5.614 -0.0893  0.1632  0.0670
    1DIPC   C1B 8541  13.359  20.721   6.157  0.2048 -0.0795 -0.0123
    1DIPC   D2B 8542  13.730  20.866   5.909 -0.0707  0.0984 -0.1796
    1DIPC   D3B 8543  13.800  20.615   5.587 -0.1624  0.2821  0.4565
    1DIPC   C4B 8544  13.754  20.142   5.474 -0.0022  0.0838 -0.1727
    1DIPC   NC3 8545   3.207  21.431   6.771 -0.0717  0.2170  0.0095
    1DIPC   PO4 8546   3.049  21.872   6.822 -0.0270 -0.2981  0.0089
    1DIPC   GL1 8547   3.065  21.713   6.383  0.0913  0.0519  0.2320
    1DIPC   GL2 8548   2.665  21.723   6.261 -0.2358  0.2047  0.0511
    1DIPC   C1A 8549   3.092  21.679   5.938 -0.1198  0.3329  0.0753
    1DIPC   D2A 8550   3.119  21.614   5.464 -0.0198  0.0410  0.0965
    1DIPC   D3A 8551   3.251  21.287   5.258 -0.0305 -0.1462  0.2393
    1DIPC   C4A 8552   3.357  21.353   4.851 -0.1078 -0.0580 -0.1986
    1DIPC   C1B 8553   2.381  21.744   5.923 -0.0119 -0.0849 -0.0154
    1DIPC   D2B 8554   2.143  22.133   5.799  0.3458 -0.0119  0.0643
    1DIPC   D3B 8555   2.116  22.230   5.387  0.1953 -0.4188  0.2688
    1DIPC   C4B 8556   2.363  21.917   5.113 -0.1174  0.0749  0.2272
    1DIPC   NC3 8557   4.256  20.304   7.363  0.3775  0.0309  0.1996
    1DIPC   PO4 8558   4.388  20.632   7.120  0.0149 -0.1058 -0.0127
    1DIPC   GL1 8559   4.415  20.392   6.715  0.1621 -0.0926  0.0602
    1DIPC   GL2 8560   4.128  20.122   6.637  0.0522  0.0437  0.0336
    1DIPC   C1A 8561   4.616  20.479   6.429  0.1225  0.3606  0.1153
    1DIPC   D2A 8562   4.929  20.498   6.177  0.2635  0.0143  0.0494
    1DIPC   D3A 8563   5.288  20.751   6.135  0.0072 -0.6613 -0.0024
    1DIPC   C4A 8564   5.248  20.971   6.551  0.1695 -0.2949 -0.0210
    1DIPC   C1B 8565   4.287  20.059   6.275  0.2227  0.0315 -0.0100
    1DIPC   D2B 8566   4.535  20.294   5.980  0.0791 -0.2006 -0.0758
    1DIPC   D3B 8567   4.693  20.106   5.622 -0.0006 -0.2736 -0.2456
    1DIPC   C4B 8568   4.763  20.248   5.182  0.1152  0.1837 -0.0252
    1DIPC   NC3 8569  20.780   2.713   7.320  0.2272  0.2451  0.0045
    1DIPC   PO4 8570  20.964   2.393   7.022  0.0315 -0.0657 -0.0597
    1DIPC   GL1 8571  21.050   2.658   6.761 -0.0366 -0.2212  0.4254
    1DIPC   GL2 8572  21.207   2.492   6.506 -0.0961 -0.2779  0.1129
    1DIPC   C1A 8573  20.985   3.010   6.529  0.1305  0.2436 -0.1413
    1DIPC   D2A 8574  20.997   3.164   6.275 -0.1183  0.3804 -0.0855
    1DIPC   D3A 8575  21.301   2.999   6.044 -0.0670 -0.2245 -0.1011
    1DIPC   C4A 8576  21.720   2.787   6.054  0.0820 -0.0906 -0.2800
    1DIPC   C1B 8577  21.182   2.519   6.034 -0.0899 -0.0548  0.0133
    1DIPC   D2B 8578  21.196   2.197   5.630  0.1849 -0.2716 -0.0640
    1DIPC   D3B 8579  21.073   1.883   5.458 -0.0086  0.0433  0.2156
    1DIPC   C4B 8580  21.393   1.674   5.185  0.0735  0.0318  0.1453
    1DIPC   NC3 8581  10.556   2.810   7.156 -0.1443  0.1234  0.0251
    1DIPC   PO4 8582  10.534   3.287   7.233  0.0333  0.2747 -0.1697
    1DIPC   GL1 8583  10.353   3.250   6.861  0.2925  0.0952 -0.3287
    1DIPC   GL2 8584  10.397   2.959   6.734 -0.1106  0.1394  0.2630
    1DIPC   C1A 8585  10.014   3.462   6.727  0.0922 -0.1058  0.2630
    1DIPC   D2A 8586   9.813   3.384   6.426  0.0263 -0.0428 -0.1866
    1DIPC   D3A 8587   9.969   3.840   6.347  0.2336 -0.1133 -0.0278
    1DIPC   C4A 8588  10.171   3.945   6.792  0.1999  0.0335  0.0855
    1DIPC   C1B 8589   9.994   2.909   6.636  0.0636  0.1649 -0.0232
    1DIPC   D2B 8590   9.528   2.941   6.436  0.0698 -0.1458  0.0698
    1DIPC   D3B 8591   9.517   3.021   6.042  0.3014  0.0425 -0.1325
    1DIPC   C4B 8592   9.633   3.407   5.942 -0.1159  0.1318  0.0560
    1DIPC   NC3 8593   1.014  19.769   6.522 -0.1875 -0.0113  0.1095
    1DIPC   PO4 8594   0.953  19.334   6.538  0.1832 -0.2730  0.0207
    1DIPC   GL1 8595   1.079  19.085   6.065  0.0786  0.1422  0.1648
    1DIPC   GL2 8596   1.390  18.904   6.149 -0.2626  0.1949  0.0576
    1DIPC   C1A 8597   0.868  19.163   5.663  0.0354 -0.0878 -0.2956
    1DIPC   D2A 8598   0.975  19.361   5.318  0.2256  0.0121  0.1853
    1DIPC   D3A 8599   1.125  18.979   5.126  0.1291 -0.0094  0.4853
    1DIPC   C4A 8600   1.070  18.808   4.754 -0.0707 -0.1903  0.0090
    1DIPC   C1B 8601   1.773  18.964   5.778 -0.4368 -0.2986 -0.1936
    1DIPC   D2B 8602   1.953  19.163   5.545 -0.0723  0.2217  0.1523
    1DIPC   D3B 8603   1.648  19.129   5.165 -0.1340  0.1350  0.3617
    1DIPC   C4B 8604   1.790  18.795   4.907  0.0586 -0.0984  0.0335
    1DIPC   NC3 8605  19.240   8.703   7.156 -0.0181 -0.0708 -0.1363
    1DIPC   PO4 8606  19.182   9.177   7.153  0.1295  0.0647  0.2116
    1DIPC   GL1 8607  19.100   9.198   6.824  0.3466  0.0309  0.0388
    1DIPC   GL2 8608  18.769   9.005   6.916  0.0656  0.4907 -0.0074
    1DIPC   C1A 8609  18.834   9.214   6.431 -0.1209 -0.0776 -0.0655
    1DIPC   D2A 8610  18.768   9.147   5.984  0.1440  0.0884 -0.0506
    1DIPC   D3A 8611  19.018   9.531   5.869  0.0205 -0.0618  0.1235
    1DIPC   C4A 8612  18.866   9.934   5.737 -0.0274  0.1245 -0.2392
    1DIPC   C1B 8613  18.449   8.872   6.655 -0.0658  0.0086 -0.1549
    1DIPC   D2B 8614  18.425   8.911   6.237  0.1024 -0.0344 -0.0782
    1DIPC   D3B 8615  17.919   8.854   6.083 -0.2259  0.3869 -0.0269
    1DIPC   C4B 8616  17.660   8.866   6.476 -0.1313 -0.0512 -0.0585
    1DIPC   NC3 8617  18.980  22.479   7.812  0.1547  0.3613  0.0457
    1DIPC   PO4 8618  19.127  22.494   7.371 -0.0307  0.0691 -0.1778
    1DIPC   GL1 8619  18.989  22.300   6.875 -0.0652 -0.0064  0.0546
    1DIPC   GL2 8620  18.653  22.250   6.795 -0.0847 -0.0007 -0.0179
    1DIPC   C1A 8621  18.939  22.219   6.474  0.2125 -0.1521  0.2026
    1DIPC   D2A 8622  18.735  22.301   6.020 -0.1910  0.0987  0.1574
    1DIPC   D3A 8623  19.092  22.231   5.633  0.1249  0.1919 -0.1074
    1DIPC   C4A 8624  19.197  22.500   5.362  0.0466  0.1093  0.3452
    1DIPC   C1B 8625  18.602  21.894   6.422 -0.1349  0.1963  0.0548
    1DIPC   D2B 8626  18.700  21.534   6.255 -0.2666 -0.1674 -0.1758
    1DIPC   D3B 8627  18.816  21.796   5.933 -0.0084  0.0712  0.3812
    1DIPC   C4B 8628  19.141  22.028   6.067  0.1006 -0.1772 -0.1403
    1DIPC   NC3 8629  13.820  14.402   7.434 -0.0663  0.3000  0.0070
    1DIPC   PO4 8630  13.801  14.051   7.130  0.1690 -0.4475  0.3133
    1DIPC   GL1 8631  13.699  13.860   6.806  0.0979  0.1046  0.0001
    1DIPC   GL2 8632  13.862  13.622   6.900  0.0638  0.1366  0.2797
    1DIPC   C1A 8633  13.419  13.797   6.369  0.1355  0.0503 -0.4118
    1DIPC   D2A 8634  13.310  14.181   6.213 -0.1922 -0.0905 -0.1146
    1DIPC   D3A 8635  13.111  13.985   5.877  0.1753 -0.1791  0.3002
    1DIPC   C4A 8636  12.844  13.747   5.630  0.1471 -0.0709  0.2508
    1DIPC   C1B 8637  13.596  13.375   6.776 -0.0301  0.0079  0.1436
    1DIPC   D2B 8638  13.338  13.338   6.590 -0.3237 -0.0463 -0.1303
    1DIPC   D3B 8639  13.149  12.979   6.550  0.1054  0.1489  0.2858
    1DIPC   C4B 8640  13.421  12.618   6.841  0.3715 -0.3323  0.0238
    1DIPC   NC3 8641  20.906   3.754   6.912  0.2377 -0.0116  0.3813
    1DIPC   PO4 8642  21.048   3.956   6.633  0.2453  0.2529  0.2829
    1DIPC   GL1 8643  20.716   3.999   6.306 -0.0593  0.1494  0.1073
    1DIPC   GL2 8644  20.609   4.275   6.088  0.2064  0.2602  0.2195
    1DIPC   C1A 8645  20.666   3.740   6.006  0.1858  0.0919 -0.0257
    1DIPC   D2A 8646  20.843   3.475   5.856  0.1462  0.2587 -0.2962
    1DIPC   D3A 8647  21.283   3.442   5.779 -0.1004 -0.1763 -0.0096
    1DIPC   C4A 8648  21.572   3.775   5.842 -0.1091  0.1629  0.1161
    1DIPC   C1B 8649  20.905   4.231   5.855 -0.1381 -0.2880  0.0485
    1DIPC   D2B 8650  21.263   4.095   5.699 -0.0537 -0.1380  0.1772
    1DIPC   D3B 8651  20.951   3.817   5.499 -0.1453  0.1637 -0.0573
    1DIPC   C4B 8652  21.163   3.571   5.265 -0.1797 -0.0644 -0.0636
    1DIPC   NC3 8653  17.547   7.004   6.957 -0.0570  0.0300  0.1605
    1DIPC   PO4 8654  17.938   6.680   7.154  0.1696  0.1890  0.0653
    1DIPC   GL1 8655  17.714   6.570   6.697  0.2331 -0.1272  0.0707
    1DIPC   GL2 8656  17.806   6.258   6.593  0.2005  0.0919 -0.0180
    1DIPC   C1A 8657  17.793   6.558   6.227 -0.0839 -0.1220  0.3578
    1DIPC   D2A 8658  17.803   6.458   5.849  0.1301  0.0505  0.1349
    1DIPC   D3A 8659  18.102   6.814   5.863  0.2383 -0.0848  0.2168
    1DIPC   C4A 8660  18.518   6.822   5.867 -0.0917 -0.0153 -0.1761
    1DIPC   C1B 8661  17.783   6.015   6.238  0.0215 -0.1425 -0.0529
    1DIPC   D2B 8662  17.717   5.981   5.819 -0.2481  0.0108 -0.1500
    1DIPC   D3B 8663  17.373   6.043   5.629 -0.2472 -0.2597  0.0868
    1DIPC   C4B 8664  17.245   5.717   5.288 -0.3033  0.2345 -0.0920
    1DIPC   NC3 8665  14.663  11.755   8.245  0.2794 -0.0420 -0.1224
    1DIPC   PO4 8666  15.012  11.891   7.993  0.2947 -0.0578  0.0933
    1DIPC   GL1 8667  15.074  11.790   7.635 -0.0890 -0.0514 -0.2579
    1DIPC   GL2 8668  14.836  12.000   7.493 -0.0177  0.1103 -0.2407
    1DIPC   C1A 8669  15.142  11.603   7.280  0.1269  0.1658  0.2520
    1DIPC   D2A 8670  15.385  11.701   6.963 -0.1682 -0.2288  0.1598
    1DIPC   D3A 8671  15.175  12.008   6.644  0.0363  0.3607 -0.1254
    1DIPC   C4A 8672  15.060  12.055   6.165  0.0230 -0.2347  0.2420
    1DIPC   C1B 8673  14.362  11.967   7.293 -0.2589  0.1139 -0.0330
    1DIPC   D2B 8674  14.214  11.928   6.861 -0.4440 -0.2198  0.0323
    1DIPC   D3B 8675  14.215  11.525   6.877  0.1271  0.0361  0.0632
    1DIPC   C4B 8676  13.826  11.278   7.031  0.2932  0.0533  0.1796
    1DIPC   NC3 8677  16.740   6.631   7.203  0.2097  0.1951  0.0461
    1DIPC   PO4 8678  17.094   6.905   7.154 -0.1299  0.0224  0.0602
    1DIPC   GL1 8679  16.849   6.756   6.748  0.0321  0.1443  0.2215
    1DIPC   GL2 8680  17.149   6.881   6.644  0.0759  0.1409 -0.0391
    1DIPC   C1A 8681  16.680   7.066   6.349  0.2703  0.0689  0.0966
    1DIPC   D2A 8682  16.676   7.153   5.913  0.0103  0.0375  0.0153
    1DIPC   D3A 8683  16.669   6.762   5.610  0.1060 -0.0617  0.2211
    1DIPC   C4A 8684  16.298   6.829   5.267 -0.4305 -0.0478 -0.2193
    1DIPC   C1B 8685  17.299   6.540   6.462 -0.1698  0.2243 -0.3041
    1DIPC   D2B 8686  17.375   6.275   6.127  0.0909  0.0310 -0.1359
    1DIPC   D3B 8687  17.331   6.028   6.569 -0.1256 -0.1051 -0.0677
    1DIPC   C4B 8688  17.387   5.531   6.539  0.4567  0.1977 -0.2452
    1DIPC   NC3 8689   4.952  17.160   7.479  0.0633 -0.1384 -0.0580
    1DIPC   PO4 8690   4.780  16.768   7.399  0.0167 -0.0504 -0.1233
    1DIPC   GL1 8691   4.888  16.600   6.906 -0.3008 -0.0591  0.3244
    1DIPC   GL2 8692   4.789  16.725   6.577 -0.2926 -0.0533 -0.1689
    1DIPC   C1A 8693   5.258  16.453   6.850 -0.1519  0.0291 -0.1459
    1DIPC   D2A 8694   5.663  16.436   6.840 -0.1200 -0.3422 -0.3766
    1DIPC   D3A 8695   5.877  16.563   6.352  0.0939 -0.0233 -0.4046
    1DIPC   C4A 8696   5.943  16.412   5.883  0.0180 -0.4984 -0.2276
    1DIPC   C1B 8697   4.797  16.871   6.228 -0.0103 -0.1743  0.0039
    1DIPC   D2B 8698   4.660  17.290   6.118  0.0895  0.0340  0.2229
    1DIPC   D3B 8699   4.575  17.753   6.184  0.1700 -0.0244 -0.0635
    1DIPC   C4B 8700   4.618  17.813   6.495 -0.1749 -0.0695  0.2124
    1DIPC   NC3 8701  26.616   6.560   6.469 -0.2109  0.1222 -0.1636
    1DIPC   PO4 8702  26.248   6.694   6.339 -0.1094  0.0096 -0.0875
    1DIPC   GL1 8703  26.305   6.378   6.009 -0.0676 -0.1081 -0.1789
    1DIPC   GL2 8704  26.639   6.524   5.998  0.0844  0.1014 -0.0405
    1DIPC   C1A 8705  26.096   6.378   5.597 -0.2339  0.1247 -0.0125
    1DIPC   D2A 8706  26.069   6.152   5.163  0.1228  0.0152  0.1138
    1DIPC   D3A 8707  25.668   6.221   5.038 -0.1193 -0.1531  0.1607
    1DIPC   C4A 8708  25.430   6.399   4.742  0.1447  0.0044  0.0554
    1DIPC   C1B 8709  26.677   6.412   5.590  0.0227 -0.0758  0.0436
    1DIPC   D2B 8710  26.537   6.239   5.250 -0.2409  0.0912 -0.0488
    1DIPC   D3B 8711  26.692   5.969   4.920  0.2475  0.2672 -0.1463
    1DIPC   C4B 8712  26.933   6.125   4.572  0.1888  0.0585  0.0243
    1DIPC   NC3 8713  23.112  22.512   6.811  0.2747  0.0406  0.1521
    1DIPC   PO4 8714  23.251  22.876   6.568  0.0210  0.1590  0.0823
    1DIPC   GL1 8715  23.164  22.854   6.192 -0.1402  0.1668 -0.1055
    1DIPC   GL2 8716  23.070  22.461   6.252  0.0489  0.2722  0.1525
    1DIPC   C1A 8717  22.993  23.077   5.811 -0.0337  0.1261 -0.0079
    1DIPC   D2A 8718  23.013  23.163   5.394 -0.0078 -0.1614  0.1689
    1DIPC   D3A 8719  22.766  23.433   5.531 -0.0298 -0.0367 -0.2039
    1DIPC   C4A 8720  22.494  23.619   5.356 -0.0710 -0.0487  0.0256
    1DIPC   C1B 8721  23.184  22.510   5.872  0.0480  0.1325  0.1572
    1DIPC   D2B 8722  22.977  22.675   5.446 -0.0112  0.3669 -0.0654
    1DIPC   D3B 8723  22.699  22.637   5.078 -0.2645  0.0379  0.0356
    1DIPC   C4B 8724  22.575  22.304   4.847 -0.3306 -0.1967  0.0393
    1DIPC   NC3 8725  21.923  17.336   7.518 -0.1326  0.2547 -0.3491
    1DIPC   PO4 8726  21.990  16.995   7.323 -0.1761 -0.1786 -0.0966
    1DIPC   GL1 8727  22.153  16.948   6.893 -0.1084 -0.2837  0.1816
    1DIPC   GL2 8728  22.375  16.751   6.812  0.1590  0.2158  0.2777
    1DIPC   C1A 8729  22.311  17.115   6.514 -0.0157 -0.1368  0.0247
    1DIPC   D2A 8730  22.245  17.263   6.063  0.0825  0.2625  0.0882
    1DIPC   D3A 8731  22.130  17.115   5.610  0.0296  0.1728  0.0223
    1DIPC   C4A 8732  21.909  17.269   5.290 -0.3877  0.1259 -0.0031
    1DIPC   C1B 8733  22.367  16.578   6.288 -0.2580  0.0309 -0.5277
    1DIPC   D2B 8734  22.502  16.284   6.133 -0.2478  0.1531 -0.1060
    1DIPC   D3B 8735  22.815  16.329   5.808  0.0402  0.3207  0.3002
    1DIPC   C4B 8736  22.714  16.534   5.545 -0.3648 -0.0500  0.0764
    1DIPC   NC3 8737  21.676  23.045   7.233 -0.3080 -0.0934 -0.0921
    1DIPC   PO4 8738  21.834  23.359   7.240 -0.1821  0.1182 -0.0743
    1DIPC   GL1 8739  21.914  23.213   6.858 -0.1506 -0.0846 -0.2745
    1DIPC   GL2 8740  21.995  23.437   6.697 -0.1437 -0.2410 -0.3156
    1DIPC   C1A 8741  21.711  22.907   6.628 -0.2395  0.0707  0.0339
    1DIPC   D2A 8742  21.755  22.559   6.492 -0.0028  0.1335  0.0300
    1DIPC   D3A 8743  21.663  22.681   5.991 -0.2034 -0.1063 -0.1945
    1DIPC   C4A 8744  21.387  23.060   6.152 -0.0580  0.1403  0.0126
    1DIPC   C1B 8745  21.900  23.261   6.331 -0.3226 -0.0382  0.0530
    1DIPC   D2B 8746  21.745  23.301   5.892 -0.1505 -0.0108 -0.2100
    1DIPC   D3B 8747  21.402  23.362   5.689 -0.0682  0.2808  0.0168
    1DIPC   C4B 8748  21.215  23.757   5.670  0.0447 -0.1155  0.3975
    1DIPC   NC3 8749  22.356  21.041   7.331 -0.1982  0.2193 -0.4096
    1DIPC   PO4 8750  22.775  21.145   7.140  0.3380  0.2624  0.2298
    1DIPC   GL1 8751  22.842  21.134   6.712 -0.0927  0.2032 -0.0800
    1DIPC   GL2 8752  23.106  21.103   6.632 -0.0099 -0.1392  0.0552
    1DIPC   C1A 8753  22.597  21.177   6.378 -0.0855  0.2657  0.4031
    1DIPC   D2A 8754  22.685  21.026   5.916 -0.2805  0.1027 -0.1798
    1DIPC   D3A 8755  22.726  21.490   5.966  0.0583  0.0018 -0.0326
    1DIPC   C4A 8756  22.825  21.708   5.681  0.0967 -0.0517  0.0664
    1DIPC   C1B 8757  23.513  21.167   6.347  0.0297 -0.3662  0.1539
    1DIPC   D2B 8758  23.772  21.346   6.162 -0.3158 -0.2031 -0.0149
    1DIPC   D3B 8759  23.536  21.728   6.258 -0.1499  0.0662  0.0749
    1DIPC   C4B 8760  23.499  22.195   6.054  0.3082 -0.0060 -0.0233
    1DIPC   NC3 8761  16.433  21.316   7.232 -0.0201  0.0768 -0.0342
    1DIPC   PO4 8762  16.691  20.916   7.254  0.0702  0.1370  0.0199
    1DIPC   GL1 8763  16.702  20.671   6.768 -0.0199 -0.1523 -0.0450
    1DIPC   GL2 8764  16.543  20.771   6.501  0.3776 -0.1741  0.1295
    1DIPC   C1A 8765  16.779  20.222   6.696 -0.0848 -0.1615  0.0206
    1DIPC   D2A 8766  16.875  19.894   6.384 -0.1930 -0.1276 -0.1380
    1DIPC   D3A 8767  17.146  19.520   6.472  0.1741 -0.0505 -0.0420
    1DIPC   C4A 8768  17.216  19.212   6.138 -0.0334 -0.0488  0.0543
    1DIPC   C1B 8769  16.558  20.791   5.970 -0.2105  0.3959 -0.0212
    1DIPC   D2B 8770  16.549  20.949   5.517  0.0164  0.1069 -0.0343
    1DIPC   D3B 8771  16.642  20.461   5.491 -0.3678 -0.0408 -0.1883
    1DIPC   C4B 8772  16.306  20.186   5.609 -0.2440  0.2835  0.0516
    1DIPC   NC3 8773  23.236  23.762   7.194 -0.0008  0.2975  0.0735
    1DIPC   PO4 8774  23.657  23.695   6.998 -0.0002 -0.0777  0.0878
    1DIPC   GL1 8775  23.442  23.841   6.605  0.2323 -0.3504 -0.2049
    1DIPC   GL2 8776  23.148  23.848   6.575  0.2337 -0.0120  0.2565
    1DIPC   C1A 8777  23.632  23.775   6.179  0.3171 -0.0268  0.2123
    1DIPC   D2A 8778  23.803  23.752   5.727  0.1178 -0.3006 -0.2592
    1DIPC   D3A 8779  23.759  23.841   5.351 -0.0751 -0.2746 -0.1994
    1DIPC   C4A 8780  23.392  24.099   5.398  0.0098 -0.0002  0.1299
    1DIPC   C1B 8781  23.119  23.722   6.152  0.0614 -0.0992  0.0672
    1DIPC   D2B 8782  23.301  23.870   5.840 -0.4422  0.0127  0.0681
    1DIPC   D3B 8783  23.560  24.195   5.948 -0.1476  0.1443  0.1243
    1DIPC   C4B 8784  23.793  24.299   5.560 -0.0282 -0.1530 -0.1273
    1DIPC   NC3 8785  15.724   5.273   7.109 -0.1737  0.5329  0.0896
    1DIPC   PO4 8786  15.777   5.628   7.084  0.0457 -0.0417 -0.2090
    1DIPC   GL1 8787  15.661   5.791   6.741 -0.2152 -0.1024  0.1736
    1DIPC   GL2 8788  15.410   5.441   6.657  0.1018 -0.0220 -0.0448
    1DIPC   C1A 8789  15.455   5.850   6.349  0.0591 -0.1444 -0.0549
    1DIPC   D2A 8790  15.251   5.741   5.971 -0.0326  0.0001  0.1286
    1DIPC   D3A 8791  14.861   6.039   5.921  0.0703 -0.0319  0.1022
    1DIPC   C4A 8792  14.519   6.122   5.581  0.0646  0.0684 -0.2475
    1DIPC   C1B 8793  15.352   5.340   6.280 -0.1452 -0.2350  0.2949
    1DIPC   D2B 8794  15.130   5.118   6.163  0.0274 -0.0910  0.1318
    1DIPC   D3B 8795  15.232   5.245   5.718  0.2988 -0.2754 -0.1244
    1DIPC   C4B 8796  14.832   5.532   5.679  0.0767  0.2164  0.1342
    1DIPC   NC3 8797  27.445  10.072   6.548  0.0844 -0.1084 -0.1114
    1DIPC   PO4 8798  27.102  10.301   6.812  0.1531 -0.1466 -0.0708
    1DIPC   GL1 8799  27.006  10.461   6.381 -0.1706  0.2785 -0.0768
    1DIPC   GL2 8800  27.362  10.431   6.178 -0.0481  0.0056 -0.1847
    1DIPC   C1A 8801  26.824  10.393   6.000 -0.1923  0.3362 -0.5138
    1DIPC   D2A 8802  26.455  10.555   5.833  0.1212 -0.2624 -0.0460
    1DIPC   D3A 8803  26.395  10.837   5.497  0.1325  0.3642 -0.2641
    1DIPC   C4A 8804  26.456  10.562   5.174 -0.0358  0.2809  0.1477
    1DIPC   C1B 8805  27.438  10.354   5.768 -0.1190  0.0604  0.0052
    1DIPC   D2B 8806  27.546  10.318   5.331  0.0799 -0.5036 -0.1278
    1DIPC   D3B 8807  27.122  10.323   5.164 -0.1394  0.2426  0.0892
    1DIPC   C4B 8808  26.957  10.360   5.487  0.1042  0.0735  0.1175
    1DIPC   NC3 8809  11.195  27.352   6.953 -0.0403 -0.0104  0.0675
    1DIPC   PO4 8810  10.948  27.749   6.660 -0.0288 -0.3541  0.0899
    1DIPC   GL1 8811  10.794  27.618   6.274  0.5487  0.0614 -0.1206
    1DIPC   GL2 8812  10.582  27.909   6.277  0.1457  0.1048  0.0062
    1DIPC   C1A 8813  10.645  27.746   5.826  0.3331 -0.0401 -0.0721
    1DIPC   D2A 8814  10.725  27.700   5.440 -0.2284  0.0262 -0.3831
    1DIPC   D3A 8815  10.813  28.124   5.278 -0.1390  0.0337  0.0873
    1DIPC   C4A 8816  10.537   0.309   5.072 -0.0628 -0.0783  0.3209
    1DIPC   C1B 8817  10.620   0.096   6.036 -0.2924  0.0417  0.1754
    1DIPC   D2B 8818  10.803   0.311   5.596 -0.0234  0.0411 -0.2108
    1DIPC   D3B 8819  11.237   0.400   5.528  0.0412 -0.2234 -0.1263
    1DIPC   C4B 8820  11.542   0.195   5.735 -0.0299  0.0915  0.1047
    1DIPC   NC3 8821  15.648  10.747   7.721 -0.0359 -0.1337 -0.1551
    1DIPC   PO4 8822  15.396  10.904   7.530 -0.1902  0.0891  0.3692
    1DIPC   GL1 8823  15.743  10.898   7.147  0.0186 -0.2976  0.1381
    1DIPC   GL2 8824  15.533  10.746   6.971 -0.0056  0.4274 -0.1692
    1DIPC   C1A 8825  15.905  10.994   6.699  0.0749  0.0888 -0.1230
    1DIPC   D2A 8826  16.131  10.845   6.398 -0.2441  0.0520 -0.2346
    1DIPC   D3A 8827  16.158  10.412   6.460  0.3386 -0.0566  0.0871
    1DIPC   C4A 8828  15.834  10.059   6.380  0.0070  0.1916 -0.0777
    1DIPC   C1B 8829  15.607  10.591   6.424 -0.0039 -0.0752 -0.1695
    1DIPC   D2B 8830  15.353  10.486   6.068  0.1867 -0.1922 -0.1032
    1DIPC   D3B 8831  14.986  10.149   6.025 -0.0697 -0.1752 -0.0152
    1DIPC   C4B 8832  14.657  10.193   5.696 -0.0319  0.0358 -0.0399
    1DIPC   NC3 8833   0.817  17.459   6.901 -0.2633 -0.2868  0.0106
    1DIPC   PO4 8834   0.730  17.794   6.650 -0.3031 -0.2714 -0.2826
    1DIPC   GL1 8835   0.615  17.405   6.389  0.0393  0.0873 -0.1401
    1DIPC   GL2 8836   0.701  17.554   6.117  0.0233  0.2151 -0.0726
    1DIPC   C1A 8837   0.393  17.151   6.116  0.1037 -0.1221 -0.4707
    1DIPC   D2A 8838   0.222  17.513   5.877 -0.1151  0.0458 -0.4894
    1DIPC   D3A 8839   0.254  17.240   5.591 -0.1583 -0.1116 -0.0487
    1DIPC   C4A 8840   0.014  17.163   5.162 -0.0728  0.1963  0.0179
    1DIPC   C1B 8841   0.738  17.353   5.844 -0.0908 -0.0583  0.0985
    1DIPC   D2B 8842   0.695  17.347   5.387  0.1838 -0.2517  0.0452
    1DIPC   D3B 8843   0.741  17.784   5.590 -0.1547 -0.0765  0.0239
    1DIPC   C4B 8844   0.761  17.977   5.260  0.1279  0.2607  0.1085
    1DIPC   NC3 8845  12.952   1.214   8.259  0.3459 -0.1336 -0.1368
    1DIPC   PO4 8846  12.947   1.387   7.794 -0.0765  0.2438  0.1966
    1DIPC   GL1 8847  12.946   1.545   7.343  0.1121 -0.0688  0.1026
    1DIPC   GL2 8848  13.187   1.606   7.109 -0.0281 -0.0804  0.0739
    1DIPC   C1A 8849  12.694   1.388   6.915  0.0894 -0.0427  0.0226
    1DIPC   D2A 8850  12.460   1.642   6.699 -0.0671 -0.0085 -0.1427
    1DIPC   D3A 8851  12.453   1.312   6.445  0.0667 -0.2609 -0.0615
    1DIPC   C4A 8852  12.817   1.236   6.326  0.1436 -0.0028  0.0552
    1DIPC   C1B 8853  12.958   1.853   6.839  0.1105 -0.1514 -0.0805
    1DIPC   D2B 8854  12.821   1.814   6.427  0.0293  0.2338  0.1064
    1DIPC   D3B 8855  12.978   2.204   6.387 -0.0815 -0.0688 -0.0431
    1DIPC   C4B 8856  12.884   2.591   6.684  0.0077  0.4126 -0.0162
    1DIPC   NC3 8857  12.629  24.618   6.371 -0.2216 -0.1226  0.1045
    1DIPC   PO4 8858  12.723  24.243   6.307 -0.0716  0.1125  0.0214
    1DIPC   GL1 8859  12.600  24.336   5.924 -0.1255  0.0647  0.0679
    1DIPC   GL2 8860  12.752  24.213   5.825  0.0262  0.1860  0.1331
    1DIPC   C1A 8861  12.429  24.683   5.703  0.1540  0.0264  0.1081
    1DIPC   D2A 8862  12.522  25.076   5.701 -0.2235  0.1602  0.0319
    1DIPC   D3A 8863  12.120  25.181   5.627 -0.1027 -0.0326 -0.0377
    1DIPC   C4A 8864  11.960  25.560   5.383 -0.0047  0.0198  0.0729
    1DIPC   C1B 8865  13.213  24.341   5.800  0.2051  0.0101  0.0108
    1DIPC   D2B 8866  13.471  24.697   6.036  0.2452  0.0262 -0.1368
    1DIPC   D3B 8867  13.706  24.458   5.644 -0.2338  0.0433 -0.2238
    1DIPC   C4B 8868  13.543  24.242   5.215  0.1424  0.0136  0.1557
    1DIPC   NC3 8869   6.150  10.406   7.124 -0.0716 -0.3484  0.0874
    1DIPC   PO4 8870   5.951  10.113   6.751  0.0625  0.0871 -0.0042
    1DIPC   GL1 8871   5.989  10.277   6.356 -0.0814 -0.2767  0.1751
    1DIPC   GL2 8872   5.719  10.378   6.261 -0.1704 -0.0357  0.1276
    1DIPC   C1A 8873   6.110  10.671   6.298  0.1328 -0.3875 -0.0018
    1DIPC   D2A 8874   6.360  11.090   6.387 -0.0587 -0.0513 -0.2083
    1DIPC   D3A 8875   6.131  11.118   5.998  0.1615  0.2998 -0.5123
    1DIPC   C4A 8876   6.409  11.176   5.670 -0.2337  0.0246  0.1575
    1DIPC   C1B 8877   5.844  10.222   5.841 -0.0421  0.2854  0.2059
    1DIPC   D2B 8878   5.805  10.209   5.471 -0.1130 -0.1713 -0.1915
    1DIPC   D3B 8879   5.675  10.559   5.167 -0.1005  0.1874  0.0796
    1DIPC   C4B 8880   5.396  10.397   4.835 -0.3203 -0.0770 -0.0041
    1DIPC   NC3 8881  16.265   0.673   7.784 -0.1550 -0.0739 -0.2440
    1DIPC   PO4 8882  16.266   1.076   7.663 -0.2800 -0.0915  0.0612
    1DIPC   GL1 8883  16.508   0.879   7.394 -0.1751  0.0401 -0.0892
    1DIPC   GL2 8884  16.720   1.024   7.344 -0.2726 -0.1050  0.0685
    1DIPC   C1A 8885  16.399   0.669   6.962  0.0579  0.0035 -0.1650
    1DIPC   D2A 8886  16.389   0.822   6.486  0.1542  0.2054 -0.0080
    1DIPC   D3A 8887  16.166   1.166   6.258  0.1953  0.1027  0.0730
    1DIPC   C4A 8888  16.102   1.029   5.766 -0.0716 -0.0436  0.0657
    1DIPC   C1B 8889  16.816   0.994   6.860  0.1589 -0.5029  0.0948
    1DIPC   D2B 8890  16.805   1.033   6.371 -0.1192  0.0352  0.0897
    1DIPC   D3B 8891  17.183   0.808   6.445 -0.2403  0.0103 -0.1192
    1DIPC   C4B 8892  17.250   0.619   6.872 -0.1145  0.0160 -0.2616
    1DIPC   NC3 8893   3.906  25.869   7.322  0.0594  0.0397  0.3999
    1DIPC   PO4 8894   4.133  26.291   7.126 -0.1160  0.1725 -0.0849
    1DIPC   GL1 8895   3.954  26.384   6.625  0.0559 -0.1786 -0.1181
    1DIPC   GL2 8896   3.653  26.527   6.518  0.1740 -0.0359 -0.0338
    1DIPC   C1A 8897   3.893  26.199   6.252 -0.1130  0.1720  0.0006
    1DIPC   D2A 8898   4.075  26.114   5.852  0.2145  0.2888  0.2041
    1DIPC   D3A 8899   4.322  25.998   5.629 -0.2277  0.1103  0.0709
    1DIPC   C4A 8900   4.198  25.870   5.198  0.1209  0.0210  0.1784
    1DIPC   C1B 8901   3.809  26.878   6.325  0.0625  0.1242  0.1026
    1DIPC   D2B 8902   4.045  27.251   6.164  0.3290 -0.2169  0.0566
    1DIPC   D3B 8903   4.300  26.890   6.083  0.1056  0.0359 -0.1715
    1DIPC   C4B 8904   4.300  26.472   6.111 -0.2712 -0.0145  0.2563
    1DIPC   NC3 8905  25.736  21.268   6.522  0.2206 -0.1932 -0.0229
    1DIPC   PO4 8906  25.764  21.698   6.673  0.2273  0.1704  0.2857
    1DIPC   GL1 8907  25.998  21.974   6.329 -0.0171  0.1715  0.0244
    1DIPC   GL2 8908  25.801  22.050   6.026  0.0629  0.0104  0.0336
    1DIPC   C1A 8909  26.262  21.964   6.041 -0.0968  0.0834 -0.1369
    1DIPC   D2A 8910  26.676  22.068   6.138 -0.0145 -0.0774  0.0307
    1DIPC   D3A 8911  26.727  22.552   5.839  0.1217  0.2190  0.1757
    1DIPC   C4A 8912  26.654  22.610   5.312  0.1164  0.1986  0.2810
    1DIPC   C1B 8913  25.528  21.860   5.689  0.0734  0.1268 -0.3265
    1DIPC   D2B 8914  25.338  21.447   5.471  0.1068  0.1935  0.2380
    1DIPC   D3B 8915  24.873  21.550   5.407  0.1435 -0.5324  0.1280
    1DIPC   C4B 8916  24.870  21.771   5.104  0.0864 -0.2108  0.0787
    1DIPC   NC3 8917  22.791   6.963   6.893  0.0199 -0.0097 -0.0626
    1DIPC   PO4 8918  23.014   6.646   6.603  0.0226  0.0167  0.1519
    1DIPC   GL1 8919  22.877   6.692   6.159  0.1137  0.0992  0.1592
    1DIPC   GL2 8920  22.516   6.757   6.129 -0.2890 -0.1911  0.1504
    1DIPC   C1A 8921  23.041   6.700   5.774  0.2145  0.1717 -0.1409
    1DIPC   D2A 8922  23.001   6.394   5.317  0.0961 -0.1715 -0.0445
    1DIPC   D3A 8923  22.825   6.527   4.844  0.0699 -0.0786 -0.2255
    1DIPC   C4A 8924  22.658   6.870   4.959  0.1460 -0.0633 -0.0663
    1DIPC   C1B 8925  22.718   7.084   5.806  0.1741 -0.0145 -0.0202
    1DIPC   D2B 8926  22.812   7.494   5.721  0.2461 -0.1255 -0.3675
    1DIPC   D3B 8927  22.468   7.673   5.640  0.0315 -0.1707  0.1699
    1DIPC   C4B 8928  22.228   7.838   5.784  0.0264  0.1121  0.1366
    1DIPC   NC3 8929   1.090  24.933   6.976 -0.1711 -0.0706  0.5464
    1DIPC   PO4 8930   1.018  24.951   6.522 -0.3611  0.3006  0.0647
    1DIPC   GL1 8931   0.824  24.987   6.155  0.1305  0.0351 -0.1642
    1DIPC   GL2 8932   1.151  24.992   6.031 -0.0480 -0.0321  0.2089
    1DIPC   C1A 8933   0.682  25.075   5.785 -0.0566  0.2265 -0.1208
    1DIPC   D2A 8934   0.362  25.108   5.577 -0.0656 -0.2208  0.0668
    1DIPC   D3A 8935   0.594  24.925   5.287  0.4124  0.0632 -0.0778
    1DIPC   C4A 8936   0.857  25.143   4.921  0.1307  0.1533 -0.0936
    1DIPC   C1B 8937   1.051  24.673   5.760 -0.1831 -0.1894 -0.0881
    1DIPC   D2B 8938   0.896  24.504   5.387  0.4536 -0.0861  0.1206
    1DIPC   D3B 8939   0.818  24.666   4.931 -0.1338 -0.1446 -0.2554
    1DIPC   C4B 8940   1.105  24.561   4.612  0.2248 -0.2718  0.2333
    1DIPC   NC3 8941  26.586  10.136   6.618  0.0650  0.1883  0.1608
    1DIPC   PO4 8942  26.540  10.496   6.874 -0.2766  0.1259 -0.1104
    1DIPC   GL1 8943  26.547  10.624   6.470  0.1312  0.0515 -0.1862
    1DIPC   GL2 8944  26.333  10.515   6.417 -0.0066 -0.0678  0.0367
    1DIPC   C1A 8945  26.699  10.860   6.144  0.0620 -0.0521 -0.1190
    1DIPC   D2A 8946  26.852  10.886   5.674 -0.4460  0.0135  0.0614
    1DIPC   D3A 8947  26.851  10.954   5.156 -0.0313  0.2356 -0.0822
    1DIPC   C4A 8948  26.602  10.848   4.776 -0.2693  0.0512 -0.0726
    1DIPC   C1B 8949  25.999  10.693   6.150 -0.1952 -0.0930 -0.2544
    1DIPC   D2B 8950  25.905  10.751   5.728 -0.0104 -0.2217 -0.0711
    1DIPC   D3B 8951  25.860  11.131   5.507 -0.0447  0.2809 -0.0633
    1DIPC   C4B 8952  26.303  11.301   5.442  0.2258 -0.1130  0.0994
    1DIPC   NC3 8953   8.963   6.203   7.331  0.3263 -0.1122  0.3198
    1DIPC   PO4 8954   9.320   5.902   7.222  0.1866 -0.0153  0.0447
    1DIPC   GL1 8955   9.110   6.018   6.911 -0.0761  0.0010  0.0824
    1DIPC   GL2 8956   9.095   5.915   6.656  0.0054 -0.1797  0.1941
    1DIPC   C1A 8957   9.197   6.381   6.586  0.2863 -0.0879  0.2719
    1DIPC   D2A 8958   9.600   6.657   6.657 -0.2602 -0.0687 -0.0988
    1DIPC   D3A 8959   9.611   6.764   6.279 -0.2875 -0.0581 -0.0035
    1DIPC   C4A 8960   9.818   6.731   5.881  0.1718 -0.1344  0.1134
    1DIPC   C1B 8961   8.809   5.489   6.669  0.2130 -0.2129 -0.0128
    1DIPC   D2B 8962   8.483   5.242   6.587 -0.0780  0.0572 -0.3339
    1DIPC   D3B 8963   8.107   5.526   6.383 -0.0299  0.1170 -0.3808
    1DIPC   C4B 8964   8.200   5.814   6.129 -0.1925 -0.1245  0.0769
    1DIPC   NC3 8965  22.754  15.415   6.962 -0.2045  0.1005 -0.0630
    1DIPC   PO4 8966  23.003  15.716   6.875  0.0826  0.0883 -0.2963
    1DIPC   GL1 8967  22.652  15.706   6.552 -0.1962 -0.0588  0.1662
    1DIPC   GL2 8968  22.362  15.789   6.623  0.3896  0.2606 -0.0575
    1DIPC   C1A 8969  22.487  15.276   6.302 -0.1817  0.1940 -0.1052
    1DIPC   D2A 8970  22.179  15.289   5.983 -0.1590 -0.0817 -0.0961
    1DIPC   D3A 8971  22.458  15.521   5.684 -0.0691 -0.1074  0.2491
    1DIPC   C4A 8972  22.650  15.388   5.243 -0.2962  0.0395 -0.3863
    1DIPC   C1B 8973  22.254  15.749   6.105  0.1712 -0.1945 -0.1208
    1DIPC   D2B 8974  21.995  15.775   5.705  0.2219  0.1236  0.1344
    1DIPC   D3B 8975  21.729  15.343   5.767 -0.1420 -0.1946  0.1209
    1DIPC   C4B 8976  21.307  15.435   5.556  0.0815 -0.1943 -0.2941
    1DIPC   NC3 8977   0.166  10.420   7.132  0.2301  0.1028 -0.1046
    1DIPC   PO4 8978   0.191  10.677   6.713 -0.2836 -0.0407  0.1070
    1DIPC   GL1 8979   0.317  10.584   6.315  0.2783  0.0042 -0.0475
    1DIPC   GL2 8980   0.608  10.578   6.343 -0.1020 -0.1436 -0.0164
    1DIPC   C1A 8981   0.042  10.514   5.982  0.0111 -0.0922  0.1362
    1DIPC   D2A 8982  27.938  10.122   5.838 -0.1617  0.0402 -0.2207
    1DIPC   D3A 8983   0.075   9.971   6.166 -0.1844 -0.3167  0.1635
    1DIPC   C4A 8984   0.218   9.652   6.276  0.0540 -0.0102 -0.1554
    1DIPC   C1B 8985   0.507  10.375   5.894 -0.1065 -0.1340  0.1572
    1DIPC   D2B 8986   0.233  10.061   5.666  0.1268 -0.1818  0.2445
    1DIPC   D3B 8987  27.965   9.979   5.308  0.0502 -0.1449 -0.3068
    1DIPC   C4B 8988  27.805  10.208   4.911  0.1713 -0.0677  0.1009
    1DIPC   NC3 8989   7.758   3.754   6.863  0.1833  0.4267  0.2606
    1DIPC   PO4 8990   7.516   4.152   7.122  0.3135 -0.2532  0.0982
    1DIPC   GL1 8991   7.477   4.174   6.662 -0.4079 -0.2293  0.1763
    1DIPC   GL2 8992   7.378   3.866   6.552  0.1447  0.3336 -0.1347
    1DIPC   C1A 8993   7.546   4.246   6.229  0.0800 -0.1153  0.0741
    1DIPC   D2A 8994   7.972   4.240   5.941  0.1493 -0.1629  0.0615
    1DIPC   D3A 8995   8.115   3.942   5.775 -0.0340  0.2069 -0.2746
    1DIPC   C4A 8996   8.038   3.629   5.470  0.1599  0.0715 -0.0163
    1DIPC   C1B 8997   7.564   3.650   6.235  0.2394  0.0315 -0.1063
    1DIPC   D2B 8998   7.547   3.293   5.937  0.0280 -0.1900  0.2949
    1DIPC   D3B 8999   7.430   3.369   5.475 -0.1462 -0.2509 -0.0839
    1DIPC   C4B 9000   7.526   3.779   5.260  0.2531 -0.0036 -0.0940
    1DIPC   NC3 9001  27.898  14.405   6.524 -0.0847  0.0115  0.0905
    1DIPC   PO4 9002  27.470  14.282   6.560  0.1358 -0.0008 -0.1064
    1DIPC   GL1 9003  27.494  14.173   6.061  0.0151 -0.2675 -0.0146
    1DIPC   GL2 9004  27.203  14.377   6.023 -0.2020 -0.0168 -0.1209
    1DIPC   C1A 9005  27.584  14.306   5.761  0.2380  0.1124 -0.2697
    1DIPC   D2A 9006  27.498  14.444   5.315  0.2175 -0.0695  0.2084
    1DIPC   D3A 9007  27.135  14.397   5.158 -0.2052 -0.2005  0.0721
    1DIPC   C4A 9008  27.198  14.013   4.866 -0.3012 -0.0497 -0.1186
    1DIPC   C1B 9009  27.179  14.659   5.595  0.1710  0.0261  0.0313
    1DIPC   D2B 9010  27.024  14.887   5.197  0.4727 -0.0574 -0.1399
    1DIPC   D3B 9011  27.026  14.845   4.679  0.2340 -0.0273  0.0559
    1DIPC   C4B 9012  27.019  14.461   4.546  0.0567  0.0270  0.2521
    1DIPC   NC3 9013  12.380  16.695   7.374  0.1165  0.0055  0.0743
    1DIPC   PO4 9014  12.354  17.156   7.280 -0.0731 -0.0506 -0.1500
    1DIPC   GL1 9015  12.417  17.123   6.853  0.1735  0.0180  0.0253
    1DIPC   GL2 9016  12.439  16.776   6.866 -0.1553 -0.0133  0.1540
    1DIPC   C1A 9017  12.449  17.021   6.424  0.3623 -0.1674 -0.0335
    1DIPC   D2A 9018  12.356  16.776   6.100 -0.0053  0.0697  0.0045
    1DIPC   D3A 9019  12.343  17.197   5.922  0.3315 -0.0222 -0.1395
    1DIPC   C4A 9020  12.484  17.214   5.579  0.0562  0.0308  0.0319
    1DIPC   C1B 9021  12.218  16.468   6.610 -0.1408 -0.1738 -0.0507
    1DIPC   D2B 9022  11.981  16.040   6.495  0.0958  0.1107 -0.2614
    1DIPC   D3B 9023  11.676  16.041   6.124  0.0462 -0.1995  0.1815
    1DIPC   C4B 9024  11.683  15.683   5.917  0.1518 -0.2437  0.0168
    1DIPC   NC3 9025  21.361  13.414   6.859  0.1184  0.0948 -0.0878
    1DIPC   PO4 9026  21.798  13.535   6.693 -0.3449 -0.1912 -0.0138
    1DIPC   GL1 9027  21.881  13.543   6.340  0.2717  0.1039 -0.1728
    1DIPC   GL2 9028  21.821  13.891   6.327  0.1637 -0.1836 -0.1627
    1DIPC   C1A 9029  21.834  13.610   5.912 -0.0047  0.0734  0.2427
    1DIPC   D2A 9030  21.755  13.592   5.468 -0.1570 -0.2355  0.3024
    1DIPC   D3A 9031  21.608  13.933   5.116  0.0062  0.1609 -0.3288
    1DIPC   C4A 9032  21.581  13.975   4.674  0.2529  0.0863  0.0198
    1DIPC   C1B 9033  21.463  13.948   6.314  0.2493  0.1306  0.0470
    1DIPC   D2B 9034  21.357  13.712   6.032 -0.0034 -0.1143  0.1446
    1DIPC   D3B 9035  21.250  13.858   5.642  0.0194  0.0886  0.0637
    1DIPC   C4B 9036  21.292  14.275   5.537 -0.0948  0.1197  0.0446
    1DIPC   NC3 9037  20.177  10.179   7.003 -0.2593 -0.3476 -0.2900
    1DIPC   PO4 9038  20.204   9.802   7.160 -0.0707 -0.3084  0.0781
    1DIPC   GL1 9039  19.901   9.806   6.826 -0.4289  0.0471  0.0911
    1DIPC   GL2 9040  20.091   9.962   6.497 -0.0321 -0.4015  0.2403
    1DIPC   C1A 9041  19.854   9.531   6.401 -0.0418  0.0002 -0.0618
    1DIPC   D2A 9042  19.987   9.262   6.111 -0.2179 -0.0130 -0.1576
    1DIPC   D3A 9043  19.701   9.045   6.389  0.0623  0.0275  0.2002
    1DIPC   C4A 9044  19.506   8.553   6.285 -0.1896  0.0604 -0.3155
    1DIPC   C1B 9045  20.441  10.110   6.288 -0.1170  0.0829 -0.2186
    1DIPC   D2B 9046  20.478  10.100   5.904  0.1928 -0.1457  0.2030
    1DIPC   D3B 9047  20.652   9.713   5.700 -0.1400  0.0570  0.0339
    1DIPC   C4B 9048  20.552   9.729   5.280 -0.2933 -0.1842  0.1164
    1DIPC   NC3 9049  20.014  13.027   6.834  0.2352  0.2358 -0.3171
    1DIPC   PO4 9050  20.348  12.932   6.638  0.1646  0.0473  0.3861
    1DIPC   GL1 9051  20.333  12.811   6.219 -0.2110 -0.0866 -0.1143
    1DIPC   GL2 9052  20.364  12.906   5.931  0.0027  0.0326 -0.0198
    1DIPC   C1A 9053  20.478  12.461   5.995  0.1087  0.2488  0.3651
    1DIPC   D2A 9054  20.424  12.124   6.142 -0.2374  0.2079  0.1542
    1DIPC   D3A 9055  20.249  11.972   5.818 -0.1668  0.1144  0.3678
    1DIPC   C4A 9056  19.983  11.630   5.679  0.0640  0.1415 -0.1086
    1DIPC   C1B 9057  20.416  12.792   5.498  0.2968  0.2344 -0.3227
    1DIPC   D2B 9058  20.642  12.652   5.239 -0.0937  0.1849  0.3671
    1DIPC   D3B 9059  21.027  12.649   5.099  0.0684 -0.2473  0.0618
    1DIPC   C4B 9060  21.358  12.896   5.047 -0.1348 -0.1936  0.2405
    1DIPC   NC3 9061   6.451   5.849   6.974 -0.2280 -0.0566  0.2239
    1DIPC   PO4 9062   6.945   5.797   7.015  0.2429 -0.2054 -0.1270
    1DIPC   GL1 9063   6.775   5.615   6.685 -0.0600  0.0229 -0.2365
    1DIPC   GL2 9064   7.034   5.674   6.505  0.1705  0.2776  0.0032
    1DIPC   C1A 9065   6.580   5.622   6.220  0.0075 -0.4651 -0.1474
    1DIPC   D2A 9066   6.526   5.827   5.751  0.2700 -0.2190  0.1065
    1DIPC   D3A 9067   6.870   5.743   5.742  0.0055  0.1621 -0.0033
    1DIPC   C4A 9068   7.213   5.933   5.506  0.0401 -0.2880  0.0881
    1DIPC   C1B 9069   7.107   5.577   6.154 -0.1231 -0.0177 -0.0590
    1DIPC   D2B 9070   7.220   5.419   5.589 -0.1191 -0.1999  0.2236
    1DIPC   D3B 9071   6.857   5.416   5.358  0.4168  0.2775  0.0865
    1DIPC   C4B 9072   6.970   5.745   5.060 -0.0203 -0.1161  0.2943
    1DIPC   NC3 9073  17.417  21.300   6.735  0.0365 -0.2812 -0.2119
    1DIPC   PO4 9074  17.898  21.266   6.845 -0.2330  0.0906  0.0272
    1DIPC   GL1 9075  17.777  21.438   6.374 -0.0293 -0.2881  0.1451
    1DIPC   GL2 9076  17.437  21.325   6.242 -0.1429  0.0743  0.1453
    1DIPC   C1A 9077  17.905  21.324   5.942 -0.1418  0.5088 -0.0575
    1DIPC   D2A 9078  17.930  21.434   5.559 -0.1377  0.0239 -0.1530
    1DIPC   D3A 9079  17.672  21.756   5.911  0.1194  0.1629  0.0336
    1DIPC   C4A 9080  17.614  22.053   5.715 -0.0989  0.0540 -0.0542
    1DIPC   C1B 9081  17.428  21.270   5.823  0.1146  0.3411  0.0452
    1DIPC   D2B 9082  17.391  21.189   5.390 -0.1196 -0.0302 -0.1409
    1DIPC   D3B 9083  17.448  21.647   5.369  0.4297 -0.1129  0.1815
    1DIPC   C4B 9084  17.474  22.007   5.148 -0.2361  0.1881  0.4551
    1DIPC   NC3 9085   2.160  12.181   6.519 -0.0212 -0.3041 -0.2957
    1DIPC   PO4 9086   2.568  12.381   6.478  0.1557  0.0915 -0.0784
    1DIPC   GL1 9087   2.418  12.579   6.181  0.2148  0.1483 -0.0436
    1DIPC   GL2 9088   2.216  12.330   6.056  0.1069 -0.2838  0.1045
    1DIPC   C1A 9089   2.423  12.666   5.676 -0.0779 -0.1516 -0.0256
    1DIPC   D2A 9090   2.217  12.877   5.322 -0.0884  0.2453  0.1809
    1DIPC   D3A 9091   2.051  12.736   4.950  0.2462  0.2284 -0.1218
    1DIPC   C4A 9092   2.133  12.872   4.440  0.0665  0.1714 -0.2166
    1DIPC   C1B 9093   2.346  12.207   5.662  0.0906 -0.0332  0.0707
    1DIPC   D2B 9094   2.843  12.155   5.442 -0.1833  0.0359 -0.0111
    1DIPC   D3B 9095   2.541  12.451   5.251  0.2360 -0.1360  0.1217
    1DIPC   C4B 9096   2.765  12.874   5.161 -0.1762 -0.4762 -0.0174
    1DIPC   NC3 9097  28.005   0.986   6.721 -0.1175  0.4036 -0.1720
    1DIPC   PO4 9098  28.023   0.464   6.773  0.0727 -0.1710 -0.3531
    1DIPC   GL1 9099  28.040   0.562   6.253  0.0217  0.1666 -0.1027
    1DIPC   GL2 9100   0.078   0.949   6.240  0.0876 -0.0827  0.0537
    1DIPC   C1A 9101  28.046   0.704   5.752 -0.0272  0.0692  0.1429
    1DIPC   D2A 9102  27.623   0.940   5.657  0.0637  0.0219 -0.0461
    1DIPC   D3A 9103  27.633   0.614   5.354 -0.1139 -0.2442  0.0724
    1DIPC   C4A 9104  27.460   0.462   5.014 -0.2233  0.2445 -0.1037
    1DIPC   C1B 9105  27.739   1.068   6.112 -0.2456  0.0213 -0.2825
    1DIPC   D2B 9106  27.278   0.911   6.085  0.2259 -0.2170 -0.3048
    1DIPC   D3B 9107  26.923   1.216   6.282  0.0458 -0.2268 -0.3590
    1DIPC   C4B 9108  26.821   1.638   6.095  0.0933  0.3229 -0.1014
    1DIPC   NC3 9109   7.404  12.458   7.089  0.3752 -0.0457 -0.3216
    1DIPC   PO4 9110   7.372  12.003   6.916  0.0543 -0.1159  0.0417
    1DIPC   GL1 9111   7.667  12.255   6.656 -0.1232 -0.0346  0.1161
    1DIPC   GL2 9112   7.576  12.560   6.581 -0.1340 -0.1821 -0.0373
    1DIPC   C1A 9113   7.952  12.222   6.163  0.2945 -0.1527  0.1703
    1DIPC   D2A 9114   8.118  12.195   5.712  0.3414 -0.1709 -0.0735
    1DIPC   D3A 9115   7.893  12.534   5.445  0.2089  0.2105  0.4304
    1DIPC   C4A 9116   7.804  12.918   5.686  0.1862  0.2401  0.3481
    1DIPC   C1B 9117   7.363  12.924   6.407 -0.1208 -0.1757  0.3064
    1DIPC   D2B 9118   7.041  13.323   6.457  0.0791 -0.0504  0.0051
    1DIPC   D3B 9119   7.119  13.169   6.037  0.0422 -0.2553  0.0328
    1DIPC   C4B 9120   7.325  12.964   5.755  0.0364  0.0335  0.0015
    1DIPC   NC3 9121  21.048   9.926   7.273 -0.0822 -0.3513  0.0772
    1DIPC   PO4 9122  20.616  10.196   7.264 -0.1742  0.0543 -0.0264
    1DIPC   GL1 9123  20.580  10.362   6.770 -0.0165  0.0075  0.1148
    1DIPC   GL2 9124  20.890  10.282   6.703  0.2537 -0.0741 -0.0171
    1DIPC   C1A 9125  20.429  10.613   6.321 -0.3292 -0.2278  0.2976
    1DIPC   D2A 9126  20.341  11.042   6.380 -0.0697 -0.0358  0.6515
    1DIPC   D3A 9127  20.111  11.287   6.250  0.1662 -0.1721 -0.3111
    1DIPC   C4A 9128  20.383  11.542   6.058  0.0222 -0.1749  0.1646
    1DIPC   C1B 9129  21.214  10.426   6.480  0.2327 -0.0474 -0.2462
    1DIPC   D2B 9130  21.638  10.608   6.340  0.3539  0.2056 -0.3187
    1DIPC   D3B 9131  21.271  10.576   5.966  0.1465 -0.0804  0.1980
    1DIPC   C4B 9132  20.816  10.394   6.035 -0.2586  0.1018  0.3141
    1DIPC   NC3 9133  19.426   6.021   7.707  0.1171  0.2194 -0.0900
    1DIPC   PO4 9134  19.401   6.081   7.184 -0.1043 -0.0290 -0.4238
    1DIPC   GL1 9135  19.478   6.124   6.785  0.0761 -0.0480  0.4976
    1DIPC   GL2 9136  19.210   6.385   6.639  0.0925 -0.3454  0.1951
    1DIPC   C1A 9137  19.328   5.958   6.332 -0.4035 -0.0531 -0.1552
    1DIPC   D2A 9138  19.093   5.800   5.911 -0.1547 -0.0596  0.2307
    1DIPC   D3A 9139  19.116   6.109   5.682 -0.1280  0.1276 -0.0321
    1DIPC   C4A 9140  18.844   6.185   5.301 -0.0400  0.0414 -0.0187
    1DIPC   C1B 9141  19.235   6.433   6.227  0.0018  0.2473 -0.0289
    1DIPC   D2B 9142  18.869   6.429   5.965  0.0722  0.2335 -0.0655
    1DIPC   D3B 9143  18.511   6.377   5.674 -0.1502  0.0159 -0.0023
    1DIPC   C4B 9144  18.355   5.993   5.492 -0.3028  0.1408  0.2892
    1DIPC   NC3 9145  17.159   7.921   7.495  0.2576  0.2584  0.3295
    1DIPC   PO4 9146  17.187   7.512   7.219  0.1066  0.0638 -0.1792
    1DIPC   GL1 9147  17.030   7.347   6.898  0.1375  0.0822  0.1199
    1DIPC   GL2 9148  17.304   7.441   6.634 -0.0207 -0.1760  0.0592
    1DIPC   C1A 9149  16.817   7.468   6.526 -0.1126 -0.0951 -0.0186
    1DIPC   D2A 9150  16.741   7.901   6.444 -0.3633  0.0039 -0.0570
    1DIPC   D3A 9151  16.570   8.041   5.997 -0.0444  0.1343  0.0957
    1DIPC   C4A 9152  16.895   7.969   5.670  0.0118 -0.0559 -0.2033
    1DIPC   C1B 9153  17.163   7.303   6.169 -0.0902  0.1382 -0.0600
    1DIPC   D2B 9154  17.115   7.306   5.736  0.1984 -0.0694 -0.0020
    1DIPC   D3B 9155  17.104   6.984   5.450  0.0145 -0.1197 -0.0366
    1DIPC   C4B 9156  17.281   7.133   5.080 -0.0283 -0.0706 -0.0075
    1DIPC   NC3 9157  17.409  16.245   7.668  0.1444 -0.0394 -0.2524
    1DIPC   PO4 9158  17.141  16.047   7.924  0.2365 -0.0215 -0.3760
    1DIPC   GL1 9159  16.777  16.136   7.745 -0.4268 -0.1877 -0.2516
    1DIPC   GL2 9160  16.966  16.359   7.483 -0.0890 -0.0785  0.2666
    1DIPC   C1A 9161  16.605  15.942   7.278  0.0110 -0.1455 -0.2672
    1DIPC   D2A 9162  16.716  15.740   6.834 -0.3918 -0.1479  0.0878
    1DIPC   D3A 9163  16.611  15.458   6.497 -0.0369 -0.2536  0.3405
    1DIPC   C4A 9164  16.937  15.473   6.241  0.0995 -0.2442 -0.0653
    1DIPC   C1B 9165  16.901  16.307   7.030  0.0237  0.0479  0.2368
    1DIPC   D2B 9166  16.656  16.249   6.702  0.1822  0.0021 -0.6382
    1DIPC   D3B 9167  16.756  15.958   6.390 -0.0111  0.2290  0.1026
    1DIPC   C4B 9168  16.528  15.800   6.090 -0.0180  0.0524 -0.0632
    1DIPC   NC3 9169  24.301  27.892   7.081  0.0741  0.1961  0.2195
    1DIPC   PO4 9170  23.930  27.577   7.036 -0.1173 -0.2113 -0.2531
    1DIPC   GL1 9171  23.813  27.484   6.625  0.0672 -0.1088  0.3626
    1DIPC   GL2 9172  23.587  27.310   6.482 -0.0171  0.0971 -0.1992
    1DIPC   C1A 9173  24.087  27.285   6.365 -0.1015  0.0338  0.0557
    1DIPC   D2A 9174  24.356  27.206   5.911  0.4064 -0.1107 -0.1683
    1DIPC   D3A 9175  24.705  27.099   6.066  0.1386  0.0257 -0.0568
    1DIPC   C4A 9176  24.904  27.482   5.935 -0.0257 -0.1862 -0.1278
    1DIPC   C1B 9177  23.448  27.339   6.023  0.2726  0.0658 -0.0497
    1DIPC   D2B 9178  23.304  27.175   5.632 -0.2625  0.2439  0.2104
    1DIPC   D3B 9179  23.347  27.506   5.348 -0.3026 -0.0655 -0.4622
    1DIPC   C4B 9180  23.659  27.789   5.177 -0.5796 -0.1604 -0.4527
    1DIPC   NC3 9181  27.915  22.739   6.674 -0.1719  0.1117 -0.0274
    1DIPC   PO4 9182  27.867  23.170   6.639  0.0834 -0.0797 -0.2510
    1DIPC   GL1 9183  27.800  23.370   6.308 -0.1168 -0.2098 -0.0833
    1DIPC   GL2 9184  27.420  23.435   6.459 -0.1836  0.0577  0.1158
    1DIPC   C1A 9185  27.991  23.665   6.062 -0.1244 -0.1446 -0.3026
    1DIPC   D2A 9186  28.117  23.725   5.709  0.1604  0.0263 -0.0916
    1DIPC   D3A 9187  27.849  23.947   5.326 -0.1530  0.1214  0.0841
    1DIPC   C4A 9188  27.548  24.084   5.018 -0.2188  0.5100 -0.0606
    1DIPC   C1B 9189  27.361  23.187   6.082 -0.1220  0.2434 -0.0292
    1DIPC   D2B 9190  27.368  23.284   5.625 -0.0887 -0.0363 -0.4523
    1DIPC   D3B 9191  27.473  23.615   5.363 -0.1527  0.1799  0.0678
    1DIPC   C4B 9192  27.214  23.964   5.377 -0.1274  0.0183  0.0060
    1DIPC   NC3 9193  19.706   0.473   7.573  0.2164  0.1063 -0.2915
    1DIPC   PO4 9194  19.992   0.618   7.263  0.0026 -0.1808 -0.2102
    1DIPC   GL1 9195  19.694   0.690   6.957  0.1382 -0.1355 -0.1576
    1DIPC   GL2 9196  19.420   0.571   7.116  0.1319 -0.2916  0.2457
    1DIPC   C1A 9197  19.657   0.868   6.569 -0.2772 -0.0211  0.2119
    1DIPC   D2A 9198  19.345   0.747   6.237 -0.2082  0.1978 -0.0789
    1DIPC   D3A 9199  19.127   0.899   5.904 -0.1355 -0.0749 -0.1694
    1DIPC   C4A 9200  19.269   1.196   5.637  0.4750 -0.0585  0.0901
    1DIPC   C1B 9201  19.268   0.558   6.703 -0.1529 -0.1626  0.0946
    1DIPC   D2B 9202  19.049   0.931   6.656  0.0574  0.1040  0.0617
    1DIPC   D3B 9203  18.865   0.930   6.296  0.0060 -0.0630  0.1439
    1DIPC   C4B 9204  18.765   0.564   6.046 -0.3676 -0.1775 -0.1916
    1DIPC   NC3 9205  17.868  12.788   7.141 -0.0164  0.2178 -0.1039
    1DIPC   PO4 9206  18.220  13.167   7.024 -0.0332  0.1279 -0.3386
    1DIPC   GL1 9207  18.273  13.305   6.705 -0.1701  0.1193  0.0628
    1DIPC   GL2 9208  18.221  13.631   6.731 -0.2726  0.1795 -0.2397
    1DIPC   C1A 9209  18.037  13.526   6.269  0.0708  0.2260 -0.1837
    1DIPC   D2A 9210  17.870  13.520   5.940  0.0760  0.0379  0.0910
    1DIPC   D3A 9211  17.625  13.674   5.678 -0.2043  0.1107  0.1433
    1DIPC   C4A 9212  17.786  13.705   5.273 -0.2178  0.0617 -0.0515
    1DIPC   C1B 9213  18.283  14.014   6.529  0.0467 -0.2219  0.1890
    1DIPC   D2B 9214  18.045  14.341   6.347 -0.1549 -0.0327  0.0397
    1DIPC   D3B 9215  17.890  14.194   6.696  0.0893 -0.1825 -0.0144
    1DIPC   C4B 9216  17.773  13.770   6.586  0.1430  0.2441  0.2240
    1DIPC   NC3 9217  18.987   5.995   6.918 -0.0689 -0.0202 -0.0316
    1DIPC   PO4 9218  18.761   5.537   6.860  0.2171 -0.1276 -0.0713
    1DIPC   GL1 9219  18.882   5.237   6.685  0.0876 -0.1078  0.0240
    1DIPC   GL2 9220  19.172   5.517   6.598  0.0541 -0.1582 -0.1772
    1DIPC   C1A 9221  18.936   5.130   6.243  0.3095  0.1232 -0.0777
    1DIPC   D2A 9222  18.950   4.892   5.848 -0.1085  0.1338 -0.0091
    1DIPC   D3A 9223  19.444   4.970   6.080 -0.0108 -0.0641 -0.0293
    1DIPC   C4A 9224  19.532   4.659   6.258 -0.0244 -0.0497 -0.2933
    1DIPC   C1B 9225  19.292   5.435   6.229 -0.2934  0.0347  0.1192
    1DIPC   D2B 9226  19.629   5.553   5.979 -0.0505 -0.2065  0.0010
    1DIPC   D3B 9227  19.551   5.753   5.563  0.3228 -0.2145 -0.0577
    1DIPC   C4B 9228  19.194   5.784   5.288 -0.1609 -0.0529  0.2593
    1DIPC   NC3 9229  26.601  11.914   6.614 -0.1478 -0.0677 -0.0873
    1DIPC   PO4 9230  26.545  12.419   6.464 -0.0632  0.1838  0.0843
    1DIPC   GL1 9231  26.412  12.612   6.123 -0.1896 -0.1972  0.1470
    1DIPC   GL2 9232  26.696  12.729   5.874  0.2238  0.1515 -0.2922
    1DIPC   C1A 9233  26.227  12.684   5.671 -0.1933 -0.1180  0.1633
    1DIPC   D2A 9234  26.295  12.749   5.168 -0.0383  0.2409  0.1263
    1DIPC   D3A 9235  25.968  12.522   5.256 -0.0592 -0.0032  0.0486
    1DIPC   C4A 9236  25.812  12.126   5.412  0.1537  0.0121 -0.1116
    1DIPC   C1B 9237  26.694  12.578   5.427  0.1203  0.2667  0.1154
    1DIPC   D2B 9238  26.833  12.480   5.022  0.0285  0.3917 -0.1260
    1DIPC   D3B 9239  27.076  12.094   5.022  0.1760  0.0771 -0.1282
    1DIPC   C4B 9240  27.330  12.120   4.728 -0.2413 -0.1391  0.1645
    1DIPC   NC3 9241  18.004  17.902   7.953  0.2433 -0.1320 -0.1238
    1DIPC   PO4 9242  17.947  17.954   7.515  0.1419 -0.0576  0.0001
    1DIPC   GL1 9243  17.850  17.840   7.022 -0.0769 -0.0633 -0.3888
    1DIPC   GL2 9244  17.984  18.048   6.830  0.1996 -0.2256 -0.1450
    1DIPC   C1A 9245  17.558  17.670   6.836  0.3809 -0.0859  0.0946
    1DIPC   D2A 9246  17.405  17.591   6.387 -0.0225 -0.2528 -0.1823
    1DIPC   D3A 9247  17.270  17.999   6.227  0.1866  0.1338  0.3111
    1DIPC   C4A 9248  16.882  17.977   5.979 -0.4667 -0.2010 -0.2943
    1DIPC   C1B 9249  18.108  17.635   6.664  0.2554 -0.1080  0.2567
    1DIPC   D2B 9250  18.295  17.249   6.794 -0.0912 -0.1026  0.1712
    1DIPC   D3B 9251  18.245  17.059   6.392  0.2750 -0.1563 -0.0031
    1DIPC   C4B 9252  18.388  16.625   6.306  0.0393  0.0107 -0.0690
    1DIPC   NC3 9253  20.153  14.336   7.586  0.1476  0.2846  0.1922
    1DIPC   PO4 9254  20.311  14.650   7.374  0.0561 -0.1324 -0.2778
    1DIPC   GL1 9255  20.150  14.974   7.087 -0.2464 -0.0070 -0.0736
    1DIPC   GL2 9256  20.225  15.185   7.036  0.0564  0.3013 -0.1748
    1DIPC   C1A 9257  19.708  15.058   6.798 -0.1316  0.1106  0.3398
    1DIPC   D2A 9258  19.401  15.212   7.020  0.0338  0.1275 -0.2384
    1DIPC   D3A 9259  19.239  15.340   6.596 -0.1394  0.2372  0.2603
    1DIPC   C4A 9260  19.226  15.710   6.502  0.1234  0.2309  0.1066
    1DIPC   C1B 9261  20.137  15.309   6.622  0.2665  0.1383  0.0154
    1DIPC   D2B 9262  20.141  15.203   6.265 -0.0120  0.0234 -0.3930
    1DIPC   D3B 9263  20.387  14.836   6.597 -0.1295  0.0463  0.3323
    1DIPC   C4B 9264  20.035  14.537   6.830 -0.1823 -0.2949  0.0079
    1DIPC   NC3 9265   2.935   1.628   6.345  0.0794 -0.1223  0.1963
    1DIPC   PO4 9266   2.838   2.068   6.269  0.2110 -0.0075 -0.0284
    1DIPC   GL1 9267   2.597   2.009   5.864  0.2326  0.1363  0.1029
    1DIPC   GL2 9268   2.545   2.244   5.697 -0.2766  0.0849  0.1620
    1DIPC   C1A 9269   2.480   1.727   5.483  0.2221 -0.0258 -0.0587
    1DIPC   D2A 9270   2.492   1.517   5.071 -0.1381 -0.0877  0.1417
    1DIPC   D3A 9271   2.580   1.359   4.631 -0.0082  0.0402 -0.0836
    1DIPC   C4A 9272   2.279   1.335   4.287  0.0182 -0.2058 -0.0235
    1DIPC   C1B 9273   2.841   2.347   5.315  0.1082  0.1662 -0.0776
    1DIPC   D2B 9274   2.855   2.414   4.807 -0.2775  0.2159  0.0627
    1DIPC   D3B 9275   2.814   2.032   4.599  0.1711 -0.0958 -0.0302
    1DIPC   C4B 9276   2.457   1.751   4.409  0.2492 -0.0657 -0.0785
    1DIPC   NC3 9277  20.563   9.413   7.082 -0.1209 -0.1335  0.1648
    1DIPC   PO4 9278  21.005   9.448   7.043 -0.3154  0.1499  0.1866
    1DIPC   GL1 9279  21.263   9.575   6.780  0.1903  0.0450 -0.0236
    1DIPC   GL2 9280  21.263   9.915   6.718 -0.0694 -0.2155  0.0440
    1DIPC   C1A 9281  21.379   9.339   6.388 -0.2432  0.2264  0.2751
    1DIPC   D2A 9282  21.235   9.330   6.027  0.0117 -0.3368 -0.0184
    1DIPC   D3A 9283  20.771   9.335   6.092  0.1438  0.1225 -0.1583
    1DIPC   C4A 9284  20.393   9.556   6.206 -0.1611  0.1721  0.0149
    1DIPC   C1B 9285  21.290   9.991   6.258  0.1143  0.1198  0.1798
    1DIPC   D2B 9286  21.133   9.817   5.861  0.0422  0.0473 -0.0437
    1DIPC   D3B 9287  20.852   9.835   6.171  0.2342 -0.1247  0.2210
    1DIPC   C4B 9288  20.813   9.762   6.513 -0.2390  0.2483  0.2503
    1DIPC   NC3 9289  25.738  27.624   7.070  0.0707 -0.1642 -0.0890
    1DIPC   PO4 9290  25.995  27.850   6.712  0.1254 -0.2201  0.0784
    1DIPC   GL1 9291  25.978  27.861   6.296  0.2920  0.0164  0.0025
    1DIPC   GL2 9292  26.027   0.000   6.207  0.3049 -0.3030  0.1882
    1DIPC   C1A 9293  25.915  27.727   5.886  0.2014  0.0558 -0.1135
    1DIPC   D2A 9294  25.894  27.718   5.454  0.2157 -0.2649  0.0031
    1DIPC   D3A 9295  25.407  27.736   5.481 -0.2627  0.1631  0.0672
    1DIPC   C4A 9296  25.281  28.087   5.138 -0.0225  0.1853 -0.0643
    1DIPC   C1B 9297  26.407  27.936   6.049  0.1808  0.2258 -0.1140
    1DIPC   D2B 9298  26.431  27.766   5.564  0.0395  0.0328  0.1106
    1DIPC   D3B 9299  26.467  27.544   5.176 -0.3027  0.4156  0.1416
    1DIPC   C4B 9300  26.060  27.709   4.931  0.2184 -0.0010  0.2712
    1DIPC   NC3 9301  25.089  26.944   7.211 -0.1806  0.0692 -0.0481
    1DIPC   PO4 9302  24.918  26.631   7.158 -0.2436 -0.2308 -0.1704
    1DIPC   GL1 9303  25.030  26.606   6.764  0.0426  0.1084 -0.0185
    1DIPC   GL2 9304  24.827  26.334   6.717  0.2496  0.0075 -0.2178
    1DIPC   C1A 9305  25.091  26.809   6.411  0.1743  0.0204  0.1547
    1DIPC   D2A 9306  25.252  27.215   6.219  0.0307  0.0047  0.0864
    1DIPC   D3A 9307  25.163  26.992   5.817  0.1473  0.2004  0.2878
    1DIPC   C4A 9308  25.086  27.244   5.474 -0.0793  0.1877  0.1696
    1DIPC   C1B 9309  24.992  26.217   6.443  0.0033  0.0740  0.1479
    1DIPC   D2B 9310  24.800  26.079   6.066 -0.0563  0.0761  0.1244
    1DIPC   D3B 9311  24.430  26.236   5.906  0.0013  0.2768 -0.1043
    1DIPC   C4B 9312  24.403  26.711   5.825 -0.1378 -0.1653  0.1019
    1DIPC   NC3 9313   5.239  15.502   7.288  0.0851  0.0699 -0.0753
    1DIPC   PO4 9314   5.533  15.116   7.233  0.1248 -0.2529 -0.1280
    1DIPC   GL1 9315   5.314  15.319   6.764 -0.0599  0.1859 -0.0829
    1DIPC   GL2 9316   5.503  15.156   6.538  0.0142 -0.1277 -0.1856
    1DIPC   C1A 9317   5.187  15.752   6.555  0.5463  0.1700  0.1520
    1DIPC   D2A 9318   4.937  16.128   6.413 -0.1860  0.0948  0.2441
    1DIPC   D3A 9319   4.662  16.243   6.141 -0.3588  0.1720  0.1843
    1DIPC   C4A 9320   4.762  16.061   5.869  0.0100 -0.3299  0.1079
    1DIPC   C1B 9321   5.311  15.153   6.205  0.3476 -0.3835  0.1480
    1DIPC   D2B 9322   5.051  15.354   5.960 -0.3850 -0.1987  0.1009
    1DIPC   D3B 9323   5.193  15.786   6.080 -0.0039  0.1006 -0.0725
    1DIPC   C4B 9324   5.251  15.843   5.796 -0.1720  0.2360  0.4312
    1DIPC   NC3 9325  22.395  11.897   6.979  0.5193 -0.1767 -0.1638
    1DIPC   PO4 9326  22.710  12.095   7.288  0.2236 -0.1252  0.0072
    1DIPC   GL1 9327  22.758  12.212   6.847 -0.2961  0.2862  0.2798
    1DIPC   GL2 9328  22.973  12.213   6.687 -0.4752 -0.0604 -0.0196
    1DIPC   C1A 9329  22.458  12.363   6.479  0.0774 -0.0373 -0.0684
    1DIPC   D2A 9330  22.176  12.588   6.191 -0.2316 -0.2038 -0.2814
    1DIPC   D3A 9331  22.254  12.475   5.803  0.1604 -0.2260 -0.0346
    1DIPC   C4A 9332  22.120  12.725   5.395 -0.2053  0.0581  0.0012
    1DIPC   C1B 9333  22.864  12.214   6.290 -0.5161  0.1900 -0.0577
    1DIPC   D2B 9334  22.464  12.123   6.091 -0.0296 -0.1516 -0.1148
    1DIPC   D3B 9335  22.753  12.189   5.789 -0.0445  0.0846 -0.2798
    1DIPC   C4B 9336  23.085  12.477   5.587 -0.1782  0.0493  0.0615
    1DIPC   NC3 9337  13.599   3.877   7.296 -0.3028 -0.1791  0.0725
    1DIPC   PO4 9338  13.186   4.003   7.300  0.1852  0.2240  0.2146
    1DIPC   GL1 9339  12.946   3.905   6.916 -0.3080  0.1991  0.0613
    1DIPC   GL2 9340  12.858   3.620   6.896 -0.0515  0.1170  0.0592
    1DIPC   C1A 9341  12.856   4.123   6.600 -0.0999 -0.0048 -0.1578
    1DIPC   D2A 9342  12.908   4.315   6.279 -0.2218  0.2538  0.4690
    1DIPC   D3A 9343  12.441   4.258   6.123  0.1324 -0.1260 -0.0272
    1DIPC   C4A 9344  12.117   4.600   6.031 -0.4355  0.0450 -0.1621
    1DIPC   C1B 9345  12.624   3.515   6.517  0.3605 -0.1122 -0.2413
    1DIPC   D2B 9346  12.749   3.356   6.122  0.1896  0.0590 -0.2031
    1DIPC   D3B 9347  13.130   3.472   5.894 -0.0833 -0.1086 -0.2520
    1DIPC   C4B 9348  13.424   3.825   5.983  0.0980  0.2464 -0.3563
    1DIPC   NC3 9349   9.923  13.612   7.830 -0.0902 -0.0926  0.4720
    1DIPC   PO4 9350  10.257  13.913   7.813 -0.1709  0.0824 -0.2958
    1DIPC   GL1 9351  10.305  13.714   7.445  0.1792 -0.0271  0.0177
    1DIPC   GL2 9352  10.088  13.469   7.334  0.0561 -0.1770 -0.0079
    1DIPC   C1A 9353  10.211  13.724   6.971  0.0343  0.0723  0.0461
    1DIPC   D2A 9354   9.753  13.812   6.978 -0.1939  0.0904  0.0623
    1DIPC   D3A 9355   9.859  13.949   6.559 -0.3777  0.4068 -0.1579
    1DIPC   C4A 9356   9.801  13.788   6.172 -0.0384 -0.1189 -0.0889
    1DIPC   C1B 9357   9.973  13.061   6.997  0.0143 -0.1851 -0.0471
    1DIPC   D2B 9358   9.675  12.845   6.638 -0.1854 -0.0161  0.0430
    1DIPC   D3B 9359   9.904  12.656   6.311  0.2970 -0.2999  0.3658
    1DIPC   C4B 9360  10.238  12.578   6.134 -0.1117  0.1455 -0.0436
    1DIPC   NC3 9361  13.672  23.252   6.963  0.2128  0.0045  0.3097
    1DIPC   PO4 9362  13.825  23.018   6.668  0.0206 -0.0809  0.1237
    1DIPC   GL1 9363  13.560  22.922   6.414 -0.0133  0.2284 -0.1772
    1DIPC   GL2 9364  13.658  22.591   6.504 -0.1769 -0.0090  0.0428
    1DIPC   C1A 9365  13.348  22.894   6.031  0.1137 -0.1721  0.0603
    1DIPC   D2A 9366  13.189  22.555   5.722  0.2364 -0.2570 -0.1793
    1DIPC   D3A 9367  13.300  22.601   5.271 -0.0066  0.0232 -0.4680
    1DIPC   C4A 9368  13.630  22.323   5.062  0.0739  0.1684  0.0552
    1DIPC   C1B 9369  13.454  22.393   6.108 -0.0174 -0.1065  0.0170
    1DIPC   D2B 9370  13.321  21.972   6.015 -0.1024 -0.0685  0.0097
    1DIPC   D3B 9371  13.371  22.091   5.565  0.1984 -0.1411 -0.0705
    1DIPC   C4B 9372  13.250  21.761   5.270 -0.2213  0.4375  0.1394
    1DIPC   NC3 9373  24.558   2.417   7.042 -0.2085  0.0402 -0.2267
    1DIPC   PO4 9374  24.768   2.322   6.783  0.0656 -0.4090  0.2581
    1DIPC   GL1 9375  24.474   2.540   6.566  0.0742 -0.0679  0.3024
    1DIPC   GL2 9376  24.474   2.801   6.629 -0.2454  0.0886  0.1583
    1DIPC   C1A 9377  24.423   2.500   6.142  0.1879  0.0257  0.0621
    1DIPC   D2A 9378  24.540   2.574   5.725  0.0200 -0.2095 -0.0772
    1DIPC   D3A 9379  24.610   2.882   5.457 -0.1999 -0.7519  0.0693
    1DIPC   C4A 9380  24.706   2.973   5.060 -0.0485 -0.0825 -0.0890
    1DIPC   C1B 9381  24.795   2.990   6.492  0.0022  0.1213 -0.1906
    1DIPC   D2B 9382  25.106   3.022   6.219  0.2679 -0.1195 -0.2236
    1DIPC   D3B 9383  24.947   2.904   5.835 -0.0732  0.0644 -0.1257
    1DIPC   C4B 9384  25.060   3.156   5.440  0.1501 -0.2990 -0.1609
    1DIPC   NC3 9385   4.728  19.814   7.435  0.2952 -0.1972  0.0761
    1DIPC   PO4 9386   4.280  19.558   7.358 -0.2024  0.1926  0.0712
    1DIPC   GL1 9387   4.496  19.486   6.928  0.2178  0.2867 -0.2150
    1DIPC   GL2 9388   4.808  19.488   6.920  0.0688 -0.2178 -0.1616
    1DIPC   C1A 9389   4.419  19.401   6.508  0.3398  0.3398 -0.0231
    1DIPC   D2A 9390   4.539  19.661   6.138 -0.0305 -0.0564  0.1775
    1DIPC   D3A 9391   4.337  19.729   5.758  0.2071 -0.2374 -0.0569
    1DIPC   C4A 9392   4.697  19.610   5.381 -0.2166 -0.1296 -0.0569
    1DIPC   C1B 9393   5.005  19.511   6.578 -0.4113  0.4067 -0.1066
    1DIPC   D2B 9394   4.889  19.269   6.235 -0.0937 -0.0859 -0.1486
    1DIPC   D3B 9395   5.185  19.042   6.378  0.1785 -0.0161  0.0918
    1DIPC   C4B 9396   5.241  18.749   6.058  0.3645  0.1926 -0.0309
    1DIPC   NC3 9397   2.259   8.942   6.272 -0.0929  0.0193  0.0465
    1DIPC   PO4 9398   2.031   9.442   6.193  0.0017  0.1773  0.1865
    1DIPC   GL1 9399   1.917   9.166   5.908 -0.1428 -0.0078 -0.0297
    1DIPC   GL2 9400   2.009   8.936   5.809  0.3037  0.1949 -0.4130
    1DIPC   C1A 9401   1.452   9.016   5.807 -0.0857 -0.3155  0.2269
    1DIPC   D2A 9402   1.228   8.632   6.002 -0.3370 -0.1617 -0.0988
    1DIPC   D3A 9403   1.518   8.530   5.685 -0.1923 -0.1414  0.4630
    1DIPC   C4A 9404   1.876   8.332   5.790 -0.0419  0.0187 -0.1106
    1DIPC   C1B 9405   1.841   8.833   5.469  0.1733 -0.2106 -0.0533
    1DIPC   D2B 9406   1.755   9.050   5.083  0.1518 -0.0285  0.2146
    1DIPC   D3B 9407   1.419   8.866   5.253 -0.1532  0.2388 -0.2340
    1DIPC   C4B 9408   1.087   8.836   4.987 -0.1257  0.3147 -0.0711
    1DIPC   NC3 9409  11.466  12.910   8.592  0.0633 -0.1127 -0.2050
    1DIPC   PO4 9410  11.605  12.705   8.120 -0.0451  0.2214  0.0477
    1DIPC   GL1 9411  11.588  12.653   7.781  0.2037  0.1348  0.0805
    1DIPC   GL2 9412  11.843  12.742   7.575 -0.1608 -0.0241  0.0406
    1DIPC   C1A 9413  11.337  12.586   7.385  0.1471 -0.0612  0.0850
    1DIPC   D2A 9414  11.391  12.456   6.981 -0.2125  0.0349  0.0474
    1DIPC   D3A 9415  11.301  12.720   6.774  0.0516 -0.0417 -0.0325
    1DIPC   C4A 9416  11.222  12.629   6.329 -0.3037 -0.2625 -0.1320
    1DIPC   C1B 9417  12.252  12.473   7.462  0.1355  0.1233 -0.0930
    1DIPC   D2B 9418  12.712  12.597   7.344  0.0569 -0.1560  0.1507
    1DIPC   D3B 9419  12.886  12.720   6.962 -0.1882  0.1409 -0.1155
    1DIPC   C4B 9420  12.714  12.603   6.606 -0.0753 -0.1558  0.2634
    1DIPC   NC3 9421  14.208  23.891   6.862 -0.2146 -0.4796  0.2051
    1DIPC   PO4 9422  13.765  23.848   6.617  0.0629 -0.2623 -0.3680
    1DIPC   GL1 9423  13.827  23.740   6.224  0.2712  0.2847 -0.0026
    1DIPC   GL2 9424  13.561  23.716   6.070  0.3085 -0.1612 -0.2832
    1DIPC   C1A 9425  13.995  23.697   5.696  0.0705 -0.2592  0.1187
    1DIPC   D2A 9426  13.903  23.895   5.337 -0.0054  0.1303 -0.0419
    1DIPC   D3A 9427  14.098  24.279   5.312  0.3528 -0.3692 -0.2567
    1DIPC   C4A 9428  14.150  24.592   4.960  0.1975  0.0157  0.1720
    1DIPC   C1B 9429  13.679  23.410   5.837 -0.0718  0.3221 -0.0353
    1DIPC   D2B 9430  13.827  22.935   5.827  0.0064  0.0470 -0.2127
    1DIPC   D3B 9431  14.042  23.120   5.470 -0.0090  0.3490 -0.0184
    1DIPC   C4B 9432  14.416  23.065   5.296  0.0217  0.0171 -0.0302
    1DIPC   NC3 9433  14.423   7.439   7.416 -0.0166 -0.0037  0.1434
    1DIPC   PO4 9434  14.443   7.852   7.309 -0.2523  0.0826  0.0241
    1DIPC   GL1 9435  14.262   7.865   6.994  0.0227 -0.2974 -0.0032
    1DIPC   GL2 9436  14.167   7.627   6.882 -0.1150  0.0117 -0.0097
    1DIPC   C1A 9437  14.503   7.997   6.643  0.0685  0.3902 -0.0724
    1DIPC   D2A 9438  14.994   7.936   6.388  0.1948 -0.1839  0.0283
    1DIPC   D3A 9439  14.812   7.774   5.994 -0.1080 -0.2658  0.2275
    1DIPC   C4A 9440  14.550   7.991   5.702  0.3674  0.1017 -0.3828
    1DIPC   C1B 9441  13.992   7.363   6.703  0.2241 -0.1828  0.0892
    1DIPC   D2B 9442  13.648   7.051   6.804  0.1216 -0.0136  0.0764
    1DIPC   D3B 9443  13.615   7.164   6.393  0.0671  0.0886  0.0114
    1DIPC   C4B 9444  13.718   7.561   6.216 -0.2620 -0.1068  0.2528
    1DIPC   NC3 9445   3.187  18.833   6.651 -0.2443  0.1285 -0.1393
    1DIPC   PO4 9446   3.123  18.369   6.630  0.0167  0.2338  0.4160
    1DIPC   GL1 9447   3.005  18.570   6.302 -0.3181 -0.1784 -0.2521
    1DIPC   GL2 9448   3.052  18.462   6.146 -0.2425 -0.0602  0.1052
    1DIPC   C1A 9449   2.756  18.698   5.849 -0.1764 -0.3536  0.0215
    1DIPC   D2A 9450   2.632  18.801   5.423  0.1814 -0.1734 -0.0802
    1DIPC   D3A 9451   2.852  18.799   5.108  0.0277  0.1507  0.0287
    1DIPC   C4A 9452   2.757  18.657   4.689  0.3152 -0.2015 -0.0241
    1DIPC   C1B 9453   3.394  18.401   5.915  0.0017  0.1921  0.1310
    1DIPC   D2B 9454   3.828  18.372   5.754  0.0085  0.1886  0.1595
    1DIPC   D3B 9455   3.922  18.803   5.834 -0.1775  0.0147 -0.1489
    1DIPC   C4B 9456   3.950  19.180   5.575  0.0241 -0.0605  0.0373
    1DIPC   NC3 9457  25.286   8.662   6.837  0.2999  0.1319 -0.3045
    1DIPC   PO4 9458  25.578   8.859   6.571  0.0451 -0.3089 -0.0378
    1DIPC   GL1 9459  25.779   8.726   6.253  0.0013  0.2024  0.2086
    1DIPC   GL2 9460  25.943   8.933   6.042  0.0192 -0.1054 -0.1963
    1DIPC   C1A 9461  25.541   8.656   5.874 -0.3193  0.0141 -0.2121
    1DIPC   D2A 9462  25.473   8.880   5.600  0.0077  0.0731 -0.2029
    1DIPC   D3A 9463  25.885   9.069   5.495 -0.0221  0.2543  0.1181
    1DIPC   C4A 9464  26.131   8.979   5.146  0.3020  0.1733  0.0295
    1DIPC   C1B 9465  26.184   9.326   5.981  0.0423 -0.0091  0.0485
    1DIPC   D2B 9466  26.530   9.586   5.936  0.0111 -0.0055 -0.1690
    1DIPC   D3B 9467  26.418  10.005   6.119 -0.3249  0.1143 -0.1364
    1DIPC   C4B 9468  26.069  10.230   5.852 -0.1830  0.0487 -0.0430
    1DIPC   NC3 9469  27.583  26.213   7.255 -0.3646  0.1057 -0.0010
    1DIPC   PO4 9470  27.725  26.179   6.891  0.1367  0.3404  0.0030
    1DIPC   GL1 9471  27.709  26.394   6.538 -0.2203  0.2427 -0.2307
    1DIPC   GL2 9472  27.546  26.511   6.349  0.0305  0.1974  0.1164
    1DIPC   C1A 9473  28.060  26.279   6.229  0.4354 -0.0933 -0.1219
    1DIPC   D2A 9474   0.373  26.216   6.217 -0.0081  0.1431 -0.0181
    1DIPC   D3A 9475   0.153  25.944   5.806 -0.1120  0.1532 -0.3135
    1DIPC   C4A 9476   0.171  26.052   5.285 -0.1164 -0.2081  0.0273
    1DIPC   C1B 9477  27.628  26.233   5.971 -0.2603  0.1212 -0.2796
    1DIPC   D2B 9478  27.776  25.944   5.644  0.1912 -0.0831  0.3074
    1DIPC   D3B 9479  27.672  26.000   5.139 -0.0578  0.1159  0.0917
    1DIPC   C4B 9480  27.561  26.191   4.743  0.3368 -0.1048  0.0192
    1DIPC   NC3 9481   8.340  11.940   7.073  0.0599 -0.1476  0.0151
    1DIPC   PO4 9482   8.751  11.843   7.160 -0.0369  0.2853 -0.2644
    1DIPC   GL1 9483   8.894  11.767   6.797  0.0562  0.1897 -0.2412
    1DIPC   GL2 9484   8.609  11.770   6.665  0.1575  0.2467  0.0860
    1DIPC   C1A 9485   9.038  11.504   6.561  0.0062  0.2695  0.1625
    1DIPC   D2A 9486   8.788  11.258   6.634 -0.0032  0.1546  0.0583
    1DIPC   D3A 9487   8.437  11.029   6.370  0.1431  0.2636  0.0614
    1DIPC   C4A 9488   8.494  10.772   5.969 -0.1476 -0.0035  0.1760
    1DIPC   C1B 9489   8.517  11.581   6.305  0.1473  0.0867  0.2183
    1DIPC   D2B 9490   8.455  11.387   5.915 -0.0827  0.0589 -0.1699
    1DIPC   D3B 9491   8.513  11.781   5.704  0.2968  0.0433  0.1742
    1DIPC   C4B 9492   8.190  11.891   5.315 -0.1261 -0.0502 -0.1101
    1DIPC   NC3 9493  19.478  10.592   7.218 -0.0673 -0.0124 -0.1396
    1DIPC   PO4 9494  19.776  10.393   7.007  0.1749 -0.1152  0.3890
    1DIPC   GL1 9495  19.974  10.457   6.641 -0.0116 -0.1768  0.0074
    1DIPC   GL2 9496  19.960  10.790   6.533 -0.0220  0.0100  0.1583
    1DIPC   C1A 9497  20.026  10.374   6.216 -0.1913 -0.1852 -0.1388
    1DIPC   D2A 9498  19.958  10.338   5.788 -0.0554 -0.0209  0.1762
    1DIPC   D3A 9499  20.002  10.755   5.615  0.2061 -0.0843  0.2651
    1DIPC   C4A 9500  19.914  10.893   5.258  0.0194  0.3185 -0.2331
    1DIPC   C1B 9501  19.982  10.844   6.116  0.2184  0.0362 -0.0598
    1DIPC   D2B 9502  20.246  11.114   5.800 -0.0527  0.0034 -0.2029
    1DIPC   D3B 9503  20.225  11.226   5.374 -0.0566 -0.0397  0.4908
    1DIPC   C4B 9504  20.518  11.301   5.123 -0.1229  0.0797  0.2598
    1DIPC   NC3 9505   7.061  19.047   7.449 -0.0175 -0.0443 -0.0411
    1DIPC   PO4 9506   7.434  18.932   7.426  0.1135 -0.0555 -0.1805
    1DIPC   GL1 9507   7.308  19.064   6.972  0.0027  0.0262  0.0595
    1DIPC   GL2 9508   7.217  18.794   6.898 -0.2228 -0.1294  0.2373
    1DIPC   C1A 9509   7.383  19.073   6.553  0.0669  0.1760 -0.0368
    1DIPC   D2A 9510   7.293  18.813   6.207 -0.1884 -0.1373 -0.0301
    1DIPC   D3A 9511   7.607  19.129   5.986 -0.2846  0.4145 -0.0241
    1DIPC   C4A 9512   8.062  19.125   5.976  0.0312 -0.0505 -0.4040
    1DIPC   C1B 9513   7.409  18.458   6.684 -0.1069  0.2203  0.1163
    1DIPC   D2B 9514   7.653  18.198   6.559  0.3349  0.0382 -0.3617
    1DIPC   D3B 9515   7.599  18.225   6.207  0.0903  0.1737  0.1419
    1DIPC   C4B 9516   7.367  18.423   5.950 -0.0620  0.2417 -0.3961
    1DIPC   NC3 9517   0.084   4.299   6.075 -0.0402 -0.3140  0.0003
    1DIPC   PO4 9518   0.476   4.188   5.818  0.0896  0.1376  0.3251
    1DIPC   GL1 9519   0.153   4.391   5.571  0.3194  0.2102  0.0045
    1DIPC   GL2 9520   0.182   4.716   5.747 -0.1179 -0.0223 -0.0230
    1DIPC   C1A 9521   0.069   4.222   5.115  0.1004  0.0691 -0.0310
    1DIPC   D2A 9522  27.856   4.258   4.777 -0.2566  0.0310 -0.1987
    1DIPC   D3A 9523  27.701   4.490   4.524 -0.3623  0.1284 -0.2752
    1DIPC   C4A 9524  27.450   4.437   4.171  0.2670 -0.1275 -0.1886
    1DIPC   C1B 9525   0.071   4.839   5.247  0.0436  0.2259 -0.3831
    1DIPC   D2B 9526  28.092   4.723   4.872  0.0912  0.0692  0.2248
    1DIPC   D3B 9527  27.968   5.019   4.626 -0.1218  0.2236 -0.0555
    1DIPC   C4B 9528  27.644   5.217   4.709 -0.0816 -0.0233 -0.0860
    1DIPC   NC3 9529  14.453  11.294   8.383 -0.1134  0.2834  0.0672
    1DIPC   PO4 9530  14.608  10.955   8.075  0.3322 -0.0613  0.0310
    1DIPC   GL1 9531  14.618  11.014   7.626  0.1192  0.2008  0.0448
    1DIPC   GL2 9532  14.391  10.810   7.470  0.1255  0.1918  0.1550
    1DIPC   C1A 9533  14.806  10.982   7.141  0.0786 -0.0258  0.0143
    1DIPC   D2A 9534  15.039  10.752   6.854  0.1111 -0.2869  0.0390
    1DIPC   D3A 9535  15.277  10.263   6.883 -0.3098  0.1983  0.0375
    1DIPC   C4A 9536  15.306  10.178   6.442  0.1050  0.0979 -0.0192
    1DIPC   C1B 9537  14.288  11.178   7.319 -0.0632 -0.3799  0.1185
    1DIPC   D2B 9538  14.090  11.592   7.528 -0.0521  0.2720 -0.0301
    1DIPC   D3B 9539  13.654  11.650   7.333 -0.0764  0.1758 -0.1151
    1DIPC   C4B 9540  13.499  11.992   7.036 -0.1844  0.0419  0.0219
    1DIPC   NC3 9541   4.573  14.602   6.884  0.1896 -0.3224 -0.1730
    1DIPC   PO4 9542   4.934  14.969   6.842  0.1061  0.1306  0.0383
    1DIPC   GL1 9543   5.043  14.806   6.375 -0.0689 -0.3363 -0.0291
    1DIPC   GL2 9544   5.368  14.586   6.272  0.0674 -0.1211 -0.2674
    1DIPC   C1A 9545   4.891  14.508   6.034 -0.0104  0.3016  0.2003
    1DIPC   D2A 9546   4.891  14.453   5.458  0.2543  0.2500 -0.2394
    1DIPC   D3A 9547   4.734  14.123   5.395 -0.0561 -0.0922  0.0563
    1DIPC   C4A 9548   4.648  14.025   4.907 -0.0486  0.0016 -0.1038
    1DIPC   C1B 9549   5.201  14.184   6.387  0.1390  0.1326  0.1747
    1DIPC   D2B 9550   4.970  13.994   6.612 -0.0858 -0.0895  0.1206
    1DIPC   D3B 9551   4.817  13.580   6.389 -0.0498 -0.1957  0.0301
    1DIPC   C4B 9552   4.413  13.567   6.156 -0.1320  0.0967 -0.0238
    1DIPC   NC3 9553  17.500   5.710   7.303 -0.3746 -0.0080  0.0100
    1DIPC   PO4 9554  17.123   5.953   7.301 -0.0329 -0.0547 -0.0182
    1DIPC   GL1 9555  17.007   5.859   6.926 -0.1814 -0.0860 -0.0201
    1DIPC   GL2 9556  16.555   5.955   6.790  0.0045  0.0238 -0.0490
    1DIPC   C1A 9557  16.941   5.645   6.640 -0.0711  0.1777 -0.2809
    1DIPC   D2A 9558  16.989   5.664   6.294  0.2085  0.1963 -0.2971
    1DIPC   D3A 9559  17.320   5.815   6.097  0.2433  0.0142  0.0018
    1DIPC   C4A 9560  17.618   5.451   6.114  0.0262 -0.3019  0.2752
    1DIPC   C1B 9561  16.865   6.174   6.557  0.1670 -0.1080 -0.5108
    1DIPC   D2B 9562  16.824   6.473   6.308 -0.0577  0.0950  0.2767
    1DIPC   D3B 9563  16.873   6.124   6.017  0.0898  0.0624 -0.1765
    1DIPC   C4B 9564  16.938   6.312   5.554  0.1702  0.1285  0.1147
    1DIPC   NC3 9565  12.831  21.824   7.258 -0.0761  0.5614 -0.0396
    1DIPC   PO4 9566  12.971  22.096   6.931  0.3060  0.1322 -0.1509
    1DIPC   GL1 9567  12.765  21.781   6.683 -0.0658 -0.0168  0.1448
    1DIPC   GL2 9568  12.588  21.933   6.576  0.0942 -0.0061  0.0835
    1DIPC   C1A 9569  12.903  21.433   6.490 -0.0162  0.1167  0.2070
    1DIPC   D2A 9570  13.107  21.309   6.160 -0.1215 -0.0059 -0.1414
    1DIPC   D3A 9571  13.493  21.197   6.268  0.1896 -0.2830  0.1265
    1DIPC   C4A 9572  13.769  21.548   6.305 -0.1007 -0.0346  0.1930
    1DIPC   C1B 9573  12.287  21.712   6.258  0.0933  0.1331  0.0217
    1DIPC   D2B 9574  12.291  21.679   5.856 -0.3747 -0.2948 -0.0994
    1DIPC   D3B 9575  12.029  21.770   5.461  0.1902  0.0981  0.2587
    1DIPC   C4B 9576  12.281  21.803   5.076 -0.1121 -0.2852 -0.0671
    1DIPC   NC3 9577  21.993   3.923   6.963 -0.0532 -0.0142 -0.1134
    1DIPC   PO4 9578  22.282   3.629   6.707 -0.2045 -0.0042 -0.1637
    1DIPC   GL1 9579  22.311   3.402   6.209  0.0129 -0.0266 -0.1883
    1DIPC   GL2 9580  22.505   3.654   6.121 -0.0013  0.1495 -0.2579
    1DIPC   C1A 9581  22.297   3.494   5.682  0.1794 -0.0054 -0.2541
    1DIPC   D2A 9582  22.114   3.481   5.279 -0.1148 -0.0727 -0.1387
    1DIPC   D3A 9583  22.108   3.083   5.083  0.3815  0.3457 -0.2176
    1DIPC   C4A 9584  22.513   2.831   5.059 -0.1008 -0.0302 -0.2927
    1DIPC   C1B 9585  22.685   3.862   5.775 -0.1125  0.1541 -0.0054
    1DIPC   D2B 9586  22.421   3.859   5.380  0.0657 -0.0824 -0.3123
    1DIPC   D3B 9587  22.816   4.131   5.382 -0.3441 -0.1958 -0.0976
    1DIPC   C4B 9588  22.779   4.504   5.337 -0.1918 -0.2660  0.0296
    1DIPC   NC3 9589   5.077   4.789   6.706 -0.3403 -0.3023  0.0910
    1DIPC   PO4 9590   5.429   5.052   6.472  0.2935  0.1345 -0.1724
    1DIPC   GL1 9591   5.623   5.139   6.098  0.1403 -0.0897 -0.0281
    1DIPC   GL2 9592   5.954   5.323   5.988 -0.2096 -0.0808  0.0330
    1DIPC   C1A 9593   5.514   5.443   5.826 -0.1434  0.2870 -0.0797
    1DIPC   D2A 9594   5.470   5.659   5.382 -0.1749  0.0035 -0.0418
    1DIPC   D3A 9595   5.612   6.061   5.376 -0.1374  0.0992 -0.3631
    1DIPC   C4A 9596   6.061   6.140   5.235 -0.2838 -0.2366 -0.1812
    1DIPC   C1B 9597   5.928   5.255   5.463 -0.0173 -0.0076 -0.3132
    1DIPC   D2B 9598   5.997   5.302   5.067  0.4234 -0.4284  0.0287
    1DIPC   D3B 9599   5.865   5.692   5.078 -0.1347 -0.0415 -0.0655
    1DIPC   C4B 9600   5.682   6.033   4.884  0.2190 -0.0719 -0.2306
    1DIPC   NC3 9601  16.915  19.765   7.294  0.0050  0.0079 -0.1123
    1DIPC   PO4 9602  16.829  19.281   7.343 -0.1253 -0.0657  0.3696
    1DIPC   GL1 9603  17.015  19.054   6.893 -0.0884 -0.1723  0.0324
    1DIPC   GL2 9604  17.358  19.103   6.732 -0.2162 -0.0616  0.1171
    1DIPC   C1A 9605  16.923  18.970   6.447  0.1143 -0.0560  0.0234
    1DIPC   D2A 9606  16.481  18.818   6.390 -0.2039 -0.0271  0.1145
    1DIPC   D3A 9607  16.721  18.482   6.626  0.1418 -0.2346 -0.2349
    1DIPC   C4A 9608  16.902  18.161   6.546 -0.0039 -0.2521 -0.3258
    1DIPC   C1B 9609  17.587  18.990   6.362  0.1123  0.2226  0.0426
    1DIPC   D2B 9610  17.695  18.978   5.857  0.2720 -0.4494 -0.0326
    1DIPC   D3B 9611  17.529  18.620   5.985 -0.1291  0.2235  0.1656
    1DIPC   C4B 9612  17.806  18.237   5.903  0.1204  0.0721  0.3334
    1DIPC   NC3 9613  24.634  26.328   7.390  0.2224  0.0827 -0.0377
    1DIPC   PO4 9614  24.329  26.049   7.107 -0.0476  0.2638 -0.1228
    1DIPC   GL1 9615  24.071  26.139   6.774  0.1478 -0.1582 -0.2567
    1DIPC   GL2 9616  23.784  26.306   6.648 -0.1392  0.1370 -0.1347
    1DIPC   C1A 9617  24.099  26.006   6.302  0.0687  0.1401  0.0399
    1DIPC   D2A 9618  23.926  25.954   5.904 -0.3122  0.1659  0.2866
    1DIPC   D3A 9619  23.594  26.171   5.829  0.2756  0.0545 -0.0410
    1DIPC   C4A 9620  23.539  26.187   5.401 -0.0288  0.3119  0.0498
    1DIPC   C1B 9621  24.171  26.482   6.442 -0.0658  0.0489  0.0021
    1DIPC   D2B 9622  24.402  26.804   6.446 -0.0720 -0.1889 -0.0182
    1DIPC   D3B 9623  24.658  26.567   6.266  0.1502  0.0821 -0.0114
    1DIPC   C4B 9624  25.008  26.540   5.931  0.1959 -0.0623 -0.1118
    1DIPC   NC3 9625  18.467  25.641   7.073 -0.2441  0.0059  0.4370
    1DIPC   PO4 9626  18.012  25.728   7.047  0.0018  0.0004  0.1076
    1DIPC   GL1 9627  17.935  25.717   6.639 -0.2453  0.1505  0.0132
    1DIPC   GL2 9628  17.625  25.592   6.559 -0.2114 -0.0600  0.2536
    1DIPC   C1A 9629  18.178  25.832   6.299  0.3746 -0.2620 -0.2119
    1DIPC   D2A 9630  18.082  26.058   5.931 -0.0767 -0.1572 -0.0629
    1DIPC   D3A 9631  18.256  25.949   5.453  0.1120 -0.3702  0.1308
    1DIPC   C4A 9632  18.751  25.940   5.348 -0.1997 -0.2434  0.1929
    1DIPC   C1B 9633  17.605  25.628   6.010  0.1101  0.2496  0.0099
    1DIPC   D2B 9634  17.306  25.823   5.616 -0.3170  0.5731  0.1611
    1DIPC   D3B 9635  17.454  25.641   5.314  0.0310  0.2698  0.4556
    1DIPC   C4B 9636  17.202  25.487   5.005  0.1488 -0.0076 -0.1198
    1DIPC   NC3 9637   2.359  17.916   6.944  0.1104  0.2974 -0.1325
    1DIPC   PO4 9638   2.391  18.346   6.767  0.1474 -0.1693  0.0997
    1DIPC   GL1 9639   2.166  18.420   6.289 -0.0489  0.2651  0.4565
    1DIPC   GL2 9640   2.495  18.350   6.055 -0.0458  0.2228 -0.1345
    1DIPC   C1A 9641   1.985  18.613   5.949 -0.1994 -0.0048  0.3409
    1DIPC   D2A 9642   2.067  18.538   5.548  0.1452 -0.0342 -0.1625
    1DIPC   D3A 9643   1.682  18.499   5.436 -0.0381  0.1132 -0.0061
    1DIPC   C4A 9644   1.400  18.559   5.088 -0.1082 -0.1126  0.0754
    1DIPC   C1B 9645   2.451  18.305   5.657 -0.1232  0.2404 -0.1816
    1DIPC   D2B 9646   2.505  17.928   5.354  0.0334  0.1967 -0.0851
    1DIPC   D3B 9647   2.732  18.303   5.163  0.0824 -0.3166  0.0613
    1DIPC   C4B 9648   3.113  18.278   4.909  0.0755  0.2702  0.0160
    1DIPC   NC3 9649  22.048  13.284   7.053 -0.3254 -0.2914  0.0751
    1DIPC   PO4 9650  22.361  12.963   6.979  0.1270  0.2503  0.0474
    1DIPC   GL1 9651  22.054  12.802   6.641 -0.0866 -0.1221  0.0409
    1DIPC   GL2 9652  21.842  12.508   6.715  0.1130 -0.0747 -0.0944
    1DIPC   C1A 9653  21.797  12.846   6.288  0.2363  0.4342 -0.2868
    1DIPC   D2A 9654  21.817  12.746   5.845  0.0880  0.0967  0.1487
    1DIPC   D3A 9655  21.760  12.297   5.766 -0.1479 -0.1122 -0.0169
    1DIPC   C4A 9656  21.346  12.192   5.763 -0.0411  0.0537  0.3695
    1DIPC   C1B 9657  21.956  12.108   6.501  0.3938  0.0466  0.1017
    1DIPC   D2B 9658  21.723  11.680   6.398  0.1300 -0.1658  0.0094
    1DIPC   D3B 9659  21.395  11.990   6.465 -0.0221 -0.3239 -0.1159
    1DIPC   C4B 9660  21.525  12.388   6.268  0.0431 -0.3379  0.1213
    1DIPC   NC3 9661  13.203  22.636   6.668  0.2071  0.0062 -0.3068
    1DIPC   PO4 9662  12.764  22.408   6.578  0.0655 -0.0496 -0.0552
    1DIPC   GL1 9663  12.816  22.421   6.135 -0.1378  0.1107  0.2042
    1DIPC   GL2 9664  12.928  22.641   6.138  0.0691 -0.1772 -0.0649
    1DIPC   C1A 9665  12.844  22.215   5.758  0.2430 -0.0981  0.1124
    1DIPC   D2A 9666  12.857  22.306   5.408 -0.0769 -0.0341  0.1527
    1DIPC   D3A 9667  12.472  22.584   5.647 -0.0913 -0.0683  0.1657
    1DIPC   C4A 9668  12.390  23.000   5.364 -0.2158 -0.0879  0.0489
    1DIPC   C1B 9669  12.865  22.961   5.903 -0.1244  0.0364  0.2667
    1DIPC   D2B 9670  12.880  22.966   5.389  0.0605  0.0845 -0.3242
    1DIPC   D3B 9671  12.787  22.643   5.089 -0.1671  0.2553  0.0842
    1DIPC   C4B 9672  12.369  22.458   5.182  0.0717  0.1096  0.1107
    1DIPC   NC3 9673   1.416  19.100   6.651  0.0906  0.1860 -0.2205
    1DIPC   PO4 9674   1.851  19.141   6.838 -0.2222  0.3537 -0.0764
    1DIPC   GL1 9675   1.851  19.250   6.420 -0.0964  0.0178 -0.1881
    1DIPC   GL2 9676   2.053  19.480   6.281  0.0530 -0.0716 -0.3073
    1DIPC   C1A 9677   1.511  19.321   6.010 -0.2229 -0.1375  0.1171
    1DIPC   D2A 9678   1.384  19.298   5.563  0.3708 -0.1873 -0.1366
    1DIPC   D3A 9679   1.597  19.539   5.378 -0.1634  0.0263 -0.1959
    1DIPC   C4A 9680   1.695  19.840   5.146  0.1110 -0.0878  0.1160
    1DIPC   C1B 9681   2.229  19.283   5.983  0.0295  0.0828 -0.1534
    1DIPC   D2B 9682   2.348  18.932   5.803  0.0354 -0.0149  0.2000
    1DIPC   D3B 9683   2.669  19.217   5.770  0.1949 -0.3058 -0.1741
    1DIPC   C4B 9684   2.633  19.649   5.990 -0.0927 -0.2496  0.0021
    1DIPC   NC3 9685  20.736  15.346   7.387 -0.1867 -0.0098  0.2049
    1DIPC   PO4 9686  21.112  15.482   7.203 -0.1604 -0.1304 -0.1063
    1DIPC   GL1 9687  21.164  15.240   6.829 -0.0623 -0.0817  0.3923
    1DIPC   GL2 9688  21.402  15.085   6.928  0.1858  0.0211  0.0467
    1DIPC   C1A 9689  21.240  15.118   6.433 -0.3141  0.1982 -0.0598
    1DIPC   D2A 9690  21.385  15.109   6.013  0.0768 -0.1769 -0.0539
    1DIPC   D3A 9691  21.706  15.375   6.286 -0.1193 -0.2091  0.2257
    1DIPC   C4A 9692  21.886  15.304   6.671  0.1774 -0.0147  0.0059
    1DIPC   C1B 9693  21.091  14.775   6.754  0.0090 -0.0873  0.1546
    1DIPC   D2B 9694  20.845  14.652   6.515 -0.2028  0.0816  0.3013
    1DIPC   D3B 9695  20.512  14.348   6.867  0.2746 -0.1117  0.0247
    1DIPC   C4B 9696  20.218  13.936   6.665 -0.3370  0.1278  0.1750
    1DIPC   NC3 9697  24.495  16.220   7.237  0.2563 -0.0931 -0.1884
    1DIPC   PO4 9698  24.759  16.106   6.890 -0.2179  0.1957 -0.2194
    1DIPC   GL1 9699  24.882  16.199   6.554 -0.1645 -0.2799  0.1054
    1DIPC   GL2 9700  25.133  16.135   6.449  0.0577  0.0100  0.1314
    1DIPC   C1A 9701  24.730  16.460   6.304  0.1971 -0.5379 -0.1932
    1DIPC   D2A 9702  24.613  16.701   5.928 -0.0410  0.4331  0.0867
    1DIPC   D3A 9703  24.828  16.993   6.153  0.1185  0.1107  0.2808
    1DIPC   C4A 9704  24.922  17.427   5.943  0.1016  0.1736  0.1758
    1DIPC   C1B 9705  25.174  16.281   5.990  0.0330  0.4569  0.2115
    1DIPC   D2B 9706  25.136  16.668   5.812  0.1675  0.1730 -0.2736
    1DIPC   D3B 9707  24.820  16.683   5.400  0.0808  0.2340  0.1710
    1DIPC   C4B 9708  24.904  16.780   5.003 -0.1557  0.2176  0.1177
    1DIPC   NC3 9709   5.537  19.745   7.658  0.4029  0.1661  0.0287
    1DIPC   PO4 9710   5.676  19.664   7.292  0.0030 -0.1424 -0.3224
    1DIPC   GL1 9711   5.587  19.640   6.934  0.2945 -0.0841  0.1492
    1DIPC   GL2 9712   5.375  19.865   6.670 -0.0675  0.2960 -0.0012
    1DIPC   C1A 9713   5.892  19.699   6.600  0.0345 -0.1652 -0.2761
    1DIPC   D2A 9714   6.058  19.876   6.109 -0.1658 -0.2548 -0.2083
    1DIPC   D3A 9715   6.102  19.590   5.815 -0.0337 -0.0409  0.1812
    1DIPC   C4A 9716   5.969  19.535   5.335  0.3151  0.0607 -0.1219
    1DIPC   C1B 9717   5.323  19.732   6.119  0.2641  0.2990  0.2395
    1DIPC   D2B 9718   5.029  19.686   5.730  0.2581 -0.0599  0.0003
    1DIPC   D3B 9719   5.219  19.398   5.398 -0.1275 -0.0363  0.1220
    1DIPC   C4B 9720   5.551  19.395   5.080 -0.0303 -0.0098  0.2036
    1DIPC   NC3 9721  21.770   7.612   6.747  0.1715  0.1440  0.1465
    1DIPC   PO4 9722  21.359   7.587   6.872  0.3443  0.0017  0.0620
    1DIPC   GL1 9723  21.330   7.680   6.457  0.2254  0.0412 -0.3806
    1DIPC   GL2 9724  21.214   7.359   6.361 -0.0183  0.1946  0.3010
    1DIPC   C1A 9725  21.253   7.925   6.108 -0.1662  0.1837 -0.1020
    1DIPC   D2A 9726  20.870   8.161   6.120 -0.0364 -0.1041 -0.2739
    1DIPC   D3A 9727  20.797   8.544   5.929 -0.1708 -0.0957  0.5095
    1DIPC   C4A 9728  20.487   8.922   6.171 -0.0634  0.0573 -0.0481
    1DIPC   C1B 9729  21.330   7.249   5.952  0.0457 -0.3740  0.0714
    1DIPC   D2B 9730  21.565   6.953   5.622 -0.0563  0.3060 -0.1479
    1DIPC   D3B 9731  21.897   7.185   5.551  0.1660  0.2513  0.1333
    1DIPC   C4B 9732  22.188   7.335   5.855 -0.1112  0.0193  0.2256
    1DIPC   NC3 9733  28.051  11.280   6.642  0.3414  0.2894  0.1304
    1DIPC   PO4 9734  27.932  11.663   6.798 -0.3836  0.0518 -0.1903
    1DIPC   GL1 9735  27.913  11.710   6.369  0.1497 -0.3492 -0.0286
    1DIPC   GL2 9736  27.780  11.934   6.325  0.1031 -0.0896 -0.2788
    1DIPC   C1A 9737  28.085  11.588   5.926  0.0743 -0.0071 -0.1214
    1DIPC   D2A 9738  27.797  11.374   5.691  0.2286 -0.0164  0.1395
    1DIPC   D3A 9739   0.058  11.279   5.550  0.0897 -0.1393 -0.0475
    1DIPC   C4A 9740   0.403  11.459   5.433  0.0714 -0.0228 -0.0345
    1DIPC   C1B 9741  27.596  11.838   5.871 -0.0894 -0.0885 -0.3074
    1DIPC   D2B 9742  27.706  11.808   5.368  0.1353  0.2066 -0.3576
    1DIPC   D3B 9743  27.911  11.473   5.193  0.0533  0.1036 -0.1578
    1DIPC   C4B 9744  28.103  11.580   4.752 -0.0469  0.1093  0.0590
    1DIPC   NC3 9745  21.138  27.902   6.823  0.1050  0.1493  0.1036
    1DIPC   PO4 9746  21.149  27.421   6.777  0.1290  0.2714 -0.3435
    1DIPC   GL1 9747  21.424  27.352   6.443 -0.2797 -0.1690 -0.2463
    1DIPC   GL2 9748  21.723  27.294   6.510  0.0899  0.0056  0.0925
    1DIPC   C1A 9749  21.369  27.549   6.030 -0.1624  0.2823  0.0299
    1DIPC   D2A 9750  21.647  27.885   5.900 -0.0968 -0.0298  0.2592
    1DIPC   D3A 9751  21.950  27.585   5.977  0.0073  0.2494  0.0182
    1DIPC   C4A 9752  22.402  27.509   5.952 -0.3910  0.1283  0.0097
    1DIPC   C1B 9753  21.655  27.816   6.365  0.4710  0.1344 -0.1634
    1DIPC   D2B 9754  21.291  27.933   6.379  0.1513  0.0526 -0.0922
    1DIPC   D3B 9755  21.461   0.196   6.269 -0.3636  0.1205  0.1750
    1DIPC   C4B 9756  21.337   0.308   5.895 -0.1838  0.0769 -0.0444
    1DIPC   NC3 9757  25.740   4.418   6.712  0.1069  0.0845  0.1362
    1DIPC   PO4 9758  25.388   4.616   6.873  0.0380  0.3608 -0.1237
    1DIPC   GL1 9759  25.038   4.788   6.621  0.0197  0.1102 -0.0491
    1DIPC   GL2 9760  25.161   4.998   6.664  0.1373 -0.1901  0.5477
    1DIPC   C1A 9761  24.912   4.834   6.239 -0.1561 -0.1511  0.3074
    1DIPC   D2A 9762  24.861   5.165   5.925 -0.1159  0.0122 -0.1700
    1DIPC   D3A 9763  24.964   5.074   5.480  0.1566  0.1222 -0.2921
    1DIPC   C4A 9764  25.081   5.355   5.126 -0.1678  0.1225  0.2917
    1DIPC   C1B 9765  25.298   5.211   6.333 -0.2619 -0.2182  0.1966
    1DIPC   D2B 9766  25.620   5.449   6.279  0.1532  0.3637  0.2181
    1DIPC   D3B 9767  25.928   5.390   5.919 -0.3831 -0.0269 -0.1621
    1DIPC   C4B 9768  25.797   5.021   5.661  0.2562  0.2785  0.3830
    1DIPC   NC3 9769  13.560  25.830   7.602 -0.0116  0.1075  0.0232
    1DIPC   PO4 9770  13.493  25.968   7.160  0.1295  0.0398  0.1236
    1DIPC   GL1 9771  13.524  25.810   6.740  0.3642 -0.1745 -0.4262
    1DIPC   GL2 9772  13.653  26.086   6.688  0.2715  0.1471 -0.0641
    1DIPC   C1A 9773  13.439  25.760   6.331  0.2167 -0.1661  0.2468
    1DIPC   D2A 9774  13.444  25.459   5.996  0.0904  0.3098 -0.0243
    1DIPC   D3A 9775  13.253  25.164   5.636 -0.2704 -0.0845  0.0022
    1DIPC   C4A 9776  13.424  24.786   5.455 -0.0056 -0.1455  0.0666
    1DIPC   C1B 9777  13.817  26.420   6.517 -0.1207  0.0292 -0.1418
    1DIPC   D2B 9778  14.243  26.380   6.190  0.0483 -0.2050 -0.0585
    1DIPC   D3B 9779  14.030  26.278   5.737 -0.1319 -0.0586  0.1993
    1DIPC   C4B 9780  14.296  26.246   5.437  0.1186 -0.2016 -0.0786
    1DIPC   NC3 9781  18.430   4.536   8.012 -0.0901 -0.2636 -0.2779
    1DIPC   PO4 9782  18.039   4.408   7.638 -0.1586  0.1108  0.3641
    1DIPC   GL1 9783  18.188   4.241   7.179 -0.0283  0.0027  0.1124
    1DIPC   GL2 9784  18.431   4.216   7.079 -0.0977  0.1048 -0.1915
    1DIPC   C1A 9785  18.120   4.253   6.670  0.1596  0.1804  0.1284
    1DIPC   D2A 9786  18.249   4.379   6.242  0.2534  0.1206  0.0732
    1DIPC   D3A 9787  18.665   4.480   5.933 -0.2044  0.0033 -0.1088
    1DIPC   C4A 9788  18.565   4.736   5.584  0.3261 -0.0311 -0.0216
    1DIPC   C1B 9789  18.602   4.424   6.649 -0.1634 -0.0215  0.0772
    1DIPC   D2B 9790  18.996   4.623   6.336 -0.0219  0.0014 -0.2419
    1DIPC   D3B 9791  19.254   4.728   6.624  0.3301  0.2709 -0.2273
    1DIPC   C4B 9792  19.415   5.062   6.626  0.0945 -0.3834 -0.2796
    1DIPC   NC3 9793   6.216  20.762   7.936 -0.3041  0.3140 -0.1711
    1DIPC   PO4 9794   6.111  20.954   7.640 -0.1591 -0.0395 -0.1349
    1DIPC   GL1 9795   6.391  20.881   7.227 -0.1652  0.2327  0.1325
    1DIPC   GL2 9796   6.350  21.120   7.108 -0.4262 -0.1229 -0.0960
    1DIPC   C1A 9797   6.360  20.434   7.073  0.0766 -0.0556  0.1916
    1DIPC   D2A 9798   6.442  20.161   6.744  0.0633  0.3850  0.1101
    1DIPC   D3A 9799   6.336  19.707   6.707  0.1114 -0.0036 -0.1088
    1DIPC   C4A 9800   6.500  19.528   6.993 -0.1612  0.0715  0.0453
    1DIPC   C1B 9801   6.304  21.240   6.585  0.0534 -0.2914  0.1192
    1DIPC   D2B 9802   6.068  20.968   6.388  0.2317 -0.2241 -0.0070
    1DIPC   D3B 9803   6.083  20.807   6.783 -0.1917  0.2077  0.1727
    1DIPC   C4B 9804   5.855  21.103   7.026  0.3443 -0.0423  0.0929
    1DIPC   NC3 9805  23.258  26.673   7.590 -0.1280  0.2892 -0.1654
    1DIPC   PO4 9806  23.262  27.052   7.343 -0.3071  0.0874  0.1086
    1DIPC   GL1 9807  23.351  26.969   6.820  0.1202 -0.2113  0.3398
    1DIPC   GL2 9808  23.136  27.119   6.676 -0.0697  0.2997 -0.1511
    1DIPC   C1A 9809  23.277  26.627   6.539  0.1619  0.1471  0.1843
    1DIPC   D2A 9810  22.978  26.613   6.194  0.0113 -0.1864  0.2124
    1DIPC   D3A 9811  23.209  26.493   5.891  0.1397  0.1688  0.1504
    1DIPC   C4A 9812  23.113  26.622   5.435  0.1887 -0.3407 -0.1057
    1DIPC   C1B 9813  23.099  27.447   6.341 -0.0607 -0.0162  0.3908
    1DIPC   D2B 9814  22.921  27.494   5.867 -0.0983  0.2741 -0.0272
    1DIPC   D3B 9815  22.865  27.467   5.395 -0.0526 -0.3180  0.2287
    1DIPC   C4B 9816  22.610  27.662   5.030 -0.0949 -0.0374 -0.0272
    1DIPC   NC3 9817  12.461  25.180   6.231  0.0232  0.0188 -0.2034
    1DIPC   PO4 9818  12.142  24.903   6.444  0.1953 -0.1143 -0.0150
    1DIPC   GL1 9819  11.881  24.837   6.106 -0.2396 -0.0058  0.3655
    1DIPC   GL2 9820  11.667  24.704   6.270  0.0070 -0.0873  0.0996
    1DIPC   C1A 9821  11.730  24.626   5.761 -0.2410  0.0351 -0.0895
    1DIPC   D2A 9822  11.271  24.693   5.546  0.2433 -0.0041 -0.2056
    1DIPC   D3A 9823  11.260  24.836   5.121 -0.0756  0.1914  0.2225
    1DIPC   C4A 9824  11.482  25.186   4.900 -0.3946 -0.0717  0.0379
    1DIPC   C1B 9825  11.411  24.982   5.981  0.1698  0.1973 -0.1634
    1DIPC   D2B 9826  11.594  25.241   5.893  0.0249  0.2487 -0.1200
    1DIPC   D3B 9827  11.626  25.045   5.454 -0.2425 -0.1012  0.1515
    1DIPC   C4B 9828  11.945  25.064   5.109  0.4358 -0.2872 -0.2235
    1DIPC   NC3 9829  21.929   0.252   7.436  0.3318 -0.1733  0.2635
    1DIPC   PO4 9830  21.839   0.581   7.097  0.1186 -0.3987 -0.1530
    1DIPC   GL1 9831  21.872   0.675   6.695  0.1427  0.0366  0.3097
    1DIPC   GL2 9832  21.557   0.621   6.556  0.1038  0.1402  0.2438
    1DIPC   C1A 9833  21.859   1.081   6.398 -0.0473  0.1296 -0.0611
    1DIPC   D2A 9834  22.098   1.366   6.071  0.1884  0.1332 -0.0929
    1DIPC   D3A 9835  22.526   1.208   6.256 -0.1693  0.1201  0.0312
    1DIPC   C4A 9836  22.592   1.005   5.892  0.0918  0.1102 -0.0979
    1DIPC   C1B 9837  21.567   0.696   6.147  0.0238  0.1429  0.1738
    1DIPC   D2B 9838  21.671   0.606   5.802 -0.0257 -0.2872 -0.1248
    1DIPC   D3B 9839  21.651   0.806   5.425 -0.0374 -0.0706 -0.0823
    1DIPC   C4B 9840  21.499   0.644   5.009 -0.1984 -0.0981  0.0623
    1DIPC   NC3 9841  20.485  21.001   7.228  0.0052 -0.0265  0.1355
    1DIPC   PO4 9842  20.553  21.342   7.016 -0.1138  0.0699  0.1624
    1DIPC   GL1 9843  20.886  21.328   6.689  0.1735  0.1421  0.1215
    1DIPC   GL2 9844  21.226  21.337   6.819  0.1447 -0.0408  0.2721
    1DIPC   C1A 9845  21.036  21.642   6.407  0.0286 -0.2945 -0.0692
    1DIPC   D2A 9846  20.791  21.833   6.040  0.2454  0.2225  0.0784
    1DIPC   D3A 9847  20.448  21.529   5.725 -0.1839  0.1027  0.0982
    1DIPC   C4A 9848  20.049  21.645   5.644 -0.1518  0.1990  0.0403
    1DIPC   C1B 9849  21.231  21.225   6.301  0.1000 -0.0733 -0.0786
    1DIPC   D2B 9850  20.924  21.321   6.038 -0.0307  0.1521  0.0929
    1DIPC   D3B 9851  20.602  21.371   6.211  0.1099 -0.3061 -0.0387
    1DIPC   C4B 9852  20.214  21.626   6.143 -0.3157 -0.0775 -0.0038
    1DIPC   NC3 9853  23.485  25.905   7.602  0.0196  0.1118  0.1343
    1DIPC   PO4 9854  23.385  26.264   7.327  0.0757 -0.4163  0.1239
    1DIPC   GL1 9855  23.266  26.221   6.850 -0.0433 -0.0665 -0.3685
    1DIPC   GL2 9856  22.856  26.213   6.842 -0.0678 -0.0417  0.1289
    1DIPC   C1A 9857  23.167  26.145   6.430  0.4039  0.0742 -0.0573
    1DIPC   D2A 9858  22.748  26.071   6.273  0.0593 -0.1186 -0.2610
    1DIPC   D3A 9859  22.831  25.607   6.340  0.1245  0.0573  0.0191
    1DIPC   C4A 9860  23.251  25.525   6.366  0.1475  0.0740  0.0766
    1DIPC   C1B 9861  22.728  26.546   6.645 -0.2980 -0.2710  0.1439
    1DIPC   D2B 9862  22.505  26.832   6.392 -0.0124 -0.0397  0.1515
    1DIPC   D3B 9863  22.699  27.104   6.266  0.3396  0.2461 -0.0699
    1DIPC   C4B 9864  22.887  27.032   5.778  0.0669 -0.0255 -0.0617
    1DIPC   NC3 9865  17.342  10.132   7.501 -0.1802  0.2059 -0.1906
    1DIPC   PO4 9866  17.699   9.835   7.315 -0.4155  0.2695  0.3612
    1DIPC   GL1 9867  17.682  10.066   6.902  0.0749 -0.0072  0.2239
    1DIPC   GL2 9868  17.323   9.923   6.755 -0.0166 -0.0653  0.2621
    1DIPC   C1A 9869  17.652  10.563   6.721  0.0942  0.1216 -0.0155
    1DIPC   D2A 9870  17.171  10.942   6.611 -0.1088 -0.0208  0.0167
    1DIPC   D3A 9871  17.101  11.380   6.560  0.0161  0.2055 -0.1371
    1DIPC   C4A 9872  17.442  11.581   6.567 -0.1649 -0.0722 -0.0736
    1DIPC   C1B 9873  17.289  10.227   6.457  0.0819  0.3844 -0.0365
    1DIPC   D2B 9874  17.282  10.567   6.220  0.5871 -0.0935  0.3411
    1DIPC   D3B 9875  17.660  10.488   6.054 -0.0935  0.3130  0.2852
    1DIPC   C4B 9876  17.480  10.426   5.644  0.1371  0.1130  0.1699
    1DIPC   NC3 9877  21.682  26.113   7.244  0.0559  0.1260  0.1210
    1DIPC   PO4 9878  21.505  25.863   6.902  0.0207 -0.0846  0.0116
    1DIPC   GL1 9879  21.527  26.187   6.611 -0.1752  0.2256 -0.0027
    1DIPC   GL2 9880  21.549  26.488   6.699 -0.0460  0.0028 -0.0468
    1DIPC   C1A 9881  21.223  26.181   6.270 -0.1528 -0.1343  0.2146
    1DIPC   D2A 9882  20.962  26.097   5.968  0.1507 -0.0022 -0.1804
    1DIPC   D3A 9883  21.014  26.023   5.615  0.0742  0.3673  0.3923
    1DIPC   C4A 9884  21.211  25.642   5.518  0.1911 -0.1223 -0.1915
    1DIPC   C1B 9885  21.621  26.812   6.380  0.1932 -0.1365 -0.1703
    1DIPC   D2B 9886  21.618  27.118   5.992 -0.3277 -0.2555 -0.0823
    1DIPC   D3B 9887  21.928  27.059   5.585 -0.0304 -0.1774  0.0135
    1DIPC   C4B 9888  22.117  26.813   5.272 -0.2152  0.1198  0.1700
    1DIPC   NC3 9889   9.337   5.221   7.406 -0.2965 -0.2338 -0.2412
    1DIPC   PO4 9890   9.820   5.234   7.480  0.0140 -0.0535 -0.0536
    1DIPC   GL1 9891  10.221   5.165   7.191  0.0278 -0.4477  0.0123
    1DIPC   GL2 9892  10.345   5.528   7.126  0.0339 -0.2286  0.1966
    1DIPC   C1A 9893  10.129   4.916   7.002 -0.3250  0.0048  0.0980
    1DIPC   D2A 9894  10.224   4.524   6.837 -0.1132  0.2098 -0.0681
    1DIPC   D3A 9895  10.690   4.660   6.799  0.1003  0.1124 -0.1804
    1DIPC   C4A 9896  11.032   4.481   7.010 -0.2603 -0.0738 -0.1277
    1DIPC   C1B 9897  10.677   5.249   6.840 -0.0765 -0.2059 -0.2002
    1DIPC   D2B 9898  10.923   5.017   7.070  0.0222  0.1022 -0.0288
    1DIPC   D3B 9899  11.025   5.049   6.554  0.0246  0.0976  0.1000
    1DIPC   C4B 9900  11.090   4.625   6.444 -0.1510  0.3539  0.2125
    1DIPC   NC3 9901  17.013  28.001   7.952 -0.0790  0.2475 -0.1088
    1DIPC   PO4 9902  16.695   0.020   7.729  0.2731  0.1933 -0.0558
    1DIPC   GL1 9903  16.749   0.026   7.341  0.3445  0.0599  0.3164
    1DIPC   GL2 9904  16.555   0.085   7.031  0.1412  0.2564  0.2875
    1DIPC   C1A 9905  17.104   0.123   6.947  0.1801 -0.3968  0.2815
    1DIPC   D2A 9906  17.195   0.308   6.483  0.1960  0.0718 -0.1300
    1DIPC   D3A 9907  17.615   0.210   6.502  0.1143 -0.1061 -0.0210
    1DIPC   C4A 9908  17.813   0.467   6.165  0.0017 -0.1725  0.1999
    1DIPC   C1B 9909  16.633   0.103   6.612 -0.0889 -0.0703 -0.1808
    1DIPC   D2B 9910  16.538   0.276   6.173 -0.1570 -0.0453  0.0355
    1DIPC   D3B 9911  16.781   0.601   6.219  0.2636  0.0901  0.0764
    1DIPC   C4B 9912  16.639   0.928   5.890 -0.1100 -0.2383 -0.1058
    1DIPC   NC3 9913  22.661  10.601   6.788 -0.1197  0.2561 -0.0256
    1DIPC   PO4 9914  22.584  10.975   6.943  0.1481 -0.0424 -0.0429
    1DIPC   GL1 9915  22.456  11.207   6.606 -0.0415  0.1579  0.2413
    1DIPC   GL2 9916  22.223  11.525   6.676  0.1004  0.0073  0.3343
    1DIPC   C1A 9917  22.312  11.293   6.137 -0.1042  0.2916 -0.0791
    1DIPC   D2A 9918  22.256  11.559   5.783  0.1298  0.1093  0.1718
    1DIPC   D3A 9919  22.294  11.922   5.653  0.0263  0.1132  0.3527
    1DIPC   C4A 9920  22.163  12.058   5.208 -0.1230 -0.2317  0.0634
    1DIPC   C1B 9921  22.239  11.722   6.307  0.2957 -0.0091 -0.0222
    1DIPC   D2B 9922  21.933  11.907   5.994  0.0557  0.0432 -0.0620
    1DIPC   D3B 9923  21.789  11.855   5.538  0.0027 -0.1023 -0.0566
    1DIPC   C4B 9924  21.521  12.068   5.279 -0.0428  0.1185  0.1459
    1DIPC   NC3 9925  25.455   7.468   6.883  0.0251 -0.0049 -0.2550
    1DIPC   PO4 9926  25.091   7.474   6.560  0.0409  0.0003 -0.1345
    1DIPC   GL1 9927  25.181   7.255   6.288 -0.1848 -0.1962  0.0505
    1DIPC   GL2 9928  25.454   7.378   6.203 -0.0815 -0.2080  0.0712
    1DIPC   C1A 9929  25.175   7.204   5.814  0.2026  0.0794 -0.1589
    1DIPC   D2A 9930  25.265   7.223   5.319  0.1606 -0.3365 -0.0552
    1DIPC   D3A 9931  25.390   7.326   4.870 -0.0627  0.1855  0.1062
    1DIPC   C4A 9932  25.137   7.524   4.533  0.0303 -0.0340 -0.1209
    1DIPC   C1B 9933  25.545   6.948   6.070 -0.0913  0.1771  0.0468
    1DIPC   D2B 9934  25.796   6.564   6.136  0.0872  0.4848 -0.1886
    1DIPC   D3B 9935  25.549   6.294   5.910  0.0122  0.0353 -0.0564
    1DIPC   C4B 9936  25.607   6.166   5.506  0.1892  0.1792 -0.0393
    1DIPC   NC3 9937  15.256  13.183   7.493  0.0284  0.2088 -0.0751
    1DIPC   PO4 9938  15.521  12.879   7.771  0.3227 -0.0505  0.2267
    1DIPC   GL1 9939  15.390  12.609   7.449 -0.1198 -0.1645  0.1249
    1DIPC   GL2 9940  15.175  12.405   7.474  0.1088  0.1528  0.4082
    1DIPC   C1A 9941  15.344  12.701   7.071 -0.2487 -0.1068  0.3082
    1DIPC   D2A 9942  15.365  12.512   6.695 -0.2918 -0.0354 -0.2905
    1DIPC   D3A 9943  15.765  12.626   6.483  0.0879 -0.4201 -0.0799
    1DIPC   C4A 9944  15.808  12.878   6.111  0.0472  0.1566 -0.2521
    1DIPC   C1B 9945  15.012  12.255   7.065 -0.0161 -0.4156  0.1936
    1DIPC   D2B 9946  14.739  11.979   7.022  0.1992  0.0490  0.0644
    1DIPC   D3B 9947  14.628  12.031   6.567  0.1723 -0.2652 -0.4307
    1DIPC   C4B 9948  14.354  12.300   6.469  0.1079 -0.0142 -0.1546
    1DIPC   NC3 9949  16.725   8.848   7.372 -0.5152  0.3110 -0.0113
    1DIPC   PO4 9950  16.462   8.539   7.306  0.1138  0.2949 -0.0708
    1DIPC   GL1 9951  16.423   8.965   6.990  0.2342 -0.1044  0.0280
    1DIPC   GL2 9952  16.093   9.098   6.895  0.1853  0.0240  0.1422
    1DIPC   C1A 9953  16.467   9.410   6.750 -0.1147 -0.0206 -0.0122
    1DIPC   D2A 9954  16.597   9.492   6.282  0.1048 -0.1981 -0.0902
    1DIPC   D3A 9955  16.440   9.365   5.901  0.1005 -0.3393 -0.1547
    1DIPC   C4A 9956  16.495   8.926   5.675  0.0202 -0.1828  0.1396
    1DIPC   C1B 9957  15.775   8.862   6.696  0.0189  0.2064 -0.1101
    1DIPC   D2B 9958  15.619   8.447   6.489 -0.0671 -0.0834  0.2280
    1DIPC   D3B 9959  15.305   8.727   6.600 -0.1113  0.2451 -0.0701
    1DIPC   C4B 9960  15.018   8.882   6.921 -0.0211  0.2315 -0.0163
    1DIPC   NC3 9961  14.351  27.457   7.401 -0.4740  0.0676  0.0922
    1DIPC   PO4 9962  14.490  27.685   7.081 -0.2702 -0.0998 -0.2869
    1DIPC   GL1 9963  14.766  27.600   6.674 -0.1311 -0.0000 -0.2054
    1DIPC   GL2 9964  15.102  27.414   6.693 -0.1440 -0.0255 -0.2535
    1DIPC   C1A 9965  14.951  27.593   6.285 -0.0236 -0.3100  0.3151
    1DIPC   D2A 9966  15.102  27.517   5.886  0.1168 -0.0094  0.2005
    1DIPC   D3A 9967  15.278  27.821   5.531  0.2849 -0.2724 -0.0084
    1DIPC   C4A 9968  14.997  28.018   5.373  0.0090  0.1891 -0.0753
    1DIPC   C1B 9969  15.393  27.381   6.289  0.2912  0.2860  0.0699
    1DIPC   D2B 9970  15.658  27.617   5.831  0.2780 -0.2834  0.1610
    1DIPC   D3B 9971  16.171  27.666   5.926  0.2809  0.0870  0.0317
    1DIPC   C4B 9972  16.259  28.012   6.227  0.0278 -0.2120 -0.1253
    1DIPC   NC3 9973   3.175  26.428   6.791  0.3967  0.1401 -0.3419
    1DIPC   PO4 9974   2.677  26.178   6.717 -0.0997  0.0404  0.0196
    1DIPC   GL1 9975   2.898  26.174   6.400  0.1099 -0.3920 -0.1195
    1DIPC   GL2 9976   2.876  26.554   6.392 -0.1593  0.2851  0.2192
    1DIPC   C1A 9977   3.041  25.801   6.170  0.0608  0.0589 -0.2945
    1DIPC   D2A 9978   2.959  25.400   6.103  0.0666  0.2182  0.1252
    1DIPC   D3A 9979   2.703  25.292   5.674  0.3333 -0.0119  0.1838
    1DIPC   C4A 9980   2.889  24.977   5.345  0.2238 -0.1784  0.0917
    1DIPC   C1B 9981   2.983  26.816   5.929 -0.1242 -0.1113  0.2320
    1DIPC   D2B 9982   3.067  27.255   5.609  0.5036  0.0192 -0.0065
    1DIPC   D3B 9983   2.750  27.095   5.317  0.0038 -0.1332  0.1179
    1DIPC   C4B 9984   2.786  26.948   4.925 -0.1541  0.1305 -0.1821
    1DIPC   NC3 9985   7.922   3.737   7.315 -0.3268  0.0734 -0.0235
    1DIPC   PO4 9986   8.116   3.383   7.082 -0.0823  0.1542 -0.1515
    1DIPC   GL1 9987   8.038   3.397   6.532  0.1138 -0.1172  0.0027
    1DIPC   GL2 9988   7.814   3.225   6.386 -0.0101  0.0082  0.0135
    1DIPC   C1A 9989   8.148   3.477   6.101 -0.3982  0.0661 -0.2434
    1DIPC   D2A 9990   8.502   3.714   5.943  0.1538  0.0179 -0.0657
    1DIPC   D3A 9991   8.812   3.518   5.768 -0.1707  0.1491  0.0210
    1DIPC   C4A 9992   9.125   3.604   6.004  0.1773  0.0283 -0.3139
    1DIPC   C1B 9993   7.939   3.059   5.995 -0.2162 -0.0294  0.0897
    1DIPC   D2B 9994   7.792   3.060   5.477  0.0787  0.0593  0.0309
    1DIPC   D3B 9995   8.017   2.680   5.578  0.1590  0.0128 -0.0356
    1DIPC   C4B 9996   8.021   2.552   5.971 -0.1731  0.1606  0.3131
    1DIPC   NC3 9997  16.523  17.611   7.452 -0.2387  0.0101 -0.0992
    1DIPC   PO4 9998  17.007  17.628   7.244 -0.1635 -0.0576 -0.0127
    1DIPC   GL1 9999  17.050  17.461   6.840 -0.1936  0.0741 -0.2828
    1DIPC   GL210000  16.991  17.682   6.719 -0.1948 -0.1611  0.2188
    1DIPC   C1A10001  17.241  17.184   6.550  0.1174 -0.3482  0.2351
    1DIPC   D2A10002  17.467  16.835   6.453 -0.2003  0.0290  0.2997
    1DIPC   D3A10003  17.115  16.627   6.283 -0.1106 -0.1046  0.0072
    1DIPC   C4A10004  17.130  16.390   6.538  0.2845  0.0768 -0.0276
    1DIPC   C1B10005  16.943  17.476   6.161 -0.1336  0.0249 -0.0788
    1DIPC   D2B10006  16.777  17.544   5.783 -0.0879  0.2839 -0.0710
    1DIPC   D3B10007  17.045  17.286   5.628  0.2069 -0.1873  0.3610
    1DIPC   C4B10008  17.235  17.076   6.006 -0.1561  0.2299 -0.1482
    1DIPC   NC310009  27.306   1.963   7.307  0.1329 -0.2340 -0.0169
    1DIPC   PO410010  27.384   2.084   6.869  0.1321  0.0375  0.1933
    1DIPC   GL110011  27.304   1.861   6.528 -0.0944 -0.1821 -0.0148
    1DIPC   GL210012  27.013   2.078   6.354 -0.0870 -0.0700  0.0224
    1DIPC   C1A10013  27.264   1.877   6.003  0.2673 -0.1605 -0.0947
    1DIPC   D2A10014  27.094   1.874   5.542 -0.1215 -0.0661  0.0617
    1DIPC   D3A10015  27.095   1.671   5.118  0.2519  0.2781 -0.3657
    1DIPC   C4A10016  26.898   1.175   5.052  0.0018  0.1631 -0.1386
    1DIPC   C1B10017  26.628   2.086   6.281 -0.1562 -0.0481  0.1844
    1DIPC   D2B10018  26.369   2.309   6.078  0.0687 -0.1224  0.2503
    1DIPC   D3B10019  26.644   2.109   5.763  0.0912  0.0961 -0.1120
    1DIPC   C4B10020  26.762   2.353   5.496 -0.0907 -0.0028  0.1251
    1DIPC   NC310021  27.152  11.308   6.817  0.3779  0.0541  0.0004
    1DIPC   PO410022  26.978  11.745   6.826 -0.1820  0.2243 -0.0445
    1DIPC   GL110023  27.195  11.715   6.371  0.1680 -0.0524 -0.2489
    1DIPC   GL210024  27.289  12.062   6.170  0.2996 -0.0579  0.1871
    1DIPC   C1A10025  27.461  11.415   6.074  0.1156  0.0339 -0.0573
    1DIPC   D2A10026  27.727  11.037   6.030 -0.0251 -0.0830  0.2317
    1DIPC   D3A10027  27.805  10.674   5.646 -0.1327  0.0102 -0.1973
    1DIPC   C4A10028   0.055  10.501   5.482  0.0858 -0.3337 -0.1904
    1DIPC   C1B10029  27.111  12.126   5.866  0.3029  0.0613  0.0346
    1DIPC   D2B10030  26.894  12.099   5.479  0.0370 -0.0803  0.0479
    1DIPC   D3B10031  27.048  11.749   5.394  0.1031 -0.0589 -0.2203
    1DIPC   C4B10032  26.784  11.354   5.414 -0.2248 -0.1370 -0.0046
    1CHOL   ROH10033   6.779  18.052   4.281  0.3570  0.3465  0.1642
    1CHOL    R110034   6.712  18.012   4.553  0.1345  0.1894  0.0887
    1CHOL    R210035   6.570  17.791   4.641  0.1934  0.0603 -0.1342
    1CHOL    R310036   6.781  17.762   4.809  0.0625  0.1257  0.0461
    1CHOL    R410037   6.569  17.596   4.926  0.0774 -0.0991 -0.2410
    1CHOL    R510038   6.683  17.752   5.027 -0.1319 -0.0693 -0.0471
    1CHOL    C110039   6.768  17.455   5.250 -0.1131 -0.1303 -0.1340
    1CHOL    C210040   6.940  17.195   5.498  0.0600  0.0313  0.0045
    1CHOL   ROH10041   0.841   7.790   2.685  0.1881 -0.1786 -0.2167
    1CHOL    R110042   0.768   7.810   2.958  0.1464 -0.0594 -0.2360
    1CHOL    R210043   0.686   7.592   3.107  0.0431  0.0200 -0.1751
    1CHOL    R310044   0.886   7.672   3.274  0.0417  0.0073 -0.1674
    1CHOL    R410045   0.760   7.445   3.411  0.0454 -0.0072 -0.1888
    1CHOL    R510046   0.794   7.644   3.493  0.0422 -0.0147 -0.1701
    1CHOL    C110047   0.989   7.434   3.744  0.0454 -0.0350 -0.1895
    1CHOL    C210048   1.021   7.015   3.774 -0.0435 -0.0155  0.2271
    1CHOL   ROH10049   3.791   3.405   5.647  0.1413 -0.1214  0.0940
    1CHOL    R110050   4.007   3.406   5.464  0.0457 -0.0487 -0.0207
    1CHOL    R210051   4.084   3.182   5.323  0.0554 -0.0276 -0.0529
    1CHOL    R310052   4.054   3.345   5.108 -0.1209 -0.0462 -0.0429
    1CHOL    R410053   4.221   3.124   5.011  0.1794  0.1778 -0.0381
    1CHOL    R510054   4.266   3.337   4.997 -0.0922  0.2381 -0.0117
    1CHOL    C110055   4.272   3.244   4.627  0.0862  0.2801 -0.0202
    1CHOL    C210056   4.560   3.112   4.321  0.2444  0.0457 -0.0920
    1CHOL   ROH10057  26.118   8.106   6.233  0.3866  0.2443 -0.0872
    1CHOL    R110058  25.956   8.222   6.031  0.1856  0.0795 -0.0242
    1CHOL    R210059  26.033   8.447   5.890 -0.0697  0.1168 -0.1050
    1CHOL    R310060  25.986   8.288   5.675 -0.0568  0.0423 -0.0536
    1CHOL    R410061  25.948   8.561   5.575  0.0476  0.0184 -0.1732
    1CHOL    R510062  25.807   8.396   5.559  0.0035  0.0499 -0.1444
    1CHOL    C110063  25.855   8.478   5.189  0.1283 -0.1088 -0.1646
    1CHOL    C210064  26.028   8.613   4.781 -0.1597 -0.1129 -0.0759
    1CHOL   ROH10065   0.166  15.861   5.782  0.0644  0.0605  0.0099
    1CHOL    R110066   0.177  15.673   5.570 -0.0166  0.2048 -0.1241
    1CHOL    R210067   0.036  15.435   5.576  0.2345  0.0560 -0.0856
    1CHOL    R310068  28.068  15.524   5.338 -0.1719  0.1105  0.0900
    1CHOL    R410069  27.960  15.252   5.366  0.2479 -0.0741  0.0132
    1CHOL    R510070  28.074  15.330   5.196 -0.0563  0.2233 -0.0654
    1CHOL    C110071  27.752  15.228   5.019 -0.1256 -0.0988  0.2356
    1CHOL    C210072  27.515  14.942   4.938  0.3013 -0.0266  0.1231
    1CHOL   ROH10073   3.084  26.968   4.272 -0.0647 -0.2456 -0.1498
    1CHOL    R110074   3.130  26.779   4.478 -0.0367 -0.1160 -0.0355
    1CHOL    R210075   3.383  26.687   4.541 -0.0353 -0.1273 -0.0582
    1CHOL    R310076   3.315  26.769   4.791  0.0673  0.0582 -0.0897
    1CHOL    R410077   3.556  26.607   4.830 -0.1002 -0.1846 -0.0347
    1CHOL    R510078   3.365  26.581   4.932 -0.1235  0.0644 -0.0094
    1CHOL    C110079   3.593  26.638   5.232 -0.0417 -0.0437 -0.0506
    1CHOL    C210080   3.727  26.384   5.488 -0.0351 -0.0759 -0.0843
    1CHOL   ROH10081   9.218   1.539   3.412 -0.0840  0.2970  0.1018
    1CHOL    R110082   9.159   1.324   3.585  0.0187  0.2542  0.0844
    1CHOL    R210083   9.027   1.358   3.826 -0.0991  0.1576  0.0349
    1CHOL    R310084   8.860   1.169   3.724  0.0847  0.0236 -0.0244
    1CHOL    R410085   8.876   1.108   4.010 -0.3450  0.3352  0.0779
    1CHOL    R510086   8.913   0.970   3.845 -0.0679  0.1599  0.2783
    1CHOL    C110087   8.630   0.785   4.021 -0.3156  0.3129  0.0473
    1CHOL    C210088   8.282   0.569   4.213  0.0731 -0.1687 -0.0776
    1CHOL   ROH10089   3.942   8.320   3.197 -0.2338  0.3750 -0.1378
    1CHOL    R110090   3.926   8.229   3.465 -0.0975  0.2625 -0.1662
    1CHOL    R210091   3.942   8.400   3.682 -0.2107  0.2010 -0.1062
    1CHOL    R310092   3.706   8.284   3.749 -0.0927 -0.0395 -0.1014
    1CHOL    R410093   3.816   8.379   4.003 -0.1517  0.0102 -0.0949
    1CHOL    R510094   3.749   8.177   3.959  0.0352 -0.0447 -0.1302
    1CHOL    C110095   3.520   8.257   4.253 -0.0067 -0.3268 -0.0839
    1CHOL    C210096   3.303   8.365   4.586 -0.0475 -0.0929  0.0386
    1CHOL   ROH10097   4.937  18.132   6.869  0.1085  0.1587 -0.0636
    1CHOL    R110098   5.052  18.133   6.610 -0.0082  0.1028 -0.1154
    1CHOL    R210099   5.206  17.923   6.515  0.0180  0.1213 -0.1059
    1CHOL    R310100   5.028  17.929   6.310 -0.0742 -0.0148 -0.0317
    1CHOL    R410101   5.269  17.814   6.193 -0.0230  0.1909 -0.1388
    1CHOL    R510102   5.158  17.984   6.118 -0.1979  0.1058 -0.0842
    1CHOL    C110103   5.138  17.755   5.814 -0.1334  0.1038 -0.0883
    1CHOL    C210104   5.055  17.644   5.395 -0.3126 -0.1819 -0.2257
    1CHOL   ROH10105   6.661   0.627   6.269  0.1042 -0.0830  0.1330
    1CHOL    R110106   6.837   0.622   6.048  0.0178  0.0425  0.0593
    1CHOL    R210107   7.001   0.406   5.994  0.0829  0.1183 -0.0626
    1CHOL    R310108   6.881   0.417   5.750 -0.0232  0.1346 -0.0095
    1CHOL    R410109   7.166   0.447   5.693 -0.0530  0.1165 -0.1381
    1CHOL    R510110   7.007   0.580   5.629 -0.0695  0.1272 -0.0622
    1CHOL    C110111   7.150   0.481   5.289 -0.2317  0.1308 -0.1322
    1CHOL    C210112   7.476   0.603   5.090 -0.1476 -0.0535  0.2341
    1CHOL   ROH10113  11.291  20.811   6.762 -0.0859 -0.0040  0.1069
    1CHOL    R110114  11.283  20.844   6.481 -0.0556  0.0605  0.1126
    1CHOL    R210115  11.399  20.663   6.307  0.0970  0.1763  0.0856
    1CHOL    R310116  11.150  20.659   6.198  0.1173  0.0404  0.0446
    1CHOL    R410117  11.332  20.611   5.972  0.1779  0.1842  0.0686
    1CHOL    R510118  11.178  20.765   5.985  0.0840  0.0864  0.0659
    1CHOL    C110119  11.059  20.578   5.674  0.2442  0.0613  0.0203
    1CHOL    C210120  10.852  20.496   5.281  0.0182 -0.2253  0.0373
    1CHOL   ROH10121   3.140   6.402   2.643  0.0668 -0.0199  0.0522
    1CHOL    R110122   3.009   6.294   2.870 -0.1544  0.1980  0.0326
    1CHOL    R210123   3.134   6.122   3.046 -0.4968 -0.1016 -0.0025
    1CHOL    R310124   3.054   6.305   3.231 -0.1221  0.0353  0.0336
    1CHOL    R410125   3.067   6.053   3.378 -0.3498  0.0390  0.0579
    1CHOL    R510126   2.896   6.187   3.367 -0.1818  0.2643  0.1653
    1CHOL    C110127   2.952   6.184   3.744  0.0876  0.2493  0.1270
    1CHOL    C210128   3.092   5.941   4.021 -0.3364 -0.0642  0.1087
    1CHOL   ROH10129  16.465  26.919   3.827  0.4074  0.0173 -0.1891
    1CHOL    R110130  16.405  26.762   4.055  0.2314  0.1573 -0.1374
    1CHOL    R210131  16.381  26.488   4.044  0.0614  0.1662 -0.0206
    1CHOL    R310132  16.566  26.496   4.243  0.0005  0.1376  0.0379
    1CHOL    R410133  16.407  26.255   4.299 -0.0728  0.1773  0.0043
    1CHOL    R510134  16.448  26.419   4.437 -0.0793  0.1779  0.0062
    1CHOL    C110135  16.597  26.128   4.634 -0.2081  0.1569  0.0738
    1CHOL    C210136  16.956  25.878   4.830  0.0412 -0.2799 -0.1292
    1CHOL   ROH10137   8.230  13.639   4.048  0.0547 -0.3310 -0.0800
    1CHOL    R110138   8.229  13.519   4.304  0.3064 -0.4275 -0.1228
    1CHOL    R210139   8.461  13.435   4.429  0.5377  0.2891 -0.0273
    1CHOL    R310140   8.370  13.593   4.631 -0.1089 -0.0577 -0.0169
    1CHOL    R410141   8.531  13.388   4.765  0.5574  0.4324 -0.0099
    1CHOL    R510142   8.325  13.441   4.810  0.3267 -0.2828 -0.0820
    1CHOL    C110143   8.487  13.509   5.149 -0.0381  0.1902  0.0101
    1CHOL    C210144   8.647  13.585   5.530 -0.0038 -0.1519 -0.0682
    1CHOL   ROH10145   6.718   6.720   3.641  0.3558 -0.1225  0.0258
    1CHOL    R110146   6.675   6.498   3.812  0.2779 -0.0675  0.0792
    1CHOL    R210147   6.703   6.513   4.086  0.0824  0.0392  0.0950
    1CHOL    R310148   6.450   6.413   4.085  0.1011 -0.0071 -0.0461
    1CHOL    R410149   6.567   6.318   4.337 -0.1061  0.2287  0.1428
    1CHOL    R510150   6.472   6.195   4.183  0.0542  0.0798  0.1606
    1CHOL    C110151   6.250   6.110   4.481 -0.1984  0.2955  0.0380
    1CHOL    C210152   6.039   5.814   4.521 -0.1168  0.1090  0.0765
    1CHOL   ROH10153  27.981  20.011   5.881 -0.1338 -0.1440  0.0431
    1CHOL    R110154  27.950  19.892   5.626 -0.1343 -0.1632  0.0530
    1CHOL    R210155   0.013  19.913   5.427 -0.1691 -0.1195  0.0305
    1CHOL    R310156  28.125  19.642   5.427 -0.0937 -0.1248  0.0378
    1CHOL    R410157   0.072  19.712   5.152 -0.0212 -0.1079  0.0523
    1CHOL    R510158  28.032  19.588   5.214 -0.0111 -0.1552  0.0044
    1CHOL    C110159   0.092  19.340   4.993  0.1357 -0.1060  0.0719
    1CHOL    C210160   0.203  19.304   4.633 -0.0653  0.1847  0.1714
    1CHOL   ROH10161   9.870   6.996   6.990 -0.0555  0.0658  0.0695
    1CHOL    R110162  10.060   7.023   6.782 -0.0460 -0.0921  0.0553
    1CHOL    R210163  10.019   6.919   6.529 -0.1548 -0.0531  0.0502
    1CHOL    R310164  10.070   7.175   6.452  0.0558 -0.0911  0.0607
    1CHOL    R410165  10.073   7.022   6.203 -0.2710 -0.0412  0.0350
    1CHOL    R510166  10.230   7.154   6.275 -0.0885 -0.2175 -0.0502
    1CHOL    C110167  10.152   7.321   5.941 -0.1411 -0.0698  0.0361
    1CHOL    C210168  10.406   7.325   5.728 -0.2311 -0.0617 -0.4420
    1CHOL   ROH10169   0.804   5.572   5.633  0.0067  0.1335  0.1299
    1CHOL    R110170   0.847   5.637   5.361 -0.0473  0.1976  0.1345
    1CHOL    R210171   0.749   5.482   5.154  0.2671  0.0022  0.1129
    1CHOL    R310172   0.640   5.717   5.072 -0.1389 -0.1863  0.0916
    1CHOL    R410173   0.645   5.549   4.831  0.3204 -0.1244  0.0696
    1CHOL    R510174   0.728   5.750   4.852 -0.0770  0.0298  0.1548
    1CHOL    C110175   0.482   5.810   4.567 -0.0297 -0.3750  0.0243
    1CHOL    C210176   0.523   5.686   4.299 -0.0384  0.1399 -0.1098
    1CHOL   ROH10177  17.874   1.359   6.921  0.1045  0.0610  0.0167
    1CHOL    R110178  17.757   1.487   6.698  0.2105  0.0515 -0.0447
    1CHOL    R210179  17.896   1.535   6.463  0.2412 -0.2053 -0.0795
    1CHOL    R310180  17.687   1.403   6.351  0.1079 -0.0702  0.0044
    1CHOL    R410181  17.832   1.519   6.124  0.0931 -0.1580 -0.0549
    1CHOL    R510182  17.620   1.543   6.168  0.1228 -0.0217  0.0337
    1CHOL    C110183  17.599   1.386   5.821 -0.1181 -0.0037  0.0380
    1CHOL    C210184  17.659   1.315   5.449  0.0543 -0.1927  0.0563
    1CHOL   ROH10185   9.855  16.799   7.117 -0.0613 -0.2578  0.0877
    1CHOL    R110186   9.984  16.765   6.868 -0.1307 -0.1503  0.0372
    1CHOL    R210187   9.911  16.568   6.688 -0.0859 -0.1641  0.0361
    1CHOL    R310188   9.888  16.778   6.517 -0.2620 -0.1515  0.0725
    1CHOL    R410189   9.917  16.544   6.343  0.1286 -0.0790  0.0314
    1CHOL    R510190  10.037  16.726   6.337 -0.0964  0.0782  0.1378
    1CHOL    C110191   9.898  16.728   5.982  0.0881 -0.0178  0.0628
    1CHOL    C210192   9.990  16.705   5.604 -0.0153  0.0008 -0.0133
    1CHOL   ROH10193   9.114  17.110   3.839 -0.2685 -0.3115  0.0915
    1CHOL    R110194   9.123  16.992   4.096 -0.0469 -0.3273  0.0783
    1CHOL    R210195   9.341  16.846   4.185  0.1384 -0.1235 -0.0215
    1CHOL    R310196   9.332  17.021   4.392  0.0478 -0.1468 -0.0058
    1CHOL    R410197   9.500  16.801   4.488  0.2242 -0.0278 -0.0525
    1CHOL    R510198   9.324  16.882   4.587  0.1844 -0.1654 -0.0154
    1CHOL    C110199   9.585  16.940   4.860  0.1892  0.0060 -0.0557
    1CHOL    C210200   9.723  17.024   5.153  0.2222  0.2882 -0.2840
    1CHOL   ROH10201  10.160   6.110   3.857  0.1125  0.1523 -0.1754
    1CHOL    R110202  10.208   6.066   4.132  0.0359 -0.0118 -0.1871
    1CHOL    R210203  10.356   6.240   4.288  0.1785 -0.2129 -0.0901
    1CHOL    R310204  10.133   6.237   4.444  0.1526 -0.0764 -0.1238
    1CHOL    R410205  10.358   6.231   4.633  0.1163 -0.1847 -0.0890
    1CHOL    R510206  10.190   6.092   4.626  0.0413 -0.0915 -0.1024
    1CHOL    C110207  10.151   6.224   4.981  0.0557 -0.0401 -0.1200
    1CHOL    C210208  10.403   6.264   5.165 -0.0933 -0.1729 -0.1208
    1CHOL   ROH10209  16.798  12.052   6.989  0.0534  0.0682  0.1081
    1CHOL    R110210  16.735  11.939   6.736  0.0947  0.1263  0.0725
    1CHOL    R210211  16.632  12.088   6.528  0.0808  0.1626  0.1101
    1CHOL    R310212  16.844  11.985   6.392  0.1097  0.2429  0.0914
    1CHOL    R410213  16.646  12.046   6.185  0.0334  0.1025  0.1147
    1CHOL    R510214  16.745  11.855   6.218  0.1388  0.1560  0.1356
    1CHOL    C110215  16.853  11.924   5.858  0.0328  0.1430  0.0998
    1CHOL    C210216  16.915  11.823   5.525 -0.1970 -0.2292 -0.1589
    1CHOL   ROH10217  10.011  11.511   4.300  0.1911 -0.0861  0.0094
    1CHOL    R110218   9.879  11.558   4.546  0.0839 -0.0674 -0.0504
    1CHOL    R210219   9.789  11.354   4.709 -0.0567 -0.0570 -0.1071
    1CHOL    R310220   9.938  11.482   4.897 -0.1080 -0.1139 -0.0284
    1CHOL    R410221   9.835  11.244   5.033 -0.0936 -0.1778 -0.1429
    1CHOL    R510222   9.816  11.450   5.101 -0.1337 -0.2122 -0.0624
    1CHOL    C110223  10.001  11.300   5.399 -0.1632 -0.3016 -0.0900
    1CHOL    C210224  10.073  11.311   5.778 -0.1379 -0.1457 -0.0298
    1CHOL   ROH10225  23.487  19.463   3.530 -0.0139 -0.1179  0.0714
    1CHOL    R110226  23.653  19.467   3.759 -0.1502 -0.0620  0.1723
    1CHOL    R210227  23.560  19.402   4.012 -0.2194 -0.3630  0.0812
    1CHOL    R310228  23.766  19.226   4.007  0.0138 -0.0948  0.0641
    1CHOL    R410229  23.676  19.227   4.286 -0.2058 -0.4934 -0.0087
    1CHOL    R510230  23.879  19.261   4.215 -0.1938 -0.1606  0.1851
    1CHOL    C110231  23.938  18.959   4.441  0.0213 -0.3177 -0.0771
    1CHOL    C210232  24.070  18.617   4.565 -0.0136 -0.1297  0.1718
    1CHOL   ROH10233   3.686  22.265   3.541  0.1831  0.1171 -0.0249
    1CHOL    R110234   3.790  22.498   3.664  0.1991  0.0774  0.0390
    1CHOL    R210235   3.702  22.590   3.909  0.1031  0.0971  0.0005
    1CHOL    R310236   3.966  22.579   3.972  0.0681  0.0028  0.1336
    1CHOL    R410237   3.856  22.783   4.151  0.1239  0.3223 -0.1899
    1CHOL    R510238   4.026  22.806   4.017  0.2003  0.0261 -0.1475
    1CHOL    C110239   4.194  22.885   4.350  0.1030  0.3652 -0.1758
    1CHOL    C210240   4.325  22.814   4.650 -0.0504 -0.0453 -0.0714
    1CHOL   ROH10241   2.636   5.997   5.448  0.0913 -0.1253 -0.0386
    1CHOL    R110242   2.520   6.089   5.206  0.0678 -0.2044 -0.0583
    1CHOL    R210243   2.653   6.256   5.032 -0.0308 -0.0795 -0.0201
    1CHOL    R310244   2.594   6.062   4.851  0.1705 -0.1200 -0.0430
    1CHOL    R410245   2.754   6.256   4.701 -0.1119  0.1109 -0.0453
    1CHOL    R510246   2.557   6.180   4.646 -0.0292 -0.1268 -0.0104
    1CHOL    C110247   2.757   6.073   4.339  0.0298  0.1837 -0.0816
    1CHOL    C210248   2.507   6.048   4.072  0.1380  0.2665  0.3236
    1CHOL   ROH10249   9.298  13.705   6.979  0.1578 -0.2436  0.0380
    1CHOL    R110250   9.253  13.704   6.700  0.0485 -0.1701  0.0546
    1CHOL    R210251   9.457  13.672   6.516 -0.0023  0.0235 -0.0385
    1CHOL    R310252   9.300  13.469   6.425  0.0877 -0.0424 -0.0489
    1CHOL    R410253   9.327  13.651   6.197 -0.0460  0.0156 -0.0203
    1CHOL    R510254   9.141  13.577   6.282  0.0064 -0.0983 -0.0016
    1CHOL    C110255   9.104  13.448   5.925  0.0130 -0.0507 -0.0194
    1CHOL    C210256   9.025  13.737   5.812 -0.0874 -0.0414 -0.0500
    1CHOL   ROH10257   5.331  16.929   6.592  0.1088  0.0971  0.0141
    1CHOL    R110258   5.395  16.740   6.391  0.0242 -0.0381  0.1128
    1CHOL    R210259   5.223  16.538   6.316 -0.1405  0.1070  0.0978
    1CHOL    R310260   5.260  16.642   6.068  0.0900 -0.0161  0.0783
    1CHOL    R410261   5.156  16.372   6.021 -0.1734  0.0742  0.1231
    1CHOL    R510262   5.339  16.457   5.938 -0.0404 -0.1461  0.1802
    1CHOL    C110263   5.153  16.372   5.615  0.0239 -0.0604  0.1195
    1CHOL    C210264   4.979  16.166   5.426 -0.1851 -0.0890 -0.1119
    1CHOL   ROH10265  14.069   3.862   4.624 -0.2360 -0.0717  0.0296
    1CHOL    R110266  13.983   3.844   4.893 -0.1525 -0.0890  0.0547
    1CHOL    R210267  14.052   3.632   5.057 -0.0492 -0.0649  0.0372
    1CHOL    R310268  14.140   3.830   5.220 -0.0553 -0.0401  0.0115
    1CHOL    R410269  14.106   3.597   5.396  0.1608 -0.0876  0.0030
    1CHOL    R510270  14.020   3.796   5.425  0.0748 -0.1308  0.0773
    1CHOL    C110271  14.221   3.763   5.748  0.2774 -0.0775 -0.0410
    1CHOL    C210272  14.497   3.575   5.966  0.0864  0.1621  0.0684
    1CHOL   ROH10273  11.903   3.783   3.975 -0.0678  0.1023 -0.1091
    1CHOL    R110274  11.832   3.957   4.186 -0.2092  0.1697 -0.2107
    1CHOL    R210275  11.569   4.009   4.255 -0.2581 -0.3057  0.0026
    1CHOL    R310276  11.652   3.932   4.502  0.1645  0.1022  0.0026
    1CHOL    R410277  11.441   4.129   4.553 -0.1378 -0.2172  0.0197
    1CHOL    R510278  11.644   4.132   4.633 -0.0438  0.2342 -0.2044
    1CHOL    C110279  11.445   4.125   4.958  0.3291  0.2174  0.0297
    1CHOL    C210280  11.289   4.507   4.891 -0.0581  0.2772  0.2637
    1CHOL   ROH10281   1.105  18.017   6.339  0.0312 -0.0152  0.0196
    1CHOL    R110282   1.121  17.986   6.058  0.0460 -0.0478  0.0242
    1CHOL    R210283   1.137  18.201   5.885 -0.0241 -0.0658 -0.0037
    1CHOL    R310284   1.357  18.070   5.795  0.0216 -0.0032  0.0160
    1CHOL    R410285   1.238  18.188   5.555  0.0910  0.0887  0.0243
    1CHOL    R510286   1.291  17.979   5.584  0.1035  0.0805 -0.0477
    1CHOL    C110287   1.505  18.058   5.278  0.2009  0.2376  0.0592
    1CHOL    C210288   1.157  18.079   5.026  0.0431 -0.1542  0.2684
    1CHOL   ROH10289  19.771  20.114   4.211 -0.1562  0.1528 -0.1545
    1CHOL    R110290  19.667  20.002   4.450 -0.0818  0.1683 -0.1157
    1CHOL    R210291  19.802  20.013   4.691 -0.0606  0.2858 -0.1364
    1CHOL    R310292  19.570  20.124   4.779 -0.0980  0.2073 -0.1341
    1CHOL    R410293  19.719  20.059   5.023 -0.0058  0.3896 -0.1356
    1CHOL    R510294  19.515  19.998   4.975  0.0113  0.2631 -0.0640
    1CHOL    C110295  19.452  20.188   5.299 -0.0093  0.3763 -0.1329
    1CHOL    C210296  19.405  20.601   5.472  0.2138 -0.1784 -0.1202
    1CHOL   ROH10297   6.869  26.624   6.426 -0.0603 -0.1439  0.0238
    1CHOL    R110298   6.788  26.392   6.285 -0.0278 -0.1646  0.0393
    1CHOL    R210299   6.709  26.399   6.020 -0.0794 -0.1850  0.0524
    1CHOL    R310300   6.901  26.208   5.992 -0.0348 -0.1352  0.0189
    1CHOL    R410301   6.797  26.250   5.721  0.0888  0.0161 -0.0003
    1CHOL    R510302   6.813  26.060   5.826  0.0710 -0.0459 -0.1156
    1CHOL    C110303   7.029  25.985   5.520  0.2286  0.1798 -0.0625
    1CHOL    C210304   7.019  26.123   5.221  0.0194 -0.1303  0.0185
    1CHOL   ROH10305  19.085   9.269   4.197  0.0006  0.0391 -0.2269
    1CHOL    R110306  19.270   9.327   4.404  0.0729  0.0110 -0.2827
    1CHOL    R210307  19.190   9.399   4.659  0.1604  0.1677 -0.2983
    1CHOL    R310308  19.350   9.192   4.732  0.0444  0.0975 -0.2395
    1CHOL    R410309  19.263   9.312   4.985  0.0802  0.1985 -0.2719
    1CHOL    R510310  19.469   9.273   4.924  0.0679  0.0766 -0.2442
    1CHOL    C110311  19.457   9.067   5.244 -0.0758  0.1505 -0.2014
    1CHOL    C210312  19.341   9.204   5.569  0.0874  0.3242  0.2512
    1CHOL   ROH10313   0.991   2.494   5.841  0.0611  0.1275  0.0153
    1CHOL    R110314   1.111   2.471   5.586 -0.0145  0.1557 -0.0231
    1CHOL    R210315   1.133   2.229   5.454  0.1516  0.1328  0.0460
    1CHOL    R310316   1.008   2.364   5.254 -0.0466 -0.0419  0.0492
    1CHOL    R410317   1.083   2.107   5.134  0.1452 -0.0123  0.1013
    1CHOL    R510318   1.129   2.305   5.056 -0.0639  0.0092  0.0226
    1CHOL    C110319   0.935   2.162   4.761 -0.0445 -0.2608  0.1366
    1CHOL    C210320   0.606   2.182   4.567 -0.0303  0.0476 -0.0551
    1CHOL   ROH10321  21.844   1.159   3.541 -0.0451 -0.2718  0.0223
    1CHOL    R110322  21.790   1.237   3.808  0.1069 -0.1348  0.0147
    1CHOL    R210323  21.533   1.272   3.904  0.1634  0.0221  0.1134
    1CHOL    R310324  21.614   1.096   4.094  0.1671  0.0644  0.1513
    1CHOL    R410325  21.413   1.264   4.228 -0.0374 -0.0904  0.0381
    1CHOL    R510326  21.617   1.225   4.296 -0.0535  0.0493  0.1650
    1CHOL    C110327  21.420   1.093   4.595 -0.1509 -0.1162  0.0298
    1CHOL    C210328  21.476   1.131   4.903  0.3987  0.0287  0.1374
    1CHOL   ROH10329  27.915  11.637   3.643  0.0451  0.3111  0.1413
    1CHOL    R110330  27.914  11.710   3.916 -0.1640  0.3067  0.1445
    1CHOL    R210331  27.693  11.822   4.039 -0.4432 -0.1633  0.1104
    1CHOL    R310332  27.728  11.616   4.214 -0.0294 -0.1080  0.1025
    1CHOL    R410333  27.564  11.811   4.360 -0.3011 -0.3919  0.1613
    1CHOL    R510334  27.751  11.722   4.427 -0.1278 -0.0737  0.0902
    1CHOL    C110335  27.521  11.611   4.710  0.1701 -0.4730  0.1834
    1CHOL    C210336  27.335  11.685   4.973  0.0895  0.0457 -0.3331
    1CHOL   ROH10337  24.898   9.271   3.517 -0.1270 -0.0813 -0.0115
    1CHOL    R110338  24.856   9.047   3.685 -0.0901 -0.0559  0.0320
    1CHOL    R210339  25.005   8.815   3.665 -0.0695 -0.0454  0.0590
    1CHOL    R310340  25.049   8.859   3.930 -0.0495  0.0060  0.0474
    1CHOL    R410341  25.145   8.586   3.883  0.1294  0.0679  0.0534
    1CHOL    R510342  25.000   8.649   4.033  0.1144 -0.0192  0.0748
    1CHOL    C110343  25.266   8.493   4.258  0.2642  0.1819  0.0392
    1CHOL    C210344  25.543   8.449   4.587  0.0462  0.0190 -0.1376
    1CHOL   ROH10345  16.358   2.128   4.570 -0.2346  0.2855 -0.1736
    1CHOL    R110346  16.422   2.337   4.751 -0.1100  0.1183 -0.0210
    1CHOL    R210347  16.237   2.526   4.832 -0.0008  0.1619  0.1254
    1CHOL    R310348  16.312   2.445   5.080 -0.0344 -0.0620  0.0652
    1CHOL    R410349  16.218   2.720   5.117  0.1565 -0.0177  0.2612
    1CHOL    R510350  16.410   2.640   5.179  0.1088 -0.1946  0.1915
    1CHOL    C110351  16.276   2.757   5.517  0.2167 -0.3324  0.2838
    1CHOL    C210352  16.167   2.754   5.766  0.0719 -0.0900 -0.1235
    1CHOL   ROH10353  26.325  18.446   6.227  0.0162 -0.0264  0.0562
    1CHOL    R110354  26.206  18.372   5.981 -0.0208 -0.0082  0.0691
    1CHOL    R210355  26.197  18.542   5.763 -0.0236 -0.0056  0.0741
    1CHOL    R310356  26.315  18.332   5.636 -0.0658 -0.0190  0.0555
    1CHOL    R410357  26.307  18.546   5.436  0.0700  0.0370  0.1050
    1CHOL    R510358  26.230  18.343   5.413 -0.0005  0.0694  0.0330
    1CHOL    C110359  26.481  18.352   5.126  0.0849  0.0493  0.1056
    1CHOL    C210360  26.309  18.192   4.864 -0.0502  0.0621 -0.0374
    1CHOL   ROH10361  11.701  11.047   6.714 -0.0369 -0.4754 -0.1181
    1CHOL    R110362  11.740  10.944   6.454 -0.0534 -0.0830 -0.2825
    1CHOL    R210363  11.842  11.096   6.248  0.2601  0.1423  0.0251
    1CHOL    R310364  12.022  10.893   6.229 -0.0092 -0.0814 -0.2265
    1CHOL    R410365  12.106  11.086   6.024  0.4317  0.2209  0.2204
    1CHOL    R510366  12.065  10.874   5.994  0.1533  0.3275 -0.2370
    1CHOL    C110367  12.428  10.889   5.876  0.2789  0.0566  0.0980
    1CHOL    C210368  12.797  11.027   5.741  0.2078 -0.2337  0.0453
    1CHOL   ROH10369  14.621  20.339   4.419 -0.0300 -0.1444  0.1104
    1CHOL    R110370  14.698  20.604   4.484  0.0110 -0.1342  0.0191
    1CHOL    R210371  14.546  20.824   4.414  0.0270 -0.1380 -0.0237
    1CHOL    R310372  14.562  20.878   4.680  0.0739 -0.0578 -0.0423
    1CHOL    R410373  14.512  21.138   4.554  0.1344 -0.0814 -0.1225
    1CHOL    R510374  14.674  21.090   4.691  0.1378 -0.0854 -0.1248
    1CHOL    C110375  14.506  21.372   4.885  0.2408  0.0269 -0.1974
    1CHOL    C210376  14.870  21.563   5.053  0.1370 -0.1878 -0.1112
    1CHOL   ROH10377  16.699  19.537   6.831  0.2212  0.2176 -0.1131
    1CHOL    R110378  16.719  19.375   6.600  0.1099  0.1512 -0.0774
    1CHOL    R210379  16.525  19.373   6.402  0.0918  0.2171 -0.0641
    1CHOL    R310380  16.737  19.429   6.241  0.1137  0.0587 -0.0904
    1CHOL    R410381  16.548  19.285   6.069 -0.0348  0.2488 -0.0814
    1CHOL    R510382  16.757  19.235   6.101 -0.0739  0.0636 -0.1238
    1CHOL    C110383  16.760  19.286   5.723 -0.0882  0.1188 -0.1161
    1CHOL    C210384  16.515  19.209   5.324  0.0438 -0.1459 -0.0054
    1CHOL   ROH10385   7.743  22.164   6.622 -0.0786  0.0672 -0.0127
    1CHOL    R110386   7.719  22.046   6.365 -0.1386  0.0614 -0.0052
    1CHOL    R210387   7.878  21.836   6.283 -0.0580  0.1507 -0.0908
    1CHOL    R310388   7.639  21.717   6.232 -0.0187  0.0195  0.0278
    1CHOL    R410389   7.831  21.570   6.067 -0.0083  0.0472  0.0256
    1CHOL    R510390   7.647  21.664   5.999 -0.0708 -0.0659  0.0478
    1CHOL    C110391   7.579  21.304   5.895  0.0575 -0.1364  0.2047
    1CHOL    C210392   7.686  21.316   5.554  0.2798  0.1096 -0.2244
    1CHOL   ROH10393   9.556   6.110   6.759  0.1065 -0.1933  0.3035
    1CHOL    R110394   9.699   5.905   6.625 -0.0881 -0.2347  0.1562
    1CHOL    R210395   9.578   5.728   6.452 -0.2408  0.0679 -0.0477
    1CHOL    R310396   9.771   5.814   6.280 -0.0867  0.0062  0.0900
    1CHOL    R410397   9.683   5.556   6.171 -0.1727  0.0801 -0.0311
    1CHOL    R510398   9.888   5.614   6.218 -0.1630 -0.0480  0.1093
    1CHOL    C110399   9.925   5.536   5.847  0.0118  0.0292  0.1080
    1CHOL    C210400   9.747   5.249   5.623 -0.2839  0.1313 -0.0028
    1CHOL   ROH10401   5.154  14.888   5.773  0.1476  0.0139 -0.0279
    1CHOL    R110402   4.890  14.915   5.674  0.0967  0.1359  0.1324
    1CHOL    R210403   4.800  15.144   5.550  0.1567  0.1454  0.0927
    1CHOL    R310404   4.734  14.972   5.350 -0.0733  0.0976  0.2087
    1CHOL    R410405   4.636  15.233   5.258  0.3734  0.1823 -0.0189
    1CHOL    R510406   4.520  15.049   5.274  0.0710  0.3830  0.0947
    1CHOL    C110407   4.479  15.123   4.902  0.2837  0.1589  0.0251
    1CHOL    C210408   4.247  15.507   4.930 -0.1205  0.2043 -0.0148
    1CHOL   ROH10409  12.858  21.878   6.123  0.0296  0.0714 -0.0861
    1CHOL    R110410  12.739  21.714   5.926 -0.0011  0.0153 -0.0213
    1CHOL    R210411  12.849  21.679   5.675 -0.0693 -0.0114 -0.0475
    1CHOL    R310412  12.831  21.415   5.739 -0.0060 -0.0030  0.0056
    1CHOL    R410413  12.882  21.418   5.451 -0.0895 -0.0460 -0.0106
    1CHOL    R510414  12.719  21.316   5.552 -0.0433 -0.0559  0.0552
    1CHOL    C110415  12.885  21.019   5.380 -0.0418 -0.0584  0.0608
    1CHOL    C210416  12.925  20.598   5.274  0.0506 -0.3489 -0.1304
    1CHOL   ROH10417   6.993  26.238   3.406 -0.0846  0.1946  0.0186
    1CHOL    R110418   7.056  26.091   3.639  0.0115  0.3359  0.0835
    1CHOL    R210419   7.046  26.201   3.892 -0.3388  0.3663  0.0596
    1CHOL    R310420   6.882  25.990   3.943 -0.0235  0.0960 -0.0132
    1CHOL    R410421   6.983  26.072   4.206 -0.4336  0.4101  0.0588
    1CHOL    R510422   6.992  25.872   4.121  0.0110  0.3749  0.1590
    1CHOL    C110423   6.792  25.799   4.438 -0.1928  0.1817 -0.0100
    1CHOL    C210424   6.952  25.944   4.740 -0.2699 -0.2339 -0.3236
    1CHOL   ROH10425  19.199  24.174   6.451 -0.3074 -0.2190  0.0504
    1CHOL    R110426  19.255  24.054   6.202 -0.2796 -0.1104  0.0048
    1CHOL    R210427  19.058  23.946   6.041 -0.2627 -0.0062 -0.0780
    1CHOL    R310428  19.165  24.111   5.854 -0.2065  0.0620  0.0120
    1CHOL    R410429  19.075  23.877   5.702 -0.2285  0.1369 -0.1069
    1CHOL    R510430  19.274  23.965   5.700 -0.2082  0.1064 -0.0378
    1CHOL    C110431  19.185  23.993   5.330 -0.1556  0.2844 -0.0392
    1CHOL    C210432  19.332  24.117   5.023  0.1329 -0.0763  0.0042
    1CHOL   ROH10433   1.906   4.475   5.224  0.2409 -0.0173 -0.1819
    1CHOL    R110434   1.800   4.651   5.029 -0.0956 -0.1329 -0.1098
    1CHOL    R210435   1.945   4.735   4.809 -0.1944  0.3554  0.0034
    1CHOL    R310436   1.732   4.639   4.671  0.0798 -0.0635 -0.1470
    1CHOL    R410437   1.895   4.778   4.470 -0.1380  0.4458  0.0060
    1CHOL    R510438   1.683   4.810   4.511 -0.2460 -0.0691 -0.0628
    1CHOL    C110439   1.665   4.713   4.143  0.1522  0.1051 -0.1335
    1CHOL    C210440   1.892   4.822   3.943 -0.2080 -0.2085 -0.0992
    1CHOL   ROH10441  17.474  11.931   5.707  0.0192  0.1341  0.1291
    1CHOL    R110442  17.490  11.734   5.504  0.0363  0.0921  0.1725
    1CHOL    R210443  17.409  11.473   5.545 -0.1295  0.1481  0.1670
    1CHOL    R310444  17.256  11.520   5.325  0.0316  0.1862  0.0607
    1CHOL    R410445  17.250  11.228   5.359 -0.2828  0.1941  0.2357
    1CHOL    R510446  17.306  11.337   5.178 -0.0730  0.0408  0.1934
    1CHOL    C110447  17.014  11.130   5.045 -0.2209  0.2568  0.1759
    1CHOL    C210448  16.724  10.896   5.196  0.1328 -0.0563  0.2727
    1CHOL   ROH10449   8.192   3.327   3.731 -0.0224 -0.0787 -0.0199
    1CHOL    R110450   8.278   3.276   3.996 -0.2042 -0.0697  0.0413
    1CHOL    R210451   8.315   3.477   4.181 -0.0579 -0.0356 -0.0283
    1CHOL    R310452   8.145   3.326   4.331 -0.3029  0.2220 -0.0377
    1CHOL    R410453   8.240   3.537   4.513  0.1564 -0.0124  0.0181
    1CHOL    R510454   8.247   3.321   4.548 -0.2389 -0.0505 -0.0678
    1CHOL    C110455   8.037   3.430   4.847  0.0512  0.2428  0.0362
    1CHOL    C210456   7.775   3.359   5.057 -0.2474  0.0928  0.0137
    1CHOL   ROH10457  24.999  19.021   3.742  0.2541 -0.1566 -0.1002
    1CHOL    R110458  25.227  19.061   3.906  0.1444 -0.2094  0.0688
    1CHOL    R210459  25.391  19.282   3.882  0.3064 -0.3233  0.0796
    1CHOL    R310460  25.338  19.309   4.147  0.0964 -0.1435  0.0224
    1CHOL    R410461  25.580  19.469   4.103  0.0545 -0.0691  0.0860
    1CHOL    R510462  25.554  19.311   4.251  0.0173  0.0331  0.1862
    1CHOL    C110463  25.641  19.602   4.481 -0.2892  0.2477  0.0361
    1CHOL    C210464  25.923  19.852   4.566 -0.0570  0.0097 -0.1469
    1CHOL   ROH10465  17.945  21.786   6.738  0.1243 -0.2173 -0.0925
    1CHOL    R110466  18.066  21.855   6.492  0.0925 -0.0993 -0.0761
    1CHOL    R210467  17.921  21.947   6.275  0.0748  0.0881  0.0131
    1CHOL    R310468  18.097  22.154   6.286  0.1455  0.0233  0.1080
    1CHOL    R410469  18.010  22.145   6.006  0.0523  0.2542  0.1267
    1CHOL    R510470  18.216  22.142   6.079  0.0750  0.1344  0.0602
    1CHOL    C110471  18.228  22.454   5.860  0.1053  0.2900  0.2819
    1CHOL    C210472  18.303  22.841   5.814 -0.0653 -0.1186 -0.1525
    1CHOL   ROH10473  12.181   2.037   6.962 -0.1516  0.2600  0.3618
    1CHOL    R110474  12.044   2.092   6.720 -0.0365  0.1082  0.2599
    1CHOL    R210475  11.867   2.302   6.693 -0.1420  0.0051  0.0857
    1CHOL    R310476  12.026   2.367   6.483 -0.0455  0.0254  0.1655
    1CHOL    R410477  11.789   2.537   6.453  0.0998  0.2294  0.2222
    1CHOL    R510478  11.874   2.404   6.302  0.0275  0.2678  0.1541
    1CHOL    C110479  11.893   2.736   6.115  0.3312  0.3791  0.3766
    1CHOL    C210480  11.919   2.994   5.940  0.3236  0.0769  0.3987
    1CHOL   ROH10481   5.122  21.238   3.807  0.1165  0.1699 -0.0598
    1CHOL    R110482   5.160  21.197   4.085  0.1380  0.2192 -0.0565
    1CHOL    R210483   5.248  21.397   4.254 -0.0847  0.3174 -0.0602
    1CHOL    R310484   5.023  21.335   4.393 -0.0304  0.0870 -0.0689
    1CHOL    R410485   5.212  21.435   4.595 -0.1761  0.4171 -0.0796
    1CHOL    R510486   5.105  21.244   4.600  0.0628  0.2748 -0.0169
    1CHOL    C110487   4.979  21.398   4.925 -0.1782  0.2589 -0.0990
    1CHOL    C210488   4.842  21.194   5.219 -0.0432  0.1859  0.2559
    1CHOL   ROH10489  17.837  15.784   4.633 -0.1837  0.0508  0.1306
    1CHOL    R110490  17.848  15.805   4.915  0.1112 -0.2353  0.1490
    1CHOL    R210491  18.084  15.782   5.057  0.3568  0.1197 -0.1583
    1CHOL    R310492  18.009  16.023   5.158 -0.0629 -0.1394  0.1738
    1CHOL    R410493  18.249  15.951   5.310  0.4538  0.3701 -0.3865
    1CHOL    R510494  18.055  16.007   5.393  0.4740 -0.1928  0.0666
    1CHOL    C110495  18.274  16.276   5.552  0.1162  0.2725 -0.2077
    1CHOL    C210496  18.107  16.581   5.778  0.3698 -0.1529 -0.4338
    1CHOL   ROH10497   7.791  18.688   4.075 -0.2061 -0.1221 -0.1371
    1CHOL    R110498   7.714  18.761   4.337 -0.1340 -0.0056 -0.1479
    1CHOL    R210499   7.784  18.612   4.559 -0.3873 -0.1156 -0.1418
    1CHOL    R310500   7.881  18.850   4.647 -0.0385 -0.2593 -0.1231
    1CHOL    R410501   7.797  18.709   4.891 -0.5939 -0.0237 -0.1578
    1CHOL    R510502   7.737  18.909   4.829 -0.1495  0.0781 -0.3091
    1CHOL    C110503   7.897  18.988   5.167 -0.3868 -0.1047 -0.1497
    1CHOL    C210504   7.860  18.946   5.582 -0.1613  0.1784 -0.3681
    1CHOL   ROH10505  11.026   5.498   4.396 -0.0860 -0.2097 -0.0683
    1CHOL    R110506  11.221   5.523   4.600 -0.0391  0.0862 -0.1462
    1CHOL    R210507  11.212   5.724   4.790 -0.4179 -0.0697  0.0045
    1CHOL    R310508  11.225   5.516   4.964  0.1521 -0.1834 -0.1498
    1CHOL    R410509  11.284   5.753   5.126 -0.4941 -0.1144  0.0257
    1CHOL    R510510  11.406   5.572   5.111  0.0132  0.2117 -0.1128
    1CHOL    C110511  11.338   5.574   5.486 -0.0033 -0.2471 -0.1067
    1CHOL    C210512  11.070   5.633   5.785  0.0993 -0.3001 -0.0323
    1CHOL   ROH10513   7.247  26.855   6.424 -0.1565  0.0873 -0.1286
    1CHOL    R110514   7.343  26.696   6.210 -0.2053 -0.0600 -0.0431
    1CHOL    R210515   7.175  26.553   6.044 -0.2650  0.0401 -0.0736
    1CHOL    R310516   7.304  26.689   5.848 -0.0597 -0.1271 -0.0573
    1CHOL    R410517   7.149  26.485   5.706 -0.2792  0.0537 -0.0749
    1CHOL    R510518   7.363  26.522   5.687 -0.2307 -0.2072 -0.0359
    1CHOL    C110519   7.256  26.574   5.325 -0.0946 -0.0954 -0.0605
    1CHOL    C210520   7.155  26.882   5.123  0.0558  0.0816 -0.0275
    1CHOL   ROH10521  10.007  17.656   6.855 -0.0998 -0.0882  0.0352
    1CHOL    R110522   9.863  17.662   6.611 -0.0262  0.1070 -0.0057
    1CHOL    R210523   9.896  17.861   6.423  0.3168  0.0513 -0.0082
    1CHOL    R310524   9.943  17.652   6.256  0.0603 -0.0292  0.0160
    1CHOL    R410525   9.852  17.869   6.081 -0.0407 -0.0516  0.0309
    1CHOL    R510526   9.769  17.668   6.092 -0.1108 -0.0189  0.1906
    1CHOL    C110527   9.871  17.677   5.724 -0.4896 -0.1872  0.0764
    1CHOL    C210528   9.584  17.861   5.546 -0.1296 -0.1887  0.3651
    1CHOL   ROH10529  10.145  22.762   6.757  0.2304  0.0232 -0.1700
    1CHOL    R110530   9.889  22.750   6.639  0.1709  0.0280 -0.0424
    1CHOL    R210531   9.751  22.975   6.556  0.1929  0.0192 -0.0933
    1CHOL    R310532   9.740  22.843   6.320  0.0425 -0.0996 -0.0219
    1CHOL    R410533   9.551  23.064   6.290  0.2637  0.0878 -0.1244
    1CHOL    R510534   9.509  22.853   6.257  0.0432  0.1060 -0.0080
    1CHOL    C110535   9.423  22.992   5.912  0.1637  0.0163 -0.0755
    1CHOL    C210536   9.299  23.365   5.712  0.3367 -0.1302 -0.0659
    1CHOL   ROH10537   9.027  23.420   4.069 -0.0161 -0.1748 -0.0386
    1CHOL    R110538   8.995  23.374   4.347 -0.1074  0.0212 -0.0133
    1CHOL    R210539   8.753  23.299   4.459 -0.0910 -0.1525 -0.0755
    1CHOL    R310540   8.900  23.094   4.559  0.0904  0.0882  0.1651
    1CHOL    R410541   8.655  23.093   4.718 -0.0414 -0.1369 -0.0456
    1CHOL    R510542   8.858  23.099   4.794 -0.1134  0.1656  0.1253
    1CHOL    C110543   8.735  22.780   4.962  0.1579  0.0983  0.1977
    1CHOL    C210544   8.518  22.997   5.215  0.0990  0.1806 -0.2137
    1CHOL   ROH10545  17.765  20.400   6.347 -0.1623 -0.0105 -0.1071
    1CHOL    R110546  17.864  20.152   6.253 -0.3525 -0.0339 -0.2496
    1CHOL    R210547  17.743  20.012   6.047 -0.2496  0.3588 -0.5835
    1CHOL    R310548  17.992  20.021   5.939 -0.0788  0.1597 -0.2240
    1CHOL    R410549  17.856  19.809   5.791 -0.0389  0.2401 -0.4003
    1CHOL    R510550  18.046  19.792   5.894 -0.1907  0.1058 -0.1157
    1CHOL    C110551  18.156  19.699   5.541  0.2439 -0.0158  0.0440
    1CHOL    C210552  18.134  19.577   5.208 -0.2964  0.0923 -0.2193
    1CHOL   ROH10553  23.003  14.837   3.684 -0.0733 -0.0830  0.0487
    1CHOL    R110554  23.052  14.663   3.903 -0.1486 -0.0265  0.1130
    1CHOL    R210555  23.306  14.578   3.970 -0.1981 -0.2629  0.0311
    1CHOL    R310556  23.240  14.677   4.214  0.0232 -0.0618  0.0107
    1CHOL    R410557  23.339  14.406   4.268 -0.2121 -0.1226  0.1130
    1CHOL    R510558  23.148  14.490   4.331 -0.0966  0.0960  0.1663
    1CHOL    C110559  23.297  14.399   4.671 -0.0122  0.1481  0.1415
    1CHOL    C210560  23.372  14.268   5.071 -0.3756 -0.0208 -0.0365
    1CHOL   ROH10561   0.607   4.656   5.497 -0.0297 -0.1723 -0.0718
    1CHOL    R110562   0.658   4.539   5.244 -0.0734 -0.1293 -0.1034
    1CHOL    R210563   0.484   4.563   5.031 -0.0658  0.0010 -0.1123
    1CHOL    R310564   0.704   4.657   4.903 -0.0190 -0.0521 -0.0655
    1CHOL    R410565   0.504   4.626   4.692 -0.0383  0.2457 -0.0648
    1CHOL    R510566   0.705   4.543   4.693 -0.1062  0.1153 -0.1472
    1CHOL    C110567   0.723   4.752   4.374  0.0216  0.3382  0.0067
    1CHOL    C210568   0.628   4.567   3.960 -0.1654  0.0681  0.0440
    1CHOL   ROH10569  27.003  26.580   6.381  0.1751  0.1676  0.1144
    1CHOL    R110570  27.019  26.582   6.098  0.0324 -0.0511  0.1027
    1CHOL    R210571  27.209  26.726   5.961 -0.2017  0.0623 -0.1139
    1CHOL    R310572  27.263  26.486   5.846  0.0236  0.0239  0.0660
    1CHOL    R410573  27.447  26.672   5.716 -0.1661  0.1032 -0.0880
    1CHOL    R510574  27.308  26.537   5.617 -0.0429 -0.1084  0.0234
    1CHOL    C110575  27.636  26.415   5.466  0.0663  0.0913  0.0959
    1CHOL    C210576  28.025  26.360   5.583 -0.0673  0.1082  0.1803
    1CHOL   ROH10577   6.221  25.168   6.153 -0.0017  0.1373 -0.0305
    1CHOL    R110578   6.311  25.279   5.909  0.0687 -0.0036 -0.0699
    1CHOL    R210579   6.441  25.130   5.716 -0.1061 -0.1748 -0.0580
    1CHOL    R310580   6.246  25.227   5.555 -0.0385 -0.0196 -0.0482
    1CHOL    R410581   6.462  25.149   5.372 -0.1538 -0.3034 -0.0685
    1CHOL    R510582   6.365  25.344   5.382  0.0510 -0.1960 -0.1086
    1CHOL    C110583   6.290  25.251   5.020 -0.1180 -0.2328 -0.0654
    1CHOL    C210584   6.249  25.226   4.737  0.1679 -0.2188  0.1071
    1CHOL   ROH10585   3.270  25.031   3.440 -0.2445  0.0348  0.0431
    1CHOL    R110586   3.150  24.979   3.691 -0.0643 -0.0387  0.1159
    1CHOL    R210587   3.293  24.978   3.927  0.0801  0.0387  0.0304
    1CHOL    R310588   3.105  25.158   4.005  0.0225 -0.0697  0.1462
    1CHOL    R410589   3.307  25.166   4.217  0.0876 -0.0428  0.0832
    1CHOL    R510590   3.093  25.133   4.243  0.1101 -0.1477  0.1426
    1CHOL    C110591   3.139  25.444   4.459  0.0379 -0.1921  0.2227
    1CHOL    C210592   3.440  25.651   4.429 -0.1807  0.0297 -0.1429
    1CHOL   ROH10593   4.063   3.215   3.292  0.1317  0.3217  0.0505
    1CHOL    R110594   3.798   3.184   3.385  0.1236  0.2243 -0.0027
    1CHOL    R210595   3.717   3.265   3.636  0.0585  0.1325  0.0082
    1CHOL    R310596   3.530   3.404   3.496  0.0468  0.1219  0.0140
    1CHOL    R410597   3.491   3.486   3.775 -0.0370  0.0216  0.0297
    1CHOL    R510598   3.338   3.407   3.641  0.0155  0.0201 -0.0264
    1CHOL    C110599   3.182   3.745   3.725 -0.1036 -0.0530  0.0477
    1CHOL    C210600   2.926   4.059   3.905 -0.0278  0.2412  0.0715
    1CHOL   ROH10601  13.571  12.958   4.718 -0.0858 -0.0095  0.1416
    1CHOL    R110602  13.744  13.100   4.892 -0.0986  0.2023 -0.0140
    1CHOL    R210603  13.692  13.358   4.975 -0.4162  0.0957  0.1399
    1CHOL    R310604  13.721  13.250   5.222  0.0530  0.0415  0.0710
    1CHOL    R410605  13.752  13.539   5.263 -0.5856  0.1099  0.1670
    1CHOL    R510606  13.891  13.384   5.326 -0.1589  0.3968 -0.0220
    1CHOL    C110607  13.814  13.543   5.664 -0.2439  0.0672  0.1181
    1CHOL    C210608  13.644  13.770   5.912 -0.0261  0.2808  0.0183
    1CHOL   ROH10609  20.460  26.763   3.757 -0.1230  0.2624 -0.0520
    1CHOL    R110610  20.493  26.896   4.005  0.0002  0.1989 -0.0338
    1CHOL    R210611  20.379  26.805   4.240 -0.0245  0.2337 -0.0350
    1CHOL    R310612  20.634  26.817   4.331 -0.0030  0.0525 -0.0660
    1CHOL    R410613  20.474  26.759   4.569 -0.0551  0.4061 -0.0012
    1CHOL    R510614  20.616  26.922   4.545  0.1108  0.2496 -0.1470
    1CHOL    C110615  20.769  26.744   4.846 -0.0529  0.3361 -0.0107
    1CHOL    C210616  20.841  26.819   5.082 -0.5045  0.1783 -0.4431
    1CHOL   ROH10617   8.602   2.669   6.552  0.3346 -0.1259 -0.0399
    1CHOL    R110618   8.644   2.812   6.311  0.3239  0.0626  0.0691
    1CHOL    R210619   8.491   2.770   6.085  0.5162  0.0129 -0.0479
    1CHOL    R310620   8.452   3.039   6.101  0.1940 -0.0355  0.0776
    1CHOL    R410621   8.402   2.972   5.819  0.6872  0.0794 -0.0567
    1CHOL    R510622   8.541   3.123   5.894  0.4157  0.1932  0.2544
    1CHOL    C110623   8.314   3.342   5.679  0.4843  0.0726  0.0558
    1CHOL    C210624   8.494   3.574   5.367  0.3583 -0.0669 -0.0307
    1CHOL   ROH10625   6.172  24.303   6.454 -0.2515  0.2583 -0.0235
    1CHOL    R110626   6.247  24.187   6.206 -0.2773  0.1338  0.0280
    1CHOL    R210627   6.154  24.281   5.964 -0.1602  0.1240 -0.0130
    1CHOL    R310628   6.419  24.295   5.905 -0.1366 -0.0766  0.0282
    1CHOL    R410629   6.291  24.207   5.656 -0.2252  0.3541 -0.1010
    1CHOL    R510630   6.457  24.109   5.759 -0.3254  0.0511 -0.1998
    1CHOL    C110631   6.620  24.177   5.420 -0.2408  0.3002 -0.1135
    1CHOL    C210632   6.780  24.203   5.044 -0.1153 -0.0355  0.0681
    1CHOL   ROH10633   3.868  25.697   6.405 -0.0229 -0.1133  0.1912
    1CHOL    R110634   3.928  25.536   6.180 -0.0179 -0.1237  0.2003
    1CHOL    R210635   3.897  25.625   5.920 -0.1264 -0.1781  0.1969
    1CHOL    R310636   4.158  25.551   5.898 -0.1014 -0.0747  0.1332
    1CHOL    R410637   4.071  25.595   5.623 -0.2914 -0.4322  0.1229
    1CHOL    R510638   4.166  25.416   5.701 -0.1564 -0.3006  0.2790
    1CHOL    C110639   4.417  25.508   5.429 -0.3641 -0.4831  0.0202
    1CHOL    C210640   4.566  25.490   5.148  0.1164 -0.0409  0.1610
    1CHOL   ROH10641   8.702  26.097   6.429  0.0083  0.1858 -0.0818
    1CHOL    R110642   8.619  26.211   6.184  0.0151  0.2426 -0.0579
    1CHOL    R210643   8.792  26.255   5.973 -0.0091  0.1446 -0.0999
    1CHOL    R310644   8.610  26.109   5.834 -0.1318  0.2556 -0.0584
    1CHOL    R410645   8.753  26.263   5.630  0.0822 -0.0157 -0.1156
    1CHOL    R510646   8.537  26.255   5.660  0.0655  0.2312 -0.1626
    1CHOL    C110647   8.558  26.130   5.300  0.0202 -0.0051 -0.0857
    1CHOL    C210648   8.321  26.083   5.037 -0.2126 -0.4087 -0.0779
    1CHOL   ROH10649   3.750   2.230   3.346  0.0774  0.0061 -0.0415
    1CHOL    R110650   3.632   2.334   3.581  0.1046  0.1900 -0.1077
    1CHOL    R210651   3.578   2.177   3.802 -0.2921  0.2608 -0.1481
    1CHOL    R310652   3.724   2.367   3.931 -0.0513  0.0129 -0.0478
    1CHOL    R410653   3.551   2.252   4.138 -0.3209  0.2306 -0.1434
    1CHOL    R510654   3.572   2.464   4.088  0.0260  0.2167 -0.0935
    1CHOL    C110655   3.673   2.474   4.455 -0.1116 -0.0197 -0.0466
    1CHOL    C210656   3.369   2.327   4.723  0.0712 -0.0825  0.2329
    1CHOL   ROH10657   2.402  13.608   6.083  0.0119 -0.2481 -0.2365
    1CHOL    R110658   2.570  13.616   5.855  0.1156 -0.1408 -0.1576
    1CHOL    R210659   2.494  13.737   5.618  0.1958 -0.0882 -0.1599
    1CHOL    R310660   2.726  13.874   5.651  0.1476 -0.0425 -0.0085
    1CHOL    R410661   2.655  13.916   5.370  0.3489 -0.0899 -0.0626
    1CHOL    R510662   2.845  13.841   5.446  0.3052 -0.0448  0.0844
    1CHOL    C110663   2.967  14.149   5.257  0.3928 -0.0478  0.1361
    1CHOL    C210664   3.139  14.206   4.909  0.1671  0.1357  0.1211
    1CHOL   ROH10665  27.780   8.747   5.993  0.0504  0.2202 -0.0752
    1CHOL    R110666  27.815   8.819   5.721  0.0550  0.2139 -0.0772
    1CHOL    R210667  27.746   8.651   5.513  0.2349  0.1305 -0.0760
    1CHOL    R310668  27.600   8.866   5.431  0.0814  0.0056 -0.1303
    1CHOL    R410669  27.584   8.675   5.209  0.3009 -0.0170 -0.1226
    1CHOL    R510670  27.647   8.883   5.197  0.1320  0.0324 -0.1158
    1CHOL    C110671  27.352   8.889   4.954  0.1954 -0.2201 -0.2007
    1CHOL    C210672  27.046   9.112   4.838 -0.0625 -0.3371 -0.3057
    1CHOL   ROH10673  10.958   6.402   4.008  0.1039 -0.2134  0.0761
    1CHOL    R110674  10.849   6.502   4.250 -0.0117 -0.0996 -0.0213
    1CHOL    R210675  10.765   6.337   4.455 -0.1922 -0.0076 -0.0162
    1CHOL    R310676  10.934   6.490   4.603 -0.2308 -0.0155  0.0352
    1CHOL    R410677  10.753   6.367   4.799 -0.0316 -0.3347  0.0208
    1CHOL    R510678  10.796   6.580   4.777 -0.2074 -0.2812  0.1945
    1CHOL    C110679  10.905   6.526   5.139  0.0257 -0.5325  0.0906
    1CHOL    C210680  10.893   6.474   5.535 -0.2531 -0.0653  0.0322
    1CHOL   ROH10681  10.406  18.569   4.065 -0.0483  0.0429  0.1215
    1CHOL    R110682  10.327  18.707   4.299 -0.2685 -0.1214  0.1482
    1CHOL    R210683  10.213  18.580   4.517  0.1256 -0.3832  0.2111
    1CHOL    R310684  10.416  18.702   4.652 -0.0843  0.1045  0.1083
    1CHOL    R410685  10.209  18.657   4.853  0.0796 -0.3126  0.1946
    1CHOL    R510686  10.305  18.846   4.807 -0.3540 -0.0981  0.1128
    1CHOL    C110687  10.395  18.816   5.176 -0.1441  0.1861  0.0885
    1CHOL    C210688  10.458  18.973   5.527  0.0756  0.0328 -0.1516
    1CHOL   ROH10689  23.261   8.320   3.281 -0.1721 -0.2535 -0.0028
    1CHOL    R110690  23.099   8.358   3.510 -0.0636 -0.1394  0.0570
    1CHOL    R210691  23.037   8.152   3.684 -0.0230 -0.0655  0.1641
    1CHOL    R310692  23.138   8.323   3.870  0.0933 -0.0122  0.0527
    1CHOL    R410693  22.901   8.207   3.997  0.0380  0.2096  0.1447
    1CHOL    R510694  22.945   8.419   3.974  0.1622  0.1675  0.0128
    1CHOL    C110695  22.917   8.399   4.354  0.1827  0.4197  0.0288
    1CHOL    C210696  22.706   8.310   4.645  0.1441 -0.2172 -0.1743
    1CHOL   ROH10697  24.463  22.887   6.230 -0.1294  0.0743  0.0874
    1CHOL    R110698  24.243  22.840   6.058 -0.1268  0.1787  0.0548
    1CHOL    R210699  24.176  23.011   5.852  0.1210  0.0975 -0.0992
    1CHOL    R310700  24.193  22.785   5.702 -0.0704 -0.0385  0.0791
    1CHOL    R410701  23.955  22.923   5.601  0.1776  0.2030 -0.1868
    1CHOL    R510702  23.965  22.717   5.671 -0.1410  0.2366 -0.0260
    1CHOL    C110703  23.842  22.660   5.315  0.0310  0.1369 -0.0704
    1CHOL    C210704  23.492  22.454   5.331  0.1976  0.0773  0.2753
    1CHOL   ROH10705  21.072  15.930   6.905 -0.0640 -0.2412  0.0028
    1CHOL    R110706  20.893  15.912   6.687 -0.0150 -0.2222 -0.0388
    1CHOL    R210707  20.792  16.135   6.559 -0.0584 -0.2098  0.0180
    1CHOL    R310708  20.892  16.013   6.337  0.0232 -0.1030 -0.0054
    1CHOL    R410709  20.760  16.255   6.236  0.0952 -0.0321  0.0668
    1CHOL    R510710  20.725  16.050   6.169  0.0993  0.0070 -0.0584
    1CHOL    C110711  20.834  16.211   5.840  0.2611  0.1714  0.0732
    1CHOL    C210712  21.078  16.276   5.482  0.2214  0.0445 -0.3695
    1CHOL   ROH10713  12.738  18.292   6.623 -0.0527  0.1358 -0.1181
    1CHOL    R110714  12.688  18.296   6.344 -0.0206  0.0266 -0.1262
    1CHOL    R210715  12.641  18.067   6.197 -0.0265 -0.0291 -0.0378
    1CHOL    R310716  12.416  18.200   6.122 -0.0049 -0.0373 -0.1178
    1CHOL    R410717  12.488  18.038   5.889  0.0511 -0.0797 -0.0717
    1CHOL    R510718  12.453  18.253   5.892  0.0548 -0.0783 -0.1181
    1CHOL    C110719  12.188  18.146   5.639  0.1166 -0.1169 -0.1667
    1CHOL    C210720  12.078  18.225   5.274 -0.0419  0.2477  0.1564
    1CHOL   ROH10721  11.090  19.457   7.281  0.0779 -0.0530 -0.0682
    1CHOL    R110722  11.091  19.492   7.000  0.0127 -0.0915 -0.0736
    1CHOL    R210723  10.961  19.319   6.828 -0.0998 -0.0672 -0.0147
    1CHOL    R310724  10.844  19.548   6.739 -0.0396 -0.0352 -0.0117
    1CHOL    R410725  10.838  19.368   6.509 -0.0242 -0.0037 -0.0343
    1CHOL    R510726  10.920  19.570   6.513  0.0110 -0.0198  0.0074
    1CHOL    C110727  10.657  19.611   6.239  0.0761  0.0631 -0.0429
    1CHOL    C210728  10.682  19.580   5.768  0.5292  0.1586 -0.1389
    1CHOL   ROH10729  10.007  12.679   7.352  0.0140 -0.0614  0.2844
    1CHOL    R110730   9.824  12.638   7.140  0.0411  0.0671  0.2359
    1CHOL    R210731   9.896  12.515   6.903  0.0637  0.1860  0.1832
    1CHOL    R310732   9.686  12.352   6.961  0.0391  0.1736  0.0641
    1CHOL    R410733   9.742  12.305   6.676  0.2260  0.1538  0.1001
    1CHOL    R510734   9.550  12.360   6.764  0.1633  0.1465 -0.0262
    1CHOL    C110735   9.454  12.030   6.598  0.2973  0.1235 -0.0601
    1CHOL    C210736   9.252  11.845   6.292  0.0622  0.1063  0.0888
    1CHOL   ROH10737  10.392   4.513   4.344  0.0508 -0.0621 -0.0328
    1CHOL    R110738  10.317   4.478   4.615  0.0518  0.1640 -0.0019
    1CHOL    R210739  10.422   4.278   4.774 -0.2014  0.0797  0.0636
    1CHOL    R310740  10.483   4.486   4.939  0.1286  0.0695 -0.0388
    1CHOL    R410741  10.481   4.251   5.113 -0.0061  0.1279  0.0353
    1CHOL    R510742  10.369   4.436   5.143  0.2086  0.2566  0.0536
    1CHOL    C110743  10.573   4.429   5.466  0.4172  0.1465 -0.0773
    1CHOL    C210744  10.556   4.037   5.578  0.1555  0.1395  0.2503
    1CHOL   ROH10745  26.643   1.630   3.056  0.0241  0.1239 -0.1973
    1CHOL    R110746  26.792   1.580   3.291  0.0225  0.0688 -0.2080
    1CHOL    R210747  26.923   1.779   3.430 -0.0211  0.0440 -0.1325
    1CHOL    R310748  26.779   1.684   3.640 -0.0121 -0.0559 -0.1710
    1CHOL    R410749  27.002   1.830   3.763 -0.0328 -0.0665 -0.1125
    1CHOL    R510750  26.944   1.624   3.803 -0.0041 -0.0923 -0.1904
    1CHOL    C110751  26.912   1.770   4.153 -0.0313 -0.2245 -0.1371
    1CHOL    C210752  27.067   1.899   4.453 -0.0365 -0.1591 -0.1695
    1CHOL   ROH10753  24.746   6.172   3.491  0.3632 -0.0542  0.0095
    1CHOL    R110754  24.710   6.083   3.758  0.2830 -0.0093  0.0159
    1CHOL    R210755  24.844   6.195   3.972  0.2388  0.0167  0.0429
    1CHOL    R310756  24.593   6.227   4.071  0.2113  0.0566 -0.0443
    1CHOL    R410757  24.762   6.202   4.308  0.0804 -0.1523  0.0077
    1CHOL    R510758  24.585   6.084   4.262  0.0606 -0.0484 -0.1368
    1CHOL    C110759  24.479   6.235   4.596 -0.0380 -0.2132 -0.0946
    1CHOL    C210760  24.348   6.091   4.858 -0.0010 -0.0736 -0.0401
    1CHOL   ROH10761  10.011   0.237   3.859 -0.0306  0.0265  0.1953
    1CHOL    R110762   9.820   0.250   4.067  0.0692  0.0980  0.2843
    1CHOL    R210763   9.812   0.459   4.248  0.0324  0.2654  0.0974
    1CHOL    R310764   9.553   0.477   4.167 -0.0216  0.0231  0.2105
    1CHOL    R410765   9.557   0.610   4.427  0.0510  0.3680  0.0369
    1CHOL    R510766   9.425   0.448   4.367  0.1010  0.2176  0.3187
    1CHOL    C110767   9.166   0.714   4.455  0.0111  0.2003  0.1077
    1CHOL    C210768   8.988   0.747   4.852  0.1992  0.0815  0.2433
    1CHOL   ROH10769   7.852   8.011   6.463  0.2002 -0.0381  0.0938
    1CHOL    R110770   7.902   7.950   6.191  0.2431 -0.0947  0.1140
    1CHOL    R210771   7.803   7.723   6.070  0.1969 -0.0818  0.1251
    1CHOL    R310772   7.703   7.901   5.890  0.2957 -0.0745  0.0763
    1CHOL    R410773   7.753   7.657   5.734  0.3159 -0.0872  0.1078
    1CHOL    R510774   7.826   7.858   5.689  0.3657 -0.1029  0.1263
    1CHOL    C110775   7.630   7.786   5.370  0.4780 -0.0835  0.0521
    1CHOL    C210776   7.666   7.383   5.176  0.1131 -0.1646 -0.0811
    1CHOL   ROH10777   2.343  23.408   5.877  0.0326  0.2382  0.0312
    1CHOL    R110778   2.457  23.442   5.620 -0.0123  0.2424  0.0114
    1CHOL    R210779   2.367  23.304   5.398  0.0481  0.1312  0.0525
    1CHOL    R310780   2.342  23.554   5.294 -0.1129  0.0919 -0.0053
    1CHOL    R410781   2.281  23.374   5.071 -0.2266  0.0091  0.0957
    1CHOL    R510782   2.429  23.534   5.071 -0.2782  0.0562 -0.0664
    1CHOL    C110783   2.209  23.648   4.782 -0.5377 -0.0986  0.0667
    1CHOL    C210784   2.244  23.927   4.540  0.0450 -0.0308  0.2339
    1CHOL   ROH10785  23.830   6.792   3.686  0.1415 -0.0252 -0.0593
    1CHOL    R110786  23.894   6.748   3.958  0.0513  0.0598 -0.0230
    1CHOL    R210787  23.986   6.949   4.123 -0.1052  0.1394 -0.0228
    1CHOL    R310788  23.777   6.872   4.280 -0.1373  0.0762 -0.0975
    1CHOL    R410789  23.975   6.981   4.467 -0.1076 -0.1679  0.0070
    1CHOL    R510790  23.881   6.785   4.477 -0.1798 -0.1398 -0.1722
    1CHOL    C110791  23.773   6.927   4.814 -0.1389 -0.4061 -0.0457
    1CHOL    C210792  23.788   6.812   5.140 -0.1346 -0.0904  0.0072
    1CHOL   ROH10793  11.546   2.701   4.158 -0.0916 -0.0970 -0.1439
    1CHOL    R110794  11.476   2.702   4.432 -0.1602 -0.0987 -0.1613
    1CHOL    R210795  11.439   2.469   4.576 -0.0631 -0.1005 -0.1386
    1CHOL    R310796  11.622   2.581   4.743 -0.1677  0.0283 -0.1080
    1CHOL    R410797  11.437   2.439   4.921  0.0839 -0.3775 -0.1595
    1CHOL    R510798  11.495   2.649   4.935 -0.2079 -0.3018 -0.0126
    1CHOL    C110799  11.608   2.526   5.277  0.0711 -0.4178 -0.1431
    1CHOL    C210800  11.648   2.827   5.504 -0.2261  0.2632  0.0158
    1CHOL   ROH10801  24.435   1.985   6.479  0.1214 -0.1218 -0.0839
    1CHOL    R110802  24.611   1.955   6.259  0.0689 -0.0653 -0.1333
    1CHOL    R210803  24.530   1.844   6.019 -0.0271  0.1286 -0.1930
    1CHOL    R310804  24.627   2.076   5.916  0.0688  0.1490 -0.0590
    1CHOL    R410805  24.570   1.910   5.682 -0.0199  0.3181 -0.1564
    1CHOL    R510806  24.759   2.008   5.728  0.0258  0.2061 -0.1091
    1CHOL    C110807  24.684   2.166   5.389  0.0743  0.4476 -0.0093
    1CHOL    C210808  24.727   2.438   5.120  0.2491  0.1004  0.0783
    1CHOL   ROH10809  23.926  13.492   3.525 -0.1225 -0.3039  0.0688
    1CHOL    R110810  23.865  13.571   3.790 -0.0977 -0.0977  0.0146
    1CHOL    R210811  23.877  13.397   4.004 -0.2714  0.0152  0.1222
    1CHOL    R310812  24.041  13.587   4.108 -0.1298 -0.0554  0.0292
    1CHOL    R410813  23.971  13.418   4.336  0.1118 -0.1491  0.0292
    1CHOL    R510814  23.949  13.634   4.324  0.1237 -0.1436  0.1574
    1CHOL    C110815  24.180  13.608   4.626  0.4681 -0.3111 -0.1121
    1CHOL    C210816  24.355  13.690   5.029 -0.0191  0.0622  0.0811
    1CHOL   ROH10817  26.750  18.033   3.540 -0.1005 -0.2214 -0.1403
    1CHOL    R110818  26.694  17.867   3.762  0.1737 -0.1005  0.0256
    1CHOL    R210819  26.821  17.898   4.007  0.1286  0.3534  0.0076
    1CHOL    R310820  26.566  17.913   4.100  0.0963  0.0265 -0.0217
    1CHOL    R410821  26.715  17.780   4.314  0.2566  0.2963  0.0292
    1CHOL    R510822  26.533  17.707   4.218  0.3664  0.0167  0.0346
    1CHOL    C110823  26.414  17.725   4.580  0.3008 -0.0435  0.0142
    1CHOL    C210824  26.570  17.680   4.840  0.2405 -0.1271 -0.1315
    1CHOL   ROH10825   3.404  13.920   3.503 -0.1202 -0.0292  0.1594
    1CHOL    R110826   3.237  13.823   3.711 -0.1344 -0.0308  0.1463
    1CHOL    R210827   3.225  13.943   3.960 -0.1992  0.0039  0.1228
    1CHOL    R310828   2.959  13.950   3.907 -0.1941 -0.0591  0.0824
    1CHOL    R410829   2.977  13.873   4.190 -0.2164  0.0939  0.1327
    1CHOL    R510830   2.868  13.768   4.033 -0.1837 -0.0072  0.1718
    1CHOL    C110831   2.582  13.840   4.274 -0.2216  0.0872  0.1005
    1CHOL    C210832   2.380  13.989   4.507 -0.1215  0.2044 -0.0614
    1CHOL   ROH10833   2.190  20.721   3.207 -0.2396 -0.0654  0.0280
    1CHOL    R110834   2.196  20.702   3.490 -0.3270 -0.0886  0.0279
    1CHOL    R210835   2.218  20.923   3.654 -0.2109 -0.1171  0.0447
    1CHOL    R310836   1.993  20.821   3.767 -0.3140  0.0376 -0.0144
    1CHOL    R410837   2.111  20.990   3.976 -0.0016 -0.3805  0.1734
    1CHOL    R510838   2.055  20.780   3.995 -0.2803 -0.3410 -0.0805
    1CHOL    C110839   1.838  20.933   4.270  0.0236 -0.3885  0.1928
    1CHOL    C210840   1.610  20.921   4.639  0.1201  0.0198  0.0253
    1CHOL   ROH10841   6.764   4.731   5.985 -0.0340 -0.1048 -0.0181
    1CHOL    R110842   6.671   4.762   5.720 -0.0989 -0.2726 -0.0159
    1CHOL    R210843   6.816   4.897   5.526 -0.3219 -0.0494 -0.0312
    1CHOL    R310844   6.783   4.665   5.388  0.0446 -0.1167 -0.0147
    1CHOL    R410845   6.858   4.863   5.185 -0.1054 -0.0471 -0.0058
    1CHOL    R510846   6.684   4.733   5.181  0.0596 -0.2745 -0.0758
    1CHOL    C110847   6.853   4.626   4.856  0.3648 -0.1089  0.0245
    1CHOL    C210848   6.867   4.445   4.521 -0.0268  0.2391 -0.1487
    1CHOL   ROH10849   4.664  22.130   3.342 -0.1860  0.0786  0.0133
    1CHOL    R110850   4.848  22.167   3.554 -0.1087 -0.0557 -0.0281
    1CHOL    R210851   4.868  22.405   3.693  0.1474 -0.0414 -0.0781
    1CHOL    R310852   4.831  22.243   3.909  0.0280  0.0354 -0.0409
    1CHOL    R410853   5.033  22.438   3.995  0.0870 -0.0277 -0.0469
    1CHOL    R510854   5.050  22.221   4.004 -0.0062 -0.0304  0.0193
    1CHOL    C110855   5.096  22.307   4.373 -0.0602  0.0524  0.0062
    1CHOL    C210856   5.123  22.384   4.739 -0.0749  0.1927 -0.2601
    1CHOL   ROH10857  22.197  27.304   6.424  0.0638 -0.0555 -0.2923
    1CHOL    R110858  22.061  27.142   6.236 -0.0372 -0.0906 -0.1905
    1CHOL    R210859  22.184  27.042   6.010 -0.1568 -0.1357 -0.2366
    1CHOL    R310860  22.094  26.804   6.106 -0.1097 -0.1158 -0.1431
    1CHOL    R410861  22.200  26.742   5.839 -0.2707 -0.1629 -0.1997
    1CHOL    R510862  22.000  26.694   5.914 -0.2293 -0.1428 -0.0714
    1CHOL    C110863  22.124  26.344   5.830 -0.2928 -0.1601 -0.0904
    1CHOL    C210864  22.367  26.167   5.502  0.1163 -0.2851  0.2234
    1CHOL   ROH10865   6.938  18.914   4.147  0.0806 -0.1382 -0.1376
    1CHOL    R110866   6.852  19.025   4.393 -0.0810 -0.1597 -0.1822
    1CHOL    R210867   6.640  18.922   4.537 -0.0498 -0.2995 -0.2287
    1CHOL    R310868   6.823  18.911   4.738 -0.0990 -0.1247 -0.1736
    1CHOL    R410869   6.567  18.957   4.873 -0.1619 -0.2860 -0.2542
    1CHOL    R510870   6.748  19.076   4.895 -0.2587 -0.1508 -0.2262
    1CHOL    C110871   6.696  18.968   5.257 -0.2733 -0.1138 -0.2173
    1CHOL    C210872   6.616  18.827   5.625  0.0733  0.1670  0.0866
    1CHOL   ROH10873  17.034  16.778   7.057 -0.1205 -0.3097 -0.0326
    1CHOL    R110874  17.013  16.827   6.779  0.0969 -0.0978 -0.0156
    1CHOL    R210875  16.790  16.758   6.632  0.2542 -0.1004 -0.2703
    1CHOL    R310876  16.796  17.020   6.560  0.1850 -0.0360 -0.0456
    1CHOL    R410877  16.616  16.894   6.366  0.1024  0.1283 -0.0576
    1CHOL    R510878  16.791  17.016   6.321  0.0579  0.1832 -0.0430
    1CHOL    C110879  16.521  17.220   6.144 -0.0510  0.3219  0.2772
    1CHOL    C210880  16.392  17.228   5.817  0.0807  0.3598  0.1183
    1CHOL   ROH10881  24.241   8.415   3.468 -0.1276  0.0041  0.0684
    1CHOL    R110882  24.096   8.300   3.682  0.0305 -0.1170  0.1121
    1CHOL    R210883  24.210   8.248   3.927  0.1056  0.1357  0.1332
    1CHOL    R310884  24.002   8.396   4.020 -0.1044 -0.1151  0.0745
    1CHOL    R410885  24.102   8.253   4.256  0.1774  0.2049  0.1561
    1CHOL    R510886  23.897   8.255   4.183  0.1505 -0.1646  0.2017
    1CHOL    C110887  23.844   8.395   4.534  0.0219  0.0097  0.1145
    1CHOL    C210888  23.680   8.209   4.828  0.0562  0.0442 -0.0801
    1CHOL   ROH10889   3.894  27.664   5.803 -0.1267 -0.1438  0.2110
    1CHOL    R110890   3.839  27.411   5.690 -0.0357 -0.0694 -0.0065
    1CHOL    R210891   4.020  27.276   5.530  0.0962  0.0389  0.0454
    1CHOL    R310892   3.980  27.076   5.709 -0.0491 -0.0808 -0.1174
    1CHOL    R410893   4.160  26.961   5.508  0.1751  0.0771 -0.0030
    1CHOL    R510894   3.970  26.878   5.576  0.1232 -0.0012 -0.2476
    1CHOL    C110895   4.204  26.589   5.663  0.0846 -0.0130 -0.1840
    1CHOL    C210896   4.219  26.353   5.348  0.1630  0.1554 -0.0312
    1CHOL   ROH10897   1.757   8.236   3.018  0.2044  0.0566 -0.0903
    1CHOL    R110898   1.700   8.074   3.243  0.1241  0.2394  0.0231
    1CHOL    R210899   1.734   7.800   3.241 -0.0475  0.2151  0.2001
    1CHOL    R310900   1.885   7.850   3.462  0.0051  0.2659  0.1526
    1CHOL    R410901   1.870   7.558   3.446  0.0753  0.2597  0.1718
    1CHOL    R510902   1.819   7.681   3.619  0.0941  0.2562  0.1810
    1CHOL    C110903   2.092   7.463   3.773  0.1961  0.3334  0.1107
    1CHOL    C210904   1.920   7.219   3.973 -0.2747  0.1442 -0.0562
    1CHOL   ROH10905  14.859   1.866   6.862  0.0988  0.0208 -0.0122
    1CHOL    R110906  15.001   1.942   6.629  0.0036  0.1232 -0.0383
    1CHOL    R210907  14.961   1.820   6.384  0.0910  0.0493 -0.0195
    1CHOL    R310908  14.918   2.075   6.301 -0.1606  0.0004 -0.0470
    1CHOL    R410909  15.097   1.961   6.099  0.1728  0.2391  0.1119
    1CHOL    R510910  15.129   2.145   6.211 -0.1660  0.2770  0.1491
    1CHOL    C110911  15.137   2.283   5.856 -0.0157  0.3037  0.1625
    1CHOL    C210912  15.149   2.677   5.831 -0.0439  0.0412  0.1554
    1CHOL   ROH10913  24.605   4.514   6.548 -0.0817  0.2071 -0.2007
    1CHOL    R110914  24.609   4.423   6.280 -0.0258  0.0775 -0.1567
    1CHOL    R210915  24.690   4.169   6.210  0.1126  0.0877 -0.0297
    1CHOL    R310916  24.448   4.159   6.088  0.1215 -0.1042 -0.0351
    1CHOL    R410917  24.615   3.970   5.938  0.2778  0.0161 -0.0247
    1CHOL    R510918  24.500   4.136   5.855  0.1492 -0.0726 -0.0342
    1CHOL    C110919  24.343   3.845   5.665  0.3823 -0.2056 -0.0269
    1CHOL    C210920  24.156   3.812   5.362 -0.0874 -0.5088  0.4056
    1CHOL   ROH10921   7.717  14.662   5.301 -0.0599  0.1713  0.1318
    1CHOL    R110922   7.477  14.626   5.154  0.0059  0.1047  0.0395
    1CHOL    R210923   7.456  14.443   4.947  0.1053  0.0249  0.0980
    1CHOL    R310924   7.243  14.354   5.092  0.0460  0.0703  0.0394
    1CHOL    R410925   7.167  14.309   4.812  0.1305  0.0493  0.0195
    1CHOL    R510926   7.052  14.417   4.963  0.0966  0.0818 -0.0300
    1CHOL    C110927   6.800  14.147   4.870  0.0896  0.1060 -0.0812
    1CHOL    C210928   6.504  13.915   4.970  0.0699  0.2117 -0.2247
    1CHOL   ROH10929  23.819   7.165   6.315  0.0100 -0.1337 -0.0115
    1CHOL    R110930  23.909   7.073   6.063  0.1540  0.0482 -0.0280
    1CHOL    R210931  23.737   7.031   5.850  0.2357 -0.0665 -0.0692
    1CHOL    R310932  23.909   7.198   5.721  0.0784  0.1642  0.0130
    1CHOL    R410933  23.723   7.108   5.514  0.1844  0.0541 -0.0402
    1CHOL    R510934  23.940   7.097   5.506  0.2008  0.2799 -0.0266
    1CHOL    C110935  23.875   7.309   5.196  0.0069  0.3410  0.0537
    1CHOL    C210936  24.184   7.093   4.977 -0.2910 -0.0717 -0.2147
    1CHOL   ROH10937   8.375   7.131   3.649  0.2156  0.2154 -0.0702
    1CHOL    R110938   8.505   7.131   3.901  0.0702  0.0891  0.0067
    1CHOL    R210939   8.487   7.342   4.078  0.0410  0.0391  0.0636
    1CHOL    R310940   8.406   7.148   4.250 -0.1277  0.0112 -0.0449
    1CHOL    R410941   8.515   7.358   4.422  0.1114 -0.2049  0.0713
    1CHOL    R510942   8.572   7.148   4.423 -0.0994 -0.2641 -0.0683
    1CHOL    C110943   8.455   7.185   4.784 -0.0058 -0.3732 -0.0260
    1CHOL    C210944   8.532   7.515   4.975 -0.2845  0.2304 -0.1546
    1CHOL   ROH10945   7.546   4.847   6.363 -0.2022 -0.1288 -0.1221
    1CHOL    R110946   7.694   4.722   6.157 -0.0564 -0.1114 -0.0292
    1CHOL    R210947   7.579   4.641   5.920  0.0690 -0.2782 -0.0335
    1CHOL    R310948   7.775   4.793   5.810  0.0037 -0.1914 -0.0322
    1CHOL    R410949   7.715   4.591   5.606 -0.0352 -0.1077 -0.1078
    1CHOL    R510950   7.911   4.636   5.690 -0.0118 -0.1132 -0.1555
    1CHOL    C110951   7.979   4.704   5.320 -0.1572  0.0731 -0.1499
    1CHOL    C210952   8.173   4.811   4.958 -0.1570 -0.2742  0.1059
    1CHOL   ROH10953  10.897   6.919   4.420  0.1365 -0.1665  0.1081
    1CHOL    R110954  10.998   6.984   4.677  0.0378 -0.0622  0.1210
    1CHOL    R210955  10.894   7.190   4.829 -0.0154  0.0068 -0.0062
    1CHOL    R310956  10.869   6.994   5.017 -0.0967  0.0863  0.0666
    1CHOL    R410957  10.868   7.245   5.169  0.0995  0.1390 -0.0178
    1CHOL    R510958  10.998   7.073   5.202 -0.0025  0.0666  0.0093
    1CHOL    C110959  10.829   7.094   5.544  0.0902  0.2905  0.0437
    1CHOL    C210960  10.936   7.146   5.912 -0.0992  0.1964 -0.0721
    1CHOL   ROH10961  21.852  24.191   6.489  0.0053  0.1755  0.0900
    1CHOL    R110962  21.837  24.261   6.215 -0.0030 -0.0021  0.0431
    1CHOL    R210963  21.636  24.170   6.049 -0.0905  0.0027  0.1422
    1CHOL    R310964  21.600  24.435   5.999  0.0601 -0.0074 -0.0296
    1CHOL    R410965  21.548  24.303   5.743  0.1096 -0.1289  0.0253
    1CHOL    R510966  21.688  24.466   5.779  0.1720 -0.1772 -0.0097
    1CHOL    C110967  21.463  24.630   5.518  0.3673 -0.2149 -0.2041
    1CHOL    C210968  21.102  24.745   5.386  0.3391 -0.0286  0.1264
    1CHOL   ROH10969   9.632  18.511   6.977  0.0422  0.0441 -0.0498
    1CHOL    R110970   9.467  18.612   6.771 -0.0964 -0.0308  0.0227
    1CHOL    R210971   9.568  18.711   6.533 -0.2343  0.1593  0.0380
    1CHOL    R310972   9.396  18.531   6.423 -0.0869  0.0369  0.0055
    1CHOL    R410973   9.415  18.747   6.225 -0.2487  0.0726  0.0347
    1CHOL    R510974   9.232  18.666   6.312 -0.1883 -0.0822  0.0130
    1CHOL    C110975   9.166  18.599   5.942 -0.1186 -0.0928  0.0022
    1CHOL    C210976   9.412  18.821   5.735 -0.0400  0.0225  0.3047
    1CHOL   ROH10977  24.791  27.878   3.668 -0.0576 -0.0861 -0.1376
    1CHOL    R110978  24.783  27.779   3.933 -0.0615  0.0051 -0.1041
    1CHOL    R210979  24.615  27.575   4.011  0.0579 -0.0797 -0.0769
    1CHOL    R310980  24.846  27.462   4.099  0.1109  0.1069  0.0307
    1CHOL    R410981  24.642  27.376   4.292  0.0467 -0.1963 -0.1571
    1CHOL    R510982  24.831  27.475   4.338 -0.0802 -0.0262  0.0307
    1CHOL    C110983  24.874  27.154   4.539  0.0901 -0.0889 -0.1028
    1CHOL    C210984  24.799  26.951   4.878 -0.4689  0.1332  0.0044
    1CHOL   ROH10985  26.073  24.248   6.222 -0.1518  0.1882 -0.0072
    1CHOL    R110986  26.006  24.379   5.980 -0.1190  0.1853 -0.0181
    1CHOL    R210987  26.113  24.303   5.736  0.0152  0.2658  0.0131
    1CHOL    R310988  25.851  24.287   5.664  0.0511  0.1465 -0.0910
    1CHOL    R410989  25.999  24.243   5.415  0.1666  0.2924 -0.0460
    1CHOL    R510990  25.842  24.390   5.448  0.0771  0.1992 -0.0656
    1CHOL    C110991  25.688  24.193   5.161  0.2885  0.1958 -0.1782
    1CHOL    C210992  25.381  24.013   4.945 -0.0736 -0.1939 -0.0801
    1CHOL   ROH10993  21.801   3.340   5.972 -0.2872  0.2390 -0.0656
    1CHOL    R110994  21.756   3.296   5.696 -0.2468  0.1711 -0.0618
    1CHOL    R210995  21.782   3.046   5.579  0.0218  0.1876 -0.0464
    1CHOL    R310996  21.529   3.096   5.494 -0.0373 -0.0929 -0.0420
    1CHOL    R410997  21.648   2.934   5.281  0.1606  0.0884 -0.0719
    1CHOL    R510998  21.550   3.127   5.258 -0.0674 -0.0196 -0.0350
    1CHOL    C110999  21.332   2.914   5.028  0.1857 -0.2327 -0.0828
    1CHOL    C211000  21.154   3.202   4.948 -0.1750 -0.1474  0.3397
    1CHOL   ROH11001   4.717  23.052   6.405  0.2032 -0.0819  0.0836
    1CHOL    R111002   4.677  23.152   6.143 -0.1127 -0.0254  0.1506
    1CHOL    R211003   4.880  23.164   5.955 -0.2563  0.3281  0.0183
    1CHOL    R311004   4.704  23.023   5.804 -0.1696  0.1526  0.0749
    1CHOL    R411005   4.930  23.072   5.626 -0.0744 -0.0120  0.1340
    1CHOL    R511006   4.722  23.118   5.586 -0.0648 -0.0684 -0.0217
    1CHOL    C111007   4.794  22.886   5.292  0.1129 -0.3747  0.2546
    1CHOL    C211008   4.742  22.676   4.943 -0.4985  0.4464 -0.0809
    1CHOL   ROH11009  16.021  24.133   3.912  0.1722  0.1556 -0.0096
    1CHOL    R111010  16.201  24.114   4.130  0.1278  0.2269  0.0341
    1CHOL    R211011  16.165  24.254   4.365 -0.0710  0.0945  0.0865
    1CHOL    R311012  16.184  24.007   4.477  0.1222  0.0604 -0.0162
    1CHOL    R411013  16.217  24.194   4.701  0.0891 -0.0066  0.0451
    1CHOL    R511014  16.352  24.032   4.647  0.1698  0.0970 -0.0683
    1CHOL    C111015  16.264  23.928   5.003  0.3636 -0.0974 -0.0754
    1CHOL    C211016  16.074  24.103   5.339 -0.0837 -0.0951 -0.0838
    1CHOL   ROH11017   4.572  24.065   6.188 -0.1466  0.3542 -0.0445
    1CHOL    R111018   4.613  24.166   5.927  0.0110  0.1950 -0.0832
    1CHOL    R211019   4.847  24.124   5.786  0.0164 -0.0745 -0.0024
    1CHOL    R311020   4.678  24.026   5.597 -0.0189 -0.0210  0.0015
    1CHOL    R411021   4.939  24.039   5.464 -0.0594  0.0734 -0.0636
    1CHOL    R511022   4.753  24.126   5.393 -0.0906  0.0745  0.0233
    1CHOL    C111023   4.834  23.898   5.099 -0.1367  0.2098 -0.0956
    1CHOL    C211024   5.126  23.828   4.956  0.0150 -0.0188  0.3010
    1CHOL   ROH11025   7.294  12.209   6.288 -0.2873  0.0459  0.0613
    1CHOL    R111026   7.071  12.375   6.235 -0.3153 -0.0419 -0.1053
    1CHOL    R211027   7.087  12.596   6.070 -0.2453  0.0453  0.0090
    1CHOL    R311028   6.880  12.474   5.941 -0.0440 -0.0076 -0.2723
    1CHOL    R411029   6.871  12.753   5.850 -0.2996  0.1102  0.1091
    1CHOL    R511030   6.707  12.640   5.938 -0.2248 -0.1940 -0.1357
    1CHOL    C111031   6.552  12.730   5.601 -0.1425  0.0984 -0.0967
    1CHOL    C211032   6.410  12.520   5.267  0.1194 -0.1721  0.1045
    1CHOL   ROH11033  15.877  12.448   4.451 -0.1335  0.1369 -0.0190
    1CHOL    R111034  15.927  12.626   4.666 -0.2684  0.0330  0.0993
    1CHOL    R211035  15.815  12.593   4.916 -0.0890 -0.3318  0.1307
    1CHOL    R311036  16.074  12.605   4.998 -0.0580 -0.0337  0.0060
    1CHOL    R411037  15.917  12.611   5.246  0.0360 -0.1946  0.0865
    1CHOL    R511038  16.070  12.754   5.186 -0.1463 -0.0182 -0.0001
    1CHOL    C111039  16.219  12.632   5.515  0.1380  0.1652 -0.0561
    1CHOL    C211040  16.225  12.453   5.934  0.2542 -0.1711  0.1962
    1CHOL   ROH11041  23.262  26.427   4.203 -0.1827  0.0728 -0.0603
    1CHOL    R111042  23.199  26.623   4.398 -0.1351 -0.0037  0.0325
    1CHOL    R211043  23.282  26.602   4.661  0.0396 -0.0436 -0.0236
    1CHOL    R311044  23.385  26.849   4.615 -0.0848  0.0087 -0.0235
    1CHOL    R411045  23.366  26.831   4.906  0.2246 -0.1273 -0.0075
    1CHOL    R511046  23.283  26.988   4.781  0.0435 -0.0957  0.1461
    1CHOL    C111047  23.511  27.196   5.005  0.2154 -0.1267  0.0019
    1CHOL    C211048  23.876  27.331   5.227  0.2956  0.3701  0.2679
    1CHOL   ROH11049  10.995  12.296   7.167 -0.1660 -0.0587  0.0660
    1CHOL    R111050  10.890  12.283   6.904 -0.1278  0.0416  0.0458
    1CHOL    R211051  10.684  12.446   6.818  0.0130  0.2066  0.0202
    1CHOL    R311052  10.860  12.509   6.620  0.0974  0.0874  0.0554
    1CHOL    R411053  10.598  12.588   6.515  0.1499  0.1306 -0.0556
    1CHOL    R511054  10.743  12.458   6.418  0.1449  0.0524  0.0345
    1CHOL    C111055  10.713  12.732   6.153  0.3088 -0.0255 -0.0666
    1CHOL    C211056  10.746  12.896   5.847  0.4092 -0.0420 -0.0924
    1CHOL   ROH11057  14.716   7.559   6.950  0.0833  0.1503 -0.0288
    1CHOL    R111058  14.658   7.529   6.674  0.0760  0.1254 -0.0237
    1CHOL    R211059  14.466   7.353   6.581  0.0597  0.1365  0.0012
    1CHOL    R311060  14.369   7.575   6.458  0.0777  0.1300 -0.0275
    1CHOL    R411061  14.323   7.359   6.266 -0.0259  0.0824  0.0381
    1CHOL    R511062  14.427   7.546   6.228  0.0104  0.0530 -0.0391
    1CHOL    C111063  14.148   7.571   5.968 -0.0590  0.0447  0.0327
    1CHOL    C211064  13.821   7.555   5.698  0.1059 -0.0591 -0.1774
    1CHOL   ROH11065  12.460  27.148   3.782 -0.0326  0.1240  0.1226
    1CHOL    R111066  12.522  27.062   4.044  0.0084  0.0310  0.0821
    1CHOL    R211067  12.378  27.141   4.265  0.0760 -0.0068  0.1374
    1CHOL    R311068  12.355  26.874   4.307  0.0297 -0.0150  0.0641
    1CHOL    R411069  12.327  26.994   4.573  0.2259 -0.0871  0.1250
    1CHOL    R511070  12.467  26.837   4.516  0.1509 -0.1095 -0.0134
    1CHOL    C111071  12.276  26.657   4.792  0.2697 -0.1417  0.0488
    1CHOL    C211072  11.950  26.503   4.818  0.2505 -0.0196  0.0742
    1CHOL   ROH11073   2.220  14.637   3.356  0.2252 -0.2697  0.0007
    1CHOL    R111074   2.229  14.473   3.586  0.2425 -0.2256  0.0321
    1CHOL    R211075   2.442  14.307   3.641  0.3056 -0.1235  0.1139
    1CHOL    R311076   2.444  14.440   3.878  0.1882 -0.0780  0.0889
    1CHOL    R411077   2.626  14.213   3.919  0.1426 -0.0849  0.2356
    1CHOL    R511078   2.455  14.266   4.044  0.0806 -0.0441  0.1301
    1CHOL    C111079   2.734  14.284   4.303 -0.0625 -0.0196  0.2831
    1CHOL    C211080   2.869  14.377   4.542  0.1185  0.1414  0.1378
    1CHOL   ROH11081  17.532  25.168   3.484 -0.2560 -0.1249 -0.1036
    1CHOL    R111082  17.602  25.081   3.744 -0.1263 -0.0233 -0.1033
    1CHOL    R211083  17.655  25.257   3.950 -0.0607  0.0582 -0.1860
    1CHOL    R311084  17.464  25.112   4.079  0.0179  0.0731 -0.0526
    1CHOL    R411085  17.567  25.297   4.282  0.0362  0.1962 -0.1766
    1CHOL    R511086  17.553  25.080   4.299  0.0958  0.2023 -0.0657
    1CHOL    C111087  17.338  25.184   4.597  0.1664  0.2906 -0.0457
    1CHOL    C211088  17.597  25.228   4.928  0.0119 -0.2254 -0.1358
    1CHOL   ROH11089   0.450   0.521   6.065  0.1175  0.0570 -0.1565
    1CHOL    R111090   0.285   0.360   5.902  0.0882  0.0201 -0.0904
    1CHOL    R211091   0.321   0.337   5.629  0.0577 -0.0648 -0.0878
    1CHOL    R311092   0.329   0.071   5.685  0.0439 -0.0487 -0.0081
    1CHOL    R411093   0.352   0.085   5.393  0.0906 -0.1363 -0.0080
    1CHOL    R511094   0.207  28.096   5.506  0.0708 -0.1000  0.0031
    1CHOL    C111095   0.377  27.817   5.309  0.0967 -0.1627  0.1132
    1CHOL    C211096   0.153  27.589   5.012 -0.1826  0.0539 -0.1912
    1CHOL   ROH11097  24.096   9.500   6.405 -0.0798  0.1553 -0.0460
    1CHOL    R111098  24.142   9.456   6.130  0.0075 -0.0060 -0.0078
    1CHOL    R211099  24.291   9.243   6.036 -0.0990 -0.1591  0.1522
    1CHOL    R311100  24.068   9.195   5.887 -0.0734 -0.0691  0.0861
    1CHOL    R411101  24.264   8.998   5.794 -0.0906 -0.0580  0.0490
    1CHOL    R511102  24.153   9.139   5.670 -0.0418  0.0036  0.0832
    1CHOL    C111103  24.040   8.810   5.513 -0.0618  0.0853 -0.0732
    1CHOL    C211104  24.387   8.750   5.253 -0.1398  0.2804 -0.1172
    1CHOL   ROH11105  20.081   0.583   4.582  0.1713  0.1697 -0.0081
    1CHOL    R111106  20.090   0.797   4.767  0.1019  0.1286  0.0442
    1CHOL    R211107  19.863   0.932   4.850  0.0678  0.1051 -0.0026
    1CHOL    R311108  19.955   0.867   5.098 -0.0153  0.0490  0.0133
    1CHOL    R411109  19.752   1.073   5.146 -0.0473  0.0172 -0.0039
    1CHOL    R511110  19.958   1.075   5.217 -0.0746  0.0163  0.0696
    1CHOL    C111111  19.774   1.094   5.550 -0.1924 -0.0867  0.0104
    1CHOL    C211112  19.700   0.973   5.847  0.2872 -0.1827  0.2562
    1CHOL   ROH11113   5.238   1.638   3.061  0.2426  0.0085  0.0105
    1CHOL    R111114   5.192   1.579   3.334  0.0790  0.0980  0.0034
    1CHOL    R211115   5.353   1.408   3.478 -0.1620 -0.0641  0.0859
    1CHOL    R311116   5.372   1.620   3.647  0.0153 -0.0593  0.0617
    1CHOL    R411117   5.477   1.393   3.801 -0.3213 -0.1691  0.1433
    1CHOL    R511118   5.318   1.529   3.863 -0.1902  0.0319  0.0523
    1CHOL    C111119   5.567   1.584   4.147 -0.2476 -0.2256  0.1539
    1CHOL    C211120   5.421   1.599   4.458 -0.0421 -0.2905  0.0763
    1CHOL   ROH11121  10.921  17.106   7.034 -0.0988  0.0973 -0.1072
    1CHOL    R111122  10.778  17.082   6.791 -0.1086 -0.0945 -0.0849
    1CHOL    R211123  10.777  17.281   6.599 -0.4543 -0.0642 -0.0612
    1CHOL    R311124  10.859  17.079   6.436 -0.1637  0.0800 -0.0991
    1CHOL    R411125  10.685  17.245   6.268 -0.2712 -0.0520 -0.1141
    1CHOL    R511126  10.667  17.030   6.302 -0.0521 -0.0837 -0.1988
    1CHOL    C111127  10.708  17.034   5.922  0.1082  0.0905 -0.1804
    1CHOL    C211128  10.374  16.927   5.776 -0.0971  0.0638  0.0128
    1CHOL   ROH11129   9.673   3.748   3.885 -0.0709  0.2583  0.0700
    1CHOL    R111130   9.739   3.793   4.157 -0.1622  0.2465  0.0949
    1CHOL    R211131   9.556   3.892   4.340 -0.3502 -0.1466  0.1365
    1CHOL    R311132   9.625   3.670   4.480  0.0252 -0.1025  0.0321
    1CHOL    R411133   9.582   3.877   4.684 -0.0556 -0.2080  0.1143
    1CHOL    R511134   9.760   3.753   4.660  0.0718  0.0077 -0.0561
    1CHOL    C111135   9.661   3.659   5.017  0.4684 -0.2023  0.0033
    1CHOL    C211136   9.429   3.915   5.163 -0.1997 -0.5763 -0.3456
    1CHOL   ROH11137  19.262   6.398   4.105  0.1115 -0.0490  0.1357
    1CHOL    R111138  19.377   6.569   4.298  0.2385  0.0817 -0.0518
    1CHOL    R211139  19.366   6.517   4.569  0.0067  0.4952  0.0298
    1CHOL    R311140  19.636   6.544   4.553  0.0596  0.0918  0.1327
    1CHOL    R411141  19.582   6.514   4.839 -0.1185  0.3802  0.1294
    1CHOL    R511142  19.695   6.674   4.745  0.1605  0.1497  0.0612
    1CHOL    C111143  19.961   6.537   4.981 -0.1414 -0.0655  0.2840
    1CHOL    C211144  20.243   6.752   5.109 -0.3478 -0.2845 -0.2092
    1CHOL   ROH11145   5.764   2.627   6.015  0.1258 -0.5260 -0.0625
    1CHOL    R111146   5.924   2.715   5.799  0.0845 -0.4769 -0.0720
    1CHOL    R211147   6.077   2.945   5.811 -0.2129 -0.2718 -0.1830
    1CHOL    R311148   6.277   2.776   5.739  0.0326 -0.0683  0.0009
    1CHOL    R411149   6.401   3.042   5.741 -0.3271  0.1155 -0.2020
    1CHOL    R511150   6.403   2.899   5.576 -0.1046 -0.0307 -0.0835
    1CHOL    C111151   6.778   2.940   5.633 -0.1631  0.5321 -0.0404
    1CHOL    C211152   7.046   3.054   5.384  0.1965  0.0329  0.3130
    1CHOL   ROH11153  25.945  14.274   6.208  0.1852  0.0091 -0.0944
    1CHOL    R111154  25.718  14.376   6.073  0.1985 -0.0147 -0.1351
    1CHOL    R211155  25.661  14.313   5.810  0.1239 -0.2113 -0.0748
    1CHOL    R311156  25.421  14.238   5.914  0.1149 -0.0340  0.0365
    1CHOL    R411157  25.380  14.243   5.623  0.1291 -0.5074  0.0223
    1CHOL    R511158  25.260  14.347   5.773  0.1263 -0.2548 -0.1513
    1CHOL    C111159  24.990  14.132   5.611  0.1237 -0.5134  0.1834
    1CHOL    C211160  24.671  13.938   5.381 -0.0954  0.1894 -0.2743
    1CHOL   ROH11161   3.038   5.493   2.209 -0.0957  0.0949  0.0764
    1CHOL    R111162   2.958   5.349   2.439 -0.1732 -0.0294 -0.0267
    1CHOL    R211163   2.895   5.081   2.433  0.1507 -0.1076 -0.1315
    1CHOL    R311164   3.081   5.065   2.630 -0.0363  0.0908  0.0659
    1CHOL    R411165   2.847   4.921   2.735  0.0135 -0.1848 -0.1929
    1CHOL    R511166   2.953   5.085   2.833 -0.2747 -0.0686 -0.0643
    1CHOL    C111167   2.994   4.813   3.097 -0.2418 -0.0435 -0.0433
    1CHOL    C211168   2.768   4.820   3.526 -0.1032  0.0896 -0.2081
    1CHOL   ROH11169   3.672   6.021   5.517 -0.2242  0.0631  0.0645
    1CHOL    R111170   3.841   6.099   5.303 -0.2184  0.0411  0.0601
    1CHOL    R211171   3.803   6.009   5.044 -0.2433  0.0538  0.0552
    1CHOL    R311172   3.802   6.274   4.987 -0.2030  0.0561  0.0679
    1CHOL    R411173   3.850   6.143   4.729  0.0247  0.0793  0.1041
    1CHOL    R511174   3.971   6.300   4.819 -0.0609  0.0761  0.2167
    1CHOL    C111175   3.876   6.470   4.491  0.2185  0.0964  0.1445
    1CHOL    C211176   4.063   6.316   4.193 -0.1496 -0.3188  0.0440
    1CHOL   ROH11177  12.407  20.119   6.756  0.1818  0.0574 -0.0442
    1CHOL    R111178  12.307  20.105   6.491  0.2106 -0.0074 -0.0526
    1CHOL    R211179  12.320  20.318   6.316  0.1246 -0.0099 -0.0683
    1CHOL    R311180  12.444  20.136   6.155  0.2266  0.0364 -0.0413
    1CHOL    R411181  12.338  20.339   5.971  0.0793 -0.0736 -0.0740
    1CHOL    R511182  12.303  20.124   5.961  0.2180 -0.0964 -0.0252
    1CHOL    C111183  12.464  20.182   5.620  0.1487 -0.0674 -0.0520
    1CHOL    C211184  12.394  20.455   5.307  0.0497 -0.3941  0.0633
    1CHOL   ROH11185   4.988   4.695   2.438 -0.1204 -0.1502 -0.1236
    1CHOL    R111186   4.978   4.670   2.720 -0.1073 -0.0672 -0.1156
    1CHOL    R211187   5.067   4.869   2.890 -0.0200 -0.0518 -0.1784
    1CHOL    R311188   4.818   4.846   2.996 -0.0206  0.0705 -0.1519
    1CHOL    R411189   4.996   4.867   3.228  0.0378 -0.2251 -0.1661
    1CHOL    R511190   4.848   4.710   3.191 -0.0910 -0.0868 -0.2482
    1CHOL    C111191   4.720   4.844   3.524  0.0709 -0.2112 -0.1341
    1CHOL    C211192   4.789   4.849   3.912  0.1731 -0.1093  0.1819
    1CHOL   ROH11193  25.976  26.294   3.808 -0.1339 -0.3059  0.1058
    1CHOL    R111194  25.830  26.461   3.984 -0.0308 -0.2156  0.1060
    1CHOL    R211195  25.635  26.636   3.897  0.1624 -0.0021  0.0916
    1CHOL    R311196  25.482  26.506   4.080 -0.0218  0.0909  0.0062
    1CHOL    R411197  25.324  26.741   4.004  0.1287  0.1451 -0.1428
    1CHOL    R511198  25.379  26.681   4.206 -0.0385  0.1536 -0.0937
    1CHOL    C111199  24.999  26.681   4.238 -0.0638  0.3180 -0.3595
    1CHOL    C211200  24.709  26.671   4.482  0.2062  0.0761 -0.2633
    1CHOL   ROH11201   9.085   1.391   6.429  0.1800  0.1360  0.0221
    1CHOL    R111202   9.138   1.350   6.154  0.0342  0.0547  0.0049
    1CHOL    R211203   8.937   1.305   5.969 -0.0766  0.1295  0.1015
    1CHOL    R311204   9.053   1.516   5.841 -0.0164  0.0441  0.0141
    1CHOL    R411205   8.859   1.410   5.649 -0.1397  0.1111  0.1108
    1CHOL    R511206   9.071   1.444   5.613 -0.1387 -0.0065  0.0226
    1CHOL    C111207   8.921   1.668   5.343 -0.1200  0.0202  0.0342
    1CHOL    C211208   8.799   1.862   5.069 -0.3675  0.0521  0.0079
    1CHOL   ROH11209  20.112  26.405   6.017  0.0630 -0.0883 -0.0124
    1CHOL    R111210  19.907  26.483   5.839  0.0200 -0.0721  0.0430
    1CHOL    R211211  19.939  26.479   5.564  0.0108  0.1068  0.0342
    1CHOL    R311212  19.714  26.326   5.573  0.0813 -0.0015 -0.0417
    1CHOL    R411213  19.765  26.367   5.287 -0.0690  0.3466 -0.0142
    1CHOL    R511214  19.579  26.409   5.393 -0.0366  0.1440  0.1155
    1CHOL    C111215  19.453  26.159   5.134 -0.0493  0.3847 -0.1137
    1CHOL    C211216  19.170  25.981   4.997  0.1430  0.1378 -0.0388
    1CHOL   ROH11217   0.986  21.707   3.163  0.1237 -0.0144  0.1700
    1CHOL    R111218   0.905  21.850   3.393  0.1666  0.1877  0.0624
    1CHOL    R211219   0.846  21.725   3.633 -0.2346  0.3509  0.0559
    1CHOL    R311220   1.031  21.897   3.732 -0.0266  0.0808  0.1503
    1CHOL    R411221   0.839  21.861   3.950 -0.0655  0.1845  0.1324
    1CHOL    R511222   0.904  22.050   3.865  0.1562  0.1578  0.2376
    1CHOL    C111223   1.009  22.102   4.228  0.2282 -0.1663  0.2655
    1CHOL    C211224   1.110  22.052   4.503  0.2058  0.0612  0.0469
    1CHOL   ROH11225  26.344  21.044   6.227 -0.0033 -0.0689 -0.0022
    1CHOL    R111226  26.406  21.034   5.951 -0.1640 -0.1909 -0.0359
    1CHOL    R211227  26.213  21.007   5.756 -0.3164  0.0882  0.0649
    1CHOL    R311228  26.330  21.230   5.654 -0.0212 -0.0947 -0.0084
    1CHOL    R411229  26.134  21.150   5.451 -0.4631  0.3568  0.2253
    1CHOL    R511230  26.347  21.187   5.419 -0.4276 -0.0425 -0.0515
    1CHOL    C111231  26.198  21.443   5.178 -0.2711  0.3414  0.2498
    1CHOL    C211232  26.224  21.336   4.748  0.0342 -0.2558 -0.0617
    1CHOL   ROH11233  17.606   9.144   6.866 -0.0772 -0.0286  0.0706
    1CHOL    R111234  17.375   9.253   6.743  0.0409  0.2161  0.0599
    1CHOL    R211235  17.387   9.467   6.568  0.3002  0.0834 -0.0940
    1CHOL    R311236  17.254   9.298   6.403  0.0128  0.1521  0.0618
    1CHOL    R411237  17.257   9.553   6.260  0.0612  0.1246  0.0171
    1CHOL    R511238  17.081   9.432   6.306  0.0154  0.2608  0.2074
    1CHOL    C111239  17.055   9.444   5.926 -0.3476  0.2131  0.2282
    1CHOL    C211240  16.857   9.296   5.626 -0.2040  0.0590  0.0932
    1CHOL   ROH11241  24.994   0.589   6.289 -0.0591 -0.1046 -0.0665
    1CHOL    R111242  25.176   0.596   6.072 -0.0186 -0.0240 -0.0304
    1CHOL    R211243  25.192   0.395   5.884  0.1385 -0.0396 -0.0050
    1CHOL    R311244  25.155   0.600   5.709  0.0523 -0.0808 -0.0349
    1CHOL    R411245  25.268   0.383   5.547  0.0101 -0.1025 -0.0318
    1CHOL    R511246  25.344   0.587   5.562 -0.0040 -0.0932 -0.1045
    1CHOL    C111247  25.277   0.569   5.186 -0.1458 -0.1779 -0.0756
    1CHOL    C211248  25.683   0.424   5.109  0.0648 -0.2871  0.2749
    1CHOL   ROH11249   6.404  26.764   6.207 -0.1035  0.0599 -0.0197
    1CHOL    R111250   6.332  26.593   5.993 -0.0795  0.0192  0.0043
    1CHOL    R211251   6.136  26.658   5.810 -0.0724 -0.0236 -0.0201
    1CHOL    R311252   6.333  26.609   5.630 -0.0570 -0.0415  0.0019
    1CHOL    R411253   6.091  26.643   5.468 -0.0347 -0.0219 -0.0250
    1CHOL    R511254   6.228  26.473   5.462 -0.0493 -0.0331 -0.0089
    1CHOL    C111255   6.250  26.587   5.099  0.0016 -0.0381 -0.0071
    1CHOL    C211256   6.279  26.447   4.742 -0.1262 -0.1098 -0.1508
    1CHOL   ROH11257  16.848  27.850   6.888 -0.1544 -0.0641  0.2205
    1CHOL    R111258  16.924  27.859   6.616 -0.0927 -0.1305  0.2351
    1CHOL    R211259  16.806  27.699   6.423 -0.2077 -0.0175  0.2093
    1CHOL    R311260  16.763  27.937   6.299  0.0404  0.0284  0.2055
    1CHOL    R411261  16.701  27.735   6.096 -0.0220  0.0945  0.1604
    1CHOL    R511262  16.839  27.902   6.075  0.1212 -0.0129  0.2399
    1CHOL    C111263  16.599  27.979   5.789  0.3190  0.2029  0.1283
    1CHOL    C211264  16.295   0.133   5.750  0.1517  0.2559 -0.2236
    1CHOL   ROH11265  11.435  15.334   6.739 -0.2399 -0.0630  0.0549
    1CHOL    R111266  11.490  15.118   6.565 -0.2336  0.0964 -0.1478
    1CHOL    R211267  11.387  14.865   6.605  0.1802 -0.0778 -0.0844
    1CHOL    R311268  11.299  14.895   6.350 -0.3063 -0.0591  0.0773
    1CHOL    R411269  11.308  14.605   6.392  0.3946 -0.0802 -0.1627
    1CHOL    R511270  11.403  14.715   6.230 -0.1075  0.2593 -0.2373
    1CHOL    C111271  11.178  14.481   6.029  0.0629 -0.0640 -0.0565
    1CHOL    C211272  11.230  14.365   5.771 -0.2248  0.1776 -0.1546
    1CHOL   ROH11273  16.146  13.348   4.343 -0.0606  0.0955  0.0245
    1CHOL    R111274  16.182  13.550   4.538 -0.0534  0.1335 -0.0143
    1CHOL    R211275  15.970  13.678   4.660 -0.0558  0.0570  0.0798
    1CHOL    R311276  16.094  13.598   4.888  0.0949  0.1275  0.0218
    1CHOL    R411277  15.953  13.845   4.962  0.0469  0.0658  0.0801
    1CHOL    R511278  16.165  13.803   4.991  0.0709  0.1537 -0.0285
    1CHOL    C111279  16.060  13.867   5.352  0.2484  0.1371  0.0257
    1CHOL    C211280  15.711  14.062   5.327 -0.0637  0.1801  0.0702
    1CHOL   ROH11281  23.462  15.682   3.911 -0.0726 -0.0057 -0.1178
    1CHOL    R111282  23.665  15.725   4.104 -0.1462 -0.0358 -0.0332
    1CHOL    R211283  23.610  15.764   4.371 -0.2444 -0.1603 -0.0336
    1CHOL    R311284  23.784  15.558   4.404 -0.2051 -0.1324 -0.0640
    1CHOL    R411285  23.763  15.681   4.670 -0.1531 -0.1239 -0.0693
    1CHOL    R511286  23.947  15.642   4.559 -0.1775 -0.1029 -0.1117
    1CHOL    C111287  24.015  15.439   4.875 -0.0632 -0.0766 -0.1185
    1CHOL    C211288  23.911  15.083   5.122 -0.3508 -0.2846  0.3229
    1CHOL   ROH11289  25.641   5.947   3.189 -0.4661 -0.2435  0.0013
    1CHOL    R111290  25.622   5.826   3.445 -0.0041 -0.3031  0.0157
    1CHOL    R211291  25.843   5.736   3.583  0.3163  0.1826 -0.1498
    1CHOL    R311292  25.745   5.895   3.780  0.0986 -0.0367 -0.0755
    1CHOL    R411293  25.980   5.765   3.899  0.2170  0.1568 -0.1040
    1CHOL    R511294  25.778   5.769   3.981  0.1968 -0.1143 -0.1416
    1CHOL    C111295  25.968   5.933   4.268 -0.0453 -0.0641 -0.0077
    1CHOL    C211296  26.217   5.771   4.415  0.1610 -0.0926  0.1618
    1CHOL   ROH11297   0.066  22.174   5.865  0.0057  0.1053 -0.1238
    1CHOL    R111298   0.290  22.179   5.692 -0.0590  0.1466 -0.2065
    1CHOL    R211299   0.267  22.220   5.419 -0.1659  0.1548 -0.1943
    1CHOL    R311300   0.445  22.421   5.467 -0.1763  0.1789 -0.2542
    1CHOL    R411301   0.468  22.367   5.180  0.0069 -0.0821 -0.1986
    1CHOL    R511302   0.631  22.370   5.325 -0.0864  0.0284 -0.0903
    1CHOL    C111303   0.752  22.641   5.085  0.0977 -0.1973 -0.2574
    1CHOL    C211304   0.897  23.054   5.175 -0.0359 -0.0454  0.2330
    1CHOL   ROH11305  27.611  19.382   3.153 -0.3546  0.2670 -0.1363
    1CHOL    R111306  27.556  19.351   3.428 -0.2283  0.3038 -0.1071
    1CHOL    R211307  27.377  19.512   3.563 -0.4063  0.1167 -0.1240
    1CHOL    R311308  27.264  19.275   3.633 -0.0666 -0.0114  0.0156
    1CHOL    R411309  27.142  19.473   3.813 -0.5418 -0.0178 -0.2695
    1CHOL    R511310  27.243  19.288   3.872 -0.2713  0.1970 -0.0063
    1CHOL    C111311  26.899  19.227   4.025 -0.3018 -0.2165 -0.2231
    1CHOL    C211312  26.579  19.266   4.212  0.0838 -0.1802 -0.2728
    1CHOL   ROH11313  15.237   4.943   4.349 -0.0961  0.1109 -0.0813
    1CHOL    R111314  15.209   4.771   4.572 -0.2118  0.0783 -0.1209
    1CHOL    R211315  15.426   4.664   4.705 -0.2833 -0.1417 -0.1799
    1CHOL    R311316  15.305   4.774   4.923 -0.1570 -0.0931 -0.1331
    1CHOL    R411317  15.451   4.541   5.027 -0.2224 -0.1641 -0.1927
    1CHOL    R511318  15.239   4.585   5.055 -0.1949 -0.0691 -0.1157
    1CHOL    C111319  15.353   4.572   5.419 -0.0685 -0.1314 -0.1563
    1CHOL    C211320  15.424   4.788   5.683 -0.0880  0.0048  0.1057
    1CHOL   ROH11321   7.958  17.609   6.995 -0.4187  0.0831  0.0838
    1CHOL    R111322   7.849  17.719   6.757 -0.1554  0.0541 -0.0531
    1CHOL    R211323   7.996  17.743   6.525  0.0031 -0.2901  0.0092
    1CHOL    R311324   7.788  17.604   6.417 -0.1132 -0.1071 -0.0092
    1CHOL    R411325   7.906  17.751   6.191 -0.0121 -0.1297  0.0155
    1CHOL    R511326   7.696  17.753   6.253 -0.0121  0.0134  0.0351
    1CHOL    C111327   7.658  17.624   5.896 -0.1303  0.1357  0.0019
    1CHOL    C211328   7.588  17.532   5.417 -0.1290  0.1504 -0.2398
    1CHOL   ROH11329  18.280  19.545   7.099  0.3214 -0.0640  0.0401
    1CHOL    R111330  18.227  19.475   6.830  0.2384  0.0077  0.0374
    1CHOL    R211331  18.371  19.281   6.696  0.1057 -0.0544 -0.0148
    1CHOL    R311332  18.124  19.176   6.649  0.0371  0.0940  0.0058
    1CHOL    R411333  18.297  19.054   6.446 -0.0474 -0.0240  0.0016
    1CHOL    R511334  18.111  19.161   6.410  0.0148  0.0896  0.0065
    1CHOL    C111335  18.023  18.823   6.256 -0.2007  0.1330  0.0305
    1CHOL    C211336  18.118  18.674   6.015  0.1180 -0.1299  0.0336
    1CHOL   ROH11337  10.006   2.397   3.685 -0.0389 -0.1770 -0.0349
    1CHOL    R111338   9.946   2.281   3.936  0.0207 -0.2763 -0.0669
    1CHOL    R211339  10.034   2.030   4.009  0.4046 -0.1292 -0.0215
    1CHOL    R311340  10.133   2.162   4.225  0.0699  0.0392  0.0366
    1CHOL    R411341  10.009   1.921   4.336  0.4145 -0.1929 -0.0411
    1CHOL    R511342   9.970   2.127   4.396  0.0290 -0.2497 -0.0504
    1CHOL    C111343  10.087   1.983   4.729  0.1061 -0.0718  0.0020
    1CHOL    C211344  10.039   1.667   5.063 -0.1581 -0.0924 -0.1140
    1CHOL   ROH11345  20.904  17.459   4.453 -0.2118  0.0312 -0.1043
    1CHOL    R111346  20.806  17.274   4.644 -0.2408  0.0540 -0.0953
    1CHOL    R211347  20.970  17.150   4.828 -0.2195 -0.1358 -0.2329
    1CHOL    R311348  20.791  17.251   5.007 -0.0243 -0.0370 -0.0916
    1CHOL    R411349  20.957  17.067   5.163 -0.0718 -0.2093 -0.2456
    1CHOL    R511350  20.739  17.066   5.150 -0.0809 -0.0301 -0.1061
    1CHOL    C111351  20.782  17.113   5.526  0.1976 -0.1592 -0.1205
    1CHOL    C211352  20.984  17.187   5.856 -0.3678 -0.3608 -0.2678
    1CHOL   ROH11353   4.854   5.091   5.522 -0.2044  0.1528  0.0669
    1CHOL    R111354   4.798   5.149   5.250 -0.1701  0.1197  0.0516
    1CHOL    R211355   4.942   5.334   5.105 -0.1805  0.1399  0.0580
    1CHOL    R311356   4.975   5.125   4.933 -0.1091  0.1290  0.0863
    1CHOL    R411357   4.946   5.359   4.760 -0.1500  0.0928  0.0557
    1CHOL    R511358   4.830   5.176   4.750 -0.0990  0.0655  0.0653
    1CHOL    C111359   4.978   5.178   4.399 -0.0652  0.0552  0.0809
    1CHOL    C211360   5.264   5.391   4.131  0.2147  0.1000  0.0433
    1CHOL   ROH11361  12.256   6.482   4.169  0.0844 -0.0337 -0.1501
    1CHOL    R111362  12.399   6.477   4.413  0.1081 -0.0575 -0.1651
    1CHOL    R211363  12.669   6.420   4.425  0.1324  0.0594 -0.2099
    1CHOL    R311364  12.680   6.657   4.559  0.0408  0.0155 -0.1229
    1CHOL    R411365  12.903   6.499   4.666  0.1503  0.0831 -0.2347
    1CHOL    R511366  12.745   6.595   4.781  0.1240 -0.0403 -0.1595
    1CHOL    C111367  13.050   6.767   4.933  0.0748  0.0558 -0.1675
    1CHOL    C211368  13.239   6.839   5.201  0.0914  0.3567 -0.0213
    1CHOL   ROH11369  16.028  27.350   4.621 -0.1929  0.1812  0.3669
    1CHOL    R111370  16.274  27.267   4.734 -0.2581 -0.0248  0.3604
    1CHOL    R211371  16.504  27.418   4.718 -0.0200 -0.4045 -0.0187
    1CHOL    R311372  16.503  27.390   4.989  0.0801  0.0345  0.0359
    1CHOL    R411373  16.787  27.405   4.917  0.0648 -0.3319 -0.1334
    1CHOL    R511374  16.691  27.249   5.034 -0.0227 -0.0628  0.1707
    1CHOL    C111375  16.950  27.371   5.286  0.2081  0.1228 -0.1489
    1CHOL    C211376  17.434  27.383   5.457 -0.0318 -0.0648 -0.1289
    1CHOL   ROH11377   3.975  23.660   3.503 -0.1724 -0.3037  0.2180
    1CHOL    R111378   4.027  23.714   3.776  0.1382 -0.2693  0.1564
    1CHOL    R211379   4.281  23.765   3.873  0.2067  0.1458 -0.2074
    1CHOL    R311380   4.164  23.990   3.970 -0.0427 -0.0669 -0.0003
    1CHOL    R411381   4.409  23.961   4.127  0.0192  0.0960 -0.0725
    1CHOL    R511382   4.207  23.984   4.205  0.0066 -0.2049 -0.0137
    1CHOL    C111383   4.373  24.287   4.365 -0.3242 -0.1324  0.2006
    1CHOL    C211384   4.352  24.230   4.703 -0.2764  0.0317 -0.1372
    1CHOL   ROH11385  12.632   9.737   7.155 -0.1120  0.1824  0.0340
    1CHOL    R111386  12.759   9.581   6.955  0.1082  0.3453  0.0439
    1CHOL    R211387  12.618   9.438   6.765  0.2995  0.0141  0.1450
    1CHOL    R311388  12.773   9.578   6.591 -0.0172  0.2470  0.0390
    1CHOL    R411389  12.629   9.385   6.424  0.2718 -0.0843  0.1586
    1CHOL    R511390  12.845   9.415   6.432  0.2281  0.3187  0.0712
    1CHOL    C111391  12.782   9.485   6.062 -0.0416  0.0770  0.0669
    1CHOL    C211392  12.980   9.650   5.788  0.0240  0.2812  0.1580
    1CHOL   ROH11393   3.826  26.963   3.650 -0.1777 -0.1470  0.0408
    1CHOL    R111394   4.049  26.982   3.823 -0.1663 -0.0685  0.0187
    1CHOL    R211395   4.077  27.184   4.009 -0.2005 -0.0361 -0.0076
    1CHOL    R311396   4.106  26.977   4.182 -0.1347 -0.0087  0.0136
    1CHOL    R411397   4.182  27.215   4.336 -0.1663  0.0195 -0.0240
    1CHOL    R511398   4.301  27.034   4.310 -0.1330  0.0443 -0.0166
    1CHOL    C111399   4.271  27.039   4.690 -0.0847  0.0778 -0.0135
    1CHOL    C211400   4.366  26.950   5.097 -0.0417 -0.0533 -0.1544
    1CHOL   ROH11401  17.183  19.521   4.066  0.0755 -0.0293 -0.0376
    1CHOL    R111402  17.273  19.489   4.333  0.1850 -0.0528 -0.0772
    1CHOL    R211403  17.402  19.690   4.472 -0.0302  0.0410 -0.0109
    1CHOL    R311404  17.207  19.644   4.655  0.0707 -0.2973  0.0202
    1CHOL    R411405  17.363  19.866   4.766 -0.2199 -0.0986  0.0497
    1CHOL    R511406  17.314  19.678   4.866  0.0714 -0.2044  0.0064
    1CHOL    C111407  17.157  19.926   5.110 -0.2356 -0.4976  0.1141
    1CHOL    C211408  17.052  20.259   5.251 -0.1607 -0.1117 -0.1578
    1CHOL   ROH11409   8.206  19.734   4.075 -0.4353 -0.2776  0.0540
    1CHOL    R111410   8.162  19.826   4.339 -0.3115 -0.1350  0.0267
    1CHOL    R211411   8.049  19.668   4.535 -0.1709 -0.0482  0.1812
    1CHOL    R311412   8.273  19.735   4.673 -0.1089  0.0816  0.0204
    1CHOL    R411413   8.054  19.766   4.866 -0.0039  0.0978  0.1370
    1CHOL    R511414   8.203  19.917   4.814 -0.0803  0.1212 -0.0171
    1CHOL    C111415   8.267  19.887   5.189  0.1516  0.3046 -0.0396
    1CHOL    C211416   8.177  20.096   5.468  0.0826  0.1092  0.0904
    1CHOL   ROH11417   1.854  26.013   5.683 -0.1062 -0.1786 -0.2275
    1CHOL    R111418   1.979  25.809   5.531 -0.0692 -0.1703 -0.2075
    1CHOL    R211419   2.138  25.864   5.311  0.0222 -0.1561 -0.1367
    1CHOL    R311420   2.320  25.714   5.446 -0.0459 -0.1968 -0.0880
    1CHOL    R411421   2.436  25.750   5.179  0.1791  0.0463  0.0339
    1CHOL    R511422   2.404  25.561   5.282  0.1491 -0.0460 -0.1362
    1CHOL    C111423   2.781  25.543   5.228  0.2065  0.1258  0.1789
    1CHOL    C211424   3.185  25.590   5.091 -0.0680 -0.0386 -0.1644
    1CHOL   ROH11425  10.457  25.295   6.283 -0.0187  0.2502  0.0529
    1CHOL    R111426  10.483  25.425   6.033  0.1626  0.1251  0.0047
    1CHOL    R211427  10.679  25.357   5.850  0.0573 -0.2318  0.0166
    1CHOL    R311428  10.466  25.330   5.682  0.0029  0.0228  0.0392
    1CHOL    R411429  10.677  25.451   5.517  0.1238 -0.2063  0.0230
    1CHOL    R511430  10.474  25.526   5.545  0.2110  0.0258  0.0518
    1CHOL    C111431  10.476  25.479   5.166  0.1115  0.0475  0.0479
    1CHOL    C211432  10.722  25.652   4.852  0.0722 -0.0846 -0.1182
    1CHOL   ROH11433  12.223  27.581   6.071 -0.1498  0.0084 -0.0822
    1CHOL    R111434  12.435  27.418   5.977  0.0332  0.2244 -0.0474
    1CHOL    R211435  12.392  27.183   5.838  0.2892  0.0238  0.2143
    1CHOL    R311436  12.555  27.300   5.654  0.0120  0.0781 -0.0045
    1CHOL    R411437  12.550  27.016   5.580  0.1572  0.0295  0.1274
    1CHOL    R511438  12.727  27.139   5.616  0.1054  0.1915 -0.1040
    1CHOL    C111439  12.795  27.028   5.257 -0.1798  0.0836 -0.1288
    1CHOL    C211440  12.747  26.938   4.911 -0.3388 -0.0885  0.2936
    1CHOL   ROH11441   3.119   7.323   4.396  0.0635  0.0533 -0.0204
    1CHOL    R111442   3.344   7.170   4.319  0.0750  0.0823 -0.0444
    1CHOL    R211443   3.368   6.901   4.377  0.1769  0.1153  0.0715
    1CHOL    R311444   3.407   6.880   4.108  0.0687  0.0018  0.0640
    1CHOL    R411445   3.605   6.699   4.226  0.1754  0.1187  0.0647
    1CHOL    R511446   3.644   6.859   4.084  0.0650  0.0646 -0.0276
    1CHOL    C111447   3.779   6.561   3.887  0.0731  0.0142  0.0537
    1CHOL    C211448   3.893   6.375   3.557  0.0586  0.1433  0.2213
    1CHOL   ROH11449  27.430  28.062   6.229  0.0781  0.1611 -0.2291
    1CHOL    R111450  27.354  28.041   5.957 -0.0354  0.1034 -0.1938
    1CHOL    R211451  27.388   0.119   5.776 -0.0014  0.0245 -0.2802
    1CHOL    R311452  27.520  28.056   5.634 -0.1487 -0.0918 -0.2628
    1CHOL    R411453  27.448   0.133   5.436 -0.0050 -0.0638 -0.2844
    1CHOL    R511454  27.404  28.048   5.425 -0.1637 -0.0322 -0.2558
    1CHOL    C111455  27.606  28.091   5.104 -0.1452 -0.2244 -0.2705
    1CHOL    C211456  27.628  28.074   4.694 -0.1093 -0.1455 -0.0032
    1CHOL   ROH11457  26.784   3.089   3.399 -0.0954  0.0186  0.0867
    1CHOL    R111458  26.965   3.252   3.543 -0.1082  0.1035  0.0082
    1CHOL    R211459  26.883   3.426   3.742 -0.1053  0.0768  0.0378
    1CHOL    R311460  27.067   3.292   3.890  0.0123  0.1586 -0.0341
    1CHOL    R411461  26.995   3.524   4.054  0.0974  0.2070 -0.0741
    1CHOL    R511462  27.196   3.465   3.995  0.0628  0.2116 -0.1864
    1CHOL    C111463  27.233   3.456   4.374  0.3259  0.3596 -0.2067
    1CHOL    C211464  27.159   3.580   4.748 -0.2367  0.1027 -0.2760
    1CHOL   ROH11465   9.151  20.528   4.235  0.1077 -0.2947  0.0318
    1CHOL    R111466   9.247  20.592   4.493  0.0773 -0.2042  0.0212
    1CHOL    R211467   9.090  20.718   4.683  0.0829 -0.0539 -0.0709
    1CHOL    R311468   9.161  20.504   4.836 -0.0267 -0.0071  0.0467
    1CHOL    R411469   9.203  20.737   5.009  0.0682  0.0638 -0.0725
    1CHOL    R511470   9.348  20.582   4.963 -0.0003 -0.0279  0.0194
    1CHOL    C111471   9.334  20.549   5.343 -0.0433  0.1762  0.0369
    1CHOL    C211472   9.469  20.388   5.747 -0.1658  0.4610  0.0631
    1CHOL   ROH11473  27.912  16.145   3.341  0.0490 -0.0619 -0.1240
    1CHOL    R111474  28.064  16.045   3.559  0.0473 -0.0029 -0.0952
    1CHOL    R211475  27.991  16.087   3.822  0.0597  0.0923 -0.1050
    1CHOL    R311476  28.009  15.816   3.836  0.0344  0.0952 -0.0167
    1CHOL    R411477  28.016  15.905   4.115 -0.2163  0.1656 -0.0330
    1CHOL    R511478   0.033  15.775   4.016 -0.1322  0.1331  0.1336
    1CHOL    C111479  28.048  15.545   4.299 -0.4006  0.2110  0.0919
    1CHOL    C211480   0.114  15.316   4.636 -0.1184 -0.1296 -0.1176
    1CHOL   ROH11481   7.519  17.726   4.223  0.0985  0.0443  0.0465
    1CHOL    R111482   7.692  17.744   4.446 -0.0057 -0.0205  0.1336
    1CHOL    R211483   7.730  17.980   4.585  0.0801 -0.0129  0.0994
    1CHOL    R311484   7.659  17.828   4.799 -0.1362  0.0833  0.0977
    1CHOL    R411485   7.736  18.087   4.914  0.1919 -0.0090  0.0960
    1CHOL    R511486   7.814  17.891   4.971 -0.0660 -0.1115  0.1083
    1CHOL    C111487   7.673  18.007   5.306  0.0540  0.0835  0.0924
    1CHOL    C211488   7.675  18.077   5.703  0.3503 -0.1058 -0.1222
    1CHOL   ROH11489   1.186  21.380   5.854  0.1739  0.0318 -0.1077
    1CHOL    R111490   1.049  21.292   5.622  0.1943  0.0222 -0.1167
    1CHOL    R211491   0.818  21.414   5.530  0.0362 -0.1618  0.0226
    1CHOL    R311492   0.960  21.434   5.299 -0.0493  0.1185 -0.0089
    1CHOL    R411493   0.693  21.347   5.215  0.0480 -0.2250  0.0316
    1CHOL    R511494   0.882  21.251   5.166  0.1713  0.0556 -0.0531
    1CHOL    C111495   0.752  21.326   4.815 -0.0254  0.0016  0.0074
    1CHOL    C211496   0.485  21.498   4.666 -0.1264  0.0107  0.1329
    1CHOL   ROH11497  28.014   3.265   3.423 -0.0797  0.3146 -0.1144
    1CHOL    R111498   0.155   3.179   3.392 -0.0280  0.4509 -0.0450
    1CHOL    R211499   0.361   3.276   3.549 -0.1928  0.2259  0.3135
    1CHOL    R311500   0.404   3.012   3.598 -0.1531  0.1408 -0.1354
    1CHOL    R411501   0.665   3.139   3.638 -0.2711  0.2293  0.5963
    1CHOL    R511502   0.622   2.970   3.508  0.0480  0.4503  0.1624
    1CHOL    C111503   0.883   2.811   3.736 -0.2795  0.1514  0.3395
    1CHOL    C211504   1.094   2.532   3.898 -0.0149  0.4494 -0.0818
    1CHOL   ROH11505  16.746  14.070   6.869 -0.0772  0.1858 -0.0068
    1CHOL    R111506  16.850  14.017   6.611  0.0100  0.0876  0.0472
    1CHOL    R211507  16.745  14.131   6.382 -0.0433 -0.1520 -0.0543
    1CHOL    R311508  17.003  14.208   6.342 -0.0966  0.0252 -0.0582
    1CHOL    R411509  16.888  14.187   6.072 -0.0280 -0.2510 -0.0650
    1CHOL    R511510  17.070  14.090   6.144  0.0353 -0.0570  0.0361
    1CHOL    C111511  17.213  14.292   5.854 -0.0694 -0.1422 -0.0749
    1CHOL    C211512  17.292  14.142   5.578 -0.2741 -0.2084 -0.2107
    1CHOL   ROH11513  12.663   9.357   5.632  0.2125 -0.1136 -0.2051
    1CHOL    R111514  12.479   9.553   5.544  0.0111 -0.2485 -0.0942
    1CHOL    R211515  12.556   9.811   5.479 -0.2648 -0.0983  0.1472
    1CHOL    R311516  12.431   9.754   5.244 -0.1253 -0.0486  0.0598
    1CHOL    R411517  12.402  10.043   5.275 -0.3196 -0.0829  0.2061
    1CHOL    R511518  12.242   9.900   5.240 -0.2151 -0.1648  0.0565
    1CHOL    C111519  12.194  10.125   4.936 -0.2204 -0.0275  0.1584
    1CHOL    C211520  12.018  10.324   4.918  0.2777 -0.0602 -0.0225
    1CHOL   ROH11521  25.410   1.499   6.184  0.1456 -0.1029  0.1547
    1CHOL    R111522  25.440   1.519   5.904  0.1128 -0.0555  0.1550
    1CHOL    R211523  25.635   1.674   5.785  0.1398 -0.0926  0.1617
    1CHOL    R311524  25.698   1.442   5.659  0.0551 -0.0830  0.0999
    1CHOL    R411525  25.699   1.645   5.447  0.2692  0.0149  0.1758
    1CHOL    R511526  25.587   1.457   5.447  0.1514  0.0750  0.0536
    1CHOL    C111527  25.795   1.409   5.131  0.2654  0.0864  0.1259
    1CHOL    C211528  25.903   1.343   4.911  0.1015 -0.1743  0.0243
    1CHOL   ROH11529   0.927  15.226   5.600  0.2762  0.1243 -0.0376
    1CHOL    R111530   0.752  15.218   5.377  0.0323  0.1156  0.1496
    1CHOL    R211531   0.532  15.383   5.356  0.1627  0.3146  0.2552
    1CHOL    R311532   0.645  15.449   5.117 -0.0148  0.0181  0.0836
    1CHOL    R411533   0.383  15.583   5.115  0.1715  0.3835  0.3072
    1CHOL    R511534   0.462  15.448   4.963 -0.1926  0.1842  0.2924
    1CHOL    C111535   0.403  15.761   4.752  0.0100  0.1453  0.1765
    1CHOL    C211536   0.289  15.938   4.412 -0.0880  0.0841 -0.4080
    1CHOL   ROH11537   7.424  25.273   6.285 -0.1009  0.0089  0.0584
    1CHOL    R111538   7.371  25.215   6.013 -0.0159 -0.0117  0.0459
    1CHOL    R211539   7.556  25.258   5.813  0.0722 -0.0985  0.1115
    1CHOL    R311540   7.509  24.996   5.758  0.0111 -0.0906  0.1257
    1CHOL    R411541   7.553  25.120   5.496 -0.2597 -0.0442  0.0877
    1CHOL    R511542   7.382  25.000   5.555 -0.2052 -0.0533  0.2545
    1CHOL    C111543   7.508  24.795   5.259 -0.5104 -0.0050  0.0871
    1CHOL    C211544   7.878  24.680   4.970 -0.0917  0.0974 -0.2060
    1CHOL   ROH11545   4.989   2.987   5.960  0.0733 -0.0368  0.0829
    1CHOL    R111546   4.978   3.039   5.682  0.0025 -0.0250  0.0875
    1CHOL    R211547   5.199   3.117   5.536 -0.0151 -0.1066  0.0169
    1CHOL    R311548   5.132   2.904   5.381 -0.1475 -0.0762  0.0321
    1CHOL    R411549   5.257   3.093   5.196 -0.2284 -0.0687 -0.0227
    1CHOL    R511550   5.061   3.001   5.174 -0.2607 -0.0343  0.0877
    1CHOL    C111551   5.227   2.880   4.853 -0.4770 -0.0180 -0.0316
    1CHOL    C211552   5.211   2.963   4.524 -0.3756 -0.0573  0.0175
    1CHOL   ROH11553   1.138  19.624   5.981 -0.1064  0.1401  0.0702
    1CHOL    R111554   1.089  19.669   5.706 -0.2060  0.1892  0.0962
    1CHOL    R211555   0.964  19.897   5.612  0.2252  0.4509  0.1440
    1CHOL    R311556   1.186  19.915   5.456  0.1650 -0.0698 -0.0253
    1CHOL    R411557   0.964  19.982   5.277  0.1599  0.4479  0.1425
    1CHOL    R511558   1.117  19.830   5.243 -0.2057  0.0787  0.0239
    1CHOL    C111559   1.172  20.049   4.936  0.0654 -0.0426 -0.0172
    1CHOL    C211560   1.453  20.294   4.711 -0.3696 -0.3092  0.2080
    1CHOL   ROH11561  25.922  18.206   6.320  0.0600  0.0239  0.0672
    1CHOL    R111562  25.927  18.018   6.109 -0.1045 -0.0293  0.1081
    1CHOL    R211563  25.815  18.068   5.861 -0.0897  0.0023  0.1027
    1CHOL    R311564  26.063  18.002   5.772 -0.1456 -0.2066  0.1005
    1CHOL    R411565  25.896  18.002   5.532 -0.0933  0.1659  0.0687
    1CHOL    R511566  26.023  17.840   5.601 -0.2893 -0.0292 -0.0327
    1CHOL    C111567  26.176  17.901   5.256 -0.1480  0.0653  0.0467
    1CHOL    C211568  26.055  17.771   5.019 -0.5210 -0.1033  0.1140
    1CHOL   ROH11569   1.893   3.100   5.719  0.2580  0.0083 -0.1134
    1CHOL    R111570   1.787   3.218   5.484  0.0595  0.1227  0.0305
    1CHOL    R211571   1.721   3.070   5.260  0.2590  0.2765 -0.1326
    1CHOL    R311572   1.480   3.191   5.291  0.0757 -0.1137  0.0341
    1CHOL    R411573   1.493   3.124   5.006  0.1988  0.3150 -0.0706
    1CHOL    R511574   1.452   3.320   5.091 -0.0939  0.1408  0.2150
    1CHOL    C111575   1.134   3.269   4.887 -0.0082 -0.0288  0.1220
    1CHOL    C211576   1.119   3.211   4.672  0.3142 -0.1850  0.0213
    1CHOL   ROH11577  25.693   4.113   6.338  0.1773 -0.1357 -0.0328
    1CHOL    R111578  25.664   3.963   6.100  0.2548  0.2072 -0.2639
    1CHOL    R211579  25.817   4.010   5.875  0.8232  0.0954  0.0840
    1CHOL    R311580  25.873   3.745   5.897  0.1144 -0.0942 -0.0942
    1CHOL    R411581  25.927   3.809   5.616  0.8377  0.1211  0.0686
    1CHOL    R511582  25.798   3.651   5.691  0.2738  0.3380 -0.3675
    1CHOL    C111583  26.045   3.443   5.487  0.1810 -0.0420 -0.1077
    1CHOL    C211584  25.883   3.172   5.235  0.2703 -0.3457 -0.3618
    1CHOL   ROH11585   3.293  15.004   6.117 -0.0716  0.3570  0.0820
    1CHOL    R111586   3.406  15.106   5.878 -0.1330  0.2357  0.0003
    1CHOL    R211587   3.666  15.200   5.866 -0.1458  0.2509 -0.1078
    1CHOL    R311588   3.686  15.021   5.661 -0.1735  0.1412 -0.0164
    1CHOL    R411589   3.847  15.250   5.575 -0.0363  0.0260 -0.0820
    1CHOL    R511590   3.685  15.156   5.464 -0.0521  0.0494 -0.0832
    1CHOL    C111591   3.970  15.112   5.214  0.0013 -0.2079  0.0189
    1CHOL    C211592   4.057  14.896   4.862  0.1174  0.2259 -0.2959
    1CHOL   ROH11593  24.919   0.636   3.723  0.0123  0.1122 -0.1119
    1CHOL    R111594  25.090   0.604   3.946 -0.0499  0.1671 -0.0560
    1CHOL    R211595  25.298   0.422   3.949 -0.1423  0.0621  0.1028
    1CHOL    R311596  25.446   0.642   4.013 -0.0440  0.0294 -0.0074
    1CHOL    R411597  25.616   0.415   4.085 -0.0361 -0.0083 -0.1436
    1CHOL    R511598  25.560   0.581   4.214  0.0999  0.0018 -0.0961
    1CHOL    C111599  25.940   0.616   4.224  0.1177 -0.0801 -0.3904
    1CHOL    C211600  26.098   0.583   3.958 -0.1981  0.0485 -0.0115
    1CHOL   ROH11601   0.588   0.972   6.234  0.0329 -0.1173  0.2146
    1CHOL    R111602   0.470   0.992   5.978 -0.0424 -0.1230  0.2492
    1CHOL    R211603   0.610   0.942   5.745 -0.0540  0.0755  0.2013
    1CHOL    R311604   0.406   0.769   5.698  0.0765 -0.0762  0.1830
    1CHOL    R411605   0.555   0.780   5.445  0.0368  0.1183  0.1607
    1CHOL    R511606   0.341   0.815   5.472  0.0084 -0.0601  0.2030
    1CHOL    C111607   0.332   0.523   5.225  0.2123  0.0009  0.1198
    1CHOL    C211608   0.344   0.265   4.930 -0.2198 -0.2476  0.1141
    1CHOL   ROH11609   8.468  17.665   7.012 -0.1379  0.0904  0.0485
    1CHOL    R111610   8.367  17.654   6.748 -0.0537 -0.0125  0.0201
    1CHOL    R211611   8.419  17.850   6.561 -0.1298 -0.0023  0.0096
    1CHOL    R311612   8.506  17.640   6.412  0.0546  0.0350  0.0628
    1CHOL    R411613   8.522  17.870   6.231 -0.1153  0.0073  0.0145
    1CHOL    R511614   8.419  17.682   6.193  0.0408 -0.0842  0.0457
    1CHOL    C111615   8.664  17.684   5.900  0.0663  0.0481  0.0672
    1CHOL    C211616   8.603  17.649   5.474  0.2105  0.0920 -0.2244
    1CHOL   ROH11617  26.405   6.985   3.046  0.0360 -0.0712 -0.0136
    1CHOL    R111618  26.491   7.023   3.314 -0.0500 -0.2049  0.0348
    1CHOL    R211619  26.564   7.270   3.413  0.1927 -0.2973  0.1032
    1CHOL    R311620  26.378   7.213   3.603  0.0274 -0.1074 -0.0002
    1CHOL    R411621  26.597   7.342   3.749  0.0472 -0.2795  0.1132
    1CHOL    R511622  26.506   7.149   3.794 -0.1479 -0.1917  0.0876
    1CHOL    C111623  26.441   7.331   4.123 -0.1925 -0.0909  0.0219
    1CHOL    C211624  26.592   7.569   4.457  0.2675 -0.1404 -0.0720
    1CHOL   ROH11625   7.623  27.386   3.151  0.0219  0.0544  0.0720
    1CHOL    R111626   7.535  27.632   3.261  0.0611  0.0841  0.0367
    1CHOL    R211627   7.281  27.666   3.366  0.0390  0.1625 -0.0419
    1CHOL    R311628   7.419  27.750   3.584 -0.0029  0.1295 -0.0025
    1CHOL    R411629   7.140  27.822   3.640 -0.0160  0.1037 -0.0362
    1CHOL    R511630   7.312  27.956   3.646 -0.0245  0.1122  0.0179
    1CHOL    C111631   7.187  27.993   4.005 -0.0871  0.0386  0.0042
    1CHOL    C211632   7.080  28.029   4.287 -0.0220 -0.1078 -0.1026
    1CHOL   ROH11633  26.016  20.254   6.380  0.2329  0.0056 -0.0105
    1CHOL    R111634  25.956  20.108   6.145  0.1490  0.0968 -0.0474
    1CHOL    R211635  26.007  20.206   5.892  0.2343  0.1188 -0.0251
    1CHOL    R311636  26.143  19.972   5.864  0.0779  0.0314 -0.0625
    1CHOL    R411637  26.144  20.092   5.596  0.3332  0.1710  0.0007
    1CHOL    R511638  26.077  19.891   5.648  0.1509  0.1930 -0.1457
    1CHOL    C111639  26.352  19.806   5.397  0.2436  0.1195 -0.0193
    1CHOL    C211640  26.502  19.791   5.089 -0.0623  0.2495  0.0229
    1CHOL   ROH11641  22.438  13.227   6.506 -0.0911  0.0032 -0.0409
    1CHOL    R111642  22.391  13.089   6.264 -0.0191 -0.0126 -0.0462
    1CHOL    R211643  22.165  13.132   6.110  0.0390 -0.0021 -0.1306
    1CHOL    R311644  22.348  13.178   5.913  0.1144 -0.0372 -0.0689
    1CHOL    R411645  22.094  13.141   5.772  0.1646 -0.0269 -0.1582
    1CHOL    R511646  22.280  13.033   5.734  0.1677 -0.0468 -0.0804
    1CHOL    C111647  22.223  13.188   5.390  0.3086 -0.0741 -0.1165
    1CHOL    C211648  22.256  13.510   5.147  0.0348  0.1246 -0.1997
    1CHOL   ROH11649   5.726  12.728   6.323 -0.2854 -0.0113 -0.0457
    1CHOL    R111650   5.684  12.885   6.091 -0.2129  0.0764 -0.0004
    1CHOL    R211651   5.642  12.774   5.842 -0.0457  0.1703 -0.0740
    1CHOL    R311652   5.419  12.929   5.846 -0.0981  0.0961 -0.1215
    1CHOL    R411653   5.418  12.802   5.581 -0.0089  0.0873 -0.1147
    1CHOL    R511654   5.404  13.016   5.623 -0.0878  0.0828 -0.1260
    1CHOL    C111655   5.078  12.964   5.432 -0.0367 -0.0305 -0.1830
    1CHOL    C211656   4.756  13.051   5.409  0.4193  0.0057 -0.0686
    1CHOL   ROH11657   0.325   5.643   2.896  0.3226 -0.0834  0.0105
    1CHOL    R111658   0.173   5.650   3.134  0.1843  0.0406 -0.0790
    1CHOL    R211659   0.177   5.445   3.320 -0.0790  0.0429 -0.0631
    1CHOL    R311660   0.242   5.645   3.492 -0.0295  0.0047 -0.0377
    1CHOL    R411661   0.085   5.457   3.652 -0.0456  0.0115 -0.0529
    1CHOL    R511662   0.048   5.671   3.629 -0.0101  0.0190 -0.0164
    1CHOL    C111663   0.092   5.653   4.008  0.0204 -0.0426 -0.0232
    1CHOL    C211664   0.083   5.445   4.431  0.0301 -0.2463 -0.1070
    1CHOL   ROH11665  12.898  24.742   5.971 -0.1117  0.0549  0.0538
    1CHOL    R111666  12.954  24.779   5.696  0.0300 -0.0812  0.0639
    1CHOL    R211667  12.865  24.604   5.501 -0.0158 -0.0823  0.0903
    1CHOL    R311668  12.762  24.831   5.392  0.1950 -0.0441 -0.0364
    1CHOL    R411669  12.707  24.621   5.194  0.0935 -0.0915  0.0327
    1CHOL    R511670  12.809  24.810   5.158  0.2556 -0.1818 -0.0159
    1CHOL    C111671  12.519  24.843   4.912  0.3552 -0.0612 -0.1198
    1CHOL    C211672  12.404  24.761   4.575  0.0433 -0.3059 -0.0706
    1CHOL   ROH11673   0.131   2.009   3.166 -0.0734 -0.1535  0.1434
    1CHOL    R111674   0.301   2.054   3.387 -0.2029 -0.0093  0.2154
    1CHOL    R211675   0.208   2.070   3.646 -0.2990 -0.3365  0.2027
    1CHOL    R311676   0.394   1.876   3.691  0.0208 -0.0579  0.1215
    1CHOL    R411677   0.332   1.983   3.958 -0.2439 -0.3373  0.1809
    1CHOL    R511678   0.530   1.965   3.868 -0.1779  0.0588  0.2214
    1CHOL    C111679   0.578   1.752   4.180  0.0883 -0.0763  0.0920
    1CHOL    C211680   0.823   1.673   4.454 -0.1492 -0.0946 -0.1305
    1CHOL   ROH11681   0.034  20.929   3.054  0.2179  0.1262 -0.0822
    1CHOL    R111682   0.201  20.995   3.273 -0.0427  0.1459  0.1165
    1CHOL    R211683   0.102  21.051   3.525 -0.3216 -0.2830  0.1174
    1CHOL    R311684   0.275  20.855   3.600 -0.0768 -0.1086  0.0151
    1CHOL    R411685   0.204  20.990   3.850 -0.1137 -0.2454  0.0600
    1CHOL    R511686   0.405  20.954   3.775 -0.1111 -0.0113 -0.0235
    1CHOL    C111687   0.427  20.771   4.109  0.2373 -0.0597 -0.0695
    1CHOL    C211688   0.247  20.728   4.465  0.0200 -0.3512  0.1477
    1CHOL   ROH11689  22.966  15.307   6.486  0.0034  0.0539 -0.0282
    1CHOL    R111690  23.016  15.201   6.228 -0.1588  0.0720 -0.0683
    1CHOL    R211691  22.878  15.284   6.004 -0.0752  0.3285 -0.0302
    1CHOL    R311692  23.128  15.330   5.906 -0.0203  0.0362 -0.0345
    1CHOL    R411693  22.950  15.363   5.675  0.0258  0.1863 -0.0433
    1CHOL    R511694  23.125  15.233   5.687 -0.1180 -0.0025 -0.0142
    1CHOL    C111695  23.226  15.452   5.392  0.1363 -0.1708 -0.0549
    1CHOL    C211696  23.085  15.657   5.146 -0.0646  0.1752 -0.2156
    1CHOL   ROH11697  27.775  16.609   4.514  0.0640  0.1602 -0.0347
    1CHOL    R111698  28.041  16.687   4.568  0.0815  0.1780 -0.1452
    1CHOL    R211699   0.024  16.920   4.467 -0.0808  0.3520  0.0703
    1CHOL    R311700   0.079  16.969   4.728  0.1127  0.0252  0.0973
    1CHOL    R411701   0.319  17.055   4.584  0.0536  0.0955  0.0350
    1CHOL    R511702   0.311  16.915   4.752  0.1094 -0.0988 -0.1187
    1CHOL    C111703   0.543  17.180   4.899  0.3135 -0.3606  0.0399
    1CHOL    C211704   0.735  17.468   4.906 -0.0009 -0.1458 -0.1121
    1CHOL   ROH11705  11.896   8.735   4.029 -0.0338  0.0565 -0.0346
    1CHOL    R111706  11.818   8.908   4.239 -0.1119 -0.0096 -0.0092
    1CHOL    R211707  11.619   8.843   4.419 -0.0398 -0.1544  0.0197
    1CHOL    R311708  11.812   8.895   4.603 -0.0422 -0.0409 -0.0090
    1CHOL    R411709  11.566   8.862   4.760  0.0316 -0.3457  0.0433
    1CHOL    R511710  11.702   9.032   4.766 -0.1334 -0.2142  0.0769
    1CHOL    C111711  11.717   8.923   5.131  0.0708 -0.3505  0.0301
    1CHOL    C211712  11.415   8.832   5.216 -0.0736 -0.0049 -0.1674
    1CHOL   ROH11713   1.241  25.251   3.042 -0.1320  0.1858 -0.0434
    1CHOL    R111714   1.165  25.276   3.314 -0.0374  0.2015 -0.0195
    1CHOL    R211715   1.312  25.167   3.520 -0.0534  0.0778 -0.0817
    1CHOL    R311716   1.306  25.421   3.616  0.1437  0.0681 -0.0363
    1CHOL    R411717   1.290  25.249   3.855 -0.0831  0.0233 -0.0690
    1CHOL    R511718   1.153  25.411   3.800  0.0717  0.1624 -0.0837
    1CHOL    C111719   1.271  25.536   4.140  0.0847 -0.0176 -0.0190
    1CHOL    C211720   1.143  25.593   4.394 -0.4755 -0.1852 -0.1294
    1CHOL   ROH11721   7.363  16.458   6.756 -0.1356 -0.1811  0.1353
    1CHOL    R111722   7.399  16.592   6.509 -0.1758 -0.0284  0.2113
    1CHOL    R211723   7.391  16.462   6.266  0.1739  0.0509  0.1524
    1CHOL    R311724   7.203  16.650   6.208 -0.0721 -0.2016  0.1088
    1CHOL    R411725   7.268  16.526   5.949  0.1928 -0.0919  0.1155
    1CHOL    R511726   7.273  16.739   5.996 -0.1203 -0.0836  0.1404
    1CHOL    C111727   7.020  16.739   5.710 -0.0272 -0.4120  0.0532
    1CHOL    C211728   7.192  16.622   5.401  0.0613 -0.2884  0.1132
    1CHOL   ROH11729  13.531   5.670   3.904 -0.0520 -0.0794  0.0034
    1CHOL    R111730  13.593   5.642   4.179  0.0062 -0.0268 -0.0039
    1CHOL    R211731  13.663   5.857   4.339  0.0128  0.0090 -0.0526
    1CHOL    R311732  13.459   5.767   4.494  0.0537  0.0097  0.0016
    1CHOL    R411733  13.676   5.821   4.682  0.1281 -0.0658 -0.0647
    1CHOL    R511734  13.566   5.635   4.662  0.0912 -0.0428 -0.0643
    1CHOL    C111735  13.493   5.715   5.028  0.2336 -0.1086 -0.0209
    1CHOL    C211736  13.260   5.821   5.247  0.0580  0.1479  0.1497
    1CHOL   ROH11737  16.550  16.174   4.394 -0.1119 -0.0938 -0.0172
    1CHOL    R111738  16.757  16.098   4.570 -0.0333 -0.0216 -0.0772
    1CHOL    R211739  16.780  16.199   4.826  0.0025 -0.0181 -0.0817
    1CHOL    R311740  16.782  15.936   4.896  0.1180 -0.0189 -0.0862
    1CHOL    R411741  16.825  16.080   5.148 -0.1777  0.0078 -0.0458
    1CHOL    R511742  16.950  15.921   5.066 -0.0068  0.0890  0.0498
    1CHOL    C111743  16.853  15.764   5.400 -0.1745  0.0222 -0.0291
    1CHOL    C211744  17.005  15.724   5.797 -0.0879  0.2907  0.1757
    1CHOL   ROH11745   9.520  10.484   6.926 -0.2240  0.2072  0.0451
    1CHOL    R111746   9.357  10.414   6.705 -0.1307  0.2753 -0.0471
    1CHOL    R211747   9.345  10.566   6.474  0.1894  0.1959 -0.1247
    1CHOL    R311748   9.409  10.330   6.354  0.0528  0.0807  0.0254
    1CHOL    R411749   9.335  10.508   6.134  0.2681  0.0136 -0.0970
    1CHOL    R511750   9.253  10.310   6.175  0.1039  0.1002 -0.0180
    1CHOL    C111751   9.389  10.253   5.823  0.1857 -0.2007  0.0600
    1CHOL    C211752   9.555  10.101   5.463  0.0431  0.0560  0.0250
    1CHOL   ROH11753   0.625  27.378   3.272 -0.0511 -0.1201 -0.0640
    1CHOL    R111754   0.755  27.323   3.518 -0.0158 -0.1117 -0.0806
    1CHOL    R211755   0.713  27.474   3.745 -0.0574 -0.1642 -0.0538
    1CHOL    R311756   0.655  27.233   3.856  0.0389 -0.2032 -0.0883
    1CHOL    R411757   0.741  27.400   4.081 -0.1605 -0.1544 -0.0430
    1CHOL    R511758   0.821  27.205   4.026 -0.0172 -0.1063 -0.0150
    1CHOL    C111759   0.703  27.130   4.381 -0.1301 -0.1854 -0.0690
    1CHOL    C211760   0.991  27.329   4.534 -0.1840 -0.2347  0.0438
    1CHOL   ROH11761  11.947  23.673   6.257 -0.3400 -0.0531 -0.0335
    1CHOL    R111762  11.875  23.631   5.987 -0.0386  0.0031 -0.1269
    1CHOL    R211763  11.613  23.640   5.900  0.0213 -0.2944 -0.3606
    1CHOL    R311764  11.711  23.823   5.724 -0.0533 -0.0608 -0.1638
    1CHOL    R411765  11.526  23.658   5.566  0.2272 -0.1443 -0.4078
    1CHOL    R511766  11.735  23.701   5.519  0.2145  0.1131 -0.2392
    1CHOL    C111767  11.567  23.840   5.206  0.2773  0.1623 -0.2505
    1CHOL    C211768  11.718  24.137   4.945  0.0722 -0.0971 -0.4044
    1CHOL   ROH11769  27.555  21.131   3.572 -0.1296 -0.1037 -0.0117
    1CHOL    R111770  27.410  20.962   3.748 -0.0554 -0.0867  0.0654
    1CHOL    R211771  27.529  20.831   3.959  0.0256 -0.0322  0.0514
    1CHOL    R311772  27.335  20.954   4.104  0.0563 -0.0288  0.0912
    1CHOL    R411773  27.371  20.693   4.234  0.1394  0.0030  0.1365
    1CHOL    R511774  27.183  20.778   4.161  0.1009 -0.0401  0.1813
    1CHOL    C111775  27.096  20.729   4.529  0.2344  0.0268  0.2235
    1CHOL    C211776  26.950  20.777   4.855 -0.3875  0.1108  0.1667
    1CHOL   ROH11777  14.349  11.562   4.886  0.0136  0.1085 -0.1820
    1CHOL    R111778  14.493  11.498   5.122  0.0694 -0.1411 -0.2799
    1CHOL    R211779  14.757  11.417   5.119  0.1447  0.0911 -0.4140
    1CHOL    R311780  14.789  11.623   5.294 -0.0375 -0.1489 -0.0883
    1CHOL    R411781  15.025  11.455   5.333  0.0583 -0.0527 -0.2786
    1CHOL    R511782  14.887  11.522   5.487 -0.0271 -0.3770 -0.2118
    1CHOL    C111783  15.211  11.670   5.622 -0.1633 -0.3618  0.1060
    1CHOL    C211784  15.339  11.622   5.983  0.3555  0.1123  0.1385
    1CHOL   ROH11785  20.003  13.271   6.297 -0.0449 -0.2035  0.1214
    1CHOL    R111786  19.739  13.301   6.197 -0.0396 -0.1334  0.1273
    1CHOL    R211787  19.662  13.516   6.042  0.0088 -0.1026  0.1444
    1CHOL    R311788  19.581  13.321   5.870 -0.0389 -0.0709  0.1310
    1CHOL    R411789  19.393  13.542   5.826  0.0882  0.0229  0.0594
    1CHOL    R511790  19.342  13.335   5.873 -0.0330  0.0523  0.0559
    1CHOL    C111791  19.161  13.374   5.539  0.0895  0.1258 -0.0026
    1CHOL    C211792  18.951  13.320   5.121  0.0424 -0.1787  0.1616
    1CHOL   ROH11793   2.178  18.407   5.056  0.0671  0.0968 -0.2688
    1CHOL    R111794   2.322  18.648   5.094  0.0126  0.0937 -0.0290
    1CHOL    R211795   2.273  18.875   4.945  0.0671  0.1833  0.0915
    1CHOL    R311796   2.243  18.991   5.189 -0.0879  0.0230  0.1510
    1CHOL    R411797   2.218  19.212   4.999  0.1652  0.1716  0.2778
    1CHOL    R511798   2.354  19.202   5.169  0.0220 -0.0059  0.3892
    1CHOL    C111799   2.157  19.516   5.259  0.0768  0.0138  0.4422
    1CHOL    C211800   2.093  19.732   4.946 -0.1382  0.2895  0.2180
    1CHOL   ROH11801  13.857  27.123   3.673  0.1164  0.3300 -0.0493
    1CHOL    R111802  13.950  27.181   3.934  0.0093  0.3176 -0.0074
    1CHOL    R211803  13.831  27.370   4.096 -0.0860  0.2798 -0.0277
    1CHOL    R311804  13.816  27.164   4.272 -0.1151  0.2550 -0.0602
    1CHOL    R411805  13.738  27.401   4.427  0.1817  0.2789  0.0487
    1CHOL    R511806  13.894  27.257   4.478  0.1081  0.1493 -0.0970
    1CHOL    C111807  13.671  27.225   4.786  0.3103  0.2552  0.0627
    1CHOL    C211808  13.770  27.355   5.018  0.0932 -0.0552 -0.0055
    1CHOL   ROH11809  15.317  21.464   6.481  0.0980  0.1725  0.1309
    1CHOL    R111810  15.343  21.619   6.246  0.2352  0.0246  0.0475
    1CHOL    R211811  15.467  21.524   6.018 -0.0126 -0.2770  0.0362
    1CHOL    R311812  15.233  21.595   5.900  0.0412  0.0343  0.1064
    1CHOL    R411813  15.441  21.711   5.729  0.1555 -0.2526  0.0356
    1CHOL    R511814  15.273  21.817   5.818  0.3201 -0.0171  0.0860
    1CHOL    C111815  15.207  21.888   5.449  0.3039  0.0540  0.1012
    1CHOL    C211816  15.463  22.056   5.153  0.1010 -0.1933 -0.2738
    1CHOL   ROH11817   6.803  21.954   6.647  0.0196 -0.1898 -0.0189
    1CHOL    R111818   6.859  21.831   6.398  0.0041 -0.2916  0.0282
    1CHOL    R211819   6.694  21.640   6.287 -0.1887 -0.0818 -0.0473
    1CHOL    R311820   6.698  21.807   6.073  0.1655 -0.1082 -0.0685
    1CHOL    R411821   6.599  21.551   5.967 -0.1694  0.0144 -0.0803
    1CHOL    R511822   6.767  21.668   5.890  0.0487 -0.2419 -0.0162
    1CHOL    C111823   6.547  21.656   5.579  0.1743  0.0456 -0.1195
    1CHOL    C211824   6.706  21.614   5.230 -0.0210 -0.1795  0.0061
    1CHOL   ROH11825   3.333  17.183   5.764  0.1051  0.0820  0.1561
    1CHOL    R111826   3.424  17.097   5.510 -0.0198  0.0534  0.1212
    1CHOL    R211827   3.635  16.921   5.479  0.0392  0.1412  0.0349
    1CHOL    R311828   3.453  16.780   5.334  0.0092  0.0182  0.1885
    1CHOL    R411829   3.704  16.633   5.299  0.0616  0.1345  0.0535
    1CHOL    R511830   3.574  16.707   5.141 -0.0830  0.0354  0.1225
    1CHOL    C111831   3.573  16.334   5.059  0.0464  0.0148  0.2086
    1CHOL    C211832   3.782  16.050   5.025 -0.1165 -0.0889 -0.2106
    1CHOL   ROH11833  15.111   3.471   4.141  0.0927 -0.0590  0.0618
    1CHOL    R111834  15.145   3.412   4.415  0.0054 -0.1381  0.0564
    1CHOL    R211835  15.143   3.607   4.611  0.1572 -0.1659  0.0912
    1CHOL    R311836  14.950   3.450   4.720 -0.0017 -0.0134  0.0356
    1CHOL    R411837  15.089   3.569   4.950  0.0161 -0.1291  0.0737
    1CHOL    R511838  15.054   3.356   4.915 -0.1413 -0.0975  0.0662
    1CHOL    C111839  14.876   3.398   5.250 -0.2152  0.0355  0.0113
    1CHOL    C211840  14.603   3.607   5.468  0.0909  0.2123  0.1918
    1CHOL   ROH11841  11.972  20.105   4.003 -0.1056  0.0693  0.0780
    1CHOL    R111842  11.932  20.101   4.284 -0.3184 -0.0658  0.0480
    1CHOL    R211843  11.709  19.985   4.401 -0.2662 -0.3896 -0.1575
    1CHOL    R311844  11.896  19.847   4.541 -0.1931 -0.1930 -0.0588
    1CHOL    R411845  11.661  19.849   4.715 -0.2435 -0.3244 -0.1261
    1CHOL    R511846  11.862  19.913   4.768 -0.3093 -0.1451 -0.0906
    1CHOL    C111847  11.809  19.641   5.030 -0.1615 -0.1017 -0.0152
    1CHOL    C211848  11.915  19.574   5.350 -0.1675  0.1352 -0.1940
    1CHOL   ROH11849  23.466   2.949   4.342  0.2432 -0.0599 -0.0580
    1CHOL    R111850  23.407   2.676   4.392  0.1074 -0.0290 -0.0457
    1CHOL    R211851  23.290   2.512   4.203  0.0994  0.0011 -0.0652
    1CHOL    R311852  23.506   2.355   4.253  0.0137 -0.0893  0.0253
    1CHOL    R411853  23.318   2.181   4.110  0.1098  0.0677 -0.3051
    1CHOL    R511854  23.412   2.140   4.302 -0.0902 -0.1091 -0.2394
    1CHOL    C111855  23.536   1.840   4.102  0.0355  0.0216 -0.3599
    1CHOL    C211856  23.486   1.474   4.212 -0.1736 -0.1575 -0.1437
    1DPPC   NC311857  26.601  12.632   3.172 -0.0958 -0.2483  0.1994
    1DPPC   PO411858  26.106  12.557   3.058  0.3145 -0.0525 -0.2853
    1DPPC   GL111859  26.284  12.424   3.526 -0.1868  0.0024 -0.1954
    1DPPC   GL211860  26.360  12.748   3.555 -0.2916 -0.0807 -0.0553
    1DPPC   C1A11861  26.315  12.351   3.924 -0.2618 -0.2763 -0.3199
    1DPPC   C2A11862  26.399  12.087   4.321 -0.2203 -0.3186  0.3234
    1DPPC   C3A11863  26.326  11.763   4.673  0.2695  0.2741  0.1227
    1DPPC   C4A11864  26.331  11.361   4.797  0.1859  0.2669 -0.0044
    1DPPC   C1B11865  26.290  12.832   3.990  0.0783  0.0819  0.0486
    1DPPC   C2B11866  26.180  12.594   4.365  0.0778 -0.1308 -0.0773
    1DPPC   C3B11867  26.525  12.473   4.640  0.2463 -0.0984 -0.2437
    1DPPC   C4B11868  26.704  12.087   4.704 -0.0687  0.1876  0.1338
    1DPPC   NC311869  10.960   2.491   3.540 -0.2907  0.2380 -0.1313
    1DPPC   PO411870  11.272   2.383   3.380  0.0377 -0.2944 -0.2027
    1DPPC   GL111871  11.495   2.409   3.770  0.2068 -0.0231 -0.1099
    1DPPC   GL211872  11.763   2.275   3.955 -0.1678  0.1540  0.1235
    1DPPC   C1A11873  11.219   2.273   4.076 -0.0207  0.3122 -0.2923
    1DPPC   C2A11874  10.796   2.209   4.210 -0.0181 -0.2086  0.1049
    1DPPC   C3A11875  10.630   1.925   4.497  0.0305  0.3577 -0.0177
    1DPPC   C4A11876  10.476   1.724   4.817 -0.2639 -0.3900  0.2608
    1DPPC   C1B11877  11.632   2.131   4.321  0.0861 -0.2150 -0.0140
    1DPPC   C2B11878  11.633   1.931   4.665  0.1467  0.1457 -0.1434
    1DPPC   C3B11879  11.619   2.015   5.009 -0.1724 -0.0044 -0.2055
    1DPPC   C4B11880  11.792   2.118   5.421 -0.2649  0.2176 -0.1539
    1DPPC   NC311881  22.184  15.114   3.261  0.2457  0.0305  0.0180
    1DPPC   PO411882  21.917  15.513   3.361  0.0379 -0.0405  0.1642
    1DPPC   GL111883  22.086  15.364   3.646 -0.0334  0.1015  0.1857
    1DPPC   GL211884  22.386  15.569   3.584 -0.1175  0.0955  0.0935
    1DPPC   C1A11885  22.241  15.154   4.016  0.1442 -0.0001 -0.1562
    1DPPC   C2A11886  22.528  15.337   4.274  0.0759  0.1073 -0.2159
    1DPPC   C3A11887  22.635  15.310   4.717 -0.1994  0.1474 -0.0140
    1DPPC   C4A11888  22.993  15.108   4.966 -0.3286  0.3663 -0.1578
    1DPPC   C1B11889  22.571  15.740   3.971  0.0966  0.2229 -0.2098
    1DPPC   C2B11890  22.444  15.785   4.416 -0.2047 -0.0692 -0.1141
    1DPPC   C3B11891  22.229  15.821   4.833  0.1010 -0.1583 -0.3335
    1DPPC   C4B11892  22.203  15.782   5.235  0.0169 -0.0143 -0.2928
    1DPPC   NC311893  24.622   7.134   2.599 -0.2062  0.1013  0.2494
    1DPPC   PO411894  24.646   7.554   2.689 -0.0131  0.0452 -0.0286
    1DPPC   GL111895  24.681   7.322   3.123 -0.0084 -0.0336 -0.0407
    1DPPC   GL211896  25.004   7.238   3.046 -0.4617 -0.1782 -0.0840
    1DPPC   C1A11897  24.654   7.166   3.529  0.1745  0.0147  0.0261
    1DPPC   C2A11898  24.406   6.891   3.819 -0.1051 -0.2742  0.3157
    1DPPC   C3A11899  24.331   6.672   4.217 -0.0807  0.0185  0.0127
    1DPPC   C4A11900  24.647   6.708   4.500 -0.0137 -0.1375  0.0193
    1DPPC   C1B11901  25.045   7.489   3.492  0.0058 -0.2767 -0.0822
    1DPPC   C2B11902  25.015   7.537   3.876 -0.0413 -0.0823  0.2269
    1DPPC   C3B11903  24.836   7.728   4.171 -0.1136  0.1281 -0.1787
    1DPPC   C4B11904  24.461   7.869   4.343 -0.1491  0.1248 -0.0889
    1DPPC   NC311905  25.164  10.434   3.020  0.0837  0.1587  0.1511
    1DPPC   PO411906  25.505  10.757   2.911  0.0138  0.0186 -0.0533
    1DPPC   GL111907  25.518  10.644   3.296  0.0348  0.4599  0.3016
    1DPPC   GL211908  25.214  10.584   3.483  0.2012  0.1530  0.0819
    1DPPC   C1A11909  25.646  10.600   3.725 -0.0842 -0.1026 -0.0061
    1DPPC   C2A11910  25.672  10.422   4.102 -0.0793 -0.1020  0.1929
    1DPPC   C3A11911  25.768  10.408   4.516 -0.0118 -0.2470  0.0946
    1DPPC   C4A11912  25.841  10.549   4.848 -0.2244 -0.3200  0.1981
    1DPPC   C1B11913  25.227  10.380   3.865 -0.1769 -0.0282  0.0785
    1DPPC   C2B11914  25.263  10.162   4.307  0.0615 -0.1438 -0.0584
    1DPPC   C3B11915  25.482  10.005   4.683 -0.3409  0.3830 -0.1870
    1DPPC   C4B11916  25.877   9.802   4.805 -0.2470 -0.1275 -0.0050
    1DPPC   NC311917  24.400   5.808   3.220 -0.0412 -0.0694 -0.0532
    1DPPC   PO411918  24.389   6.295   3.142  0.2063  0.5142 -0.0629
    1DPPC   GL111919  24.256   6.245   3.534  0.0853 -0.0025  0.1640
    1DPPC   GL211920  24.037   6.005   3.586  0.0350  0.1685  0.0890
    1DPPC   C1A11921  24.235   6.408   3.836  0.2797 -0.2065  0.0384
    1DPPC   C2A11922  24.086   6.245   4.284 -0.1956 -0.1616  0.1306
    1DPPC   C3A11923  23.842   6.279   4.605 -0.1629 -0.3560 -0.0663
    1DPPC   C4A11924  23.941   6.309   5.068  0.1960  0.1742  0.0821
    1DPPC   C1B11925  23.844   5.798   3.975 -0.0807 -0.0520  0.1149
    1DPPC   C2B11926  23.738   5.843   4.333 -0.3526 -0.1017  0.0125
    1DPPC   C3B11927  23.791   5.828   4.803  0.0623 -0.1428 -0.4799
    1DPPC   C4B11928  23.570   5.894   5.191 -0.1204  0.2956  0.0487
    1DPPC   NC311929  14.352   3.819   3.640 -0.0102  0.1663 -0.3891
    1DPPC   PO411930  14.585   4.101   3.783  0.1196 -0.4054 -0.0187
    1DPPC   GL111931  14.473   4.184   4.184 -0.0588  0.1162  0.1137
    1DPPC   GL211932  14.643   4.467   4.236 -0.0814  0.0622 -0.1385
    1DPPC   C1A11933  14.564   4.065   4.645  0.4087 -0.0127  0.0099
    1DPPC   C2A11934  14.603   3.867   5.004 -0.1850 -0.0376  0.1467
    1DPPC   C3A11935  14.984   3.942   5.296  0.0750  0.0509  0.2242
    1DPPC   C4A11936  15.325   3.633   5.397  0.0335 -0.0326  0.0153
    1DPPC   C1B11937  14.574   4.583   4.713 -0.1515  0.2337 -0.0102
    1DPPC   C2B11938  14.756   4.602   5.187 -0.2618 -0.1481 -0.1784
    1DPPC   C3B11939  14.459   4.608   5.555 -0.2451  0.0729 -0.1602
    1DPPC   C4B11940  14.573   4.739   5.960  0.1252  0.0133 -0.0270
    1DPPC   NC311941  11.042  16.416   3.269  0.4957 -0.2930  0.0832
    1DPPC   PO411942  10.814  16.193   3.548 -0.2869 -0.0518  0.1812
    1DPPC   GL111943  10.857  16.307   3.908  0.0600 -0.1624 -0.1211
    1DPPC   GL211944  11.201  16.459   3.929 -0.0639  0.0159 -0.0673
    1DPPC   C1A11945  10.658  16.479   4.225  0.1246  0.0643  0.0116
    1DPPC   C2A11946  10.737  16.643   4.594 -0.2824 -0.0731 -0.0302
    1DPPC   C3A11947  10.745  16.923   4.897 -0.0628  0.1079  0.0251
    1DPPC   C4A11948  10.864  16.945   5.314  0.3481  0.0510  0.1647
    1DPPC   C1B11949  11.205  16.482   4.302 -0.1119 -0.1459 -0.2251
    1DPPC   C2B11950  11.232  16.679   4.811  0.0100  0.2827  0.1646
    1DPPC   C3B11951  11.288  17.000   5.054 -0.2520  0.2678 -0.1099
    1DPPC   C4B11952  11.043  17.328   5.111  0.4455  0.2828 -0.2464
    1DPPC   NC311953  12.472   1.861   3.665 -0.0577 -0.4567  0.1319
    1DPPC   PO411954  12.153   1.796   3.310  0.2722  0.0213  0.0189
    1DPPC   GL111955  11.971   1.726   3.803 -0.2997 -0.1015 -0.1042
    1DPPC   GL211956  12.088   1.933   4.059  0.2077  0.2406 -0.1317
    1DPPC   C1A11957  12.020   1.492   4.215 -0.1789 -0.0013 -0.0638
    1DPPC   C2A11958  12.032   1.592   4.582 -0.4057 -0.0014 -0.1114
    1DPPC   C3A11959  11.829   1.558   4.914  0.0421 -0.0421  0.0253
    1DPPC   C4A11960  11.879   1.672   5.289 -0.2336 -0.3701 -0.0718
    1DPPC   C1B11961  12.130   2.068   4.406 -0.0775 -0.0367  0.0377
    1DPPC   C2B11962  12.032   2.225   4.790  0.0217  0.2040 -0.1325
    1DPPC   C3B11963  12.136   2.408   5.241 -0.0982  0.0420  0.1088
    1DPPC   C4B11964  12.135   2.720   5.543 -0.0718  0.1579  0.2267
    1DPPC   NC311965  18.420   3.974   2.749  0.0448 -0.2481 -0.0909
    1DPPC   PO411966  18.540   3.690   3.039 -0.1021  0.4369 -0.0385
    1DPPC   GL111967  18.768   3.654   3.409  0.0076  0.2834 -0.0971
    1DPPC   GL211968  18.964   3.892   3.442 -0.0106  0.4243  0.2601
    1DPPC   C1A11969  19.043   3.472   3.699  0.2340 -0.1237  0.0679
    1DPPC   C2A11970  19.325   3.459   4.118  0.4600  0.3557  0.0478
    1DPPC   C3A11971  19.230   3.332   4.572  0.0502 -0.0029 -0.0850
    1DPPC   C4A11972  18.945   3.131   4.594 -0.0637 -0.1751  0.1421
    1DPPC   C1B11973  18.863   3.961   3.818 -0.1503  0.2156 -0.1629
    1DPPC   C2B11974  18.976   4.032   4.278  0.1361 -0.1643  0.3004
    1DPPC   C3B11975  19.100   4.178   4.537  0.0273  0.3030 -0.0403
    1DPPC   C4B11976  19.045   4.019   4.925  0.1925 -0.2505 -0.0661
    1DPPC   NC311977  21.535  18.239   3.201  0.0502 -0.0369  0.0630
    1DPPC   PO411978  21.358  18.023   3.613 -0.0545 -0.0596  0.0657
    1DPPC   GL111979  21.300  18.041   4.054 -0.0769 -0.0188 -0.1044
    1DPPC   GL211980  20.976  18.114   4.155  0.2869  0.0383  0.1638
    1DPPC   C1A11981  21.327  18.259   4.401 -0.4490  0.1316 -0.0638
    1DPPC   C2A11982  21.235  18.548   4.702  0.1156 -0.2470 -0.0060
    1DPPC   C3A11983  21.401  18.941   4.976  0.0018  0.1457  0.2116
    1DPPC   C4A11984  21.740  19.059   5.182  0.1992  0.0077  0.1468
    1DPPC   C1B11985  21.009  17.922   4.555  0.1319  0.1209  0.1398
    1DPPC   C2B11986  21.054  17.627   4.906  0.0570 -0.3094  0.0336
    1DPPC   C3B11987  21.355  17.577   5.200 -0.1679 -0.0123  0.1994
    1DPPC   C4B11988  21.608  17.718   5.500 -0.1171  0.0649  0.2636
    1DPPC   NC311989   2.470  13.552   2.617 -0.0339  0.1387 -0.1554
    1DPPC   PO411990   2.700  13.938   2.647  0.1492  0.0659 -0.1014
    1DPPC   GL111991   2.760  13.686   3.016  0.0947  0.0183  0.0296
    1DPPC   GL211992   2.692  13.924   3.276  0.2223  0.0299 -0.0151
    1DPPC   C1A11993   2.938  13.526   3.482  0.1305  0.0043  0.1623
    1DPPC   C2A11994   2.966  13.315   3.894  0.2760 -0.2478  0.0638
    1DPPC   C3A11995   2.797  13.320   4.258  0.1585  0.1125  0.2814
    1DPPC   C4A11996   2.864  13.155   4.638  0.2065  0.1219 -0.0321
    1DPPC   C1B11997   2.563  13.779   3.668  0.1690  0.0611  0.0184
    1DPPC   C2B11998   2.410  13.497   3.869 -0.3217 -0.3224 -0.0837
    1DPPC   C3B11999   2.188  13.407   4.250  0.2561 -0.1389 -0.2171
    1DPPC   C4B12000   1.998  13.553   4.666 -0.3164  0.1426  0.0239
    1DPPC   NC312001   6.307   1.059   2.627  0.1236 -0.1778  0.0641
    1DPPC   PO412002   5.928   1.242   2.517 -0.0270  0.3996 -0.1312
    1DPPC   GL112003   5.786   1.228   2.943  0.1448  0.1719 -0.1563
    1DPPC   GL212004   5.963   1.063   3.105 -0.1529 -0.0656 -0.4901
    1DPPC   C1A12005   5.718   1.658   3.229 -0.1055  0.5352  0.2515
    1DPPC   C2A12006   5.466   1.998   3.361 -0.0940 -0.2078 -0.1458
    1DPPC   C3A12007   5.418   2.111   3.753 -0.3856 -0.3501  0.1280
    1DPPC   C4A12008   5.286   2.018   4.258  0.0627  0.1387 -0.2108
    1DPPC   C1B12009   6.173   1.389   3.334  0.0621 -0.0621 -0.2007
    1DPPC   C2B12010   6.489   1.368   3.673 -0.5181 -0.0261 -0.0881
    1DPPC   C3B12011   6.448   1.582   4.059  0.3447  0.0156 -0.1122
    1DPPC   C4B12012   6.093   1.639   4.223  0.2226 -0.1723 -0.0271
    1DPPC   NC312013  25.146  21.991   2.700 -0.2931 -0.3439  0.0774
    1DPPC   PO412014  25.064  22.359   3.000  0.0692  0.0196 -0.0659
    1DPPC   GL112015  25.031  22.149   3.359  0.3046 -0.1803  0.0479
    1DPPC   GL212016  24.908  21.934   3.200  0.1843  0.5328 -0.2525
    1DPPC   C1A12017  25.098  22.240   3.674 -0.1958 -0.1545 -0.0501
    1DPPC   C2A12018  25.249  22.043   4.023 -0.0394 -0.0811 -0.0350
    1DPPC   C3A12019  25.395  21.933   4.464  0.1297  0.2877 -0.0809
    1DPPC   C4A12020  25.657  22.107   4.875  0.1704 -0.3724 -0.0972
    1DPPC   C1B12021  25.011  21.694   3.699  0.0961  0.0182  0.3586
    1DPPC   C2B12022  24.966  21.541   4.051 -0.1272 -0.2702  0.2150
    1DPPC   C3B12023  24.994  21.524   4.549 -0.2552  0.1036 -0.0643
    1DPPC   C4B12024  25.177  21.424   4.949  0.0034 -0.0814 -0.1752
    1DPPC   NC312025  11.139  27.975   2.755 -0.2431  0.1081  0.0133
    1DPPC   PO412026  11.415  27.977   3.089  0.2018  0.0042 -0.0982
    1DPPC   GL112027  11.366  27.819   3.476  0.1142 -0.1538  0.0281
    1DPPC   GL212028  11.580  27.585   3.702 -0.1596 -0.0516 -0.0177
    1DPPC   C1A12029  11.062  27.504   3.736 -0.2928 -0.2118 -0.1244
    1DPPC   C2A12030  10.983  27.486   4.159  0.1156  0.1383 -0.4447
    1DPPC   C3A12031  10.735  27.553   4.556 -0.1061 -0.1039  0.0919
    1DPPC   C4A12032  10.338  27.580   4.675  0.0111 -0.1904  0.1646
    1DPPC   C1B12033  11.535  27.424   4.197  0.0809  0.0780  0.1835
    1DPPC   C2B12034  11.441  27.397   4.608 -0.0868  0.0858  0.1987
    1DPPC   C3B12035  11.020  27.311   4.856  0.1999  0.2281  0.0525
    1DPPC   C4B12036  10.631  27.390   5.034  0.1518  0.1196 -0.0409
    1DPPC   NC312037  10.885   6.961   3.796 -0.3116 -0.0269 -0.0364
    1DPPC   PO412038  10.906   7.396   3.681  0.1301  0.1837 -0.1027
    1DPPC   GL112039  10.519   7.309   3.939  0.0293  0.0789 -0.6755
    1DPPC   GL212040  10.521   7.054   4.086  0.0101 -0.0045  0.0128
    1DPPC   C1A12041  10.341   7.649   4.267  0.1491  0.2717 -0.0829
    1DPPC   C2A12042  10.182   7.715   4.678  0.0832 -0.2777  0.0710
    1DPPC   C3A12043  10.205   7.943   4.986  0.2764 -0.0074  0.0207
    1DPPC   C4A12044  10.068   8.080   5.364  0.0855  0.0066  0.2671
    1DPPC   C1B12045  10.514   7.202   4.522  0.0941  0.2235 -0.0367
    1DPPC   C2B12046  10.323   7.223   4.837 -0.2128  0.2155 -0.0653
    1DPPC   C3B12047  10.432   7.111   5.246  0.0976  0.0164  0.0969
    1DPPC   C4B12048  10.448   6.774   5.569 -0.1144 -0.1790  0.0588
    1DPPC   NC312049  12.143   7.761   3.637 -0.0164  0.1623  0.0979
    1DPPC   PO412050  12.513   7.726   3.659  0.0076  0.3244 -0.2815
    1DPPC   GL112051  12.749   7.968   4.026 -0.1255  0.2712  0.0603
    1DPPC   GL212052  12.478   8.036   4.085 -0.1714  0.0688  0.0483
    1DPPC   C1A12053  13.091   8.081   4.250 -0.2383  0.0453  0.0982
    1DPPC   C2A12054  13.124   8.171   4.705  0.2470 -0.2422  0.0161
    1DPPC   C3A12055  13.329   8.194   5.139  0.3874 -0.0789  0.1179
    1DPPC   C4A12056  13.220   8.035   5.555  0.2271  0.3390  0.0092
    1DPPC   C1B12057  12.633   7.904   4.526  0.1369  0.3012 -0.1483
    1DPPC   C2B12058  12.739   7.665   4.888 -0.4762  0.1927 -0.3403
    1DPPC   C3B12059  12.784   7.546   5.360 -0.0044  0.2106 -0.1102
    1DPPC   C4B12060  12.619   7.237   5.725 -0.2138 -0.0731  0.0020
    1DPPC   NC312061  11.514   5.525   3.654 -0.1521  0.0788  0.0525
    1DPPC   PO412062  11.639   5.949   3.689  0.2489 -0.2093  0.0477
    1DPPC   GL112063  11.899   5.953   4.000  0.0348  0.1545 -0.1554
    1DPPC   GL212064  12.051   5.592   4.072  0.2990 -0.1126  0.2346
    1DPPC   C1A12065  11.923   6.162   4.377 -0.2110 -0.0313  0.1411
    1DPPC   C2A12066  12.049   6.171   4.712 -0.1589 -0.2984 -0.1784
    1DPPC   C3A12067  12.173   6.264   5.150 -0.0035 -0.2379  0.0550
    1DPPC   C4A12068  11.965   6.417   5.468  0.3547 -0.2309 -0.2348
    1DPPC   C1B12069  12.081   5.545   4.479  0.2129  0.0714 -0.1279
    1DPPC   C2B12070  12.117   5.651   4.865 -0.1302  0.0653 -0.0677
    1DPPC   C3B12071  11.988   5.813   5.288  0.0894  0.4678  0.1731
    1DPPC   C4B12072  12.128   5.939   5.646  0.1435  0.1499 -0.0859
    1DPPC   NC312073   4.390  21.244   2.917 -0.2656 -0.1296  0.0550
    1DPPC   PO412074   4.360  21.109   3.351 -0.0449 -0.2747  0.0598
    1DPPC   GL112075   4.126  21.319   3.634 -0.1580  0.0996 -0.0956
    1DPPC   GL212076   3.801  21.089   3.649 -0.0879 -0.1140  0.0796
    1DPPC   C1A12077   4.171  21.511   4.033  0.0597 -0.2921 -0.2392
    1DPPC   C2A12078   4.381  21.786   4.208 -0.0262  0.1077  0.1853
    1DPPC   C3A12079   4.724  21.890   4.372  0.2925 -0.0510  0.0388
    1DPPC   C4A12080   4.958  21.875   4.835  0.0478 -0.2520  0.0470
    1DPPC   C1B12081   3.725  21.334   3.960  0.0444  0.2633 -0.0514
    1DPPC   C2B12082   3.578  21.680   4.185 -0.3521 -0.3126  0.1204
    1DPPC   C3B12083   3.373  21.765   4.524  0.1244  0.3242 -0.0010
    1DPPC   C4B12084   3.285  21.807   4.999 -0.0095  0.0439 -0.0343
    1DPPC   NC312085   3.315   5.500   1.276  0.2293 -0.3567  0.2843
    1DPPC   PO412086   3.472   5.701   1.564  0.2576 -0.0818 -0.0974
    1DPPC   GL112087   3.408   5.920   1.907  0.0280  0.0529  0.1960
    1DPPC   GL212088   3.513   5.658   2.072 -0.2166  0.0895  0.0797
    1DPPC   C1A12089   3.276   6.071   2.277 -0.0149 -0.0429  0.0213
    1DPPC   C2A12090   3.507   6.067   2.673 -0.0160 -0.3247  0.3015
    1DPPC   C3A12091   3.507   5.724   2.997  0.3092 -0.1767  0.0674
    1DPPC   C4A12092   3.781   5.367   3.140 -0.0137 -0.0371 -0.2763
    1DPPC   C1B12093   3.430   5.600   2.520 -0.0919  0.1045 -0.4558
    1DPPC   C2B12094   3.511   5.286   2.731 -0.2267  0.1013 -0.0966
    1DPPC   C3B12095   3.386   5.117   3.105 -0.0809  0.3731 -0.2708
    1DPPC   C4B12096   3.258   4.964   3.482  0.0872  0.0817  0.0419
    1DPPC   NC312097   8.995   9.358   3.284  0.1179  0.0995  0.2432
    1DPPC   PO412098   9.470   9.574   3.370  0.1800 -0.0023 -0.0564
    1DPPC   GL112099   9.216   9.571   3.740  0.2613  0.1003 -0.5421
    1DPPC   GL212100   8.860   9.455   3.774 -0.0194  0.3480 -0.1541
    1DPPC   C1A12101   9.212   9.731   4.087  0.3115 -0.0952  0.0188
    1DPPC   C2A12102   9.260   9.669   4.380  0.0168 -0.0439 -0.0645
    1DPPC   C3A12103   9.244   9.511   4.785  0.1724  0.4286  0.0027
    1DPPC   C4A12104   9.045   9.363   5.205 -0.1673 -0.1664 -0.1545
    1DPPC   C1B12105   8.859   9.359   4.181  0.0599 -0.2691 -0.0286
    1DPPC   C2B12106   8.782   9.224   4.567 -0.1320 -0.0531 -0.0060
    1DPPC   C3B12107   8.924   8.860   4.799  0.0312  0.2102 -0.0514
    1DPPC   C4B12108   9.113   8.739   5.143  0.1792 -0.1954 -0.0392
    1DPPC   NC312109   7.574   0.627   2.525 -0.0425 -0.0468  0.2843
    1DPPC   PO412110   7.409   1.026   2.520  0.0984  0.0325 -0.3096
    1DPPC   GL112111   7.341   0.875   2.944  0.0611 -0.1889  0.1810
    1DPPC   GL212112   7.395   0.491   3.049  0.0849 -0.4540  0.3897
    1DPPC   C1A12113   7.592   1.019   3.347 -0.2582 -0.1751 -0.1035
    1DPPC   C2A12114   7.965   1.151   3.538 -0.0917  0.0403 -0.2624
    1DPPC   C3A12115   8.265   1.071   3.862 -0.3781 -0.0157  0.2225
    1DPPC   C4A12116   8.069   1.042   4.269  0.2129 -0.2611 -0.3939
    1DPPC   C1B12117   7.217   0.253   3.390 -0.0114  0.2660  0.1581
    1DPPC   C2B12118   7.116   0.272   3.700 -0.3186  0.2460  0.0824
    1DPPC   C3B12119   6.980   0.615   3.848 -0.3761  0.0474 -0.0895
    1DPPC   C4B12120   6.784   0.939   3.625  0.3163  0.0014 -0.0060
    1DPPC   NC312121  25.911  11.160   3.025 -0.1008 -0.0887 -0.3509
    1DPPC   PO412122  25.974  11.595   3.177 -0.0613 -0.0789  0.0595
    1DPPC   GL112123  25.798  11.694   3.535  0.1855  0.0322  0.2170
    1DPPC   GL212124  25.421  11.694   3.558 -0.0356 -0.1164 -0.1524
    1DPPC   C1A12125  25.661  11.380   3.970  0.0184 -0.1665  0.1356
    1DPPC   C2A12126  25.800  11.367   4.345  0.0548  0.2093 -0.0842
    1DPPC   C3A12127  25.885  11.471   4.660  0.2494 -0.1358  0.2430
    1DPPC   C4A12128  26.038  11.717   5.101  0.1301 -0.2581  0.3122
    1DPPC   C1B12129  25.243  11.591   3.876 -0.1342  0.0729 -0.1488
    1DPPC   C2B12130  25.293  11.402   4.287 -0.3238  0.1585 -0.2119
    1DPPC   C3B12131  25.411  11.242   4.642  0.1644  0.0077 -0.0507
    1DPPC   C4B12132  25.623  11.046   5.015 -0.0810 -0.1736  0.4454
    1DPPC   NC312133   8.514   4.490   3.179  0.0193 -0.0294  0.3463
    1DPPC   PO412134   8.465   4.932   2.902  0.3037  0.1566 -0.0426
    1DPPC   GL112135   8.264   4.937   3.391  0.3305  0.1385  0.2272
    1DPPC   GL212136   8.105   5.262   3.453  0.2984  0.0439  0.1045
    1DPPC   C1A12137   8.171   4.917   3.760  0.1047  0.0837  0.2842
    1DPPC   C2A12138   8.150   4.914   4.096  0.1414  0.2058  0.1037
    1DPPC   C3A12139   7.962   5.039   4.513 -0.6244 -0.1712  0.3302
    1DPPC   C4A12140   7.659   5.126   4.806  0.0003  0.1487  0.1215
    1DPPC   C1B12141   7.906   5.459   3.827 -0.2863 -0.0721 -0.1405
    1DPPC   C2B12142   7.897   5.483   4.210  0.0661 -0.3551 -0.0595
    1DPPC   C3B12143   8.072   5.591   4.672  0.0246  0.1867  0.1881
    1DPPC   C4B12144   8.271   5.811   4.915  0.0450  0.0554  0.0702
    1DPPC   NC312145  22.685  13.517   3.347 -0.0046  0.3639 -0.5267
    1DPPC   PO412146  22.246  13.400   3.363  0.1044 -0.0849 -0.3228
    1DPPC   GL112147  22.206  13.123   3.759  0.2302  0.0842 -0.0494
    1DPPC   GL212148  22.215  12.784   3.808 -0.0923  0.1786 -0.0945
    1DPPC   C1A12149  22.274  13.181   4.170 -0.1220 -0.2481  0.2738
    1DPPC   C2A12150  22.448  13.335   4.576  0.0870  0.1261  0.3080
    1DPPC   C3A12151  22.619  13.275   4.919 -0.2213  0.3089  0.1732
    1DPPC   C4A12152  22.660  12.898   5.183  0.2878  0.1489 -0.0019
    1DPPC   C1B12153  22.454  12.744   4.231 -0.1218 -0.0282  0.0272
    1DPPC   C2B12154  22.490  12.677   4.664  0.3204 -0.1308  0.0464
    1DPPC   C3B12155  22.466  12.406   4.977 -0.1222 -0.0613  0.2440
    1DPPC   C4B12156  22.600  12.285   5.311 -0.0400 -0.0189  0.1368
    1DPPC   NC312157  12.608   0.025   3.454 -0.2532  0.0726  0.0480
    1DPPC   PO412158  12.420  27.807   3.216 -0.0951  0.1398 -0.0012
    1DPPC   GL112159  12.133  27.759   3.638  0.1349  0.2765 -0.2609
    1DPPC   GL212160  12.061  28.056   3.922 -0.1460 -0.2277  0.0273
    1DPPC   C1A12161  12.036  27.529   4.041 -0.1023 -0.2122  0.0465
    1DPPC   C2A12162  12.024  27.446   4.456 -0.0203  0.3724 -0.2338
    1DPPC   C3A12163  12.054  27.344   4.944  0.0484  0.0016  0.0438
    1DPPC   C4A12164  12.336  27.131   5.120  0.1655 -0.1326  0.3193
    1DPPC   C1B12165  12.145  28.037   4.341 -0.1453  0.1397 -0.0653
    1DPPC   C2B12166  12.130  27.921   4.800  0.0807  0.1126  0.2973
    1DPPC   C3B12167  12.244  27.770   5.229 -0.2867  0.1465 -0.2101
    1DPPC   C4B12168  12.113  27.438   5.499  0.2215  0.2000  0.3290
    1DPPC   NC312169  19.558  24.355   3.615 -0.2620  0.2084 -0.1026
    1DPPC   PO412170  19.435  24.007   3.397 -0.3748  0.1848  0.2891
    1DPPC   GL112171  19.052  24.002   3.647 -0.2828  0.2743 -0.0561
    1DPPC   GL212172  18.759  24.245   3.703 -0.0023  0.2196  0.0912
    1DPPC   C1A12173  19.042  23.730   3.964 -0.0841 -0.0246 -0.2814
    1DPPC   C2A12174  18.854  23.502   4.267 -0.2780 -0.0063  0.2396
    1DPPC   C3A12175  18.731  23.562   4.635  0.1952 -0.0958 -0.0185
    1DPPC   C4A12176  18.404  23.834   4.797 -0.0139 -0.1029 -0.3449
    1DPPC   C1B12177  18.989  24.204   4.087 -0.1648  0.1728 -0.1937
    1DPPC   C2B12178  19.177  23.931   4.514 -0.0633 -0.0135  0.0581
    1DPPC   C3B12179  19.264  23.618   4.841  0.2515 -0.3221  0.1754
    1DPPC   C4B12180  19.474  23.301   4.910 -0.3845  0.0707  0.1412
    1DPPC   NC312181  26.983  16.138   2.898  0.0935 -0.0563  0.0517
    1DPPC   PO412182  26.910  15.669   2.880 -0.4955 -0.1985 -0.0204
    1DPPC   GL112183  26.571  15.392   3.063 -0.2010 -0.1146  0.1483
    1DPPC   GL212184  26.274  15.464   3.075 -0.0070 -0.2088  0.1981
    1DPPC   C1A12185  26.488  15.160   3.515  0.5055  0.1269  0.2292
    1DPPC   C2A12186  26.162  15.229   3.857 -0.1317 -0.1722  0.1017
    1DPPC   C3A12187  26.174  15.279   4.282  0.2522 -0.2487 -0.0120
    1DPPC   C4A12188  25.876  15.198   4.603 -0.0076  0.0863  0.0601
    1DPPC   C1B12189  26.171  15.736   3.431 -0.3766 -0.0980  0.0676
    1DPPC   C2B12190  25.988  15.743   3.797  0.2377  0.0978  0.1450
    1DPPC   C3B12191  26.074  15.755   4.264 -0.0647 -0.0967  0.0628
    1DPPC   C4B12192  26.174  16.031   4.541 -0.2012 -0.2224  0.0326
    1DPPC   NC312193  19.879  15.303   3.527 -0.0693 -0.1143 -0.1170
    1DPPC   PO412194  19.870  15.723   3.740  0.3136  0.1221  0.3894
    1DPPC   GL112195  19.807  15.635   4.162 -0.1975  0.0058  0.0515
    1DPPC   GL212196  19.827  15.277   4.126  0.3023  0.2580 -0.0068
    1DPPC   C1A12197  19.992  15.487   4.603 -0.1920 -0.1917  0.2783
    1DPPC   C2A12198  20.009  15.450   4.975  0.1676  0.3336  0.0021
    1DPPC   C3A12199  19.711  15.478   5.279 -0.0747  0.0432  0.0253
    1DPPC   C4A12200  19.254  15.483   5.391 -0.0893  0.0410  0.0149
    1DPPC   C1B12201  19.600  15.162   4.595 -0.4219  0.1172  0.0223
    1DPPC   C2B12202  19.681  15.068   5.103  0.4537 -0.3171 -0.1911
    1DPPC   C3B12203  19.409  15.010   5.505  0.1144 -0.2151 -0.0903
    1DPPC   C4B12204  19.048  15.062   5.704  0.0516 -0.2069  0.0183
    1DPPC   NC312205   4.707  23.113   2.573 -0.4005  0.4325  0.2162
    1DPPC   PO412206   5.105  22.989   2.786  0.0311  0.0723 -0.1876
    1DPPC   GL112207   5.181  23.100   3.278 -0.0071  0.1776  0.2838
    1DPPC   GL212208   5.251  22.687   3.391  0.2382  0.0807 -0.0456
    1DPPC   C1A12209   5.218  23.377   3.645  0.1086 -0.0427 -0.2374
    1DPPC   C2A12210   5.252  23.364   4.143 -0.1721 -0.2472  0.2636
    1DPPC   C3A12211   4.952  23.504   4.508 -0.2571 -0.0233 -0.0655
    1DPPC   C4A12212   4.679  23.843   4.553 -0.2649  0.1021 -0.0493
    1DPPC   C1B12213   5.232  22.934   3.792  0.2001 -0.2509 -0.2740
    1DPPC   C2B12214   5.308  22.884   3.995  0.0526  0.0096  0.0026
    1DPPC   C3B12215   5.109  22.859   4.345 -0.2572  0.1109  0.0846
    1DPPC   C4B12216   5.033  23.051   4.775  0.2184  0.0039  0.0449
    1DPPC   NC312217  27.264   5.643   2.224  0.0383  0.0534  0.2625
    1DPPC   PO412218  26.851   5.800   2.340 -0.0518 -0.1191 -0.0620
    1DPPC   GL112219  27.015   5.774   2.751 -0.0684 -0.0912 -0.1942
    1DPPC   GL212220  27.272   5.498   2.727 -0.0223 -0.2879 -0.2748
    1DPPC   C1A12221  27.155   5.771   3.145  0.2269 -0.3043  0.2221
    1DPPC   C2A12222  27.450   5.920   3.359 -0.0168 -0.0314  0.1721
    1DPPC   C3A12223  27.275   6.022   3.802  0.2516 -0.3471  0.2431
    1DPPC   C4A12224  27.359   6.058   4.287  0.0719  0.2675  0.2660
    1DPPC   C1B12225  27.440   5.253   3.090 -0.0793  0.1400 -0.0046
    1DPPC   C2B12226  27.170   4.970   3.353  0.1200 -0.2008 -0.0959
    1DPPC   C3B12227  27.292   4.771   3.715 -0.0175 -0.2787 -0.0183
    1DPPC   C4B12228  27.120   4.785   4.143  0.1720 -0.1651 -0.2157
    1DPPC   NC312229   7.069   3.786   2.798 -0.1094 -0.1931  0.1325
    1DPPC   PO412230   7.333   4.094   2.786  0.0043 -0.0473 -0.0447
    1DPPC   GL112231   7.196   4.175   3.222  0.2900  0.0923  0.0056
    1DPPC   GL212232   6.981   4.391   3.416 -0.0119  0.2914  0.3250
    1DPPC   C1A12233   7.169   3.882   3.688 -0.1178  0.0225 -0.0548
    1DPPC   C2A12234   7.081   3.585   4.012 -0.1144 -0.1914 -0.1862
    1DPPC   C3A12235   7.373   3.415   4.379 -0.1240 -0.0950 -0.0635
    1DPPC   C4A12236   7.669   3.095   4.607 -0.2651  0.1169  0.1571
    1DPPC   C1B12237   6.968   4.287   3.860 -0.0378 -0.2806 -0.4005
    1DPPC   C2B12238   6.797   3.953   4.130 -0.0395  0.1104  0.3605
    1DPPC   C3B12239   6.603   3.947   4.468  0.2831  0.1289  0.0454
    1DPPC   C4B12240   6.414   4.373   4.694 -0.1694  0.0356  0.2340
    1DPPC   NC312241   9.812   8.052   3.020  0.1042  0.5551  0.1809
    1DPPC   PO412242   9.564   7.734   2.818 -0.1994  0.0127 -0.0363
    1DPPC   GL112243   9.623   7.496   3.196  0.1866 -0.0397  0.2556
    1DPPC   GL212244   9.662   7.695   3.421  0.1484 -0.1377  0.1909
    1DPPC   C1A12245   9.525   7.296   3.621 -0.0397 -0.1226  0.0369
    1DPPC   C2A12246   9.466   7.415   4.069 -0.1165  0.5241 -0.0434
    1DPPC   C3A12247   9.382   7.428   4.522 -0.0120  0.2133  0.1072
    1DPPC   C4A12248   9.069   7.640   4.860  0.0237 -0.0561  0.3027
    1DPPC   C1B12249   9.375   7.791   3.771  0.2165 -0.2675 -0.4864
    1DPPC   C2B12250   9.362   8.066   4.097 -0.1939  0.3021 -0.1335
    1DPPC   C3B12251   9.295   8.118   4.522  0.0039  0.4329  0.0701
    1DPPC   C4B12252   9.057   8.128   4.911  0.1328  0.2776  0.0487
    1DPPC   NC312253   4.063  11.759   2.876 -0.0776  0.0698  0.1330
    1DPPC   PO412254   4.421  11.737   3.214 -0.3545  0.1034 -0.0436
    1DPPC   GL112255   4.153  11.868   3.596 -0.3441  0.0164  0.0231
    1DPPC   GL212256   4.180  12.212   3.436 -0.1480 -0.1938 -0.3580
    1DPPC   C1A12257   4.216  11.935   4.074 -0.0045  0.0836  0.1730
    1DPPC   C2A12258   4.409  11.890   4.413  0.0037  0.3579  0.0034
    1DPPC   C3A12259   4.826  11.780   4.371  0.3277 -0.0272 -0.0079
    1DPPC   C4A12260   5.141  12.128   4.332 -0.0442  0.0448  0.0904
    1DPPC   C1B12261   4.299  12.353   3.832  0.2068  0.2485  0.1861
    1DPPC   C2B12262   4.161  12.482   4.219 -0.2223  0.0669 -0.0067
    1DPPC   C3B12263   4.252  12.355   4.617  0.1040 -0.5740  0.0238
    1DPPC   C4B12264   4.234  12.002   4.909  0.2792  0.2336 -0.2284
    1DPPC   NC312265  10.810   4.998   3.613  0.0387 -0.0584 -0.1738
    1DPPC   PO412266  10.462   4.644   3.762 -0.0717  0.0348 -0.1712
    1DPPC   GL112267  10.144   4.693   3.919  0.0045  0.1301  0.0744
    1DPPC   GL212268  10.010   4.980   3.887  0.2246 -0.0526 -0.0668
    1DPPC   C1A12269   9.959   4.703   4.362  0.0156  0.0256 -0.3228
    1DPPC   C2A12270   9.795   5.056   4.684 -0.0252  0.1488  0.1975
    1DPPC   C3A12271   9.807   5.207   5.074 -0.2104  0.1613  0.0675
    1DPPC   C4A12272  10.185   5.308   5.320 -0.1403 -0.0757 -0.1435
    1DPPC   C1B12273  10.184   5.124   4.197 -0.2427 -0.2677 -0.1657
    1DPPC   C2B12274  10.428   4.995   4.562  0.3436  0.1131 -0.1321
    1DPPC   C3B12275  10.248   4.948   4.956 -0.0641  0.1207  0.1762
    1DPPC   C4B12276   9.985   4.785   5.305  0.0421  0.2105  0.1268
    1DPPC   NC312277  11.470   3.071   2.874  0.1854 -0.2298 -0.2395
    1DPPC   PO412278  11.431   3.428   3.265  0.1572  0.2525 -0.2284
    1DPPC   GL112279  11.325   3.380   3.731 -0.0163 -0.0249  0.1921
    1DPPC   GL212280  11.689   3.323   3.886  0.0277 -0.1658 -0.0349
    1DPPC   C1A12281  11.233   3.174   4.103  0.1435 -0.0505 -0.2358
    1DPPC   C2A12282  11.053   3.159   4.456  0.2151 -0.0687 -0.2926
    1DPPC   C3A12283  11.282   3.128   4.812 -0.1174 -0.0778 -0.1809
    1DPPC   C4A12284  11.407   3.159   5.216  0.0285 -0.2469  0.2239
    1DPPC   C1B12285  11.531   3.434   4.411  0.1295 -0.0733  0.0925
    1DPPC   C2B12286  11.289   3.714   4.766 -0.0118  0.1228 -0.2091
    1DPPC   C3B12287  11.166   3.628   5.200  0.0717 -0.3129  0.6564
    1DPPC   C4B12288  10.806   3.754   5.231  0.2123 -0.1740  0.0422
    1DPPC   NC312289   7.720  19.462   3.551  0.1402 -0.0345 -0.1393
    1DPPC   PO412290   7.403  19.109   3.644  0.1519 -0.3010 -0.0129
    1DPPC   GL112291   7.427  19.084   4.083  0.3786  0.2623  0.1873
    1DPPC   GL212292   7.224  19.341   4.220 -0.3250 -0.2039 -0.0464
    1DPPC   C1A12293   7.286  18.946   4.558 -0.0140  0.0081  0.3001
    1DPPC   C2A12294   7.287  18.996   4.994  0.0609 -0.2137  0.1731
    1DPPC   C3A12295   7.510  19.222   5.387 -0.0143 -0.1526  0.2806
    1DPPC   C4A12296   7.419  19.486   5.663 -0.0802  0.0416  0.1707
    1DPPC   C1B12297   7.622  19.262   4.477 -0.1419 -0.1046 -0.2701
    1DPPC   C2B12298   7.710  19.425   4.959 -0.1279 -0.4906 -0.2842
    1DPPC   C3B12299   7.783  19.710   5.328  0.2904  0.2003  0.2031
    1DPPC   C4B12300   7.521  19.979   5.546 -0.1619  0.0119  0.1753
    1DPPC   NC312301   1.256   9.941   2.725 -0.4570  0.3689  0.2408
    1DPPC   PO412302   1.537   9.630   2.897  0.2409 -0.0226  0.0085
    1DPPC   GL112303   1.660   9.437   3.300  0.2742  0.0144 -0.0410
    1DPPC   GL212304   1.890   9.222   3.287  0.1995 -0.1942  0.0024
    1DPPC   C1A12305   1.870   9.424   3.759 -0.0906 -0.0646  0.1757
    1DPPC   C2A12306   1.814   9.306   4.169  0.0280  0.1491 -0.2546
    1DPPC   C3A12307   1.768   8.947   4.417  0.0289 -0.2605  0.1965
    1DPPC   C4A12308   1.764   8.432   4.310 -0.3398 -0.2459 -0.0631
    1DPPC   C1B12309   1.861   8.974   3.601  0.6832  0.0721 -0.0436
    1DPPC   C2B12310   1.721   8.800   3.963  0.1076 -0.0337 -0.0507
    1DPPC   C3B12311   1.385   8.506   4.007 -0.1416  0.0392  0.0462
    1DPPC   C4B12312   1.169   8.222   4.319  0.0901 -0.0043  0.3131
    1DPPC   NC312313  24.524  15.141   2.683 -0.4069 -0.0239 -0.1369
    1DPPC   PO412314  24.369  15.611   2.886 -0.2434  0.2382  0.2165
    1DPPC   GL112315  24.485  15.392   3.308 -0.1788 -0.2531  0.2568
    1DPPC   GL212316  24.242  15.415   3.589  0.3846  0.0222 -0.2616
    1DPPC   C1A12317  24.461  14.998   3.526 -0.1454 -0.2323 -0.2254
    1DPPC   C2A12318  24.355  14.952   3.918  0.2093  0.0270  0.0080
    1DPPC   C3A12319  24.158  14.989   4.279  0.2376 -0.0267  0.0976
    1DPPC   C4A12320  23.887  15.089   4.568 -0.0001  0.0286 -0.0902
    1DPPC   C1B12321  24.159  15.468   4.045  0.0375  0.0632 -0.5164
    1DPPC   C2B12322  24.405  15.405   4.398  0.1164  0.3511 -0.1399
    1DPPC   C3B12323  24.854  15.447   4.496 -0.0589 -0.0863  0.0474
    1DPPC   C4B12324  25.187  15.456   4.733 -0.0105  0.0877  0.1292
    1DPPC   NC312325  11.874   2.513   3.543 -0.3140 -0.1113 -0.1284
    1DPPC   PO412326  12.164   2.226   3.600  0.0258  0.0613 -0.2141
    1DPPC   GL112327  12.396   2.334   3.991 -0.0823  0.2491  0.3362
    1DPPC   GL212328  12.124   2.493   4.098 -0.5270  0.0817  0.0085
    1DPPC   C1A12329  12.474   2.417   4.464 -0.1602 -0.0962 -0.2962
    1DPPC   C2A12330  12.557   2.346   4.918 -0.0841  0.2254 -0.1150
    1DPPC   C3A12331  12.679   2.200   5.384 -0.1903 -0.1491  0.2536
    1DPPC   C4A12332  12.656   2.089   5.829  0.1082 -0.1284 -0.1619
    1DPPC   C1B12333  12.028   2.662   4.323  0.3701 -0.0102  0.2148
    1DPPC   C2B12334  12.116   2.710   4.805  0.2246  0.3874  0.1295
    1DPPC   C3B12335  11.915   2.884   5.093 -0.2861  0.0144 -0.1739
    1DPPC   C4B12336  11.885   3.284   5.424  0.1032  0.1048 -0.0884
    1DPPC   NC312337  16.658   1.737   3.573 -0.0581 -0.1218 -0.1474
    1DPPC   PO412338  16.793   1.949   3.883  0.2441  0.1287 -0.0059
    1DPPC   GL112339  16.834   2.141   4.306 -0.3628 -0.0487  0.0737
    1DPPC   GL212340  16.731   2.438   4.362 -0.0714  0.0617 -0.2364
    1DPPC   C1A12341  16.849   2.066   4.737 -0.3310 -0.0576 -0.1706
    1DPPC   C2A12342  16.774   2.288   5.183 -0.3038 -0.2502  0.2402
    1DPPC   C3A12343  16.909   2.151   5.584  0.2422  0.1550 -0.0487
    1DPPC   C4A12344  17.204   1.780   5.696  0.1248  0.2744 -0.1031
    1DPPC   C1B12345  16.885   2.552   4.725  0.0518 -0.1628 -0.1421
    1DPPC   C2B12346  16.882   2.766   5.121 -0.1148 -0.0863 -0.1240
    1DPPC   C3B12347  17.014   3.108   5.428  0.2013 -0.2166 -0.1080
    1DPPC   C4B12348  17.310   3.201   5.715 -0.2093 -0.0161 -0.2668
    1DPPC   NC312349  13.757  10.638   3.535  0.0862 -0.0037 -0.1212
    1DPPC   PO412350  14.057  10.364   3.707  0.0080 -0.0796 -0.0905
    1DPPC   GL112351  13.725  10.546   4.055  0.1370 -0.0715 -0.0688
    1DPPC   GL212352  13.687  10.836   4.199  0.0982  0.0775 -0.3639
    1DPPC   C1A12353  13.394  10.484   4.344  0.0470  0.1607 -0.1102
    1DPPC   C2A12354  13.066  10.414   4.677  0.0680 -0.1947 -0.0254
    1DPPC   C3A12355  12.619  10.407   4.774 -0.0839  0.0725 -0.1119
    1DPPC   C4A12356  12.319  10.799   4.756 -0.1061  0.1312 -0.0141
    1DPPC   C1B12357  13.771  11.095   4.506 -0.1696 -0.0345 -0.0663
    1DPPC   C2B12358  14.044  10.984   4.831  0.3113  0.1604 -0.3037
    1DPPC   C3B12359  14.383  11.014   5.204  0.2279  0.2258  0.1267
    1DPPC   C4B12360  14.477  11.356   5.618  0.2169  0.0893 -0.3106
    1DPPC   NC312361  19.343  22.369   3.093 -0.1849  0.2731 -0.0839
    1DPPC   PO412362  19.785  22.169   3.058  0.2151  0.1968 -0.1228
    1DPPC   GL112363  19.900  22.214   3.407 -0.0018 -0.4321 -0.2381
    1DPPC   GL212364  20.221  22.217   3.553  0.1353 -0.3180  0.1575
    1DPPC   C1A12365  19.759  22.323   3.722  0.1984 -0.0354 -0.0762
    1DPPC   C2A12366  19.387  22.338   3.968  0.0052  0.2125 -0.3347
    1DPPC   C3A12367  19.143  22.255   4.157  0.0901  0.0206 -0.0346
    1DPPC   C4A12368  18.890  22.061   4.520 -0.4100 -0.0304 -0.0105
    1DPPC   C1B12369  20.420  22.517   3.727 -0.2148 -0.2279  0.1399
    1DPPC   C2B12370  20.537  22.660   4.015 -0.0646 -0.2366  0.0296
    1DPPC   C3B12371  20.724  22.502   4.351 -0.3295 -0.1205  0.0449
    1DPPC   C4B12372  21.081  22.351   4.563 -0.3730  0.2287 -0.1664
    1DPPC   NC312373   3.917  24.190   2.860 -0.2091  0.3654 -0.0319
    1DPPC   PO412374   3.575  24.439   2.975  0.0656  0.1356  0.2008
    1DPPC   GL112375   3.449  24.505   3.464  0.1823  0.1634  0.3739
    1DPPC   GL212376   3.660  24.713   3.660  0.3129  0.0734 -0.0420
    1DPPC   C1A12377   3.334  24.455   3.961  0.0154  0.1255  0.1118
    1DPPC   C2A12378   3.373  24.650   4.312 -0.2759  0.2030 -0.3723
    1DPPC   C3A12379   3.256  24.970   4.692  0.0799 -0.0850  0.0015
    1DPPC   C4A12380   2.870  25.196   4.870  0.1088  0.0729 -0.2448
    1DPPC   C1B12381   3.746  24.827   3.965  0.1693  0.0187 -0.0108
    1DPPC   C2B12382   3.825  25.028   4.336 -0.0999 -0.1586 -0.0349
    1DPPC   C3B12383   4.068  25.168   4.584 -0.1423 -0.0192  0.0566
    1DPPC   C4B12384   4.438  25.177   4.756 -0.2909 -0.1463 -0.2706
    1DPPC   NC312385   5.378   1.298   2.511 -0.1218  0.3131 -0.1816
    1DPPC   PO412386   5.305   0.822   2.577  0.1241  0.0229  0.1412
    1DPPC   GL112387   5.027   1.009   2.847 -0.1771 -0.0120  0.2089
    1DPPC   GL212388   5.274   1.102   3.019 -0.1358  0.0349  0.0150
    1DPPC   C1A12389   4.878   1.080   3.282 -0.1893  0.2673  0.0253
    1DPPC   C2A12390   4.771   0.911   3.715  0.2442  0.0463  0.0670
    1DPPC   C3A12391   4.811   0.876   4.176  0.0026 -0.1164 -0.1372
    1DPPC   C4A12392   4.838   0.747   4.519 -0.1705 -0.1011 -0.1320
    1DPPC   C1B12393   5.471   0.852   3.189 -0.1623  0.0215  0.0629
    1DPPC   C2B12394   5.759   0.958   3.529  0.0226 -0.0783  0.1137
    1DPPC   C3B12395   5.967   1.288   3.785 -0.0577 -0.0434  0.2723
    1DPPC   C4B12396   5.837   1.760   3.764  0.1008  0.0464  0.1431
    1DPPC   NC312397  19.387  19.928   3.376 -0.1104 -0.0125  0.1636
    1DPPC   PO412398  19.677  20.064   3.646 -0.1504 -0.0740  0.0012
    1DPPC   GL112399  19.499  19.887   3.899  0.3060  0.2466 -0.0145
    1DPPC   GL212400  19.162  19.891   3.839  0.2576 -0.1095 -0.0506
    1DPPC   C1A12401  19.441  19.648   4.236  0.1504  0.0310  0.0140
    1DPPC   C2A12402  19.490  19.584   4.723 -0.0477  0.2038  0.1943
    1DPPC   C3A12403  19.637  19.499   5.104 -0.0486 -0.0967  0.2343
    1DPPC   C4A12404  19.528  19.727   5.412 -0.0038  0.0661 -0.3014
    1DPPC   C1B12405  19.137  20.089   4.293 -0.1463 -0.1118  0.0203
    1DPPC   C2B12406  19.070  19.940   4.754 -0.1318  0.0431  0.0824
    1DPPC   C3B12407  19.058  19.930   5.237 -0.1474 -0.0083 -0.2821
    1DPPC   C4B12408  19.108  19.967   5.576  0.1073 -0.1523  0.2422
    1DPPC   NC312409  25.504  21.196   2.299  0.3314 -0.2324  0.0358
    1DPPC   PO412410  25.502  20.883   2.610  0.0121  0.1330 -0.0335
    1DPPC   GL112411  25.325  20.838   2.992 -0.1552 -0.0336  0.1838
    1DPPC   GL212412  25.261  20.562   3.109  0.1893  0.1255  0.1869
    1DPPC   C1A12413  25.375  20.953   3.413  0.0644 -0.0443  0.0638
    1DPPC   C2A12414  25.687  20.959   3.669 -0.3347 -0.0256  0.0693
    1DPPC   C3A12415  25.588  20.837   4.080 -0.0477  0.1684  0.2386
    1DPPC   C4A12416  25.397  21.118   4.394 -0.1455 -0.0764 -0.0367
    1DPPC   C1B12417  25.262  20.229   3.408 -0.1728 -0.1829  0.1643
    1DPPC   C2B12418  25.338  19.914   3.797  0.1498  0.3069 -0.1280
    1DPPC   C3B12419  25.147  19.735   4.130  0.2149 -0.3197  0.3539
    1DPPC   C4B12420  25.130  19.454   4.553 -0.0147  0.1292 -0.0868
    1DPPC   NC312421  27.404  19.763   2.915 -0.2015  0.2661 -0.0974
    1DPPC   PO412422  27.907  19.760   2.985 -0.1077  0.1525 -0.0942
    1DPPC   GL112423  28.099  20.058   3.294  0.0217  0.1735 -0.0286
    1DPPC   GL212424   0.283  19.919   3.366 -0.0606 -0.5916  0.0607
    1DPPC   C1A12425   0.190  20.345   3.551  0.0589  0.0796 -0.3226
    1DPPC   C2A12426   0.081  20.372   4.087 -0.1096  0.0442  0.0504
    1DPPC   C3A12427   0.095  20.225   4.512 -0.3525  0.1925  0.1377
    1DPPC   C4A12428   0.408  19.870   4.679 -0.0344 -0.0936 -0.3693
    1DPPC   C1B12429   0.146  19.834   3.798  0.1388 -0.0518 -0.2207
    1DPPC   C2B12430  28.062  19.905   4.115 -0.1579  0.2652 -0.0319
    1DPPC   C3B12431  28.037  19.728   4.504  0.1565  0.2059  0.1400
    1DPPC   C4B12432  27.768  19.819   4.871 -0.1858 -0.1217 -0.0441
    1DPPC   NC312433  10.485   6.758   3.167  0.0796 -0.1656 -0.0272
    1DPPC   PO412434  10.446   6.989   3.540 -0.2577  0.1716  0.1205
    1DPPC   GL112435  10.222   6.718   3.877 -0.0955 -0.2538 -0.2824
    1DPPC   GL212436  10.395   6.567   3.945 -0.0783 -0.1279 -0.1997
    1DPPC   C1A12437   9.963   6.654   4.161 -0.1335 -0.1810  0.1728
    1DPPC   C2A12438   9.776   6.629   4.615 -0.0487 -0.1997 -0.0307
    1DPPC   C3A12439   9.625   6.739   5.054  0.4655  0.3178  0.2414
    1DPPC   C4A12440   9.413   6.995   5.354 -0.0259  0.0365  0.0725
    1DPPC   C1B12441  10.358   6.718   4.396  0.2264  0.0455 -0.0780
    1DPPC   C2B12442  10.216   6.724   4.786 -0.2720 -0.0626 -0.2630
    1DPPC   C3B12443  10.159   6.699   5.129 -0.3179  0.0361  0.1341
    1DPPC   C4B12444   9.967   6.912   5.393  0.0700  0.0495  0.2087
    1DPPC   NC312445  11.758   1.719   3.022 -0.1096 -0.0470  0.3167
    1DPPC   PO412446  11.431   1.561   3.191 -0.3531  0.0513  0.0397
    1DPPC   GL112447  11.479   1.650   3.638  0.1720  0.4220 -0.1093
    1DPPC   GL212448  11.197   1.502   3.695  0.1402 -0.1091  0.3427
    1DPPC   C1A12449  11.488   1.821   3.978 -0.0172 -0.2582  0.1995
    1DPPC   C2A12450  11.214   1.845   4.325  0.1825 -0.0857 -0.2390
    1DPPC   C3A12451  11.104   2.122   4.707 -0.0257 -0.1090  0.0467
    1DPPC   C4A12452  10.921   2.315   4.946 -0.0057  0.0132 -0.3863
    1DPPC   C1B12453  11.057   1.463   4.038 -0.0772  0.0153 -0.3299
    1DPPC   C2B12454  10.831   1.511   4.430  0.1377 -0.0255  0.0927
    1DPPC   C3B12455  10.874   1.379   4.869  0.0816 -0.0724  0.1748
    1DPPC   C4B12456  11.128   1.169   5.148  0.1487 -0.1653 -0.2482
    1DPPC   NC312457   6.062  21.805   3.032 -0.1436 -0.1399  0.1510
    1DPPC   PO412458   6.058  21.641   3.421 -0.2447  0.1548  0.1758
    1DPPC   GL112459   5.922  21.749   3.775  0.3520 -0.0399  0.0549
    1DPPC   GL212460   5.603  21.726   3.868  0.2843  0.3006 -0.0388
    1DPPC   C1A12461   5.973  22.105   4.095 -0.2321  0.3165  0.3438
    1DPPC   C2A12462   6.367  22.313   4.311 -0.2615 -0.2183  0.0403
    1DPPC   C3A12463   6.588  22.488   4.690  0.0430  0.1708 -0.2211
    1DPPC   C4A12464   6.397  22.792   4.881 -0.1350 -0.0743 -0.0469
    1DPPC   C1B12465   5.661  21.697   4.255 -0.2120 -0.0246  0.1585
    1DPPC   C2B12466   5.697  21.369   4.574  0.1091 -0.1399 -0.0191
    1DPPC   C3B12467   5.465  21.071   4.863  0.0780  0.3555 -0.0755
    1DPPC   C4B12468   5.289  21.019   5.209 -0.4067  0.1146  0.3278
    1DPPC   NC312469  12.076  26.698   2.993 -0.1260 -0.2661  0.1872
    1DPPC   PO412470  12.427  26.849   3.329  0.2575 -0.0573  0.1646
    1DPPC   GL112471  12.027  26.828   3.573  0.0422  0.0369 -0.2316
    1DPPC   GL212472  11.871  27.123   3.695 -0.2107  0.2747 -0.0317
    1DPPC   C1A12473  11.614  26.674   3.624 -0.1781 -0.2163 -0.1966
    1DPPC   C2A12474  11.199  26.580   3.614 -0.2082 -0.0126 -0.1814
    1DPPC   C3A12475  10.857  26.665   3.560 -0.0192  0.1806  0.1853
    1DPPC   C4A12476  10.464  26.605   3.774 -0.0832 -0.1545  0.0608
    1DPPC   C1B12477  11.672  26.888   4.104  0.1331 -0.2902  0.0700
    1DPPC   C2B12478  11.656  26.543   4.427 -0.4168 -0.1590 -0.2448
    1DPPC   C3B12479  11.388  26.240   4.541  0.1030  0.2532  0.0400
    1DPPC   C4B12480  11.138  26.018   4.855 -0.3304  0.2940 -0.1366
    1DPPC   NC312481  25.588   8.653   2.680 -0.1067 -0.1939 -0.1559
    1DPPC   PO412482  26.029   8.526   2.751 -0.1837 -0.0134  0.2863
    1DPPC   GL112483  26.041   8.543   3.248 -0.3539 -0.1335  0.1475
    1DPPC   GL212484  25.775   8.798   3.234  0.1936 -0.3590  0.2571
    1DPPC   C1A12485  26.064   8.259   3.509  0.0093  0.0821  0.0479
    1DPPC   C2A12486  26.125   8.083   3.851  0.2550 -0.1768 -0.0321
    1DPPC   C3A12487  25.947   7.872   4.128  0.0519 -0.1381  0.0483
    1DPPC   C4A12488  26.104   7.650   4.452  0.0449 -0.5207  0.0310
    1DPPC   C1B12489  25.984   8.908   3.709  0.1640 -0.0681  0.1778
    1DPPC   C2B12490  26.138   8.624   4.024  0.1392  0.2705  0.1910
    1DPPC   C3B12491  26.351   8.602   4.325  0.1173 -0.0483  0.0010
    1DPPC   C4B12492  26.719   8.435   4.500 -0.0182 -0.1889  0.1404
    1DPPC   NC312493  14.936   3.116   3.251 -0.1057  0.1788  0.1190
    1DPPC   PO412494  14.727   2.919   3.606 -0.0788  0.0601 -0.0435
    1DPPC   GL112495  14.746   3.195   3.979 -0.1160 -0.3203  0.0910
    1DPPC   GL212496  14.657   3.571   3.952 -0.1003 -0.0324  0.1875
    1DPPC   C1A12497  14.714   3.146   4.428  0.1660 -0.3419  0.3244
    1DPPC   C2A12498  14.694   3.007   4.872 -0.1030  0.1314  0.2668
    1DPPC   C3A12499  14.920   2.912   5.345 -0.1850 -0.1372 -0.1406
    1DPPC   C4A12500  15.230   3.104   5.612  0.1983 -0.0007  0.0246
    1DPPC   C1B12501  14.573   3.609   4.410 -0.0589  0.0732 -0.0737
    1DPPC   C2B12502  14.427   3.450   4.865 -0.0641 -0.0506  0.4895
    1DPPC   C3B12503  14.354   3.204   5.246 -0.1644  0.0492  0.0138
    1DPPC   C4B12504  14.194   3.184   5.699 -0.1542 -0.0651  0.1212
    1DPPC   NC312505  12.296   5.000   3.554 -0.0717  0.3636  0.0085
    1DPPC   PO412506  11.979   5.209   3.640  0.2436 -0.0302 -0.1615
    1DPPC   GL112507  11.759   5.201   4.009 -0.0542  0.1629 -0.1548
    1DPPC   GL212508  11.667   4.810   4.104  0.4786 -0.3999 -0.3312
    1DPPC   C1A12509  11.604   5.264   4.399  0.1457  0.1306  0.0941
    1DPPC   C2A12510  11.652   5.400   4.739  0.0671  0.1324 -0.0842
    1DPPC   C3A12511  11.766   5.243   5.134 -0.2310 -0.1027  0.2295
    1DPPC   C4A12512  11.599   5.134   5.430 -0.0184 -0.1190  0.2860
    1DPPC   C1B12513  11.884   4.538   4.406  0.0411 -0.0667 -0.0631
    1DPPC   C2B12514  11.860   4.493   4.825 -0.0077  0.1780  0.1059
    1DPPC   C3B12515  11.721   4.660   5.195  0.0675  0.0337  0.0307
    1DPPC   C4B12516  11.743   4.661   5.681  0.0926 -0.1544  0.2369
    1DPPC   NC312517  11.224  19.892   2.815 -0.1283  0.1058  0.0129
    1DPPC   PO412518  10.836  19.898   3.128 -0.0520 -0.0656  0.0774
    1DPPC   GL112519  10.887  19.980   3.610 -0.0691 -0.1014 -0.2227
    1DPPC   GL212520  10.705  19.862   3.826  0.2115 -0.3370 -0.0998
    1DPPC   C1A12521  11.094  20.153   4.000 -0.1092  0.2083 -0.1043
    1DPPC   C2A12522  11.169  20.331   4.409 -0.0064  0.1244 -0.1069
    1DPPC   C3A12523  11.542  20.449   4.658  0.4985  0.0068  0.1177
    1DPPC   C4A12524  11.745  20.736   4.828  0.1693 -0.2903  0.2126
    1DPPC   C1B12525  10.958  19.508   3.933  0.0627 -0.0640  0.1988
    1DPPC   C2B12526  11.087  19.160   4.287  0.1535 -0.0510 -0.0260
    1DPPC   C3B12527  11.031  18.996   4.696  0.0116  0.2106 -0.3628
    1DPPC   C4B12528  10.827  19.117   5.084 -0.0597 -0.1186 -0.1241
    1DPPC   NC312529   3.058   1.085   2.246  0.1240 -0.0558  0.1080
    1DPPC   PO412530   2.913   0.677   2.308 -0.0516  0.2241  0.2617
    1DPPC   GL112531   2.862   0.691   2.669 -0.1342 -0.0325  0.0388
    1DPPC   GL212532   3.061   0.933   2.779  0.1171  0.0577 -0.1839
    1DPPC   C1A12533   2.891   0.670   3.167  0.0458  0.1061  0.1168
    1DPPC   C2A12534   2.780   0.543   3.664  0.0996  0.0209 -0.0456
    1DPPC   C3A12535   2.670   0.654   4.146 -0.2166  0.3089  0.0176
    1DPPC   C4A12536   2.491   0.932   4.376  0.2183  0.2063  0.0806
    1DPPC   C1B12537   3.004   1.269   3.072 -0.0365  0.3416 -0.1891
    1DPPC   C2B12538   3.235   1.451   3.451 -0.1904 -0.0424 -0.0708
    1DPPC   C3B12539   3.144   1.237   3.808 -0.2121  0.2346 -0.1046
    1DPPC   C4B12540   3.023   0.860   3.858  0.0735 -0.1201  0.0972
    1DPPC   NC312541  15.855  12.171   3.333 -0.0891  0.3038  0.0011
    1DPPC   PO412542  15.703  11.994   3.697 -0.3021 -0.0106  0.0980
    1DPPC   GL112543  15.642  12.113   4.158  0.0446 -0.0288 -0.1360
    1DPPC   GL212544  15.383  12.336   4.242  0.1813  0.1448  0.1085
    1DPPC   C1A12545  15.594  12.012   4.592 -0.1879 -0.1473 -0.1855
    1DPPC   C2A12546  15.574  12.201   4.947 -0.0853  0.1397  0.3742
    1DPPC   C3A12547  15.852  12.135   5.263  0.1594  0.2393 -0.0389
    1DPPC   C4A12548  16.063  12.127   5.657 -0.0751 -0.0606  0.3050
    1DPPC   C1B12549  15.111  12.158   4.480  0.3736 -0.2008 -0.1315
    1DPPC   C2B12550  14.833  12.313   4.789 -0.2560 -0.0757  0.1048
    1DPPC   C3B12551  14.750  12.197   5.159  0.0883  0.1902 -0.2067
    1DPPC   C4B12552  14.468  11.979   5.425 -0.3146 -0.0998 -0.3114
    1DPPC   NC312553  11.347   7.220   3.793 -0.1302  0.2008 -0.1856
    1DPPC   PO412554  11.343   6.801   3.817  0.2120 -0.3109 -0.2754
    1DPPC   GL112555  11.296   6.773   4.209 -0.2477  0.0612 -0.2212
    1DPPC   GL212556  11.355   7.016   4.274 -0.0951 -0.1067 -0.1714
    1DPPC   C1A12557  11.433   6.605   4.587 -0.4289  0.0142 -0.2939
    1DPPC   C2A12558  11.324   6.736   4.990  0.2079 -0.1780 -0.0783
    1DPPC   C3A12559  11.370   6.784   5.400 -0.1880 -0.0557  0.1724
    1DPPC   C4A12560  11.358   6.761   5.813 -0.1223  0.0098  0.1036
    1DPPC   C1B12561  11.446   7.116   4.675  0.0970  0.2072 -0.1637
    1DPPC   C2B12562  11.514   7.212   5.030 -0.2378  0.1390  0.0735
    1DPPC   C3B12563  11.760   7.321   5.271  0.5339 -0.1651  0.0005
    1DPPC   C4B12564  11.937   7.480   5.610  0.0270 -0.0382  0.1582
    1DPPC   NC312565  25.989  15.081   2.314 -0.1018  0.0828  0.2219
    1DPPC   PO412566  26.227  14.806   2.508 -0.1259 -0.0718 -0.0245
    1DPPC   GL112567  25.963  14.886   2.852 -0.1220 -0.3312  0.1993
    1DPPC   GL212568  26.247  14.927   3.031 -0.0459 -0.0789 -0.0907
    1DPPC   C1A12569  25.676  14.733   3.167 -0.2353  0.2487  0.3411
    1DPPC   C2A12570  25.764  14.806   3.629 -0.0081 -0.2774 -0.0206
    1DPPC   C3A12571  25.770  14.871   4.125 -0.2118  0.2690  0.1717
    1DPPC   C4A12572  25.559  14.574   4.407  0.0699  0.2273  0.3255
    1DPPC   C1B12573  25.975  15.140   3.310 -0.2154  0.4291 -0.0471
    1DPPC   C2B12574  25.674  15.335   3.609 -0.4393 -0.0291  0.0750
    1DPPC   C3B12575  25.697  15.415   4.111 -0.1804  0.3502 -0.1905
    1DPPC   C4B12576  25.640  15.597   4.521 -0.0098  0.1481 -0.0234
    1DPPC   NC312577  10.928   7.848   3.588 -0.0562 -0.0619 -0.0250
    1DPPC   PO412578  11.326   7.705   3.685 -0.1419 -0.3312  0.2018
    1DPPC   GL112579  11.385   7.723   4.102 -0.0028  0.1510  0.0895
    1DPPC   GL212580  11.473   7.487   4.296  0.1480 -0.0360 -0.0851
    1DPPC   C1A12581  11.257   8.010   4.412 -0.0067 -0.1623 -0.3022
    1DPPC   C2A12582  11.189   8.037   4.915 -0.1427 -0.1075  0.1936
    1DPPC   C3A12583  11.009   7.980   5.328 -0.0934  0.0437 -0.1216
    1DPPC   C4A12584  10.584   8.193   5.373  0.0791  0.2948 -0.0580
    1DPPC   C1B12585  11.221   7.553   4.694  0.1381 -0.1349  0.0213
    1DPPC   C2B12586  11.295   7.589   5.154 -0.2800  0.3108 -0.0689
    1DPPC   C3B12587  11.353   7.262   5.504 -0.3713 -0.1879 -0.3866
    1DPPC   C4B12588  11.452   7.215   5.923 -0.0464 -0.2500  0.0097
    1DPPC   NC312589   3.036   3.125   1.866  0.2294 -0.2084 -0.3483
    1DPPC   PO412590   3.411   3.228   2.113 -0.1474  0.0783 -0.1330
    1DPPC   GL112591   3.099   3.313   2.464 -0.0869  0.2312 -0.2783
    1DPPC   GL212592   2.704   3.201   2.370 -0.1668  0.2374 -0.0033
    1DPPC   C1A12593   2.849   3.512   2.702 -0.0745  0.0564 -0.1607
    1DPPC   C2A12594   2.535   3.606   3.051  0.3005 -0.3529  0.0731
    1DPPC   C3A12595   2.548   3.632   3.543  0.0740 -0.0388  0.0665
    1DPPC   C4A12596   2.600   3.712   3.945 -0.0306  0.1391 -0.1883
    1DPPC   C1B12597   2.523   3.072   2.814  0.0772  0.0964 -0.0907
    1DPPC   C2B12598   2.474   3.057   3.307 -0.2757  0.2495  0.0652
    1DPPC   C3B12599   2.829   3.006   3.560 -0.0115  0.0077 -0.0468
    1DPPC   C4B12600   2.869   3.269   3.877 -0.0476 -0.1482  0.4122
    1DPPC   NC312601   9.003  18.707   3.338 -0.2940 -0.0141  0.2693
    1DPPC   PO412602   9.043  18.610   3.775 -0.1333  0.3171 -0.1596
    1DPPC   GL112603   9.251  18.372   4.065 -0.2416  0.0553  0.0310
    1DPPC   GL212604   9.122  18.518   4.316  0.2643  0.2796 -0.0819
    1DPPC   C1A12605   9.415  18.065   4.409  0.0040  0.2371  0.0507
    1DPPC   C2A12606   9.256  17.802   4.703  0.0433 -0.2327 -0.4879
    1DPPC   C3A12607   9.042  17.732   5.216  0.0309 -0.0576  0.2842
    1DPPC   C4A12608   9.077  17.692   5.557  0.1370 -0.0788 -0.2244
    1DPPC   C1B12609   9.422  18.559   4.571 -0.0465  0.1324  0.0165
    1DPPC   C2B12610   9.681  18.685   4.828  0.3256 -0.2870  0.1450
    1DPPC   C3B12611   9.917  18.872   5.160 -0.0224 -0.2063  0.0001
    1DPPC   C4B12612   9.972  19.090   5.402  0.2041 -0.0207 -0.4379
    1DPPC   NC312613  12.561   8.281   3.678 -0.0765  0.0878  0.1909
    1DPPC   PO412614  12.865   8.110   3.512 -0.1156  0.0741 -0.3038
    1DPPC   GL112615  13.092   8.369   3.744  0.0599  0.0810 -0.0658
    1DPPC   GL212616  12.914   8.500   3.987 -0.1663  0.0874  0.0487
    1DPPC   C1A12617  13.362   8.555   4.042 -0.0328  0.1416 -0.0918
    1DPPC   C2A12618  13.509   8.400   4.313 -0.2937 -0.1475  0.1411
    1DPPC   C3A12619  13.650   8.600   4.595 -0.3053 -0.1244 -0.1111
    1DPPC   C4A12620  14.014   8.726   4.671 -0.0609  0.0009  0.1307
    1DPPC   C1B12621  12.666   8.404   4.477 -0.2168 -0.1936  0.0418
    1DPPC   C2B12622  12.609   8.345   4.889  0.3771  0.0823 -0.0786
    1DPPC   C3B12623  12.535   8.543   5.257  0.0106 -0.0404  0.1844
    1DPPC   C4B12624  12.210   8.772   5.350 -0.1348 -0.1045  0.0090
    1DPPC   NC312625   6.982  18.180   3.785  0.0716  0.2043  0.1012
    1DPPC   PO412626   7.260  17.981   3.818 -0.1867 -0.0823 -0.1704
    1DPPC   GL112627   7.324  18.172   4.243  0.1308  0.1632  0.0509
    1DPPC   GL212628   7.288  18.554   4.208  0.0102  0.6214  0.1625
    1DPPC   C1A12629   7.244  17.956   4.601  0.1079  0.0136 -0.0135
    1DPPC   C2A12630   7.198  18.069   5.097 -0.0645  0.0829  0.0160
    1DPPC   C3A12631   7.174  17.935   5.533  0.0291 -0.1635 -0.0048
    1DPPC   C4A12632   7.061  17.986   5.980 -0.2861 -0.1388 -0.0394
    1DPPC   C1B12633   7.332  18.416   4.727 -0.1116 -0.2819  0.1507
    1DPPC   C2B12634   6.968  18.523   4.953 -0.0602 -0.0208  0.3031
    1DPPC   C3B12635   6.848  18.408   5.418 -0.1750 -0.0454 -0.2356
    1DPPC   C4B12636   6.879  18.542   5.899 -0.2675  0.1376  0.1544
    1DPPC   NC312637  26.252  10.326   2.896 -0.2140  0.2390 -0.3741
    1DPPC   PO412638  25.972  10.665   3.096  0.0251  0.0837 -0.0602
    1DPPC   GL112639  26.048  10.859   3.466  0.2140  0.1636 -0.1325
    1DPPC   GL212640  26.363  11.033   3.579  0.1581 -0.1632  0.0684
    1DPPC   C1A12641  25.978  10.897   3.935 -0.2464  0.0860  0.2716
    1DPPC   C2A12642  25.836  10.832   4.268 -0.4751 -0.1589  0.0391
    1DPPC   C3A12643  25.996  10.939   4.623  0.1625  0.0869  0.1425
    1DPPC   C4A12644  26.111  10.956   5.095 -0.1633  0.2406  0.2443
    1DPPC   C1B12645  26.440  11.238   3.927  0.0620  0.2457 -0.1372
    1DPPC   C2B12646  26.287  11.512   4.240  0.0522 -0.1224  0.1764
    1DPPC   C3B12647  26.013  11.836   4.216 -0.1542 -0.0434  0.2586
    1DPPC   C4B12648  25.597  11.919   4.015  0.0863 -0.2081 -0.0300
    1DPPC   NC312649  14.577  15.344   3.853 -0.0554 -0.1157 -0.1452
    1DPPC   PO412650  15.022  15.540   3.921  0.1455  0.1148 -0.1907
    1DPPC   GL112651  15.024  15.472   4.366  0.0229 -0.2257  0.2050
    1DPPC   GL212652  14.683  15.265   4.325  0.1496 -0.1235 -0.3343
    1DPPC   C1A12653  15.039  15.521   4.840 -0.2286 -0.2266 -0.0888
    1DPPC   C2A12654  15.105  15.644   5.189 -0.0826 -0.0690  0.0623
    1DPPC   C3A12655  14.736  15.665   5.542  0.2137  0.1679  0.2230
    1DPPC   C4A12656  14.459  15.907   5.717 -0.1361  0.3227 -0.3329
    1DPPC   C1B12657  14.632  14.949   4.658  0.0979 -0.1896  0.0705
    1DPPC   C2B12658  14.555  14.699   5.061 -0.1421  0.0257 -0.0667
    1DPPC   C3B12659  14.410  14.717   5.449 -0.1319  0.4079 -0.2921
    1DPPC   C4B12660  14.007  14.598   5.465  0.1866  0.0435  0.2225
    1DPPC   NC312661   5.258  15.553   3.570 -0.1110 -0.0378  0.1846
    1DPPC   PO412662   5.668  15.625   3.608 -0.0747 -0.2058 -0.1094
    1DPPC   GL112663   5.574  15.366   3.909  0.0696 -0.0707 -0.1677
    1DPPC   GL212664   5.780  15.161   3.979 -0.3924  0.0622 -0.1780
    1DPPC   C1A12665   5.494  15.585   4.224 -0.1670  0.0092 -0.2227
    1DPPC   C2A12666   5.231  15.315   4.588 -0.1011  0.0888 -0.1758
    1DPPC   C3A12667   5.043  15.373   5.000 -0.1335  0.1571 -0.1131
    1DPPC   C4A12668   5.174  15.724   5.104 -0.2882  0.1495  0.0089
    1DPPC   C1B12669   5.685  15.115   4.406 -0.0879  0.0607  0.2089
    1DPPC   C2B12670   5.964  14.965   4.774  0.2292  0.0404  0.2251
    1DPPC   C3B12671   6.221  15.161   5.024 -0.1663  0.1203 -0.1270
    1DPPC   C4B12672   6.459  15.041   5.402  0.3111 -0.2280  0.1480
    1DPPC   NC312673   8.371   1.675   2.836  0.0668 -0.1550 -0.1628
    1DPPC   PO412674   8.044   1.978   2.895 -0.2199 -0.2283  0.1997
    1DPPC   GL112675   8.151   1.848   3.293  0.1479  0.0941  0.4526
    1DPPC   GL212676   7.822   1.955   3.412 -0.2929 -0.0777 -0.2519
    1DPPC   C1A12677   8.036   1.596   3.727  0.1486 -0.0888  0.1320
    1DPPC   C2A12678   7.959   1.508   4.060 -0.1338 -0.1046 -0.0982
    1DPPC   C3A12679   8.174   1.462   4.458  0.1252 -0.0527  0.1749
    1DPPC   C4A12680   8.075   1.241   4.790  0.1169  0.0908  0.0436
    1DPPC   C1B12681   7.676   1.942   3.911 -0.2532  0.2758  0.0787
    1DPPC   C2B12682   7.444   1.622   4.266  0.0647 -0.3313  0.1626
    1DPPC   C3B12683   7.170   1.289   4.317 -0.3335 -0.0856  0.1182
    1DPPC   C4B12684   6.734   1.159   4.094  0.0080  0.0341  0.0088
    1DPPC   NC312685   2.899   8.381   2.339 -0.1031  0.1198  0.1681
    1DPPC   PO412686   3.148   8.121   2.597 -0.0702 -0.4253 -0.0528
    1DPPC   GL112687   3.073   8.261   2.970 -0.0434  0.0585 -0.2325
    1DPPC   GL212688   3.199   8.522   3.108  0.0307 -0.0582  0.0993
    1DPPC   C1A12689   3.028   8.044   3.413 -0.0601 -0.3625 -0.0896
    1DPPC   C2A12690   3.272   7.977   3.778 -0.1348  0.1940  0.0911
    1DPPC   C3A12691   3.526   7.744   4.143 -0.1833 -0.1539 -0.1108
    1DPPC   C4A12692   3.857   7.375   4.231  0.1695  0.0100  0.1270
    1DPPC   C1B12693   3.123   8.523   3.544 -0.1002  0.2130 -0.0353
    1DPPC   C2B12694   3.059   8.388   3.970  0.1013 -0.2231  0.0220
    1DPPC   C3B12695   2.894   8.472   4.321  0.0051  0.3145  0.1950
    1DPPC   C4B12696   2.819   8.563   4.758  0.1176  0.0502 -0.1762
    1DPPC   NC312697   7.588   1.923   2.766 -0.0133  0.0745  0.2442
    1DPPC   PO412698   7.280   2.252   2.732  0.0173 -0.4835  0.0637
    1DPPC   GL112699   7.173   2.173   3.100  0.0141 -0.0349 -0.0364
    1DPPC   GL212700   7.168   1.876   3.045  0.0661 -0.0567  0.1034
    1DPPC   C1A12701   6.931   2.121   3.546  0.1372 -0.0605 -0.0192
    1DPPC   C2A12702   6.793   2.190   3.897 -0.1049 -0.1493 -0.3449
    1DPPC   C3A12703   6.672   2.152   4.311 -0.2022 -0.2226  0.0169
    1DPPC   C4A12704   6.398   1.907   4.489  0.2919  0.0161 -0.1090
    1DPPC   C1B12705   7.380   1.834   3.460 -0.1595 -0.1228  0.1086
    1DPPC   C2B12706   7.546   1.458   3.716 -0.1437  0.0323  0.1076
    1DPPC   C3B12707   7.594   1.134   4.086  0.1253  0.1044 -0.1303
    1DPPC   C4B12708   7.644   1.228   4.542  0.0689 -0.2650 -0.1788
    1DPPC   NC312709   9.088   3.215   3.126  0.0895 -0.0944  0.1252
    1DPPC   PO412710   9.470   2.955   3.193  0.1110  0.1824 -0.3576
    1DPPC   GL112711   9.405   3.189   3.569  0.0405 -0.2152 -0.2105
    1DPPC   GL212712   9.178   3.528   3.567  0.1105 -0.2095 -0.1268
    1DPPC   C1A12713   9.112   3.119   3.913  0.1837  0.2046 -0.0633
    1DPPC   C2A12714   9.084   2.931   4.322 -0.1008 -0.1803 -0.4855
    1DPPC   C3A12715   9.097   2.624   4.527  0.1025  0.1410  0.0941
    1DPPC   C4A12716   8.716   2.333   4.682  0.0449 -0.2726  0.3012
    1DPPC   C1B12717   9.141   3.650   3.977 -0.0089 -0.0733 -0.2552
    1DPPC   C2B12718   9.115   3.660   4.438  0.1316  0.2785  0.0187
    1DPPC   C3B12719   9.065   3.951   4.783  0.0470 -0.1301 -0.0154
    1DPPC   C4B12720   8.968   4.115   5.122  0.0113 -0.1766 -0.2944
    1DPPC   NC312721   0.663  20.758   2.045 -0.0059 -0.1377 -0.0343
    1DPPC   PO412722   0.572  20.559   2.518  0.2255 -0.0180  0.0619
    1DPPC   GL112723   0.519  20.808   2.908 -0.1571  0.2205 -0.3772
    1DPPC   GL212724   0.546  21.115   2.865  0.6597 -0.0363  0.2733
    1DPPC   C1A12725   0.566  20.602   3.281 -0.0309  0.0861 -0.0624
    1DPPC   C2A12726   0.675  20.534   3.722 -0.2477 -0.1383  0.0999
    1DPPC   C3A12727   0.526  20.244   3.949  0.1556 -0.1539 -0.0358
    1DPPC   C4A12728   0.403  19.939   4.177 -0.3822 -0.0528 -0.0410
    1DPPC   C1B12729   0.586  21.354   3.050  0.3230 -0.2531 -0.0187
    1DPPC   C2B12730   0.575  21.311   3.499  0.0948 -0.3607  0.0273
    1DPPC   C3B12731   0.503  21.443   3.933  0.0638 -0.0485  0.0385
    1DPPC   C4B12732   0.161  21.617   3.830  0.0741 -0.1801 -0.0591
    1DPPC   NC312733  13.128   6.632   3.375 -0.1858  0.0974 -0.0493
    1DPPC   PO412734  12.900   6.202   3.498  0.0773  0.3840 -0.2381
    1DPPC   GL112735  13.030   5.935   3.869  0.1652 -0.0042 -0.3851
    1DPPC   GL212736  12.961   5.615   3.918  0.3191 -0.5079 -0.1483
    1DPPC   C1A12737  12.901   6.034   4.358  0.0474 -0.0238 -0.4122
    1DPPC   C2A12738  13.089   5.992   4.768  0.1191  0.1186 -0.2254
    1DPPC   C3A12739  12.886   6.169   5.132 -0.0703  0.1955 -0.1171
    1DPPC   C4A12740  12.554   6.225   5.506 -0.1058 -0.1544  0.2220
    1DPPC   C1B12741  13.095   5.511   4.268 -0.2465  0.3409  0.0210
    1DPPC   C2B12742  13.139   5.373   4.681  0.0881 -0.2952 -0.4649
    1DPPC   C3B12743  13.086   5.389   5.143 -0.1635  0.0820 -0.1181
    1DPPC   C4B12744  12.830   5.498   5.462  0.1337  0.0359 -0.0938
    1DPPC   NC312745   4.765  21.775   3.043 -0.2956 -0.1266 -0.2667
    1DPPC   PO412746   4.421  21.694   3.257  0.1124  0.1963  0.3071
    1DPPC   GL112747   4.290  21.849   3.650  0.4116 -0.1399 -0.0902
    1DPPC   GL212748   4.150  22.056   3.577 -0.1305 -0.0017 -0.1215
    1DPPC   C1A12749   4.340  22.243   4.009  0.0924  0.0115 -0.3439
    1DPPC   C2A12750   4.142  22.368   4.363  0.1000  0.0414 -0.1818
    1DPPC   C3A12751   4.147  22.414   4.862 -0.0299  0.1840 -0.1280
    1DPPC   C4A12752   4.230  22.651   5.188  0.0362 -0.2631  0.1526
    1DPPC   C1B12753   3.880  21.991   3.939  0.2401  0.1476 -0.0819
    1DPPC   C2B12754   3.943  21.934   4.399  0.1378 -0.1253  0.1470
    1DPPC   C3B12755   4.300  21.900   4.750  0.0495 -0.2460  0.0994
    1DPPC   C4B12756   4.516  22.127   5.145  0.0075 -0.2049 -0.2953
    1DPPC   NC312757  24.260   7.651   3.045  0.0837 -0.1965  0.0363
    1DPPC   PO412758  24.194   8.061   3.060 -0.0536 -0.2138 -0.2250
    1DPPC   GL112759  24.580   8.033   3.278 -0.2449 -0.0926  0.0473
    1DPPC   GL212760  24.748   7.772   3.159 -0.0752  0.1647 -0.2666
    1DPPC   C1A12761  24.603   7.846   3.665 -0.0497 -0.1727  0.0403
    1DPPC   C2A12762  24.501   7.516   3.918  0.2580  0.0262 -0.1124
    1DPPC   C3A12763  24.655   7.178   4.092 -0.2809  0.1427  0.0730
    1DPPC   C4A12764  24.958   7.064   4.336 -0.0650 -0.2473 -0.2962
    1DPPC   C1B12765  25.052   8.014   3.408 -0.1697 -0.0489  0.0874
    1DPPC   C2B12766  25.155   8.118   3.844  0.0581  0.3164 -0.0537
    1DPPC   C3B12767  25.310   7.954   4.249  0.2701  0.0992  0.0899
    1DPPC   C4B12768  25.575   7.704   4.453  0.2808 -0.0271  0.3505
    1DPPC   NC312769   7.335  25.594   2.436  0.1176 -0.2671  0.2024
    1DPPC   PO412770   7.204  25.282   2.664  0.0585  0.0997 -0.0045
    1DPPC   GL112771   7.200  25.254   3.087  0.1453 -0.0172  0.2913
    1DPPC   GL212772   7.498  25.441   3.334 -0.0987 -0.1432  0.2398
    1DPPC   C1A12773   6.949  25.251   3.421  0.3093 -0.0110 -0.0609
    1DPPC   C2A12774   6.973  25.238   3.831 -0.0765 -0.1178 -0.0566
    1DPPC   C3A12775   7.294  25.370   4.191 -0.1303  0.1278  0.2765
    1DPPC   C4A12776   7.587  25.044   4.552 -0.1394 -0.0231 -0.0532
    1DPPC   C1B12777   7.312  25.642   3.725  0.2212  0.1569 -0.0454
    1DPPC   C2B12778   7.519  25.863   4.043  0.2654 -0.2111 -0.2179
    1DPPC   C3B12779   7.441  26.244   4.252  0.1379 -0.1279 -0.2174
    1DPPC   C4B12780   7.471  26.621   4.440  0.1667 -0.0738  0.0163
    1DPPC   NC312781  12.907   4.200   3.578 -0.3546  0.1738 -0.4131
    1DPPC   PO412782  12.904   3.761   3.750 -0.3512  0.4597  0.0692
    1DPPC   GL112783  13.003   3.881   4.134 -0.2203  0.1640 -0.1664
    1DPPC   GL212784  12.796   4.154   4.198  0.0298  0.0562 -0.3320
    1DPPC   C1A12785  13.157   3.927   4.599  0.1378  0.4023  0.1748
    1DPPC   C2A12786  13.494   3.820   4.805  0.0476 -0.1790 -0.0369
    1DPPC   C3A12787  13.515   3.651   5.341  0.2323 -0.2638  0.3377
    1DPPC   C4A12788  13.114   3.771   5.553 -0.3458  0.0198 -0.2026
    1DPPC   C1B12789  12.654   3.968   4.574 -0.6742 -0.1063 -0.1030
    1DPPC   C2B12790  12.493   3.934   5.028  0.0618 -0.1027 -0.1426
    1DPPC   C3B12791  12.607   4.004   5.340  0.1163 -0.1775 -0.2120
    1DPPC   C4B12792  12.716   4.247   5.642 -0.0915 -0.1659 -0.1868
    1DPPC   NC312793  24.560   5.008   2.840  0.0507  0.1303 -0.1102
    1DPPC   PO412794  24.977   5.007   3.097  0.0976 -0.1098 -0.0220
    1DPPC   GL112795  24.961   4.868   3.423  0.0748 -0.2020  0.1505
    1DPPC   GL212796  24.848   4.548   3.564  0.1099 -0.3051  0.3593
    1DPPC   C1A12797  25.006   5.092   3.797  0.1113 -0.3584 -0.0997
    1DPPC   C2A12798  25.061   5.159   4.285  0.4473 -0.0815  0.1677
    1DPPC   C3A12799  24.815   5.314   4.546 -0.3005 -0.1304 -0.0251
    1DPPC   C4A12800  24.723   5.097   4.927 -0.2958 -0.0122 -0.0062
    1DPPC   C1B12801  25.058   4.640   3.947 -0.4050  0.2532  0.0765
    1DPPC   C2B12802  25.205   4.623   4.342 -0.2879 -0.1417 -0.0866
    1DPPC   C3B12803  25.345   4.487   4.627 -0.1574  0.0952 -0.2515
    1DPPC   C4B12804  25.231   4.305   5.066  0.1882  0.0299  0.3415
    1DPPC   NC312805   8.268   9.810   3.760 -0.2194 -0.0130 -0.1920
    1DPPC   PO412806   8.345  10.330   3.722 -0.2646  0.2493  0.0875
    1DPPC   GL112807   8.107  10.310   4.039  0.0341 -0.1331  0.2103
    1DPPC   GL212808   8.056   9.981   4.185 -0.2169 -0.2085 -0.0652
    1DPPC   C1A12809   7.985  10.371   4.489  0.3553 -0.0679  0.0413
    1DPPC   C2A12810   7.712  10.605   4.737 -0.0337  0.2440  0.0042
    1DPPC   C3A12811   7.525  10.859   4.922 -0.2233  0.0700 -0.0270
    1DPPC   C4A12812   7.172  11.058   5.098  0.0167  0.0362  0.0864
    1DPPC   C1B12813   8.264   9.994   4.546  0.1003  0.1619  0.0118
    1DPPC   C2B12814   8.608  10.143   4.753  0.1655  0.1316 -0.0354
    1DPPC   C3B12815   8.800  10.370   5.109  0.0924 -0.1213 -0.3965
    1DPPC   C4B12816   9.005  10.877   5.121 -0.1576  0.1534 -0.1473
    1DPPC   NC312817  23.766   4.145   2.662 -0.0077 -0.0464  0.2232
    1DPPC   PO412818  23.939   4.144   3.062 -0.1256  0.2675  0.2249
    1DPPC   GL112819  23.688   4.139   3.415 -0.0680 -0.2300 -0.1937
    1DPPC   GL212820  23.457   4.446   3.450  0.0925  0.2324  0.0359
    1DPPC   C1A12821  23.710   4.282   3.809 -0.0676  0.0112  0.0188
    1DPPC   C2A12822  24.038   4.417   4.093 -0.1198  0.1155  0.3131
    1DPPC   C3A12823  24.225   4.601   4.518 -0.0856 -0.1178 -0.0354
    1DPPC   C4A12824  24.116   4.792   4.908  0.2566  0.0728 -0.2620
    1DPPC   C1B12825  23.327   4.577   3.875  0.0053  0.1807  0.1158
    1DPPC   C2B12826  23.526   4.346   4.261 -0.1145 -0.0277 -0.1680
    1DPPC   C3B12827  23.380   4.216   4.617  0.1194  0.1064 -0.1920
    1DPPC   C4B12828  23.192   4.216   5.037  0.0646  0.3337 -0.3021
    1DPPC   NC312829   9.793   3.930   3.449  0.2057 -0.2235  0.2706
    1DPPC   PO412830   9.801   4.365   3.720  0.1212 -0.1490 -0.2230
    1DPPC   GL112831   9.644   4.315   4.090  0.0030  0.0622  0.3861
    1DPPC   GL212832   9.308   4.254   4.097  0.2201 -0.1092 -0.1586
    1DPPC   C1A12833   9.639   4.339   4.530  0.3819  0.0190 -0.0198
    1DPPC   C2A12834   9.411   4.323   4.952 -0.2931  0.1593 -0.2908
    1DPPC   C3A12835   9.512   4.418   5.354 -0.0950 -0.2248 -0.0370
    1DPPC   C4A12836   9.370   4.451   5.809  0.0919  0.1547 -0.0427
    1DPPC   C1B12837   9.111   4.308   4.411  0.2530  0.1412  0.1410
    1DPPC   C2B12838   9.028   4.576   4.816 -0.2460 -0.0801 -0.2980
    1DPPC   C3B12839   8.967   4.629   5.270 -0.0358 -0.0140 -0.0226
    1DPPC   C4B12840   8.907   4.538   5.588 -0.0241  0.2472  0.0135
    1DPPC   NC312841  16.309  12.789   3.785 -0.0086 -0.1515 -0.1341
    1DPPC   PO412842  16.288  12.403   3.572  0.0545  0.0974 -0.1491
    1DPPC   GL112843  16.267  12.321   3.998 -0.0706  0.1733 -0.3778
    1DPPC   GL212844  16.099  12.087   3.965 -0.2721  0.0359 -0.2688
    1DPPC   C1A12845  16.391  12.315   4.481  0.0730  0.1210 -0.0752
    1DPPC   C2A12846  16.720  12.139   4.768 -0.1523  0.1799  0.1000
    1DPPC   C3A12847  16.768  12.089   5.179 -0.1097 -0.1880  0.1518
    1DPPC   C4A12848  17.091  12.315   5.511  0.0195 -0.1154 -0.0016
    1DPPC   C1B12849  16.038  11.940   4.433 -0.0866  0.2299  0.1308
    1DPPC   C2B12850  16.130  12.132   4.819  0.3594  0.0551 -0.0013
    1DPPC   C3B12851  16.321  12.209   5.162 -0.2112 -0.1519 -0.0392
    1DPPC   C4B12852  16.542  12.234   5.613 -0.1143 -0.0684 -0.0065
    1DPPC   NC312853  11.671   4.799   3.610  0.0229  0.8380  0.1849
    1DPPC   PO412854  11.336   5.025   3.701 -0.1188 -0.1885  0.0590
    1DPPC   GL112855  11.151   4.864   3.957  0.3270 -0.0847 -0.0639
    1DPPC   GL212856  11.158   5.055   4.261  0.1491  0.3299 -0.1954
    1DPPC   C1A12857  10.869   4.683   4.266 -0.2121  0.0097  0.0968
    1DPPC   C2A12858  10.837   4.587   4.635 -0.1684  0.1669 -0.1304
    1DPPC   C3A12859  10.892   4.794   5.043  0.0819  0.0866  0.0391
    1DPPC   C4A12860  10.572   4.908   5.313  0.0511  0.2211  0.1138
    1DPPC   C1B12861  11.035   5.037   4.659  0.3463 -0.3116 -0.1054
    1DPPC   C2B12862  10.771   5.379   4.821 -0.1291 -0.1398 -0.4597
    1DPPC   C3B12863  10.369   5.660   4.947 -0.0217  0.0048 -0.0546
    1DPPC   C4B12864  10.189   5.812   5.295 -0.2109 -0.5626 -0.0521
    1DPPC   NC312865  16.528  27.717   3.765  0.3420 -0.1327 -0.2080
    1DPPC   PO412866  16.964  27.715   3.823 -0.1304 -0.2658 -0.0325
    1DPPC   GL112867  17.094  27.618   4.185  0.1250 -0.3108 -0.3383
    1DPPC   GL212868  17.415  27.594   4.182  0.1140  0.0708  0.2773
    1DPPC   C1A12869  17.152  27.540   4.584 -0.0875 -0.0989  0.0225
    1DPPC   C2A12870  17.259  27.569   4.977  0.4005  0.0128  0.2741
    1DPPC   C3A12871  17.244  27.832   5.306 -0.1362 -0.1746  0.2268
    1DPPC   C4A12872  17.060  27.748   5.689 -0.0600  0.1640  0.0360
    1DPPC   C1B12873  17.282  27.130   4.330  0.3232  0.3829 -0.0178
    1DPPC   C2B12874  17.037  27.039   4.706  0.0113 -0.2530 -0.0390
    1DPPC   C3B12875  17.079  26.872   5.031 -0.0331 -0.1347  0.1156
    1DPPC   C4B12876  17.196  26.923   5.452  0.1149  0.1198  0.0561
    1DPPC   NC312877   7.783   4.096   3.096  0.3802  0.0137  0.0899
    1DPPC   PO412878   8.213   4.061   2.997  0.0803  0.0099 -0.0534
    1DPPC   GL112879   8.436   3.910   3.326 -0.2510 -0.1420 -0.0281
    1DPPC   GL212880   8.709   4.105   3.439 -0.1360 -0.2255  0.0128
    1DPPC   C1A12881   8.305   3.811   3.755 -0.0931 -0.0192 -0.0230
    1DPPC   C2A12882   7.922   3.746   4.013  0.1097 -0.5726 -0.1140
    1DPPC   C3A12883   7.799   3.752   4.405 -0.2758  0.0644  0.0498
    1DPPC   C4A12884   7.671   3.886   4.788  0.2227 -0.1134  0.2691
    1DPPC   C1B12885   8.734   4.182   3.833 -0.0433  0.0605 -0.0293
    1DPPC   C2B12886   8.820   3.996   4.170  0.2655  0.1575 -0.0291
    1DPPC   C3B12887   8.637   3.837   4.583 -0.0905 -0.3283  0.2704
    1DPPC   C4B12888   8.621   3.779   4.904 -0.2458 -0.1097  0.1315
    1DPPC   NC312889  17.160  14.676   4.077  0.0826 -0.0579  0.0745
    1DPPC   PO412890  16.680  14.653   3.985  0.1988 -0.1735  0.1465
    1DPPC   GL112891  16.816  14.385   4.195  0.1827  0.1522 -0.2988
    1DPPC   GL212892  16.480  14.210   4.197 -0.1912  0.1697  0.2103
    1DPPC   C1A12893  16.780  14.253   4.680  0.1551 -0.0626 -0.2621
    1DPPC   C2A12894  16.900  14.229   5.023  0.0999 -0.1206  0.1548
    1DPPC   C3A12895  16.840  14.392   5.493  0.0917 -0.3348 -0.0748
    1DPPC   C4A12896  16.684  14.595   5.694 -0.0704  0.0134  0.0217
    1DPPC   C1B12897  16.359  14.029   4.596  0.0521 -0.0842 -0.1623
    1DPPC   C2B12898  16.408  14.221   4.998 -0.0523 -0.1358 -0.1373
    1DPPC   C3B12899  16.511  14.073   5.326 -0.0969 -0.0690  0.3239
    1DPPC   C4B12900  16.566  13.950   5.705  0.1578 -0.0303  0.1243
    1DPPC   NC312901  21.415  20.674   3.326 -0.1780  0.0833 -0.2092
    1DPPC   PO412902  20.907  20.644   3.423  0.1797  0.0215 -0.0602
    1DPPC   GL112903  21.039  20.465   3.830  0.1482 -0.1739  0.0489
    1DPPC   GL212904  20.672  20.266   3.940  0.0542  0.3670  0.2684
    1DPPC   C1A12905  21.308  20.432   4.138  0.1625 -0.0287 -0.1134
    1DPPC   C2A12906  21.539  20.213   4.413 -0.1721 -0.0574 -0.3007
    1DPPC   C3A12907  21.376  19.989   4.805 -0.3739 -0.1229 -0.1473
    1DPPC   C4A12908  21.334  19.985   5.281  0.1588  0.0679  0.1671
    1DPPC   C1B12909  20.570  20.192   4.305 -0.0587 -0.0803  0.1589
    1DPPC   C2B12910  20.258  20.133   4.644  0.2901 -0.0420 -0.0764
    1DPPC   C3B12911  20.369  20.071   4.983 -0.5763  0.0413  0.0069
    1DPPC   C4B12912  20.419  20.228   5.395 -0.1939 -0.2858 -0.0127
    1DPPC   NC312913   7.814   8.079   3.596  0.0790  0.0890  0.0776
    1DPPC   PO412914   7.996   8.404   3.464 -0.0882 -0.0213  0.1604
    1DPPC   GL112915   8.190   8.632   3.779  0.2513 -0.1631 -0.0507
    1DPPC   GL212916   7.931   8.811   3.978 -0.3922  0.1048 -0.0256
    1DPPC   C1A12917   8.395   8.529   4.170  0.3431  0.0598  0.2571
    1DPPC   C2A12918   8.337   8.281   4.593 -0.1453 -0.0625  0.0056
    1DPPC   C3A12919   8.189   7.804   4.635 -0.1102  0.0618  0.0429
    1DPPC   C4A12920   7.997   7.409   4.807  0.1762 -0.3104 -0.0744
    1DPPC   C1B12921   7.796   8.450   4.138 -0.1350 -0.2586 -0.0765
    1DPPC   C2B12922   8.068   8.099   4.185 -0.1275 -0.2279  0.0048
    1DPPC   C3B12923   8.440   7.854   4.203 -0.1300  0.4245 -0.0103
    1DPPC   C4B12924   8.877   8.131   4.168 -0.0631  0.2325 -0.0886
    1DPPC   NC312925   4.285   2.932   2.427 -0.0698 -0.0835 -0.3146
    1DPPC   PO412926   4.197   3.062   2.818  0.1314 -0.1869 -0.0434
    1DPPC   GL112927   4.552   3.318   3.020  0.0819 -0.1060 -0.2218
    1DPPC   GL212928   4.526   3.595   2.959  0.1893 -0.2004 -0.1979
    1DPPC   C1A12929   4.751   3.467   3.385 -0.0537 -0.1321  0.1235
    1DPPC   C2A12930   4.706   3.785   3.765 -0.3794  0.1035  0.1861
    1DPPC   C3A12931   4.896   4.001   4.027  0.1388 -0.3921  0.0980
    1DPPC   C4A12932   4.708   4.198   4.430  0.1619 -0.2836  0.0837
    1DPPC   C1B12933   4.265   3.664   3.268 -0.0073  0.2676  0.0273
    1DPPC   C2B12934   3.871   3.677   3.259 -0.2742  0.3272  0.2403
    1DPPC   C3B12935   3.695   3.903   3.565  0.1600  0.2063  0.2092
    1DPPC   C4B12936   3.403   4.186   3.775 -0.1231  0.1138  0.1311
    1DPPC   NC312937  19.761  20.546   3.783 -0.2604 -0.0662 -0.2389
    1DPPC   PO412938  19.822  20.969   4.017  0.1405  0.2453  0.1203
    1DPPC   GL112939  19.879  20.656   4.242 -0.0534  0.0886 -0.1704
    1DPPC   GL212940  19.524  20.511   4.279 -0.4098 -0.2766  0.0883
    1DPPC   C1A12941  19.924  20.520   4.638  0.0175  0.0886 -0.0647
    1DPPC   C2A12942  20.005  20.467   5.036  0.2031  0.1325  0.1113
    1DPPC   C3A12943  19.866  20.357   5.411 -0.1228  0.2387  0.0217
    1DPPC   C4A12944  20.064  20.279   5.754 -0.0367  0.2569  0.0421
    1DPPC   C1B12945  19.224  20.621   4.562 -0.0311  0.3289  0.2667
    1DPPC   C2B12946  19.370  20.751   4.952 -0.0495  0.3333 -0.2712
    1DPPC   C3B12947  19.728  20.851   5.202  0.0047 -0.0345 -0.1553
    1DPPC   C4B12948  20.127  20.976   4.998 -0.3698 -0.0620 -0.1483
    1DPPC   NC312949   1.791   6.319   1.759  0.1042  0.0955  0.0723
    1DPPC   PO412950   1.734   6.666   2.030  0.0221  0.1760  0.1730
    1DPPC   GL112951   1.900   6.766   2.357 -0.1578  0.0746 -0.0067
    1DPPC   GL212952   1.805   6.957   2.640 -0.1421  0.3422  0.0013
    1DPPC   C1A12953   2.126   6.363   2.651  0.3239 -0.0482  0.0520
    1DPPC   C2A12954   2.051   6.256   2.983 -0.2207  0.1000  0.0189
    1DPPC   C3A12955   2.128   5.971   3.312  0.0680 -0.0245 -0.2711
    1DPPC   C4A12956   2.063   5.935   3.775 -0.0475 -0.0424  0.4338
    1DPPC   C1B12957   2.036   6.740   3.066 -0.0171  0.2048  0.2295
    1DPPC   C2B12958   2.169   6.544   3.398 -0.1405 -0.0956  0.0026
    1DPPC   C3B12959   2.470   6.110   3.613  0.0369 -0.1598  0.0499
    1DPPC   C4B12960   2.774   5.728   3.630 -0.0362 -0.0315  0.3369
    1DPPC   NC312961  24.686   8.154   2.813  0.3003  0.0324  0.1061
    1DPPC   PO412962  24.438   8.513   2.947 -0.0397 -0.1820  0.2304
    1DPPC   GL112963  24.690   8.566   3.264 -0.1748 -0.2374 -0.0044
    1DPPC   GL212964  24.755   8.842   3.162 -0.1586 -0.3390 -0.2472
    1DPPC   C1A12965  24.735   8.392   3.614 -0.0101  0.1532 -0.2188
    1DPPC   C2A12966  24.700   8.242   3.957  0.2537  0.1946  0.0152
    1DPPC   C3A12967  24.813   8.263   4.345 -0.0311 -0.1064  0.0124
    1DPPC   C4A12968  24.937   8.044   4.608 -0.0809 -0.0300  0.5926
    1DPPC   C1B12969  24.305   8.901   3.485 -0.0077  0.1393  0.0798
    1DPPC   C2B12970  24.495   8.732   3.842  0.2545 -0.1121  0.0933
    1DPPC   C3B12971  24.476   8.594   4.198 -0.1034 -0.0716 -0.0933
    1DPPC   C4B12972  24.742   8.704   4.474  0.0186  0.1424 -0.2853
    1DPPC   NC312973  23.286   6.906   2.921  0.0411 -0.2352 -0.1270
    1DPPC   PO412974  23.059   6.564   2.813 -0.1178 -0.2155  0.2612
    1DPPC   GL112975  23.129   6.582   3.306  0.0584 -0.0098  0.0606
    1DPPC   GL212976  22.918   6.763   3.232 -0.3362  0.2911  0.1625
    1DPPC   C1A12977  23.382   6.757   3.636 -0.2134  0.2088 -0.1965
    1DPPC   C2A12978  23.347   7.062   4.032 -0.1260 -0.3567 -0.0414
    1DPPC   C3A12979  23.118   7.295   4.303 -0.2226  0.1679  0.1572
    1DPPC   C4A12980  23.283   7.652   4.527  0.1427 -0.1230  0.0216
    1DPPC   C1B12981  23.011   7.067   3.538 -0.0010 -0.0768 -0.2210
    1DPPC   C2B12982  22.854   7.120   3.963  0.2133  0.2250  0.1125
    1DPPC   C3B12983  22.599   7.323   4.175 -0.0717  0.1941 -0.1715
    1DPPC   C4B12984  22.336   7.418   4.407 -0.0417 -0.0758 -0.0651
    1DPPC   NC312985  21.540  15.138   3.455  0.0154 -0.2989  0.0010
    1DPPC   PO412986  21.191  15.074   3.226  0.1081 -0.0067  0.3726
    1DPPC   GL112987  21.110  15.050   3.641  0.3264  0.0316 -0.0503
    1DPPC   GL212988  21.109  14.633   3.725  0.2631 -0.3370  0.0497
    1DPPC   C1A12989  21.216  15.185   4.041  0.0902  0.0538  0.0245
    1DPPC   C2A12990  21.359  15.190   4.472  0.0858  0.1268 -0.1113
    1DPPC   C3A12991  21.384  15.341   4.842 -0.4001 -0.1687  0.1686
    1DPPC   C4A12992  21.648  15.187   5.249  0.0667  0.1331  0.0768
    1DPPC   C1B12993  21.164  14.670   4.159 -0.1681  0.1323  0.2136
    1DPPC   C2B12994  21.390  14.648   4.545 -0.1097 -0.4111  0.2354
    1DPPC   C3B12995  21.620  14.827   4.840  0.1998  0.0038  0.1244
    1DPPC   C4B12996  21.909  14.783   5.190  0.1550 -0.1198 -0.2681
    1DPPC   NC312997  16.413  11.103   3.266 -0.1023 -0.0950 -0.2392
    1DPPC   PO412998  16.207  10.887   3.741 -0.1043 -0.1062 -0.0632
    1DPPC   GL112999  16.226  10.904   4.210 -0.1270  0.2972 -0.1052
    1DPPC   GL213000  16.387  11.088   4.310 -0.0961  0.0337 -0.0929
    1DPPC   C1A13001  16.229  10.646   4.537 -0.0772  0.1066  0.0064
    1DPPC   C2A13002  16.307  10.495   4.897 -0.1768  0.3012 -0.0098
    1DPPC   C3A13003  16.649  10.309   5.232  0.3189  0.0130 -0.1590
    1DPPC   C4A13004  17.025  10.188   5.319  0.2999 -0.1396 -0.0136
    1DPPC   C1B13005  16.336  11.079   4.727  0.0170  0.0018 -0.2523
    1DPPC   C2B13006  16.410  11.262   5.020 -0.0427 -0.1737 -0.0153
    1DPPC   C3B13007  16.259  11.264   5.437 -0.1928  0.0321  0.0347
    1DPPC   C4B13008  16.460  11.100   5.815  0.4534 -0.0409  0.3304
    1DPPC   NC313009  17.774  18.726   3.901 -0.1617  0.5189 -0.0473
    1DPPC   PO413010  17.409  18.929   3.927 -0.0277  0.2226  0.3351
    1DPPC   GL113011  17.590  18.810   4.338 -0.0358  0.4101 -0.0030
    1DPPC   GL213012  17.710  18.445   4.306 -0.0851 -0.1397  0.2307
    1DPPC   C1A13013  17.965  18.849   4.506 -0.3252  0.3585 -0.1969
    1DPPC   C2A13014  18.097  19.101   4.913 -0.1631 -0.3307  0.0063
    1DPPC   C3A13015  17.958  19.175   5.343 -0.3114 -0.1630  0.4299
    1DPPC   C4A13016  17.793  19.401   5.536 -0.1987 -0.0838  0.2164
    1DPPC   C1B13017  17.831  18.247   4.758  0.1794  0.0286  0.0385
    1DPPC   C2B13018  17.985  18.262   5.083 -0.4654 -0.4383  0.0453
    1DPPC   C3B13019  18.160  17.939   5.340  0.1429 -0.0663  0.0944
    1DPPC   C4B13020  18.549  17.670   5.338  0.0778 -0.1749  0.0404
    1DPPC   NC313021   9.995  13.105   3.965 -0.1710  0.3091  0.0605
    1DPPC   PO413022  10.377  12.809   4.053 -0.0633  0.0855  0.0456
    1DPPC   GL113023  10.501  12.701   4.481 -0.2163 -0.3048  0.2267
    1DPPC   GL213024  10.764  12.532   4.576 -0.1023  0.1521 -0.1764
    1DPPC   C1A13025  10.637  12.730   4.978  0.0954  0.1865 -0.6302
    1DPPC   C2A13026  10.473  12.779   5.372 -0.0260 -0.2444  0.3053
    1DPPC   C3A13027  10.265  12.933   5.703  0.2380  0.1921  0.1280
    1DPPC   C4A13028  10.169  13.059   6.104  0.1337  0.1083 -0.1646
    1DPPC   C1B13029  11.061  12.213   4.731 -0.3869 -0.0631 -0.0288
    1DPPC   C2B13030  11.119  11.893   5.054  0.0535 -0.1492  0.0872
    1DPPC   C3B13031  10.890  11.657   5.403 -0.0231 -0.0643  0.1310
    1DPPC   C4B13032  10.523  11.889   5.485  0.1143 -0.2922 -0.0101
    1DPPC   NC313033  23.299  11.901   2.745  0.3170 -0.1067 -0.1141
    1DPPC   PO413034  23.115  11.984   3.211 -0.0571  0.0965 -0.2428
    1DPPC   GL113035  23.137  11.701   3.609 -0.2691  0.0332 -0.0805
    1DPPC   GL213036  22.893  11.732   3.657  0.1514  0.0168  0.2144
    1DPPC   C1A13037  23.375  11.569   3.997 -0.3392  0.1946  0.0178
    1DPPC   C2A13038  23.289  11.301   4.400  0.0295  0.2740 -0.1623
    1DPPC   C3A13039  23.458  11.309   4.803  0.1733 -0.1371  0.0353
    1DPPC   C4A13040  23.228  11.298   5.116  0.0914  0.0241  0.0584
    1DPPC   C1B13041  22.893  11.871   4.070 -0.0330 -0.0789 -0.1755
    1DPPC   C2B13042  22.917  11.608   4.282 -0.0877 -0.2369 -0.0945
    1DPPC   C3B13043  22.845  11.446   4.674  0.3207  0.3992 -0.3366
    1DPPC   C4B13044  22.981  10.983   4.765  0.1554 -0.0474 -0.0506
    1DPPC   NC313045  19.521   2.265   3.343  0.0084 -0.0235  0.0329
    1DPPC   PO413046  19.185   2.269   3.571  0.1906  0.2615  0.0505
    1DPPC   GL113047  19.087   2.007   3.928 -0.0309 -0.0152  0.0590
    1DPPC   GL213048  19.119   2.313   4.116 -0.1901 -0.1755 -0.2429
    1DPPC   C1A13049  19.410   1.817   4.256 -0.0436 -0.0060 -0.0525
    1DPPC   C2A13050  19.352   1.798   4.679  0.0397  0.1469 -0.0412
    1DPPC   C3A13051  19.578   1.953   5.037 -0.0643 -0.0357  0.2041
    1DPPC   C4A13052  19.654   1.681   5.405  0.0957  0.0936 -0.1737
    1DPPC   C1B13053  19.308   2.239   4.490  0.1834  0.0110 -0.0364
    1DPPC   C2B13054  19.434   2.491   4.808 -0.0372  0.1702 -0.2649
    1DPPC   C3B13055  19.331   2.933   5.112  0.1529 -0.0675  0.0336
    1DPPC   C4B13056  19.237   3.088   5.514 -0.1442  0.1765  0.2037
    1DPPC   NC313057  10.726  18.049   3.446  0.1784  0.0788  0.0546
    1DPPC   PO413058  11.083  18.118   3.467 -0.0216 -0.0996 -0.0041
    1DPPC   GL113059  10.973  18.100   3.928  0.0123 -0.0936  0.1004
    1DPPC   GL213060  10.688  18.092   3.943  0.1712  0.0408  0.2315
    1DPPC   C1A13061  10.966  18.195   4.441 -0.1347  0.0610 -0.1636
    1DPPC   C2A13062  10.876  18.080   4.827  0.0920  0.1165 -0.1111
    1DPPC   C3A13063  10.934  18.159   5.274 -0.1446 -0.0531 -0.1227
    1DPPC   C4A13064  11.084  18.390   5.567  0.2452  0.0121  0.1135
    1DPPC   C1B13065  10.488  18.110   4.306  0.2880 -0.0885  0.0951
    1DPPC   C2B13066  10.397  18.179   4.733  0.0127  0.0996 -0.1050
    1DPPC   C3B13067  10.416  18.256   5.100  0.0926  0.0127 -0.0020
    1DPPC   C4B13068  10.325  17.989   5.437  0.1668  0.0592  0.1235
    1DPPC   NC313069   5.410   6.069   2.079  0.0639  0.0055  0.0349
    1DPPC   PO413070   5.588   5.684   2.138  0.0145  0.0828  0.1300
    1DPPC   GL113071   5.470   5.714   2.595 -0.5108  0.0433 -0.1733
    1DPPC   GL213072   5.651   5.839   2.855  0.2071  0.1575 -0.5281
    1DPPC   C1A13073   5.194   5.511   2.850 -0.0678 -0.0419  0.2320
    1DPPC   C2A13074   4.934   5.317   3.133  0.0061  0.1684 -0.0691
    1DPPC   C3A13075   4.708   5.322   3.493 -0.0942  0.0875  0.3070
    1DPPC   C4A13076   4.828   5.359   3.924 -0.1814  0.2950  0.2509
    1DPPC   C1B13077   5.847   5.388   3.057  0.0263 -0.2321  0.1401
    1DPPC   C2B13078   5.812   4.974   3.292 -0.1561 -0.1250  0.1315
    1DPPC   C3B13079   5.435   4.779   3.469  0.0363 -0.2071 -0.0346
    1DPPC   C4B13080   5.195   4.993   3.651 -0.2487  0.2262 -0.1141
    1DPPC   NC313081   1.989   9.356   2.830 -0.0792  0.0692 -0.4847
    1DPPC   PO413082   1.950   9.035   2.569  0.3588  0.1459  0.2404
    1DPPC   GL113083   2.095   8.853   2.876 -0.1857  0.0253 -0.1356
    1DPPC   GL213084   1.801   8.744   3.109 -0.1007  0.2723  0.1044
    1DPPC   C1A13085   2.253   8.676   3.293 -0.0440 -0.2071 -0.2029
    1DPPC   C2A13086   2.252   8.656   3.759  0.0658 -0.1241  0.0337
    1DPPC   C3A13087   2.654   8.692   3.977  0.2314  0.1793 -0.0438
    1DPPC   C4A13088   2.695   8.934   4.317  0.2001 -0.0894  0.0003
    1DPPC   C1B13089   1.819   8.522   3.470  0.0428 -0.2672 -0.0939
    1DPPC   C2B13090   1.796   8.302   3.735 -0.0140 -0.0018  0.1253
    1DPPC   C3B13091   1.534   8.039   3.909  0.1713  0.2503 -0.0207
    1DPPC   C4B13092   1.352   7.766   3.818  0.2508 -0.0727  0.0222
    1DPPC   NC313093  19.322  16.981   3.798  0.0958 -0.0832  0.0716
    1DPPC   PO413094  18.904  17.145   3.635  0.1128  0.1388  0.1748
    1DPPC   GL113095  18.872  16.963   4.011  0.0555  0.0540 -0.2948
    1DPPC   GL213096  18.886  16.598   4.025  0.0887 -0.1424  0.0903
    1DPPC   C1A13097  18.567  16.834   4.378  0.0465 -0.0313 -0.1417
    1DPPC   C2A13098  18.488  16.609   4.738 -0.0229 -0.2016 -0.1396
    1DPPC   C3A13099  18.560  16.334   5.041 -0.2397  0.1385 -0.2169
    1DPPC   C4A13100  18.681  16.044   5.279  0.0752  0.0202 -0.1108
    1DPPC   C1B13101  19.057  16.752   4.487 -0.0593  0.1529 -0.1089
    1DPPC   C2B13102  18.990  16.686   4.898  0.0287 -0.1521 -0.2395
    1DPPC   C3B13103  19.195  16.949   5.206  0.3123 -0.0776  0.1839
    1DPPC   C4B13104  19.246  16.990   5.669 -0.2105  0.1158 -0.0076
    1DPPC   NC313105  24.077   8.823   2.660  0.4134  0.0702 -0.0019
    1DPPC   PO413106  23.751   9.038   2.844  0.1956 -0.0441 -0.2896
    1DPPC   GL113107  23.850   9.284   3.146  0.2627  0.0393 -0.0415
    1DPPC   GL213108  23.485   9.304   3.150  0.1078 -0.0670 -0.0146
    1DPPC   C1A13109  23.963   9.304   3.531 -0.0337 -0.2956 -0.1519
    1DPPC   C2A13110  23.868   9.411   4.008  0.2607  0.0616 -0.0568
    1DPPC   C3A13111  23.787   9.781   4.094 -0.0500  0.5243 -0.0559
    1DPPC   C4A13112  23.361  10.048   3.906  0.2475  0.0656 -0.1534
    1DPPC   C1B13113  23.485   9.230   3.651 -0.0629 -0.0729  0.0287
    1DPPC   C2B13114  23.458   9.048   4.062 -0.1655 -0.2748 -0.2996
    1DPPC   C3B13115  23.634   9.063   4.424 -0.0368  0.1843 -0.1500
    1DPPC   C4B13116  23.761   8.885   4.901 -0.0102  0.0655 -0.1134
    1DPPC   NC313117   5.231   0.132   2.066 -0.0880  0.0379  0.1702
    1DPPC   PO413118   5.423  28.042   2.502  0.0529  0.1589 -0.0223
    1DPPC   GL113119   5.641  27.856   2.939 -0.0741 -0.0561  0.1050
    1DPPC   GL213120   5.897  28.105   3.050  0.1828  0.2807 -0.1694
    1DPPC   C1A13121   5.562  27.710   3.308  0.0343  0.0715  0.0232
    1DPPC   C2A13122   5.317  27.326   3.446 -0.1014 -0.2166 -0.2914
    1DPPC   C3A13123   5.290  27.033   3.861 -0.3706 -0.1532 -0.3406
    1DPPC   C4A13124   5.266  27.032   4.329 -0.1220 -0.0669  0.0077
    1DPPC   C1B13125   5.802  28.070   3.515 -0.0848  0.0116  0.2089
    1DPPC   C2B13126   5.681  28.049   3.975  0.0847 -0.1576  0.0178
    1DPPC   C3B13127   5.816  28.012   4.335  0.0019 -0.0492  0.2665
    1DPPC   C4B13128   6.030  27.948   4.752  0.1515  0.0450  0.0756
    1DPPC   NC313129   3.829  28.040   2.486  0.1032  0.0284  0.3169
    1DPPC   PO413130   3.760  27.656   2.828 -0.0072  0.0999  0.0408
    1DPPC   GL113131   3.682  27.700   3.338 -0.1166  0.0203 -0.1899
    1DPPC   GL213132   3.653  27.431   3.604  0.4008 -0.3689 -0.0138
    1DPPC   C1A13133   3.815  28.006   3.525 -0.1079 -0.0388  0.1787
    1DPPC   C2A13134   3.885   0.262   3.749  0.1627  0.1653  0.0586
    1DPPC   C3A13135   3.650   0.364   4.063  0.1706 -0.1671  0.1367
    1DPPC   C4A13136   3.456   0.158   4.362  0.1740 -0.3540  0.2015
    1DPPC   C1B13137   3.724  27.513   3.977  0.1055  0.3656  0.2484
    1DPPC   C2B13138   3.889  27.608   4.474  0.1169  0.0110  0.1525
    1DPPC   C3B13139   3.699  27.999   4.738  0.4527  0.0154 -0.0544
    1DPPC   C4B13140   3.805   0.314   4.791  0.0853 -0.1407 -0.2409
    1DPPC   NC313141  23.365   8.799   2.983 -0.2030 -0.2799  0.0296
    1DPPC   PO413142  23.003   9.048   2.987  0.2883 -0.1224 -0.1123
    1DPPC   GL113143  23.016   8.823   3.404  0.0216  0.0722 -0.0365
    1DPPC   GL213144  23.340   8.804   3.464  0.2085  0.0278  0.1017
    1DPPC   C1A13145  22.993   8.968   3.872  0.1010 -0.3021 -0.0469
    1DPPC   C2A13146  22.961   8.905   4.276  0.0217 -0.3351 -0.0754
    1DPPC   C3A13147  22.911   8.762   4.765  0.2556 -0.1015 -0.0485
    1DPPC   C4A13148  22.835   8.525   5.100 -0.1534 -0.1626  0.0853
    1DPPC   C1B13149  23.793   8.777   3.561 -0.0283 -0.2076 -0.0890
    1DPPC   C2B13150  23.957   8.919   3.867  0.0400  0.2988  0.1228
    1DPPC   C3B13151  24.057   8.892   4.317  0.0508  0.0807  0.1334
    1DPPC   C4B13152  24.278   8.771   4.741 -0.2398 -0.0679 -0.0442
    1DPPC   NC313153   3.127  26.059   2.723 -0.0878 -0.0226  0.0025
    1DPPC   PO413154   2.976  25.677   2.918  0.1223  0.1188 -0.0882
    1DPPC   GL113155   3.071  25.527   3.368 -0.1657 -0.2401 -0.0044
    1DPPC   GL213156   3.256  25.527   3.624 -0.3453  0.1072  0.1768
    1DPPC   C1A13157   2.781  25.413   3.675  0.3303 -0.0697  0.0287
    1DPPC   C2A13158   2.612  25.692   4.026  0.0690  0.0147  0.3896
    1DPPC   C3A13159   2.595  25.914   4.356  0.1412 -0.2741 -0.2219
    1DPPC   C4A13160   2.300  26.005   4.701  0.3766  0.4533  0.1201
    1DPPC   C1B13161   3.221  25.650   3.993 -0.1892 -0.0453 -0.0930
    1DPPC   C2B13162   3.062  26.000   4.272  0.1399  0.1131  0.2228
    1DPPC   C3B13163   3.245  26.124   4.748 -0.0719  0.0665  0.1345
    1DPPC   C4B13164   3.333  26.166   5.181  0.0439  0.1574 -0.2209
    1DPPC   NC313165  23.741  14.012   2.681  0.0692 -0.2568 -0.1330
    1DPPC   PO413166  24.104  14.125   3.028  0.3842 -0.1013 -0.0218
    1DPPC   GL113167  24.007  13.991   3.440 -0.3251 -0.1789  0.1061
    1DPPC   GL213168  23.726  13.911   3.344  0.0710 -0.0512 -0.3601
    1DPPC   C1A13169  24.219  13.949   3.805  0.0853 -0.2999  0.1207
    1DPPC   C2A13170  24.618  14.013   3.989  0.0588 -0.2437  0.3140
    1DPPC   C3A13171  24.657  14.240   4.325  0.1718  0.0402 -0.0345
    1DPPC   C4A13172  24.599  14.523   4.539 -0.0891 -0.1960 -0.1838
    1DPPC   C1B13173  23.558  13.975   3.671  0.0381 -0.2412 -0.0343
    1DPPC   C2B13174  23.410  13.848   4.052  0.0300  0.2824  0.1531
    1DPPC   C3B13175  23.651  14.020   4.446  0.0089 -0.1236 -0.0988
    1DPPC   C4B13176  23.822  14.254   4.797  0.1161  0.1405 -0.2426
    1DPPC   NC313177   9.011  15.205   3.284  0.2778 -0.0731 -0.0900
    1DPPC   PO413178   8.857  15.227   3.671 -0.0247  0.1316 -0.2186
    1DPPC   GL113179   8.876  15.390   4.111  0.0759  0.2677 -0.1626
    1DPPC   GL213180   8.724  15.102   4.235  0.2460 -0.1017 -0.2782
    1DPPC   C1A13181   8.590  15.599   4.380  0.2603  0.0617 -0.2291
    1DPPC   C2A13182   8.458  15.770   4.774 -0.5566 -0.1036 -0.2152
    1DPPC   C3A13183   8.612  15.919   5.227 -0.1644  0.1456  0.0475
    1DPPC   C4A13184   8.396  16.066   5.574 -0.1602  0.1107  0.1163
    1DPPC   C1B13185   9.068  15.219   4.560 -0.0909 -0.0588  0.1194
    1DPPC   C2B13186   8.918  15.497   4.866  0.0272 -0.3170 -0.1346
    1DPPC   C3B13187   9.280  15.789   5.064 -0.0563 -0.4813  0.1365
    1DPPC   C4B13188   9.561  16.089   5.062  0.2063 -0.1572  0.2696
    1DPPC   NC313189  18.279   4.732   3.136 -0.2934  0.1349  0.0341
    1DPPC   PO413190  17.972   4.523   3.459  0.2688 -0.1988  0.0093
    1DPPC   GL113191  17.862   4.466   3.867 -0.0398 -0.0286 -0.5463
    1DPPC   GL213192  17.576   4.433   3.997  0.1972  0.0624 -0.1534
    1DPPC   C1A13193  18.128   4.391   4.207 -0.0581 -0.0705  0.2803
    1DPPC   C2A13194  18.024   4.322   4.615 -0.1200  0.3169  0.0297
    1DPPC   C3A13195  18.165   4.106   5.026  0.0073 -0.0979 -0.4163
    1DPPC   C4A13196  18.412   3.886   5.323 -0.3088 -0.3125 -0.0256
    1DPPC   C1B13197  17.599   4.470   4.434  0.1710 -0.0366 -0.0266
    1DPPC   C2B13198  17.728   4.722   4.680  0.2663 -0.1621 -0.2138
    1DPPC   C3B13199  17.500   4.896   5.114 -0.2227  0.2427  0.0698
    1DPPC   C4B13200  17.686   5.191   5.511 -0.1612  0.3418 -0.0209
    1DPPC   NC313201   9.032   9.902   3.423 -0.1313  0.0247  0.0517
    1DPPC   PO413202   8.756   9.987   3.581  0.2513  0.2792  0.0241
    1DPPC   GL113203   8.783   9.912   4.026  0.0680 -0.1029  0.0449
    1DPPC   GL213204   8.552  10.075   4.112  0.0972 -0.1769  0.0035
    1DPPC   C1A13205   8.791   9.793   4.434  0.0010 -0.3594  0.0222
    1DPPC   C2A13206   8.613   9.682   4.677 -0.2196 -0.0301  0.0772
    1DPPC   C3A13207   8.522   9.741   5.053 -0.3443  0.0222  0.3618
    1DPPC   C4A13208   8.703   9.671   5.402  0.2338  0.2520  0.1022
    1DPPC   C1B13209   8.453  10.486   4.421 -0.0232 -0.0578 -0.4075
    1DPPC   C2B13210   8.513  10.721   4.840  0.1770 -0.3103 -0.3774
    1DPPC   C3B13211   8.584  11.146   4.937 -0.1815  0.1254  0.1194
    1DPPC   C4B13212   8.951  11.423   4.947  0.0287 -0.2672 -0.1182
    1DPPC   NC313213  12.971  25.039   3.347 -0.0811 -0.0689 -0.5035
    1DPPC   PO413214  13.128  25.325   3.117  0.4104 -0.1745 -0.2112
    1DPPC   GL113215  12.877  25.562   3.492 -0.1336  0.1091  0.1204
    1DPPC   GL213216  12.831  25.404   3.662  0.0199  0.1668 -0.0065
    1DPPC   C1A13217  12.889  25.868   3.909  0.0854 -0.0387  0.1233
    1DPPC   C2A13218  12.648  25.840   4.202 -0.2096 -0.0451 -0.0315
    1DPPC   C3A13219  12.296  25.768   4.438 -0.3674 -0.1250 -0.2141
    1DPPC   C4A13220  11.927  26.083   4.485  0.2419  0.1784  0.1134
    1DPPC   C1B13221  12.627  25.403   3.957 -0.1197  0.1549 -0.1015
    1DPPC   C2B13222  12.448  25.221   4.324 -0.0831  0.1673 -0.2465
    1DPPC   C3B13223  12.227  25.300   4.751  0.0891 -0.0976 -0.0365
    1DPPC   C4B13224  11.841  25.560   4.887  0.4284  0.0290  0.1206
    1DPPC   NC313225   7.367  11.335   3.426 -0.1234  0.0274 -0.2673
    1DPPC   PO413226   6.978  11.081   3.552 -0.3177 -0.0604 -0.2222
    1DPPC   GL113227   6.881  11.273   3.983 -0.1481 -0.1626 -0.2270
    1DPPC   GL213228   6.594  11.109   3.955  0.1940  0.2349 -0.3195
    1DPPC   C1A13229   6.621  11.383   4.313  0.0891 -0.2076  0.0418
    1DPPC   C2A13230   6.490  11.290   4.718  0.1734 -0.2328 -0.2076
    1DPPC   C3A13231   6.237  11.479   5.035  0.3578 -0.1295 -0.3949
    1DPPC   C4A13232   5.976  11.298   5.479 -0.2499 -0.0709  0.4342
    1DPPC   C1B13233   6.177  11.086   4.294  0.0874  0.0747  0.0177
    1DPPC   C2B13234   5.973  11.214   4.708  0.0721 -0.0940 -0.0064
    1DPPC   C3B13235   5.602  11.216   4.969 -0.0326  0.1569 -0.1628
    1DPPC   C4B13236   5.353  11.211   4.555 -0.3344  0.1717  0.0409
    1DPPC   NC313237  11.589  12.835   3.667 -0.1287 -0.0327 -0.3049
    1DPPC   PO413238  11.285  12.652   3.924 -0.2689  0.1518  0.1644
    1DPPC   GL113239  11.370  12.644   4.398 -0.1435  0.2021  0.1360
    1DPPC   GL213240  11.726  12.671   4.630 -0.1211 -0.0789  0.1007
    1DPPC   C1A13241  11.203  12.720   4.810  0.0746  0.1138 -0.1313
    1DPPC   C2A13242  11.106  13.021   5.121 -0.0454  0.1632  0.1565
    1DPPC   C3A13243  11.156  13.093   5.538 -0.0560 -0.5548 -0.0315
    1DPPC   C4A13244  11.138  13.373   5.851  0.0234  0.1010  0.2322
    1DPPC   C1B13245  11.627  12.764   5.072  0.0609 -0.0296 -0.2134
    1DPPC   C2B13246  11.994  12.564   5.306 -0.0943 -0.0978  0.1391
    1DPPC   C3B13247  12.197  12.391   5.807 -0.0047 -0.2319  0.1329
    1DPPC   C4B13248  12.519  12.400   6.091 -0.1218  0.1786 -0.0091
    1DPPC   NC313249   4.554  14.587   2.974  0.0753  0.0831  0.3048
    1DPPC   PO413250   4.116  14.837   3.071 -0.0627  0.2158  0.1666
    1DPPC   GL113251   4.401  14.918   3.443 -0.0106 -0.1976 -0.4261
    1DPPC   GL213252   4.225  15.123   3.632  0.0167 -0.1792 -0.1462
    1DPPC   C1A13253   4.451  14.711   3.909 -0.3535  0.0867  0.0260
    1DPPC   C2A13254   4.489  14.862   4.368  0.2717  0.0203  0.0025
    1DPPC   C3A13255   4.466  14.581   4.712 -0.0213  0.2081  0.0108
    1DPPC   C4A13256   4.470  14.496   5.143  0.2683 -0.0993  0.0913
    1DPPC   C1B13257   4.066  15.039   3.995 -0.2109  0.2338  0.1187
    1DPPC   C2B13258   3.820  15.062   4.370 -0.0941 -0.0095 -0.0449
    1DPPC   C3B13259   3.587  14.792   4.604 -0.0310 -0.1082 -0.0800
    1DPPC   C4B13260   3.543  14.446   4.825 -0.1065  0.2490 -0.0138
    1DPPC   NC313261  27.499   8.416   1.851  0.0537  0.0655  0.0723
    1DPPC   PO413262  27.462   7.893   2.049  0.1579  0.2366  0.4031
    1DPPC   GL113263  27.393   7.810   2.540 -0.0585  0.1661 -0.0176
    1DPPC   GL213264  27.309   8.100   2.728  0.1732  0.2694 -0.2139
    1DPPC   C1A13265  27.460   7.473   2.880 -0.0722  0.3861  0.0078
    1DPPC   C2A13266  27.477   7.582   3.350 -0.1583 -0.1873  0.1839
    1DPPC   C3A13267  27.650   7.750   3.810 -0.3224  0.1413 -0.0149
    1DPPC   C4A13268  27.741   7.344   4.044 -0.1108  0.0890 -0.1559
    1DPPC   C1B13269  27.253   8.012   3.147 -0.0787 -0.1456  0.3422
    1DPPC   C2B13270  27.352   8.138   3.542  0.1242 -0.0176 -0.0985
    1DPPC   C3B13271  27.235   8.054   3.993  0.0937  0.0363  0.0071
    1DPPC   C4B13272  26.912   7.981   4.224  0.1159 -0.2255 -0.2718
    1DPPC   NC313273  25.600   1.237   3.294  0.2163 -0.0112 -0.0458
    1DPPC   PO413274  25.676   0.777   3.133 -0.0475  0.1897 -0.0201
    1DPPC   GL113275  25.822   0.900   3.598  0.0388  0.0892  0.1218
    1DPPC   GL213276  25.990   1.172   3.505 -0.3689 -0.1676 -0.0777
    1DPPC   C1A13277  25.732   1.033   4.042  0.0016  0.0975 -0.1518
    1DPPC   C2A13278  25.950   1.397   4.290  0.2005 -0.3107  0.0365
    1DPPC   C3A13279  26.157   1.685   4.553  0.2051 -0.1743 -0.0185
    1DPPC   C4A13280  26.451   1.935   4.709 -0.1908  0.0072  0.1479
    1DPPC   C1B13281  26.161   1.095   3.856 -0.1097  0.1027 -0.0380
    1DPPC   C2B13282  26.320   1.068   4.260 -0.0026 -0.3350 -0.1088
    1DPPC   C3B13283  26.387   1.115   4.676  0.0300  0.2462 -0.2811
    1DPPC   C4B13284  26.367   1.389   5.108  0.3085  0.2465 -0.3609
    1DPPC   NC313285  10.214  11.420   3.846  0.0668  0.0369 -0.1348
    1DPPC   PO413286  10.294  11.725   3.789 -0.1181 -0.1202  0.1835
    1DPPC   GL113287  10.529  11.868   4.105 -0.1185  0.1720 -0.0550
    1DPPC   GL213288  10.777  11.977   4.097  0.0123  0.1063  0.1883
    1DPPC   C1A13289  10.476  12.173   4.469  0.1208 -0.4716 -0.0015
    1DPPC   C2A13290  10.564  12.078   4.887  0.2612  0.2042 -0.0924
    1DPPC   C3A13291  10.786  12.208   5.205  0.0306  0.0006  0.2360
    1DPPC   C4A13292  11.005  12.145   5.544 -0.0696 -0.0689 -0.0918
    1DPPC   C1B13293  10.889  11.809   4.540 -0.1045  0.2414  0.1668
    1DPPC   C2B13294  11.134  11.461   4.809 -0.1109 -0.2526 -0.0152
    1DPPC   C3B13295  11.001  11.178   5.116  0.4190  0.1905 -0.0543
    1DPPC   C4B13296  10.617  10.992   5.217 -0.0054  0.1843 -0.1783
    1DPPC   NC313297  14.898  11.540   3.821 -0.0471  0.3140 -0.0290
    1DPPC   PO413298  14.667  11.863   3.671 -0.0603  0.3119  0.0606
    1DPPC   GL113299  14.630  11.909   4.075 -0.3573  0.4005 -0.0881
    1DPPC   GL213300  14.886  11.735   4.297  0.1569  0.0309  0.3088
    1DPPC   C1A13301  14.549  12.052   4.511  0.2834 -0.1204 -0.1174
    1DPPC   C2A13302  14.373  12.034   4.874  0.1190 -0.0275  0.1536
    1DPPC   C3A13303  14.068  11.851   5.251  0.1783 -0.1794 -0.0065
    1DPPC   C4A13304  14.114  11.704   5.716  0.1444 -0.2821 -0.0628
    1DPPC   C1B13305  14.809  11.711   4.728  0.3526  0.1552  0.0342
    1DPPC   C2B13306  15.195  11.891   4.951  0.1632  0.0006  0.1187
    1DPPC   C3B13307  15.308  11.987   5.269 -0.1859 -0.1304  0.2434
    1DPPC   C4B13308  15.529  12.093   5.671  0.1124 -0.0583 -0.1740
    1DPPC   NC313309   1.277  25.256   2.523  0.0505  0.1180  0.1422
    1DPPC   PO413310   1.433  25.655   2.672 -0.0972  0.0037  0.1566
    1DPPC   GL113311   1.239  25.750   3.090 -0.1549 -0.2044 -0.0519
    1DPPC   GL213312   1.531  25.657   3.243  0.0931 -0.0952  0.1078
    1DPPC   C1A13313   0.964  25.788   3.451  0.1500 -0.3340  0.0317
    1DPPC   C2A13314   0.698  25.712   3.846  0.1809 -0.0185  0.0711
    1DPPC   C3A13315   0.706  25.687   4.269  0.0231 -0.0597  0.2207
    1DPPC   C4A13316   0.822  25.608   4.743 -0.1730  0.1247  0.2029
    1DPPC   C1B13317   1.733  25.651   3.545 -0.0564 -0.5095  0.1310
    1DPPC   C2B13318   1.640  25.735   3.990  0.1315 -0.0156 -0.1036
    1DPPC   C3B13319   1.689  25.684   4.426  0.2913 -0.2089  0.0024
    1DPPC   C4B13320   1.398  25.640   4.843 -0.0843  0.2358 -0.1422
    1DPPC   NC313321  16.015  15.534   3.370 -0.1941  0.0734 -0.0810
    1DPPC   PO413322  16.241  15.753   3.635 -0.0518 -0.0810  0.2868
    1DPPC   GL113323  16.434  15.619   4.128  0.0844 -0.1039 -0.0372
    1DPPC   GL213324  16.436  15.297   4.207  0.1051 -0.2267 -0.0975
    1DPPC   C1A13325  16.397  15.736   4.595  0.1175 -0.0752 -0.1108
    1DPPC   C2A13326  16.243  15.967   4.999 -0.0059  0.2789  0.1517
    1DPPC   C3A13327  16.367  16.082   5.370 -0.0398 -0.1067 -0.4794
    1DPPC   C4A13328  16.727  16.167   5.682  0.0046 -0.3023  0.0433
    1DPPC   C1B13329  16.425  15.138   4.591  0.1703 -0.1203  0.1514
    1DPPC   C2B13330  16.527  15.374   4.909 -0.1810  0.2834  0.1949
    1DPPC   C3B13331  16.366  15.560   5.231  0.1158  0.2213  0.0905
    1DPPC   C4B13332  16.460  15.701   5.643  0.2866 -0.2375 -0.2695
    1DPPC   NC313333   1.770   5.567   1.422 -0.2399 -0.2218 -0.0536
    1DPPC   PO413334   1.634   5.220   1.603 -0.1770  0.3809 -0.0516
    1DPPC   GL113335   1.696   5.289   2.004 -0.0040 -0.1105 -0.1114
    1DPPC   GL213336   1.985   5.052   2.117 -0.4306  0.1081 -0.0429
    1DPPC   C1A13337   1.693   5.647   2.333  0.1188 -0.0472 -0.1288
    1DPPC   C2A13338   1.548   5.721   2.721  0.0523 -0.1618 -0.3018
    1DPPC   C3A13339   1.428   5.604   3.192  0.2184  0.0191  0.1497
    1DPPC   C4A13340   1.185   5.451   3.546 -0.0160  0.3202 -0.1481
    1DPPC   C1B13341   1.799   5.193   2.526 -0.3190 -0.1732 -0.0032
    1DPPC   C2B13342   1.590   5.178   2.911 -0.1140  0.0091  0.0967
    1DPPC   C3B13343   1.570   5.166   3.348  0.1099  0.2381  0.2854
    1DPPC   C4B13344   1.455   5.010   3.728  0.1512  0.0548 -0.0262
    1DPPC   NC313345   5.228  21.075   3.334  0.0342 -0.0099  0.1567
    1DPPC   PO413346   4.862  21.294   3.300 -0.0132  0.0487 -0.1119
    1DPPC   GL113347   4.697  21.359   3.695  0.2328 -0.1964  0.1237
    1DPPC   GL213348   4.712  21.661   3.699 -0.1058 -0.0665 -0.0930
    1DPPC   C1A13349   4.611  21.308   4.113 -0.2428  0.1722 -0.2162
    1DPPC   C2A13350   4.589  21.434   4.534 -0.0545 -0.1194 -0.1858
    1DPPC   C3A13351   4.483  21.448   4.929 -0.1341 -0.0478  0.0942
    1DPPC   C4A13352   4.650  21.614   5.288  0.1201 -0.0363  0.0366
    1DPPC   C1B13353   4.923  21.705   3.999  0.2949 -0.0974 -0.2542
    1DPPC   C2B13354   5.194  21.855   4.365 -0.0638  0.2003  0.0041
    1DPPC   C3B13355   5.564  22.105   4.543  0.1829  0.1574 -0.0636
    1DPPC   C4B13356   5.905  22.298   4.589 -0.0454 -0.0044  0.4239
    1DPPC   NC313357  14.750   8.753   3.782 -0.0191  0.1718  0.4723
    1DPPC   PO413358  14.509   8.696   4.154 -0.0405 -0.0627 -0.1184
    1DPPC   GL113359  14.338   9.077   4.376 -0.0819 -0.1810 -0.0519
    1DPPC   GL213360  14.543   8.968   4.625  0.0797 -0.1544 -0.1965
    1DPPC   C1A13361  13.975   9.227   4.589 -0.1167 -0.1772  0.1035
    1DPPC   C2A13362  13.777   9.053   4.993  0.3056  0.0807 -0.0254
    1DPPC   C3A13363  13.513   8.976   5.327 -0.1028  0.4695 -0.0588
    1DPPC   C4A13364  13.029   9.024   5.580  0.2188 -0.1362  0.1542
    1DPPC   C1B13365  14.361   8.654   5.012 -0.2275  0.0237  0.3549
    1DPPC   C2B13366  14.373   8.471   5.500 -0.0146 -0.0567 -0.2528
    1DPPC   C3B13367  14.352   8.389   5.908  0.1114  0.0413  0.1315
    1DPPC   C4B13368  14.440   8.119   6.185 -0.0095 -0.0032  0.0026
    1DPPC   NC313369  21.662  19.569   3.744  0.0921  0.1846 -0.0668
    1DPPC   PO413370  21.893  20.040   3.643 -0.0364 -0.1354 -0.3004
    1DPPC   GL113371  22.125  20.176   4.030 -0.0861 -0.0038 -0.2138
    1DPPC   GL213372  21.948  20.528   4.183 -0.1143 -0.1704  0.0673
    1DPPC   C1A13373  22.440  20.168   4.341 -0.1485 -0.0826  0.1360
    1DPPC   C2A13374  22.490  20.163   4.808 -0.0587  0.1883  0.0690
    1DPPC   C3A13375  22.626  20.472   5.056 -0.2319 -0.0170 -0.0362
    1DPPC   C4A13376  22.428  20.702   5.397  0.3027 -0.0996 -0.0949
    1DPPC   C1B13377  22.002  20.333   4.603 -0.1371 -0.0251  0.3006
    1DPPC   C2B13378  21.717  20.233   5.017 -0.1410  0.2375 -0.1852
    1DPPC   C3B13379  21.808  20.316   5.468  0.3888  0.2202 -0.0023
    1DPPC   C4B13380  21.491  20.406   5.821  0.2889  0.1700 -0.0727
    1DPPC   NC313381   3.336   0.576   2.511 -0.0434 -0.0150  0.0736
    1DPPC   PO413382   3.655   0.366   2.341 -0.1836  0.3583  0.1135
    1DPPC   GL113383   3.753   0.370   2.820  0.3911  0.2104  0.0719
    1DPPC   GL213384   3.754   0.104   2.962 -0.0941  0.1476 -0.0389
    1DPPC   C1A13385   3.975   0.675   3.159 -0.3288 -0.1376  0.0581
    1DPPC   C2A13386   3.868   0.734   3.555  0.2952 -0.0007 -0.0946
    1DPPC   C3A13387   3.982   0.866   3.966 -0.0278  0.0976 -0.0691
    1DPPC   C4A13388   3.878   1.167   4.231  0.0680 -0.0253  0.2964
    1DPPC   C1B13389   3.635   0.336   3.367  0.2854  0.1708 -0.1485
    1DPPC   C2B13390   3.299   0.503   3.610 -0.2792 -0.0913 -0.3631
    1DPPC   C3B13391   3.087   0.397   4.002 -0.3069 -0.0569 -0.0326
    1DPPC   C4B13392   2.792   0.176   4.198  0.1660 -0.0476 -0.2278
    1DPPC   NC313393   8.982  10.848   3.464 -0.0687  0.0965  0.1558
    1DPPC   PO413394   9.049  10.379   3.337 -0.0571  0.0730  0.1132
    1DPPC   GL113395   9.215  10.164   3.819  0.2233 -0.1587 -0.0841
    1DPPC   GL213396   9.522  10.039   3.892 -0.1616 -0.0715  0.0992
    1DPPC   C1A13397   9.122  10.283   4.240  0.0185 -0.0364  0.0222
    1DPPC   C2A13398   9.086  10.162   4.633 -0.0922  0.0865 -0.0585
    1DPPC   C3A13399   8.997   9.891   4.972  0.1579  0.0720  0.0566
    1DPPC   C4A13400   9.021  10.095   5.457  0.1906  0.0743 -0.2817
    1DPPC   C1B13401   9.580  10.072   4.260 -0.0286  0.0777 -0.2462
    1DPPC   C2B13402   9.502   9.997   4.821 -0.0984  0.1100 -0.2323
    1DPPC   C3B13403   9.389   9.721   5.251  0.1832 -0.0363 -0.3687
    1DPPC   C4B13404   9.522   9.350   5.384 -0.3223  0.0734 -0.3293
    1DPPC   NC313405  12.353  13.039   4.135 -0.1462  0.2603  0.2274
    1DPPC   PO413406  12.295  12.671   3.981 -0.0502  0.1110 -0.1845
    1DPPC   GL113407  12.132  12.523   4.431 -0.1880 -0.1315  0.0961
    1DPPC   GL213408  12.260  12.194   4.395  0.1522 -0.1590  0.1954
    1DPPC   C1A13409  11.967  12.313   4.826 -0.2934  0.1251 -0.0084
    1DPPC   C2A13410  11.605  12.223   4.968 -0.2458 -0.3234 -0.3618
    1DPPC   C3A13411  11.202  12.402   5.172  0.0569 -0.1525 -0.3113
    1DPPC   C4A13412  10.926  12.650   5.447  0.1082 -0.0278 -0.0300
    1DPPC   C1B13413  12.335  12.022   4.858  0.2547  0.1713 -0.2799
    1DPPC   C2B13414  12.187  11.761   5.100 -0.2193  0.0210  0.0559
    1DPPC   C3B13415  12.337  11.545   5.468  0.0113  0.0493  0.3753
    1DPPC   C4B13416  12.632  11.514   5.806 -0.0712  0.2648  0.0987
    1DPPC   NC313417  17.460  15.771   3.385  0.0562 -0.1738  0.2145
    1DPPC   PO413418  17.610  16.109   3.658 -0.0931 -0.2496  0.1571
    1DPPC   GL113419  17.481  16.171   3.986  0.1670 -0.3364  0.1281
    1DPPC   GL213420  17.501  16.449   4.141  0.0329  0.3384 -0.0428
    1DPPC   C1A13421  17.234  16.006   4.325  0.0781 -0.3428  0.0921
    1DPPC   C2A13422  17.334  15.894   4.743 -0.3266 -0.2274  0.1274
    1DPPC   C3A13423  17.499  16.012   5.212  0.2488 -0.3845  0.1400
    1DPPC   C4A13424  17.645  16.411   5.427 -0.1503  0.1876 -0.1331
    1DPPC   C1B13425  17.768  16.278   4.407 -0.1605 -0.1929  0.0797
    1DPPC   C2B13426  17.662  16.263   4.760 -0.0954  0.0797  0.3850
    1DPPC   C3B13427  17.653  16.656   4.968  0.1112  0.3326  0.0233
    1DPPC   C4B13428  17.668  17.113   5.068 -0.1568  0.2697 -0.0056
    1DPPC   NC313429  17.811  24.511   3.147 -0.0772  0.1271 -0.0151
    1DPPC   PO413430  18.246  24.322   3.177  0.0991 -0.0664  0.0203
    1DPPC   GL113431  18.216  24.433   3.571 -0.0716 -0.1130 -0.1061
    1DPPC   GL213432  17.888  24.414   3.672 -0.1505 -0.0711 -0.0132
    1DPPC   C1A13433  18.406  24.529   3.891  0.0203 -0.2017  0.2794
    1DPPC   C2A13434  18.383  24.618   4.335 -0.1094  0.1842  0.1742
    1DPPC   C3A13435  18.671  24.752   4.697  0.1367  0.1980 -0.3260
    1DPPC   C4A13436  18.826  24.696   5.045  0.0763 -0.3264 -0.1388
    1DPPC   C1B13437  18.011  24.384   4.096  0.1308 -0.2986 -0.4057
    1DPPC   C2B13438  18.005  24.200   4.518  0.2387 -0.2126 -0.2381
    1DPPC   C3B13439  18.322  24.395   4.862 -0.0272 -0.0130  0.2703
    1DPPC   C4B13440  18.303  24.554   5.255 -0.0813 -0.0487  0.1596
    1DPPC   NC313441  14.743   9.783   4.118  0.0708 -0.0682 -0.2965
    1DPPC   PO413442  14.442   9.546   3.952  0.0876  0.2982 -0.2102
    1DPPC   GL113443  14.160   9.791   4.244 -0.1121  0.1095  0.3760
    1DPPC   GL213444  13.842   9.659   4.348  0.3605 -0.0882  0.2670
    1DPPC   C1A13445  13.835  10.140   4.335 -0.4027  0.0685  0.1875
    1DPPC   C2A13446  13.882  10.543   4.619 -0.1251 -0.0296  0.0175
    1DPPC   C3A13447  13.603  10.612   4.935  0.2617 -0.1118  0.1389
    1DPPC   C4A13448  13.324  10.319   5.210  0.0374  0.0043 -0.2108
    1DPPC   C1B13449  13.469   9.576   4.609  0.1632  0.1575 -0.0390
    1DPPC   C2B13450  13.020   9.650   4.774 -0.0050 -0.0579 -0.2803
    1DPPC   C3B13451  12.879   9.973   4.996 -0.1431 -0.1226  0.1917
    1DPPC   C4B13452  12.822  10.357   5.261  0.0449  0.0000 -0.1277
    1DPPC   NC313453  23.812   0.981   3.202  0.1352  0.0921 -0.0667
    1DPPC   PO413454  23.416   0.799   3.080  0.2986  0.1562  0.2473
    1DPPC   GL113455  23.438   0.796   3.538 -0.1885 -0.3124 -0.0534
    1DPPC   GL213456  23.491   0.598   3.759  0.2315 -0.0282  0.4372
    1DPPC   C1A13457  23.576   1.040   3.982 -0.0801  0.3178 -0.5127
    1DPPC   C2A13458  23.732   1.029   4.440  0.0339  0.1997 -0.0642
    1DPPC   C3A13459  23.562   1.156   4.778  0.1211 -0.1470  0.2176
    1DPPC   C4A13460  23.350   1.310   5.050  0.1786  0.1130  0.1820
    1DPPC   C1B13461  23.264   0.343   4.056 -0.0803 -0.1499 -0.2857
    1DPPC   C2B13462  22.952   0.328   4.233  0.1620 -0.1065 -0.2829
    1DPPC   C3B13463  22.656   0.323   4.491  0.0970 -0.0855  0.1887
    1DPPC   C4B13464  22.400   0.425   4.782 -0.0710 -0.0383 -0.3675
    1DPPC   NC313465   8.576  17.462   3.727  0.1069 -0.0303 -0.3079
    1DPPC   PO413466   8.922  17.618   3.822 -0.1593  0.0935 -0.1178
    1DPPC   GL113467   8.780  17.479   4.166  0.3363 -0.0077 -0.3182
    1DPPC   GL213468   9.091  17.466   4.414  0.2690  0.1370  0.0143
    1DPPC   C1A13469   8.367  17.378   4.382 -0.3457  0.5168  0.1243
    1DPPC   C2A13470   8.117  17.423   4.685 -0.0759  0.3361 -0.0970
    1DPPC   C3A13471   7.729  17.335   4.983 -0.0252 -0.1649 -0.1772
    1DPPC   C4A13472   7.384  17.063   5.149  0.1610  0.1496 -0.3889
    1DPPC   C1B13473   9.199  17.317   4.776 -0.3738 -0.2771 -0.0042
    1DPPC   C2B13474   9.191  17.196   5.188 -0.0005 -0.3136 -0.0342
    1DPPC   C3B13475   9.044  16.959   5.468  0.0356  0.2369 -0.2336
    1DPPC   C4B13476   9.091  16.546   5.702 -0.0534  0.1075 -0.0625
    1DPPC   NC313477   2.832  28.091   2.895  0.1811  0.2529 -0.0752
    1DPPC   PO413478   2.857  27.682   2.985 -0.1605  0.2439  0.0538
    1DPPC   GL113479   2.726  27.797   3.338 -0.0994 -0.1880  0.0598
    1DPPC   GL213480   2.678  27.581   3.595 -0.4320  0.1600 -0.0048
    1DPPC   C1A13481   2.545   0.023   3.602 -0.2266 -0.0500 -0.2678
    1DPPC   C2A13482   2.397  28.062   3.955  0.1325 -0.0836  0.1328
    1DPPC   C3A13483   2.398   0.035   4.432  0.0609  0.1507  0.0027
    1DPPC   C4A13484   2.589   0.027   4.815  0.1785  0.2381 -0.2002
    1DPPC   C1B13485   2.827  27.860   3.936  0.2662  0.1810 -0.1473
    1DPPC   C2B13486   2.776  27.837   4.477 -0.1013 -0.0541  0.0459
    1DPPC   C3B13487   2.408  27.691   4.750  0.2045  0.2091 -0.4267
    1DPPC   C4B13488   1.991  27.687   4.981  0.2277 -0.0366  0.1245
    1DPPC   NC313489  24.446  11.011   2.925  0.0204  0.0404  0.1867
    1DPPC   PO413490  24.646  10.667   3.074 -0.1816 -0.3911  0.1996
    1DPPC   GL113491  24.660  10.471   3.412 -0.0589  0.1253  0.0434
    1DPPC   GL213492  24.822  10.212   3.342  0.1825 -0.0531 -0.0025
    1DPPC   C1A13493  24.827  10.706   3.778  0.1330  0.0636  0.0983
    1DPPC   C2A13494  24.823  10.686   4.265 -0.1568  0.0145 -0.0442
    1DPPC   C3A13495  24.887  11.102   4.481  0.1038 -0.0096  0.0041
    1DPPC   C4A13496  24.563  11.379   4.455  0.0893  0.0112  0.1928
    1DPPC   C1B13497  24.695  10.170   3.852  0.3593 -0.3794 -0.1290
    1DPPC   C2B13498  24.763  10.073   4.265 -0.2603 -0.3165  0.1475
    1DPPC   C3B13499  24.787  10.287   4.643 -0.0699 -0.0883 -0.0498
    1DPPC   C4B13500  24.784  10.666   4.909  0.0464 -0.2202 -0.1525
    1DPPC   NC313501   6.166  14.341   3.308  0.1160 -0.0680  0.2137
    1DPPC   PO413502   5.979  13.965   3.275 -0.2061  0.0937 -0.1088
    1DPPC   GL113503   5.774  13.645   3.513  0.0365 -0.1031  0.0362
    1DPPC   GL213504   5.427  13.558   3.520  0.5403 -0.4050  0.0444
    1DPPC   C1A13505   5.900  13.450   4.004  0.1729 -0.0004  0.0256
    1DPPC   C2A13506   5.666  13.342   4.454  0.3584 -0.0245 -0.1299
    1DPPC   C3A13507   5.661  13.356   4.882  0.3772  0.0416 -0.0244
    1DPPC   C4A13508   5.697  13.288   5.253 -0.1265  0.1600 -0.5134
    1DPPC   C1B13509   5.462  13.655   3.914 -0.1276 -0.1240 -0.0173
    1DPPC   C2B13510   5.217  13.573   4.292  0.0109  0.1863 -0.0157
    1DPPC   C3B13511   5.178  13.482   4.819  0.2792  0.0439 -0.1211
    1DPPC   C4B13512   5.028  13.051   4.888 -0.0153  0.1054  0.1413
    1DPPC   NC313513  26.133   5.630   2.463  0.2577  0.2491 -0.1693
    1DPPC   PO413514  25.673   5.344   2.554 -0.1236  0.1484  0.0897
    1DPPC   GL113515  25.819   5.366   2.959 -0.0526 -0.1134 -0.0318
    1DPPC   GL213516  25.864   4.997   3.044  0.1814 -0.0914  0.1709
    1DPPC   C1A13517  26.087   5.602   3.193 -0.1342 -0.1692 -0.1169
    1DPPC   C2A13518  26.405   5.662   3.520 -0.2325  0.1044  0.0799
    1DPPC   C3A13519  26.872   5.651   3.648 -0.1579  0.0381  0.0802
    1DPPC   C4A13520  27.322   5.436   3.559 -0.1334  0.0172  0.2921
    1DPPC   C1B13521  25.855   4.788   3.501  0.1399 -0.0198 -0.1082
    1DPPC   C2B13522  26.045   4.799   3.865  0.0997 -0.1214 -0.0674
    1DPPC   C3B13523  26.221   4.834   4.259 -0.0665  0.0004  0.0281
    1DPPC   C4B13524  26.297   5.049   4.696  0.1734 -0.2553 -0.0415
    1DPPC   NC313525  25.888  25.624   3.229  0.1691 -0.1896  0.0612
    1DPPC   PO413526  26.017  25.218   3.185 -0.0660  0.2998  0.1071
    1DPPC   GL113527  26.213  25.370   3.564  0.0126  0.0085 -0.0231
    1DPPC   GL213528  26.495  25.151   3.711 -0.1361 -0.1429 -0.1971
    1DPPC   C1A13529  26.038  25.319   3.993 -0.1394  0.0111 -0.1162
    1DPPC   C2A13530  26.062  25.596   4.369 -0.1514 -0.0072  0.1861
    1DPPC   C3A13531  25.816  25.622   4.704  0.0569  0.0089 -0.2005
    1DPPC   C4A13532  25.679  25.954   4.876  0.0918  0.0891 -0.2929
    1DPPC   C1B13533  26.506  25.265   4.177 -0.2727  0.0642  0.0336
    1DPPC   C2B13534  26.615  25.320   4.591 -0.0754  0.1415  0.0828
    1DPPC   C3B13535  26.317  25.476   4.893  0.0201  0.1919  0.0176
    1DPPC   C4B13536  26.335  25.585   5.320  0.0985 -0.2303  0.0972
    1DPPC   NC313537  12.189  11.709   3.728 -0.2057 -0.0572 -0.0506
    1DPPC   PO413538  12.386  11.853   4.079  0.3414 -0.1194  0.1116
    1DPPC   GL113539  12.644  11.827   4.375 -0.2366  0.2361 -0.0384
    1DPPC   GL213540  12.778  12.130   4.510  0.2208 -0.1875  0.1611
    1DPPC   C1A13541  12.848  11.651   4.736 -0.0565  0.2134 -0.1032
    1DPPC   C2A13542  13.242  11.391   4.913  0.0362  0.1407 -0.1032
    1DPPC   C3A13543  13.629  11.061   5.109 -0.1096  0.0095 -0.0151
    1DPPC   C4A13544  13.623  10.799   5.383  0.0374  0.1014 -0.0211
    1DPPC   C1B13545  12.785  12.094   4.943  0.0958 -0.0777  0.1385
    1DPPC   C2B13546  12.681  11.790   5.206  0.4717  0.4470 -0.1569
    1DPPC   C3B13547  12.841  11.392   5.348 -0.1245 -0.3266 -0.0668
    1DPPC   C4B13548  13.170  11.186   5.399 -0.1489  0.0172 -0.0582
    1DPPC   NC313549   7.298   7.842   3.017 -0.0916  0.2069  0.1917
    1DPPC   PO413550   7.401   8.087   3.387  0.3389  0.1775  0.2606
    1DPPC   GL113551   7.416   7.903   3.853  0.2521 -0.0961  0.1763
    1DPPC   GL213552   7.575   7.601   3.899  0.0605  0.2519 -0.0223
    1DPPC   C1A13553   7.547   8.084   4.193 -0.0214 -0.0710  0.1150
    1DPPC   C2A13554   7.797   8.193   4.601 -0.0473  0.2325 -0.1433
    1DPPC   C3A13555   7.992   8.150   4.978  0.1184  0.3111  0.0317
    1DPPC   C4A13556   7.938   8.180   5.330 -0.0971  0.0493 -0.0940
    1DPPC   C1B13557   7.479   7.237   4.029 -0.1226  0.0025 -0.0240
    1DPPC   C2B13558   7.332   7.065   4.289 -0.0621  0.0713 -0.0644
    1DPPC   C3B13559   7.450   6.750   4.419 -0.0469  0.2542  0.0034
    1DPPC   C4B13560   7.444   6.578   4.867 -0.1776  0.0372 -0.1384
    1DPPC   NC313561  12.814   0.589   3.203  0.1390 -0.1072 -0.0053
    1DPPC   PO413562  12.673   0.468   3.640 -0.1522 -0.0643 -0.0606
    1DPPC   GL113563  12.685   0.199   4.058  0.1967  0.0431  0.2342
    1DPPC   GL213564  12.633  28.001   3.966 -0.1817 -0.0675  0.0145
    1DPPC   C1A13565  12.650  28.106   4.496  0.0149 -0.0206  0.3471
    1DPPC   C2A13566  12.883  27.776   4.745  0.3295  0.1128  0.0213
    1DPPC   C3A13567  13.196  27.556   5.111  0.3715 -0.0588  0.1221
    1DPPC   C4A13568  13.332  27.163   5.190 -0.0522 -0.0578 -0.0950
    1DPPC   C1B13569  12.490  27.662   4.287 -0.1135 -0.1358 -0.1364
    1DPPC   C2B13570  12.467  27.507   4.723 -0.0551  0.1252  0.1225
    1DPPC   C3B13571  12.689  27.467   5.162  0.2706  0.0110 -0.1321
    1DPPC   C4B13572  12.896  27.617   5.513  0.0237 -0.0464 -0.0750
    1DPPC   NC313573  14.960  21.270   3.054  0.1378  0.1070 -0.0998
    1DPPC   PO413574  14.695  20.915   3.119 -0.1180 -0.4726 -0.1259
    1DPPC   GL113575  14.890  20.793   3.570  0.1849 -0.0501  0.0684
    1DPPC   GL213576  15.149  20.538   3.496  0.1119  0.2308  0.2891
    1DPPC   C1A13577  15.111  20.769   4.011 -0.1879 -0.0914 -0.0870
    1DPPC   C2A13578  15.177  20.746   4.505  0.0106 -0.0112  0.0289
    1DPPC   C3A13579  15.178  20.990   4.779 -0.1122 -0.1588  0.2699
    1DPPC   C4A13580  15.391  20.962   5.191 -0.3539  0.1523  0.1915
    1DPPC   C1B13581  15.483  20.388   3.796  0.1014  0.0069  0.3820
    1DPPC   C2B13582  15.523  20.465   4.184 -0.1810  0.0760  0.1596
    1DPPC   C3B13583  15.717  20.723   4.499 -0.0811  0.0516  0.0406
    1DPPC   C4B13584  15.696  21.184   4.704  0.1538 -0.1465  0.0284
    1DPPC   NC313585   9.110   8.496   3.330 -0.1646  0.1044  0.3571
    1DPPC   PO413586   8.786   8.899   3.178 -0.2578 -0.2583  0.1165
    1DPPC   GL113587   8.768   8.775   3.643 -0.0265 -0.2915 -0.2335
    1DPPC   GL213588   8.740   8.433   3.671 -0.0291 -0.2048 -0.0711
    1DPPC   C1A13589   8.791   8.802   4.143 -0.0721 -0.3266  0.1207
    1DPPC   C2A13590   8.838   8.483   4.537  0.1054  0.1432  0.1033
    1DPPC   C3A13591   8.673   8.423   4.978 -0.3427  0.2826 -0.1248
    1DPPC   C4A13592   8.843   8.387   5.349  0.1750 -0.0420  0.3337
    1DPPC   C1B13593   9.109   8.488   3.948  0.3265  0.1315  0.1002
    1DPPC   C2B13594   9.337   8.623   4.283  0.0172  0.2689  0.2759
    1DPPC   C3B13595   9.405   8.589   4.752  0.5603 -0.0996  0.0279
    1DPPC   C4B13596   9.464   8.448   5.162  0.0360  0.0336 -0.4002
    1DPPC   NC313597  22.691   7.609   2.774  0.1211  0.1860 -0.1424
    1DPPC   PO413598  23.158   7.382   2.829  0.1751 -0.2211  0.0194
    1DPPC   GL113599  23.298   7.405   3.340  0.1464  0.0570 -0.3579
    1DPPC   GL213600  23.370   7.775   3.527 -0.2894  0.2950 -0.0801
    1DPPC   C1A13601  23.567   7.267   3.630 -0.0270 -0.0989 -0.1814
    1DPPC   C2A13602  23.679   7.380   4.113  0.0465 -0.0912  0.0787
    1DPPC   C3A13603  23.616   7.304   4.546  0.0918 -0.0015 -0.3445
    1DPPC   C4A13604  23.399   7.209   4.950 -0.1034 -0.0631  0.1552
    1DPPC   C1B13605  23.496   7.929   3.964  0.1819  0.0431  0.0459
    1DPPC   C2B13606  23.387   8.133   4.347 -0.1229 -0.1437 -0.1089
    1DPPC   C3B13607  23.219   8.122   4.712 -0.1682 -0.0127  0.1464
    1DPPC   C4B13608  23.294   8.187   5.174 -0.1839  0.2741 -0.1834
    1DPPC   NC313609   3.628   1.549   2.627  0.2148 -0.0236 -0.1183
    1DPPC   PO413610   3.178   1.489   2.525  0.0185 -0.1268  0.4106
    1DPPC   GL113611   3.102   1.820   2.859  0.1686 -0.0006 -0.0770
    1DPPC   GL213612   3.322   1.907   3.129  0.0747 -0.0054 -0.2849
    1DPPC   C1A13613   2.805   1.938   3.206 -0.1959  0.1981 -0.0820
    1DPPC   C2A13614   2.791   1.713   3.656  0.0648  0.0884 -0.0945
    1DPPC   C3A13615   2.858   1.653   4.122  0.0848  0.1168 -0.1672
    1DPPC   C4A13616   2.913   1.143   4.288  0.2182  0.0021 -0.0225
    1DPPC   C1B13617   3.198   2.051   3.544  0.0153 -0.3158  0.0163
    1DPPC   C2B13618   3.105   2.148   3.890  0.0059  0.0334  0.0493
    1DPPC   C3B13619   3.027   2.439   4.268 -0.1515 -0.1976 -0.4009
    1DPPC   C4B13620   3.266   2.754   4.468  0.0505  0.0063 -0.1907
    1DPPC   NC313621   1.170  17.721   2.854  0.3709 -0.0866 -0.0259
    1DPPC   PO413622   0.846  17.386   2.728  0.1281 -0.1921 -0.2093
    1DPPC   GL113623   0.706  17.343   3.205 -0.1042 -0.0912 -0.1662
    1DPPC   GL213624   0.599  17.111   3.247 -0.1109 -0.4132 -0.0361
    1DPPC   C1A13625   0.885  17.518   3.539 -0.0596  0.1096 -0.1674
    1DPPC   C2A13626   0.970  17.553   3.958 -0.1448 -0.0193  0.0372
    1DPPC   C3A13627   0.774  17.168   4.233  0.2239  0.2252  0.2772
    1DPPC   C4A13628   0.880  16.658   4.323 -0.0424 -0.2131  0.0273
    1DPPC   C1B13629   0.455  17.325   3.631  0.1374  0.0869 -0.1217
    1DPPC   C2B13630   0.297  17.326   4.069 -0.2747  0.0367 -0.1307
    1DPPC   C3B13631   0.502  17.570   4.465 -0.1129  0.0188 -0.0653
    1DPPC   C4B13632   0.706  17.928   4.607 -0.0112  0.2101  0.3172
    1DPPC   NC313633  18.358  24.829   3.077  0.1456 -0.1859 -0.1299
    1DPPC   PO413634  18.794  24.986   3.084 -0.2177 -0.1120 -0.1165
    1DPPC   GL113635  19.000  25.112   3.523  0.1722  0.0313  0.2245
    1DPPC   GL213636  18.975  25.519   3.547 -0.0676 -0.1486  0.0670
    1DPPC   C1A13637  19.008  25.223   3.958  0.0963 -0.2103 -0.0041
    1DPPC   C2A13638  19.060  25.179   4.368  0.1504  0.1969  0.2601
    1DPPC   C3A13639  19.134  24.985   4.771 -0.1003  0.0342 -0.2273
    1DPPC   C4A13640  19.452  24.929   4.970  0.0818  0.2278 -0.4285
    1DPPC   C1B13641  19.142  25.848   3.816  0.3624 -0.2838 -0.1465
    1DPPC   C2B13642  19.211  26.028   4.097  0.1138 -0.0546  0.0236
    1DPPC   C3B13643  19.354  26.054   4.504  0.1268  0.2508 -0.1834
    1DPPC   C4B13644  19.604  25.800   4.700 -0.0257  0.2495 -0.2332
    1DPPC   NC313645  22.064   0.676   3.423  0.0545  0.1357  0.3087
    1DPPC   PO413646  22.335   1.076   3.404  0.2719  0.0375  0.1675
    1DPPC   GL113647  22.381   1.208   3.734  0.3329  0.0901  0.2355
    1DPPC   GL213648  22.605   1.072   3.862 -0.0846 -0.1586 -0.0630
    1DPPC   C1A13649  22.165   1.477   3.978 -0.0069  0.0649 -0.0562
    1DPPC   C2A13650  22.144   1.421   4.496 -0.1528  0.0284  0.1697
    1DPPC   C3A13651  22.344   1.149   4.890 -0.1167 -0.2972 -0.0641
    1DPPC   C4A13652  22.163   0.830   5.156  0.1262 -0.3004 -0.2882
    1DPPC   C1B13653  22.543   1.161   4.308 -0.1259 -0.2257  0.1512
    1DPPC   C2B13654  22.696   0.869   4.604  0.0887  0.0295 -0.2598
    1DPPC   C3B13655  22.622   0.732   5.115 -0.1383 -0.2905 -0.1937
    1DPPC   C4B13656  22.554   0.642   5.575  0.0747  0.2535 -0.0046
    1DPPC   NC313657  27.497  12.603   3.389 -0.0519  0.1253  0.1223
    1DPPC   PO413658  27.868  12.353   3.357 -0.1144  0.0185  0.2406
    1DPPC   GL113659  27.959  12.184   3.702 -0.2693  0.0741 -0.0863
    1DPPC   GL213660   0.241  12.073   3.753 -0.2907  0.3026  0.2399
    1DPPC   C1A13661   0.010  12.102   4.206  0.1918  0.1916 -0.1626
    1DPPC   C2A13662   0.139  11.975   4.572  0.0164  0.3154 -0.0774
    1DPPC   C3A13663   0.213  11.942   5.065 -0.0018 -0.0335 -0.2172
    1DPPC   C4A13664   0.048  11.876   5.451  0.0048  0.1795  0.3691
    1DPPC   C1B13665   0.410  12.385   3.967 -0.0519  0.1569 -0.0963
    1DPPC   C2B13666   0.304  12.447   4.440 -0.0574 -0.2386  0.0955
    1DPPC   C3B13667   0.045  12.392   4.863 -0.1198 -0.1463 -0.2143
    1DPPC   C4B13668  28.019  12.291   5.287 -0.1160 -0.2194  0.0992
    1DPPC   NC313669   8.473   3.661   2.922 -0.0135  0.0424 -0.2590
    1DPPC   PO413670   8.777   3.550   3.277 -0.0746 -0.0966 -0.0985
    1DPPC   GL113671   8.715   3.217   3.554 -0.0832  0.2094  0.2203
    1DPPC   GL213672   8.665   3.489   3.801  0.0359 -0.1792  0.0143
    1DPPC   C1A13673   8.657   2.983   3.880  0.0105  0.2989 -0.0753
    1DPPC   C2A13674   8.583   2.861   4.282 -0.2915 -0.1900 -0.1621
    1DPPC   C3A13675   8.647   2.794   4.714 -0.0273 -0.3077  0.4493
    1DPPC   C4A13676   8.935   2.961   4.983 -0.1483  0.2031 -0.3494
    1DPPC   C1B13677   8.774   3.378   4.204  0.1282 -0.0297  0.0642
    1DPPC   C2B13678   8.791   3.314   4.586 -0.2097 -0.1669 -0.0305
    1DPPC   C3B13679   8.542   3.291   4.968 -0.0587  0.0856 -0.1984
    1DPPC   C4B13680   8.206   3.083   5.209  0.0781  0.3302 -0.0233
    1DPPC   NC313681  14.954  12.878   3.656 -0.0409 -0.3197  0.1491
    1DPPC   PO413682  14.621  12.766   3.819  0.1287  0.1662  0.1681
    1DPPC   GL113683  14.717  13.005   4.072 -0.0370 -0.0272  0.1275
    1DPPC   GL213684  15.030  12.963   4.219 -0.0404  0.1037 -0.0795
    1DPPC   C1A13685  14.566  13.260   4.420 -0.2302 -0.2259  0.0267
    1DPPC   C2A13686  14.722  13.396   4.923  0.1388 -0.2019 -0.1948
    1DPPC   C3A13687  14.786  13.464   5.355  0.1443  0.1572  0.1372
    1DPPC   C4A13688  14.726  13.549   5.765 -0.1361  0.0260 -0.1212
    1DPPC   C1B13689  15.159  13.157   4.635  0.1190 -0.0668 -0.1100
    1DPPC   C2B13690  15.211  13.414   5.082 -0.2575  0.1019 -0.1309
    1DPPC   C3B13691  15.316  13.490   5.398  0.1315 -0.2355  0.0262
    1DPPC   C4B13692  15.707  13.627   5.635 -0.1935 -0.1929 -0.1754
    1DPPC   NC313693  20.778  26.725   3.398  0.2366  0.5129  0.1280
    1DPPC   PO413694  21.231  26.789   3.420 -0.3226  0.3240 -0.0924
    1DPPC   GL113695  21.008  26.674   3.849 -0.0703  0.2285  0.0201
    1DPPC   GL213696  20.943  26.399   3.782  0.2353 -0.0661  0.1538
    1DPPC   C1A13697  21.206  26.737   4.303 -0.2410  0.2213 -0.3086
    1DPPC   C2A13698  21.122  27.002   4.608 -0.0785  0.0112 -0.1631
    1DPPC   C3A13699  21.108  27.300   4.966 -0.1664  0.0930  0.0089
    1DPPC   C4A13700  21.308  27.428   5.461  0.3782 -0.1931  0.2933
    1DPPC   C1B13701  21.323  26.237   4.067  0.0137 -0.0650 -0.1000
    1DPPC   C2B13702  21.383  26.325   4.537  0.3568  0.0348  0.2299
    1DPPC   C3B13703  21.361  26.124   4.954 -0.2331 -0.1393 -0.0220
    1DPPC   C4B13704  21.069  25.792   5.056  0.1108  0.1045 -0.0883
    1DPPC   NC313705   4.439  12.695   3.131  0.2939 -0.0299  0.2787
    1DPPC   PO413706   4.717  12.978   3.238 -0.0094 -0.3354  0.0610
    1DPPC   GL113707   4.644  13.253   3.374  0.2025 -0.2569 -0.2160
    1DPPC   GL213708   4.892  13.483   3.483  0.2374  0.1240  0.0048
    1DPPC   C1A13709   4.472  13.498   3.780  0.1829  0.1408  0.0755
    1DPPC   C2A13710   4.507  13.569   4.236  0.2648  0.1798 -0.2493
    1DPPC   C3A13711   4.243  13.423   4.542  0.2325 -0.0182 -0.0049
    1DPPC   C4A13712   4.275  13.303   4.896 -0.1064 -0.1607 -0.3992
    1DPPC   C1B13713   4.941  13.632   3.883 -0.1909  0.0086  0.0061
    1DPPC   C2B13714   4.847  13.921   4.268 -0.0308 -0.0465 -0.2778
    1DPPC   C3B13715   5.068  13.951   4.632  0.1505  0.1037 -0.2178
    1DPPC   C4B13716   5.460  13.855   4.777  0.2160 -0.2789  0.0997
    1DPPC   NC313717   4.506  14.155   2.236 -0.3300 -0.0415 -0.2337
    1DPPC   PO413718   4.339  14.154   2.696 -0.0892  0.4385  0.0329
    1DPPC   GL113719   4.201  13.814   2.970 -0.2448 -0.0534  0.0780
    1DPPC   GL213720   4.376  13.740   3.245 -0.0403  0.0290  0.1171
    1DPPC   C1A13721   3.851  13.944   3.278  0.0557 -0.2311  0.2091
    1DPPC   C2A13722   3.812  14.072   3.722  0.1123 -0.1814  0.0433
    1DPPC   C3A13723   3.722  13.993   4.086 -0.0176  0.0154  0.0692
    1DPPC   C4A13724   3.852  13.762   4.481 -0.0896 -0.0276  0.4443
    1DPPC   C1B13725   4.280  13.953   3.641  0.0997  0.2412 -0.0216
    1DPPC   C2B13726   4.218  14.073   4.121 -0.0567  0.0441 -0.0243
    1DPPC   C3B13727   4.332  13.972   4.565  0.2728 -0.0716  0.0482
    1DPPC   C4B13728   4.183  13.775   4.959  0.2215  0.0376  0.5986
    1DPPC   NC313729   7.902  17.126   3.268  0.1012 -0.0095 -0.1540
    1DPPC   PO413730   8.042  17.505   3.520 -0.1884 -0.0149 -0.1756
    1DPPC   GL113731   8.143  17.455   3.911 -0.1003 -0.0839 -0.1101
    1DPPC   GL213732   8.101  17.751   4.129  0.1771  0.3105 -0.0320
    1DPPC   C1A13733   7.916  17.265   4.263  0.1459 -0.2888  0.0376
    1DPPC   C2A13734   7.559  17.228   4.495 -0.3986  0.2366 -0.1340
    1DPPC   C3A13735   7.328  17.476   4.675 -0.2289  0.1664 -0.0912
    1DPPC   C4A13736   7.245  17.561   5.031  0.1981  0.0154 -0.0535
    1DPPC   C1B13737   8.235  17.860   4.576 -0.0377  0.3619  0.0132
    1DPPC   C2B13738   8.386  17.900   4.989  0.0946 -0.3670  0.2599
    1DPPC   C3B13739   8.632  18.198   5.353  0.1835 -0.1814  0.3868
    1DPPC   C4B13740   8.768  18.496   5.075  0.1353 -0.0054  0.2010
    1DPPC   NC313741  17.640  15.538   3.767  0.0404  0.0773  0.1056
    1DPPC   PO413742  17.300  15.169   4.058  0.4105  0.2472  0.1258
    1DPPC   GL113743  17.433  15.220   4.575 -0.0164 -0.0690  0.1286
    1DPPC   GL213744  17.748  15.226   4.643  0.2372  0.0452  0.1694
    1DPPC   C1A13745  17.320  14.984   5.031  0.4243  0.1429 -0.1542
    1DPPC   C2A13746  17.161  14.763   5.472 -0.1174 -0.1079  0.1440
    1DPPC   C3A13747  17.106  14.749   5.935  0.1971  0.0969 -0.4526
    1DPPC   C4A13748  16.727  14.621   6.204 -0.1562  0.3024  0.2591
    1DPPC   C1B13749  18.086  14.976   4.464 -0.0449  0.0878 -0.0229
    1DPPC   C2B13750  18.370  14.878   4.871  0.1413 -0.2134  0.3229
    1DPPC   C3B13751  18.556  14.876   5.306 -0.1155 -0.0672 -0.0489
    1DPPC   C4B13752  18.544  14.995   5.777  0.0290 -0.1838 -0.0035
    1DPPC   NC313753  27.558  20.942   2.593 -0.3683 -0.0921 -0.0917
    1DPPC   PO413754  27.257  21.298   2.750 -0.0813 -0.0826  0.1668
    1DPPC   GL113755  27.236  21.523   3.095 -0.0709 -0.1605 -0.0442
    1DPPC   GL213756  26.924  21.448   3.131 -0.1085  0.0020 -0.2087
    1DPPC   C1A13757  27.269  21.548   3.503  0.0796 -0.1031  0.4782
    1DPPC   C2A13758  27.313  21.457   3.913  0.1170  0.0859  0.2169
    1DPPC   C3A13759  27.163  21.265   4.459  0.2645  0.0577  0.0621
    1DPPC   C4A13760  27.230  21.163   4.825  0.3132  0.0627  0.1114
    1DPPC   C1B13761  26.896  21.149   3.482  0.0502 -0.1378 -0.0386
    1DPPC   C2B13762  26.860  21.204   3.971  0.0261 -0.1272 -0.0299
    1DPPC   C3B13763  26.729  21.040   4.298 -0.1518  0.1293  0.0293
    1DPPC   C4B13764  26.569  20.981   4.626 -0.0901  0.2368  0.2667
    1DPPC   NC313765  22.611  19.627   3.166  0.1876  0.2334  0.2572
    1DPPC   PO413766  23.078  19.582   3.138  0.0410 -0.0766 -0.0588
    1DPPC   GL113767  23.091  19.806   3.484 -0.0741 -0.1539  0.5774
    1DPPC   GL213768  22.898  20.087   3.647 -0.0961  0.2608 -0.0707
    1DPPC   C1A13769  23.361  20.006   3.841 -0.1204  0.4573  0.0669
    1DPPC   C2A13770  23.532  20.090   4.215 -0.2954 -0.1583 -0.1236
    1DPPC   C3A13771  23.657  20.080   4.522  0.0580 -0.0381  0.1131
    1DPPC   C4A13772  24.028  20.010   4.783  0.3683  0.2186 -0.0989
    1DPPC   C1B13773  22.584  20.370   3.882  0.0469 -0.2492 -0.0177
    1DPPC   C2B13774  22.752  20.556   4.300  0.1927  0.1458  0.4381
    1DPPC   C3B13775  23.013  20.710   4.549 -0.0513  0.0573 -0.1432
    1DPPC   C4B13776  22.800  20.881   4.891 -0.0410 -0.0880 -0.3055
    1DPPC   NC313777  25.070   5.841   2.472  0.4704 -0.1038 -0.0631
    1DPPC   PO413778  24.776   5.856   2.832 -0.0573  0.1710  0.0436
    1DPPC   GL113779  24.975   5.735   3.186  0.0104  0.1452  0.2365
    1DPPC   GL213780  25.130   5.873   3.315 -0.0299  0.0751 -0.2693
    1DPPC   C1A13781  24.856   5.637   3.661 -0.1055 -0.1799  0.2335
    1DPPC   C2A13782  24.931   5.742   4.108 -0.1807 -0.1937  0.1051
    1DPPC   C3A13783  24.927   5.809   4.516 -0.0126 -0.2056  0.0980
    1DPPC   C4A13784  24.958   6.215   4.718  0.1389  0.1397 -0.0670
    1DPPC   C1B13785  25.254   5.935   3.751 -0.2317  0.4075 -0.1361
    1DPPC   C2B13786  25.375   6.097   4.199  0.1923  0.0342 -0.0576
    1DPPC   C3B13787  25.459   5.907   4.589 -0.3059  0.0741  0.1678
    1DPPC   C4B13788  25.226   5.775   4.952 -0.0921 -0.1189  0.1369
    1DPPC   NC313789  11.403   8.052   3.085  0.0743  0.0668 -0.2521
    1DPPC   PO413790  11.272   8.189   3.426  0.5323 -0.2519  0.0047
    1DPPC   GL113791  11.246   8.443   3.760 -0.2653 -0.2056 -0.0644
    1DPPC   GL213792  11.202   8.151   3.927 -0.4360 -0.1767  0.1916
    1DPPC   C1A13793  11.368   8.624   4.067 -0.3506  0.2312 -0.0605
    1DPPC   C2A13794  11.205   8.533   4.457  0.0396  0.4435  0.2252
    1DPPC   C3A13795  11.092   8.665   4.813 -0.1270  0.0508  0.1108
    1DPPC   C4A13796  11.001   8.467   5.209  0.3112  0.0842  0.1233
    1DPPC   C1B13797  10.824   8.267   4.151 -0.2995  0.2726 -0.0094
    1DPPC   C2B13798  10.752   8.385   4.571  0.1701 -0.1669  0.1031
    1DPPC   C3B13799  10.595   8.533   4.918  0.1481  0.2038  0.0752
    1DPPC   C4B13800  10.394   8.814   5.210 -0.2619  0.3703 -0.0606
    1DPPC   NC313801   2.518  25.514   3.071 -0.1329  0.0601  0.0014
    1DPPC   PO413802   2.208  25.587   2.741  0.1957  0.1114  0.2757
    1DPPC   GL113803   2.031  25.419   3.170 -0.1754 -0.1276  0.0089
    1DPPC   GL213804   2.281  25.115   3.306  0.4694 -0.0046 -0.2161
    1DPPC   C1A13805   1.802  25.123   3.427  0.1013 -0.2566  0.1596
    1DPPC   C2A13806   1.840  25.210   3.726 -0.0658  0.0760  0.1966
    1DPPC   C3A13807   1.654  25.211   4.224  0.2002 -0.0144  0.0628
    1DPPC   C4A13808   1.849  25.223   4.679 -0.0011 -0.2564  0.2580
    1DPPC   C1B13809   2.237  25.453   3.648 -0.3461  0.1380  0.1571
    1DPPC   C2B13810   2.182  25.421   3.984 -0.2400 -0.0363  0.0087
    1DPPC   C3B13811   2.165  25.548   4.490  0.3783  0.2605 -0.0360
    1DPPC   C4B13812   1.914  25.665   4.888 -0.3650  0.1558  0.3178
    1DPPC   NC313813   1.033  21.185   2.061  0.1115 -0.1205  0.2284
    1DPPC   PO413814   1.230  21.209   2.358  0.0605 -0.0410  0.3730
    1DPPC   GL113815   1.313  21.091   2.724  0.0997 -0.1330 -0.2181
    1DPPC   GL213816   1.051  20.831   2.865  0.2770 -0.0086 -0.3827
    1DPPC   C1A13817   1.357  21.295   3.085 -0.2207  0.1074 -0.0998
    1DPPC   C2A13818   1.202  21.411   3.584 -0.1491  0.3539 -0.1359
    1DPPC   C3A13819   1.049  21.395   3.948 -0.0886 -0.0021 -0.1141
    1DPPC   C4A13820   0.933  21.511   4.355  0.3339 -0.1430 -0.3941
    1DPPC   C1B13821   0.969  21.007   3.193  0.0443 -0.0427 -0.0333
    1DPPC   C2B13822   0.947  20.952   3.653  0.1448 -0.0540  0.2438
    1DPPC   C3B13823   0.805  21.028   4.033 -0.2042  0.1604  0.1088
    1DPPC   C4B13824   0.572  21.176   4.354 -0.2892 -0.0968  0.0029
    1DPPC   NC313825   6.957  26.724   2.625  0.1224 -0.1282  0.1712
    1DPPC   PO413826   6.907  26.397   2.958 -0.1978 -0.0536  0.0967
    1DPPC   GL113827   6.976  26.788   3.174  0.1190  0.0814 -0.0288
    1DPPC   GL213828   6.865  27.056   3.021 -0.2500 -0.0204 -0.0675
    1DPPC   C1A13829   6.831  26.964   3.525  0.0950  0.0880 -0.1322
    1DPPC   C2A13830   6.823  27.090   3.985 -0.0405 -0.1215 -0.2724
    1DPPC   C3A13831   6.586  27.261   4.299  0.0294 -0.2461 -0.1332
    1DPPC   C4A13832   6.214  27.352   4.389  0.2069 -0.0754  0.1374
    1DPPC   C1B13833   7.183  27.193   3.298  0.4222  0.0154 -0.2181
    1DPPC   C2B13834   7.248  27.267   3.699 -0.1013 -0.2214 -0.1097
    1DPPC   C3B13835   7.361  27.537   4.024  0.0467 -0.0073 -0.0063
    1DPPC   C4B13836   7.683  27.916   3.987 -0.0274  0.1646  0.1265
    1DPPC   NC313837   7.673   5.836   2.780  0.0647 -0.0323  0.2393
    1DPPC   PO413838   7.608   6.208   2.970  0.0617 -0.1515  0.1027
    1DPPC   GL113839   7.633   6.137   3.370  0.3243 -0.0017 -0.0927
    1DPPC   GL213840   7.339   6.169   3.428  0.0702 -0.0228 -0.2231
    1DPPC   C1A13841   7.853   6.039   3.720 -0.0974 -0.5265 -0.1550
    1DPPC   C2A13842   7.777   6.001   4.140  0.0017  0.4540 -0.0633
    1DPPC   C3A13843   7.649   5.779   4.516 -0.0428  0.1451  0.2919
    1DPPC   C4A13844   7.426   5.575   4.830  0.1159 -0.2676 -0.1089
    1DPPC   C1B13845   7.367   6.097   3.858 -0.0379  0.0324  0.0355
    1DPPC   C2B13846   7.389   6.286   4.234  0.3112 -0.0839  0.0625
    1DPPC   C3B13847   7.101   6.262   4.596  0.0286  0.2803  0.0742
    1DPPC   C4B13848   7.364   6.032   4.937  0.0190 -0.1971  0.1608
    1DPPC   NC313849  16.969   6.759   3.331  0.2494 -0.3441 -0.0398
    1DPPC   PO413850  17.354   6.454   3.490 -0.2539  0.0912 -0.2055
    1DPPC   GL113851  17.568   6.277   3.762  0.1418 -0.1157 -0.1619
    1DPPC   GL213852  17.919   6.208   3.852  0.2907 -0.1639  0.1609
    1DPPC   C1A13853  17.421   6.020   4.068  0.2444 -0.1642  0.2234
    1DPPC   C2A13854  17.308   6.085   4.492  0.0724 -0.0164  0.0052
    1DPPC   C3A13855  17.078   5.725   4.728 -0.1385 -0.2844 -0.3542
    1DPPC   C4A13856  16.915   5.424   4.961  0.3163  0.1111  0.2042
    1DPPC   C1B13857  18.152   6.135   4.182 -0.0895 -0.1464  0.2236
    1DPPC   C2B13858  18.284   6.174   4.577  0.3320 -0.1603 -0.1742
    1DPPC   C3B13859  18.270   6.222   5.020 -0.0756  0.1655  0.1068
    1DPPC   C4B13860  18.081   6.412   5.378 -0.2390 -0.0161 -0.2750
    1DPPC   NC313861  20.050  17.885   3.960 -0.1236  0.0661 -0.0929
    1DPPC   PO413862  20.496  18.016   3.985  0.0241 -0.2211  0.1657
    1DPPC   GL113863  20.484  17.833   4.338  0.0537  0.0165 -0.0747
    1DPPC   GL213864  20.251  17.536   4.336  0.4278 -0.0513 -0.0400
    1DPPC   C1A13865  20.572  17.783   4.832  0.2878  0.2339  0.0694
    1DPPC   C2A13866  20.505  18.193   5.173 -0.4754 -0.2075  0.5271
    1DPPC   C3A13867  20.417  18.066   5.664 -0.0593  0.2843  0.0292
    1DPPC   C4A13868  20.671  17.972   5.979  0.1347  0.6091  0.5327
    1DPPC   C1B13869  20.345  17.389   4.669 -0.1016 -0.1231 -0.1922
    1DPPC   C2B13870  20.278  17.065   4.970 -0.3333 -0.0177 -0.0093
    1DPPC   C3B13871  20.275  17.049   5.390 -0.0664  0.0351 -0.0110
    1DPPC   C4B13872  20.223  16.987   5.776  0.1256  0.1638 -0.2337
    1DPPC   NC313873  26.574   3.390   2.786 -0.0015  0.1958 -0.0104
    1DPPC   PO413874  26.302   3.209   3.157  0.2888  0.0157  0.3185
    1DPPC   GL113875  26.148   3.482   3.454  0.1324 -0.1147  0.2493
    1DPPC   GL213876  26.406   3.417   3.680  0.0395  0.0819  0.1777
    1DPPC   C1A13877  26.132   3.797   3.653 -0.1673  0.1913  0.1786
    1DPPC   C2A13878  26.068   3.858   4.114 -0.1048  0.0132  0.2081
    1DPPC   C3A13879  25.841   3.737   4.536 -0.2013 -0.2024  0.0761
    1DPPC   C4A13880  25.637   4.105   4.807 -0.1578  0.1835  0.1709
    1DPPC   C1B13881  26.527   3.120   3.932 -0.0284  0.1126 -0.3873
    1DPPC   C2B13882  26.506   2.785   4.276 -0.4207  0.1046 -0.0327
    1DPPC   C3B13883  26.335   2.411   4.519 -0.2001  0.1309  0.5049
    1DPPC   C4B13884  26.026   2.205   4.741 -0.1057  0.2394  0.3344
    1DPPC   NC313885  22.288  26.113   3.783  0.0248 -0.1868  0.4226
    1DPPC   PO413886  21.899  26.185   3.469  0.0536  0.1720 -0.1995
    1DPPC   GL113887  21.839  26.298   3.929  0.2444  0.0439  0.1344
    1DPPC   GL213888  21.844  26.098   4.175  0.2427  0.3006 -0.1373
    1DPPC   C1A13889  21.748  26.684   4.241 -0.1527 -0.2330 -0.2381
    1DPPC   C2A13890  21.660  26.786   4.541  0.2926  0.1948 -0.3232
    1DPPC   C3A13891  21.771  26.574   4.909  0.0199  0.0800 -0.1790
    1DPPC   C4A13892  21.904  26.329   5.329  0.2116  0.3666 -0.0851
    1DPPC   C1B13893  21.934  26.227   4.604  0.0174  0.3787 -0.0439
    1DPPC   C2B13894  21.858  26.053   4.951 -0.1204  0.2264 -0.1365
    1DPPC   C3B13895  22.084  25.844   5.270  0.0504 -0.1894 -0.0557
    1DPPC   C4B13896  21.912  25.877   5.729 -0.5394  0.0863 -0.0005
    1DPPC   NC313897   9.941   3.071   3.376 -0.2203  0.2820  0.0749
    1DPPC   PO413898  10.196   2.869   3.594 -0.1665 -0.2594  0.0733
    1DPPC   GL113899  10.157   2.890   3.989  0.0978 -0.3955 -0.0089
    1DPPC   GL213900   9.962   2.743   4.073  0.0018  0.2331 -0.2468
    1DPPC   C1A13901  10.035   3.160   4.350 -0.0219  0.0313 -0.1185
    1DPPC   C2A13902   9.846   3.249   4.686 -0.2505 -0.1749  0.0724
    1DPPC   C3A13903   9.608   3.172   5.059  0.0286 -0.2573  0.0076
    1DPPC   C4A13904   9.369   3.447   5.402  0.0490  0.3789  0.0188
    1DPPC   C1B13905  10.033   2.666   4.464 -0.0859  0.3332  0.1234
    1DPPC   C2B13906   9.958   2.720   4.916 -0.0066 -0.3579 -0.3565
    1DPPC   C3B13907   9.722   2.747   5.275 -0.0078 -0.2397 -0.0624
    1DPPC   C4B13908   9.365   2.432   5.419  0.0797 -0.1442 -0.0067
    1DPPC   NC313909  18.046   5.138   2.931 -0.2074 -0.0038  0.0161
    1DPPC   PO413910  17.940   5.044   3.456 -0.1054  0.0794  0.2139
    1DPPC   GL113911  17.898   5.030   3.887 -0.0251  0.0685 -0.4481
    1DPPC   GL213912  18.212   4.843   4.027  0.1841 -0.0654 -0.2910
    1DPPC   C1A13913  17.661   4.927   4.192  0.2501 -0.3301  0.2045
    1DPPC   C2A13914  17.421   5.159   4.519  0.0814  0.1335 -0.1328
    1DPPC   C3A13915  17.428   5.393   4.902 -0.2694 -0.2218 -0.3029
    1DPPC   C4A13916  17.795   5.443   5.101  0.2857 -0.2234  0.0706
    1DPPC   C1B13917  18.204   4.803   4.483 -0.1700  0.0833 -0.0748
    1DPPC   C2B13918  18.381   4.596   4.873  0.1741  0.0683 -0.0112
    1DPPC   C3B13919  18.254   4.486   5.300  0.0642  0.1117  0.0563
    1DPPC   C4B13920  18.344   4.210   5.720 -0.0268 -0.0024 -0.1786
    1DPPC   NC313921   9.847   6.010   3.498  0.0656  0.0140  0.0176
    1DPPC   PO413922   9.844   6.409   3.455  0.2066  0.1381  0.0597
    1DPPC   GL113923   9.692   6.494   3.827  0.1797 -0.1208 -0.0786
    1DPPC   GL213924   9.592   6.798   3.813  0.3360  0.1669  0.1745
    1DPPC   C1A13925   9.640   6.311   4.293  0.3514 -0.0961  0.2117
    1DPPC   C2A13926   9.625   6.207   4.871  0.1928  0.0357  0.1515
    1DPPC   C3A13927   9.736   6.302   5.318 -0.0958  0.1715  0.0111
    1DPPC   C4A13928  10.011   6.372   5.565 -0.1866 -0.0634  0.0104
    1DPPC   C1B13929   9.484   6.959   4.211  0.0981 -0.2265 -0.2104
    1DPPC   C2B13930   9.420   6.928   4.647  0.3405 -0.0079 -0.0554
    1DPPC   C3B13931   9.403   7.244   4.971 -0.0555  0.1550  0.0472
    1DPPC   C4B13932   9.308   7.540   5.270 -0.1516 -0.0748  0.0276
    1DPPC   NC313933  11.813   6.993   3.525  0.0263 -0.0994 -0.3497
    1DPPC   PO413934  11.794   7.453   3.788 -0.2439 -0.1349 -0.2061
    1DPPC   GL113935  11.867   7.070   4.057  0.1699  0.3861  0.0851
    1DPPC   GL213936  11.789   6.780   4.073  0.1134  0.2313  0.1256
    1DPPC   C1A13937  11.891   7.135   4.513 -0.0906  0.0723  0.1055
    1DPPC   C2A13938  12.051   7.147   4.881 -0.0772 -0.0896  0.3661
    1DPPC   C3A13939  12.189   7.018   5.312  0.1121  0.2100  0.1291
    1DPPC   C4A13940  12.358   6.830   5.620 -0.1930 -0.2500  0.0272
    1DPPC   C1B13941  11.937   6.657   4.475 -0.1465 -0.3483 -0.2095
    1DPPC   C2B13942  12.232   6.655   4.887 -0.2562 -0.1855 -0.2048
    1DPPC   C3B13943  12.503   6.641   5.213 -0.2684  0.2302 -0.2901
    1DPPC   C4B13944  12.925   6.591   5.477 -0.0223  0.1801 -0.0293
    1DPPC   NC313945   3.672  27.194   2.666 -0.0213  0.1658  0.2068
    1DPPC   PO413946   3.765  27.244   3.123 -0.0296  0.0570  0.0851
    1DPPC   GL113947   4.161  27.259   3.361  0.0217 -0.0293 -0.0171
    1DPPC   GL213948   4.359  27.238   3.143  0.0917  0.1083 -0.0294
    1DPPC   C1A13949   4.477  27.256   3.686 -0.0230 -0.0860 -0.0304
    1DPPC   C2A13950   4.634  27.409   4.076  0.0251  0.1624 -0.2105
    1DPPC   C3A13951   4.644  27.454   4.533 -0.0215 -0.0797 -0.0543
    1DPPC   C4A13952   4.742  27.332   4.943  0.3237  0.1882  0.2981
    1DPPC   C1B13953   4.320  26.805   3.377  0.0593 -0.1808  0.0802
    1DPPC   C2B13954   4.555  26.484   3.434  0.1548 -0.1534 -0.1440
    1DPPC   C3B13955   4.883  26.223   3.573 -0.0337 -0.1216 -0.1064
    1DPPC   C4B13956   4.837  25.805   3.733  0.0605  0.3344 -0.3095
    1DPPC   NC313957  27.067  26.031   3.085  0.3651 -0.0622 -0.2112
    1DPPC   PO413958  26.680  25.966   2.996  0.0656  0.0511 -0.0745
    1DPPC   GL113959  26.733  26.149   3.385  0.2436  0.1407 -0.2255
    1DPPC   GL213960  26.473  26.395   3.540 -0.1289  0.0990 -0.0349
    1DPPC   C1A13961  26.980  25.946   3.754 -0.1589  0.0949  0.1474
    1DPPC   C2A13962  27.060  26.025   4.190  0.0998  0.0901  0.0979
    1DPPC   C3A13963  27.352  25.845   4.431  0.0768  0.0648 -0.2863
    1DPPC   C4A13964  27.590  25.624   4.808  0.1366 -0.0144 -0.1854
    1DPPC   C1B13965  26.639  26.255   3.933  0.1333  0.2743  0.0103
    1DPPC   C2B13966  26.644  26.302   4.355 -0.0820 -0.0259 -0.2139
    1DPPC   C3B13967  26.528  26.482   4.741  0.0699 -0.1368  0.0703
    1DPPC   C4B13968  26.199  26.774   4.839 -0.1414 -0.1514  0.0102
    1DPPC   NC313969  18.753  24.476   3.167 -0.2122 -0.0213 -0.1769
    1DPPC   PO413970  19.066  24.418   3.391 -0.0916  0.0288 -0.0502
    1DPPC   GL113971  19.101  24.607   3.805  0.0877  0.0012 -0.2455
    1DPPC   GL213972  19.330  24.840   3.878  0.1660 -0.0690  0.0325
    1DPPC   C1A13973  18.941  24.653   4.265 -0.0217 -0.3140  0.2130
    1DPPC   C2A13974  19.137  24.458   4.715 -0.2680  0.0304  0.0064
    1DPPC   C3A13975  19.552  24.461   4.710 -0.0703 -0.0203  0.5091
    1DPPC   C4A13976  19.890  24.503   4.556  0.1592  0.2525 -0.1181
    1DPPC   C1B13977  19.494  24.903   4.272  0.1704  0.2302  0.1288
    1DPPC   C2B13978  19.812  25.023   4.569  0.0034  0.1204  0.1226
    1DPPC   C3B13979  19.877  25.210   5.053 -0.1326  0.1103 -0.1929
    1DPPC   C4B13980  20.077  25.001   5.422 -0.0392  0.0729  0.4356
    1DPPC   NC313981   7.783   9.497   3.409 -0.0921 -0.0378  0.1211
    1DPPC   PO413982   8.248   9.406   3.469  0.1902 -0.1043 -0.3173
    1DPPC   GL113983   8.356   9.317   3.893  0.0273 -0.0308  0.0114
    1DPPC   GL213984   8.389   9.575   4.212 -0.0503 -0.1924  0.2911
    1DPPC   C1A13985   8.392   9.070   4.307  0.2720  0.0089  0.1448
    1DPPC   C2A13986   8.456   8.862   4.633 -0.1398  0.1934 -0.2537
    1DPPC   C3A13987   8.228   8.655   4.990  0.2088 -0.1047 -0.0407
    1DPPC   C4A13988   8.335   8.444   5.394  0.0219  0.0408 -0.0251
    1DPPC   C1B13989   8.110   9.497   4.474  0.2571  0.0754  0.1252
    1DPPC   C2B13990   8.277   9.285   4.778 -0.0022 -0.0197 -0.0288
    1DPPC   C3B13991   8.516   9.178   5.025  0.2519 -0.1139 -0.0020
    1DPPC   C4B13992   8.580   8.860   5.277 -0.2740  0.0326 -0.0045
    1DPPC   NC313993  24.079   4.673   2.938 -0.0610 -0.2359 -0.1144
    1DPPC   PO413994  24.145   5.149   3.056 -0.0153 -0.0713  0.0017
    1DPPC   GL113995  24.221   5.176   3.592 -0.2556 -0.2207 -0.0475
    1DPPC   GL213996  24.504   5.135   3.700  0.0755 -0.1961 -0.0697
    1DPPC   C1A13997  24.064   5.341   3.966  0.4177  0.0512 -0.2136
    1DPPC   C2A13998  23.872   5.367   4.261  0.1519  0.2356  0.0511
    1DPPC   C3A13999  23.527   5.387   4.575 -0.0509  0.0489  0.0061
    1DPPC   C4A14000  23.285   5.603   4.968 -0.1592  0.0314  0.3833
    1DPPC   C1B14001  24.565   5.243   4.075 -0.1272 -0.1416 -0.1771
    1DPPC   C2B14002  24.341   5.109   4.418 -0.0322 -0.0658 -0.0493
    1DPPC   C3B14003  24.008   5.244   4.782 -0.3533 -0.3620  0.2153
    1DPPC   C4B14004  23.722   5.353   5.113  0.0116 -0.4609  0.2186
    1DPPC   NC314005   7.826   2.777   2.859  0.0793  0.1413  0.0993
    1DPPC   PO414006   8.302   2.658   2.838  0.1242  0.1344 -0.0406
    1DPPC   GL114007   8.168   2.724   3.238 -0.1460 -0.0884  0.0508
    1DPPC   GL214008   8.185   2.369   3.262 -0.0169  0.1710 -0.1566
    1DPPC   C1A14009   8.062   2.805   3.686 -0.1479 -0.1994  0.3022
    1DPPC   C2A14010   8.009   2.867   4.113  0.2193  0.0800  0.0542
    1DPPC   C3A14011   8.115   2.865   4.612  0.1841 -0.0132 -0.2628
    1DPPC   C4A14012   7.850   2.698   5.031 -0.2736 -0.1318  0.1229
    1DPPC   C1B14013   7.876   2.372   3.603  0.0877 -0.2276 -0.2274
    1DPPC   C2B14014   7.709   2.443   4.098 -0.0669 -0.1616  0.5347
    1DPPC   C3B14015   7.692   2.545   4.517 -0.1107 -0.1290  0.0051
    1DPPC   C4B14016   7.598   2.294   4.963  0.2298  0.0390 -0.1502
    1DPPC   NC314017   8.045  26.762   2.385 -0.1465 -0.1668  0.1804
    1DPPC   PO414018   7.698  26.471   2.529 -0.2835 -0.4136 -0.0897
    1DPPC   GL114019   7.463  26.622   2.854  0.4975 -0.1920 -0.4555
    1DPPC   GL214020   7.393  26.426   3.208  0.0712  0.1383 -0.1259
    1DPPC   C1A14021   7.556  26.886   3.194  0.0189  0.2593 -0.0073
    1DPPC   C2A14022   7.733  27.199   3.562 -0.1429 -0.2860 -0.2752
    1DPPC   C3A14023   7.914  27.175   3.909  0.0231  0.0952 -0.4087
    1DPPC   C4A14024   7.772  27.493   4.262 -0.0829 -0.1815 -0.0295
    1DPPC   C1B14025   7.264  26.670   3.545  0.0092  0.1490  0.0534
    1DPPC   C2B14026   7.518  26.833   3.907  0.1710  0.0505  0.1762
    1DPPC   C3B14027   7.555  27.039   4.263  0.2433  0.3793 -0.1475
    1DPPC   C4B14028   7.258  27.058   4.663 -0.0950  0.4298  0.1669
    1DPPC   NC314029  13.724  13.048   3.680  0.3274  0.1459  0.1436
    1DPPC   PO414030  14.038  12.784   3.914  0.1615 -0.1630 -0.3361
    1DPPC   GL114031  14.329  12.764   4.278 -0.3101  0.1747 -0.2112
    1DPPC   GL214032  14.133  12.966   4.498  0.2156  0.2417  0.1289
    1DPPC   C1A14033  14.387  12.545   4.675  0.1380  0.0397 -0.1165
    1DPPC   C2A14034  14.565  12.697   5.057  0.0628  0.0359 -0.0139
    1DPPC   C3A14035  14.700  12.536   5.527 -0.2170  0.1735 -0.2390
    1DPPC   C4A14036  14.986  12.130   5.623 -0.1405 -0.1586 -0.2609
    1DPPC   C1B14037  14.076  12.830   5.063  0.3989  0.1673  0.0416
    1DPPC   C2B14038  14.184  12.792   5.495  0.1110 -0.1408  0.0822
    1DPPC   C3B14039  14.423  12.821   5.902  0.1971  0.2574  0.0235
    1DPPC   C4B14040  14.557  12.853   6.260 -0.0510  0.2350 -0.2870
    1DPPC   NC314041   9.387   5.089   2.759  0.0731  0.0520 -0.0154
    1DPPC   PO414042   9.331   5.294   3.074  0.1527 -0.0607  0.1154
    1DPPC   GL114043   9.448   5.130   3.441 -0.1296  0.0497  0.0853
    1DPPC   GL214044   9.185   5.090   3.596 -0.2969 -0.1508 -0.4148
    1DPPC   C1A14045   9.559   5.300   3.930 -0.0764 -0.1541 -0.3482
    1DPPC   C2A14046   9.748   5.359   4.276 -0.3153 -0.1664  0.1747
    1DPPC   C3A14047  10.126   5.539   4.472  0.1770  0.3788  0.0869
    1DPPC   C4A14048  10.506   5.483   4.358 -0.0473 -0.4236 -0.1564
    1DPPC   C1B14049   9.113   5.050   3.970  0.1648 -0.1614 -0.1512
    1DPPC   C2B14050   9.109   5.290   4.263 -0.0638  0.0992 -0.0138
    1DPPC   C3B14051   9.311   5.360   4.539 -0.1420 -0.0135  0.0986
    1DPPC   C4B14052   9.377   5.506   4.958 -0.2380 -0.1602 -0.0729
    1DPPC   NC314053   8.638  18.357   3.493  0.0399 -0.3285 -0.1206
    1DPPC   PO414054   8.885  18.103   3.768 -0.4653  0.6263  0.0522
    1DPPC   GL114055   8.902  17.968   4.208  0.1145 -0.0988 -0.2782
    1DPPC   GL214056   8.553  17.995   4.192 -0.1229  0.3119  0.3112
    1DPPC   C1A14057   8.733  17.676   4.655 -0.1062 -0.1041 -0.1037
    1DPPC   C2A14058   8.550  17.427   4.887  0.1612  0.0458  0.0173
    1DPPC   C3A14059   8.230  17.417   5.187  0.1323 -0.0966  0.0156
    1DPPC   C4A14060   7.993  17.295   5.447  0.0728  0.0504  0.1183
    1DPPC   C1B14061   8.678  18.250   4.547 -0.1429 -0.0377 -0.0894
    1DPPC   C2B14062   8.996  18.264   4.711  0.0139  0.0367  0.0229
    1DPPC   C3B14063   9.118  18.169   5.051  0.0266 -0.3387  0.2205
    1DPPC   C4B14064   9.192  18.211   5.530  0.1178 -0.3817 -0.0051
    1DPPC   NC314065  27.957   5.138   2.197  0.0510 -0.1353  0.2017
    1DPPC   PO414066  27.746   5.525   2.138 -0.3223 -0.0166 -0.0162
    1DPPC   GL114067  27.752   5.506   2.528 -0.0040  0.2770 -0.0256
    1DPPC   GL214068  28.114   5.508   2.514  0.1364 -0.1561  0.1665
    1DPPC   C1A14069  27.768   5.715   2.935  0.3488  0.0775  0.2354
    1DPPC   C2A14070  27.820   5.546   3.354  0.0427  0.0554  0.3049
    1DPPC   C3A14071  27.696   5.603   3.822 -0.1590 -0.2391 -0.1676
    1DPPC   C4A14072  27.694   5.513   4.299  0.0476 -0.0554  0.0177
    1DPPC   C1B14073   0.125   5.203   2.883  0.0510  0.1082 -0.2869
    1DPPC   C2B14074  27.976   5.010   3.227 -0.2007 -0.1129  0.3554
    1DPPC   C3B14075  27.845   5.128   3.626  0.0374 -0.0882 -0.0024
    1DPPC   C4B14076  28.017   5.219   4.027  0.0902 -0.3280  0.0298
    1DPPC   NC314077  19.022  18.936   3.215 -0.0459  0.0490  0.0821
    1DPPC   PO414078  19.232  18.656   3.422  0.0433  0.1623 -0.1389
    1DPPC   GL114079  19.162  18.570   3.802 -0.0771 -0.0898 -0.1130
    1DPPC   GL214080  18.867  18.720   3.943 -0.0384 -0.0572 -0.1016
    1DPPC   C1A14081  19.189  18.362   4.345 -0.0154  0.0415  0.1021
    1DPPC   C2A14082  19.137  18.304   4.675  0.0561 -0.0980  0.0076
    1DPPC   C3A14083  19.115  18.345   5.069  0.0605 -0.2194  0.1874
    1DPPC   C4A14084  19.194  18.689   5.360  0.0926 -0.1074 -0.1508
    1DPPC   C1B14085  18.745  18.638   4.460  0.2296 -0.1751  0.1547
    1DPPC   C2B14086  18.497  18.797   4.826  0.0834 -0.3596  0.0493
    1DPPC   C3B14087  18.222  18.721   5.181  0.3565 -0.1853  0.2366
    1DPPC   C4B14088  17.916  18.658   5.571  0.1081  0.2289  0.3606
    1DPPC   NC314089  12.615   6.498   3.766  0.2809 -0.2960  0.4588
    1DPPC   PO414090  12.213   6.766   3.691 -0.0859  0.2486  0.0152
    1DPPC   GL114091  12.449   6.917   4.074  0.2326  0.0197 -0.1541
    1DPPC   GL214092  12.823   6.939   4.127 -0.2717  0.1139  0.2253
    1DPPC   C1A14093  12.352   7.018   4.514 -0.3330 -0.1111  0.0646
    1DPPC   C2A14094  12.525   7.097   4.902  0.1986 -0.0374  0.0692
    1DPPC   C3A14095  12.702   7.052   5.278 -0.2251  0.1792 -0.2718
    1DPPC   C4A14096  13.121   7.206   5.485 -0.3280 -0.1083 -0.0301
    1DPPC   C1B14097  12.909   7.180   4.586  0.2605 -0.0488  0.4072
    1DPPC   C2B14098  13.150   7.242   4.915  0.2231 -0.1063 -0.2465
    1DPPC   C3B14099  13.579   7.259   5.241  0.3079  0.1110  0.1939
    1DPPC   C4B14100  14.010   7.247   5.155  0.1041  0.5491 -0.0968
    1DPPC   NC314101   9.498  13.850   3.283  0.0916 -0.2320 -0.2802
    1DPPC   PO414102   9.339  14.229   3.484 -0.1178 -0.0667 -0.1883
    1DPPC   GL114103   9.226  14.387   3.991  0.1184 -0.1451 -0.0075
    1DPPC   GL214104   9.462  14.587   4.024 -0.0992 -0.1987 -0.0547
    1DPPC   C1A14105   9.116  14.193   4.404 -0.2513  0.1129  0.0132
    1DPPC   C2A14106   9.319  13.992   4.686 -0.3647  0.3438  0.0351
    1DPPC   C3A14107   9.233  13.620   4.963 -0.2032  0.0298  0.0358
    1DPPC   C4A14108   9.089  13.487   5.376  0.6374  0.0335 -0.2952
    1DPPC   C1B14109   9.229  14.674   4.465 -0.0797  0.3366  0.1326
    1DPPC   C2B14110   9.200  14.879   4.899 -0.0370  0.0936 -0.1664
    1DPPC   C3B14111   8.943  14.894   5.239  0.1151 -0.0805 -0.0248
    1DPPC   C4B14112   8.888  15.137   5.571 -0.0565 -0.0364 -0.3027
    1DPPC   NC314113  26.112  25.019   2.646 -0.0704  0.1814 -0.3496
    1DPPC   PO414114  26.158  24.698   2.983  0.4979  0.1008 -0.1988
    1DPPC   GL114115  26.428  24.556   3.321  0.1689  0.4098  0.2245
    1DPPC   GL214116  26.405  24.210   3.417  0.1265 -0.2377  0.1470
    1DPPC   C1A14117  26.609  24.608   3.670 -0.0439 -0.1961 -0.0855
    1DPPC   C2A14118  26.495  24.587   4.081 -0.0538 -0.3285  0.0276
    1DPPC   C3A14119  26.682  24.338   4.339  0.2689 -0.1410  0.0394
    1DPPC   C4A14120  26.761  24.155   4.655  0.0842 -0.4103 -0.2956
    1DPPC   C1B14121  26.186  24.387   3.797  0.0374 -0.0862 -0.1167
    1DPPC   C2B14122  26.114  24.393   4.265  0.2222  0.2546 -0.0580
    1DPPC   C3B14123  25.827  24.678   4.542  0.3887 -0.0757  0.0457
    1DPPC   C4B14124  25.852  24.600   4.977 -0.6257  0.1887  0.0253
    1DPPC   NC314125  25.358   6.629   2.548 -0.2541  0.1670 -0.0694
    1DPPC   PO414126  25.329   6.218   2.817 -0.3398  0.0059 -0.0956
    1DPPC   GL114127  25.369   6.454   3.118 -0.0950 -0.0533 -0.1579
    1DPPC   GL214128  25.267   6.333   3.347  0.3095  0.1099 -0.0971
    1DPPC   C1A14129  25.517   6.754   3.425  0.0121 -0.1874  0.3535
    1DPPC   C2A14130  25.725   6.876   3.734  0.1444 -0.1750 -0.1074
    1DPPC   C3A14131  25.450   6.833   4.116  0.0827 -0.1165 -0.3371
    1DPPC   C4A14132  25.478   6.910   4.499  0.0116  0.0280  0.0365
    1DPPC   C1B14133  25.317   6.413   3.842 -0.1804 -0.3552 -0.1830
    1DPPC   C2B14134  25.149   6.524   4.313 -0.0154 -0.0379 -0.0484
    1DPPC   C3B14135  25.062   6.729   4.697  0.0356  0.1055  0.0038
    1DPPC   C4B14136  25.254   6.816   4.957  0.1034  0.1839 -0.0423
    1DPPC   NC314137   4.797  24.167   2.927 -0.0050  0.1869 -0.0738
    1DPPC   PO414138   4.709  24.563   2.853  0.4082 -0.2198 -0.1571
    1DPPC   GL114139   5.090  24.589   3.108  0.3106  0.1944 -0.0629
    1DPPC   GL214140   4.892  24.596   3.406 -0.0836 -0.1675  0.0290
    1DPPC   C1A14141   5.379  24.523   3.433 -0.0101  0.1790 -0.0046
    1DPPC   C2A14142   5.616  24.682   3.842 -0.0236 -0.0879  0.2409
    1DPPC   C3A14143   5.681  24.882   4.161 -0.1425 -0.1835  0.0203
    1DPPC   C4A14144   5.672  24.784   4.536  0.2311 -0.1305 -0.0183
    1DPPC   C1B14145   5.070  24.779   3.706 -0.5697 -0.2433 -0.0433
    1DPPC   C2B14146   5.166  24.695   4.131 -0.1270 -0.2147  0.0080
    1DPPC   C3B14147   5.161  24.694   4.569  0.0380 -0.5260 -0.0778
    1DPPC   C4B14148   5.125  24.554   5.134 -0.2067 -0.2256  0.2193
    1DPPC   NC314149  17.361  14.736   3.368 -0.0414 -0.1729  0.0098
    1DPPC   PO414150  17.664  14.296   3.554  0.0303  0.1009  0.1141
    1DPPC   GL114151  17.916  14.319   3.921 -0.1029 -0.0714 -0.1698
    1DPPC   GL214152  17.936  14.545   4.196  0.0991 -0.1932 -0.1522
    1DPPC   C1A14153  18.149  14.018   4.308 -0.2314  0.0610  0.3016
    1DPPC   C2A14154  18.036  13.884   4.719  0.4525 -0.2192  0.0711
    1DPPC   C3A14155  18.109  14.144   5.156  0.0911 -0.0136  0.3027
    1DPPC   C4A14156  17.915  14.163   5.524 -0.0677 -0.2588  0.0613
    1DPPC   C1B14157  18.169  14.452   4.592 -0.2183  0.2546 -0.1631
    1DPPC   C2B14158  18.476  14.398   4.930 -0.1985  0.0888 -0.0508
    1DPPC   C3B14159  18.825  14.501   5.154  0.1218  0.0563  0.0801
    1DPPC   C4B14160  18.923  14.568   5.438 -0.1809  0.1013  0.2288
    1DPPC   NC314161  25.440  16.254   2.695  0.3734 -0.5523  0.0860
    1DPPC   PO414162  25.752  15.938   2.496  0.0286  0.2107 -0.0003
    1DPPC   GL114163  25.718  15.897   2.945  0.0750 -0.1806 -0.0800
    1DPPC   GL214164  25.780  15.661   3.202  0.2457  0.1778  0.0027
    1DPPC   C1A14165  25.953  16.145   3.213  0.2466 -0.2155 -0.1415
    1DPPC   C2A14166  26.018  16.179   3.567 -0.3108 -0.0898  0.0231
    1DPPC   C3A14167  26.040  16.321   3.941  0.2549 -0.3146 -0.3095
    1DPPC   C4A14168  26.117  16.499   4.270  0.0559 -0.0619  0.3667
    1DPPC   C1B14169  25.605  15.862   3.505  0.0422 -0.0794 -0.0789
    1DPPC   C2B14170  25.560  15.972   3.879  0.1408 -0.1044  0.1506
    1DPPC   C3B14171  25.726  16.100   4.310  0.0040 -0.2051  0.1711
    1DPPC   C4B14172  25.663  16.013   4.794 -0.1655 -0.0909  0.2012
    1DPPC   NC314173   8.538  20.004   3.477 -0.0106 -0.0304  0.0223
    1DPPC   PO414174   8.619  20.410   3.631 -0.1233 -0.1390 -0.4964
    1DPPC   GL114175   8.585  20.273   4.097  0.3171 -0.1028  0.2130
    1DPPC   GL214176   8.244  20.318   4.215  0.1205  0.2622 -0.0619
    1DPPC   C1A14177   8.547  20.210   4.570  0.1141  0.0925  0.3858
    1DPPC   C2A14178   8.584  20.191   4.987  0.1201  0.0210 -0.2662
    1DPPC   C3A14179   8.842  20.448   5.226 -0.5130  0.3344 -0.3320
    1DPPC   C4A14180   8.914  20.555   5.608 -0.0647  0.1132 -0.1647
    1DPPC   C1B14181   8.165  20.488   4.689 -0.1532  0.0672  0.0484
    1DPPC   C2B14182   8.223  20.536   5.090 -0.0965  0.5977 -0.2209
    1DPPC   C3B14183   8.409  20.527   5.459  0.1492 -0.1106  0.0279
    1DPPC   C4B14184   8.244  20.453   5.842 -0.2468 -0.0274 -0.2473
    1DPPC   NC314185  26.789  21.510   2.640  0.0728  0.1486 -0.0394
    1DPPC   PO414186  26.505  21.873   2.814  0.0669 -0.2640 -0.1386
    1DPPC   GL114187  26.292  21.886   3.204 -0.2880 -0.0634 -0.1268
    1DPPC   GL214188  25.934  21.857   3.271  0.2801  0.0431 -0.1329
    1DPPC   C1A14189  26.297  21.822   3.633 -0.3597  0.2397  0.1378
    1DPPC   C2A14190  26.206  21.830   3.981  0.0574  0.2049 -0.0282
    1DPPC   C3A14191  25.825  21.944   4.220  0.0323 -0.1258 -0.2172
    1DPPC   C4A14192  25.674  22.367   4.297 -0.0417 -0.0737 -0.0641
    1DPPC   C1B14193  25.816  21.711   3.712 -0.3471 -0.1906  0.1343
    1DPPC   C2B14194  25.485  21.558   3.906 -0.4584  0.1664 -0.0356
    1DPPC   C3B14195  25.265  21.222   3.849  0.0304 -0.0772 -0.1412
    1DPPC   C4B14196  25.029  20.974   4.099 -0.2766 -0.0151  0.1719
    1DPPC   NC314197   5.985  21.121   3.535 -0.2042 -0.3009 -0.3750
    1DPPC   PO414198   5.588  21.349   3.562 -0.2143 -0.0840 -0.0255
    1DPPC   GL114199   5.667  21.167   3.933 -0.0490  0.2520 -0.1076
    1DPPC   GL214200   5.941  21.300   4.031  0.1980  0.0772  0.2351
    1DPPC   C1A14201   5.605  20.938   4.272  0.1140 -0.3593 -0.1407
    1DPPC   C2A14202   5.314  20.690   4.509  0.4248  0.0477 -0.0472
    1DPPC   C3A14203   5.060  20.781   4.821  0.4767  0.0364  0.0096
    1DPPC   C4A14204   4.659  20.749   5.080  0.1959  0.2842  0.1196
    1DPPC   C1B14205   6.131  21.203   4.350  0.2455 -0.1121  0.2057
    1DPPC   C2B14206   6.192  21.184   4.783 -0.0613 -0.1163 -0.0425
    1DPPC   C3B14207   6.405  21.097   5.232 -0.1179 -0.0015  0.2748
    1DPPC   C4B14208   6.703  21.135   5.635 -0.2968  0.0138 -0.0570
    1DPPC   NC314209   0.287  26.695   2.745  0.1820 -0.0866  0.0680
    1DPPC   PO414210  27.894  26.486   2.766  0.0193 -0.0294  0.1872
    1DPPC   GL114211  27.805  26.241   3.184  0.2630 -0.1815 -0.2722
    1DPPC   GL214212  27.582  26.031   3.175  0.2679  0.1542  0.3290
    1DPPC   C1A14213  27.931  25.976   3.507 -0.2481 -0.1079  0.2479
    1DPPC   C2A14214  27.906  25.665   3.863 -0.0941  0.0047  0.1374
    1DPPC   C3A14215  27.931  25.374   4.148  0.2226  0.0043 -0.2190
    1DPPC   C4A14216  27.524  25.323   4.410 -0.2854 -0.0086  0.0480
    1DPPC   C1B14217  27.461  25.923   3.586  0.2183 -0.1749 -0.2227
    1DPPC   C2B14218  27.538  26.117   3.932 -0.1327 -0.0466  0.0642
    1DPPC   C3B14219  27.579  26.414   4.237  0.0625  0.0309 -0.0814
    1DPPC   C4B14220  27.729  26.686   4.613 -0.2181 -0.2320 -0.1075
    1DPPC   NC314221  13.678   3.902   4.146 -0.1588 -0.2831  0.1123
    1DPPC   PO414222  14.034   3.956   4.019  0.1400 -0.2065 -0.1077
    1DPPC   GL114223  14.002   4.283   4.224  0.0087 -0.2909 -0.2092
    1DPPC   GL214224  14.150   4.412   4.539  0.0223  0.1269 -0.0988
    1DPPC   C1A14225  13.740   4.248   4.746  0.1037 -0.0297  0.2056
    1DPPC   C2A14226  13.407   4.405   5.046  0.3730 -0.0902 -0.1536
    1DPPC   C3A14227  13.236   4.118   5.201 -0.1079  0.0507  0.2320
    1DPPC   C4A14228  12.999   3.848   5.039  0.0944  0.1639  0.1593
    1DPPC   C1B14229  14.199   4.293   5.020  0.0922  0.0198 -0.3679
    1DPPC   C2B14230  13.763   4.200   5.300  0.1590 -0.1219  0.2631
    1DPPC   C3B14231  13.537   4.059   5.555 -0.0549 -0.0401  0.1467
    1DPPC   C4B14232  13.227   4.290   5.787 -0.0306 -0.0261 -0.0911
    1DPPC   NC314233   5.078  26.937   2.876  0.0312  0.0621 -0.0928
    1DPPC   PO414234   4.819  27.084   3.039  0.1415  0.0513 -0.1678
    1DPPC   GL114235   4.846  27.374   3.269 -0.2180 -0.0248  0.1058
    1DPPC   GL214236   4.668  27.604   3.328 -0.0273  0.1428 -0.3557
    1DPPC   C1A14237   4.936  27.425   3.718  0.1782 -0.1937  0.0910
    1DPPC   C2A14238   5.133  27.461   4.072 -0.0171 -0.0933 -0.2353
    1DPPC   C3A14239   5.320  27.756   4.232 -0.1754 -0.0892  0.4360
    1DPPC   C4A14240   5.342  27.909   4.602 -0.0943 -0.0814  0.2785
    1DPPC   C1B14241   4.719  27.851   3.593  0.0646  0.0346 -0.1380
    1DPPC   C2B14242   4.824  27.915   3.935 -0.0281 -0.2345  0.3043
    1DPPC   C3B14243   4.907  27.908   4.402  0.3516 -0.0593  0.1223
    1DPPC   C4B14244   4.689  27.885   4.810  0.1572  0.0507  0.2583
    1DPPC   NC314245  18.227   1.757   3.495  0.0633 -0.0514  0.2620
    1DPPC   PO414246  18.099   2.244   3.622 -0.2984  0.2814 -0.1996
    1DPPC   GL114247  18.231   2.316   3.994  0.1200  0.2649  0.0369
    1DPPC   GL214248  18.232   2.003   4.072  0.0798  0.2163 -0.2542
    1DPPC   C1A14249  18.328   2.287   4.521  0.1722  0.3682  0.0117
    1DPPC   C2A14250  18.385   2.397   4.910 -0.0252  0.1685 -0.0620
    1DPPC   C3A14251  18.348   2.806   5.028  0.3430  0.1308 -0.0322
    1DPPC   C4A14252  18.618   3.204   5.042  0.1603  0.0172  0.0393
    1DPPC   C1B14253  18.662   2.027   4.233 -0.0189  0.0588  0.4691
    1DPPC   C2B14254  18.863   2.005   4.695 -0.0727 -0.0779  0.1734
    1DPPC   C3B14255  19.057   1.858   5.074  0.1259 -0.0045  0.2023
    1DPPC   C4B14256  19.019   1.585   5.460  0.0953 -0.1333 -0.1442
    1DPPC   NC314257  11.506  14.606   3.470  0.1608  0.1594 -0.1863
    1DPPC   PO414258  11.368  14.906   3.799 -0.1255  0.0943  0.3026
    1DPPC   GL114259  11.231  15.125   4.117 -0.0851 -0.1323 -0.0862
    1DPPC   GL214260  11.449  15.358   4.312 -0.3128 -0.1678 -0.0027
    1DPPC   C1A14261  11.056  15.205   4.538 -0.2039  0.0929  0.0216
    1DPPC   C2A14262  10.984  14.879   4.923 -0.0492  0.1263 -0.5332
    1DPPC   C3A14263  11.258  14.735   5.234 -0.1190  0.0754  0.1606
    1DPPC   C4A14264  11.515  14.735   5.611  0.0212 -0.1951  0.1433
    1DPPC   C1B14265  11.315  15.660   4.565 -0.0554  0.0417 -0.0753
    1DPPC   C2B14266  11.140  15.700   4.978 -0.2132 -0.0319 -0.0360
    1DPPC   C3B14267  11.088  15.659   5.530 -0.2245  0.1270 -0.0569
    1DPPC   C4B14268  10.971  15.421   5.893  0.2850  0.1444  0.0893
    1DPPC   NC314269   2.645   5.024   1.514  0.1296 -0.0556  0.2334
    1DPPC   PO414270   2.642   5.329   1.850 -0.2294  0.0775 -0.0023
    1DPPC   GL114271   2.540   5.547   2.166 -0.1429  0.0265  0.0976
    1DPPC   GL214272   2.278   5.459   2.232 -0.2930  0.0881 -0.0359
    1DPPC   C1A14273   2.553   5.589   2.610  0.2350  0.0120  0.0328
    1DPPC   C2A14274   2.523   5.283   2.874 -0.0357 -0.3580 -0.1030
    1DPPC   C3A14275   2.345   5.128   3.220 -0.1513 -0.1128  0.2218
    1DPPC   C4A14276   2.063   5.023   3.517 -0.0092 -0.1797 -0.0698
    1DPPC   C1B14277   2.361   5.098   2.476  0.1260 -0.0669 -0.1449
    1DPPC   C2B14278   2.117   4.957   2.806 -0.1515 -0.1983  0.0408
    1DPPC   C3B14279   1.868   4.725   3.090 -0.0036 -0.0286  0.0249
    1DPPC   C4B14280   1.732   4.671   3.455  0.2334 -0.3075 -0.1045
    1DPPC   NC314281   0.568  11.721   3.177  0.1706  0.1352  0.2012
    1DPPC   PO414282   0.949  11.732   3.362 -0.2314  0.1363 -0.0967
    1DPPC   GL114283   0.638  11.671   3.658  0.2143 -0.0472 -0.0616
    1DPPC   GL214284   0.293  11.568   3.615  0.0578  0.0178 -0.1253
    1DPPC   C1A14285   0.379  11.701   4.056 -0.1046  0.2227 -0.3452
    1DPPC   C2A14286   0.403  11.573   4.467 -0.1477  0.1772 -0.1524
    1DPPC   C3A14287   0.565  11.598   4.884 -0.1247 -0.1432  0.3705
    1DPPC   C4A14288   0.681  11.957   5.153  0.1340  0.2507 -0.0108
    1DPPC   C1B14289   0.063  11.296   3.935  0.1797 -0.4974 -0.1964
    1DPPC   C2B14290  28.075  11.275   4.351  0.0947  0.0799 -0.0812
    1DPPC   C3B14291  27.966  11.129   4.793  0.0263  0.2152 -0.0628
    1DPPC   C4B14292  27.857  10.758   4.906 -0.1392  0.0684  0.1092
    1DPPC   NC314293  13.779  12.647   4.354 -0.0344 -0.0619  0.3040
    1DPPC   PO414294  13.618  12.231   4.538 -0.1814  0.1855 -0.2429
    1DPPC   GL114295  13.661  12.534   4.908 -0.1405  0.1290 -0.1925
    1DPPC   GL214296  13.937  12.403   4.861  0.0583 -0.2200  0.1380
    1DPPC   C1A14297  13.603  12.724   5.234 -0.0279  0.0783 -0.0223
    1DPPC   C2A14298  13.698  12.943   5.562 -0.1475  0.0751  0.1177
    1DPPC   C3A14299  13.435  13.221   5.882  0.0548 -0.0647 -0.2039
    1DPPC   C4A14300  13.119  13.506   5.975 -0.2268  0.2091 -0.0473
    1DPPC   C1B14301  14.188  12.398   5.214  0.4358  0.1947  0.0741
    1DPPC   C2B14302  14.285  12.320   5.675  0.0508 -0.1617  0.1338
    1DPPC   C3B14303  14.386  12.118   5.977 -0.1083  0.0035  0.1055
    1DPPC   C4B14304  14.371  11.732   6.284  0.1593 -0.0413 -0.0190
    1DPPC   NC314305  26.589   4.532   2.525  0.0785  0.0270  0.0450
    1DPPC   PO414306  26.711   4.798   2.694  0.0391 -0.0281  0.0150
    1DPPC   GL114307  26.843   4.694   3.066 -0.2726  0.2460  0.1918
    1DPPC   GL214308  27.237   4.610   3.100  0.1212  0.0060 -0.0275
    1DPPC   C1A14309  26.783   4.590   3.459 -0.0047 -0.1072  0.3661
    1DPPC   C2A14310  26.590   4.742   3.848  0.1801 -0.0041 -0.1110
    1DPPC   C3A14311  26.645   5.079   4.217 -0.1513  0.0787 -0.0788
    1DPPC   C4A14312  27.059   5.170   4.479  0.2173  0.1524  0.1690
    1DPPC   C1B14313  27.291   4.368   3.415 -0.2262 -0.2232  0.2398
    1DPPC   C2B14314  27.575   4.181   3.691  0.0586 -0.0337  0.1076
    1DPPC   C3B14315  27.879   4.133   4.014 -0.0802 -0.3010 -0.1288
    1DPPC   C4B14316  28.095   3.876   4.369  0.1038 -0.3525  0.2154
    1DPPC   NC314317   4.230  16.541   2.952  0.1261  0.0558 -0.1207
    1DPPC   PO414318   4.016  16.446   3.285 -0.0197  0.2203 -0.2085
    1DPPC   GL114319   3.935  16.159   3.627 -0.1471 -0.1315  0.1096
    1DPPC   GL214320   3.866  15.863   3.555 -0.2176  0.0599 -0.0588
    1DPPC   C1A14321   4.054  16.166   4.040  0.3088  0.5278  0.0476
    1DPPC   C2A14322   3.825  16.197   4.399  0.0156 -0.0610  0.0958
    1DPPC   C3A14323   3.716  15.800   4.632  0.1956  0.0213  0.1148
    1DPPC   C4A14324   3.763  15.339   4.797 -0.0681 -0.0075 -0.2607
    1DPPC   C1B14325   3.794  15.506   3.861  0.3635  0.0403 -0.0343
    1DPPC   C2B14326   3.673  15.195   3.707  0.0151  0.1011 -0.2862
    1DPPC   C3B14327   3.402  14.876   4.035 -0.1910  0.2595 -0.3562
    1DPPC   C4B14328   3.067  14.788   4.367  0.2226 -0.1740 -0.0352
    1DPPC   NC314329  15.731  23.689   3.306  0.0698  0.2384  0.2759
    1DPPC   PO414330  15.611  23.224   3.167  0.1646 -0.4065 -0.0158
    1DPPC   GL114331  15.532  23.309   3.606  0.2773  0.0982  0.2356
    1DPPC   GL214332  15.874  23.290   3.621 -0.2335  0.0494 -0.2787
    1DPPC   C1A14333  15.451  23.260   4.051  0.1355  0.0974 -0.2319
    1DPPC   C2A14334  15.436  23.492   4.436 -0.3426  0.0782 -0.0756
    1DPPC   C3A14335  15.702  23.401   4.795  0.0955  0.0168  0.2168
    1DPPC   C4A14336  15.853  23.650   5.076  0.0835 -0.1032 -0.1080
    1DPPC   C1B14337  16.103  23.287   3.991 -0.2441 -0.1780 -0.1225
    1DPPC   C2B14338  16.316  23.161   4.279  0.4682  0.0386 -0.0299
    1DPPC   C3B14339  16.633  23.353   4.412  0.0068  0.1700 -0.0452
    1DPPC   C4B14340  16.933  23.374   4.694 -0.0044  0.1098  0.1938
    1DPPC   NC314341  14.658  14.137   3.570 -0.0013  0.0843 -0.1330
    1DPPC   PO414342  14.195  14.095   3.872  0.0901  0.0994  0.1058
    1DPPC   GL114343  14.145  13.786   4.125 -0.0847 -0.0749  0.1492
    1DPPC   GL214344  14.447  13.749   4.245 -0.3178 -0.1291  0.1934
    1DPPC   C1A14345  13.998  13.469   4.520  0.0437 -0.0137  0.0435
    1DPPC   C2A14346  14.264  13.287   4.867  0.2289  0.2913 -0.3020
    1DPPC   C3A14347  14.386  13.230   5.243  0.4887  0.2163 -0.2508
    1DPPC   C4A14348  14.309  13.253   5.640  0.1255  0.2742  0.1229
    1DPPC   C1B14349  14.439  13.747   4.610  0.0853 -0.0427 -0.0280
    1DPPC   C2B14350  14.403  13.731   5.046 -0.1606 -0.1939  0.1531
    1DPPC   C3B14351  14.283  13.749   5.471 -0.0309 -0.0033  0.1010
    1DPPC   C4B14352  14.192  13.829   5.895 -0.0751  0.2462 -0.1705
    1DPPC   NC314353  15.204  15.942   4.109  0.2065  0.1430 -0.2871
    1DPPC   PO414354  15.594  16.018   4.072  0.2174 -0.3574  0.2375
    1DPPC   GL114355  15.789  16.418   4.327 -0.1395  0.1397  0.1254
    1DPPC   GL214356  16.106  16.328   4.490 -0.1060 -0.2654 -0.0298
    1DPPC   C1A14357  15.789  16.612   4.770  0.0571  0.0472  0.0139
    1DPPC   C2A14358  15.887  16.416   5.187  0.1476  0.1458  0.1757
    1DPPC   C3A14359  15.746  16.525   5.520  0.1931  0.0704 -0.4205
    1DPPC   C4A14360  15.412  16.577   5.746  0.1094 -0.0197  0.3111
    1DPPC   C1B14361  16.305  16.508   4.842 -0.2097  0.5351  0.1416
    1DPPC   C2B14362  16.537  16.548   5.209  0.2738  0.0180  0.0166
    1DPPC   C3B14363  16.887  16.600   5.331 -0.0924 -0.0863  0.1164
    1DPPC   C4B14364  17.225  16.834   5.385  0.2641 -0.1454 -0.1039
    1DPPC   NC314365   8.205  19.098   3.113 -0.1073 -0.0622 -0.1175
    1DPPC   PO414366   7.941  18.972   3.625  0.0446 -0.0264  0.2196
    1DPPC   GL114367   7.921  19.279   3.981  0.0666 -0.0307  0.0463
    1DPPC   GL214368   7.684  19.549   4.051  0.0149  0.3248  0.3133
    1DPPC   C1A14369   8.136  19.268   4.317 -0.0032 -0.1718  0.0312
    1DPPC   C2A14370   8.471  19.349   4.516 -0.2487 -0.0422 -0.1814
    1DPPC   C3A14371   8.843  19.361   4.575  0.1139  0.1816  0.0134
    1DPPC   C4A14372   9.203  19.556   4.556  0.2301  0.2053  0.0310
    1DPPC   C1B14373   7.490  19.755   4.311  0.3400 -0.1276  0.1569
    1DPPC   C2B14374   7.544  19.832   4.751 -0.2892  0.0719 -0.1304
    1DPPC   C3B14375   7.265  19.650   5.175 -0.2482 -0.0528  0.5877
    1DPPC   C4B14376   7.009  19.339   5.288 -0.1254 -0.0210  0.1522
    1DPPC   NC314377  22.918  12.817   2.735 -0.0770 -0.1462 -0.4158
    1DPPC   PO414378  23.071  13.167   3.120 -0.2360  0.1428 -0.2681
    1DPPC   GL114379  23.040  13.055   3.540  0.0724  0.1730  0.1149
    1DPPC   GL214380  23.219  12.833   3.719 -0.0618 -0.1049  0.0277
    1DPPC   C1A14381  22.749  12.693   3.744 -0.2351 -0.1696  0.0910
    1DPPC   C2A14382  22.911  12.503   4.093  0.0328 -0.1811  0.2104
    1DPPC   C3A14383  22.899  12.261   4.560 -0.0248  0.0297 -0.2799
    1DPPC   C4A14384  22.725  11.926   4.769  0.0251  0.2285 -0.2771
    1DPPC   C1B14385  23.486  12.862   4.133  0.2246 -0.0669 -0.0626
    1DPPC   C2B14386  23.704  13.014   4.480 -0.2136 -0.3181  0.1212
    1DPPC   C3B14387  23.943  13.199   4.878  0.2346 -0.0046  0.1071
    1DPPC   C4B14388  24.014  13.435   5.351  0.1171 -0.0825  0.1962
    1DPPC   NC314389  18.589  17.535   3.524 -0.2168  0.0277  0.2820
    1DPPC   PO414390  18.295  17.212   3.661  0.0142 -0.0804 -0.0311
    1DPPC   GL114391  18.531  17.313   4.055 -0.0491  0.0278 -0.4618
    1DPPC   GL214392  18.213  17.215   4.192  0.0612 -0.2168 -0.0027
    1DPPC   C1A14393  18.876  17.388   4.341 -0.2322  0.1530 -0.1655
    1DPPC   C2A14394  18.874  17.154   4.692 -0.3684  0.0813 -0.2208
    1DPPC   C3A14395  18.673  17.021   5.052  0.0121 -0.0336  0.3135
    1DPPC   C4A14396  18.734  17.116   5.499 -0.0015 -0.2928  0.1480
    1DPPC   C1B14397  18.166  17.459   4.550 -0.4255  0.2296  0.1103
    1DPPC   C2B14398  18.489  17.505   4.886  0.4597  0.1522  0.0069
    1DPPC   C3B14399  18.924  17.428   5.140  0.4388 -0.0347  0.2890
    1DPPC   C4B14400  19.262  17.452   5.469 -0.2669 -0.1001  0.2840
    1DPPC   NC314401   3.853  23.658   2.581  0.1984 -0.1016  0.0323
    1DPPC   PO414402   4.084  23.313   2.632  0.0031  0.1995  0.0174
    1DPPC   GL114403   4.235  23.199   2.949  0.0129  0.0385  0.3717
    1DPPC   GL214404   4.333  22.916   2.889  0.3118 -0.0363 -0.0374
    1DPPC   C1A14405   4.361  23.392   3.307  0.0859 -0.1213  0.3072
    1DPPC   C2A14406   4.427  23.859   3.397  0.1647  0.1961 -0.2220
    1DPPC   C3A14407   4.531  24.173   3.684 -0.0179  0.0933 -0.1469
    1DPPC   C4A14408   4.564  24.585   3.910  0.1522  0.2066 -0.0138
    1DPPC   C1B14409   4.302  22.889   3.298  0.0676  0.2254 -0.0706
    1DPPC   C2B14410   4.248  23.053   3.697 -0.0093 -0.2400  0.2377
    1DPPC   C3B14411   4.189  23.281   4.018  0.0076  0.0152 -0.1134
    1DPPC   C4B14412   4.342  23.483   4.296  0.2751  0.0077  0.2834
    1DPPC   NC314413   3.309   1.964   2.386 -0.0743 -0.2378  0.1628
    1DPPC   PO414414   3.536   2.062   2.743 -0.2927 -0.0089  0.4062
    1DPPC   GL114415   3.441   2.403   2.925  0.1879  0.0668 -0.1793
    1DPPC   GL214416   3.164   2.449   2.928  0.1664  0.2366  0.0246
    1DPPC   C1A14417   3.711   2.713   3.137  0.2317  0.2302  0.1519
    1DPPC   C2A14418   3.974   2.721   3.368 -0.1259  0.0806 -0.0788
    1DPPC   C3A14419   4.136   2.365   3.625  0.2163 -0.0694 -0.0529
    1DPPC   C4A14420   4.033   1.964   3.705 -0.1289  0.1627  0.1012
    1DPPC   C1B14421   3.201   2.525   3.380  0.1988 -0.1397 -0.3300
    1DPPC   C2B14422   3.190   2.649   3.843  0.1736 -0.1026 -0.4885
    1DPPC   C3B14423   3.376   3.047   4.025 -0.1395 -0.1042 -0.2206
    1DPPC   C4B14424   3.258   3.481   4.322 -0.0498 -0.1128  0.2260
    1DPPC   NC314425  18.109  16.013   3.587 -0.0892 -0.0185 -0.2944
    1DPPC   PO414426  18.017  15.590   3.474 -0.2816 -0.1390  0.3598
    1DPPC   GL114427  18.108  15.467   3.932  0.1199 -0.1346  0.2622
    1DPPC   GL214428  18.312  15.666   3.962  0.2428 -0.0990 -0.0195
    1DPPC   C1A14429  18.040  15.457   4.327  0.1578  0.0975 -0.0687
    1DPPC   C2A14430  18.241  15.431   4.735  0.0171 -0.1662  0.1391
    1DPPC   C3A14431  18.036  15.276   5.117  0.0077  0.0206 -0.2883
    1DPPC   C4A14432  18.193  15.453   5.492  0.2154 -0.0335 -0.0167
    1DPPC   C1B14433  18.348  15.868   4.396 -0.0829  0.1630  0.0545
    1DPPC   C2B14434  18.536  15.827   4.813 -0.2255  0.1148  0.0442
    1DPPC   C3B14435  18.533  15.493   5.127 -0.2999  0.0402 -0.1401
    1DPPC   C4B14436  18.727  15.371   5.475 -0.1071  0.0078 -0.1514
    1DPPC   NC314437  25.408   5.108   2.848  0.3723  0.3448 -0.1881
    1DPPC   PO414438  25.295   5.647   2.871 -0.2150 -0.1218  0.0745
    1DPPC   GL114439  25.393   5.442   3.262 -0.1668 -0.2101  0.1168
    1DPPC   GL214440  25.195   5.363   3.373 -0.3804  0.0240 -0.0678
    1DPPC   C1A14441  25.769   5.300   3.441  0.0861  0.1759 -0.1179
    1DPPC   C2A14442  25.900   5.258   3.771 -0.0268 -0.1951  0.1570
    1DPPC   C3A14443  26.059   5.326   4.246 -0.1983 -0.1104  0.2088
    1DPPC   C4A14444  25.866   5.451   4.545 -0.1143  0.0517 -0.0018
    1DPPC   C1B14445  25.435   5.443   3.783 -0.0878 -0.1681 -0.2034
    1DPPC   C2B14446  25.388   5.531   4.146 -0.1081 -0.1099 -0.0174
    1DPPC   C3B14447  25.356   5.372   4.608  0.4740  0.2832  0.0575
    1DPPC   C4B14448  25.225   4.941   4.760 -0.2884 -0.1487 -0.0566
    1DPPC   NC314449   4.461   0.431   2.383  0.1123 -0.2952 -0.0272
    1DPPC   PO414450   4.133   0.337   2.555 -0.1162  0.1118 -0.2407
    1DPPC   GL114451   4.342   0.451   2.922  0.0853  0.2984  0.0758
    1DPPC   GL214452   4.663   0.570   2.838  0.3323 -0.0818 -0.1628
    1DPPC   C1A14453   4.176   0.232   3.302 -0.0685 -0.3496 -0.0148
    1DPPC   C2A14454   4.288  28.087   3.651  0.0629  0.1905 -0.4300
    1DPPC   C3A14455   4.427   0.066   4.148  0.0592 -0.2604 -0.0652
    1DPPC   C4A14456   4.652   0.242   4.455  0.2139 -0.3265  0.0395
    1DPPC   C1B14457   4.555   0.713   3.289 -0.1764  0.2830  0.0168
    1DPPC   C2B14458   4.352   0.532   3.676 -0.0505  0.3206  0.1126
    1DPPC   C3B14459   4.386   0.661   4.084  0.0493 -0.0031  0.2009
    1DPPC   C4B14460   4.377   1.001   4.454 -0.0122 -0.1931  0.0048
    1DPPC   NC314461   8.373  24.654   2.630 -0.0587 -0.0499 -0.2251
    1DPPC   PO414462   8.398  24.637   2.983 -0.1821 -0.3268 -0.0117
    1DPPC   GL114463   8.365  24.939   3.266 -0.1611  0.0092  0.1270
    1DPPC   GL214464   7.979  25.073   3.437 -0.0720  0.1321  0.3669
    1DPPC   C1A14465   8.637  24.994   3.607 -0.0622  0.0215  0.0176
    1DPPC   C2A14466   8.490  24.919   4.076  0.1273  0.3779  0.2415
    1DPPC   C3A14467   8.615  24.668   4.403  0.1077  0.0884  0.0596
    1DPPC   C4A14468   8.544  24.806   4.768 -0.1565  0.1293 -0.4843
    1DPPC   C1B14469   8.020  24.723   3.786 -0.1072  0.3935  0.0781
    1DPPC   C2B14470   8.212  24.509   4.164  0.0818 -0.0610 -0.0057
    1DPPC   C3B14471   8.462  24.202   4.379  0.0721  0.1087 -0.1433
    1DPPC   C4B14472   8.391  23.983   4.846 -0.0003 -0.1380  0.1371
    1DPPC   NC314473   7.581  17.560   3.747  0.5036  0.0475 -0.3465
    1DPPC   PO414474   7.189  17.488   3.971 -0.2646 -0.2507  0.1742
    1DPPC   GL114475   7.071  17.226   4.189 -0.0712  0.3884  0.0672
    1DPPC   GL214476   6.947  17.494   4.393  0.2113 -0.0991  0.0381
    1DPPC   C1A14477   7.215  16.898   4.546  0.0762  0.2652  0.2009
    1DPPC   C2A14478   7.196  16.484   4.844 -0.0173 -0.2283  0.1072
    1DPPC   C3A14479   6.912  16.252   5.174 -0.0097  0.2162 -0.0366
    1DPPC   C4A14480   6.834  16.266   5.646  0.0872  0.0079 -0.0684
    1DPPC   C1B14481   6.884  17.262   4.799  0.0290 -0.2822  0.1686
    1DPPC   C2B14482   6.837  17.017   5.064 -0.0643  0.2400 -0.1157
    1DPPC   C3B14483   6.658  16.701   5.348  0.0668 -0.0332 -0.0225
    1DPPC   C4B14484   6.189  16.862   5.608  0.0855 -0.2225  0.0905
    1DPPC   NC314485  27.627  26.739   3.087  0.3828  0.2052 -0.2308
    1DPPC   PO414486  27.306  26.503   3.172  0.2329 -0.1954  0.2742
    1DPPC   GL114487  27.407  26.474   3.552 -0.1612  0.1307  0.0272
    1DPPC   GL214488  27.660  26.697   3.576  0.1397  0.2806  0.1189
    1DPPC   C1A14489  27.113  26.414   3.869 -0.0525  0.1079  0.2731
    1DPPC   C2A14490  27.134  26.504   4.257 -0.0727  0.0479  0.0702
    1DPPC   C3A14491  27.272  26.614   4.599  0.1529 -0.3762  0.1118
    1DPPC   C4A14492  27.459  26.662   5.078 -0.2123  0.0529  0.2862
    1DPPC   C1B14493  27.920  26.455   3.755  0.1291  0.1244 -0.0119
    1DPPC   C2B14494  28.018  26.170   3.963 -0.2742  0.0381 -0.2444
    1DPPC   C3B14495  27.896  25.929   4.322  0.0797  0.0623 -0.0794
    1DPPC   C4B14496  28.068  25.908   4.784 -0.0203 -0.2618 -0.2380
    1DPPC   NC314497  16.234  14.858   4.064  0.1973 -0.0099 -0.1815
    1DPPC   PO414498  16.034  14.476   4.067  0.1732 -0.2861 -0.0958
    1DPPC   GL114499  15.790  14.645   4.475  0.3517 -0.0110  0.0843
    1DPPC   GL214500  15.850  14.956   4.509 -0.2586  0.2327 -0.0429
    1DPPC   C1A14501  15.451  14.722   4.827 -0.3205  0.1454  0.0301
    1DPPC   C2A14502  15.556  14.594   5.209 -0.1375 -0.1281 -0.1761
    1DPPC   C3A14503  15.839  14.693   5.600 -0.0413 -0.3613  0.1947
    1DPPC   C4A14504  15.727  14.891   5.948  0.0808  0.1770  0.1390
    1DPPC   C1B14505  15.933  14.850   4.961  0.1375  0.0003  0.0620
    1DPPC   C2B14506  16.112  15.084   5.212  0.0536 -0.0476 -0.1393
    1DPPC   C3B14507  16.257  15.100   5.608 -0.0786  0.2267  0.0937
    1DPPC   C4B14508  16.252  14.851   5.883  0.2113  0.1187 -0.2286
    1DPPC   NC314509  11.751   0.430   3.198 -0.2904 -0.2213 -0.0248
    1DPPC   PO414510  11.436   0.561   3.514  0.1229 -0.1468  0.1056
    1DPPC   GL114511  11.475   0.811   3.881  0.1463 -0.1585  0.0711
    1DPPC   GL214512  11.156   1.027   3.879 -0.0365 -0.0287  0.0258
    1DPPC   C1A14513  11.414   0.657   4.352  0.0948  0.0332 -0.2046
    1DPPC   C2A14514  11.603   0.817   4.695 -0.0710 -0.1926 -0.0596
    1DPPC   C3A14515  11.654   1.069   5.040  0.1194  0.2663  0.2537
    1DPPC   C4A14516  11.982   1.045   5.325  0.0618 -0.1019 -0.1428
    1DPPC   C1B14517  11.121   1.032   4.248  0.0929  0.0608  0.0969
    1DPPC   C2B14518  11.025   0.818   4.680 -0.0938 -0.0771  0.1502
    1DPPC   C3B14519  10.672   0.957   5.032 -0.2257  0.0203  0.2571
    1DPPC   C4B14520  10.550   1.329   5.271 -0.2911  0.2528  0.2027
    1DPPC   NC314521  10.727   4.128   3.403  0.0313 -0.1128 -0.0028
    1DPPC   PO414522  10.304   3.966   3.529 -0.0633 -0.0800  0.0486
    1DPPC   GL114523  10.190   3.721   3.819  0.3656  0.2094 -0.1866
    1DPPC   GL214524  10.006   3.470   3.643 -0.2756 -0.0116 -0.1813
    1DPPC   C1A14525  10.175   3.627   4.193  0.1649 -0.0825  0.0821
    1DPPC   C2A14526  10.253   3.535   4.584 -0.2439  0.3006 -0.0514
    1DPPC   C3A14527  10.233   3.794   4.851  0.0692  0.1317  0.0368
    1DPPC   C4A14528  10.177   3.845   5.264 -0.1966  0.1693  0.1087
    1DPPC   C1B14529   9.716   3.266   3.950  0.1154  0.0422 -0.1107
    1DPPC   C2B14530   9.512   3.233   4.245 -0.0787  0.0196 -0.1509
    1DPPC   C3B14531   9.295   3.225   4.662 -0.1356 -0.1031  0.0904
    1DPPC   C4B14532   9.099   3.443   4.968 -0.0782 -0.0947 -0.1162
    1DPPC   NC314533  17.238  25.198   3.122 -0.4081 -0.2415 -0.1193
    1DPPC   PO414534  17.427  24.799   3.125  0.0114 -0.0922  0.1831
    1DPPC   GL114535  17.493  24.635   3.466 -0.0524 -0.0154  0.2775
    1DPPC   GL214536  17.210  24.692   3.530 -0.1407 -0.0438 -0.1698
    1DPPC   C1A14537  17.418  24.588   3.945  0.1750  0.0340 -0.0253
    1DPPC   C2A14538  17.629  24.572   4.390  0.2465  0.2706 -0.0851
    1DPPC   C3A14539  17.806  24.634   4.707 -0.0135 -0.0085 -0.0684
    1DPPC   C4A14540  18.154  24.854   4.862  0.1778 -0.1502 -0.0041
    1DPPC   C1B14541  17.053  24.330   3.762 -0.2337 -0.2386 -0.2721
    1DPPC   C2B14542  17.145  24.276   4.224 -0.2147  0.0262  0.0512
    1DPPC   C3B14543  17.089  24.268   4.654  0.3161  0.0596 -0.0392
    1DPPC   C4B14544  17.192  24.371   5.131 -0.0675  0.0616 -0.3467
    1DPPC   NC314545  22.575  18.444   3.223 -0.1232 -0.1182  0.0730
    1DPPC   PO414546  22.186  18.583   3.378 -0.3262  0.0084 -0.2833
    1DPPC   GL114547  22.077  18.644   3.867 -0.1056  0.0294  0.2689
    1DPPC   GL214548  22.281  18.990   3.830  0.1026 -0.0376  0.2985
    1DPPC   C1A14549  22.046  18.784   4.218  0.0962  0.0771 -0.1256
    1DPPC   C2A14550  22.386  18.875   4.547 -0.0334  0.0362  0.0147
    1DPPC   C3A14551  22.548  18.575   5.024 -0.0918 -0.1258  0.1374
    1DPPC   C4A14552  22.646  18.691   5.399  0.1364  0.0971  0.1915
    1DPPC   C1B14553  22.362  19.267   4.143  0.3738  0.0531 -0.0738
    1DPPC   C2B14554  22.691  19.299   4.390 -0.2220  0.1165  0.1372
    1DPPC   C3B14555  22.764  19.126   4.771 -0.1795 -0.1852 -0.3563
    1DPPC   C4B14556  22.558  19.191   5.217 -0.3128  0.0164  0.2943
    1DPPC   NC314557   9.798  20.768   3.478 -0.0646  0.0267  0.0026
    1DPPC   PO414558   9.398  20.516   3.403  0.0669 -0.1714 -0.0335
    1DPPC   GL114559   9.512  20.624   3.857 -0.1931 -0.0091  0.1406
    1DPPC   GL214560   9.621  20.267   3.858  0.1733  0.2120 -0.1781
    1DPPC   C1A14561   9.773  20.633   4.254 -0.0412  0.0346 -0.0068
    1DPPC   C2A14562   9.796  20.533   4.752 -0.1083  0.4579 -0.0492
    1DPPC   C3A14563   9.876  20.414   5.177 -0.2093 -0.1399 -0.0789
    1DPPC   C4A14564   9.891  20.582   5.660 -0.0346  0.1846 -0.0494
    1DPPC   C1B14565   9.689  20.134   4.319 -0.2165 -0.0463  0.2496
    1DPPC   C2B14566   9.615  20.062   4.806 -0.2282  0.1763 -0.1746
    1DPPC   C3B14567   9.531  20.103   5.286 -0.2000  0.2863  0.0274
    1DPPC   C4B14568   9.120  20.092   5.497  0.0100  0.1857 -0.3196
    1DPPC   NC314569  24.851   9.705   2.692  0.3590  0.0441 -0.2186
    1DPPC   PO414570  25.143   9.953   2.952 -0.2651  0.0213 -0.2044
    1DPPC   GL114571  25.034   9.710   3.273  0.2120 -0.0614 -0.0822
    1DPPC   GL214572  25.373   9.633   3.312 -0.2149 -0.0775  0.0596
    1DPPC   C1A14573  25.073   9.839   3.611  0.0560 -0.0004 -0.2932
    1DPPC   C2A14574  25.059   9.813   4.017  0.1162 -0.0353  0.0177
    1DPPC   C3A14575  25.115   9.691   4.481 -0.0154  0.0808  0.2639
    1DPPC   C4A14576  25.553   9.552   4.474 -0.2152 -0.0348 -0.2215
    1DPPC   C1B14577  25.397   9.475   3.740  0.1533  0.1208  0.1824
    1DPPC   C2B14578  25.234   9.359   4.076 -0.1841  0.1448 -0.1494
    1DPPC   C3B14579  25.257   8.993   4.383 -0.1702 -0.0558 -0.2620
    1DPPC   C4B14580  25.170   8.796   4.733 -0.1702 -0.1322  0.3877
    1DPPC   NC314581  11.235   6.247   3.599  0.1019 -0.1406  0.1155
    1DPPC   PO414582  11.122   5.868   3.737 -0.0321 -0.0529  0.4502
    1DPPC   GL114583  11.232   5.877   4.064  0.0381 -0.2610  0.3191
    1DPPC   GL214584  11.438   5.629   4.127  0.1897 -0.3802  0.2395
    1DPPC   C1A14585  11.213   6.083   4.425  0.1008  0.0659 -0.1471
    1DPPC   C2A14586  11.256   6.198   4.864 -0.3078  0.0828 -0.0629
    1DPPC   C3A14587  11.308   6.220   5.361  0.3176  0.1580 -0.4486
    1DPPC   C4A14588  11.600   6.036   5.607  0.0498  0.3371 -0.2160
    1DPPC   C1B14589  11.645   5.772   4.499 -0.1267  0.0898  0.0316
    1DPPC   C2B14590  11.690   5.934   4.939 -0.0612 -0.0076  0.1608
    1DPPC   C3B14591  11.674   6.355   4.997 -0.1136 -0.1516  0.0759
    1DPPC   C4B14592  11.829   6.747   5.157  0.1251 -0.0431 -0.0623
    1DPPC   NC314593  13.891  15.158   3.180 -0.0599 -0.0837 -0.0868
    1DPPC   PO414594  14.219  15.258   3.544  0.2016 -0.2203  0.2492
    1DPPC   GL114595  14.140  15.060   3.985 -0.1255  0.1567 -0.0206
    1DPPC   GL214596  14.371  14.771   4.150 -0.0060  0.0023  0.0561
    1DPPC   C1A14597  14.236  15.139   4.380 -0.1844  0.0322  0.0574
    1DPPC   C2A14598  14.213  15.119   4.858 -0.4170 -0.0388  0.1311
    1DPPC   C3A14599  14.077  15.043   5.263  0.2789 -0.0521  0.3439
    1DPPC   C4A14600  14.005  15.019   5.668  0.1974 -0.2236  0.1237
    1DPPC   C1B14601  14.249  14.626   4.563  0.1636 -0.0865  0.2914
    1DPPC   C2B14602  14.003  14.686   4.931  0.0735  0.0269  0.0551
    1DPPC   C3B14603  13.748  14.343   5.077  0.0527  0.1597  0.0212
    1DPPC   C4B14604  13.468  14.323   5.317  0.0545  0.2291  0.2800
    1DPPC   NC314605  20.742  20.881   3.823  0.1208  0.3228  0.2219
    1DPPC   PO414606  21.291  20.936   3.751 -0.1844 -0.0863 -0.2516
    1DPPC   GL114607  21.566  20.895   4.007 -0.0867 -0.2379  0.0500
    1DPPC   GL214608  21.871  21.068   4.078 -0.2720  0.0574  0.0828
    1DPPC   C1A14609  21.570  20.729   4.459 -0.3400 -0.2638 -0.3651
    1DPPC   C2A14610  21.718  20.710   4.795 -0.1184  0.4139  0.1745
    1DPPC   C3A14611  21.902  20.832   5.237  0.1815  0.2347  0.2165
    1DPPC   C4A14612  22.021  20.776   5.726 -0.0352 -0.0300  0.0363
    1DPPC   C1B14613  21.800  21.197   4.526  0.1083  0.1894 -0.1068
    1DPPC   C2B14614  22.091  21.187   4.745 -0.2644 -0.1203  0.0727
    1DPPC   C3B14615  22.417  21.212   5.060 -0.0846 -0.2484  0.2049
    1DPPC   C4B14616  22.679  21.304   5.424  0.0019  0.0070  0.1598
    1DPPC   NC314617  17.644  19.020   3.383 -0.0798 -0.0100 -0.3286
    1DPPC   PO414618  17.795  19.282   3.719 -0.0036 -0.1935 -0.3353
    1DPPC   GL114619  17.703  19.379   4.139  0.0724 -0.1491  0.0352
    1DPPC   GL214620  17.980  19.452   4.250 -0.2543 -0.0656 -0.0063
    1DPPC   C1A14621  17.660  19.274   4.585  0.1050  0.0117 -0.0496
    1DPPC   C2A14622  17.575  18.927   4.826 -0.2350  0.1651 -0.1438
    1DPPC   C3A14623  17.699  18.636   5.142 -0.1373  0.3503  0.2158
    1DPPC   C4A14624  17.512  18.364   5.352 -0.1014  0.0256 -0.1213
    1DPPC   C1B14625  18.256  19.594   4.666 -0.0976 -0.2895  0.0473
    1DPPC   C2B14626  18.444  19.904   4.903 -0.1388 -0.3247  0.2557
    1DPPC   C3B14627  18.549  20.197   5.187 -0.2079  0.2688  0.3803
    1DPPC   C4B14628  18.289  20.197   5.542  0.1946  0.1815  0.0240
    1DPPC   NC314629  20.788  17.545   4.005 -0.1139 -0.0817 -0.0658
    1DPPC   PO414630  20.905  17.136   3.843 -0.1421 -0.1231  0.2378
    1DPPC   GL114631  21.096  17.008   4.309  0.0113 -0.0407 -0.1711
    1DPPC   GL214632  21.362  16.908   4.088  0.2823  0.1857  0.0266
    1DPPC   C1A14633  21.150  16.793   4.604 -0.3421  0.1140  0.1088
    1DPPC   C2A14634  21.070  16.349   4.658 -0.4191  0.0423  0.2625
    1DPPC   C3A14635  20.849  16.208   4.986 -0.3063  0.4011 -0.3786
    1DPPC   C4A14636  20.729  16.006   5.252 -0.0582 -0.1562  0.2920
    1DPPC   C1B14637  21.637  16.983   4.391 -0.1181 -0.1374  0.1858
    1DPPC   C2B14638  21.575  17.255   4.702 -0.2760  0.0453 -0.0427
    1DPPC   C3B14639  21.474  17.084   5.126  0.3712  0.2052  0.3865
    1DPPC   C4B14640  21.373  17.250   5.554  0.0647  0.0017 -0.0651
    1DPPC   NC314641  18.090   9.787   3.299  0.2774  0.1193 -0.2264
    1DPPC   PO414642  18.473  10.059   3.400 -0.1932 -0.0249  0.1868
    1DPPC   GL114643  18.485  10.107   3.886 -0.1323 -0.1460  0.2828
    1DPPC   GL214644  18.828  10.304   3.997  0.3065 -0.0158  0.1171
    1DPPC   C1A14645  18.702   9.895   4.239 -0.1487 -0.0463  0.0415
    1DPPC   C2A14646  19.016   9.771   4.456  0.0175 -0.2435  0.1097
    1DPPC   C3A14647  19.350   9.867   4.700  0.0648 -0.2775 -0.1026
    1DPPC   C4A14648  19.292   9.909   5.180 -0.3483 -0.1794 -0.1629
    1DPPC   C1B14649  18.836  10.253   4.544  0.0132  0.1037 -0.0189
    1DPPC   C2B14650  18.962  10.189   4.894 -0.2583  0.0608 -0.1305
    1DPPC   C3B14651  18.935  10.271   5.317  0.1346 -0.1132 -0.1458
    1DPPC   C4B14652  19.122  10.353   5.578 -0.3336  0.1501  0.3305
    1DPPC   NC314653   9.516   9.243   2.933 -0.1653 -0.1272 -0.0001
    1DPPC   PO414654   9.300   8.895   3.095  0.2292 -0.1523 -0.1134
    1DPPC   GL114655   9.260   8.962   3.567  0.0596 -0.1015  0.0660
    1DPPC   GL214656   9.513   9.150   3.643 -0.0187 -0.1189 -0.0639
    1DPPC   C1A14657   9.192   9.113   4.017 -0.0696  0.0570 -0.2361
    1DPPC   C2A14658   9.277   9.111   4.468 -0.0121  0.3347 -0.0378
    1DPPC   C3A14659   9.376   9.067   4.960 -0.1560  0.1182 -0.2570
    1DPPC   C4A14660   9.660   8.896   5.265 -0.0812 -0.2816 -0.2803
    1DPPC   C1B14661   9.597   8.884   3.980  0.1636 -0.2388  0.2239
    1DPPC   C2B14662   9.717   8.901   4.405  0.0083  0.1274  0.1634
    1DPPC   C3B14663   9.850   8.899   4.782  0.1413  0.0011 -0.3025
    1DPPC   C4B14664  10.057   9.131   4.975  0.0126 -0.2847 -0.2243
    1DPPC   NC314665  23.933  15.457   3.179  0.1888  0.2293  0.1273
    1DPPC   PO414666  23.613  14.941   3.211 -0.0360  0.0445  0.1696
    1DPPC   GL114667  23.555  14.785   3.629 -0.0564 -0.3013  0.2750
    1DPPC   GL214668  23.731  14.433   3.612  0.1556  0.0134  0.0222
    1DPPC   C1A14669  23.725  14.791   4.002  0.0287  0.1339 -0.2107
    1DPPC   C2A14670  23.790  14.589   4.400  0.2591  0.1940 -0.0410
    1DPPC   C3A14671  24.073  14.640   4.705 -0.1836  0.0554  0.3024
    1DPPC   C4A14672  24.195  14.618   5.167 -0.3980 -0.1723  0.0365
    1DPPC   C1B14673  23.826  14.249   4.030  0.2559  0.1766  0.2467
    1DPPC   C2B14674  24.124  14.066   4.343  0.2079 -0.0301  0.1060
    1DPPC   C3B14675  24.304  14.104   4.746 -0.0317  0.4223  0.0600
    1DPPC   C4B14676  24.551  14.261   5.018 -0.1395 -0.0190  0.1775
    1DPPC   NC314677  23.244  19.118   2.954 -0.1428 -0.2749 -0.1655
    1DPPC   PO414678  23.060  19.192   3.444 -0.0027  0.0878 -0.2790
    1DPPC   GL114679  23.069  19.302   3.872 -0.3668 -0.1462 -0.0888
    1DPPC   GL214680  23.066  19.648   3.951  0.2180 -0.0389  0.0640
    1DPPC   C1A14681  23.173  19.245   4.325 -0.0965 -0.1679 -0.1863
    1DPPC   C2A14682  23.407  18.967   4.561  0.1236 -0.0885  0.0461
    1DPPC   C3A14683  23.722  19.070   4.876  0.1235 -0.0085  0.2327
    1DPPC   C4A14684  23.973  18.766   5.128  0.1598 -0.3326 -0.0493
    1DPPC   C1B14685  23.297  19.723   4.307  0.1607  0.3546 -0.1057
    1DPPC   C2B14686  23.519  19.608   4.627 -0.0201  0.0906  0.0263
    1DPPC   C3B14687  23.729  19.712   4.983  0.1210  0.0197  0.2987
    1DPPC   C4B14688  23.954  19.389   5.232 -0.1620 -0.3824 -0.0593
    1DPPC   NC314689  15.843  15.626   3.982 -0.1791  0.1445  0.1355
    1DPPC   PO414690  15.943  15.277   4.072  0.0159 -0.0293 -0.1010
    1DPPC   GL114691  16.038  15.491   4.416  0.2767  0.2021 -0.0788
    1DPPC   GL214692  15.857  15.796   4.446 -0.1300 -0.1709  0.2317
    1DPPC   C1A14693  16.036  15.483   4.861 -0.1469 -0.0053 -0.0506
    1DPPC   C2A14694  15.964  15.684   5.406  0.1166 -0.0687 -0.0593
    1DPPC   C3A14695  16.009  15.917   5.835 -0.2394 -0.1110 -0.0534
    1DPPC   C4A14696  15.965  16.262   6.054  0.4659 -0.0513  0.2007
    1DPPC   C1B14697  15.789  16.072   4.763 -0.2384 -0.0513 -0.3914
    1DPPC   C2B14698  15.551  15.887   5.103  0.0594 -0.0930  0.1076
    1DPPC   C3B14699  15.598  15.983   5.533  0.2549 -0.1374  0.2425
    1DPPC   C4B14700  15.488  15.865   6.032  0.0987 -0.0738  0.1066
    1DPPC   NC314701  24.838  14.554   3.012 -0.0498  0.2617 -0.3047
    1DPPC   PO414702  24.976  14.831   2.669 -0.1637 -0.0625  0.0979
    1DPPC   GL114703  25.285  14.875   3.026  0.2398  0.0516  0.2494
    1DPPC   GL214704  25.502  15.180   3.061 -0.0989 -0.1490 -0.2033
    1DPPC   C1A14705  25.302  14.909   3.472 -0.2716 -0.2050  0.0210
    1DPPC   C2A14706  25.307  15.027   3.886 -0.0106  0.1322 -0.0267
    1DPPC   C3A14707  25.246  15.003   4.341 -0.1210 -0.0026  0.2091
    1DPPC   C4A14708  25.379  14.885   4.768  0.0688  0.1119 -0.1447
    1DPPC   C1B14709  25.295  15.513   3.285  0.2934  0.0032 -0.0851
    1DPPC   C2B14710  25.230  15.520   3.709 -0.1217 -0.1777  0.1927
    1DPPC   C3B14711  25.200  15.457   4.106  0.1570 -0.0874  0.0847
    1DPPC   C4B14712  25.188  15.817   4.377 -0.1071  0.1417 -0.0246
    1DPPC   NC314713  26.063  21.964   2.614  0.1581 -0.1100  0.0298
    1DPPC   PO414714  25.780  21.672   2.779  0.1332  0.0067 -0.1255
    1DPPC   GL114715  26.081  21.423   3.048 -0.2259 -0.0455  0.2940
    1DPPC   GL214716  26.316  21.319   2.902  0.1110  0.2729  0.0232
    1DPPC   C1A14717  26.021  21.277   3.476 -0.1588 -0.1113  0.0292
    1DPPC   C2A14718  25.928  21.288   3.930 -0.2756  0.0246  0.0860
    1DPPC   C3A14719  25.911  21.439   4.289 -0.1954 -0.2704 -0.2335
    1DPPC   C4A14720  26.166  21.738   4.489  0.2223  0.1039 -0.0256
    1DPPC   C1B14721  26.477  21.415   3.340 -0.1041 -0.0743  0.0275
    1DPPC   C2B14722  26.446  21.391   3.813  0.1721  0.1806 -0.1245
    1DPPC   C3B14723  26.475  21.436   4.235 -0.0390  0.3585 -0.0574
    1DPPC   C4B14724  26.725  21.449   4.657 -0.2383  0.1341 -0.1220
    1DPPC   NC314725  18.545  10.989   4.007 -0.1493 -0.4065 -0.1619
    1DPPC   PO414726  18.424  10.593   4.154 -0.2627  0.0314  0.0676
    1DPPC   GL114727  18.819  10.660   4.290  0.2239  0.0136 -0.1638
    1DPPC   GL214728  18.855  11.046   4.396  0.0369  0.2124  0.0472
    1DPPC   C1A14729  19.274  10.840   4.514 -0.0835 -0.2812 -0.0574
    1DPPC   C2A14730  19.715  10.829   4.755  0.1117 -0.1972 -0.1944
    1DPPC   C3A14731  19.849  10.474   5.023  0.4011 -0.1533  0.0580
    1DPPC   C4A14732  20.161  10.350   5.322  0.0286  0.2906  0.0252
    1DPPC   C1B14733  18.787  10.770   4.779 -0.1827  0.0683  0.1357
    1DPPC   C2B14734  18.886  10.756   5.183 -0.0049  0.2157 -0.2651
    1DPPC   C3B14735  18.877  10.794   5.627 -0.2127 -0.2576 -0.2140
    1DPPC   C4B14736  19.189  10.761   5.981 -0.0025 -0.1424  0.1458
    1DPPC   NC314737  15.658  27.827   3.440  0.3532  0.0078  0.1750
    1DPPC   PO414738  15.556  27.930   3.873  0.1121  0.0933 -0.0892
    1DPPC   GL114739  15.187  28.088   4.047 -0.0304 -0.1198 -0.1281
    1DPPC   GL214740  14.870  28.075   4.265  0.3388 -0.2839 -0.1327
    1DPPC   C1A14741  15.115   0.412   4.418 -0.2317  0.0407 -0.3316
    1DPPC   C2A14742  14.810   0.474   4.798 -0.0070 -0.1347  0.3066
    1DPPC   C3A14743  14.862   0.781   5.218 -0.0789  0.0625 -0.0486
    1DPPC   C4A14744  14.909   1.020   5.644  0.1305  0.3611 -0.0087
    1DPPC   C1B14745  14.695  27.724   4.483  0.0653  0.1955  0.1361
    1DPPC   C2B14746  14.702  27.666   4.966  0.0604 -0.2821  0.2548
    1DPPC   C3B14747  14.499  27.846   5.256 -0.1825  0.0500  0.2337
    1DPPC   C4B14748  14.480   0.158   5.251 -0.1341 -0.0304  0.0796
    1DPPC   NC314749  15.441  23.591   2.890  0.0389  0.0756 -0.2155
    1DPPC   PO414750  15.179  23.458   3.228 -0.2271  0.4164 -0.2291
    1DPPC   GL114751  14.963  23.276   3.638  0.1015  0.0609  0.2987
    1DPPC   GL214752  14.610  23.207   3.663 -0.2808 -0.0131 -0.2936
    1DPPC   C1A14753  14.992  23.152   4.050 -0.4238  0.0132 -0.2693
    1DPPC   C2A14754  15.115  23.066   4.446 -0.1058 -0.2018 -0.0869
    1DPPC   C3A14755  15.157  23.363   4.799  0.1936 -0.0332  0.0255
    1DPPC   C4A14756  15.403  23.328   5.193  0.1096 -0.2691  0.1155
    1DPPC   C1B14757  14.490  23.253   4.132  0.3858 -0.3548 -0.1984
    1DPPC   C2B14758  14.200  23.094   4.466 -0.0954 -0.1865 -0.0437
    1DPPC   C3B14759  13.982  23.142   4.871 -0.2432  0.0352  0.1354
    1DPPC   C4B14760  13.959  23.438   5.155  0.0797 -0.0481  0.1204
    1DPPC   NC314761   6.823   0.171   2.551  0.1765 -0.0846  0.2581
    1DPPC   PO414762   6.547   0.594   2.697  0.2669 -0.0073 -0.0742
    1DPPC   GL114763   6.236   0.386   2.892 -0.1209 -0.0902  0.1106
    1DPPC   GL214764   6.252   0.661   3.147  0.0264  0.1399 -0.2836
    1DPPC   C1A14765   6.292   0.110   3.312  0.0855  0.2579 -0.2107
    1DPPC   C2A14766   6.175   0.036   3.785 -0.0665 -0.4522 -0.0393
    1DPPC   C3A14767   6.119   0.275   4.165  0.0368 -0.0804 -0.0751
    1DPPC   C4A14768   5.915   0.682   4.416 -0.0816 -0.0401 -0.0626
    1DPPC   C1B14769   6.248   0.855   3.474 -0.0619 -0.3796  0.4059
    1DPPC   C2B14770   6.198   0.892   3.919 -0.0909 -0.0179 -0.1660
    1DPPC   C3B14771   6.191   1.115   4.201 -0.0874 -0.2000  0.2805
    1DPPC   C4B14772   6.218   1.361   4.627 -0.0291 -0.0470  0.1778
    1DPPC   NC314773  26.678  19.703   2.451 -0.1106 -0.3524 -0.1934
    1DPPC   PO414774  27.034  19.896   2.583  0.2350 -0.0623 -0.5181
    1DPPC   GL114775  27.062  20.130   3.062  0.0429  0.3285  0.3421
    1DPPC   GL214776  27.127  20.362   3.170  0.2130 -0.1100  0.0423
    1DPPC   C1A14777  27.257  19.943   3.580 -0.2546 -0.0141 -0.0145
    1DPPC   C2A14778  27.383  19.875   3.964  0.0053 -0.2034  0.0641
    1DPPC   C3A14779  27.620  19.598   4.099 -0.0219  0.0034 -0.1797
    1DPPC   C4A14780  27.621  19.248   4.251 -0.1520  0.3061 -0.1597
    1DPPC   C1B14781  27.002  20.631   3.479 -0.0882 -0.1294  0.0650
    1DPPC   C2B14782  26.814  20.728   3.716 -0.0010  0.2192  0.0198
    1DPPC   C3B14783  26.735  20.547   4.072 -0.2050 -0.0762 -0.2047
    1DPPC   C4B14784  26.673  20.438   4.551  0.1551  0.1125  0.1573
    1DPPC   NC314785   7.443  27.951   2.565 -0.1045  0.1638  0.2922
    1DPPC   PO414786   7.290   0.251   2.647  0.2660 -0.2100  0.2527
    1DPPC   GL114787   6.902   0.362   2.971 -0.0295 -0.3286  0.1493
    1DPPC   GL214788   6.915   0.645   3.097 -0.1765 -0.4048 -0.0119
    1DPPC   C1A14789   6.692   0.424   3.429 -0.1336  0.0392 -0.0798
    1DPPC   C2A14790   6.489   0.458   3.778 -0.1943  0.0382 -0.0410
    1DPPC   C3A14791   6.593   0.690   4.101  0.3944 -0.1013  0.1444
    1DPPC   C4A14792   6.480   0.601   4.512  0.0423  0.1499  0.1649
    1DPPC   C1B14793   7.195   0.741   3.383  0.0214  0.0225  0.2400
    1DPPC   C2B14794   7.285   0.975   3.733 -0.1223  0.3337  0.3618
    1DPPC   C3B14795   7.199   0.792   4.232 -0.0698 -0.3222 -0.1751
    1DPPC   C4B14796   7.320   0.849   4.661  0.0487  0.0998 -0.0813
    1DPPC   NC314797  11.879  17.054   3.811 -0.1315 -0.0389  0.0127
    1DPPC   PO414798  12.048  17.462   3.824  0.2285  0.2122  0.0750
    1DPPC   GL114799  12.018  17.493   4.165  0.1335 -0.2679  0.0598
    1DPPC   GL214800  11.682  17.349   4.245 -0.0674 -0.2164 -0.0056
    1DPPC   C1A14801  12.014  17.692   4.581 -0.0982  0.0696 -0.2952
    1DPPC   C2A14802  12.332  17.945   4.921 -0.0356 -0.1424  0.0492
    1DPPC   C3A14803  12.599  17.895   5.294  0.3266 -0.2518  0.1669
    1DPPC   C4A14804  12.839  17.489   5.368 -0.0377  0.1808  0.1769
    1DPPC   C1B14805  11.556  17.378   4.626 -0.1533 -0.0253 -0.0658
    1DPPC   C2B14806  11.711  17.372   5.039  0.0696  0.1308  0.1258
    1DPPC   C3B14807  11.510  17.377   5.414 -0.0069  0.0813  0.0008
    1DPPC   C4B14808  11.083  17.248   5.585 -0.0507 -0.2906  0.0591
    1DPPC   NC314809   5.470  12.488   2.923  0.0507 -0.1110  0.0987
    1DPPC   PO414810   5.518  12.857   3.185 -0.0533  0.2770  0.3944
    1DPPC   GL114811   5.212  13.054   3.485 -0.1073  0.0053  0.2468
    1DPPC   GL214812   5.285  12.733   3.763 -0.0467  0.3358 -0.1050
    1DPPC   C1A14813   4.961  13.106   3.798 -0.1104  0.0477  0.0634
    1DPPC   C2A14814   4.874  13.151   4.174 -0.0390  0.0940  0.0577
    1DPPC   C3A14815   4.693  13.216   4.550 -0.1746 -0.3263  0.1008
    1DPPC   C4A14816   4.701  13.519   4.688  0.1078  0.0153  0.1456
    1DPPC   C1B14817   5.009  12.623   4.202  0.0884  0.0101 -0.1722
    1DPPC   C2B14818   4.817  12.726   4.531  0.2624  0.0177 -0.1852
    1DPPC   C3B14819   4.536  12.704   4.823  0.0504  0.4004  0.0743
    1DPPC   C4B14820   4.353  12.818   5.057 -0.1185  0.2004  0.1733
    1DPPC   NC314821   9.679  25.628   3.046 -0.1565 -0.0035 -0.1188
    1DPPC   PO414822   9.294  25.289   2.935 -0.1438 -0.0954  0.0256
    1DPPC   GL114823   9.459  25.366   3.413 -0.0394  0.0791 -0.1368
    1DPPC   GL214824   9.165  25.111   3.589 -0.3904  0.1416  0.3969
    1DPPC   C1A14825   9.681  25.180   3.761  0.0421 -0.1587 -0.0217
    1DPPC   C2A14826   9.845  24.792   3.941 -0.0277 -0.2212  0.4792
    1DPPC   C3A14827   9.980  24.644   4.407  0.2067 -0.0349 -0.3515
    1DPPC   C4A14828   9.959  24.408   4.773 -0.0647  0.1742 -0.0370
    1DPPC   C1B14829   9.150  25.145   3.951  0.0804 -0.0118 -0.0704
    1DPPC   C2B14830   9.172  25.414   4.328 -0.0496  0.1353 -0.0409
    1DPPC   C3B14831   9.410  25.363   4.709  0.1126  0.0389 -0.2626
    1DPPC   C4B14832   9.795  25.491   4.990 -0.1793  0.0874  0.1073
    1DPPC   NC314833  11.094   1.899   3.358 -0.0944  0.1233  0.0316
    1DPPC   PO414834  10.662   2.045   3.365 -0.0845 -0.0095  0.2136
    1DPPC   GL114835  10.511   2.118   3.733  0.0914  0.0184  0.2209
    1DPPC   GL214836  10.468   2.461   3.764 -0.0053 -0.1997  0.0192
    1DPPC   C1A14837  10.476   1.825   4.015  0.1754  0.1016  0.2637
    1DPPC   C2A14838  10.325   1.579   4.308 -0.1546  0.1059  0.0445
    1DPPC   C3A14839   9.979   1.520   4.599  0.2521 -0.1141 -0.0562
    1DPPC   C4A14840   9.809   1.313   4.873  0.2834 -0.0981  0.3785
    1DPPC   C1B14841  10.427   2.540   4.192 -0.0396  0.1508 -0.0442
    1DPPC   C2B14842  10.422   2.363   4.587 -0.0720 -0.0363  0.1794
    1DPPC   C3B14843  10.302   2.370   5.080  0.2147  0.2260  0.1141
    1DPPC   C4B14844  10.179   2.585   5.391 -0.1481  0.0148 -0.2845
    1DPPC   NC314845  24.882  11.241   2.664  0.0060  0.0024  0.3620
    1DPPC   PO414846  24.784  11.503   3.024 -0.2412  0.0349  0.2629
    1DPPC   GL114847  24.394  11.442   3.324 -0.0015  0.0266 -0.1348
    1DPPC   GL214848  24.166  11.741   3.480  0.5168  0.1548 -0.5128
    1DPPC   C1A14849  24.335  11.459   3.820  0.2634 -0.2258 -0.0773
    1DPPC   C2A14850  24.419  11.762   4.129  0.1631  0.0995 -0.2940
    1DPPC   C3A14851  24.434  11.940   4.546  0.1211  0.0517 -0.0935
    1DPPC   C4A14852  24.241  12.216   4.826 -0.0346 -0.0681 -0.2150
    1DPPC   C1B14853  24.012  11.868   3.881  0.1060 -0.0957  0.2025
    1DPPC   C2B14854  23.760  11.887   4.267 -0.3135  0.0294 -0.1056
    1DPPC   C3B14855  23.694  12.014   4.631  0.0876 -0.1141  0.2640
    1DPPC   C4B14856  23.471  12.192   5.038 -0.0815 -0.1612 -0.1189
    1DPPC   NC314857  12.768   2.416   3.670  0.1435  0.2252  0.2732
    1DPPC   PO414858  13.118   2.421   3.914 -0.0552 -0.0442 -0.0985
    1DPPC   GL114859  12.949   2.525   4.306  0.0721 -0.0397 -0.1408
    1DPPC   GL214860  12.944   2.263   4.518  0.1008 -0.0974 -0.0715
    1DPPC   C1A14861  12.812   2.776   4.653  0.0912  0.0092 -0.1192
    1DPPC   C2A14862  12.560   2.832   5.062 -0.1995  0.3082 -0.2051
    1DPPC   C3A14863  12.455   3.062   5.389  0.0224  0.2034  0.1217
    1DPPC   C4A14864  12.283   3.292   5.750  0.0540 -0.0372  0.1346
    1DPPC   C1B14865  13.014   2.357   5.057 -0.1068  0.1629  0.1634
    1DPPC   C2B14866  13.170   2.458   5.426  0.3508  0.0204  0.2200
    1DPPC   C3B14867  13.521   2.783   5.450 -0.1807  0.3423  0.0817
    1DPPC   C4B14868  13.389   3.174   5.497 -0.2686  0.0513  0.0613
    1DPPC   NC314869   2.287   5.735   1.464  0.1865 -0.0837 -0.1464
    1DPPC   PO414870   2.507   5.968   1.924  0.1707  0.1068  0.2566
    1DPPC   GL114871   2.778   5.996   2.190 -0.0011 -0.1666 -0.1738
    1DPPC   GL214872   2.725   6.326   2.326  0.0071 -0.2790 -0.2136
    1DPPC   C1A14873   3.001   5.825   2.613  0.1069 -0.1388 -0.2338
    1DPPC   C2A14874   2.989   5.580   2.947 -0.0391  0.3878  0.2435
    1DPPC   C3A14875   3.197   5.521   3.298 -0.0990  0.2745  0.1115
    1DPPC   C4A14876   3.263   5.547   3.724 -0.2147  0.0759 -0.1918
    1DPPC   C1B14877   2.564   6.148   2.650  0.2354  0.0535 -0.2417
    1DPPC   C2B14878   2.633   5.969   3.000 -0.3111 -0.0387 -0.0879
    1DPPC   C3B14879   2.494   5.675   3.262  0.0606 -0.0032  0.0715
    1DPPC   C4B14880   2.776   5.320   3.378 -0.0265 -0.3601 -0.1558
    1DPPC   NC314881  16.976   5.340   3.638  0.2235 -0.3063 -0.1408
    1DPPC   PO414882  17.441   5.228   3.623  0.0814  0.1602 -0.0866
    1DPPC   GL114883  17.706   5.492   3.941 -0.0454 -0.1289 -0.0638
    1DPPC   GL214884  17.790   5.762   3.828  0.3720 -0.0151 -0.2734
    1DPPC   C1A14885  17.960   5.349   4.328 -0.0260  0.0127  0.1038
    1DPPC   C2A14886  18.110   5.266   4.703 -0.0461  0.1083 -0.3051
    1DPPC   C3A14887  18.047   4.952   5.084 -0.0407  0.0027  0.0660
    1DPPC   C4A14888  17.847   4.705   5.399  0.0472 -0.0120  0.1313
    1DPPC   C1B14889  18.149   5.523   3.847 -0.0224  0.0849 -0.1805
    1DPPC   C2B14890  18.419   5.272   4.141  0.0127 -0.2258  0.0694
    1DPPC   C3B14891  18.573   5.300   4.599 -0.0590  0.2868  0.1889
    1DPPC   C4B14892  18.525   5.035   4.996 -0.1825 -0.0201  0.1650
    1DPPC   NC314893   5.552  27.490   2.555 -0.1909 -0.2103 -0.4556
    1DPPC   PO414894   5.566  27.048   2.600  0.1115 -0.1380 -0.0132
    1DPPC   GL114895   5.572  26.886   3.027  0.1203 -0.2295  0.0776
    1DPPC   GL214896   5.917  26.859   3.108 -0.2491 -0.1145  0.1932
    1DPPC   C1A14897   5.469  26.825   3.401 -0.2961  0.1929 -0.1121
    1DPPC   C2A14898   5.733  26.805   3.698  0.0866  0.5250 -0.1418
    1DPPC   C3A14899   5.726  26.881   4.200  0.1721  0.3078  0.2298
    1DPPC   C4A14900   5.909  26.555   4.471 -0.0497  0.2665 -0.2117
    1DPPC   C1B14901   5.792  27.263   3.384  0.1641 -0.0785  0.2004
    1DPPC   C2B14902   5.727  27.344   3.740 -0.2205  0.2815 -0.1648
    1DPPC   C3B14903   5.693  27.386   4.196 -0.4656  0.1554  0.4937
    1DPPC   C4B14904   5.823  27.580   4.494 -0.0993 -0.0826 -0.0647
    1DPPC   NC314905  19.860  23.181   3.078 -0.0707  0.0981 -0.2708
    1DPPC   PO414906  19.362  23.151   3.093 -0.5433 -0.0478  0.1526
    1DPPC   GL114907  19.429  23.210   3.515  0.0296  0.0398  0.0474
    1DPPC   GL214908  19.377  23.488   3.619 -0.0680 -0.0198  0.0105
    1DPPC   C1A14909  19.521  22.888   3.920 -0.4019 -0.3677 -0.0807
    1DPPC   C2A14910  19.229  22.758   4.212 -0.1888 -0.0789 -0.1562
    1DPPC   C3A14911  19.114  22.689   4.676  0.2124 -0.3295 -0.0914
    1DPPC   C4A14912  18.767  22.738   4.921  0.1758 -0.0352  0.1437
    1DPPC   C1B14913  19.451  23.449   4.013  0.4033  0.0057 -0.1791
    1DPPC   C2B14914  19.276  23.282   4.387  0.2642 -0.0785  0.0334
    1DPPC   C3B14915  18.991  23.178   4.688  0.0789  0.1302  0.2874
    1DPPC   C4B14916  18.697  23.249   5.026  0.0933 -0.1484 -0.3675
    1DPPC   NC314917   8.854  19.489   3.635 -0.1555 -0.3673 -0.0665
    1DPPC   PO414918   8.718  19.133   3.271  0.0868  0.2583 -0.2686
    1DPPC   GL114919   8.736  18.993   3.803  0.2024 -0.2371 -0.1774
    1DPPC   GL214920   8.365  18.925   3.952  0.2595 -0.1994  0.3676
    1DPPC   C1A14921   8.847  18.904   4.311 -0.0281  0.0166 -0.2259
    1DPPC   C2A14922   8.889  18.720   4.687 -0.0088 -0.1594 -0.0875
    1DPPC   C3A14923   9.210  18.748   5.091 -0.2022  0.1091  0.0040
    1DPPC   C4A14924   9.519  18.408   5.187 -0.2538  0.0246  0.0173
    1DPPC   C1B14925   8.217  18.753   4.323 -0.1635  0.0657  0.2215
    1DPPC   C2B14926   8.378  18.741   4.745 -0.0847  0.0564  0.2521
    1DPPC   C3B14927   8.343  18.903   5.278  0.1516 -0.1742  0.1330
    1DPPC   C4B14928   8.397  19.105   5.592  0.5144  0.1307  0.0246
    1DPPC   NC314929  19.300   9.797   3.487 -0.0995  0.0320  0.1614
    1DPPC   PO414930  19.415   9.362   3.541  0.2916 -0.0932 -0.0747
    1DPPC   GL114931  19.566   9.530   3.938 -0.1911 -0.0348 -0.0641
    1DPPC   GL214932  19.819   9.446   4.124  0.0433  0.0220  0.2708
    1DPPC   C1A14933  19.497   9.753   4.239  0.1938 -0.0811 -0.0779
    1DPPC   C2A14934  19.701  10.157   4.294  0.0278  0.0708 -0.1726
    1DPPC   C3A14935  19.929  10.539   4.440 -0.0531  0.1555  0.1295
    1DPPC   C4A14936  20.148  10.886   4.317  0.1809 -0.1983 -0.0003
    1DPPC   C1B14937  19.731   9.527   4.588 -0.0902  0.0446 -0.0595
    1DPPC   C2B14938  19.728   9.707   5.023 -0.0283  0.0257 -0.0702
    1DPPC   C3B14939  19.747  10.074   5.307 -0.0103  0.0904 -0.0041
    1DPPC   C4B14940  19.586  10.440   5.447  0.0535  0.2098 -0.2232
    1DPPC   NC314941  22.863  21.428   3.138 -0.0481  0.2778 -0.1019
    1DPPC   PO414942  22.503  21.397   3.291 -0.3186 -0.0902  0.0596
    1DPPC   GL114943  22.625  21.326   3.699 -0.1330 -0.0748 -0.1661
    1DPPC   GL214944  22.995  21.334   3.694  0.3198  0.2510 -0.0440
    1DPPC   C1A14945  22.422  21.314   4.096  0.0111  0.3065 -0.0983
    1DPPC   C2A14946  22.545  21.311   4.478 -0.1894 -0.1614 -0.0329
    1DPPC   C3A14947  22.766  21.371   4.762  0.0980 -0.2484  0.0110
    1DPPC   C4A14948  23.026  21.347   5.133 -0.1208  0.1106 -0.0495
    1DPPC   C1B14949  23.290  21.354   3.964 -0.1024  0.4931  0.5613
    1DPPC   C2B14950  23.629  21.050   4.226  0.2078 -0.0704 -0.0743
    1DPPC   C3B14951  23.750  20.976   4.495 -0.2389 -0.1149  0.4179
    1DPPC   C4B14952  23.961  20.848   4.873  0.0685  0.0906  0.1825
    1DPPC   NC314953  15.875  24.501   3.189 -0.1069  0.0493 -0.0252
    1DPPC   PO414954  15.718  24.200   3.497 -0.0355 -0.2359  0.0719
    1DPPC   GL114955  15.622  23.816   3.809 -0.0152 -0.0719 -0.1494
    1DPPC   GL214956  15.766  23.688   4.113  0.0006  0.0514 -0.0944
    1DPPC   C1A14957  15.282  23.698   3.966  0.1066  0.0363  0.3600
    1DPPC   C2A14958  15.021  23.547   4.315  0.0164 -0.0212  0.1450
    1DPPC   C3A14959  14.745  23.378   4.585  0.1516  0.0803  0.0617
    1DPPC   C4A14960  14.405  23.360   4.898  0.3860 -0.1673  0.0681
    1DPPC   C1B14961  16.048  23.535   4.451  0.4553  0.1785 -0.1948
    1DPPC   C2B14962  16.335  23.471   4.808  0.2745  0.0222 -0.5165
    1DPPC   C3B14963  16.642  23.635   5.035 -0.0886 -0.0964  0.1991
    1DPPC   C4B14964  16.616  23.939   5.341 -0.0717  0.0799 -0.0846
    1DPPC   NC314965  25.196  12.982   2.541  0.1411  0.0107  0.0179
    1DPPC   PO414966  25.193  13.150   2.936  0.3041 -0.3753  0.0185
    1DPPC   GL114967  25.144  13.295   3.324 -0.0461  0.2051  0.0485
    1DPPC   GL214968  24.921  13.538   3.166 -0.2385  0.4976  0.0747
    1DPPC   C1A14969  25.410  13.509   3.661  0.1494 -0.0255 -0.3226
    1DPPC   C2A14970  25.372  13.582   4.121 -0.1723 -0.1461  0.0090
    1DPPC   C3A14971  25.045  13.827   4.309  0.0395 -0.1489  0.1389
    1DPPC   C4A14972  24.583  13.656   4.331 -0.0834 -0.0529 -0.1421
    1DPPC   C1B14973  24.982  13.874   3.567  0.2530  0.0370  0.1594
    1DPPC   C2B14974  25.065  14.180   3.877  0.0075  0.2598 -0.1170
    1DPPC   C3B14975  25.396  14.151   4.169  0.0680  0.2210 -0.1990
    1DPPC   C4B14976  25.488  13.992   4.563 -0.1468 -0.0158  0.0514
    1DPPC   NC314977  26.588  27.243   2.506 -0.3969 -0.0394 -0.1633
    1DPPC   PO414978  26.547  27.589   2.808 -0.1817 -0.1687 -0.1072
    1DPPC   GL114979  26.615  27.650   3.291  0.0163 -0.1767  0.0445
    1DPPC   GL214980  26.555  27.406   3.618 -0.0566  0.2325  0.4639
    1DPPC   C1A14981  26.567  27.875   3.692 -0.1333 -0.0743 -0.2016
    1DPPC   C2A14982  26.725  27.827   4.120  0.1044  0.3051 -0.1682
    1DPPC   C3A14983  27.073  27.856   4.487  0.0154 -0.2121  0.1317
    1DPPC   C4A14984  27.210  27.872   4.903 -0.2143  0.1103 -0.0348
    1DPPC   C1B14985  26.907  27.453   3.725 -0.0398  0.0243  0.0070
    1DPPC   C2B14986  27.025  27.425   4.138  0.1410  0.0668  0.0037
    1DPPC   C3B14987  27.174  27.372   4.629 -0.3217 -0.1378  0.1813
    1DPPC   C4B14988  27.459  27.100   4.796 -0.1094 -0.0245 -0.0122
    1DPPC   NC314989   8.893   5.057   3.209  0.0772  0.4262 -0.1741
    1DPPC   PO414990   8.890   4.806   3.319 -0.2112  0.2529 -0.0618
    1DPPC   GL114991   8.825   4.693   3.607  0.1863  0.0110  0.0585
    1DPPC   GL214992   8.535   4.649   3.679  0.2178  0.4824  0.0330
    1DPPC   C1A14993   8.958   4.590   3.997  0.1150 -0.1095  0.2706
    1DPPC   C2A14994   8.952   4.768   4.376  0.2557  0.1121 -0.1301
    1DPPC   C3A14995   9.017   5.043   4.701  0.0101 -0.1055  0.0415
    1DPPC   C4A14996   9.074   5.140   5.139  0.1910  0.1468  0.1395
    1DPPC   C1B14997   8.495   4.589   4.204 -0.0235  0.0871  0.1902
    1DPPC   C2B14998   8.513   4.576   4.607  0.0773  0.3226 -0.2159
    1DPPC   C3B14999   8.578   4.396   5.036  0.0371  0.0133 -0.0485
    1DPPC   C4B15000   8.473   4.110   5.335 -0.0381  0.1287  0.0820
    1DPPC   NC315001   0.101  15.503   2.580 -0.3687 -0.1373 -0.0441
    1DPPC   PO415002   0.036  15.799   2.919 -0.1819 -0.2007  0.0101
    1DPPC   GL115003  28.026  15.573   3.244 -0.0803  0.0268  0.0303
    1DPPC   GL215004  27.688  15.564   3.158 -0.0688 -0.2632 -0.2105
    1DPPC   C1A15005  27.901  15.364   3.569 -0.1757 -0.0945 -0.2464
    1DPPC   C2A15006  27.684  15.420   3.935 -0.2104 -0.2172  0.2074
    1DPPC   C3A15007  27.528  15.567   4.312 -0.0735  0.0396  0.0711
    1DPPC   C4A15008  27.342  15.516   4.714  0.2891 -0.1604  0.1203
    1DPPC   C1B15009  27.583  15.787   3.570  0.1935  0.2734  0.2672
    1DPPC   C2B15010  27.487  15.922   3.978 -0.3237  0.0699 -0.1503
    1DPPC   C3B15011  27.698  16.106   4.404 -0.3298 -0.1683 -0.0841
    1DPPC   C4B15012  28.018  16.186   4.618 -0.2646  0.0258 -0.1053
    1DPPC   NC315013  12.780   1.506   3.824  0.0844 -0.0845 -0.1525
    1DPPC   PO415014  13.018   1.923   3.627  0.0138 -0.1428 -0.0859
    1DPPC   GL115015  13.198   1.896   4.081 -0.0801  0.2307  0.1805
    1DPPC   GL215016  13.397   2.271   4.233  0.3062 -0.2751 -0.1605
    1DPPC   C1A15017  13.325   1.828   4.559  0.0422 -0.0243  0.0647
    1DPPC   C2A15018  13.162   1.865   4.903  0.0327 -0.2200  0.1202
    1DPPC   C3A15019  13.297   1.864   5.296 -0.0275 -0.1314 -0.1620
    1DPPC   C4A15020  13.703   1.865   5.526 -0.0153  0.2624  0.0848
    1DPPC   C1B15021  13.305   2.474   4.672  0.1592 -0.0497  0.0670
    1DPPC   C2B15022  13.199   2.788   5.039 -0.2635 -0.3159 -0.1983
    1DPPC   C3B15023  13.005   2.958   5.312 -0.1716  0.1277  0.0159
    1DPPC   C4B15024  12.835   3.067   5.699 -0.1401 -0.1202 -0.3787
    1DPPC   NC315025  26.289   0.721   2.482  0.1938 -0.0780  0.0691
    1DPPC   PO415026  26.686   1.027   2.867  0.1305  0.0462 -0.3926
    1DPPC   GL115027  26.557   1.101   3.227 -0.2174 -0.0118  0.2241
    1DPPC   GL215028  26.374   1.268   3.229 -0.1636  0.0058 -0.0802
    1DPPC   C1A15029  26.587   1.059   3.645 -0.1486 -0.1077 -0.1597
    1DPPC   C2A15030  26.812   1.220   4.038 -0.0538 -0.1513 -0.2520
    1DPPC   C3A15031  26.938   1.094   4.420 -0.1630  0.0373 -0.1168
    1DPPC   C4A15032  27.224   1.239   4.662  0.1154 -0.0177  0.1627
    1DPPC   C1B15033  26.329   1.561   3.572  0.0767 -0.3430 -0.0657
    1DPPC   C2B15034  26.375   1.528   4.029 -0.2455 -0.1341 -0.0050
    1DPPC   C3B15035  26.577   1.504   4.385 -0.1245  0.2903  0.3638
    1DPPC   C4B15036  26.761   1.531   4.750  0.2371 -0.3297 -0.0670
    1DPPC   NC315037  18.213  19.188   3.908 -0.1507 -0.1593 -0.1978
    1DPPC   PO415038  18.513  19.083   3.764 -0.0376 -0.0371 -0.0604
    1DPPC   GL115039  18.721  19.193   4.095  0.2187  0.1332 -0.0139
    1DPPC   GL215040  19.020  19.367   4.072 -0.2573 -0.1200  0.1352
    1DPPC   C1A15041  18.640  19.145   4.517  0.1742  0.1780 -0.1493
    1DPPC   C2A15042  18.835  19.440   4.912  0.1413 -0.1063 -0.2816
    1DPPC   C3A15043  19.038  19.462   5.376 -0.0913  0.3341  0.2667
    1DPPC   C4A15044  19.009  19.090   5.659 -0.4384  0.2798 -0.1520
    1DPPC   C1B15045  19.117  19.257   4.527  0.0059 -0.0972 -0.1381
    1DPPC   C2B15046  19.301  19.178   4.969  0.0428 -0.0091  0.0925
    1DPPC   C3B15047  19.527  18.894   5.072 -0.2072 -0.0540  0.4617
    1DPPC   C4B15048  19.755  18.681   5.412 -0.2686 -0.1829 -0.2553
    1DPPC   NC315049   8.476  22.771   3.491  0.0541  0.1157  0.2360
    1DPPC   PO415050   8.232  23.137   3.564  0.1088 -0.4560  0.2043
    1DPPC   GL115051   8.248  23.320   3.829  0.1132  0.0433  0.1460
    1DPPC   GL215052   8.532  23.414   4.004  0.1321 -0.0022 -0.0393
    1DPPC   C1A15053   8.001  23.538   4.135  0.1617  0.0463  0.1905
    1DPPC   C2A15054   8.072  23.891   4.472  0.0865 -0.0373 -0.1488
    1DPPC   C3A15055   8.017  24.366   4.630  0.1565  0.4102  0.1915
    1DPPC   C4A15056   8.072  24.803   4.543  0.1972  0.1349 -0.0904
    1DPPC   C1B15057   8.437  23.581   4.297  0.1347  0.0417  0.0162
    1DPPC   C2B15058   8.333  23.506   4.666  0.3349 -0.2385  0.3096
    1DPPC   C3B15059   8.208  23.040   4.821 -0.0289 -0.0533 -0.0247
    1DPPC   C4B15060   8.299  22.645   4.817 -0.0439 -0.6086 -0.0318
    1DPPC   NC315061  20.847  16.475   3.202 -0.0642 -0.2176 -0.0255
    1DPPC   PO415062  20.585  16.687   3.583  0.1855 -0.1320 -0.0512
    1DPPC   GL115063  20.717  16.654   3.968  0.0079  0.3387 -0.1291
    1DPPC   GL215064  20.964  16.556   4.057 -0.3044  0.1401  0.0177
    1DPPC   C1A15065  20.571  16.732   4.383 -0.2959 -0.1636  0.0314
    1DPPC   C2A15066  20.682  16.697   4.867 -0.1167  0.1820  0.2284
    1DPPC   C3A15067  20.623  16.605   5.286  0.2175  0.3011 -0.1649
    1DPPC   C4A15068  20.671  16.726   5.826 -0.1179  0.0415  0.0274
    1DPPC   C1B15069  20.750  16.272   4.273  0.2428 -0.3486 -0.2494
    1DPPC   C2B15070  20.625  16.196   4.614 -0.2115 -0.0872 -0.0189
    1DPPC   C3B15071  20.340  16.239   5.020 -0.4033 -0.2552 -0.1504
    1DPPC   C4B15072  20.042  15.937   5.083 -0.0125  0.0861  0.0656
    1DPPC   NC315073  13.034   8.572   3.287  0.1251  0.1206  0.1442
    1DPPC   PO415074  12.767   8.721   3.533  0.0336  0.4332 -0.2479
    1DPPC   GL115075  12.593   8.892   3.916 -0.0521 -0.2451  0.1721
    1DPPC   GL215076  12.406   8.669   4.057  0.0230  0.0772 -0.1240
    1DPPC   C1A15077  12.270   9.091   4.145  0.2659  0.0362 -0.1298
    1DPPC   C2A15078  12.194   9.310   4.533 -0.0533  0.0433 -0.2826
    1DPPC   C3A15079  11.943   9.556   4.910 -0.0515  0.1098  0.1282
    1DPPC   C4A15080  11.778   9.784   5.279  0.1740  0.0856  0.1988
    1DPPC   C1B15081  12.246   8.699   4.514  0.0014 -0.2100  0.0042
    1DPPC   C2B15082  11.982   8.471   4.847 -0.2580 -0.2608 -0.2259
    1DPPC   C3B15083  11.977   8.348   5.271  0.3387  0.0184  0.4949
    1DPPC   C4B15084  12.122   7.953   5.507  0.0451  0.0788  0.1480
    1DPPC   NC315085  11.647   9.766   3.145  0.2973  0.0316  0.2778
    1DPPC   PO415086  11.265   9.796   3.415  0.2152 -0.2929  0.2428
    1DPPC   GL115087  11.018   9.853   3.761  0.0663  0.1890 -0.0283
    1DPPC   GL215088  10.935  10.146   3.724  0.4593 -0.2880 -0.2069
    1DPPC   C1A15089  10.814   9.888   4.107 -0.1810 -0.0363 -0.2460
    1DPPC   C2A15090  10.787   9.683   4.444 -0.4728 -0.2005  0.2049
    1DPPC   C3A15091  10.775   9.607   4.854 -0.2498  0.1149  0.1652
    1DPPC   C4A15092  10.834   9.430   5.176  0.1395 -0.1926  0.2176
    1DPPC   C1B15093  11.049  10.282   4.080  0.0358 -0.1326 -0.0955
    1DPPC   C2B15094  11.264  10.464   4.380  0.1525 -0.1634 -0.0314
    1DPPC   C3B15095  11.323  10.422   4.803 -0.1694 -0.3984  0.1379
    1DPPC   C4B15096  11.142  10.289   5.251 -0.1524  0.2375  0.1818
    1DPPC   NC315097  27.222  15.461   2.477 -0.0817  0.2683  0.0999
    1DPPC   PO415098  27.324  15.294   2.918 -0.2089 -0.0632  0.1144
    1DPPC   GL115099  27.084  15.405   3.320  0.2880 -0.1470 -0.0601
    1DPPC   GL215100  27.096  15.833   3.305  0.0994  0.0936 -0.1505
    1DPPC   C1A15101  26.768  15.584   3.680 -0.1530  0.0901  0.3332
    1DPPC   C2A15102  26.532  15.526   3.987 -0.1871  0.2716 -0.0577
    1DPPC   C3A15103  26.572  15.652   4.396  0.0617  0.2390 -0.1587
    1DPPC   C4A15104  26.411  15.383   4.701 -0.0984  0.0130 -0.0863
    1DPPC   C1B15105  27.056  15.962   3.728  0.1788 -0.0653  0.1979
    1DPPC   C2B15106  26.940  15.815   4.081 -0.0869 -0.2804 -0.0397
    1DPPC   C3B15107  27.027  15.472   4.288 -0.2839  0.0598  0.0685
    1DPPC   C4B15108  27.289  15.130   4.427  0.0981  0.0314  0.1414
    1DPPC   NC315109  17.208  27.036   3.305 -0.0331  0.0615 -0.1669
    1DPPC   PO415110  16.863  26.955   3.583  0.1066 -0.1236  0.0142
    1DPPC   GL115111  16.920  26.867   4.020 -0.3559 -0.3696  0.1596
    1DPPC   GL215112  16.862  27.214   4.005  0.1084  0.0812 -0.2868
    1DPPC   C1A15113  17.050  26.690   4.363 -0.0304  0.1642  0.0199
    1DPPC   C2A15114  16.974  26.519   4.613 -0.1256  0.1190  0.2519
    1DPPC   C3A15115  17.205  26.293   4.832 -0.3272  0.2883 -0.1197
    1DPPC   C4A15116  17.567  26.126   4.909  0.0749  0.2339 -0.0725
    1DPPC   C1B15117  16.710  27.119   4.380  0.1450  0.1531 -0.1259
    1DPPC   C2B15118  16.546  26.862   4.705  0.1941 -0.0219  0.2782
    1DPPC   C3B15119  16.630  26.586   4.950 -0.2763  0.1827 -0.1977
    1DPPC   C4B15120  16.914  26.320   5.218 -0.0272 -0.0687 -0.1689
    1DPPC   NC315121   2.937   6.804   2.368 -0.4654  0.0762 -0.0638
    1DPPC   PO415122   2.686   7.160   2.532 -0.0735  0.1241  0.0322
    1DPPC   GL115123   2.605   7.140   2.940 -0.1672  0.1044 -0.0019
    1DPPC   GL215124   2.239   7.131   2.866  0.0200 -0.0254  0.0243
    1DPPC   C1A15125   2.716   7.167   3.268  0.2215 -0.1385 -0.0317
    1DPPC   C2A15126   2.770   7.083   3.733 -0.2096  0.0615  0.1294
    1DPPC   C3A15127   2.898   6.958   4.089  0.0106  0.1236 -0.1561
    1DPPC   C4A15128   2.653   7.112   4.540 -0.0391 -0.0784  0.1019
    1DPPC   C1B15129   2.236   7.186   3.290  0.0855  0.0129  0.1343
    1DPPC   C2B15130   2.280   6.999   3.648 -0.0205  0.4421 -0.0042
    1DPPC   C3B15131   2.354   6.974   4.044 -0.0237  0.0610 -0.0512
    1DPPC   C4B15132   2.201   6.860   4.325 -0.0131  0.0568  0.1146
    1DPPC   NC315133  12.316   4.612   2.848  0.0602 -0.3357 -0.0855
    1DPPC   PO415134  12.554   4.461   3.265  0.0187 -0.3701 -0.4451
    1DPPC   GL115135  12.580   4.439   3.831  0.1710 -0.0074 -0.0180
    1DPPC   GL215136  12.599   4.611   4.002  0.0427 -0.1021 -0.1270
    1DPPC   C1A15137  12.205   4.325   4.110  0.1079 -0.0249  0.2607
    1DPPC   C2A15138  12.213   4.224   4.518 -0.0028 -0.0087 -0.0371
    1DPPC   C3A15139  12.002   3.997   4.994  0.1630  0.1075 -0.1049
    1DPPC   C4A15140  12.119   3.690   5.305  0.0552  0.2491 -0.0238
    1DPPC   C1B15141  12.521   4.631   4.425  0.1758  0.1336 -0.2279
    1DPPC   C2B15142  12.388   4.573   4.887  0.0691  0.0024 -0.0218
    1DPPC   C3B15143  12.272   4.362   5.253 -0.3091  0.0251  0.3325
    1DPPC   C4B15144  12.185   4.363   5.626  0.2026  0.1961 -0.1720
    1DPPC   NC315145   3.420   2.531   2.446  0.1005  0.0572 -0.2702
    1DPPC   PO415146   3.081   2.795   2.336  0.1087  0.1989 -0.1118
    1DPPC   GL115147   2.904   2.808   2.666  0.0299  0.4728  0.0661
    1DPPC   GL215148   2.631   2.615   2.750 -0.3090  0.1477 -0.1833
    1DPPC   C1A15149   2.968   2.972   3.063  0.2345  0.0310  0.0755
    1DPPC   C2A15150   3.322   3.002   3.331 -0.1899  0.3200  0.2161
    1DPPC   C3A15151   3.568   2.811   3.618 -0.2035  0.0676 -0.1684
    1DPPC   C4A15152   3.866   2.808   3.884 -0.0704  0.2455 -0.0255
    1DPPC   C1B15153   2.691   2.580   3.233 -0.0724  0.2884 -0.1992
    1DPPC   C2B15154   2.721   2.532   3.756  0.0898  0.2687  0.0907
    1DPPC   C3B15155   2.712   2.842   4.102  0.1393 -0.3716  0.0719
    1DPPC   C4B15156   2.861   3.159   4.442 -0.2935 -0.1123 -0.1906
    1DPPC   NC315157   4.387  24.801   3.339  0.2379 -0.1387 -0.1213
    1DPPC   PO415158   4.290  25.178   3.233  0.1538  0.0783 -0.1805
    1DPPC   GL115159   4.066  25.144   3.532 -0.1542  0.0211 -0.2613
    1DPPC   GL215160   3.699  25.307   3.518 -0.1792 -0.1035 -0.0836
    1DPPC   C1A15161   4.164  25.100   3.945 -0.1136  0.0360  0.0060
    1DPPC   C2A15162   4.345  24.873   4.288 -0.1911  0.3164 -0.1584
    1DPPC   C3A15163   4.667  24.675   4.453  0.1201  0.0064 -0.1703
    1DPPC   C4A15164   4.756  24.773   4.787  0.0103  0.0221  0.1143
    1DPPC   C1B15165   3.698  25.374   3.867  0.3563  0.2715 -0.0682
    1DPPC   C2B15166   3.964  25.540   4.234  0.0142  0.0257 -0.0669
    1DPPC   C3B15167   3.944  25.658   4.655  0.1384 -0.1382  0.0159
    1DPPC   C4B15168   3.820  26.170   4.742 -0.4656  0.1043 -0.0928
    1DPPC   NC315169   8.826   6.744   3.186  0.1777 -0.2098  0.0827
    1DPPC   PO415170   8.456   6.629   3.331  0.0554  0.1208 -0.1050
    1DPPC   GL115171   8.570   6.632   3.803 -0.0864 -0.2141  0.2712
    1DPPC   GL215172   8.911   6.563   3.714  0.1130 -0.1770 -0.2277
    1DPPC   C1A15173   8.742   6.744   4.212 -0.1631 -0.2569 -0.3696
    1DPPC   C2A15174   8.744   6.728   4.691  0.0454 -0.2258  0.4710
    1DPPC   C3A15175   8.746   6.444   5.027  0.0838 -0.0054 -0.1381
    1DPPC   C4A15176   8.808   6.182   5.415 -0.2968  0.0131 -0.1902
    1DPPC   C1B15177   9.222   6.564   4.029 -0.1270 -0.1356  0.2613
    1DPPC   C2B15178   9.155   6.554   4.396 -0.1836  0.0335  0.1823
    1DPPC   C3B15179   9.166   6.430   4.748 -0.2382  0.1359  0.1538
    1DPPC   C4B15180   9.234   6.395   5.192  0.2748  0.5623 -0.3586
    1DPPC   NC315181  12.061  13.711   4.221 -0.0869  0.0454  0.1278
    1DPPC   PO415182  11.540  13.687   4.260 -0.3153 -0.2650 -0.0790
    1DPPC   GL115183  11.411  13.682   4.660 -0.0482  0.0571 -0.2315
    1DPPC   GL215184  11.179  13.375   4.709 -0.0415 -0.0717 -0.0522
    1DPPC   C1A15185  11.154  13.703   5.053 -0.3364 -0.3726  0.0374
    1DPPC   C2A15186  11.312  13.652   5.430  0.1311  0.2226 -0.0971
    1DPPC   C3A15187  11.616  13.333   5.749  0.1704  0.0929  0.0566
    1DPPC   C4A15188  11.466  13.035   6.083 -0.0480 -0.2223  0.1591
    1DPPC   C1B15189  11.485  13.288   5.081 -0.1917 -0.0646  0.3193
    1DPPC   C2B15190  11.896  13.071   5.325  0.1476  0.2531 -0.1199
    1DPPC   C3B15191  12.331  12.854   5.484 -0.1531  0.0002 -0.1062
    1DPPC   C4B15192  12.693  12.687   5.618 -0.2834 -0.1323 -0.1434
    1DPPC   NC315193  18.111  23.903   2.980  0.0622  0.2207 -0.3363
    1DPPC   PO415194  17.962  23.649   3.227 -0.1692 -0.0353  0.1380
    1DPPC   GL115195  18.004  23.489   3.710 -0.3107 -0.0373 -0.0794
    1DPPC   GL215196  17.797  23.690   3.896 -0.1246  0.2139 -0.2754
    1DPPC   C1A15197  17.888  23.299   4.183 -0.0950  0.3372  0.1527
    1DPPC   C2A15198  18.011  23.229   4.641 -0.3545 -0.1368 -0.0001
    1DPPC   C3A15199  18.038  23.182   5.012 -0.1641 -0.0665 -0.0972
    1DPPC   C4A15200  18.244  23.384   5.390 -0.2831  0.4504 -0.0087
    1DPPC   C1B15201  17.950  23.819   4.219 -0.1268  0.0001 -0.1621
    1DPPC   C2B15202  17.932  23.712   4.700  0.1393 -0.0937  0.0029
    1DPPC   C3B15203  18.025  23.836   5.151 -0.1065  0.1219  0.0086
    1DPPC   C4B15204  17.951  23.738   5.614  0.1042 -0.1694 -0.2707
    1DPPC   NC315205   4.813   1.810   2.176  0.2389  0.0560  0.1886
    1DPPC   PO415206   4.994   1.691   2.641 -0.1367  0.2820 -0.0665
    1DPPC   GL115207   4.841   1.913   3.032 -0.0970  0.0015  0.1211
    1DPPC   GL215208   4.858   2.235   2.907  0.2127  0.2532  0.2593
    1DPPC   C1A15209   4.981   1.985   3.450  0.1920 -0.0761  0.0669
    1DPPC   C2A15210   4.958   1.914   3.814 -0.1094 -0.0114  0.1644
    1DPPC   C3A15211   4.913   1.697   4.269 -0.0304  0.0743 -0.1591
    1DPPC   C4A15212   4.708   1.361   4.461 -0.1299  0.1680  0.1065
    1DPPC   C1B15213   4.674   2.400   3.258 -0.1674  0.0847  0.2897
    1DPPC   C2B15214   4.493   2.070   3.550 -0.4506 -0.0927 -0.0300
    1DPPC   C3B15215   4.447   1.713   3.910  0.0858  0.0438  0.3726
    1DPPC   C4B15216   4.366   1.265   4.047 -0.2990  0.0975  0.0168
    1DPPC   NC315217  21.873  18.896   3.261  0.0396 -0.1682  0.0236
    1DPPC   PO415218  21.603  18.632   3.576  0.1150  0.0793  0.0750
    1DPPC   GL115219  21.498  18.874   3.997  0.1287 -0.2584  0.0528
    1DPPC   GL215220  21.420  19.281   4.034  0.2436 -0.0495 -0.3696
    1DPPC   C1A15221  21.496  18.974   4.450 -0.0931 -0.1720 -0.2409
    1DPPC   C2A15222  21.897  18.975   4.684  0.2534 -0.2350 -0.0803
    1DPPC   C3A15223  22.149  18.982   4.975 -0.0902  0.2573 -0.2616
    1DPPC   C4A15224  22.162  18.887   5.450  0.2212 -0.1414  0.0505
    1DPPC   C1B15225  21.738  19.377   4.328 -0.1291  0.3001 -0.4135
    1DPPC   C2B15226  21.811  19.800   4.495 -0.1449  0.2948 -0.1151
    1DPPC   C3B15227  22.078  19.878   4.933  0.0501  0.1478 -0.3055
    1DPPC   C4B15228  22.094  19.920   5.390  0.4578  0.1948 -0.3954
    1DPPC   NC315229  11.483  10.191   3.663 -0.5388 -0.2113 -0.1681
    1DPPC   PO415230  11.486  10.621   3.478 -0.0758  0.1289  0.0109
    1DPPC   GL115231  11.361  10.663   3.897  0.2184  0.0378  0.1888
    1DPPC   GL215232  11.609  10.740   4.063 -0.0126  0.1769  0.0060
    1DPPC   C1A15233  10.925  10.817   4.071  0.1120 -0.2404 -0.0421
    1DPPC   C2A15234  10.853  10.693   4.537  0.0367  0.0471  0.1586
    1DPPC   C3A15235  10.923  10.623   4.926  0.2948  0.2826 -0.1312
    1DPPC   C4A15236  10.487  10.479   5.102  0.2783  0.1883  0.0067
    1DPPC   C1B15237  11.510  11.000   4.372  0.0515 -0.1651 -0.0382
    1DPPC   C2B15238  11.267  10.960   4.725 -0.4052  0.0018  0.1235
    1DPPC   C3B15239  11.343  10.796   5.207  0.1042  0.0284 -0.0974
    1DPPC   C4B15240  11.304  10.597   5.624  0.0559 -0.1301  0.2659
    1DPPC   NC315241  26.621  20.622   2.408 -0.0867 -0.4501 -0.1132
    1DPPC   PO415242  26.767  20.501   2.831 -0.0669  0.1044 -0.1201
    1DPPC   GL115243  26.540  20.396   3.201  0.0268  0.0442  0.3635
    1DPPC   GL215244  26.207  20.302   3.089 -0.2033 -0.0166  0.0480
    1DPPC   C1A15245  26.423  20.428   3.550 -0.1275  0.1061  0.1061
    1DPPC   C2A15246  26.285  20.372   3.992 -0.0165 -0.0336  0.1782
    1DPPC   C3A15247  26.165  20.195   4.287 -0.1588 -0.0566  0.1048
    1DPPC   C4A15248  26.383  20.067   4.705  0.1095 -0.0425 -0.2579
    1DPPC   C1B15249  25.903  20.517   3.533  0.1148 -0.1752  0.0357
    1DPPC   C2B15250  25.676  20.369   3.838 -0.0276  0.1146  0.2813
    1DPPC   C3B15251  25.795  20.498   4.327 -0.2636 -0.1657 -0.1648
    1DPPC   C4B15252  25.841  20.965   4.495  0.1420  0.0359 -0.1223
    1DPPC   NC315253   8.342   8.014   3.203 -0.1202  0.0629 -0.0680
    1DPPC   PO415254   7.987   7.717   3.292  0.2874  0.1461 -0.1177
    1DPPC   GL115255   7.974   7.439   3.654 -0.0074 -0.2675  0.1254
    1DPPC   GL215256   8.108   7.690   3.786 -0.2665  0.1431 -0.1286
    1DPPC   C1A15257   7.921   7.104   3.981  0.2464  0.0831  0.0575
    1DPPC   C2A15258   7.854   7.050   4.341 -0.0371  0.0778 -0.1251
    1DPPC   C3A15259   7.780   6.893   4.788  0.0001  0.4699  0.1798
    1DPPC   C4A15260   7.615   6.909   5.250  0.1337 -0.0266  0.0689
    1DPPC   C1B15261   8.020   7.575   4.176 -0.0310  0.0435 -0.1962
    1DPPC   C2B15262   7.719   7.499   4.436  0.1740  0.0203  0.0646
    1DPPC   C3B15263   7.425   7.354   4.760  0.3457 -0.1213 -0.0153
    1DPPC   C4B15264   7.179   6.999   4.928 -0.0157  0.3885  0.0994
    1DPPC   NC315265   6.028  24.970   2.721 -0.3025 -0.1522 -0.1277
    1DPPC   PO415266   6.060  25.378   2.941 -0.2858 -0.1933 -0.0669
    1DPPC   GL115267   5.867  25.443   3.283 -0.0333 -0.3041 -0.1818
    1DPPC   GL215268   5.691  25.218   3.311 -0.1003  0.3414 -0.0196
    1DPPC   C1A15269   5.693  25.565   3.717 -0.0746  0.1940  0.3347
    1DPPC   C2A15270   5.745  25.416   4.129 -0.0475  0.1410 -0.2503
    1DPPC   C3A15271   5.753  25.734   4.439 -0.0711 -0.3056 -0.0522
    1DPPC   C4A15272   5.519  25.723   4.668 -0.1527 -0.1163 -0.0282
    1DPPC   C1B15273   5.452  25.061   3.551  0.2917 -0.0879 -0.0849
    1DPPC   C2B15274   5.322  25.124   3.932  0.2560 -0.4838 -0.0398
    1DPPC   C3B15275   5.412  25.193   4.432  0.0474  0.0277  0.1952
    1DPPC   C4B15276   5.780  25.254   4.647 -0.0491  0.0643  0.1763
    1DPPC   NC315277   9.469  10.122   3.332  0.1993 -0.0618 -0.0153
    1DPPC   PO415278   9.817  10.039   3.514 -0.2148  0.2610 -0.2548
    1DPPC   GL115279  10.059  10.079   3.777 -0.3508  0.1914  0.1048
    1DPPC   GL215280  10.026  10.451   3.840 -0.2189 -0.0976 -0.2936
    1DPPC   C1A15281  10.094  10.014   4.200  0.1143  0.1662 -0.0224
    1DPPC   C2A15282   9.984   9.993   4.574 -0.0776 -0.0111 -0.3187
    1DPPC   C3A15283   9.952  10.056   5.070  0.2664 -0.1083 -0.2005
    1DPPC   C4A15284  10.155  10.117   5.349  0.1120  0.1916  0.2324
    1DPPC   C1B15285  10.021  10.489   4.283 -0.2746 -0.0305  0.0320
    1DPPC   C2B15286   9.926  10.436   4.803 -0.0226  0.3333 -0.1056
    1DPPC   C3B15287   9.862  10.578   5.306  0.1951  0.0553 -0.0081
    1DPPC   C4B15288   9.705  10.911   5.383  0.5119 -0.1979 -0.0703
    1DPPC   NC315289  27.075  13.681   2.985 -0.0438  0.0684 -0.0809
    1DPPC   PO415290  27.531  13.822   3.173 -0.1120 -0.1441 -0.0705
    1DPPC   GL115291  27.568  14.005   3.556  0.0316 -0.1844 -0.1475
    1DPPC   GL215292  27.810  14.245   3.519  0.1673 -0.0895 -0.0364
    1DPPC   C1A15293  27.775  13.910   3.941 -0.0901 -0.4025  0.1744
    1DPPC   C2A15294  27.771  13.685   4.250 -0.2158 -0.1309  0.2589
    1DPPC   C3A15295  27.674  13.232   4.339 -0.5535 -0.2085  0.2159
    1DPPC   C4A15296  27.373  12.899   4.376 -0.0400  0.1454 -0.0283
    1DPPC   C1B15297  28.051  14.409   3.725 -0.1497  0.0501 -0.2691
    1DPPC   C2B15298   0.062  14.622   4.060 -0.0057  0.1977 -0.0312
    1DPPC   C3B15299  28.034  14.963   4.291  0.0191  0.2614  0.1136
    1DPPC   C4B15300  27.755  15.149   4.562 -0.0011  0.1065  0.0086
    1DPPC   NC315301   0.129  26.161   2.884  0.2770 -0.3563 -0.2063
    1DPPC   PO415302   0.400  25.853   2.883 -0.2875  0.1669 -0.0858
    1DPPC   GL115303   0.439  25.993   3.253 -0.1571  0.2558 -0.1743
    1DPPC   GL215304   0.275  26.198   3.340  0.0736 -0.1316  0.2099
    1DPPC   C1A15305   0.285  25.943   3.738  0.1874 -0.1673  0.1944
    1DPPC   C2A15306   0.238  25.870   4.152  0.0705  0.1069  0.0218
    1DPPC   C3A15307   0.187  25.560   4.364  0.1039  0.0205 -0.1200
    1DPPC   C4A15308  28.053  25.391   4.749 -0.1566 -0.0573  0.2636
    1DPPC   C1B15309   0.339  26.508   3.597 -0.1272  0.0266  0.1025
    1DPPC   C2B15310   0.288  26.859   3.820  0.2412  0.4897 -0.2898
    1DPPC   C3B15311   0.238  27.024   4.213 -0.4693  0.0211 -0.2447
    1DPPC   C4B15312   0.108  26.847   4.624  0.0261 -0.3204 -0.0353
    1DPPC   NC315313  16.820   3.096   3.618  0.0035  0.1209 -0.2019
    1DPPC   PO415314  16.545   3.054   3.912 -0.0115 -0.2125  0.2652
    1DPPC   GL115315  16.765   2.981   4.253  0.1174  0.0946  0.2890
    1DPPC   GL215316  17.106   2.861   4.239 -0.0688  0.0657 -0.0868
    1DPPC   C1A15317  16.834   3.048   4.672 -0.2153  0.3173  0.0468
    1DPPC   C2A15318  17.056   3.356   4.970  0.2299  0.2180 -0.1152
    1DPPC   C3A15319  17.278   3.475   5.277 -0.0526  0.2141 -0.0912
    1DPPC   C4A15320  17.539   3.605   5.582  0.2051  0.0674 -0.2073
    1DPPC   C1B15321  17.315   2.870   4.702  0.4590 -0.2247 -0.0735
    1DPPC   C2B15322  17.397   3.043   5.043  0.0477 -0.1034  0.2244
    1DPPC   C3B15323  17.796   3.211   5.307  0.2099 -0.1288 -0.1251
    1DPPC   C4B15324  18.119   2.955   5.484 -0.0457  0.0146 -0.0727
    1DPPC   NC315325  26.281   6.518   2.823 -0.0068 -0.2636 -0.0273
    1DPPC   PO415326  26.178   6.063   2.611  0.5011  0.0535  0.1992
    1DPPC   GL115327  26.139   6.087   3.085 -0.2022 -0.0325 -0.0001
    1DPPC   GL215328  25.899   6.408   3.154  0.0325  0.0121  0.2366
    1DPPC   C1A15329  26.252   6.115   3.453 -0.1725 -0.2105  0.0279
    1DPPC   C2A15330  26.187   6.209   3.869 -0.1713  0.3227 -0.1239
    1DPPC   C3A15331  26.303   6.372   4.270 -0.0559 -0.0585 -0.0236
    1DPPC   C4A15332  26.374   6.203   4.686 -0.1325 -0.2665 -0.1046
    1DPPC   C1B15333  25.755   6.332   3.508  0.0659 -0.0220 -0.3241
    1DPPC   C2B15334  25.787   6.424   4.085  0.0297 -0.1478 -0.0427
    1DPPC   C3B15335  25.867   6.300   4.545  0.2303  0.0933  0.5555
    1DPPC   C4B15336  25.912   5.873   4.796 -0.1130  0.2593  0.2320
    1DPPC   NC315337  23.927  12.683   2.715  0.0068  0.3555  0.1377
    1DPPC   PO415338  24.062  12.283   2.966 -0.0118  0.2791 -0.0336
    1DPPC   GL115339  24.084  12.244   3.350  0.0931  0.0569 -0.1559
    1DPPC   GL215340  24.417  12.218   3.389 -0.0799 -0.0337 -0.2812
    1DPPC   C1A15341  24.181  12.329   3.849 -0.0074  0.1727 -0.1905
    1DPPC   C2A15342  24.028  12.397   4.269 -0.0276  0.1303  0.2211
    1DPPC   C3A15343  23.795  12.504   4.666 -0.1109 -0.0033  0.1213
    1DPPC   C4A15344  23.316  12.497   4.477  0.0065 -0.0917 -0.0582
    1DPPC   C1B15345  24.661  12.270   3.859  0.1324  0.0288 -0.1134
    1DPPC   C2B15346  24.586  12.320   4.274  0.0896  0.0690 -0.0636
    1DPPC   C3B15347  24.760  12.420   4.589 -0.0070 -0.1434 -0.0458
    1DPPC   C4B15348  25.206  12.538   4.796 -0.1618  0.1671  0.2638
    1DPPC   NC315349   1.147  27.544   2.490 -0.2175 -0.1716  0.1123
    1DPPC   PO415350   1.180  27.404   3.050 -0.0191  0.0891  0.0423
    1DPPC   GL115351   1.329  27.277   3.475  0.1778  0.0214 -0.2655
    1DPPC   GL215352   1.190  27.595   3.692 -0.2590  0.3958 -0.0699
    1DPPC   C1A15353   1.185  27.050   3.779 -0.3399  0.1007  0.2524
    1DPPC   C2A15354   1.232  26.975   4.200 -0.0475 -0.0563 -0.0007
    1DPPC   C3A15355   1.397  27.005   4.617 -0.0829 -0.1422  0.0089
    1DPPC   C4A15356   1.503  26.793   5.070  0.0986  0.1821 -0.1923
    1DPPC   C1B15357   1.206  27.539   4.063 -0.1284  0.0403  0.3194
    1DPPC   C2B15358   1.538  27.464   4.346 -0.1379 -0.1490 -0.2347
    1DPPC   C3B15359   1.842  27.295   4.596 -0.5380  0.2499 -0.1975
    1DPPC   C4B15360   1.910  27.191   4.997  0.1252 -0.2566  0.1685
    1DPPC   NC315361   0.504  14.550   2.910  0.0819 -0.1068  0.2673
    1DPPC   PO415362   0.343  15.038   2.704  0.1920 -0.0223 -0.0075
    1DPPC   GL115363   0.284  15.011   3.181  0.1394 -0.0593  0.0563
    1DPPC   GL215364  28.063  14.924   3.381 -0.3096  0.4121 -0.0518
    1DPPC   C1A15365   0.269  15.195   3.550  0.2126  0.2534  0.0674
    1DPPC   C2A15366   0.140  15.327   3.905  0.0357  0.2096 -0.2461
    1DPPC   C3A15367   0.418  15.507   4.268 -0.1550 -0.2190  0.1218
    1DPPC   C4A15368   0.870  15.525   4.253  0.1588  0.0007  0.0931
    1DPPC   C1B15369  27.795  14.924   3.745  0.0457  0.0601 -0.0974
    1DPPC   C2B15370  27.582  14.826   4.079  0.2078 -0.0946 -0.0793
    1DPPC   C3B15371  27.476  14.663   4.493 -0.0005 -0.1483 -0.0344
    1DPPC   C4B15372  27.478  14.489   4.829  0.4840 -0.0343  0.0213
    1DPPC   NC315373  21.570   2.897   2.799 -0.3181 -0.0334 -0.0242
    1DPPC   PO415374  21.242   3.032   3.027 -0.1105  0.0494 -0.0892
    1DPPC   GL115375  21.167   3.126   3.460 -0.1486 -0.4471  0.1749
    1DPPC   GL215376  20.978   2.905   3.621  0.1862 -0.1766  0.0294
    1DPPC   C1A15377  21.320   3.128   3.973 -0.4158  0.1082  0.3315
    1DPPC   C2A15378  21.423   3.048   4.492  0.0563 -0.2369  0.3274
    1DPPC   C3A15379  21.730   2.927   4.755 -0.1336  0.0806 -0.0974
    1DPPC   C4A15380  22.165   2.636   4.768  0.0699  0.0391  0.0047
    1DPPC   C1B15381  20.855   3.006   4.014  0.1303 -0.1512 -0.0274
    1DPPC   C2B15382  20.937   3.042   4.517  0.1672  0.1113 -0.1146
    1DPPC   C3B15383  20.763   2.865   4.971 -0.1548 -0.0398  0.0514
    1DPPC   C4B15384  20.742   2.449   5.068  0.0798 -0.0685 -0.3280
    1DPPC   NC315385   6.513  27.703   2.515 -0.0416 -0.0579  0.0098
    1DPPC   PO415386   6.959  27.722   2.524 -0.0402 -0.3112 -0.2286
    1DPPC   GL115387   6.883  27.849   2.893  0.1535 -0.1448  0.1281
    1DPPC   GL215388   6.746  27.600   3.071  0.0293 -0.3822 -0.1906
    1DPPC   C1A15389   6.832  28.047   3.282 -0.0044 -0.1666 -0.2648
    1DPPC   C2A15390   6.701  28.013   3.693  0.2328  0.1320  0.0094
    1DPPC   C3A15391   6.639   0.054   4.108  0.1009  0.0005 -0.0453
    1DPPC   C4A15392   6.869   0.410   4.384 -0.0630 -0.0226  0.0787
    1DPPC   C1B15393   6.792  27.540   3.443 -0.0550 -0.4051 -0.0222
    1DPPC   C2B15394   6.596  27.518   3.781 -0.0502  0.1030  0.0933
    1DPPC   C3B15395   6.855  27.654   4.038  0.0059  0.1660  0.0755
    1DPPC   C4B15396   6.976  27.544   4.545  0.1772 -0.0769  0.1592
    1DPPC   NC315397  23.343  21.289   3.273  0.2535  0.0237  0.0809
    1DPPC   PO415398  23.003  20.986   3.317  0.2012  0.0926 -0.0645
    1DPPC   GL115399  22.834  20.815   3.743 -0.0829 -0.0627  0.0442
    1DPPC   GL215400  23.013  20.562   3.814  0.2797 -0.1561  0.0391
    1DPPC   C1A15401  22.429  20.800   4.045  0.2431 -0.0330  0.0802
    1DPPC   C2A15402  22.354  20.847   4.414 -0.0282  0.2320 -0.1303
    1DPPC   C3A15403  22.208  20.729   4.876  0.2094  0.0690 -0.1100
    1DPPC   C4A15404  22.202  20.366   5.170 -0.0833  0.1536 -0.3157
    1DPPC   C1B15405  23.251  20.635   4.088 -0.0879  0.2672 -0.1607
    1DPPC   C2B15406  23.453  20.581   4.311 -0.2549 -0.0858 -0.2284
    1DPPC   C3B15407  23.478  20.564   4.743 -0.0997 -0.0168  0.0807
    1DPPC   C4B15408  23.173  20.564   5.071  0.0060 -0.1368 -0.1128
    1DPPC   NC315409   3.973   0.854   2.228 -0.1405  0.2856  0.2271
    1DPPC   PO415410   4.035   1.309   2.545 -0.0536  0.1898  0.4700
    1DPPC   GL115411   3.934   1.404   2.990 -0.0154  0.0041  0.1942
    1DPPC   GL215412   3.759   1.722   3.121  0.4494 -0.0731 -0.1337
    1DPPC   C1A15413   3.800   1.232   3.371  0.2528 -0.0107  0.1415
    1DPPC   C2A15414   3.620   1.171   3.728 -0.0924 -0.2806  0.2854
    1DPPC   C3A15415   3.455   0.904   4.084 -0.0295 -0.1068  0.2044
    1DPPC   C4A15416   3.589   0.649   4.460 -0.0015 -0.0207  0.0543
    1DPPC   C1B15417   3.603   1.741   3.524  0.0668 -0.2095  0.0063
    1DPPC   C2B15418   3.347   1.694   3.954  0.1971 -0.3686  0.1936
    1DPPC   C3B15419   3.355   1.391   4.198  0.0126 -0.1208  0.1254
    1DPPC   C4B15420   3.386   1.092   4.642  0.2612  0.0523  0.0169
    1DPPC   NC315421  27.258  11.335   3.354 -0.0721 -0.1156 -0.0477
    1DPPC   PO415422  27.191  11.787   3.207  0.1283  0.3297 -0.2826
    1DPPC   GL115423  27.417  11.872   3.544 -0.0640 -0.0045 -0.2164
    1DPPC   GL215424  27.297  11.776   3.760  0.1689  0.0183 -0.4489
    1DPPC   C1A15425  27.493  12.256   3.890 -0.1598 -0.0613  0.0303
    1DPPC   C2A15426  27.494  12.326   4.268 -0.1893  0.0316 -0.1251
    1DPPC   C3A15427  27.810  12.242   4.629  0.2015  0.0077 -0.0713
    1DPPC   C4A15428  27.829  11.952   4.915 -0.0701 -0.1538 -0.3280
    1DPPC   C1B15429  27.196  11.838   4.052 -0.2864  0.1717  0.0728
    1DPPC   C2B15430  26.972  12.144   4.279  0.2587 -0.1118 -0.0518
    1DPPC   C3B15431  27.067  12.493   4.538 -0.3048 -0.0097  0.5878
    1DPPC   C4B15432  27.038  12.841   4.813  0.2717  0.0427  0.3653
    1DPPC   NC315433  11.677   8.090   3.760 -0.1583  0.0503  0.2667
    1DPPC   PO415434  12.077   8.275   3.845 -0.1390 -0.0069 -0.0849
    1DPPC   GL115435  11.995   8.348   4.250 -0.0465 -0.2956 -0.0951
    1DPPC   GL215436  11.633   8.270   4.264  0.1101  0.0239 -0.3233
    1DPPC   C1A15437  12.207   8.158   4.558 -0.1037 -0.2227  0.1160
    1DPPC   C2A15438  12.208   8.034   4.985  0.2396  0.0324 -0.0447
    1DPPC   C3A15439  12.529   7.949   5.195  0.0135 -0.0505 -0.2800
    1DPPC   C4A15440  12.848   8.059   5.180  0.0538  0.0126 -0.0519
    1DPPC   C1B15441  11.569   8.294   4.627  0.3741 -0.0741  0.0134
    1DPPC   C2B15442  11.515   8.412   5.028  0.0591 -0.0260 -0.2740
    1DPPC   C3B15443  11.446   8.309   5.435 -0.0534  0.4426 -0.2407
    1DPPC   C4B15444  11.749   8.173   5.772 -0.2250  0.0231 -0.2061
    1DPPC   NC315445   2.001  24.846   2.515  0.1846 -0.3885  0.2615
    1DPPC   PO415446   1.841  25.235   2.652  0.0161 -0.2231 -0.1724
    1DPPC   GL115447   1.791  24.904   2.934 -0.0055  0.1815  0.2703
    1DPPC   GL215448   2.059  24.689   2.990 -0.1136 -0.1490  0.0314
    1DPPC   C1A15449   1.596  24.727   3.226  0.1035  0.0698 -0.2165
    1DPPC   C2A15450   1.583  24.748   3.644  0.0090 -0.1918 -0.2808
    1DPPC   C3A15451   1.460  24.751   4.055 -0.1488  0.3069 -0.1916
    1DPPC   C4A15452   1.596  24.686   4.549  0.0172 -0.0185 -0.1738
    1DPPC   C1B15453   2.134  24.656   3.370 -0.1834  0.0247 -0.0111
    1DPPC   C2B15454   2.116  24.803   3.738  0.0339 -0.1845  0.3260
    1DPPC   C3B15455   1.980  24.855   4.064  0.0867  0.0595  0.2480
    1DPPC   C4B15456   2.201  24.859   4.557 -0.2208 -0.0708  0.2330
    1DPPC   NC315457   4.453  25.607   3.002 -0.1436 -0.0648 -0.0870
    1DPPC   PO415458   4.893  25.523   3.025  0.3490 -0.0216 -0.1303
    1DPPC   GL115459   5.276  25.597   3.258 -0.3065  0.2727  0.1061
    1DPPC   GL215460   5.167  25.458   3.565 -0.4254 -0.0397 -0.1622
    1DPPC   C1A15461   5.403  25.936   3.638  0.1114  0.1852  0.0572
    1DPPC   C2A15462   5.532  26.052   4.056 -0.2620  0.3988 -0.1638
    1DPPC   C3A15463   5.328  26.152   4.515  0.1220  0.1119  0.1148
    1DPPC   C4A15464   4.997  26.367   4.725 -0.0168  0.2407  0.2075
    1DPPC   C1B15465   5.205  25.582   3.960  0.0713 -0.0275  0.1229
    1DPPC   C2B15466   5.067  25.691   4.403 -0.0869 -0.0087 -0.1390
    1DPPC   C3B15467   4.861  25.869   4.871 -0.2781  0.1728 -0.2122
    1DPPC   C4B15468   4.655  25.974   5.272  0.2715  0.5115  0.1688
    1DPPC   NC315469  24.474  20.678   2.603 -0.1962 -0.3221 -0.0270
    1DPPC   PO415470  24.254  20.676   2.951  0.0021 -0.1714 -0.0707
    1DPPC   GL115471  24.248  20.632   3.364 -0.2155  0.1464  0.0628
    1DPPC   GL215472  23.965  20.810   3.366  0.1555 -0.1602  0.0690
    1DPPC   C1A15473  24.430  20.870   3.716  0.0628  0.2577  0.3100
    1DPPC   C2A15474  24.671  20.661   4.096 -0.1883 -0.3741 -0.2114
    1DPPC   C3A15475  25.008  20.604   4.471  0.3752 -0.1885 -0.1428
    1DPPC   C4A15476  25.004  20.861   4.781  0.1690 -0.5089  0.2472
    1DPPC   C1B15477  23.852  21.064   3.698 -0.0598 -0.0591  0.0779
    1DPPC   C2B15478  23.854  21.440   3.985 -0.1978  0.1530 -0.1283
    1DPPC   C3B15479  23.552  21.530   4.357 -0.1144 -0.1309 -0.1957
    1DPPC   C4B15480  23.240  21.231   4.632  0.1678 -0.1040 -0.1181
    1DPPC   NC315481  26.835   9.926   2.594 -0.0184 -0.1810 -0.3221
    1DPPC   PO415482  26.787   9.992   3.107 -0.2192  0.1205 -0.1643
    1DPPC   GL115483  26.502  10.119   3.327  0.3123 -0.0397 -0.3959
    1DPPC   GL215484  26.525  10.404   3.384  0.0515  0.1118 -0.0380
    1DPPC   C1A15485  26.409  10.015   3.670  0.0262  0.2927  0.1931
    1DPPC   C2A15486  26.486  10.071   4.017 -0.0731  0.1803 -0.1358
    1DPPC   C3A15487  26.373  10.167   4.483  0.0589  0.0958 -0.2003
    1DPPC   C4A15488  26.344  10.118   4.953  0.0568 -0.2654  0.2041
    1DPPC   C1B15489  26.578  10.709   3.852  0.1131 -0.1111 -0.2015
    1DPPC   C2B15490  26.699  10.593   4.246 -0.0301  0.0045 -0.4390
    1DPPC   C3B15491  26.838  10.330   4.639 -0.1442  0.0661 -0.2331
    1DPPC   C4B15492  26.839   9.812   4.710  0.3331  0.1548 -0.0556
    1DPPC   NC315493   3.636  21.694   3.023  0.2425 -0.0314  0.1292
    1DPPC   PO415494   3.198  21.860   3.143 -0.2563  0.3158 -0.1710
    1DPPC   GL115495   3.252  21.906   3.542  0.0246 -0.0349 -0.2971
    1DPPC   GL215496   3.353  21.625   3.761  0.1971 -0.0967 -0.1233
    1DPPC   C1A15497   3.342  22.149   4.039 -0.1194 -0.2466 -0.2307
    1DPPC   C2A15498   3.581  22.406   4.360 -0.0248  0.1414 -0.2027
    1DPPC   C3A15499   3.811  22.736   4.628  0.2943  0.0751 -0.0955
    1DPPC   C4A15500   3.998  23.079   4.925  0.1367 -0.1083  0.1181
    1DPPC   C1B15501   3.257  21.354   4.026  0.0174 -0.0577 -0.0175
    1DPPC   C2B15502   3.426  21.188   4.355  0.1885  0.2247  0.1128
    1DPPC   C3B15503   3.427  20.853   4.590 -0.0743 -0.0761 -0.2170
    1DPPC   C4B15504   3.583  20.481   4.743  0.0511  0.0619 -0.0257
    1DIPC   NC315505  11.902  14.328   3.608 -0.1566  0.2151  0.1969
    1DIPC   PO415506  11.791  14.597   4.025 -0.0817  0.2311 -0.1284
    1DIPC   GL115507  11.940  14.737   4.409 -0.0134 -0.1354 -0.0692
    1DIPC   GL215508  11.756  14.527   4.509 -0.0964 -0.2718  0.1822
    1DIPC   C1A15509  12.055  14.886   4.737  0.0658  0.0217 -0.4132
    1DIPC   D2A15510  12.386  14.763   4.853  0.0661 -0.1645 -0.2178
    1DIPC   D3A15511  12.089  14.398   4.825 -0.1396  0.0324  0.0190
    1DIPC   C4A15512  12.223  14.024   4.833 -0.0415  0.2242 -0.1344
    1DIPC   C1B15513  11.586  14.602   4.911 -0.0900 -0.2959  0.2376
    1DIPC   D2B15514  11.820  14.781   5.223  0.0385  0.3117  0.4298
    1DIPC   D3B15515  12.100  14.533   5.395 -0.0001  0.1924 -0.1475
    1DIPC   C4B15516  12.237  14.421   5.831  0.1309  0.0148 -0.1076
    1DIPC   NC315517  19.337   6.628   3.617 -0.0265  0.3231  0.0335
    1DIPC   PO415518  19.267   6.191   3.628  0.0615  0.1895  0.3473
    1DIPC   GL115519  19.338   5.898   3.876 -0.0883 -0.3212 -0.1475
    1DIPC   GL215520  19.108   5.885   4.172  0.3928 -0.2179  0.1660
    1DIPC   C1A15521  19.364   5.509   4.011 -0.2562  0.2268 -0.0868
    1DIPC   D2A15522  19.515   5.240   4.418  0.0526 -0.1130  0.2319
    1DIPC   D3A15523  19.836   5.452   4.578  0.0405  0.0946 -0.1020
    1DIPC   C4A15524  20.045   5.353   5.047 -0.2129  0.1355  0.0210
    1DIPC   C1B15525  19.064   5.605   4.585 -0.1349 -0.1971  0.1908
    1DIPC   D2B15526  18.771   5.694   4.930 -0.2398 -0.4230 -0.0201
    1DIPC   D3B15527  18.348   5.544   5.110  0.2978 -0.3000 -0.3650
    1DIPC   C4B15528  18.328   5.222   5.429  0.4727  0.2086  0.3701
    1DIPC   NC315529   4.802  25.908   2.733 -0.0496  0.3782 -0.0754
    1DIPC   PO415530   4.525  26.089   2.915  0.1775 -0.0064  0.0194
    1DIPC   GL115531   4.224  26.156   3.199 -0.0169 -0.0255 -0.2732
    1DIPC   GL215532   4.476  25.877   3.395  0.4023 -0.0708 -0.0993
    1DIPC   C1A15533   3.929  26.135   3.587  0.1485  0.0403 -0.4506
    1DIPC   D2A15534   3.624  25.855   3.684  0.2539 -0.0317  0.2131
    1DIPC   D3A15535   3.333  26.112   3.788 -0.0398  0.1170 -0.0041
    1DIPC   C4A15536   2.971  26.000   3.766 -0.1243  0.0832 -0.0263
    1DIPC   C1B15537   4.437  26.175   3.794  0.0629  0.1544 -0.3144
    1DIPC   D2B15538   4.391  26.576   3.943  0.0967  0.0909 -0.1088
    1DIPC   D3B15539   4.355  26.551   4.431 -0.3948 -0.6521 -0.0734
    1DIPC   C4B15540   4.250  26.104   4.435  0.0654  0.1120  0.0591
    1DIPC   NC315541  18.446   7.186   3.899  0.2278 -0.0702 -0.2998
    1DIPC   PO415542  18.827   7.055   3.809 -0.2047  0.0609  0.1120
    1DIPC   GL115543  18.848   7.161   4.202  0.2099  0.2013 -0.1894
    1DIPC   GL215544  18.554   7.047   4.358  0.1602  0.0346  0.0468
    1DIPC   C1A15545  18.857   7.430   4.509  0.2111  0.2214  0.1864
    1DIPC   D2A15546  18.835   7.760   4.659 -0.0309  0.3249  0.0168
    1DIPC   D3A15547  18.909   7.532   5.045 -0.1883  0.2517 -0.0290
    1DIPC   C4A15548  19.052   7.694   5.267 -0.3363  0.0739 -0.2323
    1DIPC   C1B15549  18.515   6.635   4.613 -0.1259  0.2017  0.1132
    1DIPC   D2B15550  18.648   6.545   5.015 -0.1648 -0.0893  0.2382
    1DIPC   D3B15551  19.155   6.492   5.036  0.0603  0.0414  0.3013
    1DIPC   C4B15552  19.549   6.622   5.297  0.0603  0.1159  0.1304
    1DIPC   NC315553  21.633   9.218   3.203  0.2624  0.1143  0.0286
    1DIPC   PO415554  22.086   9.274   3.194  0.0728  0.1431  0.4974
    1DIPC   GL115555  22.295   9.202   3.549 -0.1452 -0.2168  0.1656
    1DIPC   GL215556  22.589   9.096   3.673 -0.1174  0.1453 -0.3508
    1DIPC   C1A15557  21.903   9.331   4.017 -0.0107  0.0486 -0.1187
    1DIPC   D2A15558  21.862   9.430   4.439 -0.2170  0.2271  0.0388
    1DIPC   D3A15559  21.896   8.980   4.499  0.0293  0.1306 -0.2276
    1DIPC   C4A15560  22.134   8.672   4.860  0.0391 -0.0306  0.3921
    1DIPC   C1B15561  22.388   9.151   4.117  0.1861 -0.0192  0.2294
    1DIPC   D2B15562  22.308   9.313   4.504 -0.0903 -0.1714 -0.1081
    1DIPC   D3B15563  22.172   9.191   4.871  0.1826 -0.1669 -0.1215
    1DIPC   C4B15564  22.508   8.992   4.897  0.0220  0.2360 -0.0214
    1DIPC   NC315565  19.590  11.387   3.245 -0.1353  0.3621 -0.1247
    1DIPC   PO415566  19.808  10.974   3.430 -0.2483  0.2039 -0.0714
    1DIPC   GL115567  19.938  11.337   3.651  0.0485  0.0877 -0.0046
    1DIPC   GL215568  19.625  11.485   3.792 -0.0926  0.1530  0.0115
    1DIPC   C1A15569  20.253  11.256   3.957 -0.1161 -0.0177 -0.1415
    1DIPC   D2A15570  20.398  11.388   4.343  0.0952  0.0375  0.2110
    1DIPC   D3A15571  20.602  10.969   4.335 -0.0788  0.2361  0.0933
    1DIPC   C4A15572  20.843  10.745   4.013 -0.0070  0.1015 -0.2885
    1DIPC   C1B15573  19.695  11.018   4.020 -0.1519 -0.1240 -0.1505
    1DIPC   D2B15574  19.566  10.662   4.129 -0.1220  0.1183 -0.0630
    1DIPC   D3B15575  19.940  10.537   3.886  0.0996  0.1825 -0.0961
    1DIPC   C4B15576  20.249  10.655   3.899 -0.0997  0.0675  0.1935
    1DIPC   NC315577  27.750  23.349   2.745  0.1631 -0.1508  0.1037
    1DIPC   PO415578  27.461  23.009   2.911 -0.0395 -0.3963  0.0141
    1DIPC   GL115579  27.691  22.898   3.228  0.1771 -0.0733  0.0077
    1DIPC   GL215580  27.909  23.195   3.301  0.1190  0.1704  0.1679
    1DIPC   C1A15581  27.594  22.990   3.679 -0.2359  0.0633  0.0370
    1DIPC   D2A15582  27.440  23.178   4.155  0.0691  0.2632 -0.0224
    1DIPC   D3A15583  27.429  23.687   4.133  0.0345 -0.2174 -0.2155
    1DIPC   C4A15584  27.192  23.852   3.755  0.0463 -0.0974 -0.3349
    1DIPC   C1B15585   0.022  23.075   3.651  0.0688 -0.0483 -0.3458
    1DIPC   D2B15586   0.078  23.102   4.039 -0.0062 -0.1798 -0.2394
    1DIPC   D3B15587   0.459  22.865   4.278  0.2684 -0.0096  0.1289
    1DIPC   C4B15588   0.440  22.428   4.572 -0.1790 -0.1848  0.1126
    1DIPC   NC315589  28.001  18.278   2.683 -0.0320  0.0729 -0.0070
    1DIPC   PO415590   0.077  17.950   2.856  0.0544 -0.1065  0.0054
    1DIPC   GL115591   0.074  17.773   3.169 -0.1314  0.1218 -0.0741
    1DIPC   GL215592   0.379  17.722   3.323 -0.1118  0.2815 -0.0083
    1DIPC   C1A15593   0.112  17.740   3.721 -0.0090  0.0982  0.0086
    1DIPC   D2A15594   0.541  17.780   3.889 -0.0054 -0.0063  0.2077
    1DIPC   D3A15595   0.353  17.986   4.157  0.4011  0.4400 -0.0351
    1DIPC   C4A15596   0.165  18.038   4.534  0.1376 -0.0006 -0.0720
    1DIPC   C1B15597   0.423  18.122   3.532 -0.1280  0.2295 -0.2062
    1DIPC   D2B15598   0.429  18.419   3.936 -0.0749 -0.2186 -0.0200
    1DIPC   D3B15599  28.115  18.418   4.063  0.1252  0.1693 -0.3249
    1DIPC   C4B15600  27.896  18.432   4.481 -0.0342  0.2907 -0.0362
    1DIPC   NC315601   5.280   4.495   2.090  0.0354  0.0550 -0.0884
    1DIPC   PO415602   5.307   4.923   1.969 -0.1397  0.0111 -0.2515
    1DIPC   GL115603   5.073   5.218   2.213 -0.0884 -0.0538 -0.0354
    1DIPC   GL215604   5.117   5.477   2.292 -0.1873 -0.1159 -0.4047
    1DIPC   C1A15605   4.804   5.197   2.585  0.2998  0.0067 -0.0349
    1DIPC   D2A15606   4.531   5.457   2.858 -0.0046  0.0894 -0.0611
    1DIPC   D3A15607   4.359   5.149   3.088  0.3039  0.1612  0.3324
    1DIPC   C4A15608   4.287   5.061   3.521  0.0293 -0.2573 -0.1226
    1DIPC   C1B15609   4.880   5.706   2.518 -0.2964 -0.2550  0.0269
    1DIPC   D2B15610   4.846   5.828   2.903 -0.4075  0.1730  0.0663
    1DIPC   D3B15611   4.525   5.766   3.223  0.1839 -0.2552 -0.0286
    1DIPC   C4B15612   4.185   5.542   3.408  0.0767  0.2610 -0.0835
    1DIPC   NC315613  22.817  23.316   2.823  0.0873  0.3304 -0.1624
    1DIPC   PO415614  23.177  23.532   3.075 -0.0371  0.0232 -0.2215
    1DIPC   GL115615  23.069  23.431   3.555 -0.0314 -0.0216 -0.2444
    1DIPC   GL215616  22.867  23.622   3.733 -0.0753 -0.2331 -0.2083
    1DIPC   C1A15617  23.095  23.260   4.041 -0.2836  0.1878 -0.0775
    1DIPC   D2A15618  23.242  23.175   4.411  0.3480 -0.3136  0.0605
    1DIPC   D3A15619  23.129  23.546   4.486 -0.0652 -0.0153  0.0030
    1DIPC   C4A15620  22.802  23.796   4.431 -0.1467 -0.1036  0.0371
    1DIPC   C1B15621  23.175  23.944   4.011  0.0709  0.0601  0.0308
    1DIPC   D2B15622  23.294  24.036   4.385  0.3673 -0.4355 -0.2137
    1DIPC   D3B15623  23.313  23.964   4.819  0.0596 -0.2391  0.0028
    1DIPC   C4B15624  22.935  23.675   4.984 -0.0209  0.1134  0.0138
    1DIPC   NC315625  12.481  16.681   3.469 -0.0359 -0.0661  0.2321
    1DIPC   PO415626  12.149  16.663   3.745 -0.0129 -0.1387  0.2807
    1DIPC   GL115627  11.931  16.485   4.102 -0.2852 -0.2772 -0.2764
    1DIPC   GL215628  11.617  16.286   4.123 -0.2129 -0.1794 -0.1363
    1DIPC   C1A15629  11.930  16.555   4.570 -0.2192  0.0842 -0.0875
    1DIPC   D2A15630  11.779  16.352   4.993  0.3169 -0.2373  0.3262
    1DIPC   D3A15631  11.337  16.148   5.071 -0.1566  0.1022 -0.1629
    1DIPC   C4A15632  11.207  16.129   5.509 -0.0316  0.1279 -0.1487
    1DIPC   C1B15633  11.577  16.103   4.478  0.2960 -0.1987 -0.3479
    1DIPC   D2B15634  11.684  15.856   4.841  0.3258 -0.2943  0.1947
    1DIPC   D3B15635  11.804  15.684   5.180  0.0575 -0.2940  0.1876
    1DIPC   C4B15636  12.086  15.753   5.542 -0.1052 -0.0686  0.4750
    1DIPC   NC315637  21.778  12.073   3.302 -0.0932 -0.1262 -0.0105
    1DIPC   PO415638  22.045  12.376   3.327  0.1055  0.1467 -0.1973
    1DIPC   GL115639  21.810  12.450   3.699 -0.0079  0.0682  0.0033
    1DIPC   GL215640  21.579  12.677   3.760 -0.0524  0.1789 -0.1564
    1DIPC   C1A15641  21.887  12.688   4.162  0.3255  0.1060 -0.1367
    1DIPC   D2A15642  21.656  12.606   4.532 -0.2562  0.2115 -0.3658
    1DIPC   D3A15643  21.723  12.944   4.737 -0.0841 -0.3651  0.0570
    1DIPC   C4A15644  21.878  13.231   4.506  0.1101  0.1783  0.3019
    1DIPC   C1B15645  21.252  12.627   4.105  0.1045  0.0288  0.1164
    1DIPC   D2B15646  21.006  12.948   4.315 -0.0623 -0.0534  0.0095
    1DIPC   D3B15647  21.130  12.645   4.570 -0.1432  0.4173  0.0849
    1DIPC   C4B15648  20.880  12.311   4.671  0.3008 -0.2031 -0.1943
    1DIPC   NC315649  28.069  22.543   2.859 -0.0241 -0.0809 -0.2168
    1DIPC   PO415650  27.977  22.907   2.801  0.1332  0.1347  0.0331
    1DIPC   GL115651   0.115  22.870   3.181 -0.1683 -0.2322 -0.0269
    1DIPC   GL215652   0.059  22.640   3.363 -0.1111  0.0043  0.2532
    1DIPC   C1A15653   0.541  22.847   3.395 -0.1904  0.1251 -0.2895
    1DIPC   D2A15654   0.702  22.953   3.832 -0.1859  0.0377  0.1002
    1DIPC   D3A15655   1.057  23.019   3.618 -0.0995  0.0830  0.1406
    1DIPC   C4A15656   1.094  23.444   3.531 -0.0877  0.2637  0.1877
    1DIPC   C1B15657   0.262  22.645   3.779 -0.0294  0.2651 -0.0521
    1DIPC   D2B15658   0.106  22.494   4.238 -0.4957  0.0639 -0.1160
    1DIPC   D3B15659   0.045  22.810   4.528  0.2641  0.3010 -0.2003
    1DIPC   C4B15660  27.829  23.245   4.501  0.0426  0.4274 -0.0803
    1DIPC   NC315661  22.927   6.667   2.356  0.1315 -0.0515 -0.3346
    1DIPC   PO415662  22.529   6.808   2.361  0.1575  0.0906  0.0044
    1DIPC   GL115663  22.373   6.687   2.829  0.1278 -0.0428 -0.0382
    1DIPC   GL215664  22.418   6.984   3.103 -0.0783 -0.2068  0.2188
    1DIPC   C1A15665  22.370   6.487   3.138 -0.1237  0.2919  0.0557
    1DIPC   D2A15666  22.090   6.259   3.244 -0.1090 -0.2752 -0.0665
    1DIPC   D3A15667  22.310   6.133   3.581 -0.0518  0.1015 -0.0498
    1DIPC   C4A15668  22.239   6.334   3.966  0.1841 -0.2351 -0.2022
    1DIPC   C1B15669  22.437   7.175   3.570 -0.1474 -0.0730  0.0047
    1DIPC   D2B15670  22.462   6.823   3.813  0.1736  0.4239 -0.2159
    1DIPC   D3B15671  22.277   6.664   3.613  0.1916 -0.0366  0.0335
    1DIPC   C4B15672  22.037   6.876   3.463 -0.2558 -0.0899  0.2612
    1DIPC   NC315673  19.027   9.049   3.733 -0.3206 -0.1223 -0.2031
    1DIPC   PO415674  19.012   8.525   3.853 -0.0657  0.1698  0.3164
    1DIPC   GL115675  18.926   8.632   4.309 -0.1453  0.2094  0.0747
    1DIPC   GL215676  19.090   8.829   4.533 -0.1743 -0.2136 -0.2167
    1DIPC   C1A15677  18.687   8.653   4.729  0.2305  0.3826 -0.0213
    1DIPC   D2A15678  18.693   9.023   5.000 -0.0018 -0.2911 -0.2237
    1DIPC   D3A15679  18.293   9.046   4.797 -0.0800  0.1427  0.1939
    1DIPC   C4A15680  17.813   8.846   4.779 -0.0718  0.1838 -0.0423
    1DIPC   C1B15681  19.120   8.754   4.965  0.2821  0.2088 -0.0527
    1DIPC   D2B15682  18.865   8.550   5.291  0.2649  0.0894  0.2078
    1DIPC   D3B15683  19.279   8.654   5.475  0.0250 -0.1189  0.0576
    1DIPC   C4B15684  19.714   8.607   5.544  0.0009 -0.0186 -0.0260
    1DIPC   NC315685   5.614  18.585   3.914 -0.1299 -0.2108  0.1249
    1DIPC   PO415686   5.241  18.713   3.627 -0.1151 -0.1839  0.3422
    1DIPC   GL115687   5.146  18.639   4.043 -0.2007  0.0425  0.1989
    1DIPC   GL215688   5.289  18.394   4.232  0.1535  0.1746 -0.0843
    1DIPC   C1A15689   5.164  18.757   4.512 -0.3965  0.4063 -0.0090
    1DIPC   D2A15690   5.280  18.637   4.980  0.0213  0.0719  0.0203
    1DIPC   D3A15691   5.653  18.377   5.100 -0.0887 -0.2183 -0.2670
    1DIPC   C4A15692   5.759  17.991   5.159  0.3330  0.0509 -0.0854
    1DIPC   C1B15693   5.202  18.249   4.620  0.3255 -0.3772  0.1660
    1DIPC   D2B15694   5.191  18.132   5.114 -0.0875  0.1428  0.1111
    1DIPC   D3B15695   5.335  18.378   5.460 -0.2337  0.0740  0.3736
    1DIPC   C4B15696   5.358  18.910   5.399  0.0257  0.0137 -0.1753
    1DIPC   NC315697   2.776  12.184   3.022  0.0804  0.3601  0.3137
    1DIPC   PO415698   2.823  11.971   3.410  0.0634  0.1409  0.0090
    1DIPC   GL115699   2.899  12.116   3.775 -0.2981  0.1073  0.2357
    1DIPC   GL215700   2.667  12.237   3.984  0.1737  0.2280 -0.0381
    1DIPC   C1A15701   3.131  12.338   4.212 -0.0314 -0.1146  0.1652
    1DIPC   D2A15702   3.328  12.558   4.604 -0.1533 -0.1757 -0.1750
    1DIPC   D3A15703   3.626  12.321   4.900 -0.3799 -0.2085 -0.0162
    1DIPC   C4A15704   3.987  12.455   5.052  0.0642  0.2709 -0.0008
    1DIPC   C1B15705   2.644  12.179   4.416  0.3330  0.3978 -0.0639
    1DIPC   D2B15706   2.803  12.476   4.644 -0.1153 -0.2973 -0.2948
    1DIPC   D3B15707   2.484  12.671   4.749  0.0740 -0.2773  0.0293
    1DIPC   C4B15708   2.336  13.186   4.987 -0.2108  0.0027  0.1839
    1DIPC   NC315709   0.291  10.064   2.731 -0.1483 -0.1114 -0.0251
    1DIPC   PO415710   0.603   9.715   2.734 -0.4452  0.0515  0.2426
    1DIPC   GL115711   0.592   9.548   3.137  0.2118 -0.4956 -0.4935
    1DIPC   GL215712   0.702   9.233   3.130 -0.0903  0.4019 -0.1418
    1DIPC   C1A15713   0.541   9.463   3.511  0.4386 -0.2783  0.1824
    1DIPC   D2A15714   0.282   9.647   3.818 -0.0082 -0.1988  0.0981
    1DIPC   D3A15715   0.579   9.628   4.136 -0.1957  0.0924  0.1252
    1DIPC   C4A15716   0.375   9.564   4.579  0.2439 -0.1961  0.1506
    1DIPC   C1B15717   1.036   9.339   3.388  0.1476  0.1346  0.1676
    1DIPC   D2B15718   0.954   9.488   3.782 -0.1301 -0.1038  0.1935
    1DIPC   D3B15719   0.690   9.919   3.721  0.0511 -0.0298 -0.3752
    1DIPC   C4B15720   0.648  10.323   3.920 -0.0481  0.0113  0.2198
    1DIPC   NC315721  14.443   5.980   3.231 -0.0990 -0.0895  0.3596
    1DIPC   PO415722  14.869   5.873   3.215 -0.0716  0.0329  0.2433
    1DIPC   GL115723  14.976   6.081   3.608  0.4156  0.1243  0.1923
    1DIPC   GL215724  14.753   6.310   3.708 -0.3240 -0.4068  0.0841
    1DIPC   C1A15725  15.049   5.826   4.036  0.1787 -0.0691  0.3624
    1DIPC   D2A15726  15.165   5.421   4.231  0.1254 -0.0507  0.1881
    1DIPC   D3A15727  15.212   5.295   4.636 -0.1298 -0.4529 -0.2440
    1DIPC   C4A15728  15.008   5.492   4.997 -0.2628  0.0249 -0.0767
    1DIPC   C1B15729  14.897   6.220   4.233  0.1704  0.0972  0.0190
    1DIPC   D2B15730  14.870   6.310   4.630  0.0659  0.2915  0.2015
    1DIPC   D3B15731  14.917   5.786   4.524 -0.1099  0.1811 -0.1732
    1DIPC   C4B15732  15.268   5.780   4.559  0.1411  0.0879  0.0054
    1DIPC   NC315733  17.832  11.309   3.659 -0.5528  0.0147  0.3319
    1DIPC   PO415734  18.258  11.285   3.720  0.0767 -0.1151 -0.0808
    1DIPC   GL115735  18.143  11.337   4.119 -0.1602 -0.0956 -0.2397
    1DIPC   GL215736  18.205  11.195   4.476 -0.1481 -0.1709  0.0116
    1DIPC   C1A15737  18.285  11.701   4.385  0.0006  0.2068  0.2557
    1DIPC   D2A15738  18.450  12.016   4.649  0.2050  0.0542 -0.0692
    1DIPC   D3A15739  18.852  12.112   4.692 -0.1957 -0.1106  0.0173
    1DIPC   C4A15740  19.223  12.033   4.392  0.0961  0.3304  0.0579
    1DIPC   C1B15741  18.141  11.627   4.848 -0.6338 -0.0676 -0.0772
    1DIPC   D2B15742  18.501  11.718   5.060  0.2959  0.0419 -0.1196
    1DIPC   D3B15743  18.477  11.289   5.265 -0.0152 -0.0008 -0.2542
    1DIPC   C4B15744  18.382  10.985   4.996 -0.3122  0.0312  0.1565
    1DIPC   NC315745   1.562   7.113   2.232 -0.1479  0.1267 -0.0174
    1DIPC   PO415746   1.287   7.561   2.489  0.2925 -0.1301  0.1231
    1DIPC   GL115747   1.316   7.620   2.868 -0.1862 -0.1011 -0.2116
    1DIPC   GL215748   1.303   7.889   2.963  0.1448 -0.0284  0.1976
    1DIPC   C1A15749   1.347   7.441   3.324  0.1126 -0.5208  0.0402
    1DIPC   D2A15750   1.462   7.245   3.642 -0.1908 -0.2064 -0.1086
    1DIPC   D3A15751   1.371   7.269   4.081 -0.0086 -0.1735 -0.2087
    1DIPC   C4A15752   1.241   7.714   4.318  0.0080  0.1486  0.5006
    1DIPC   C1B15753   1.189   8.012   3.358  0.0305  0.1393  0.2567
    1DIPC   D2B15754   1.007   8.156   3.787 -0.1215 -0.1286 -0.2067
    1DIPC   D3B15755   0.597   8.484   3.818  0.4161 -0.1898 -0.0266
    1DIPC   C4B15756   0.203   8.325   3.968  0.1337  0.1831  0.3519
    1DIPC   NC315757   3.107  26.535   2.861  0.1158  0.0938 -0.0133
    1DIPC   PO415758   3.252  26.848   3.132 -0.2695 -0.0791  0.2433
    1DIPC   GL115759   3.171  26.935   3.518  0.0737  0.1867  0.2967
    1DIPC   GL215760   2.874  27.075   3.566  0.0280 -0.1462 -0.0492
    1DIPC   C1A15761   3.276  26.926   3.805  0.0305 -0.2336  0.0054
    1DIPC   D2A15762   3.555  26.722   4.061 -0.0849  0.1525  0.1237
    1DIPC   D3A15763   3.581  27.068   4.211  0.1468  0.3523 -0.0059
    1DIPC   C4A15764   3.777  27.012   4.573 -0.1644  0.2496 -0.1614
    1DIPC   C1B15765   2.740  26.816   3.957  0.0579 -0.2414  0.3062
    1DIPC   D2B15766   2.463  26.880   4.286 -0.0916 -0.0099 -0.1204
    1DIPC   D3B15767   2.195  27.230   4.206  0.1564  0.3885 -0.0735
    1DIPC   C4B15768   2.324  27.634   4.259 -0.1191  0.3088 -0.1656
    1DIPC   NC315769   0.651   7.088   2.128 -0.1069 -0.0576 -0.3305
    1DIPC   PO415770   1.034   7.117   2.309 -0.3355  0.4020 -0.1618
    1DIPC   GL115771   1.146   6.775   2.532  0.0606 -0.1503  0.2791
    1DIPC   GL215772   1.440   6.603   2.444  0.1260 -0.1614 -0.2955
    1DIPC   C1A15773   0.968   6.647   2.916  0.1418  0.0314  0.1322
    1DIPC   D2A15774   0.660   6.449   3.168 -0.4380 -0.1183  0.0788
    1DIPC   D3A15775   1.041   6.385   3.417 -0.1812  0.0150  0.2828
    1DIPC   C4A15776   1.112   6.489   3.777 -0.0150 -0.1748 -0.0340
    1DIPC   C1B15777   1.527   6.553   2.899  0.1404 -0.1985 -0.0523
    1DIPC   D2B15778   1.369   6.721   3.301 -0.1023  0.1967  0.1992
    1DIPC   D3B15779   1.040   6.977   3.301 -0.1858 -0.0249 -0.1379
    1DIPC   C4B15780   0.618   7.054   3.124  0.1528  0.1495 -0.1474
    1DIPC   NC315781  25.411  18.562   2.784  0.3639  0.0185 -0.2064
    1DIPC   PO415782  25.280  18.701   3.091 -0.1005 -0.0195 -0.0753
    1DIPC   GL115783  25.266  18.592   3.499  0.1375 -0.0864  0.4746
    1DIPC   GL215784  25.475  18.925   3.465  0.0175  0.0271  0.2227
    1DIPC   C1A15785  25.369  18.421   3.971 -0.0640 -0.0044  0.0234
    1DIPC   D2A15786  25.471  18.308   4.328  0.2105  0.0216  0.1026
    1DIPC   D3A15787  25.591  18.617   4.653  0.4312  0.1330  0.1094
    1DIPC   C4A15788  25.315  18.519   5.024 -0.2981  0.0924  0.0425
    1DIPC   C1B15789  25.687  18.867   3.841  0.3149  0.3989  0.1221
    1DIPC   D2B15790  25.808  18.797   4.215  0.0120 -0.0069  0.0609
    1DIPC   D3B15791  26.076  18.543   4.441  0.0445 -0.1752  0.0210
    1DIPC   C4B15792  26.113  18.042   4.399  0.1312 -0.0021  0.1199
    1DIPC   NC315793   8.080  21.707   3.433  0.1644 -0.0500  0.1098
    1DIPC   PO415794   8.352  21.354   3.349 -0.0002  0.0230  0.2871
    1DIPC   GL115795   8.466  21.627   3.677  0.1573 -0.3333  0.1078
    1DIPC   GL215796   8.821  21.680   3.722  0.0347  0.2047  0.0656
    1DIPC   C1A15797   8.441  21.929   3.965  0.0902  0.0235 -0.1363
    1DIPC   D2A15798   8.593  21.950   4.348  0.0497 -0.0447 -0.0729
    1DIPC   D3A15799   8.578  21.818   4.716  0.2040 -0.0453 -0.1991
    1DIPC   C4A15800   8.401  22.054   5.108 -0.0498 -0.1519 -0.2887
    1DIPC   C1B15801   8.592  21.499   4.136  0.2721  0.2155 -0.2042
    1DIPC   D2B15802   8.508  21.146   4.489  0.1490 -0.0194  0.1936
    1DIPC   D3B15803   8.389  21.345   4.795 -0.0640 -0.0453 -0.0561
    1DIPC   C4B15804   8.850  21.448   5.017 -0.1922 -0.2806 -0.1063
    1DIPC   NC315805  15.899   2.036   3.383 -0.0106 -0.0060 -0.2429
    1DIPC   PO415806  16.132   1.818   3.772  0.2481 -0.2154  0.2109
    1DIPC   GL115807  16.281   1.635   4.205 -0.0624  0.2411 -0.1134
    1DIPC   GL215808  16.546   1.691   4.244 -0.0104  0.1227 -0.0186
    1DIPC   C1A15809  16.156   1.252   4.369 -0.2232  0.0460  0.0881
    1DIPC   D2A15810  16.240   0.964   4.660 -0.3362 -0.0321 -0.0103
    1DIPC   D3A15811  16.532   0.918   5.037  0.2613 -0.1954  0.0776
    1DIPC   C4A15812  16.431   0.701   5.446 -0.3098  0.0281  0.0103
    1DIPC   C1B15813  16.671   1.649   4.608  0.1028  0.0608  0.0746
    1DIPC   D2B15814  16.501   1.835   5.022  0.0034 -0.0120 -0.0743
    1DIPC   D3B15815  16.287   1.628   5.307  0.0834 -0.0981 -0.2304
    1DIPC   C4B15816  16.421   1.269   5.499 -0.1612  0.1725 -0.0458
    1DIPC   NC315817   6.210  23.972   2.743  0.0647  0.1280 -0.2066
    1DIPC   PO415818   5.805  23.869   2.685 -0.2865 -0.0989  0.1706
    1DIPC   GL115819   5.699  23.779   3.121 -0.0293 -0.1325 -0.0284
    1DIPC   GL215820   5.555  23.469   3.275  0.1235  0.2615 -0.2922
    1DIPC   C1A15821   5.527  24.064   3.437 -0.1888  0.0398 -0.2442
    1DIPC   D2A15822   5.571  24.205   3.875  0.2577  0.3230 -0.0825
    1DIPC   D3A15823   5.403  24.279   4.318  0.3383  0.3875 -0.0606
    1DIPC   C4A15824   5.250  24.032   4.503  0.2689 -0.5471 -0.1340
    1DIPC   C1B15825   5.173  23.765   3.342 -0.1609  0.3090  0.0593
    1DIPC   D2B15826   4.976  24.151   3.386 -0.1394  0.0676 -0.1025
    1DIPC   D3B15827   5.069  24.269   3.859  0.1507  0.1937 -0.0731
    1DIPC   C4B15828   4.826  24.170   4.172  0.1178 -0.1552 -0.2117
    1DIPC   NC315829  15.890   9.157   3.705 -0.1830 -0.3240 -0.0391
    1DIPC   PO415830  15.672   8.816   3.917 -0.1438  0.2724  0.0271
    1DIPC   GL115831  15.645   8.743   4.269  0.0728  0.2260  0.1176
    1DIPC   GL215832  15.523   9.023   4.342 -0.1379 -0.0856 -0.3008
    1DIPC   C1A15833  15.477   8.489   4.574 -0.2925 -0.0248 -0.1013
    1DIPC   D2A15834  15.231   8.253   4.841 -0.0631  0.0446  0.0275
    1DIPC   D3A15835  15.290   8.098   4.422 -0.0088 -0.1113  0.3018
    1DIPC   C4A15836  15.750   8.059   4.352  0.5452 -0.2133  0.2120
    1DIPC   C1B15837  15.490   8.981   4.777 -0.0480 -0.0645 -0.0879
    1DIPC   D2B15838  15.620   8.765   5.079 -0.1373  0.3306  0.0947
    1DIPC   D3B15839  15.239   9.059   5.216  0.0426 -0.1034  0.1720
    1DIPC   C4B15840  14.741   8.987   5.047 -0.1249  0.0298 -0.1815
    1DIPC   NC315841  23.666  23.790   3.135  0.0439 -0.4220 -0.0066
    1DIPC   PO415842  23.877  23.830   3.532  0.2969 -0.1603  0.1444
    1DIPC   GL115843  23.949  23.786   4.004 -0.3562  0.2082  0.1288
    1DIPC   GL215844  23.742  23.981   4.139  0.2037  0.1785 -0.4105
    1DIPC   C1A15845  23.960  23.328   4.078 -0.3296  0.0831  0.0073
    1DIPC   D2A15846  24.024  22.936   4.286 -0.1014  0.0261  0.0525
    1DIPC   D3A15847  23.630  23.019   3.970 -0.3718 -0.0609  0.0906
    1DIPC   C4A15848  23.246  22.734   4.103 -0.2808  0.2741 -0.1078
    1DIPC   C1B15849  23.699  24.187   4.522 -0.0016 -0.0003 -0.0970
    1DIPC   D2B15850  23.834  24.007   4.854  0.2055  0.0281  0.1277
    1DIPC   D3B15851  23.637  24.413   5.083 -0.0598  0.0414  0.1504
    1DIPC   C4B15852  23.778  24.793   5.298  0.1880  0.0637  0.0930
    1DIPC   NC315853  25.881  13.091   2.267  0.1000 -0.0056 -0.0975
    1DIPC   PO415854  25.663  13.227   2.587 -0.0053 -0.1961 -0.0761
    1DIPC   GL115855  25.672  13.171   3.045  0.2193  0.0665  0.0102
    1DIPC   GL215856  25.962  13.041   3.217 -0.0094 -0.0776 -0.1431
    1DIPC   C1A15857  25.928  13.506   3.335  0.0969 -0.1931 -0.3655
    1DIPC   D2A15858  26.097  13.867   3.151  0.1281  0.3648 -0.0797
    1DIPC   D3A15859  25.870  14.194   3.450  0.2104  0.1125 -0.1594
    1DIPC   C4A15860  25.600  13.969   3.698  0.3419  0.3016 -0.2039
    1DIPC   C1B15861  25.573  13.053   3.521  0.0607  0.1216  0.3788
    1DIPC   D2B15862  25.739  12.849   3.876 -0.1073  0.0376  0.0459
    1DIPC   D3B15863  25.340  12.536   3.992  0.2827 -0.1797 -0.1568
    1DIPC   C4B15864  25.248  12.333   4.358 -0.1856  0.0829 -0.2328
    1DIPC   NC315865   7.944  27.528   2.809  0.1193 -0.1005  0.2060
    1DIPC   PO415866   8.250  27.090   2.753 -0.0306 -0.0222 -0.1925
    1DIPC   GL115867   8.107  27.091   3.140 -0.1821  0.0106 -0.0175
    1DIPC   GL215868   8.138  27.436   3.287  0.1726 -0.1991 -0.2168
    1DIPC   C1A15869   8.272  27.051   3.597  0.2723 -0.1895  0.0902
    1DIPC   D2A15870   8.303  26.989   4.095 -0.2955 -0.1329 -0.2859
    1DIPC   D3A15871   8.126  27.048   4.538 -0.0707  0.6896  0.0444
    1DIPC   C4A15872   7.827  26.881   4.829 -0.2824 -0.2075 -0.1124
    1DIPC   C1B15873   8.147  27.743   3.717 -0.0926  0.1311  0.1890
    1DIPC   D2B15874   8.136  27.874   4.090 -0.0331  0.0452 -0.0355
    1DIPC   D3B15875   8.212  27.498   4.425 -0.1991 -0.2999  0.0804
    1DIPC   C4B15876   8.375  27.609   4.832  0.2194  0.0148 -0.2006
    1DIPC   NC315877  21.459  13.406   2.839  0.0675  0.1726  0.2132
    1DIPC   PO415878  21.802  13.338   3.090 -0.3226  0.0822 -0.0043
    1DIPC   GL115879  21.796  13.439   3.556  0.1059 -0.0701 -0.2022
    1DIPC   GL215880  21.943  13.692   3.644  0.2821  0.2659 -0.1975
    1DIPC   C1A15881  21.761  13.295   3.994 -0.0817 -0.1870  0.2403
    1DIPC   D2A15882  21.507  13.033   4.245 -0.3754 -0.0958 -0.0699
    1DIPC   D3A15883  21.277  13.306   4.551  0.2237 -0.2065 -0.1215
    1DIPC   C4A15884  21.023  13.173   4.814 -0.0907 -0.1035 -0.2891
    1DIPC   C1B15885  22.110  13.700   4.003  0.0235 -0.4542 -0.1960
    1DIPC   D2B15886  21.917  13.984   4.314 -0.1198 -0.0977 -0.0193
    1DIPC   D3B15887  22.395  14.071   4.532  0.2013 -0.2121  0.0549
    1DIPC   C4B15888  22.487  13.803   4.804 -0.1193 -0.2439  0.1428
    1DIPC   NC315889   0.006  21.476   2.239  0.1648  0.3320  0.0426
    1DIPC   PO415890   0.155  21.762   2.631  0.0643 -0.1313  0.2209
    1DIPC   GL115891  28.064  21.885   3.025  0.1729  0.1043 -0.3691
    1DIPC   GL215892   0.159  22.100   3.096 -0.1397  0.2116  0.1869
    1DIPC   C1A15893  27.757  21.751   3.374 -0.0099  0.1659  0.3031
    1DIPC   D2A15894  27.765  21.762   3.798 -0.0509 -0.0882  0.0935
    1DIPC   D3A15895  27.912  21.304   3.931  0.1785 -0.2886 -0.0261
    1DIPC   C4A15896  27.700  21.180   4.283 -0.0050  0.0825  0.3374
    1DIPC   C1B15897  28.122  22.053   3.550 -0.0721 -0.1708 -0.0314
    1DIPC   D2B15898   0.098  22.087   3.986 -0.1102 -0.1997  0.2627
    1DIPC   D3B15899   0.348  21.878   4.215  0.0015 -0.1566  0.2054
    1DIPC   C4B15900   0.593  21.931   4.426 -0.1194  0.1091 -0.1620
    1DIPC   NC315901  25.284   2.632   3.017  0.0152  0.1012  0.2937
    1DIPC   PO415902  25.367   2.710   3.397 -0.0837 -0.0765  0.4037
    1DIPC   GL115903  25.409   2.408   3.588 -0.0638 -0.0966 -0.0692
    1DIPC   GL215904  25.577   2.092   3.597  0.0122  0.0584  0.0218
    1DIPC   C1A15905  25.363   2.343   4.096  0.2765  0.0556  0.2398
    1DIPC   D2A15906  24.941   2.253   4.367  0.3047  0.0695 -0.0219
    1DIPC   D3A15907  25.202   2.431   4.703  0.2354  0.1707  0.1934
    1DIPC   C4A15908  25.114   2.726   4.913  0.0857  0.0591  0.3391
    1DIPC   C1B15909  25.804   2.324   3.839 -0.0463 -0.0903 -0.1111
    1DIPC   D2B15910  26.156   2.519   4.002 -0.3134  0.1640 -0.0079
    1DIPC   D3B15911  25.901   2.512   4.360 -0.2632  0.1063 -0.1587
    1DIPC   C4B15912  25.579   2.175   4.534  0.0768 -0.0128  0.1416
    1DIPC   NC315913  22.637   6.312   2.602 -0.0480  0.0411 -0.0182
    1DIPC   PO415914  22.811   6.094   2.757  0.1842 -0.2498  0.2130
    1DIPC   GL115915  22.681   6.089   3.131  0.0262  0.0937  0.1802
    1DIPC   GL215916  22.804   5.991   3.408  0.0982 -0.2098  0.0880
    1DIPC   C1A15917  22.726   6.452   3.555 -0.0125 -0.2149 -0.0829
    1DIPC   D2A15918  22.890   6.599   3.803 -0.2588 -0.0378 -0.0538
    1DIPC   D3A15919  23.147   6.242   3.757  0.1355 -0.0927  0.1876
    1DIPC   C4A15920  23.320   5.991   4.090  0.2211 -0.1302 -0.0058
    1DIPC   C1B15921  22.672   6.067   3.861 -0.1207  0.1485  0.4234
    1DIPC   D2B15922  22.669   6.002   4.294 -0.1050 -0.0289  0.2126
    1DIPC   D3B15923  22.820   6.057   4.648  0.4224  0.0147  0.1344
    1DIPC   C4B15924  23.111   6.029   5.001 -0.1072  0.0920  0.1669
    1DIPC   NC315925  21.064  26.243   3.267 -0.1129  0.0927 -0.0667
    1DIPC   PO415926  20.832  25.818   3.495 -0.0006  0.1718  0.0422
    1DIPC   GL115927  20.861  25.853   3.894  0.1785  0.1800  0.2594
    1DIPC   GL215928  20.854  25.495   3.948 -0.1395  0.1737  0.4414
    1DIPC   C1A15929  21.073  25.884   4.280 -0.0214  0.0039 -0.1448
    1DIPC   D2A15930  21.205  25.744   4.598 -0.2831  0.1839  0.3090
    1DIPC   D3A15931  21.625  25.830   4.541 -0.0277 -0.2176  0.0252
    1DIPC   C4A15932  21.945  25.704   4.432  0.0192 -0.0338 -0.4747
    1DIPC   C1B15933  20.694  25.387   4.305  0.2981  0.1717 -0.2017
    1DIPC   D2B15934  20.744  25.492   4.711  0.1875  0.1337  0.0717
    1DIPC   D3B15935  20.612  25.883   4.873 -0.1618  0.1450 -0.0423
    1DIPC   C4B15936  20.457  26.290   4.737  0.1555 -0.1140 -0.0410
    1DIPC   NC315937   1.416  16.288   2.725 -0.0806 -0.0875 -0.2112
    1DIPC   PO415938   1.758  16.019   2.743  0.0852 -0.0074  0.1135
    1DIPC   GL115939   1.766  16.263   3.109 -0.1212  0.1511 -0.2424
    1DIPC   GL215940   2.026  16.557   3.202  0.0286  0.0193 -0.1730
    1DIPC   C1A15941   1.563  16.059   3.486 -0.1806 -0.1391 -0.1034
    1DIPC   D2A15942   1.525  16.019   3.950  0.1512 -0.1434 -0.3822
    1DIPC   D3A15943   1.854  16.199   3.882  0.3130 -0.0882  0.2158
    1DIPC   C4A15944   1.766  16.560   3.694  0.0394 -0.2517 -0.0794
    1DIPC   C1B15945   2.208  16.325   3.560  0.0035  0.0632 -0.0644
    1DIPC   D2B15946   2.411  15.936   3.804 -0.1892  0.2188  0.0092
    1DIPC   D3B15947   2.238  15.546   3.996  0.1556 -0.2191  0.0502
    1DIPC   C4B15948   2.471  15.459   4.328  0.1872 -0.0280  0.1703
    1DIPC   NC315949   2.948   9.232   2.580  0.3813 -0.0781  0.0142
    1DIPC   PO415950   3.388   9.224   2.656  0.2223 -0.0665 -0.1977
    1DIPC   GL115951   3.304   9.081   2.986  0.1213 -0.1173 -0.2392
    1DIPC   GL215952   3.009   8.968   3.005 -0.0900 -0.3290 -0.0813
    1DIPC   C1A15953   3.271   9.002   3.467  0.0906  0.0073  0.1837
    1DIPC   D2A15954   3.008   8.973   3.829 -0.0623 -0.1144 -0.1095
    1DIPC   D3A15955   3.130   9.325   4.229  0.0154 -0.1702  0.2496
    1DIPC   C4A15956   3.003   9.715   4.238  0.1930 -0.3337  0.0752
    1DIPC   C1B15957   2.733   8.729   3.333  0.0453 -0.0761  0.0899
    1DIPC   D2B15958   2.622   8.398   3.548 -0.1018  0.1133 -0.1183
    1DIPC   D3B15959   2.790   7.985   3.804  0.2369 -0.1807  0.0853
    1DIPC   C4B15960   2.598   7.971   4.131  0.1073 -0.0030  0.1363
    1DIPC   NC315961  13.911   1.217   3.361 -0.2138 -0.1666  0.0427
    1DIPC   PO415962  13.619   1.020   3.615  0.2591  0.0407  0.2271
    1DIPC   GL115963  13.568   0.763   3.909  0.1354 -0.2043 -0.0262
    1DIPC   GL215964  13.417   0.914   4.091  0.3630  0.1052 -0.0895
    1DIPC   C1A15965  13.813   0.535   4.136 -0.0893 -0.3988  0.1973
    1DIPC   D2A15966  14.082   0.282   4.442 -0.0703  0.1442 -0.2687
    1DIPC   D3A15967  13.687   0.266   4.731 -0.1773 -0.4305 -0.0950
    1DIPC   C4A15968  13.696   0.098   5.093  0.0192  0.0114 -0.0530
    1DIPC   C1B15969  13.740   1.077   4.329 -0.0471  0.0704  0.2903
    1DIPC   D2B15970  13.828   1.297   4.650  0.0620 -0.2259 -0.0619
    1DIPC   D3B15971  13.998   1.417   5.003  0.1476  0.0448 -0.4133
    1DIPC   C4B15972  14.229   1.719   5.153 -0.2300  0.1428 -0.2685
    1DIPC   NC315973  21.510   4.795   2.886  0.0038 -0.0168 -0.2032
    1DIPC   PO415974  21.343   5.143   2.938 -0.0442  0.1773 -0.1160
    1DIPC   GL115975  21.242   4.978   3.348 -0.1948  0.0493  0.0836
    1DIPC   GL215976  20.915   5.026   3.550  0.0492 -0.0451  0.0568
    1DIPC   C1A15977  21.293   4.883   3.735 -0.3170  0.1104 -0.1923
    1DIPC   D2A15978  21.640   4.715   4.109 -0.1051  0.1845  0.0851
    1DIPC   D3A15979  21.232   4.583   4.092 -0.1710 -0.1660  0.0123
    1DIPC   C4A15980  21.015   4.386   4.415 -0.1913  0.2724 -0.2737
    1DIPC   C1B15981  21.064   5.172   4.066 -0.2444  0.3067 -0.0512
    1DIPC   D2B15982  21.250   5.486   4.414 -0.2597  0.0635 -0.0186
    1DIPC   D3B15983  20.985   5.895   4.501 -0.0406  0.0710  0.1813
    1DIPC   C4B15984  20.740   6.109   4.661 -0.2161 -0.1115  0.1609
    1DIPC   NC315985  19.975  25.710   3.076 -0.0323 -0.1486 -0.0179
    1DIPC   PO415986  20.071  26.230   3.076  0.0138  0.1670  0.1142
    1DIPC   GL115987  19.984  26.304   3.505 -0.1270  0.2237 -0.2503
    1DIPC   GL215988  20.082  26.171   3.746  0.0409 -0.2086  0.2609
    1DIPC   C1A15989  19.978  26.683   3.906  0.3098  0.3633 -0.1058
    1DIPC   D2A15990  19.899  26.901   4.382 -0.3075 -0.0360  0.1209
    1DIPC   D3A15991  19.669  26.650   4.610 -0.1581 -0.0826 -0.2977
    1DIPC   C4A15992  19.798  26.279   4.792  0.2173  0.2226  0.4070
    1DIPC   C1B15993  20.443  26.362   4.037 -0.3168  0.2618  0.0458
    1DIPC   D2B15994  20.873  26.395   4.310  0.0214  0.0416 -0.1369
    1DIPC   D3B15995  20.955  26.306   4.720  0.2370  0.1257  0.0162
    1DIPC   C4B15996  20.748  26.295   5.216  0.3168 -0.2628  0.1006
    1DIPC   NC315997   4.529   7.905   2.761 -0.0088 -0.6597 -0.2910
    1DIPC   PO415998   4.550   8.337   2.671 -0.1308  0.1987 -0.0974
    1DIPC   GL115999   4.438   8.310   3.070  0.0684  0.0352 -0.0630
    1DIPC   GL216000   4.455   7.937   3.258 -0.0087  0.0353  0.0184
    1DIPC   C1A16001   4.430   8.311   3.522  0.1896  0.0668 -0.0520
    1DIPC   D2A16002   4.378   8.090   3.968  0.2377 -0.1597 -0.1556
    1DIPC   D3A16003   4.634   8.353   4.182 -0.1655  0.1125 -0.1247
    1DIPC   C4A16004   4.622   8.829   4.315  0.0665 -0.1435  0.0613
    1DIPC   C1B16005   4.112   7.811   3.603  0.0210  0.0143  0.0889
    1DIPC   D2B16006   3.969   7.761   3.968  0.0551  0.1429 -0.0469
    1DIPC   D3B16007   4.245   7.350   3.843 -0.1673  0.1707  0.1808
    1DIPC   C4B16008   3.996   6.963   3.724 -0.0342 -0.2158 -0.2167
    1DIPC   NC316009  11.898   1.395   3.403 -0.0107  0.2890  0.1095
    1DIPC   PO416010  12.341   1.383   3.529  0.1625 -0.2580  0.1651
    1DIPC   GL116011  12.342   1.136   3.994 -0.1723  0.2364  0.0436
    1DIPC   GL216012  12.555   1.344   4.225 -0.1545  0.1636  0.0402
    1DIPC   C1A16013  12.563   0.868   4.335  0.0515 -0.0576  0.3696
    1DIPC   D2A16014  12.593   0.737   4.787  0.0605  0.1151 -0.1886
    1DIPC   D3A16015  12.608   0.273   4.970 -0.1125  0.0794  0.1545
    1DIPC   C4A16016  12.258   0.197   5.190 -0.2071  0.1618  0.0682
    1DIPC   C1B16017  12.450   1.276   4.673 -0.0760 -0.2520  0.1983
    1DIPC   D2B16018  12.689   1.180   4.932  0.2002 -0.1033  0.1102
    1DIPC   D3B16019  12.811   1.046   5.363 -0.2800 -0.0965  0.1244
    1DIPC   C4B16020  13.278   1.094   5.367 -0.0119 -0.4976 -0.1754
    1DIPC   NC316021   1.535  13.657   2.719  0.4243  0.2191  0.1739
    1DIPC   PO416022   1.427  14.098   2.927  0.2595  0.0253 -0.0047
    1DIPC   GL116023   1.462  14.326   3.338 -0.0445  0.1153  0.1340
    1DIPC   GL216024   1.727  14.581   3.358 -0.0560  0.0132  0.3145
    1DIPC   C1A16025   1.405  14.739   3.751  0.3996  0.0452  0.1024
    1DIPC   D2A16026   1.598  14.882   4.127  0.3174  0.0506  0.2689
    1DIPC   D3A16027   1.622  14.964   4.481 -0.1047  0.1183 -0.4000
    1DIPC   C4A16028   1.747  15.389   4.587 -0.1626 -0.4971  0.1426
    1DIPC   C1B16029   1.803  14.481   3.768  0.1389  0.1831  0.1080
    1DIPC   D2B16030   1.599  14.187   4.011 -0.3213  0.0463  0.1251
    1DIPC   D3B16031   1.793  14.433   4.259  0.1343 -0.2287  0.0459
    1DIPC   C4B16032   2.048  14.688   4.130 -0.0217 -0.1770  0.0728
    1DIPC   NC316033   5.261  16.438   3.270 -0.1391 -0.0886 -0.1436
    1DIPC   PO416034   5.385  16.045   3.484 -0.0071 -0.2024  0.1433
    1DIPC   GL116035   5.647  16.057   3.770 -0.0704 -0.3446  0.0681
    1DIPC   GL216036   5.692  16.379   3.768 -0.0858  0.1783  0.1479
    1DIPC   C1A16037   5.599  16.091   4.204  0.2022 -0.0959 -0.0974
    1DIPC   D2A16038   5.327  16.327   4.471  0.0109 -0.0134 -0.0879
    1DIPC   D3A16039   5.634  16.671   4.359 -0.1621  0.3214  0.0478
    1DIPC   C4A16040   6.177  16.804   4.246 -0.0965  0.1682  0.0484
    1DIPC   C1B16041   6.046  16.347   4.137  0.0467  0.0461 -0.0132
    1DIPC   D2B16042   6.411  16.364   4.479  0.0061  0.2947 -0.1798
    1DIPC   D3B16043   6.042  16.497   4.699 -0.0128 -0.0505  0.1220
    1DIPC   C4B16044   5.647  16.270   4.797 -0.0413  0.0847 -0.1657
    1DIPC   NC316045  11.642  22.448   3.091  0.1480 -0.3803 -0.1630
    1DIPC   PO416046  11.281  22.266   3.227 -0.1378  0.4700 -0.2377
    1DIPC   GL116047  11.402  22.268   3.666 -0.2315 -0.0008  0.1190
    1DIPC   GL216048  11.669  22.440   3.696 -0.2263 -0.0543  0.1509
    1DIPC   C1A16049  11.363  22.319   4.129 -0.1147  0.0403 -0.0781
    1DIPC   D2A16050  11.085  22.449   4.431 -0.0898  0.1185  0.0319
    1DIPC   D3A16051  11.100  22.493   4.828  0.1254 -0.0566 -0.3676
    1DIPC   C4A16052  10.852  22.914   5.006 -0.1349 -0.1028  0.2620
    1DIPC   C1B16053  11.772  22.641   3.947  0.0393 -0.0647 -0.1590
    1DIPC   D2B16054  12.089  22.676   4.237  0.0125 -0.1254 -0.0933
    1DIPC   D3B16055  12.080  22.887   4.483 -0.1242 -0.1924 -0.3069
    1DIPC   C4B16056  12.330  22.926   4.883 -0.2082 -0.0631 -0.1414
    1DIPC   NC316057   0.760  18.344   2.156  0.0398 -0.2400 -0.1687
    1DIPC   PO416058   0.744  18.517   2.604 -0.0674  0.3100  0.0536
    1DIPC   GL116059   0.685  18.656   3.084 -0.1395  0.2724 -0.2558
    1DIPC   GL216060   0.850  18.454   3.333 -0.1390 -0.1197 -0.0321
    1DIPC   C1A16061   0.444  18.692   3.418  0.1862  0.0129 -0.0240
    1DIPC   D2A16062   0.152  18.798   3.720 -0.0850  0.1209 -0.3120
    1DIPC   D3A16063   0.194  19.218   3.699  0.1404  0.1295 -0.1086
    1DIPC   C4A16064  27.958  19.354   3.870  0.0702  0.1792 -0.1402
    1DIPC   C1B16065   0.965  18.493   3.798 -0.1684  0.2038  0.2100
    1DIPC   D2B16066   0.838  18.219   4.111  0.3636  0.2108 -0.1034
    1DIPC   D3B16067   1.110  18.317   4.544  0.2008 -0.1398 -0.2425
    1DIPC   C4B16068   1.461  18.511   4.538 -0.3003 -0.1627 -0.4086
    1DIPC   NC316069  22.053  27.292   3.573  0.1230  0.2622 -0.2896
    1DIPC   PO416070  22.296  27.732   3.573 -0.0443  0.1852 -0.0375
    1DIPC   GL116071  22.535  27.847   3.865  0.2537 -0.6303 -0.5021
    1DIPC   GL216072  22.708  27.513   3.859  0.0255 -0.1082  0.0550
    1DIPC   C1A16073  22.969  27.994   4.047 -0.0466  0.4929  0.0070
    1DIPC   D2A16074  23.248  28.011   4.288 -0.1918  0.0202  0.2961
    1DIPC   D3A16075  23.397  27.805   4.638 -0.2569 -0.0930  0.1231
    1DIPC   C4A16076  23.050  27.536   4.822 -0.2218  0.0907 -0.0801
    1DIPC   C1B16077  22.653  27.346   4.159 -0.2135  0.0607  0.0530
    1DIPC   D2B16078  22.454  27.002   4.277 -0.0441  0.2028 -0.0269
    1DIPC   D3B16079  22.717  26.723   4.485  0.1686 -0.0612 -0.0774
    1DIPC   C4B16080  22.699  26.443   4.405  0.4157 -0.0300 -0.1566
    1DIPC   NC316081  13.447   7.439   3.157  0.3105  0.0617  0.1998
    1DIPC   PO416082  13.758   7.702   3.395  0.1362 -0.2134  0.1225
    1DIPC   GL116083  13.752   7.753   3.854 -0.0951 -0.1450  0.3130
    1DIPC   GL216084  13.980   7.821   4.005 -0.1870  0.0178 -0.2974
    1DIPC   C1A16085  13.508   7.719   4.346  0.1230  0.0348 -0.0479
    1DIPC   D2A16086  13.146   7.701   4.551  0.0352  0.0377 -0.0782
    1DIPC   D3A16087  13.217   7.729   5.025  0.0440 -0.3414 -0.1353
    1DIPC   C4A16088  13.607   7.790   5.240 -0.0264 -0.2415 -0.0983
    1DIPC   C1B16089  13.894   8.069   4.365  0.1290 -0.1042  0.2746
    1DIPC   D2B16090  13.666   8.032   4.752  0.4103 -0.3973 -0.3648
    1DIPC   D3B16091  13.783   8.455   5.082  0.1881  0.1165 -0.0057
    1DIPC   C4B16092  13.754   8.377   5.442  0.0623  0.1134  0.0980
    1DIPC   NC316093   9.956  26.967   2.597  0.0321  0.1044 -0.2558
    1DIPC   PO416094   9.543  26.873   2.833 -0.2416  0.0508 -0.1102
    1DIPC   GL116095   9.635  26.906   3.355 -0.0365 -0.0951 -0.3513
    1DIPC   GL216096   9.348  26.831   3.459  0.1918 -0.2571  0.0800
    1DIPC   C1A16097   9.601  26.911   3.878 -0.0420  0.0829 -0.0229
    1DIPC   D2A16098   9.506  27.230   4.141 -0.0254  0.0597 -0.2217
    1DIPC   D3A16099   9.630  27.165   4.582  0.1759  0.1325 -0.0384
    1DIPC   C4A16100   9.564  27.318   4.969 -0.1620  0.0886 -0.1978
    1DIPC   C1B16101   9.138  26.802   3.732  0.3533  0.3261  0.0315
    1DIPC   D2B16102   9.026  27.061   4.005 -0.2005 -0.0400  0.1615
    1DIPC   D3B16103   9.270  26.859   4.324 -0.1440  0.1350  0.0500
    1DIPC   C4B16104   9.101  26.610   4.567 -0.2050 -0.1758  0.0521
    1DIPC   NC316105  15.826   9.850   4.193  0.0430  0.1440  0.3818
    1DIPC   PO416106  15.999   9.641   3.841  0.1311  0.3142 -0.1035
    1DIPC   GL116107  16.318   9.673   4.242  0.2486 -0.0621 -0.0437
    1DIPC   GL216108  16.349  10.011   4.375 -0.1712  0.1214  0.0152
    1DIPC   C1A16109  16.587   9.668   4.639 -0.0708 -0.1357 -0.0058
    1DIPC   D2A16110  16.673   9.448   4.920  0.0540 -0.0104 -0.0775
    1DIPC   D3A16111  17.059   9.522   5.125 -0.2146 -0.0967 -0.2162
    1DIPC   C4A16112  17.356   9.284   5.528 -0.2238 -0.0599  0.2525
    1DIPC   C1B16113  16.625  10.200   4.604  0.0553 -0.1216  0.1293
    1DIPC   D2B16114  16.854   9.964   4.935  0.1986  0.0146  0.2462
    1DIPC   D3B16115  16.678   9.814   5.364 -0.0516 -0.2796 -0.0400
    1DIPC   C4B16116  17.174   9.768   5.540 -0.2350 -0.2524 -0.0313
    1DIPC   NC316117   2.538  23.147   2.482  0.0292 -0.0542  0.0056
    1DIPC   PO416118   2.764  23.480   2.596 -0.3230 -0.3063 -0.2208
    1DIPC   GL116119   2.530  23.578   3.037  0.1327  0.0293  0.1326
    1DIPC   GL216120   2.713  23.564   3.314  0.1637 -0.4695  0.0130
    1DIPC   C1A16121   2.234  23.870   3.346  0.0913  0.2185 -0.2461
    1DIPC   D2A16122   1.974  23.854   3.671  0.1472 -0.0976  0.0394
    1DIPC   D3A16123   2.204  23.903   4.074 -0.2766 -0.0551 -0.2462
    1DIPC   C4A16124   2.552  24.076   4.137  0.1626  0.1188  0.2124
    1DIPC   C1B16125   2.815  23.211   3.512 -0.2105  0.3138  0.3808
    1DIPC   D2B16126   3.175  23.090   3.744 -0.2506 -0.2689 -0.0291
    1DIPC   D3B16127   3.347  22.765   3.597 -0.2188  0.1568 -0.1282
    1DIPC   C4B16128   3.192  22.407   3.639 -0.2026  0.3261  0.0478
    1DIPC   NC316129   8.928  23.677   3.660  0.0077 -0.0251 -0.2263
    1DIPC   PO416130   8.704  23.967   3.482  0.0016  0.0871 -0.0017
    1DIPC   GL116131   8.636  24.206   3.876 -0.0748  0.3145 -0.1605
    1DIPC   GL216132   8.769  23.924   4.101 -0.2371 -0.1726 -0.2867
    1DIPC   C1A16133   8.894  24.650   4.009 -0.2579 -0.3037  0.2274
    1DIPC   D2A16134   9.314  24.723   4.108 -0.0870 -0.0582  0.0427
    1DIPC   D3A16135   9.005  24.919   4.552 -0.0922 -0.0510  0.1219
    1DIPC   C4A16136   9.116  24.946   4.932  0.1263  0.3505  0.2836
    1DIPC   C1B16137   8.829  23.857   4.469 -0.0615 -0.3023 -0.3312
    1DIPC   D2B16138   9.040  24.004   4.893 -0.1972 -0.0154 -0.3910
    1DIPC   D3B16139   8.926  23.584   4.883 -0.0911  0.3071  0.0241
    1DIPC   C4B16140   8.607  23.449   5.149 -0.1288 -0.0016  0.1353
    1DIPC   NC316141   4.605  15.652   2.905 -0.0074 -0.2805  0.0066
    1DIPC   PO416142   4.947  15.472   3.148  0.0212 -0.0896 -0.0793
    1DIPC   GL116143   4.852  15.248   3.532  0.0483 -0.2532  0.0108
    1DIPC   GL216144   4.874  14.929   3.708  0.2664 -0.1884  0.1247
    1DIPC   C1A16145   4.587  15.224   3.979 -0.1599 -0.0574 -0.2624
    1DIPC   D2A16146   4.329  15.340   4.407  0.1196 -0.2831  0.2025
    1DIPC   D3A16147   4.767  15.233   4.482  0.3117  0.0175  0.3666
    1DIPC   C4A16148   4.909  14.941   4.772 -0.3032 -0.2199 -0.0781
    1DIPC   C1B16149   4.967  14.579   3.867  0.2316 -0.0163 -0.1487
    1DIPC   D2B16150   5.210  14.517   4.167 -0.0543  0.3569  0.0266
    1DIPC   D3B16151   5.040  14.845   4.325  0.1138  0.1465  0.2955
    1DIPC   C4B16152   5.133  15.199   4.097  0.0055  0.1522  0.2239
    1DIPC   NC316153  22.740  16.618   3.764  0.0950  0.1042  0.3140
    1DIPC   PO416154  22.441  17.071   3.771 -0.1563  0.1943  0.1535
    1DIPC   GL116155  22.656  16.948   4.135  0.1227 -0.0595 -0.0995
    1DIPC   GL216156  22.953  17.168   4.229  0.1536 -0.0004 -0.0768
    1DIPC   C1A16157  22.786  16.717   4.571 -0.0380 -0.1155  0.0356
    1DIPC   D2A16158  23.118  16.593   4.900  0.0264 -0.0386 -0.0286
    1DIPC   D3A16159  23.056  16.203   5.144 -0.0928  0.3616 -0.0764
    1DIPC   C4A16160  22.766  15.837   4.824  0.1945 -0.1623 -0.1831
    1DIPC   C1B16161  23.151  17.174   4.596 -0.3438 -0.0348  0.0006
    1DIPC   D2B16162  23.244  17.538   4.934 -0.1478 -0.1014  0.3784
    1DIPC   D3B16163  23.025  17.448   5.318  0.2350 -0.3068  0.1177
    1DIPC   C4B16164  22.807  17.825   5.509  0.0078  0.1576  0.0105
    1DIPC   NC316165  26.381  13.810   2.658  0.0137 -0.2064  0.2636
    1DIPC   PO416166  26.555  13.714   3.090 -0.1607  0.1623 -0.3130
    1DIPC   GL116167  26.433  13.759   3.614  0.0433  0.3419 -0.0732
    1DIPC   GL216168  26.651  13.895   3.834  0.0063  0.2409 -0.0941
    1DIPC   C1A16169  26.129  13.773   3.829 -0.0418  0.3519  0.1789
    1DIPC   D2A16170  25.795  13.788   4.098 -0.4397 -0.0564 -0.1804
    1DIPC   D3A16171  26.033  13.536   4.377  0.1068  0.3544 -0.0731
    1DIPC   C4A16172  25.804  13.119   4.349 -0.1049 -0.4004  0.0436
    1DIPC   C1B16173  26.671  14.268   4.134 -0.0461 -0.1433 -0.0749
    1DIPC   D2B16174  26.520  14.477   4.445 -0.0764  0.0121  0.1372
    1DIPC   D3B16175  26.108  14.526   4.219 -0.3216 -0.2439 -0.1257
    1DIPC   C4B16176  25.835  14.342   3.999  0.1580 -0.0519 -0.3722
    1DIPC   NC316177   1.812  25.876   2.890 -0.0246 -0.1044  0.2269
    1DIPC   PO416178   1.869  26.369   2.860  0.1559  0.0067 -0.0262
    1DIPC   GL116179   1.799  26.332   3.317 -0.1286 -0.0358  0.0311
    1DIPC   GL216180   1.527  26.174   3.324 -0.1154 -0.1062 -0.0229
    1DIPC   C1A16181   1.910  26.345   3.757  0.0818 -0.4832  0.3793
    1DIPC   D2A16182   1.532  26.260   4.065  0.0724  0.0738  0.0295
    1DIPC   D3A16183   1.570  26.556   4.391  0.1614 -0.1178  0.1357
    1DIPC   C4A16184   1.424  26.429   4.787 -0.0764 -0.0091 -0.1434
    1DIPC   C1B16185   1.282  26.032   3.681 -0.0431 -0.1205 -0.0622
    1DIPC   D2B16186   1.098  25.980   4.010  0.3226  0.0263 -0.1849
    1DIPC   D3B16187   1.290  26.070   4.479  0.0450  0.2889 -0.0693
    1DIPC   C4B16188   0.943  26.121   4.757  0.0643 -0.0000 -0.1112
    1DIPC   NC316189  10.700   9.554   3.236 -0.1435  0.0618 -0.2288
    1DIPC   PO416190  10.741   9.278   3.586 -0.0713 -0.2643 -0.1647
    1DIPC   GL116191  10.558   8.899   3.799 -0.2640  0.0655 -0.2120
    1DIPC   GL216192  10.843   8.750   4.004 -0.0829 -0.0392 -0.1806
    1DIPC   C1A16193  10.391   8.519   4.065 -0.2428  0.0677 -0.2206
    1DIPC   D2A16194  10.303   8.073   4.040  0.2833  0.2214 -0.0025
    1DIPC   D3A16195  10.341   8.147   4.463  0.2307 -0.2388 -0.0517
    1DIPC   C4A16196  10.251   8.632   4.559  0.1290 -0.1267  0.0276
    1DIPC   C1B16197  11.041   8.974   4.302  0.2638  0.1177 -0.1577
    1DIPC   D2B16198  11.070   9.275   4.546 -0.1299  0.1567 -0.2302
    1DIPC   D3B16199  11.177   9.143   4.962 -0.1741  0.1303 -0.0437
    1DIPC   C4B16200  11.551   9.370   5.205  0.2640  0.2933 -0.2272
    1DIPC   NC316201  12.914  15.940   3.902  0.6038  0.1277 -0.0020
    1DIPC   PO416202  12.576  15.807   4.092  0.2825 -0.3396  0.0354
    1DIPC   GL116203  12.637  16.197   4.228 -0.1014 -0.1673 -0.2636
    1DIPC   GL216204  12.439  16.317   4.496 -0.0768  0.3205  0.2984
    1DIPC   C1A16205  12.944  16.529   4.355  0.2545 -0.2030  0.2307
    1DIPC   D2A16206  13.181  16.886   4.263 -0.1328  0.0370 -0.2569
    1DIPC   D3A16207  13.367  17.000   4.489 -0.0553 -0.1119  0.2195
    1DIPC   C4A16208  13.419  17.171   4.853  0.0425  0.0746  0.3345
    1DIPC   C1B16209  12.500  16.355   4.935 -0.1099 -0.0661 -0.1703
    1DIPC   D2B16210  12.759  16.398   5.320 -0.0802  0.1213 -0.0929
    1DIPC   D3B16211  12.553  16.693   5.611 -0.1910 -0.1651  0.1400
    1DIPC   C4B16212  12.908  16.785   5.830 -0.0644 -0.0998 -0.2476
    1DIPC   NC316213   5.569  17.794   3.492  0.0470  0.1045 -0.1898
    1DIPC   PO416214   5.590  18.115   3.887  0.2565  0.0876  0.2885
    1DIPC   GL116215   5.304  17.867   4.097 -0.2045 -0.0536 -0.1288
    1DIPC   GL216216   5.610  17.999   4.344 -0.0491  0.2210  0.0902
    1DIPC   C1A16217   5.191  17.608   4.496 -0.2393  0.0157  0.3282
    1DIPC   D2A16218   5.203  17.357   4.813  0.3789  0.5196  0.2673
    1DIPC   D3A16219   4.951  17.693   4.903  0.0554 -0.0905 -0.1244
    1DIPC   C4A16220   4.516  17.681   4.954  0.1022  0.0312  0.2378
    1DIPC   C1B16221   5.452  17.865   4.789  0.1070 -0.3399  0.0897
    1DIPC   D2B16222   5.466  17.535   5.166  0.2811 -0.0659 -0.1172
    1DIPC   D3B16223   5.288  17.221   5.282 -0.0251  0.1068  0.1653
    1DIPC   C4B16224   5.101  16.810   5.240  0.1625  0.1917  0.3372
    1DIPC   NC316225   8.744  13.311   3.571 -0.0524  0.1679  0.0753
    1DIPC   PO416226   8.949  12.941   3.724  0.1553  0.2519  0.1369
    1DIPC   GL116227   8.835  13.266   4.136  0.0344  0.2299  0.3465
    1DIPC   GL216228   8.732  13.598   4.034 -0.0519 -0.0866 -0.0636
    1DIPC   C1A16229   8.923  13.356   4.503 -0.1752 -0.2362  0.1865
    1DIPC   D2A16230   8.862  13.781   4.653 -0.2116  0.1113 -0.1334
    1DIPC   D3A16231   8.844  13.847   5.144  0.0542  0.0819 -0.1189
    1DIPC   C4A16232   9.182  13.943   5.338 -0.2828 -0.0069  0.0781
    1DIPC   C1B16233   8.497  13.989   4.284  0.0796 -0.0432  0.2801
    1DIPC   D2B16234   8.346  14.401   4.357  0.4633  0.1773 -0.1248
    1DIPC   D3B16235   8.532  14.469   4.696 -0.2259  0.0766  0.1166
    1DIPC   C4B16236   8.928  14.358   4.832 -0.1382 -0.1708 -0.0549
    1DIPC   NC316237   6.512   7.976   3.603  0.0411  0.2147 -0.1365
    1DIPC   PO416238   7.023   7.725   3.448  0.0342  0.1509  0.0019
    1DIPC   GL116239   6.924   7.675   3.889  0.5261 -0.3843 -0.2300
    1DIPC   GL216240   6.971   7.971   4.078 -0.0159 -0.1146 -0.0743
    1DIPC   C1A16241   6.725   7.567   4.302 -0.3132 -0.1850 -0.2749
    1DIPC   D2A16242   6.917   7.206   4.548 -0.0718  0.1752  0.1992
    1DIPC   D3A16243   6.982   6.723   4.534 -0.1376 -0.0715 -0.0719
    1DIPC   C4A16244   6.672   6.584   4.725 -0.2629  0.3727 -0.1197
    1DIPC   C1B16245   7.145   8.349   4.144  0.2306 -0.2007 -0.0714
    1DIPC   D2B16246   7.155   8.416   4.588 -0.1994 -0.2850 -0.1252
    1DIPC   D3B16247   7.183   7.960   4.620  0.4084  0.1530 -0.0620
    1DIPC   C4B16248   7.210   7.591   4.341 -0.0773  0.1660  0.2341
    1DIPC   NC316249   0.330  23.895   2.998 -0.1297 -0.1462  0.0551
    1DIPC   PO416250   0.633  23.543   2.789 -0.1779  0.0871 -0.1893
    1DIPC   GL116251   0.885  23.774   3.210  0.2597  0.1477  0.2006
    1DIPC   GL216252   0.652  23.882   3.514  0.1864 -0.0285 -0.1463
    1DIPC   C1A16253   1.163  23.999   3.380 -0.0843 -0.1079  0.2390
    1DIPC   D2A16254   1.335  24.359   3.528 -0.0432 -0.0218 -0.0771
    1DIPC   D3A16255   1.398  24.257   3.914 -0.1928 -0.0651 -0.0563
    1DIPC   C4A16256   1.285  24.182   4.366 -0.1637  0.1514 -0.1368
    1DIPC   C1B16257   0.927  24.003   3.951 -0.0518 -0.1951 -0.1872
    1DIPC   D2B16258   0.797  24.239   4.284  0.2871 -0.3914 -0.0003
    1DIPC   D3B16259   0.648  23.911   4.364 -0.3819  0.2247  0.0171
    1DIPC   C4B16260   0.545  23.794   4.849 -0.1041 -0.1849  0.1696
    1DIPC   NC316261  23.126  25.415   3.599  0.0557 -0.0503  0.3282
    1DIPC   PO416262  22.669  25.417   3.746  0.1150  0.0490 -0.1081
    1DIPC   GL116263  22.533  25.622   4.061  0.0384  0.2933 -0.0537
    1DIPC   GL216264  22.281  25.414   4.285 -0.1273  0.2088 -0.0330
    1DIPC   C1A16265  22.482  25.877   4.374 -0.2386 -0.4617  0.0550
    1DIPC   D2A16266  22.316  25.897   4.785  0.0583 -0.0839 -0.2645
    1DIPC   D3A16267  22.301  26.321   4.943  0.0859  0.0241 -0.2278
    1DIPC   C4A16268  22.670  26.578   4.937 -0.1389  0.0854 -0.2002
    1DIPC   C1B16269  21.904  25.176   4.325  0.1197 -0.1692 -0.1399
    1DIPC   D2B16270  21.613  24.801   4.372 -0.1829 -0.0671 -0.0658
    1DIPC   D3B16271  21.780  24.523   4.728 -0.1962  0.0861  0.0530
    1DIPC   C4B16272  21.414  24.348   5.043  0.0700  0.1750 -0.0678
    1DIPC   NC316273   9.091  20.246   3.841  0.2299 -0.1571  0.1866
    1DIPC   PO416274   8.836  19.866   3.925  0.3187 -0.1747 -0.1081
    1DIPC   GL116275   8.866  19.894   4.368  0.4452 -0.0100  0.1208
    1DIPC   GL216276   9.015  20.100   4.519 -0.0890 -0.0413  0.0472
    1DIPC   C1A16277   8.743  19.710   4.878 -0.0315 -0.5462  0.0076
    1DIPC   D2A16278   8.701  19.721   5.275  0.0123 -0.2483  0.0466
    1DIPC   D3A16279   8.392  19.403   5.180  0.0853 -0.2457  0.1370
    1DIPC   C4A16280   8.157  19.227   4.841 -0.0973 -0.2704 -0.1664
    1DIPC   C1B16281   9.134  19.986   4.993  0.2247 -0.0150 -0.0275
    1DIPC   D2B16282   9.424  19.656   5.088 -0.1965  0.1212 -0.0269
    1DIPC   D3B16283   9.135  19.568   5.435  0.2201 -0.0548  0.2096
    1DIPC   C4B16284   9.100  19.199   5.753 -0.2958  0.0617  0.0887
    1DIPC   NC316285   9.609  16.014   3.269  0.0860  0.0545  0.1838
    1DIPC   PO416286   9.440  16.359   3.451  0.2738  0.1826  0.0363
    1DIPC   GL116287   9.587  16.636   3.735 -0.0817  0.0144  0.0550
    1DIPC   GL216288   9.588  16.982   3.684  0.1331  0.3388 -0.2756
    1DIPC   C1A16289   9.871  16.761   4.055  0.1694  0.0313 -0.1324
    1DIPC   D2A16290   9.903  17.016   4.407  0.2803 -0.1877  0.0008
    1DIPC   D3A16291  10.030  17.395   4.257 -0.1110  0.3081  0.0836
    1DIPC   C4A16292  10.461  17.622   4.478  0.0856 -0.1708  0.1306
    1DIPC   C1B16293   9.643  17.195   3.979 -0.1243  0.1634  0.3091
    1DIPC   D2B16294   9.486  17.549   4.159  0.1056  0.1181 -0.1882
    1DIPC   D3B16295   9.602  17.523   4.533 -0.3433  0.2619  0.2263
    1DIPC   C4B16296  10.015  17.347   4.770 -0.4823 -0.3444 -0.1429
    1DIPC   NC316297  13.244   3.871   3.334 -0.0239 -0.1660 -0.0407
    1DIPC   PO416298  13.421   3.614   3.667 -0.0780 -0.3339  0.0744
    1DIPC   GL116299  13.331   3.498   4.076 -0.1750 -0.0204 -0.2196
    1DIPC   GL216300  13.083   3.312   3.916 -0.0509  0.0942  0.1727
    1DIPC   C1A16301  13.178   3.491   4.440 -0.0702  0.2105 -0.0732
    1DIPC   D2A16302  13.263   3.416   4.967  0.1664 -0.1504  0.0825
    1DIPC   D3A16303  13.605   3.113   4.976  0.1047  0.3433  0.0599
    1DIPC   C4A16304  13.853   3.171   5.320  0.0026  0.1175 -0.1165
    1DIPC   C1B16305  13.017   3.093   4.254 -0.1616  0.1177  0.1598
    1DIPC   D2B16306  13.236   3.053   4.611 -0.0601 -0.0640 -0.0145
    1DIPC   D3B16307  13.606   3.231   4.461  0.1071  0.0991 -0.0530
    1DIPC   C4B16308  13.889   3.382   4.676  0.1979 -0.0098 -0.0952
    1DIPC   NC316309  16.885  22.481   3.342  0.1867 -0.3604  0.0942
    1DIPC   PO416310  17.291  22.714   3.235  0.0323  0.1380 -0.3331
    1DIPC   GL116311  17.265  22.826   3.667 -0.1561  0.1714 -0.0637
    1DIPC   GL216312  16.941  22.739   3.803  0.1230  0.1708 -0.0786
    1DIPC   C1A16313  17.410  22.826   4.094 -0.2396  0.1685  0.3972
    1DIPC   D2A16314  17.610  22.940   4.584  0.0924  0.3381 -0.2061
    1DIPC   D3A16315  17.371  23.071   4.543  0.3272  0.0410  0.2463
    1DIPC   C4A16316  17.174  22.956   4.887 -0.2140 -0.2216 -0.3528
    1DIPC   C1B16317  16.943  22.472   4.240 -0.1064  0.0482  0.0866
    1DIPC   D2B16318  16.846  22.259   4.602  0.1535  0.1427  0.0716
    1DIPC   D3B16319  16.715  22.534   4.881 -0.1529 -0.1606 -0.1159
    1DIPC   C4B16320  16.286  22.860   4.688 -0.0507 -0.4670  0.0459
    1DIPC   NC316321  20.486   6.313   2.646 -0.1273 -0.0630 -0.0794
    1DIPC   PO416322  20.522   5.971   2.913 -0.0053  0.1479  0.0382
    1DIPC   GL116323  20.684   6.324   3.116 -0.0644  0.1270  0.2252
    1DIPC   GL216324  21.069   6.233   3.152 -0.1861 -0.2210  0.2227
    1DIPC   C1A16325  20.826   6.392   3.561 -0.4741 -0.0510 -0.0283
    1DIPC   D2A16326  20.624   6.394   3.929 -0.1034 -0.1681  0.1373
    1DIPC   D3A16327  20.526   6.000   4.144 -0.0231  0.3229  0.0495
    1DIPC   C4A16328  20.091   6.009   4.459 -0.3802 -0.2205  0.1664
    1DIPC   C1B16329  21.178   5.876   3.349 -0.1997  0.0490  0.3918
    1DIPC   D2B16330  21.043   5.445   3.306  0.1171  0.0932 -0.1901
    1DIPC   D3B16331  20.691   5.823   3.341  0.1583  0.2927 -0.3207
    1DIPC   C4B16332  20.410   6.090   3.553  0.0886  0.3465  0.4535
    1DIPC   NC316333  27.259  25.197   3.020 -0.1940  0.2129  0.0816
    1DIPC   PO416334  26.884  25.437   2.909  0.0059  0.4973  0.0974
    1DIPC   GL116335  26.966  25.574   3.300  0.0202  0.3684 -0.1643
    1DIPC   GL216336  26.680  25.674   3.461  0.1216 -0.0816  0.3228
    1DIPC   C1A16337  27.185  25.469   3.633 -0.1212 -0.0433 -0.1034
    1DIPC   D2A16338  27.424  25.636   3.988 -0.3660 -0.2107 -0.0621
    1DIPC   D3A16339  27.050  25.480   4.156 -0.1973 -0.0192 -0.1271
    1DIPC   C4A16340  27.064  25.473   4.555  0.0773  0.0845 -0.0847
    1DIPC   C1B16341  26.687  25.555   3.818  0.0182  0.0461  0.0354
    1DIPC   D2B16342  26.589  25.744   4.233 -0.0786  0.0768 -0.1787
    1DIPC   D3B16343  26.759  25.892   4.621  0.1269  0.1939  0.1115
    1DIPC   C4B16344  26.583  26.012   5.006  0.1830  0.0610 -0.0392
    1DIPC   NC316345  21.602   8.383   3.244  0.0052  0.3002  0.2311
    1DIPC   PO416346  21.896   8.293   2.893 -0.0478  0.1727 -0.3871
    1DIPC   GL116347  22.080   8.250   3.349 -0.4589  0.1374  0.1071
    1DIPC   GL216348  22.367   8.293   3.333  0.0885 -0.4587 -0.0197
    1DIPC   C1A16349  22.180   8.244   3.782 -0.3244 -0.0896  0.0826
    1DIPC   D2A16350  22.430   8.136   4.126  0.2065  0.1088  0.0875
    1DIPC   D3A16351  22.167   8.312   4.400  0.3136 -0.0486 -0.2780
    1DIPC   C4A16352  22.125   7.967   4.710  0.0375 -0.4358 -0.1608
    1DIPC   C1B16353  22.580   8.056   3.623 -0.0266 -0.0172  0.2294
    1DIPC   D2B16354  22.490   7.653   3.835 -0.0273  0.0482  0.1163
    1DIPC   D3B16355  22.092   7.728   4.033 -0.0727 -0.2507 -0.2371
    1DIPC   C4B16356  21.887   7.735   4.336 -0.1385 -0.1805  0.2276
    1DIPC   NC316357   2.157  21.672   2.880 -0.3247 -0.1602 -0.1699
    1DIPC   PO416358   1.919  21.778   3.167 -0.1437 -0.0538  0.1731
    1DIPC   GL116359   1.993  21.888   3.635  0.1731 -0.1854 -0.2380
    1DIPC   GL216360   2.292  21.942   3.860  0.1506  0.0466  0.1357
    1DIPC   C1A16361   1.845  21.876   4.091  0.1818 -0.1570 -0.2370
    1DIPC   D2A16362   1.578  22.152   4.323  0.0934 -0.1216  0.0176
    1DIPC   D3A16363   1.605  22.549   4.515  0.2185 -0.1596 -0.1710
    1DIPC   C4A16364   1.801  22.960   4.383  0.1150 -0.0892 -0.1542
    1DIPC   C1B16365   2.403  21.871   4.188 -0.0895 -0.0408 -0.4746
    1DIPC   D2B16366   2.519  21.998   4.631  0.3809  0.1054 -0.0548
    1DIPC   D3B16367   2.567  22.390   4.736  0.4452 -0.0824  0.1105
    1DIPC   C4B16368   2.793  22.721   4.564  0.1982 -0.0681  0.3622
    1DIPC   NC316369  11.860  27.672   3.231  0.1068  0.0741  0.0260
    1DIPC   PO416370  11.740  28.081   3.477 -0.1339  0.0409 -0.2064
    1DIPC   GL116371  11.588   0.156   3.835  0.2036  0.0738 -0.1670
    1DIPC   GL216372  11.780   0.409   3.904  0.3996 -0.2368  0.0045
    1DIPC   C1A16373  11.176   0.322   4.085  0.1237 -0.1599 -0.0771
    1DIPC   D2A16374  10.908   0.145   4.347  0.0005 -0.2313 -0.1058
    1DIPC   D3A16375  11.174  27.915   4.486  0.0593  0.0407  0.1091
    1DIPC   C4A16376  11.112  27.785   4.950  0.2488  0.0252  0.0394
    1DIPC   C1B16377  11.681   0.189   4.344 -0.1880 -0.0852 -0.1410
    1DIPC   D2B16378  11.556   0.211   4.793 -0.0559  0.1169  0.0697
    1DIPC   D3B16379  11.055   0.261   4.894 -0.0076  0.1460 -0.2321
    1DIPC   C4B16380  10.688  28.058   4.742 -0.1870 -0.0265  0.1899
    1DIPC   NC316381  16.790  15.124   3.808 -0.2681  0.1327 -0.0357
    1DIPC   PO416382  16.806  15.529   3.729 -0.1675  0.1678  0.1020
    1DIPC   GL116383  16.907  15.429   4.208  0.0859  0.0910  0.0958
    1DIPC   GL216384  16.884  15.072   4.257 -0.1421 -0.2547 -0.0718
    1DIPC   C1A16385  16.970  15.519   4.592  0.1427  0.2057  0.2858
    1DIPC   D2A16386  17.019  15.385   5.052  0.1114 -0.1210  0.1951
    1DIPC   D3A16387  17.482  15.467   5.063 -0.0401 -0.2300  0.2384
    1DIPC   C4A16388  17.760  15.594   5.528  0.3107  0.0593  0.0678
    1DIPC   C1B16389  16.999  14.988   4.705  0.1695  0.1740 -0.1552
    1DIPC   D2B16390  17.085  14.652   4.762 -0.2865 -0.1059 -0.1789
    1DIPC   D3B16391  17.238  14.378   4.664 -0.0257  0.0848  0.0581
    1DIPC   C4B16392  17.251  13.982   4.558  0.2570  0.1318 -0.1671
    1DIPC   NC316393  14.466  16.981   3.753 -0.0507  0.3081  0.0585
    1DIPC   PO416394  14.002  16.837   3.864 -0.2008  0.0850  0.1247
    1DIPC   GL116395  13.803  17.066   4.131 -0.1248  0.0851  0.1129
    1DIPC   GL216396  13.948  17.149   4.318  0.2125  0.1737 -0.3362
    1DIPC   C1A16397  13.443  17.362   4.184  0.0808  0.0912  0.0394
    1DIPC   D2A16398  13.359  17.674   4.582 -0.1986  0.0890  0.0298
    1DIPC   D3A16399  13.049  17.405   4.551 -0.1238 -0.0687  0.1906
    1DIPC   C4A16400  12.879  17.280   4.862 -0.0131  0.1177  0.1132
    1DIPC   C1B16401  13.894  16.796   4.545 -0.3470  0.1305  0.1658
    1DIPC   D2B16402  14.007  16.387   4.733  0.0638  0.1193  0.2172
    1DIPC   D3B16403  13.936  16.503   5.143 -0.0561  0.1148 -0.1225
    1DIPC   C4B16404  14.131  16.757   5.482  0.1677 -0.1241 -0.1739
    1DIPC   NC316405  10.796  26.580   2.850  0.0219  0.1949 -0.0112
    1DIPC   PO416406  10.863  26.130   3.022  0.2116 -0.2833 -0.0665
    1DIPC   GL116407  10.850  26.123   3.410 -0.1269 -0.0928 -0.1472
    1DIPC   GL216408  10.680  25.854   3.528  0.4278 -0.1440  0.1302
    1DIPC   C1A16409  10.972  26.229   3.857  0.0286  0.2956  0.0173
    1DIPC   D2A16410  11.104  25.940   4.193 -0.1398 -0.1435 -0.0652
    1DIPC   D3A16411  10.752  25.756   4.089 -0.0911  0.1469  0.0909
    1DIPC   C4A16412  10.559  25.513   4.380  0.2321  0.5095 -0.4040
    1DIPC   C1B16413  10.401  25.568   3.751  0.1490 -0.0745  0.0104
    1DIPC   D2B16414  10.012  25.576   4.048 -0.0237  0.0725 -0.0142
    1DIPC   D3B16415   9.869  25.600   4.469  0.0010  0.3411  0.0123
    1DIPC   C4B16416  10.213  25.403   4.735 -0.2205  0.1349 -0.0089
    1DIPC   NC316417  22.391  10.866   2.699 -0.0919  0.0900 -0.1109
    1DIPC   PO416418  22.760  10.902   3.017 -0.0409  0.2822 -0.1164
    1DIPC   GL116419  22.827  11.228   3.321 -0.0328 -0.1101 -0.3969
    1DIPC   GL216420  22.493  11.186   3.507 -0.0894 -0.0473  0.0312
    1DIPC   C1A16421  22.923  11.277   3.758 -0.2420  0.0290 -0.0233
    1DIPC   D2A16422  22.936  11.129   4.052 -0.0927  0.3135  0.0508
    1DIPC   D3A16423  22.612  11.120   4.402 -0.0549 -0.0106  0.0162
    1DIPC   C4A16424  22.556  10.753   4.500 -0.1663  0.0759  0.1665
    1DIPC   C1B16425  22.570  11.492   3.951 -0.0508  0.1951  0.1768
    1DIPC   D2B16426  22.386  11.639   4.409  0.2520 -0.0310 -0.0194
    1DIPC   D3B16427  22.069  11.568   4.098  0.0291 -0.0466 -0.3841
    1DIPC   C4B16428  21.644  11.394   4.094 -0.0933 -0.0940 -0.0267
    1DIPC   NC316429   9.182  26.571   3.035 -0.1132 -0.0755  0.1619
    1DIPC   PO416430   9.058  27.040   3.069 -0.1437 -0.1729 -0.2151
    1DIPC   GL116431   8.790  26.707   3.394 -0.0327 -0.0930  0.3313
    1DIPC   GL216432   8.975  26.344   3.453  0.1654 -0.2104  0.1867
    1DIPC   C1A16433   8.618  26.744   3.814  0.1521 -0.0168 -0.3128
    1DIPC   D2A16434   8.661  26.708   4.307 -0.0175 -0.0545  0.1232
    1DIPC   D3A16435   8.669  27.134   4.382 -0.1345 -0.0779  0.2199
    1DIPC   C4A16436   9.068  27.364   4.429 -0.1950  0.0907  0.0332
    1DIPC   C1B16437   8.949  26.449   4.010 -0.1643 -0.3115 -0.1823
    1DIPC   D2B16438   8.822  26.260   4.377 -0.0162 -0.1899  0.1906
    1DIPC   D3B16439   8.743  25.797   4.490 -0.1852  0.2439  0.1147
    1DIPC   C4B16440   8.952  25.610   4.725 -0.2418 -0.0118 -0.0692
    1DIPC   NC316441  15.342  17.078   3.983  0.1542  0.0646  0.0231
    1DIPC   PO416442  14.930  17.042   3.874  0.1461  0.1305  0.1123
    1DIPC   GL116443  14.825  17.011   4.270  0.3385 -0.0911  0.1387
    1DIPC   GL216444  15.073  17.153   4.433  0.0370  0.0147 -0.1508
    1DIPC   C1A16445  14.737  17.000   4.777  0.4502  0.0445 -0.3735
    1DIPC   D2A16446  14.662  17.119   5.109 -0.1867  0.2720 -0.1552
    1DIPC   D3A16447  14.976  17.186   5.455 -0.0952  0.0752  0.1126
    1DIPC   C4A16448  14.877  16.860   5.612  0.1380  0.1750  0.2848
    1DIPC   C1B16449  15.019  17.516   4.622  0.0655  0.1478  0.1493
    1DIPC   D2B16450  15.318  17.753   4.947 -0.0916  0.2206 -0.0790
    1DIPC   D3B16451  15.128  18.085   5.040  0.0015 -0.4077 -0.1780
    1DIPC   C4B16452  15.259  18.198   5.470 -0.1477 -0.1017  0.0199
    1DIPC   NC316453  14.952  10.631   3.591  0.0916  0.1718 -0.0742
    1DIPC   PO416454  15.238  10.614   4.011 -0.0350 -0.1616 -0.2064
    1DIPC   GL116455  15.411  10.716   4.300 -0.0038  0.1115  0.0981
    1DIPC   GL216456  15.679  10.796   4.310 -0.0214 -0.0571  0.2141
    1DIPC   C1A16457  15.374  10.756   4.763  0.3570  0.0440 -0.0474
    1DIPC   D2A16458  15.319  10.553   5.169 -0.3606  0.3742  0.1333
    1DIPC   D3A16459  15.181  11.025   5.329  0.0811 -0.1809  0.0471
    1DIPC   C4A16460  14.818  11.010   5.482 -0.0272 -0.4057  0.4747
    1DIPC   C1B16461  15.813  10.917   4.660 -0.0582  0.2542 -0.0819
    1DIPC   D2B16462  15.909  11.230   4.942 -0.2876 -0.0392  0.0351
    1DIPC   D3B16463  15.616  11.061   5.091 -0.0004 -0.1885 -0.1703
    1DIPC   C4B16464  15.602  11.293   5.566  0.1633  0.1011  0.0578
    1DIPC   NC316465  20.762   1.598   2.768 -0.2901  0.0548 -0.1313
    1DIPC   PO416466  21.150   1.657   2.961  0.0527 -0.0975  0.0545
    1DIPC   GL116467  21.164   1.878   3.420  0.2211  0.1025 -0.0705
    1DIPC   GL216468  21.351   2.111   3.523 -0.0091 -0.1632 -0.2046
    1DIPC   C1A16469  21.193   1.694   3.820 -0.1586  0.1485 -0.4961
    1DIPC   D2A16470  21.125   1.717   4.232 -0.2144 -0.0938  0.2669
    1DIPC   D3A16471  20.854   1.945   4.476 -0.1898  0.2459 -0.3191
    1DIPC   C4A16472  21.108   2.061   4.807 -0.0624 -0.0636 -0.4596
    1DIPC   C1B16473  20.960   2.141   3.872  0.3494  0.0826  0.1936
    1DIPC   D2B16474  20.650   2.228   4.143 -0.0778  0.1414 -0.0046
    1DIPC   D3B16475  20.764   2.461   4.433  0.0062 -0.0052 -0.1395
    1DIPC   C4B16476  21.221   2.608   4.630  0.1306 -0.1579 -0.0833
    1DIPC   NC316477  17.776  27.919   3.922 -0.1128  0.2787  0.1953
    1DIPC   PO416478  18.138   0.066   3.927 -0.4516 -0.1591 -0.0573
    1DIPC   GL116479  18.094   0.104   4.252 -0.3450 -0.0486  0.1205
    1DIPC   GL216480  18.067  28.003   4.387  0.0453  0.2202  0.0219
    1DIPC   C1A16481  18.001   0.302   4.629  0.0650  0.2927 -0.3791
    1DIPC   D2A16482  18.057   0.723   4.766  0.2904  0.1825  0.1253
    1DIPC   D3A16483  18.152   1.045   5.113  0.0466 -0.1041 -0.0209
    1DIPC   C4A16484  18.363   0.888   5.430 -0.0215 -0.1057 -0.2387
    1DIPC   C1B16485  18.131  27.962   4.894 -0.1459 -0.3089  0.0630
    1DIPC   D2B16486  18.232  27.650   5.179 -0.2562 -0.3061  0.1064
    1DIPC   D3B16487  18.188  27.482   4.749 -0.3631  0.2559 -0.0582
    1DIPC   C4B16488  17.964  27.079   4.707 -0.1506  0.1441  0.0635
    1DIPC   NC316489   2.112  27.795   2.544  0.1868  0.1520 -0.3890
    1DIPC   PO416490   2.459   0.104   2.629  0.0294  0.1040  0.1107
    1DIPC   GL116491   2.526   0.399   2.978  0.3723  0.2247  0.2245
    1DIPC   GL216492   2.338   0.715   2.942  0.0843  0.0356 -0.0151
    1DIPC   C1A16493   2.329   0.489   3.421 -0.0137 -0.1090 -0.2426
    1DIPC   D2A16494   2.296   0.394   3.853 -0.3817 -0.0729  0.2933
    1DIPC   D3A16495   1.887   0.577   3.641  0.0240 -0.3048 -0.1343
    1DIPC   C4A16496   1.576   0.282   3.640 -0.1384  0.0350  0.1109
    1DIPC   C1B16497   2.512   1.154   2.999  0.2040 -0.0800 -0.0412
    1DIPC   D2B16498   2.487   1.595   3.073  0.3257  0.0818 -0.1896
    1DIPC   D3B16499   2.429   1.370   3.404 -0.1627 -0.1589  0.4453
    1DIPC   C4B16500   2.149   1.427   3.761 -0.0853 -0.1910  0.1058
    1DIPC   NC316501  12.702  27.326   3.268  0.1412 -0.1687  0.1890
    1DIPC   PO416502  12.759  27.669   3.540  0.0255  0.1125 -0.6288
    1DIPC   GL116503  13.155  27.712   3.638  0.0716  0.0853 -0.0429
    1DIPC   GL216504  13.264  27.430   3.831 -0.0056 -0.2890 -0.2348
    1DIPC   C1A16505  13.567  27.783   3.914  0.2759  0.1228  0.0694
    1DIPC   D2A16506  13.838  28.117   4.089  0.1068  0.2308 -0.1089
    1DIPC   D3A16507  13.603  27.960   4.360 -0.0031  0.2137 -0.1690
    1DIPC   C4A16508  13.291  27.649   4.550  0.2003  0.2520 -0.1309
    1DIPC   C1B16509  12.927  27.548   4.115  0.0228 -0.0487 -0.3677
    1DIPC   D2B16510  12.837  27.227   4.515 -0.0107 -0.0523 -0.0971
    1DIPC   D3B16511  13.268  27.242   4.286  0.2064 -0.1264 -0.0592
    1DIPC   C4B16512  13.475  27.009   3.924 -0.1003 -0.0467 -0.2605
    1DIPC   NC316513   2.286  22.094   3.324  0.1390 -0.2119 -0.2791
    1DIPC   PO416514   2.396  21.660   3.362  0.1153 -0.2292 -0.2577
    1DIPC   GL116515   2.342  21.455   3.778  0.1923  0.2323  0.1045
    1DIPC   GL216516   2.631  21.500   3.808 -0.0508  0.2557 -0.1644
    1DIPC   C1A16517   2.164  21.433   4.183  0.0572  0.0002 -0.1721
    1DIPC   D2A16518   2.026  21.755   4.553  0.0315 -0.0674  0.1073
    1DIPC   D3A16519   1.821  21.408   4.561  0.2292 -0.0383  0.1668
    1DIPC   C4A16520   2.116  20.949   4.694 -0.1364  0.2297  0.2127
    1DIPC   C1B16521   2.681  21.392   4.215  0.2867 -0.1537 -0.1252
    1DIPC   D2B16522   3.017  21.422   4.516  0.1900 -0.3318  0.2196
    1DIPC   D3B16523   2.976  21.030   4.808 -0.1507 -0.0667  0.1635
    1DIPC   C4B16524   3.340  20.840   5.056 -0.0934  0.1609  0.3075
    1DIPC   NC316525  16.828   4.845   3.025 -0.1953  0.0498  0.0530
    1DIPC   PO416526  17.044   4.937   3.390 -0.2209  0.3932 -0.0703
    1DIPC   GL116527  17.070   4.928   3.861 -0.0766  0.0199  0.0267
    1DIPC   GL216528  17.186   5.184   4.038 -0.0182  0.2804  0.1191
    1DIPC   C1A16529  17.121   4.767   4.324 -0.0666 -0.2645 -0.2117
    1DIPC   D2A16530  17.232   4.687   4.685 -0.0046 -0.2520  0.0045
    1DIPC   D3A16531  17.155   4.455   5.133 -0.3911  0.0342  0.0797
    1DIPC   C4A16532  16.765   4.181   5.189  0.0261  0.1964 -0.1163
    1DIPC   C1B16533  17.166   5.556   4.204  0.0519 -0.3024  0.2210
    1DIPC   D2B16534  16.900   5.933   4.268 -0.0165 -0.3953  0.0174
    1DIPC   D3B16535  17.068   6.390   4.224 -0.2728 -0.0409  0.1964
    1DIPC   C4B16536  16.784   6.678   4.411  0.2785 -0.1914 -0.2618
    1DIPC   NC316537  24.384  24.596   2.570 -0.1225 -0.2558  0.0794
    1DIPC   PO416538  24.403  24.298   2.941  0.1518  0.0293  0.3002
    1DIPC   GL116539  24.400  23.987   3.353  0.1637 -0.1949 -0.1108
    1DIPC   GL216540  24.683  23.794   3.506 -0.1154 -0.0948 -0.1547
    1DIPC   C1A16541  24.378  24.018   3.884 -0.0059  0.0818 -0.1140
    1DIPC   D2A16542  24.587  24.213   4.215  0.1187  0.2342 -0.0350
    1DIPC   D3A16543  24.251  24.113   4.489  0.4850  0.2909 -0.0080
    1DIPC   C4A16544  24.197  24.398   4.847  0.1522 -0.1560 -0.2430
    1DIPC   C1B16545  24.830  24.168   3.748  0.4982 -0.0551  0.1397
    1DIPC   D2B16546  25.116  24.318   4.083 -0.4940 -0.4242 -0.1403
    1DIPC   D3B16547  25.078  24.288   4.561  0.1300  0.0231 -0.2290
    1DIPC   C4B16548  24.692  23.981   4.676 -0.0898  0.2555  0.1625
    1DIPC   NC316549   7.037   9.930   3.519  0.0441 -0.0144  0.1444
    1DIPC   PO416550   6.573  10.066   3.397 -0.1150  0.2424  0.0761
    1DIPC   GL116551   6.508  10.410   3.691  0.0456  0.1262 -0.3632
    1DIPC   GL216552   6.290  10.299   3.784 -0.0230 -0.0924  0.0035
    1DIPC   C1A16553   6.552  10.606   4.083  0.2333 -0.0441 -0.1448
    1DIPC   D2A16554   6.250  10.629   4.431 -0.0029  0.0635 -0.0304
    1DIPC   D3A16555   6.374  10.768   4.784 -0.0353  0.3819  0.0044
    1DIPC   C4A16556   6.502  10.417   4.985  0.0849 -0.1289  0.0796
    1DIPC   C1B16557   6.187  10.180   4.210 -0.2551  0.3223  0.3220
    1DIPC   D2B16558   6.359  10.178   4.599  0.2780 -0.1044  0.0560
    1DIPC   D3B16559   6.035  10.381   4.890  0.0269  0.0110 -0.1564
    1DIPC   C4B16560   6.132  10.498   5.269  0.0630 -0.0924  0.2077
    1DIPC   NC316561   7.089  24.342   2.361 -0.1189  0.0735  0.0426
    1DIPC   PO416562   6.998  24.478   2.807 -0.0434 -0.2357 -0.1835
    1DIPC   GL116563   6.727  24.637   3.087  0.0814  0.0066 -0.0416
    1DIPC   GL216564   6.881  24.741   3.344  0.3831  0.1880  0.0864
    1DIPC   C1A16565   6.435  24.667   3.505 -0.0254  0.1632  0.2791
    1DIPC   D2A16566   6.244  24.745   3.981 -0.0591 -0.0259  0.1775
    1DIPC   D3A16567   6.164  24.743   4.400 -0.0173  0.0148  0.0584
    1DIPC   C4A16568   6.357  24.426   4.627  0.1475  0.2213  0.0762
    1DIPC   C1B16569   6.961  24.764   3.884 -0.0401 -0.0548  0.1479
    1DIPC   D2B16570   6.678  24.529   4.229 -0.0785 -0.1834  0.4636
    1DIPC   D3B16571   6.893  24.489   4.574  0.0409 -0.2651  0.1791
    1DIPC   C4B16572   7.172  24.134   4.673  0.3641  0.0073 -0.1281
    1DIPC   NC316573   1.177   0.500   2.449  0.0843  0.0874  0.0133
    1DIPC   PO416574   0.871   0.224   2.718  0.0474 -0.0699 -0.2980
    1DIPC   GL116575   0.858   0.250   3.162 -0.0710 -0.1304  0.4728
    1DIPC   GL216576   0.621   0.253   3.344  0.0256 -0.1418 -0.2737
    1DIPC   C1A16577   1.117   0.382   3.548 -0.0634 -0.1133  0.1022
    1DIPC   D2A16578   1.140   0.647   3.871 -0.1851  0.2679  0.2653
    1DIPC   D3A16579   1.559   0.538   4.007  0.3427 -0.1100 -0.3105
    1DIPC   C4A16580   1.670   0.692   4.387  0.2832 -0.1673 -0.0489
    1DIPC   C1B16581   0.609   0.141   3.804 -0.1735  0.0341  0.0104
    1DIPC   D2B16582   0.666   0.243   4.159  0.0221 -0.0165  0.4154
    1DIPC   D3B16583   0.999   0.237   4.040 -0.0818 -0.2167 -0.0033
    1DIPC   C4B16584   1.228   0.292   4.344  0.0269 -0.1532 -0.2618
    1DIPC   NC316585  26.407  16.642   2.642  0.0544  0.0895  0.0322
    1DIPC   PO416586  26.080  16.949   2.776  0.2473  0.2650 -0.2601
    1DIPC   GL116587  25.988  17.047   3.137 -0.1849 -0.3239 -0.0683
    1DIPC   GL216588  25.643  17.184   3.155  0.0243 -0.0601 -0.3942
    1DIPC   C1A16589  26.116  17.059   3.586 -0.1364 -0.0034 -0.2749
    1DIPC   D2A16590  26.144  17.032   4.102  0.3631  0.1474 -0.1115
    1DIPC   D3A16591  26.043  17.463   4.119  0.1810  0.1175 -0.1698
    1DIPC   C4A16592  25.861  17.650   4.564 -0.2135  0.2146 -0.2116
    1DIPC   C1B16593  25.434  17.024   3.528  0.0855 -0.3117  0.2630
    1DIPC   D2B16594  25.077  16.960   3.745  0.0316  0.2930 -0.2285
    1DIPC   D3B16595  25.366  16.585   3.889  0.1384  0.1145  0.2484
    1DIPC   C4B16596  25.204  16.234   4.107  0.0461  0.1519  0.1509
    1DIPC   NC316597   4.103  20.742   3.519  0.1904 -0.0497  0.1278
    1DIPC   PO416598   4.340  20.447   3.551  0.4097  0.6581 -0.1679
    1DIPC   GL116599   4.352  20.560   3.916  0.2678 -0.1233  0.0381
    1DIPC   GL216600   3.965  20.480   3.976  0.1734 -0.1046  0.0088
    1DIPC   C1A16601   4.461  20.383   4.338 -0.0717 -0.1330 -0.2266
    1DIPC   D2A16602   4.548  20.411   4.744  0.1185 -0.0254  0.3196
    1DIPC   D3A16603   4.203  20.454   4.999  0.0709  0.0114 -0.1739
    1DIPC   C4A16604   4.336  20.416   5.505 -0.0839  0.3346  0.3792
    1DIPC   C1B16605   4.024  20.631   4.391 -0.0316  0.0706 -0.0331
    1DIPC   D2B16606   3.906  20.876   4.824  0.2177 -0.2681 -0.2179
    1DIPC   D3B16607   3.727  21.174   5.155 -0.1389 -0.2224 -0.0449
    1DIPC   C4B16608   3.705  21.627   5.369 -0.1635  0.1856  0.1224
    1DIPC   NC316609   4.664  19.954   3.635  0.1590 -0.0748  0.0568
    1DIPC   PO416610   4.670  19.513   3.532 -0.1460  0.0714 -0.0094
    1DIPC   GL116611   4.665  19.579   3.924 -0.0344  0.2555 -0.1685
    1DIPC   GL216612   4.884  19.741   3.984  0.0653  0.1869 -0.0248
    1DIPC   C1A16613   4.456  19.762   4.332 -0.4248  0.0382 -0.3782
    1DIPC   D2A16614   4.344  19.927   4.689  0.1732  0.0592  0.0047
    1DIPC   D3A16615   4.366  19.959   5.102 -0.0739 -0.2392  0.1868
    1DIPC   C4A16616   4.013  20.083   5.324 -0.0581 -0.2085 -0.3321
    1DIPC   C1B16617   4.904  19.589   4.492 -0.1398  0.2781 -0.0083
    1DIPC   D2B16618   4.584  19.488   4.863  0.2791  0.1571 -0.2439
    1DIPC   D3B16619   4.744  19.155   4.956 -0.2997 -0.1147 -0.0141
    1DIPC   C4B16620   4.702  18.965   5.358  0.0995  0.0456  0.1047
    1DIPC   NC316621  14.961   2.227   3.558  0.2341  0.0599 -0.0333
    1DIPC   PO416622  15.026   2.070   3.919  0.0200 -0.0650 -0.0527
    1DIPC   GL116623  15.076   1.961   4.336  0.0999 -0.2143  0.2248
    1DIPC   GL216624  15.407   1.948   4.501 -0.2089 -0.0303 -0.3533
    1DIPC   C1A16625  14.786   1.962   4.610  0.0613  0.1854 -0.0007
    1DIPC   D2A16626  14.613   2.077   5.066 -0.0632  0.2238  0.1040
    1DIPC   D3A16627  14.757   1.687   5.125 -0.0518 -0.1558  0.0066
    1DIPC   C4A16628  15.074   1.510   5.529  0.1783  0.1106 -0.1733
    1DIPC   C1B16629  15.666   1.799   4.834  0.0200  0.1665 -0.4865
    1DIPC   D2B16630  15.942   1.997   5.130  0.2471 -0.0671  0.1063
    1DIPC   D3B16631  15.873   2.381   5.475  0.1992 -0.0064 -0.2028
    1DIPC   C4B16632  16.045   2.266   5.863 -0.0497 -0.0516  0.0396
    1DIPC   NC316633  27.568   8.829   2.909 -0.0815  0.1936  0.0385
    1DIPC   PO416634  27.658   8.485   2.671 -0.1684 -0.0805  0.1510
    1DIPC   GL116635  27.704   8.347   3.039 -0.0912 -0.3023 -0.0417
    1DIPC   GL216636  27.924   8.114   2.912 -0.2792  0.0099 -0.3197
    1DIPC   C1A16637  27.833   8.355   3.439 -0.0295 -0.1377  0.2509
    1DIPC   D2A16638  28.013   8.072   3.674 -0.4440  0.0484  0.3792
    1DIPC   D3A16639  27.781   8.232   3.944  0.0080  0.1281  0.0828
    1DIPC   C4A16640  27.874   8.571   4.246  0.0180  0.2303 -0.0411
    1DIPC   C1B16641  27.892   7.847   3.220  0.0647 -0.0128 -0.1257
    1DIPC   D2B16642  28.022   7.462   3.564  0.0519 -0.0671 -0.2010
    1DIPC   D3B16643   0.159   7.660   3.703 -0.2243 -0.0455 -0.0723
    1DIPC   C4B16644   0.012   7.847   4.102 -0.0069 -0.2412 -0.0522
    1DIPC   NC316645  14.499   6.505   3.273 -0.0326  0.1824 -0.0647
    1DIPC   PO416646  14.259   6.346   3.549  0.1632  0.2050  0.0695
    1DIPC   GL116647  14.387   6.284   4.054  0.0393  0.2232 -0.3619
    1DIPC   GL216648  14.260   6.519   4.135  0.1583  0.0507 -0.2061
    1DIPC   C1A16649  14.490   6.003   4.411 -0.1546 -0.1780 -0.0174
    1DIPC   D2A16650  14.198   5.785   4.669  0.0143 -0.1757 -0.1280
    1DIPC   D3A16651  14.546   5.730   4.844  0.0764 -0.0882 -0.1472
    1DIPC   C4A16652  14.575   5.406   5.104 -0.0691  0.0048  0.0608
    1DIPC   C1B16653  14.253   6.609   4.596  0.1781  0.0670 -0.1179
    1DIPC   D2B16654  14.404   6.277   4.868  0.2424  0.0665 -0.0165
    1DIPC   D3B16655  14.145   6.056   5.216  0.1012  0.1058 -0.1518
    1DIPC   C4B16656  13.751   6.063   5.181  0.1465  0.1733 -0.2649
    1DIPC   NC316657  23.784  23.579   2.537  0.1635  0.1289  0.3281
    1DIPC   PO416658  23.684  23.358   2.909 -0.1629 -0.0223  0.1860
    1DIPC   GL116659  23.533  23.187   3.397 -0.2460  0.0054  0.0947
    1DIPC   GL216660  23.587  23.404   3.629 -0.0323  0.1182  0.0806
    1DIPC   C1A16661  23.280  22.968   3.596  0.2367 -0.1002 -0.1619
    1DIPC   D2A16662  22.733  22.848   3.754  0.2810  0.2216  0.0549
    1DIPC   D3A16663  22.649  22.842   4.263  0.0021  0.2174  0.2059
    1DIPC   C4A16664  22.969  22.723   4.584  0.0226  0.2417  0.1661
    1DIPC   C1B16665  23.487  23.568   4.073 -0.0568 -0.0324  0.0563
    1DIPC   D2B16666  23.626  23.655   4.572  0.1470 -0.2304 -0.1616
    1DIPC   D3B16667  23.756  23.249   4.524 -0.1994 -0.2450 -0.1320
    1DIPC   C4B16668  23.578  22.792   4.506  0.2481 -0.0407  0.1779
    1DIPC   NC316669  17.948   2.524   3.219  0.3559  0.1137  0.2734
    1DIPC   PO416670  17.768   2.884   3.538  0.2741 -0.2867  0.0480
    1DIPC   GL116671  18.008   3.120   3.831  0.1628  0.0573  0.0080
    1DIPC   GL216672  17.783   3.324   3.965 -0.0189 -0.5154 -0.0200
    1DIPC   C1A16673  18.228   2.888   4.196  0.0213 -0.1062 -0.3614
    1DIPC   D2A16674  18.106   2.725   4.628 -0.1667 -0.0405 -0.2251
    1DIPC   D3A16675  17.815   2.839   4.961  0.3035 -0.2478 -0.2012
    1DIPC   C4A16676  17.775   2.618   5.280  0.1449 -0.0269  0.0664
    1DIPC   C1B16677  17.538   3.386   4.254  0.1476  0.1217  0.0361
    1DIPC   D2B16678  17.065   3.433   4.495  0.0982 -0.2419 -0.0678
    1DIPC   D3B16679  16.633   3.477   4.766  0.2087 -0.3720 -0.3049
    1DIPC   C4B16680  16.505   3.137   5.120 -0.3771  0.0349  0.0903
    1DIPC   NC316681  25.131  28.089   3.105  0.2372 -0.0683  0.3941
    1DIPC   PO416682  24.935   0.207   3.427 -0.0221  0.0467  0.2322
    1DIPC   GL116683  24.527   0.223   3.583  0.1174  0.2982  0.0829
    1DIPC   GL216684  24.640   0.245   3.911 -0.0597 -0.2898 -0.1196
    1DIPC   C1A16685  24.351   0.619   3.787  0.0146 -0.7212 -0.1256
    1DIPC   D2A16686  24.067   0.817   4.107  0.2753 -0.3803  0.1754
    1DIPC   D3A16687  23.762   0.536   4.388  0.0146 -0.1293  0.0651
    1DIPC   C4A16688  23.766   0.513   4.794 -0.2294 -0.1468 -0.1054
    1DIPC   C1B16689  24.538   0.078   4.298  0.0547  0.0170  0.0162
    1DIPC   D2B16690  24.555  27.827   4.603 -0.2902 -0.1551 -0.0764
    1DIPC   D3B16691  24.364  28.022   4.917 -0.0508 -0.0363 -0.1248
    1DIPC   C4B16692  24.120  27.727   4.959  0.2496 -0.1532 -0.0268
    1DIPC   NC316693   3.409  19.411   3.101  0.1059  0.0263  0.1679
    1DIPC   PO416694   3.604  19.324   3.503  0.0396 -0.0080  0.2310
    1DIPC   GL116695   3.363  19.273   3.872  0.1201 -0.2300 -0.0417
    1DIPC   GL216696   3.007  19.309   3.851  0.0476  0.1388 -0.4074
    1DIPC   C1A16697   3.195  19.370   4.301  0.0606  0.1500 -0.0896
    1DIPC   D2A16698   2.819  19.540   4.465  0.2522  0.0067 -0.0630
    1DIPC   D3A16699   2.930  19.320   4.844 -0.2192  0.0360  0.1518
    1DIPC   C4A16700   2.816  19.271   5.255  0.0586  0.2656  0.1102
    1DIPC   C1B16701   3.071  18.868   3.864  0.0260 -0.2964  0.0720
    1DIPC   D2B16702   2.783  18.630   3.996  0.1145  0.2258  0.3232
    1DIPC   D3B16703   2.867  18.939   4.317  0.1278 -0.1680 -0.0825
    1DIPC   C4B16704   2.509  19.081   4.580 -0.1398  0.2657  0.0984
    1DIPC   NC316705   0.901  12.823   2.601 -0.0634  0.0858 -0.0219
    1DIPC   PO416706   0.686  13.014   3.016  0.0043  0.0830 -0.3122
    1DIPC   GL116707   0.629  12.919   3.384  0.0687  0.1426  0.1082
    1DIPC   GL216708   0.845  13.056   3.519  0.2255 -0.2241  0.0411
    1DIPC   C1A16709   0.502  12.905   3.796  0.1806 -0.0826  0.1591
    1DIPC   D2A16710   0.423  12.830   4.162 -0.3588 -0.0724  0.1937
    1DIPC   D3A16711   0.580  13.207   4.224  0.0450 -0.0578  0.1339
    1DIPC   C4A16712   0.864  13.414   4.500  0.4342 -0.0705 -0.0754
    1DIPC   C1B16713   1.109  12.945   3.706  0.0034  0.0722  0.2859
    1DIPC   D2B16714   1.479  13.016   3.874  0.1596  0.0680 -0.3719
    1DIPC   D3B16715   1.503  12.694   4.159  0.0149 -0.2756  0.3076
    1DIPC   C4B16716   1.746  12.588   4.407  0.2709  0.1070  0.1429
    1DIPC   NC316717  14.157   6.881   3.713 -0.1931  0.0953  0.0252
    1DIPC   PO416718  13.940   7.250   3.706  0.1012 -0.0629  0.6008
    1DIPC   GL116719  13.734   6.990   3.958  0.0656  0.1495 -0.0131
    1DIPC   GL216720  13.789   7.224   4.215  0.0744 -0.0798 -0.0308
    1DIPC   C1A16721  13.799   6.600   4.234  0.2696 -0.0701 -0.0700
    1DIPC   D2A16722  13.993   6.216   4.463 -0.1893 -0.1368 -0.2039
    1DIPC   D3A16723  13.878   6.360   4.850 -0.0327  0.0508  0.1722
    1DIPC   C4A16724  13.761   6.777   5.055 -0.4176 -0.0317 -0.0249
    1DIPC   C1B16725  14.100   7.509   4.466  0.2529 -0.2967  0.0611
    1DIPC   D2B16726  14.374   7.791   4.610  0.0883  0.0053 -0.3186
    1DIPC   D3B16727  13.987   7.746   4.936  0.1406  0.0834 -0.0878
    1DIPC   C4B16728  13.669   7.512   4.804  0.0265 -0.1277 -0.4120
    1DIPC   NC316729  24.361  10.217   3.079  0.3597  0.1162  0.2123
    1DIPC   PO416730  24.506   9.834   3.010  0.0658 -0.0240  0.0316
    1DIPC   GL116731  24.566   9.811   3.459  0.1491  0.0062  0.3017
    1DIPC   GL216732  24.379   9.485   3.450 -0.0173 -0.0186 -0.0035
    1DIPC   C1A16733  24.668   9.607   3.842 -0.1036  0.0187  0.2125
    1DIPC   D2A16734  24.482   9.649   4.249  0.2279 -0.2860  0.0075
    1DIPC   D3A16735  24.445   9.865   4.684 -0.0954 -0.0825  0.1356
    1DIPC   C4A16736  24.398   9.664   4.978  0.1696  0.1182  0.1847
    1DIPC   C1B16737  24.361   9.250   3.898 -0.1757  0.0758  0.2444
    1DIPC   D2B16738  24.692   9.179   4.137 -0.3542 -0.0398 -0.0765
    1DIPC   D3B16739  24.418   9.189   4.424 -0.0815  0.3004 -0.0467
    1DIPC   C4B16740  24.660   9.341   4.699  0.0373 -0.1587 -0.0443
    1DIPC   NC316741   1.050  27.013   2.742  0.0446  0.4038  0.1208
    1DIPC   PO416742   1.005  26.570   2.862  0.0534  0.0248 -0.0565
    1DIPC   GL116743   1.086  26.313   3.279  0.1651 -0.2100 -0.0072
    1DIPC   GL216744   1.230  26.527   3.528  0.0119 -0.1551 -0.3787
    1DIPC   C1A16745   0.790  26.231   3.522 -0.1632 -0.1755 -0.0958
    1DIPC   D2A16746   0.684  26.214   3.844  0.0142 -0.2895  0.0412
    1DIPC   D3A16747   0.683  26.150   4.312  0.4090 -0.0207  0.2067
    1DIPC   C4A16748   0.442  25.970   4.619  0.0801  0.1563  0.2360
    1DIPC   C1B16749   1.162  26.550   3.905  0.0513  0.0998 -0.0538
    1DIPC   D2B16750   1.054  26.478   4.322 -0.2329  0.0172 -0.2044
    1DIPC   D3B16751   0.935  26.740   4.652 -0.1663 -0.0352 -0.0883
    1DIPC   C4B16752   0.629  26.728   4.928 -0.0768 -0.0631  0.2549
    1DIPC   NC316753  13.916  23.641   2.737  0.1038  0.0358  0.1958
    1DIPC   PO416754  13.552  23.906   3.079  0.1225  0.1927 -0.0261
    1DIPC   GL116755  13.436  23.989   3.541  0.0676 -0.0197  0.0343
    1DIPC   GL216756  13.593  23.800   3.618  0.2584  0.0004 -0.1412
    1DIPC   C1A16757  13.355  24.143   4.018  0.0003 -0.0112  0.2772
    1DIPC   D2A16758  13.180  24.276   4.454 -0.1058 -0.0982  0.0959
    1DIPC   D3A16759  13.073  24.531   4.140  0.1464  0.3338 -0.3949
    1DIPC   C4A16760  12.706  24.699   4.184  0.2093  0.0292 -0.0467
    1DIPC   C1B16761  13.651  23.755   4.050 -0.1112 -0.0984 -0.0722
    1DIPC   D2B16762  13.349  23.720   4.507 -0.1321 -0.0364 -0.0101
    1DIPC   D3B16763  13.456  23.365   4.755 -0.0837  0.1724  0.0931
    1DIPC   C4B16764  13.751  23.273   4.453 -0.1701 -0.1889 -0.0573
    1DIPC   NC316765   9.455  27.380   3.128  0.2135 -0.1508  0.2509
    1DIPC   PO416766   8.966  27.554   2.984 -0.1906  0.1616 -0.1955
    1DIPC   GL116767   8.923  27.547   3.401 -0.0063  0.0683 -0.1058
    1DIPC   GL216768   8.973  27.248   3.505  0.2298  0.0248  0.1569
    1DIPC   C1A16769   8.601  27.658   3.573  0.0025  0.1176 -0.1625
    1DIPC   D2A16770   8.571  27.933   3.877  0.0445  0.1536 -0.0104
    1DIPC   D3A16771   8.671  27.679   4.099 -0.2020  0.0129  0.1056
    1DIPC   C4A16772   8.595  27.318   3.865 -0.2937  0.1073 -0.2341
    1DIPC   C1B16773   9.149  27.531   3.913 -0.0565 -0.2614 -0.2825
    1DIPC   D2B16774   9.456  27.685   4.268 -0.0245 -0.1193  0.1827
    1DIPC   D3B16775   9.484  28.069   4.384 -0.1940 -0.0171 -0.2687
    1DIPC   C4B16776   9.748   0.079   4.560  0.2064  0.1594  0.1837
    1DIPC   NC316777  25.764  24.067   2.709  0.1861 -0.3724 -0.0225
    1DIPC   PO416778  25.559  24.428   2.784 -0.0403  0.0095 -0.0336
    1DIPC   GL116779  25.470  24.234   3.240  0.1383  0.0118 -0.0856
    1DIPC   GL216780  25.185  24.002   3.458 -0.4281  0.0667  0.1688
    1DIPC   C1A16781  25.249  24.452   3.635  0.1766  0.0261  0.0368
    1DIPC   D2A16782  25.094  24.817   3.968 -0.0591  0.1118 -0.5081
    1DIPC   D3A16783  25.072  25.132   4.266 -0.1503  0.2159 -0.0258
    1DIPC   C4A16784  24.822  25.513   4.192  0.1595  0.1530 -0.0004
    1DIPC   C1B16785  25.161  23.796   3.896 -0.1176  0.1330  0.2521
    1DIPC   D2B16786  24.948  23.860   4.247  0.0062  0.0247 -0.2159
    1DIPC   D3B16787  25.421  23.905   4.378  0.1348  0.0265 -0.2774
    1DIPC   C4B16788  25.723  24.207   4.557  0.0300  0.0852  0.1499
    1DIPC   NC316789  11.885  20.936   3.311  0.0518  0.0196  0.0037
    1DIPC   PO416790  11.694  21.265   3.511  0.0320 -0.1485  0.0138
    1DIPC   GL116791  11.518  21.593   3.856  0.1693 -0.1343  0.1560
    1DIPC   GL216792  11.644  21.486   4.062 -0.1402  0.0740 -0.1593
    1DIPC   C1A16793  11.217  21.861   4.107  0.1651 -0.2608  0.0562
    1DIPC   D2A16794  10.886  22.155   4.066 -0.1710 -0.0546 -0.2366
    1DIPC   D3A16795  10.500  22.224   4.401  0.1158  0.2525  0.3903
    1DIPC   C4A16796  10.586  22.492   4.661 -0.2071 -0.0791 -0.2860
    1DIPC   C1B16797  11.537  21.732   4.423  0.0283  0.2456 -0.0005
    1DIPC   D2B16798  11.783  21.859   4.655 -0.0835 -0.0746 -0.0366
    1DIPC   D3B16799  11.495  22.196   4.673  0.1258  0.1592 -0.2448
    1DIPC   C4B16800  11.496  22.429   5.081  0.0564 -0.1904  0.0895
    1DIPC   NC316801   6.707   7.051   3.145 -0.4426  0.1940 -0.0925
    1DIPC   PO416802   6.611   7.490   3.297 -0.1155 -0.0590 -0.2457
    1DIPC   GL116803   6.446   7.487   3.763  0.4183  0.3101 -0.0878
    1DIPC   GL216804   6.079   7.457   3.554 -0.0215 -0.1730  0.0939
    1DIPC   C1A16805   6.214   7.659   4.058 -0.1268  0.0347 -0.0435
    1DIPC   D2A16806   6.151   7.320   4.399 -0.0045 -0.1178 -0.2075
    1DIPC   D3A16807   5.853   7.347   4.688  0.0893  0.1571  0.0143
    1DIPC   C4A16808   5.920   7.273   5.206 -0.0024 -0.0071  0.2139
    1DIPC   C1B16809   6.038   7.185   3.932 -0.0329  0.1359  0.1300
    1DIPC   D2B16810   5.827   6.905   4.219  0.1372  0.0149  0.0094
    1DIPC   D3B16811   6.096   6.695   4.445  0.0050  0.1512  0.1915
    1DIPC   C4B16812   6.470   6.956   4.419  0.3275  0.2676  0.0175
    1DIPC   NC316813  21.201  23.633   3.595 -0.0904  0.0493 -0.0371
    1DIPC   PO416814  21.632  23.420   3.792  0.0768 -0.0324 -0.0223
    1DIPC   GL116815  21.734  23.200   4.131  0.0628 -0.0414 -0.0063
    1DIPC   GL216816  21.385  23.155   4.222  0.0744  0.1701 -0.3219
    1DIPC   C1A16817  21.759  23.167   4.572  0.0863  0.1083  0.0812
    1DIPC   D2A16818  21.638  23.188   5.004 -0.0557  0.0510 -0.1098
    1DIPC   D3A16819  21.922  22.919   4.946  0.1205  0.0070 -0.1007
    1DIPC   C4A16820  22.127  22.601   5.138 -0.2119  0.2542  0.1259
    1DIPC   C1B16821  21.277  22.784   4.305 -0.0593  0.3845  0.0916
    1DIPC   D2B16822  21.417  22.810   4.707  0.0326 -0.1255 -0.3037
    1DIPC   D3B16823  21.107  23.020   4.923  0.0991  0.0903  0.4427
    1DIPC   C4B16824  21.283  23.161   5.302  0.4764  0.3618  0.0193
    1DIPC   NC316825   8.671  25.902   3.249  0.1265  0.1410 -0.0410
    1DIPC   PO416826   8.984  25.573   3.301  0.2750 -0.2297 -0.0839
    1DIPC   GL116827   8.929  25.559   3.767  0.1463 -0.1769 -0.2666
    1DIPC   GL216828   9.272  25.585   3.808 -0.3980 -0.0837  0.1544
    1DIPC   C1A16829   8.682  25.424   4.131 -0.3675  0.0690 -0.3039
    1DIPC   D2A16830   8.718  25.290   4.517 -0.0285  0.1057  0.0296
    1DIPC   D3A16831   8.318  25.260   4.550  0.2150  0.1072 -0.1686
    1DIPC   C4A16832   7.993  25.216   4.890 -0.0031  0.0314  0.2271
    1DIPC   C1B16833   9.514  25.719   4.106 -0.3229 -0.0588  0.3488
    1DIPC   D2B16834   9.395  25.863   4.499 -0.2092  0.0850 -0.1477
    1DIPC   D3B16835   9.357  26.294   4.296  0.0219  0.2094 -0.0888
    1DIPC   C4B16836   9.679  26.600   4.352  0.0665  0.2744 -0.3082
    1DIPC   NC316837   1.456  26.566   3.080  0.2604 -0.1445 -0.1377
    1DIPC   PO416838   1.376  26.920   3.143 -0.2327 -0.2526  0.2258
    1DIPC   GL116839   1.660  26.820   3.497  0.1839 -0.1542  0.3539
    1DIPC   GL216840   1.914  26.976   3.626  0.1421 -0.0559  0.0957
    1DIPC   C1A16841   1.603  26.762   3.928  0.0467  0.0554 -0.1403
    1DIPC   D2A16842   1.777  27.016   4.191 -0.1666  0.0591 -0.2110
    1DIPC   D3A16843   2.030  26.798   4.492 -0.0329  0.3531  0.0463
    1DIPC   C4A16844   2.009  26.497   4.861 -0.0458 -0.0350 -0.1527
    1DIPC   C1B16845   1.700  27.337   3.768 -0.2098 -0.1464 -0.0628
    1DIPC   D2B16846   1.626  27.758   3.588  0.2402 -0.0827 -0.3097
    1DIPC   D3B16847   1.502  28.062   4.013 -0.0190 -0.0847  0.1569
    1DIPC   C4B16848   1.310  27.925   4.361  0.0034  0.2301  0.0341
    1DIPC   NC316849  10.418  19.611   3.152 -0.0589 -0.1310  0.1164
    1DIPC   PO416850  10.141  19.389   3.370  0.4396  0.0006  0.1071
    1DIPC   GL116851  10.252  19.357   3.823  0.1443 -0.1090  0.0836
    1DIPC   GL216852  10.154  19.101   3.978  0.3476 -0.1096  0.0411
    1DIPC   C1A16853  10.499  19.545   4.139  0.0640 -0.2785 -0.4186
    1DIPC   D2A16854  10.775  19.920   4.349 -0.2002 -0.2900 -0.1409
    1DIPC   D3A16855  10.668  20.046   4.593 -0.3715  0.1973  0.0865
    1DIPC   C4A16856  10.443  19.815   4.961 -0.0109  0.2059 -0.0303
    1DIPC   C1B16857  10.095  19.244   4.277 -0.1599  0.2564  0.1722
    1DIPC   D2B16858  10.309  19.480   4.641  0.1916 -0.0919  0.5333
    1DIPC   D3B16859  10.199  19.286   4.978  0.1572  0.0376  0.0801
    1DIPC   C4B16860  10.404  19.362   5.213 -0.0813 -0.0273 -0.1208
    1DIPC   NC316861   9.428  23.190   3.357  0.2675 -0.0735 -0.1930
    1DIPC   PO416862   9.050  22.968   3.385 -0.1180 -0.2038 -0.2468
    1DIPC   GL116863   9.139  23.032   3.788  0.0409  0.2411 -0.1431
    1DIPC   GL216864   9.380  22.826   3.976  0.2097  0.0557 -0.3119
    1DIPC   C1A16865   8.807  22.968   4.075  0.0057  0.1484  0.2595
    1DIPC   D2A16866   8.345  22.858   3.973  0.0592  0.2672  0.1388
    1DIPC   D3A16867   8.162  23.046   4.290  0.0051  0.0918  0.0769
    1DIPC   C4A16868   7.772  23.112   4.204  0.2653  0.1629  0.2081
    1DIPC   C1B16869   9.293  22.831   4.452 -0.0531 -0.0273 -0.0851
    1DIPC   D2B16870   9.112  22.605   4.662 -0.0192  0.0895 -0.1923
    1DIPC   D3B16871   9.274  22.595   5.083  0.3503 -0.0247  0.2133
    1DIPC   C4B16872   9.439  22.736   5.476 -0.0791 -0.0039  0.1622
    1DIPC   NC316873  27.516   6.684   1.801 -0.1734 -0.3756  0.0962
    1DIPC   PO416874  27.360   7.035   2.101 -0.0781 -0.2702  0.0687
    1DIPC   GL116875  27.569   7.019   2.539 -0.1817 -0.2970 -0.2158
    1DIPC   GL216876  27.339   6.831   2.759  0.0755 -0.1117 -0.2538
    1DIPC   C1A16877  27.842   6.932   2.861  0.0107 -0.0436  0.1040
    1DIPC   D2A16878   0.147   6.944   2.972  0.0682 -0.3098 -0.0673
    1DIPC   D3A16879   0.271   6.698   3.294  0.1997  0.0155  0.2067
    1DIPC   C4A16880   0.559   6.809   3.556 -0.2183  0.0835 -0.1385
    1DIPC   C1B16881  27.256   6.700   3.066 -0.2136 -0.0566 -0.1505
    1DIPC   D2B16882  27.155   6.326   3.238  0.0626  0.1289  0.3610
    1DIPC   D3B16883  26.839   6.116   3.404 -0.5558  0.0193 -0.0567
    1DIPC   C4B16884  26.645   6.155   3.793 -0.0343  0.2089  0.0052
    1DIPC   NC316885  18.022  17.674   3.937  0.0944 -0.0651  0.0810
    1DIPC   PO416886  17.624  17.871   4.191 -0.1091 -0.2062  0.0699
    1DIPC   GL116887  17.463  17.996   4.516 -0.0579 -0.0124 -0.0809
    1DIPC   GL216888  17.269  18.152   4.527  0.1238  0.0705  0.0646
    1DIPC   C1A16889  17.365  17.930   5.023 -0.0335  0.2070  0.1737
    1DIPC   D2A16890  17.641  17.837   5.402  0.2338  0.1309  0.0611
    1DIPC   D3A16891  17.857  17.576   5.116 -0.0411 -0.0586 -0.2071
    1DIPC   C4A16892  18.128  17.828   4.838 -0.1957  0.2193  0.1510
    1DIPC   C1B16893  17.285  18.406   4.797 -0.0403  0.0971 -0.0924
    1DIPC   D2B16894  16.993  18.607   5.174 -0.1148  0.4483  0.1346
    1DIPC   D3B16895  16.865  18.333   5.580 -0.0542 -0.0135  0.1978
    1DIPC   C4B16896  17.303  18.150   5.760 -0.2144  0.2173  0.0789
    1DIPC   NC316897   4.582   5.704   1.713  0.0861  0.0383 -0.1832
    1DIPC   PO416898   4.375   5.970   1.944 -0.1343  0.2111 -0.0144
    1DIPC   GL116899   4.091   6.054   2.286 -0.3090 -0.2595 -0.2895
    1DIPC   GL216900   3.786   6.113   2.285 -0.3810  0.0057  0.2621
    1DIPC   C1A16901   4.026   6.375   2.620  0.3861 -0.0337  0.0961
    1DIPC   D2A16902   3.867   6.507   3.045 -0.3004  0.3726 -0.1285
    1DIPC   D3A16903   3.664   6.195   3.151  0.0493  0.2808  0.3070
    1DIPC   C4A16904   3.722   5.800   3.470  0.2643  0.0336  0.0989
    1DIPC   C1B16905   3.902   5.764   2.644  0.2474 -0.0386 -0.0253
    1DIPC   D2B16906   3.989   5.765   3.027  0.0802 -0.2475  0.0922
    1DIPC   D3B16907   4.144   6.022   3.388  0.2034 -0.0272  0.1367
    1DIPC   C4B16908   4.059   5.919   3.824  0.1753  0.1760 -0.1524
    1DIPC   NC316909   8.352  23.600   3.425 -0.1387 -0.3355 -0.0151
    1DIPC   PO416910   7.989  23.796   3.291 -0.3743 -0.1564  0.2500
    1DIPC   GL116911   7.894  23.610   3.641  0.0173 -0.0263  0.1608
    1DIPC   GL216912   7.674  23.312   3.703 -0.0715 -0.1271 -0.1433
    1DIPC   C1A16913   7.546  23.668   4.024 -0.0338 -0.1578 -0.1084
    1DIPC   D2A16914   7.067  23.764   4.278 -0.0142  0.1134 -0.0822
    1DIPC   D3A16915   7.294  23.660   4.643 -0.0340  0.0078 -0.1459
    1DIPC   C4A16916   7.729  23.544   4.598 -0.0394 -0.1787 -0.1740
    1DIPC   C1B16917   7.374  23.040   3.918 -0.2624 -0.0824 -0.1325
    1DIPC   D2B16918   7.397  22.667   4.204  0.5135  0.1235  0.3790
    1DIPC   D3B16919   7.021  22.605   4.516 -0.2721 -0.1953  0.1141
    1DIPC   C4B16920   6.835  23.011   4.624 -0.1143  0.0126  0.0594
    1DIPC   NC316921  22.183  17.740   3.750  0.2509 -0.0461  0.0608
    1DIPC   PO416922  21.703  17.719   3.825 -0.1747 -0.1180 -0.3704
    1DIPC   GL116923  21.804  18.049   4.097  0.1641  0.0347  0.0172
    1DIPC   GL216924  21.697  18.408   4.103 -0.2813  0.1486 -0.1458
    1DIPC   C1A16925  21.783  18.043   4.513  0.0716 -0.2493 -0.0257
    1DIPC   D2A16926  21.457  17.723   4.625 -0.2259 -0.2504 -0.1073
    1DIPC   D3A16927  21.373  18.054   4.894  0.5568 -0.0454 -0.0059
    1DIPC   C4A16928  20.979  18.069   5.099  0.0080 -0.0594 -0.0375
    1DIPC   C1B16929  21.791  18.515   4.547  0.2814 -0.0660  0.0636
    1DIPC   D2B16930  22.121  18.512   4.787  0.1168  0.2064  0.1679
    1DIPC   D3B16931  21.761  18.527   5.047  0.2975  0.0530  0.2376
    1DIPC   C4B16932  21.684  18.598   5.470  0.1219 -0.4171  0.0317
    1DIPC   NC316933   1.547   9.130   2.899 -0.0092 -0.0023 -0.1505
    1DIPC   PO416934   1.338   8.866   2.631 -0.2751  0.0798 -0.0704
    1DIPC   GL116935   1.072   8.857   2.928  0.0622  0.3874  0.1847
    1DIPC   GL216936   1.317   8.566   3.085  0.0119  0.0933  0.1503
    1DIPC   C1A16937   0.811   8.717   3.232 -0.2119  0.1299 -0.3778
    1DIPC   D2A16938   0.531   8.919   3.525 -0.2040 -0.1515 -0.1355
    1DIPC   D3A16939   0.732   9.026   3.742 -0.0354  0.2062 -0.2906
    1DIPC   C4A16940   0.734   9.135   4.091  0.1366  0.0892 -0.2452
    1DIPC   C1B16941   1.297   8.450   3.492  0.3709  0.0672  0.1081
    1DIPC   D2B16942   1.010   8.650   3.655 -0.0495  0.1076 -0.3168
    1DIPC   D3B16943   0.947   8.669   4.135  0.0048  0.0585  0.0892
    1DIPC   C4B16944   0.885   8.629   4.569 -0.0682  0.3165 -0.0601
    1DIPC   NC316945  18.571  12.111   3.465  0.2160  0.1334 -0.0390
    1DIPC   PO416946  18.111  11.876   3.575 -0.0849 -0.0639  0.3054
    1DIPC   GL116947  18.452  11.793   3.914 -0.0015 -0.1790 -0.1332
    1DIPC   GL216948  18.635  11.539   3.957 -0.0008 -0.3120  0.2197
    1DIPC   C1A16949  18.716  12.098   4.178  0.1843 -0.0609  0.0324
    1DIPC   D2A16950  18.978  12.499   4.044  0.1521  0.0871  0.0701
    1DIPC   D3A16951  18.810  12.876   4.158 -0.3448 -0.0587  0.0858
    1DIPC   C4A16952  18.544  13.075   4.365  0.2920 -0.0150 -0.0875
    1DIPC   C1B16953  18.720  11.528   4.307 -0.1401 -0.0163 -0.1769
    1DIPC   D2B16954  18.946  11.686   4.507 -0.2453  0.3389 -0.1235
    1DIPC   D3B16955  18.646  11.381   4.751  0.3816  0.3128  0.0480
    1DIPC   C4B16956  18.824  11.218   4.950 -0.0621 -0.0837  0.3370
    1DIPC   NC316957  23.630   0.006   3.259  0.3016 -0.2163  0.0480
    1DIPC   PO416958  23.783   0.484   3.334  0.1499  0.1197 -0.0145
    1DIPC   GL116959  23.866   0.264   3.691 -0.1865 -0.0420 -0.1053
    1DIPC   GL216960  23.766  28.040   3.814  0.0625 -0.1837  0.1365
    1DIPC   C1A16961  24.125   0.253   4.066 -0.1272 -0.2175  0.2347
    1DIPC   D2A16962  24.126   0.175   4.540 -0.2008  0.2337 -0.4967
    1DIPC   D3A16963  24.375   0.389   4.946  0.0860  0.0249 -0.0312
    1DIPC   C4A16964  24.137   0.620   5.190  0.0639 -0.0176  0.1758
    1DIPC   C1B16965  23.702  28.120   4.208 -0.3671  0.0468 -0.2558
    1DIPC   D2B16966  23.661   0.071   4.657  0.2718 -0.0497 -0.2514
    1DIPC   D3B16967  23.298   0.339   4.676  0.0886 -0.3883  0.0063
    1DIPC   C4B16968  23.293   0.707   4.516  0.3234  0.2878 -0.1771
    1DIPC   NC316969   2.839  10.253   2.591 -0.2635  0.1367  0.0595
    1DIPC   PO416970   2.638  10.454   2.858 -0.1160  0.0173 -0.1446
    1DIPC   GL116971   2.569  10.665   3.249 -0.0776 -0.4411 -0.1502
    1DIPC   GL216972   2.449  10.423   3.442 -0.1452  0.0729  0.0298
    1DIPC   C1A16973   2.691  10.714   3.734 -0.3857  0.1416  0.1312
    1DIPC   D2A16974   2.743  10.643   4.148  0.1500  0.5139 -0.2843
    1DIPC   D3A16975   3.143  10.661   4.477  0.0431  0.1698  0.0659
    1DIPC   C4A16976   3.518  10.567   4.153  0.1007 -0.0687 -0.2461
    1DIPC   C1B16977   2.753   9.994   3.604 -0.2654  0.2643  0.3863
    1DIPC   D2B16978   3.107   9.772   3.748  0.2151 -0.1360 -0.0225
    1DIPC   D3B16979   3.110   9.411   3.672  0.2884  0.1878 -0.0191
    1DIPC   C4B16980   2.863   9.320   3.392  0.1147  0.4025  0.1210
    1DIPC   NC316981   6.825  10.612   3.378  0.2630  0.0142  0.0322
    1DIPC   PO416982   7.237  10.416   3.465  0.2886  0.0572 -0.1494
    1DIPC   GL116983   7.164  10.252   3.839 -0.2200 -0.0125 -0.3762
    1DIPC   GL216984   7.342  10.082   3.876  0.0997 -0.0768  0.0891
    1DIPC   C1A16985   6.979  10.310   4.237  0.3022  0.1150  0.2575
    1DIPC   D2A16986   6.840  10.117   4.536 -0.0725  0.1414 -0.0384
    1DIPC   D3A16987   7.253  10.371   4.665  0.3024  0.1652  0.1660
    1DIPC   C4A16988   7.470  10.569   4.202 -0.0222  0.1457  0.1076
    1DIPC   C1B16989   7.474  10.020   4.300  0.0049  0.1427  0.1300
    1DIPC   D2B16990   7.679   9.893   4.752 -0.1604 -0.2002  0.1974
    1DIPC   D3B16991   7.623   9.423   4.905 -0.1393 -0.0937  0.0412
    1DIPC   C4B16992   7.927   9.068   4.982  0.2871 -0.1222 -0.1863
    1DIPC   NC316993   1.840  22.986   2.866 -0.0758 -0.2487 -0.1555
    1DIPC   PO416994   2.088  22.610   3.133  0.2174 -0.0822  0.1591
    1DIPC   GL116995   2.014  22.546   3.487  0.0480 -0.1698 -0.1454
    1DIPC   GL216996   1.833  22.348   3.570 -0.0317  0.2702  0.1885
    1DIPC   C1A16997   2.026  22.845   3.929 -0.2015 -0.3371 -0.0410
    1DIPC   D2A16998   2.277  22.788   4.371 -0.0845  0.0152  0.2412
    1DIPC   D3A16999   2.183  23.168   4.556 -0.1673  0.1991 -0.4112
    1DIPC   C4A17000   2.631  23.347   4.598 -0.2631 -0.1250  0.0470
    1DIPC   C1B17001   1.888  22.401   4.019 -0.4334  0.0683  0.0377
    1DIPC   D2B17002   2.088  22.292   4.387  0.2449  0.1857  0.0409
    1DIPC   D3B17003   1.795  22.167   4.773  0.1001  0.2241  0.0718
    1DIPC   C4B17004   1.823  21.887   5.110  0.1930 -0.1006  0.0122
    1DIPC   NC317005  18.762   2.420   3.270 -0.1585  0.0120  0.1230
    1DIPC   PO417006  18.833   2.708   3.258 -0.2533  0.0284 -0.1323
    1DIPC   GL117007  18.878   2.646   3.714  0.0268 -0.2952  0.5335
    1DIPC   GL217008  18.979   2.920   3.787 -0.1059 -0.4297  0.1450
    1DIPC   C1A17009  18.691   2.599   4.100 -0.0757  0.0310 -0.1475
    1DIPC   D2A17010  18.664   3.068   4.133  0.1716 -0.0301  0.0496
    1DIPC   D3A17011  18.580   2.733   4.547  0.1759 -0.0598  0.2088
    1DIPC   C4A17012  18.946   2.542   4.792  0.3686 -0.2549 -0.0409
    1DIPC   C1B17013  19.146   2.946   4.126  0.1159 -0.0041  0.0123
    1DIPC   D2B17014  19.341   2.760   4.415 -0.0791  0.0028  0.1367
    1DIPC   D3B17015  19.688   2.572   4.310 -0.0591  0.0597 -0.2608
    1DIPC   C4B17016  19.845   2.336   4.690 -0.1635 -0.3669  0.1589
    1DIPC   NC317017   0.656  19.228   3.003  0.3514 -0.1608  0.2792
    1DIPC   PO417018   1.118  19.395   2.969  0.2807 -0.2890 -0.1392
    1DIPC   GL117019   1.393  19.487   3.354  0.3049  0.0883 -0.2505
    1DIPC   GL217020   1.720  19.539   3.371  0.2594  0.1167  0.4146
    1DIPC   C1A17021   1.596  19.521   3.801 -0.3514 -0.0598  0.1393
    1DIPC   D2A17022   1.634  19.387   4.261  0.2068 -0.0535 -0.3074
    1DIPC   D3A17023   2.027  19.224   4.519  0.0059  0.0522  0.0508
    1DIPC   C4A17024   2.327  19.552   4.522  0.1786  0.0309  0.3440
    1DIPC   C1B17025   1.891  19.903   3.721 -0.1897  0.1378 -0.0991
    1DIPC   D2B17026   2.294  20.214   3.773  0.1882 -0.0003  0.2800
    1DIPC   D3B17027   2.196  20.032   4.154 -0.2524 -0.3375 -0.2786
    1DIPC   C4B17028   2.015  19.689   4.155 -0.0272  0.0670 -0.2458
    1DIPC   NC317029   0.984  21.975   2.658  0.0719 -0.1980 -0.3042
    1DIPC   PO417030   1.356  21.857   2.885  0.1513 -0.0087  0.4722
    1DIPC   GL117031   1.469  21.887   3.335 -0.0361 -0.2883 -0.2687
    1DIPC   GL217032   1.372  22.096   3.399 -0.2437 -0.2248  0.2623
    1DIPC   C1A17033   1.527  21.768   3.750 -0.1809 -0.0238  0.0831
    1DIPC   D2A17034   1.337  21.742   4.159 -0.2619 -0.2511 -0.3960
    1DIPC   D3A17035   1.475  21.728   4.701 -0.1883  0.1080 -0.1428
    1DIPC   C4A17036   1.256  21.687   5.021  0.0621  0.2169  0.1080
    1DIPC   C1B17037   1.352  22.229   3.895 -0.1045 -0.1584 -0.0028
    1DIPC   D2B17038   1.256  22.566   4.127 -0.4021  0.1194 -0.1610
    1DIPC   D3B17039   0.867  22.508   3.987  0.1275  0.2175  0.1421
    1DIPC   C4B17040   0.577  22.302   4.107 -0.0517  0.0764 -0.1687
    1DIPC   NC317041  20.682   4.350   3.005 -0.1368 -0.2304  0.2239
    1DIPC   PO417042  20.410   4.053   3.139 -0.0674 -0.1371  0.2485
    1DIPC   GL117043  20.325   4.267   3.407 -0.1769 -0.1407 -0.0288
    1DIPC   GL217044  20.581   4.583   3.479 -0.3391  0.2613 -0.1266
    1DIPC   C1A17045  20.210   4.137   3.761  0.0152  0.1513  0.0489
    1DIPC   D2A17046  20.104   4.210   4.188  0.2475 -0.1626 -0.1514
    1DIPC   D3A17047  20.464   4.451   4.344 -0.0992  0.0026  0.1157
    1DIPC   C4A17048  20.726   4.726   4.082  0.4805 -0.1509  0.1359
    1DIPC   C1B17049  20.274   4.629   3.742 -0.0506  0.3338  0.4472
    1DIPC   D2B17050  20.183   4.794   4.161  0.0854  0.1500  0.1685
    1DIPC   D3B17051  20.434   5.146   3.977 -0.1379 -0.2531  0.0621
    1DIPC   C4B17052  20.293   5.480   4.298  0.0577  0.2316 -0.2205
    1DIPC   NC317053  10.383  20.008   3.471  0.0685  0.1634  0.2068
    1DIPC   PO417054   9.995  20.326   3.500  0.1477  0.1907 -0.1854
    1DIPC   GL117055  10.086  20.493   3.787  0.0332 -0.1622  0.3669
    1DIPC   GL217056  10.230  20.844   3.897 -0.1433 -0.0890  0.0919
    1DIPC   C1A17057  10.258  20.458   4.270 -0.0497 -0.1661 -0.0565
    1DIPC   D2A17058  10.281  20.428   4.709 -0.3015  0.0006  0.0023
    1DIPC   D3A17059  10.164  19.987   4.530 -0.0433  0.0397  0.2781
    1DIPC   C4A17060   9.962  19.736   4.160 -0.2787 -0.0324  0.0364
    1DIPC   C1B17061  10.574  20.919   4.163 -0.0270  0.0818  0.5147
    1DIPC   D2B17062  10.539  20.811   4.503  0.1934 -0.2205  0.0582
    1DIPC   D3B17063  10.719  20.452   4.264  0.0638  0.0054  0.1997
    1DIPC   C4B17064  11.060  20.665   3.983  0.0877 -0.2485  0.3404
    1DIPC   NC317065  23.662  24.779   3.724  0.2440 -0.0673  0.1211
    1DIPC   PO417066  23.958  25.142   3.805  0.5464 -0.0845 -0.1569
    1DIPC   GL117067  23.853  24.831   4.170  0.3067 -0.0739 -0.0422
    1DIPC   GL217068  23.986  24.410   4.153 -0.1919 -0.0534 -0.3241
    1DIPC   C1A17069  23.791  24.775   4.651  0.2437  0.0619  0.0924
    1DIPC   D2A17070  23.530  25.004   4.972 -0.1370 -0.2499  0.2173
    1DIPC   D3A17071  23.918  25.263   4.867 -0.0941  0.0279  0.1494
    1DIPC   C4A17072  24.020  25.223   4.423  0.0420 -0.3318  0.1437
    1DIPC   C1B17073  24.292  24.667   4.293 -0.0377  0.1034  0.1477
    1DIPC   D2B17074  24.650  24.656   4.423 -0.0058 -0.5367  0.2632
    1DIPC   D3B17075  24.694  24.516   4.892 -0.2734 -0.0284 -0.1502
    1DIPC   C4B17076  24.919  24.120   5.099 -0.0490  0.0071  0.0788
    1DIPC   NC317077   5.768  11.481   3.280 -0.0389  0.0723 -0.1973
    1DIPC   PO417078   5.303  11.465   3.029  0.0048  0.2226 -0.1570
    1DIPC   GL117079   5.091  11.608   3.436  0.1798  0.3647 -0.0652
    1DIPC   GL217080   4.919  11.752   3.501  0.1602  0.0192 -0.1039
    1DIPC   C1A17081   5.129  11.682   3.907  0.0063 -0.2096  0.0580
    1DIPC   D2A17082   5.399  11.671   4.179 -0.0764  0.1704 -0.2586
    1DIPC   D3A17083   5.757  11.458   4.227  0.1105 -0.0107 -0.1137
    1DIPC   C4A17084   6.185  11.592   4.371  0.1525 -0.1199 -0.2375
    1DIPC   C1B17085   4.635  11.740   3.841 -0.1307  0.2321  0.3788
    1DIPC   D2B17086   4.314  11.497   4.133 -0.1887  0.3625 -0.2583
    1DIPC   D3B17087   4.466  11.371   4.471 -0.0864 -0.0455  0.0921
    1DIPC   C4B17088   4.183  11.519   4.709 -0.1834  0.0452 -0.2085
    1DIPC   NC317089  10.786  22.650   2.775  0.1742 -0.0499  0.1066
    1DIPC   PO417090  10.718  22.628   3.190  0.1070 -0.3523 -0.1331
    1DIPC   GL117091  10.631  22.656   3.646 -0.2747  0.1317 -0.1714
    1DIPC   GL217092  10.734  23.040   3.739 -0.0307  0.0446 -0.0241
    1DIPC   C1A17093  10.641  22.655   4.100  0.1286 -0.0228  0.3117
    1DIPC   D2A17094  10.856  22.894   4.449  0.0346 -0.1338  0.0271
    1DIPC   D3A17095  10.428  22.919   4.537 -0.0739 -0.4623 -0.0771
    1DIPC   C4A17096  10.192  22.773   4.813  0.0599  0.0189 -0.0084
    1DIPC   C1B17097  10.540  23.121   4.094 -0.1178  0.0718  0.1339
    1DIPC   D2B17098  10.134  23.193   4.255  0.0682  0.0738  0.3119
    1DIPC   D3B17099  10.285  23.450   4.558  0.0415  0.0176 -0.0362
    1DIPC   C4B17100  10.435  23.206   4.973 -0.2257 -0.0072 -0.1653
    1DIPC   NC317101  22.116  23.491   3.474  0.0447  0.0267 -0.0483
    1DIPC   PO417102  21.923  23.904   3.593  0.0685  0.1512  0.2780
    1DIPC   GL117103  21.931  23.779   3.989 -0.1263 -0.2763  0.3512
    1DIPC   GL217104  22.067  23.996   4.200 -0.2359 -0.0583  0.0913
    1DIPC   C1A17105  21.706  23.636   4.437 -0.1749  0.1047 -0.3618
    1DIPC   D2A17106  21.908  23.583   4.876  0.3498  0.0930 -0.0355
    1DIPC   D3A17107  22.016  23.448   5.256  0.0045  0.1572  0.1030
    1DIPC   C4A17108  22.381  23.117   5.251  0.0116  0.1978 -0.2185
    1DIPC   C1B17109  21.986  24.014   4.634  0.0974  0.0823  0.1081
    1DIPC   D2B17110  21.901  24.168   5.003 -0.0262 -0.5107  0.0230
    1DIPC   D3B17111  21.602  24.000   5.352  0.3955 -0.1776  0.0324
    1DIPC   C4B17112  21.519  23.629   5.268 -0.2103 -0.1465 -0.1079
    1DIPC   NC317113   1.645  27.430   3.177 -0.0643  0.0718  0.1040
    1DIPC   PO417114   1.608  27.705   2.785 -0.2143 -0.1910 -0.0562
    1DIPC   GL117115   1.906  27.844   3.020 -0.1136 -0.0369 -0.0706
    1DIPC   GL217116   1.838  28.046   3.219 -0.1494 -0.3604  0.1574
    1DIPC   C1A17117   2.167  27.627   3.427  0.3221 -0.2142 -0.5041
    1DIPC   D2A17118   2.172  27.545   3.830 -0.1683 -0.3634 -0.1783
    1DIPC   D3A17119   1.863  27.736   4.097 -0.0299 -0.2401 -0.2006
    1DIPC   C4A17120   1.972  27.828   4.530  0.1761 -0.3118  0.1005
    1DIPC   C1B17121   2.049  28.123   3.602  0.0519  0.0971 -0.1870
    1DIPC   D2B17122   1.912   0.141   4.023  0.0598 -0.4667 -0.2092
    1DIPC   D3B17123   2.094   0.469   4.341  0.0189  0.1527  0.0171
    1DIPC   C4B17124   2.458   0.497   4.655 -0.3422  0.1859 -0.2218
    1DIPC   NC317125  12.430  13.802   3.437  0.1395 -0.4217  0.3194
    1DIPC   PO417126  12.469  13.957   3.901  0.1915 -0.1990 -0.2901
    1DIPC   GL117127  12.661  13.714   4.240 -0.1032  0.1674  0.1842
    1DIPC   GL217128  12.948  13.793   4.092 -0.3277  0.0658  0.0819
    1DIPC   C1A17129  12.900  13.403   4.559 -0.2697 -0.0136  0.2099
    1DIPC   D2A17130  12.883  13.045   4.738  0.1372 -0.2977 -0.2265
    1DIPC   D3A17131  13.212  13.190   5.011 -0.0145 -0.0681  0.1351
    1DIPC   C4A17132  13.218  13.267   5.411  0.0591  0.1346 -0.0898
    1DIPC   C1B17133  13.164  13.804   4.450 -0.0153  0.2046 -0.0229
    1DIPC   D2B17134  13.400  13.427   4.611 -0.0470 -0.1098 -0.0771
    1DIPC   D3B17135  13.081  13.641   4.906 -0.0687 -0.2088 -0.1221
    1DIPC   C4B17136  12.701  13.932   4.859 -0.1947  0.0565  0.1753
    1DIPC   NC317137  10.865  22.254   3.493 -0.1208 -0.3347  0.1771
    1DIPC   PO417138  10.686  21.828   3.462 -0.0055 -0.3463  0.0643
    1DIPC   GL117139  10.776  21.630   3.949  0.0172  0.1993 -0.2104
    1DIPC   GL217140  10.519  21.409   3.970 -0.3712  0.1872  0.0252
    1DIPC   C1A17141  10.878  21.599   4.400 -0.3554  0.0629  0.0432
    1DIPC   D2A17142  11.072  21.980   4.575  0.0187  0.0993  0.1918
    1DIPC   D3A17143  10.744  22.076   4.831  0.1084 -0.0723  0.2988
    1DIPC   C4A17144  10.865  22.357   5.185 -0.1005  0.0349 -0.1453
    1DIPC   C1B17145  10.502  21.297   4.453 -0.1100  0.1796  0.4748
    1DIPC   D2B17146  10.547  21.306   4.887 -0.0383  0.3847 -0.0634
    1DIPC   D3B17147  10.465  20.922   5.199 -0.1281  0.1989 -0.2635
    1DIPC   C4B17148  10.083  20.957   5.292  0.1037  0.2442 -0.0353
    1DIPC   NC317149  26.621   2.632   2.375 -0.2181  0.0304 -0.1961
    1DIPC   PO417150  26.618   2.812   2.844  0.0019 -0.3118  0.0897
    1DIPC   GL117151  27.013   2.711   3.197  0.0270 -0.1397 -0.0633
    1DIPC   GL217152  27.217   2.911   3.070  0.0687 -0.0186 -0.1928
    1DIPC   C1A17153  27.089   2.360   3.475  0.0751  0.3120  0.1946
    1DIPC   D2A17154  26.659   2.135   3.694  0.3420 -0.2545 -0.1665
    1DIPC   D3A17155  26.656   2.529   3.873 -0.1198  0.1086 -0.1107
    1DIPC   C4A17156  27.029   2.822   3.761 -0.2514 -0.2581 -0.3632
    1DIPC   C1B17157  27.406   2.947   3.458 -0.0577  0.0602 -0.0926
    1DIPC   D2B17158  27.578   3.193   3.737 -0.1820 -0.1268 -0.1957
    1DIPC   D3B17159  27.968   3.055   3.921  0.1634  0.0344  0.1596
    1DIPC   C4B17160   0.088   3.423   3.885  0.1851 -0.1574  0.1568
    1DIPC   NC317161  14.204  18.336   3.425 -0.1248  0.2233  0.3958
    1DIPC   PO417162  14.575  18.486   3.488 -0.1332  0.1753 -0.2698
    1DIPC   GL117163  14.400  18.633   3.862 -0.1106 -0.2674 -0.0468
    1DIPC   GL217164  14.504  18.987   3.775  0.3154 -0.1185 -0.0476
    1DIPC   C1A17165  14.010  18.694   4.128 -0.2386  0.3713 -0.1853
    1DIPC   D2A17166  14.014  18.725   4.640 -0.1401  0.1420  0.1893
    1DIPC   D3A17167  13.675  18.573   4.475 -0.4822 -0.2275 -0.0880
    1DIPC   C4A17168  13.439  18.586   4.059  0.1243  0.0888 -0.0968
    1DIPC   C1B17169  14.483  18.986   4.234  0.3384  0.3446  0.3515
    1DIPC   D2B17170  14.744  18.893   4.650  0.0612  0.2925  0.0326
    1DIPC   D3B17171  14.739  19.139   5.120  0.0686  0.0211  0.0168
    1DIPC   C4B17172  15.000  19.004   5.531 -0.0212  0.5262 -0.0222
    1DIPC   NC317173  23.938  22.846   3.630  0.0793  0.1544 -0.2010
    1DIPC   PO417174  24.355  22.589   3.616 -0.2061 -0.4322  0.1084
    1DIPC   GL117175  24.366  22.815   3.944 -0.3414  0.0279  0.0699
    1DIPC   GL217176  24.369  23.095   3.862  0.1706  0.0288 -0.1872
    1DIPC   C1A17177  24.700  22.650   4.345  0.3091 -0.0632 -0.0838
    1DIPC   D2A17178  24.706  22.506   4.757  0.0487  0.1049 -0.1609
    1DIPC   D3A17179  24.753  22.926   4.889  0.0747 -0.0972 -0.3801
    1DIPC   C4A17180  25.180  23.086   4.938 -0.1416  0.0403  0.0328
    1DIPC   C1B17181  24.487  23.132   4.282  0.0771  0.0324 -0.1417
    1DIPC   D2B17182  24.348  23.197   4.707  0.0930 -0.2386  0.1050
    1DIPC   D3B17183  24.228  22.714   4.652 -0.1085 -0.0561 -0.4142
    1DIPC   C4B17184  24.319  22.613   4.996  0.3433  0.0936 -0.1281
    1DIPC   NC317185  20.413  25.903   3.238  0.2891 -0.5338 -0.0904
    1DIPC   PO417186  20.617  25.584   2.998 -0.0338 -0.4185  0.1397
    1DIPC   GL117187  20.290  25.469   3.429  0.1516  0.1044  0.1146
    1DIPC   GL217188  20.078  25.682   3.534 -0.0509  0.4581  0.1534
    1DIPC   C1A17189  20.200  25.099   3.576  0.0528  0.0562 -0.0308
    1DIPC   D2A17190  19.850  24.774   3.644  0.0424  0.0529  0.0399
    1DIPC   D3A17191  19.965  24.926   4.023 -0.0762 -0.1821 -0.0300
    1DIPC   C4A17192  20.311  24.730   4.281 -0.0274  0.2331 -0.1632
    1DIPC   C1B17193  19.797  25.331   3.782  0.1040  0.1154  0.4114
    1DIPC   D2B17194  19.423  25.343   3.760  0.0578 -0.1077 -0.1353
    1DIPC   D3B17195  19.397  25.504   4.226  0.2881  0.2131  0.4903
    1DIPC   C4B17196  19.467  25.346   4.619  0.4373 -0.0339  0.0439
    1DIPC   NC317197  13.187   0.803   3.581  0.1723  0.1452 -0.2747
    1DIPC   PO417198  13.257   0.549   3.283  0.0333  0.0227  0.0019
    1DIPC   GL117199  13.221   0.378   3.811  0.5118  0.0404 -0.1604
    1DIPC   GL217200  13.164   0.007   3.897  0.2467  0.4008 -0.0637
    1DIPC   C1A17201  13.385   0.322   4.248 -0.2313  0.0828 -0.3059
    1DIPC   D2A17202  13.388   0.611   4.563  0.1770 -0.0617  0.0568
    1DIPC   D3A17203  13.815   0.762   4.709 -0.1625 -0.0726  0.2792
    1DIPC   C4A17204  13.911   1.002   5.161  0.4616  0.1361 -0.0481
    1DIPC   C1B17205  13.103  28.088   4.292  0.2340 -0.0993  0.2466
    1DIPC   D2B17206  13.250   0.030   4.667 -0.0817 -0.1804  0.2940
    1DIPC   D3B17207  13.199  28.037   5.041  0.1493 -0.1447  0.2236
    1DIPC   C4B17208  12.841  28.083   5.361 -0.0589 -0.1793  0.4616
    1DIPC   NC317209  12.740  14.332   3.958 -0.0681  0.1990 -0.3796
    1DIPC   PO417210  12.473  14.619   4.341 -0.1944 -0.2130  0.0462
    1DIPC   GL117211  12.643  15.046   4.462  0.1948  0.1242 -0.0203
    1DIPC   GL217212  12.445  15.359   4.427 -0.0736  0.1964 -0.3427
    1DIPC   C1A17213  12.903  15.495   4.480  0.0784  0.0848 -0.0380
    1DIPC   D2A17214  12.745  15.829   4.638 -0.0732 -0.1164 -0.4656
    1DIPC   D3A17215  12.733  15.680   5.018 -0.0178  0.0076 -0.2520
    1DIPC   C4A17216  12.630  15.887   5.265  0.4174 -0.2381  0.1673
    1DIPC   C1B17217  12.533  15.302   4.872  0.0699  0.1281 -0.0481
    1DIPC   D2B17218  12.217  15.193   5.106 -0.2713  0.0653  0.1553
    1DIPC   D3B17219  12.613  14.952   5.215 -0.1115  0.0043 -0.2742
    1DIPC   C4B17220  12.600  14.607   5.534 -0.0071 -0.0584  0.3177
    1DIPC   NC317221  13.886  18.231   2.858 -0.1803  0.0197  0.1959
    1DIPC   PO417222  13.770  18.567   3.284 -0.0746 -0.0915 -0.1193
    1DIPC   GL117223  13.487  18.798   3.662  0.1867 -0.1137  0.0858
    1DIPC   GL217224  13.085  18.780   3.791  0.0355  0.2086 -0.0164
    1DIPC   C1A17225  13.508  19.063   4.071  0.0566 -0.1227 -0.4827
    1DIPC   D2A17226  13.497  19.350   4.335 -0.1242 -0.0682  0.2629
    1DIPC   D3A17227  13.718  19.686   4.029 -0.4007  0.1695 -0.1800
    1DIPC   C4A17228  13.338  20.035   4.001  0.0536  0.0235 -0.0178
    1DIPC   C1B17229  12.988  18.804   4.151  0.3855 -0.0459 -0.4375
    1DIPC   D2B17230  12.560  18.909   4.127  0.0893 -0.0821 -0.1262
    1DIPC   D3B17231  12.161  19.076   4.095  0.1200  0.1432  0.1440
    1DIPC   C4B17232  12.033  19.487   3.981  0.2549 -0.1729  0.1511
    1DIPC   NC317233  17.078   9.747   3.613 -0.0150  0.0754 -0.4032
    1DIPC   PO417234  17.290  10.018   4.052 -0.0476 -0.0970 -0.3148
    1DIPC   GL117235  17.655  10.174   4.372 -0.1176  0.1335 -0.0856
    1DIPC   GL217236  17.707  10.435   4.308 -0.0053  0.1139 -0.3036
    1DIPC   C1A17237  18.052  10.229   4.641 -0.1990  0.0659 -0.0564
    1DIPC   D2A17238  18.408  10.467   4.740 -0.1698 -0.1060 -0.3215
    1DIPC   D3A17239  18.417  10.387   5.232  0.0651  0.1515  0.1384
    1DIPC   C4A17240  18.629   9.882   5.327 -0.1471 -0.0073  0.2906
    1DIPC   C1B17241  17.471  10.373   4.771  0.3407  0.1175 -0.1407
    1DIPC   D2B17242  17.498  10.470   5.156  0.3023  0.2608  0.2635
    1DIPC   D3B17243  17.496  10.046   5.152  0.3160  0.1775  0.0479
    1DIPC   C4B17244  17.293   9.793   4.807  0.2924  0.0193 -0.2816
    1DIPC   NC317245  17.305   1.717   3.924  0.0879  0.1842 -0.1546
    1DIPC   PO417246  16.912   1.445   3.999 -0.1248 -0.0039  0.0110
    1DIPC   GL117247  17.167   1.432   4.300 -0.0396 -0.3711  0.0340
    1DIPC   GL217248  17.603   1.374   4.356  0.0736 -0.2661 -0.3395
    1DIPC   C1A17249  17.216   1.673   4.698  0.1283 -0.1916 -0.1598
    1DIPC   D2A17250  17.089   1.885   5.172  0.3566  0.3067  0.0552
    1DIPC   D3A17251  17.290   1.408   5.117  0.0693 -0.4488 -0.0590
    1DIPC   C4A17252  17.122   1.226   5.393  0.2185 -0.0811 -0.1614
    1DIPC   C1B17253  17.545   1.284   4.756  0.3025  0.0763  0.3925
    1DIPC   D2B17254  17.642   1.027   5.027 -0.0904 -0.1173  0.1291
    1DIPC   D3B17255  17.219   0.904   4.873 -0.1191 -0.1836 -0.0424
    1DIPC   C4B17256  16.896   1.172   4.796  0.0565  0.0642  0.0310
    1DIPC   NC317257  14.262   7.644   3.646  0.0777  0.1355  0.0670
    1DIPC   PO417258  14.700   7.580   3.600  0.1813 -0.2602 -0.0903
    1DIPC   GL117259  14.798   7.494   4.028  0.2164  0.0672  0.0546
    1DIPC   GL217260  14.983   7.801   4.220  0.1026  0.2483 -0.0805
    1DIPC   C1A17261  14.648   7.422   4.469  0.3309 -0.0745 -0.1752
    1DIPC   D2A17262  14.413   7.297   4.771  0.1498 -0.1289  0.0385
    1DIPC   D3A17263  14.796   7.435   4.921 -0.1764 -0.2765  0.5719
    1DIPC   C4A17264  15.055   7.266   4.644  0.2024 -0.1421  0.0222
    1DIPC   C1B17265  14.916   7.925   4.704  0.1487  0.2477 -0.1104
    1DIPC   D2B17266  15.144   7.865   5.206 -0.1571 -0.3066 -0.0159
    1DIPC   D3B17267  14.859   7.648   5.441 -0.2250 -0.1637  0.2478
    1DIPC   C4B17268  14.608   7.252   5.302 -0.0182  0.0818  0.3025
    1DIPC   NC317269  20.473  10.024   3.328  0.0347 -0.0562 -0.2687
    1DIPC   PO417270  20.443   9.582   3.481  0.0353  0.3052  0.0529
    1DIPC   GL117271  20.370   9.854   3.839 -0.0227  0.4210 -0.1672
    1DIPC   GL217272  19.973   9.920   3.875  0.0559 -0.1965 -0.1494
    1DIPC   C1A17273  20.716  10.132   4.003 -0.2483  0.1752  0.2456
    1DIPC   D2A17274  21.070  10.220   4.175 -0.1033 -0.2060  0.1838
    1DIPC   D3A17275  21.375  10.274   4.483 -0.1114 -0.2239  0.0697
    1DIPC   C4A17276  21.294  10.256   4.931  0.3158  0.1242  0.3009
    1DIPC   C1B17277  20.188  10.166   4.107 -0.1706  0.2529 -0.3252
    1DIPC   D2B17278  20.375  10.462   4.358 -0.1900 -0.1293 -0.2886
    1DIPC   D3B17279  20.164  10.191   4.671 -0.2872  0.3037  0.1569
    1DIPC   C4B17280  19.851  10.060   4.735  0.0486 -0.3401 -0.0912
    1DIPC   NC317281  13.214  21.358   3.045 -0.1025 -0.1172  0.1247
    1DIPC   PO417282  12.985  21.342   3.531 -0.0496  0.1656 -0.0248
    1DIPC   GL117283  12.945  21.530   3.829 -0.1155 -0.3108 -0.3180
    1DIPC   GL217284  13.186  21.681   3.832  0.0502  0.4680  0.0490
    1DIPC   C1A17285  12.781  21.401   4.284 -0.2334 -0.0220  0.0571
    1DIPC   D2A17286  12.461  21.504   4.654  0.0818 -0.2465  0.0737
    1DIPC   D3A17287  12.552  21.375   5.011 -0.0343  0.1352  0.2983
    1DIPC   C4A17288  12.793  21.052   4.853 -0.3440 -0.3039  0.0160
    1DIPC   C1B17289  13.222  21.691   4.257  0.0706 -0.1811 -0.0484
    1DIPC   D2B17290  13.189  21.300   4.549  0.0883 -0.1929 -0.0305
    1DIPC   D3B17291  13.292  21.177   4.112 -0.0300 -0.2880  0.2553
    1DIPC   C4B17292  13.113  20.878   4.059 -0.0292 -0.1172  0.1444
    1DIPC   NC317293   5.526  16.901   3.350  0.2020  0.1709 -0.0400
    1DIPC   PO417294   5.589  16.860   3.880  0.0402  0.0606  0.2077
    1DIPC   GL117295   5.157  16.668   4.059 -0.1678  0.1045  0.0595
    1DIPC   GL217296   5.222  16.364   3.949 -0.0532 -0.1038 -0.2536
    1DIPC   C1A17297   4.865  16.698   4.410 -0.0740  0.0526  0.0811
    1DIPC   D2A17298   4.905  16.766   4.807 -0.0716 -0.2424 -0.0342
    1DIPC   D3A17299   5.131  16.430   4.953  0.1278 -0.0780  0.0075
    1DIPC   C4A17300   4.794  16.122   4.962  0.3697  0.1463  0.1011
    1DIPC   C1B17301   4.857  16.304   4.094 -0.1504  0.0094  0.2301
    1DIPC   D2B17302   4.804  16.189   4.454  0.1952  0.1571 -0.0675
    1DIPC   D3B17303   4.368  16.117   4.509 -0.2249 -0.1292  0.0257
    1DIPC   C4B17304   4.242  16.036   4.872  0.1309 -0.0409 -0.1337
    1DIPC   NC317305  27.684   3.174   2.698 -0.2167 -0.0685  0.1326
    1DIPC   PO417306  28.032   3.097   2.475 -0.5768 -0.0582 -0.2188
    1DIPC   GL117307   0.063   2.786   2.784 -0.1499 -0.1384  0.1394
    1DIPC   GL217308  28.001   2.866   3.117 -0.0429 -0.1543 -0.0663
    1DIPC   C1A17309   0.290   2.538   3.166  0.0571 -0.2289  0.1916
    1DIPC   D2A17310   0.495   2.465   3.646  0.1782  0.1810  0.0605
    1DIPC   D3A17311   0.809   2.145   3.537 -0.0758 -0.1506 -0.1095
    1DIPC   C4A17312   1.244   2.100   3.675 -0.0760 -0.1273  0.0278
    1DIPC   C1B17313  28.024   2.734   3.477 -0.0601 -0.3088  0.2441
    1DIPC   D2B17314   0.089   2.638   3.856 -0.0317 -0.0196  0.1284
    1DIPC   D3B17315   0.200   2.544   4.097 -0.0162 -0.0309 -0.1680
    1DIPC   C4B17316   0.150   2.260   4.431  0.1313 -0.2168  0.4381
    1DIPC   NC317317  15.274   9.795   3.691  0.0839 -0.2418  0.0324
    1DIPC   PO417318  15.243   9.844   4.113  0.1130  0.2005 -0.0653
    1DIPC   GL117319  15.067   9.819   4.456  0.0417  0.0638 -0.4536
    1DIPC   GL217320  15.300   9.827   4.758  0.0331 -0.0661  0.1688
    1DIPC   C1A17321  14.737   9.884   4.775  0.0829  0.2813 -0.0765
    1DIPC   D2A17322  14.641   9.809   5.101  0.3265 -0.1434 -0.1753
    1DIPC   D3A17323  14.322   9.708   5.463 -0.1031 -0.2155 -0.2151
    1DIPC   C4A17324  13.896   9.714   5.487 -0.2040 -0.3832  0.0491
    1DIPC   C1B17325  15.520   9.491   5.020  0.2415 -0.2751  0.2177
    1DIPC   D2B17326  15.808   9.219   5.112 -0.1001  0.0896  0.3012
    1DIPC   D3B17327  15.562   9.360   5.482 -0.0149  0.4403  0.1529
    1DIPC   C4B17328  15.753   9.359   5.921  0.1542  0.0188  0.3298
    1DIPC   NC317329  15.795  14.083   3.837  0.0377 -0.1249  0.3618
    1DIPC   PO417330  15.403  13.940   3.829 -0.2907  0.0044  0.0554
    1DIPC   GL117331  15.472  13.957   4.288 -0.2702 -0.2132 -0.0293
    1DIPC   GL217332  15.524  13.644   4.409  0.0011  0.1586 -0.4113
    1DIPC   C1A17333  15.451  14.201   4.620 -0.2476 -0.0945  0.2390
    1DIPC   D2A17334  15.344  14.153   5.075 -0.0734  0.0154  0.3055
    1DIPC   D3A17335  15.518  13.799   4.873  0.2400 -0.0813  0.3465
    1DIPC   C4A17336  15.724  13.493   5.186 -0.3740  0.0493  0.1816
    1DIPC   C1B17337  15.609  13.352   4.711 -0.0723 -0.1445  0.2571
    1DIPC   D2B17338  15.922  13.091   4.814  0.3591  0.1002 -0.2496
    1DIPC   D3B17339  15.491  12.987   5.011 -0.2429 -0.0736 -0.0095
    1DIPC   C4B17340  15.444  12.981   5.390 -0.0193 -0.1943  0.1858
    1DIPC   NC317341  17.518  10.446   3.846  0.3047  0.0488  0.1281
    1DIPC   PO417342  17.700  10.814   3.692 -0.1223  0.0485  0.1662
    1DIPC   GL117343  17.743  10.975   4.038  0.0748  0.4709 -0.0897
    1DIPC   GL217344  17.996  10.818   4.245  0.0944 -0.0734  0.0137
    1DIPC   C1A17345  17.740  11.165   4.515 -0.1272 -0.0894 -0.1913
    1DIPC   D2A17346  17.883  11.149   5.002  0.1812  0.0594 -0.2380
    1DIPC   D3A17347  17.871  11.514   5.254  0.1762  0.1569  0.0476
    1DIPC   C4A17348  18.174  11.669   5.416 -0.1593 -0.3349  0.1362
    1DIPC   C1B17349  17.993  10.735   4.624 -0.0104  0.0527 -0.2161
    1DIPC   D2B17350  18.008  10.563   5.078  0.2980 -0.0359 -0.0832
    1DIPC   D3B17351  17.975  10.492   5.538  0.0477 -0.0899 -0.0353
    1DIPC   C4B17352  18.144  10.459   5.949  0.0988 -0.1371 -0.5123
    1DIPC   NC317353   0.027  11.908   3.262  0.0201 -0.0266  0.1826
    1DIPC   PO417354   0.299  12.230   3.177 -0.1657 -0.1129 -0.0597
    1DIPC   GL117355   0.592  12.405   3.385 -0.0511 -0.2414  0.1772
    1DIPC   GL217356   0.673  12.148   3.494 -0.0043  0.2495  0.3255
    1DIPC   C1A17357   0.865  12.534   3.751  0.2217  0.0508 -0.1451
    1DIPC   D2A17358   0.972  12.706   4.090 -0.0269  0.0167 -0.1678
    1DIPC   D3A17359   1.131  13.019   4.261 -0.0482  0.1938  0.2527
    1DIPC   C4A17360   1.297  13.121   4.734  0.0566  0.0200  0.1112
    1DIPC   C1B17361   0.747  12.044   3.935 -0.1497  0.0537  0.0270
    1DIPC   D2B17362   0.931  11.728   4.220 -0.2111  0.2649  0.3732
    1DIPC   D3B17363   1.357  11.705   4.079  0.0501  0.2670 -0.0349
    1DIPC   C4B17364   1.855  11.701   4.141 -0.3177  0.1131 -0.1262
    1DIPC   NC317365   3.529   9.859   2.599 -0.0714 -0.2643  0.2626
    1DIPC   PO417366   3.232  10.004   2.888  0.0130 -0.0920  0.0962
    1DIPC   GL117367   3.395   9.818   3.248  0.1079 -0.0412 -0.2880
    1DIPC   GL217368   3.588   9.606   3.045 -0.2175 -0.2139  0.0219
    1DIPC   C1A17369   3.563   9.674   3.608 -0.0218  0.2325 -0.0150
    1DIPC   D2A17370   3.545   9.716   4.140  0.1076  0.3561 -0.1668
    1DIPC   D3A17371   3.833  10.104   4.339  0.2274 -0.3200 -0.2933
    1DIPC   C4A17372   3.895  10.069   4.806 -0.2510  0.1930  0.3389
    1DIPC   C1B17373   3.799   9.267   3.371  0.1514  0.1392  0.1904
    1DIPC   D2B17374   4.203   9.251   3.445 -0.1956  0.2903 -0.0299
    1DIPC   D3B17375   4.271   9.583   3.268  0.0436 -0.1544  0.0188
    1DIPC   C4B17376   4.006   9.903   3.436  0.3052  0.0804  0.0092
    1DIPC   NC317377  22.153  17.612   2.972  0.0217 -0.2143 -0.0741
    1DIPC   PO417378  22.262  17.971   3.288 -0.0401 -0.0059 -0.0751
    1DIPC   GL117379  22.372  18.235   3.718  0.1633  0.0380 -0.0301
    1DIPC   GL217380  22.525  18.035   4.038 -0.0706  0.1454 -0.1465
    1DIPC   C1A17381  22.578  18.582   3.965  0.0528  0.0002  0.3163
    1DIPC   D2A17382  22.763  18.859   4.150 -0.0692 -0.0764  0.0265
    1DIPC   D3A17383  23.118  18.583   4.205 -0.0178  0.1409  0.1062
    1DIPC   C4A17384  23.363  18.842   3.996 -0.2532  0.0238  0.2743
    1DIPC   C1B17385  22.414  17.877   4.459 -0.2208  0.2098  0.1272
    1DIPC   D2B17386  22.177  17.992   4.857 -0.0969  0.3489  0.1103
    1DIPC   D3B17387  22.560  18.083   5.099  0.1620  0.2237 -0.1514
    1DIPC   C4B17388  22.755  17.773   4.999 -0.1750  0.2512 -0.0212
    1DIPC   NC317389   2.124  10.611   2.857  0.3596 -0.1341 -0.0168
    1DIPC   PO417390   1.756  10.612   3.229 -0.2586 -0.0817  0.1907
    1DIPC   GL117391   1.826  10.461   3.609  0.1632 -0.2344 -0.3263
    1DIPC   GL217392   1.676  10.257   3.800 -0.1354  0.4843 -0.1394
    1DIPC   C1A17393   1.789  10.701   4.018 -0.1304 -0.0465  0.3702
    1DIPC   D2A17394   1.866  10.553   4.457 -0.2802  0.3633 -0.0085
    1DIPC   D3A17395   1.540  10.427   4.784 -0.1159 -0.0412  0.1072
    1DIPC   C4A17396   1.390  10.611   5.185  0.1286 -0.2059  0.0510
    1DIPC   C1B17397   1.522  10.233   4.230  0.1433 -0.2284 -0.2564
    1DIPC   D2B17398   1.278  10.032   4.537  0.0372  0.1011  0.1493
    1DIPC   D3B17399   1.088   9.640   4.750  0.3470  0.0523 -0.2181
    1DIPC   C4B17400   0.756   9.846   4.873 -0.2761 -0.2039  0.2631
    1DIPC   NC317401   8.512   0.977   2.769  0.3464  0.2289 -0.0774
    1DIPC   PO417402   8.756   1.300   2.773  0.0189 -0.2119 -0.0373
    1DIPC   GL117403   8.775   1.476   3.141 -0.3870 -0.0333 -0.2457
    1DIPC   GL217404   8.707   1.813   3.188 -0.1802 -0.2583  0.0160
    1DIPC   C1A17405   8.515   1.573   3.650 -0.0850  0.1811 -0.2332
    1DIPC   D2A17406   8.516   1.542   4.108 -0.1407 -0.3352 -0.2353
    1DIPC   D3A17407   8.783   1.481   4.413 -0.0070 -0.0070  0.2253
    1DIPC   C4A17408   9.013   1.196   4.613 -0.0366 -0.1138  0.2445
    1DIPC   C1B17409   8.606   2.063   3.491  0.3521  0.1484 -0.3478
    1DIPC   D2B17410   8.268   2.051   3.751  0.3135  0.2592  0.1242
    1DIPC   D3B17411   8.198   1.926   4.103 -0.0305 -0.1291  0.3868
    1DIPC   C4B17412   7.901   1.927   4.369  0.4169  0.2708 -0.0175
    1DIPC   NC317413   3.995  17.866   3.135 -0.1274 -0.1119  0.1447
    1DIPC   PO417414   3.952  17.383   3.046 -0.2993 -0.1174  0.2943
    1DIPC   GL117415   4.026  17.443   3.466 -0.1264  0.0593 -0.0830
    1DIPC   GL217416   3.798  17.665   3.606  0.0510 -0.1426  0.0249
    1DIPC   C1A17417   4.333  17.650   3.710  0.0376 -0.0185  0.1121
    1DIPC   D2A17418   4.381  17.969   4.070 -0.1031 -0.1664 -0.0607
    1DIPC   D3A17419   4.308  17.805   4.431  0.0917 -0.1733  0.0974
    1DIPC   C4A17420   4.242  18.114   4.722  0.1786 -0.2862 -0.0100
    1DIPC   C1B17421   3.940  17.694   4.020 -0.4034  0.2229  0.1794
    1DIPC   D2B17422   3.809  17.790   4.448 -0.2164  0.0139 -0.1599
    1DIPC   D3B17423   3.549  17.585   4.805  0.4751 -0.0276  0.0756
    1DIPC   C4B17424   3.307  17.844   5.022 -0.1266  0.0970 -0.0517
    1DIPC   NC317425   7.425  21.322   3.245  0.0385  0.1018  0.0514
    1DIPC   PO417426   7.709  21.440   3.616  0.1508  0.0788 -0.1746
    1DIPC   GL117427   7.717  21.705   3.949 -0.3231 -0.0826 -0.2095
    1DIPC   GL217428   7.949  21.846   3.898 -0.0887 -0.1599 -0.0483
    1DIPC   C1A17429   7.780  21.741   4.458  0.0884  0.1488  0.0526
    1DIPC   D2A17430   8.112  21.786   4.583  0.2498 -0.0092 -0.0102
    1DIPC   D3A17431   8.075  21.697   5.016  0.0495 -0.0965  0.0389
    1DIPC   C4A17432   8.489  21.604   5.251  0.1288  0.1557 -0.4502
    1DIPC   C1B17433   8.063  22.131   4.210 -0.1407 -0.1134 -0.0504
    1DIPC   D2B17434   8.260  22.255   4.540  0.0500 -0.1194  0.0564
    1DIPC   D3B17435   7.934  22.208   4.827  0.0225  0.0432  0.1451
    1DIPC   C4B17436   7.948  22.237   5.302  0.1453  0.0132 -0.0466
    1DIPC   NC317437  21.957  14.778   2.913 -0.1440  0.2894  0.0473
    1DIPC   PO417438  21.652  14.703   3.263 -0.0715  0.0818  0.0984
    1DIPC   GL117439  21.694  14.728   3.658  0.0125  0.1510 -0.0805
    1DIPC   GL217440  21.582  14.684   3.904 -0.0250 -0.3722 -0.2259
    1DIPC   C1A17441  22.070  14.739   3.837  0.0764 -0.3063  0.1280
    1DIPC   D2A17442  22.520  14.869   3.783 -0.1144 -0.2912  0.1314
    1DIPC   D3A17443  22.580  14.793   4.127  0.1004 -0.1259 -0.0925
    1DIPC   C4A17444  22.695  14.397   4.210  0.0423  0.5086 -0.0225
    1DIPC   C1B17445  21.658  14.378   4.179  0.1138 -0.0086  0.4638
    1DIPC   D2B17446  21.818  14.426   4.624 -0.2020 -0.2908 -0.1999
    1DIPC   D3B17447  22.055  14.130   4.916 -0.0304  0.1867  0.3166
    1DIPC   C4B17448  21.997  13.662   4.695 -0.1642  0.0965  0.0468
    1DIPC   NC317449   6.636  15.739   3.064  0.2952 -0.2192  0.1488
    1DIPC   PO417450   7.043  15.721   3.340 -0.1575 -0.1111 -0.0608
    1DIPC   GL117451   7.195  16.053   3.549 -0.1984  0.1942  0.1413
    1DIPC   GL217452   6.978  15.965   3.880 -0.2580  0.0808 -0.3274
    1DIPC   C1A17453   7.191  16.409   3.819 -0.3458  0.1086 -0.0273
    1DIPC   D2A17454   7.260  16.394   4.266 -0.1568 -0.1391  0.0927
    1DIPC   D3A17455   6.827  16.580   4.303 -0.0757  0.1292 -0.0539
    1DIPC   C4A17456   6.708  16.978   4.302  0.2049  0.0062  0.0349
    1DIPC   C1B17457   6.914  16.030   4.310  0.3230  0.1057 -0.1967
    1DIPC   D2B17458   6.735  16.014   4.720  0.0691  0.3181 -0.0625
    1DIPC   D3B17459   6.951  15.680   4.705 -0.2898  0.1141 -0.0913
    1DIPC   C4B17460   7.099  15.400   5.016  0.2183 -0.1605  0.0715
    1DIPC   NC317461   7.567  12.323   3.671 -0.0941 -0.1023  0.4510
    1DIPC   PO417462   7.603  11.864   3.621  0.1668  0.2074  0.1693
    1DIPC   GL117463   7.639  11.983   4.031  0.2832 -0.0194 -0.2071
    1DIPC   GL217464   7.866  11.833   4.109 -0.3174  0.1310  0.0726
    1DIPC   C1A17465   7.591  12.045   4.477  0.0698  0.0551  0.0087
    1DIPC   D2A17466   7.691  12.052   4.913  0.1956 -0.5203  0.2555
    1DIPC   D3A17467   7.293  12.188   5.177  0.0585 -0.0988 -0.1887
    1DIPC   C4A17468   6.956  12.005   5.007 -0.0614  0.0393 -0.1064
    1DIPC   C1B17469   8.018  11.370   4.178  0.0347 -0.0738 -0.1268
    1DIPC   D2B17470   8.376  11.050   4.382 -0.0586 -0.1382  0.1127
    1DIPC   D3B17471   8.482  11.425   4.569 -0.2802 -0.3665 -0.1511
    1DIPC   C4B17472   8.312  11.767   4.339  0.0234 -0.0466  0.2696
    1DIPC   NC317473   7.993  15.674   3.112  0.0004  0.2539  0.0518
    1DIPC   PO417474   7.982  15.243   3.332 -0.0193  0.0994 -0.0809
    1DIPC   GL117475   7.742  15.135   3.751  0.2283  0.0033  0.0588
    1DIPC   GL217476   7.438  15.192   3.805 -0.2191 -0.1727  0.0812
    1DIPC   C1A17477   7.812  14.992   4.179 -0.1093 -0.0361  0.0155
    1DIPC   D2A17478   7.683  15.084   4.506  0.2192 -0.0070  0.2378
    1DIPC   D3A17479   7.415  15.403   4.627 -0.1169 -0.0079  0.1190
    1DIPC   C4A17480   7.186  15.559   4.201 -0.0196  0.1650  0.1004
    1DIPC   C1B17481   7.246  15.084   4.163  0.0003 -0.1027 -0.0982
    1DIPC   D2B17482   6.995  15.256   4.490  0.2100  0.0945 -0.1064
    1DIPC   D3B17483   7.256  14.972   4.823  0.0230 -0.0035 -0.0841
    1DIPC   C4B17484   7.552  15.149   5.143  0.2031  0.0948 -0.3102
    1DIPC   NC317485  18.570   8.283   3.846 -0.1807  0.0784  0.1241
    1DIPC   PO417486  18.278   7.972   3.792  0.0132 -0.0940 -0.0741
    1DIPC   GL117487  18.349   7.873   4.293  0.4526 -0.0078  0.0910
    1DIPC   GL217488  18.448   7.659   4.379  0.1096  0.0517  0.2205
    1DIPC   C1A17489  18.431   8.053   4.773  0.3936  0.3530  0.0503
    1DIPC   D2A17490  18.184   8.212   5.139 -0.0256 -0.3002  0.0234
    1DIPC   D3A17491  18.476   8.338   5.461  0.0342 -0.1342 -0.1083
    1DIPC   C4A17492  18.608   8.254   5.900 -0.3281 -0.0769  0.0173
    1DIPC   C1B17493  18.086   7.534   4.628 -0.3043 -0.0022 -0.0030
    1DIPC   D2B17494  17.880   7.189   4.914  0.1588 -0.1957  0.1913
    1DIPC   D3B17495  18.119   7.258   5.188  0.1830 -0.0006  0.3334
    1DIPC   C4B17496  18.507   7.319   5.347 -0.1454  0.2193 -0.1401
    1DIPC   NC317497  10.951   3.274   3.439  0.0224 -0.0767 -0.2120
    1DIPC   PO417498  10.808   3.668   3.615 -0.0069  0.2083  0.0401
    1DIPC   GL117499  10.644   3.889   3.926  0.0622 -0.1539  0.2605
    1DIPC   GL217500  10.806   4.257   3.909 -0.0875  0.1958 -0.3269
    1DIPC   C1A17501  10.494   4.017   4.299  0.2810 -0.4713 -0.1315
    1DIPC   D2A17502  10.075   4.062   4.438  0.0774 -0.2201  0.1539
    1DIPC   D3A17503   9.949   4.198   4.891  0.0499 -0.0774 -0.0751
    1DIPC   C4A17504   9.910   4.549   4.869  0.0756 -0.0383 -0.1824
    1DIPC   C1B17505  10.973   4.214   4.338  0.0594 -0.1724  0.0150
    1DIPC   D2B17506  10.912   4.123   4.780  0.1239 -0.1747  0.1899
    1DIPC   D3B17507  10.934   4.248   5.250  0.1039 -0.0673  0.0811
    1DIPC   C4B17508  11.236   4.589   5.467  0.0907 -0.2495 -0.0710
    1DIPC   NC317509  27.131  18.294   2.545  0.0947  0.1451 -0.2122
    1DIPC   PO417510  26.724  18.287   2.651 -0.0785  0.1203 -0.0726
    1DIPC   GL117511  26.542  18.323   3.070  0.2121 -0.4327  0.2163
    1DIPC   GL217512  26.188  18.328   3.087  0.2454 -0.0256 -0.1710
    1DIPC   C1A17513  26.792  18.601   3.348 -0.2304  0.1959  0.0611
    1DIPC   D2A17514  27.068  18.380   3.560  0.0112 -0.1600 -0.0060
    1DIPC   D3A17515  26.972  18.420   3.973 -0.0014 -0.0864 -0.1475
    1DIPC   C4A17516  26.733  18.709   4.168 -0.0615 -0.0824  0.1403
    1DIPC   C1B17517  26.006  18.104   3.434  0.2345 -0.1495 -0.0337
    1DIPC   D2B17518  25.547  18.107   3.598  0.1875  0.1103 -0.1092
    1DIPC   D3B17519  25.734  17.972   4.040 -0.0055 -0.0670 -0.1187
    1DIPC   C4B17520  26.089  17.942   3.901 -0.1067 -0.2327  0.1641
    1DIPC   NC317521   6.605  11.408   3.577  0.0713 -0.2069 -0.1750
    1DIPC   PO417522   6.910  11.607   3.534 -0.0047  0.0663 -0.1807
    1DIPC   GL117523   6.560  11.889   3.735 -0.2313 -0.0105  0.2552
    1DIPC   GL217524   6.613  11.724   3.952  0.0485 -0.1904 -0.1994
    1DIPC   C1A17525   6.709  12.260   4.008 -0.1016  0.4117  0.1489
    1DIPC   D2A17526   6.765  12.424   4.424 -0.1372 -0.3039 -0.2757
    1DIPC   D3A17527   6.536  12.272   4.805  0.0348  0.1958  0.2430
    1DIPC   C4A17528   6.230  12.034   4.616 -0.0571  0.2727 -0.3038
    1DIPC   C1B17529   7.021  11.634   4.234  0.0065 -0.2012  0.3115
    1DIPC   D2B17530   7.168  11.754   4.640  0.0640 -0.1620 -0.0736
    1DIPC   D3B17531   7.537  11.547   4.353 -0.0980  0.1128  0.0450
    1DIPC   C4B17532   7.874  11.584   4.589  0.0310 -0.1082 -0.0450
    1DIPC   NC317533  15.679  21.759   3.153  0.0583 -0.0797 -0.2039
    1DIPC   PO417534  15.444  21.435   3.173  0.0405  0.2600  0.1839
    1DIPC   GL117535  15.320  21.434   3.484  0.1633 -0.2435 -0.1186
    1DIPC   GL217536  15.340  21.790   3.642  0.0755 -0.1942  0.1711
    1DIPC   C1A17537  15.095  21.212   3.746  0.0250  0.2240 -0.0416
    1DIPC   D2A17538  14.992  21.167   4.229 -0.0357 -0.2252  0.0697
    1DIPC   D3A17539  15.462  21.098   4.256  0.0826 -0.3426  0.0582
    1DIPC   C4A17540  15.578  20.934   3.882  0.0582 -0.1267  0.2109
    1DIPC   C1B17541  15.222  21.597   4.059 -0.0304  0.2020  0.2166
    1DIPC   D2B17542  15.394  21.630   4.418  0.0424  0.0287  0.0599
    1DIPC   D3B17543  15.821  21.466   4.309  0.0463  0.2562  0.2346
    1DIPC   C4B17544  16.001  21.868   4.406  0.0010 -0.1268 -0.0009
    1DIPC   NC317545  18.683  14.870   3.390  0.1820  0.1814 -0.1957
    1DIPC   PO417546  19.021  15.193   3.525 -0.0280  0.0510  0.2422
    1DIPC   GL117547  18.825  14.993   3.857  0.0472 -0.0904 -0.0278
    1DIPC   GL217548  18.811  14.685   3.857 -0.3314  0.1020 -0.0833
    1DIPC   C1A17549  18.830  14.993   4.310  0.1721  0.2339  0.0281
    1DIPC   D2A17550  18.726  14.611   4.577 -0.1842  0.0850 -0.0947
    1DIPC   D3A17551  19.126  14.821   4.881  0.0587 -0.1555  0.1423
    1DIPC   C4A17552  18.984  15.147   5.188 -0.0536 -0.1592 -0.0685
    1DIPC   C1B17553  19.031  14.419   4.157  0.1798  0.2556 -0.1489
    1DIPC   D2B17554  19.264  14.370   4.443 -0.3629  0.1779 -0.2002
    1DIPC   D3B17555  18.999  14.066   4.758 -0.1510  0.1412  0.1504
    1DIPC   C4B17556  19.145  13.807   5.057  0.1183 -0.0266  0.1616
    1DIPC   NC317557   5.543   9.617   2.884  0.1240  0.2066 -0.1420
    1DIPC   PO417558   5.734   9.743   3.263  0.0703  0.0743  0.2711
    1DIPC   GL117559   5.591   9.712   3.721 -0.3925  0.0726  0.2490
    1DIPC   GL217560   5.483   9.562   4.116  0.1790  0.0109  0.0012
    1DIPC   C1A17561   5.303  10.000   4.028  0.1056  0.2656  0.2130
    1DIPC   D2A17562   5.350   9.853   4.514 -0.0642 -0.0437 -0.1031
    1DIPC   D3A17563   5.570   9.513   4.624 -0.5459  0.0350  0.0213
    1DIPC   C4A17564   5.473   9.247   5.029  0.2697  0.2903  0.3035
    1DIPC   C1B17565   5.122   9.526   4.156  0.1497 -0.0623 -0.0255
    1DIPC   D2B17566   4.870   9.719   4.425 -0.0398 -0.1124  0.3373
    1DIPC   D3B17567   5.075   9.361   4.704  0.2196 -0.0726  0.2050
    1DIPC   C4B17568   5.041   9.391   5.219 -0.2892  0.1467  0.1087
    1DIPC   NC317569  11.476  13.166   4.412 -0.1278  0.0804 -0.2934
    1DIPC   PO417570  11.854  13.265   4.092  0.0107  0.0734 -0.2171
    1DIPC   GL117571  11.873  13.420   4.558  0.0477 -0.3510 -0.2256
    1DIPC   GL217572  11.982  13.065   4.699  0.1896  0.0231 -0.1517
    1DIPC   C1A17573  11.982  13.635   4.978 -0.2107 -0.0087 -0.4091
    1DIPC   D2A17574  11.806  13.629   5.382  0.1395 -0.0036  0.2446
    1DIPC   D3A17575  12.091  13.998   5.487 -0.3353  0.0405 -0.0172
    1DIPC   C4A17576  12.448  14.078   5.382  0.0205 -0.0910 -0.1305
    1DIPC   C1B17577  12.315  12.990   4.983 -0.3222  0.0442 -0.0722
    1DIPC   D2B17578  12.708  13.055   5.241 -0.2553  0.2621 -0.0373
    1DIPC   D3B17579  12.761  13.206   5.627 -0.4594  0.2445 -0.1485
    1DIPC   C4B17580  12.594  13.330   6.113  0.1525  0.0011 -0.1575
    1DIPC   NC317581   2.088  10.185   3.214  0.3560  0.1739  0.0393
    1DIPC   PO417582   1.968   9.791   3.046  0.1281 -0.0719 -0.0896
    1DIPC   GL117583   1.990   9.854   3.579  0.0918 -0.1047 -0.0312
    1DIPC   GL217584   2.234  10.063   3.731 -0.2138 -0.0191 -0.3580
    1DIPC   C1A17585   2.174   9.671   4.070 -0.1146 -0.1584  0.0551
    1DIPC   D2A17586   2.167   9.965   4.436 -0.0707 -0.2092  0.0264
    1DIPC   D3A17587   2.104   9.638   4.551 -0.4397  0.1641  0.1018
    1DIPC   C4A17588   1.896   9.322   4.675  0.0172  0.1599  0.0756
    1DIPC   C1B17589   2.581  10.012   4.040  0.1805  0.2168 -0.1539
    1DIPC   D2B17590   2.797  10.217   4.433 -0.2244  0.2968 -0.2121
    1DIPC   D3B17591   2.800  10.378   4.850 -0.0351 -0.2645 -0.0246
    1DIPC   C4B17592   2.422  10.293   4.987 -0.2104 -0.1703 -0.1492
    1DIPC   NC317593  13.363  23.438   3.289 -0.3511  0.0731  0.1202
    1DIPC   PO417594  13.090  23.743   3.279  0.3102 -0.0696  0.2424
    1DIPC   GL117595  12.902  23.424   3.230  0.1883 -0.3857 -0.1611
    1DIPC   GL217596  12.865  23.273   3.468 -0.0341  0.1300 -0.0655
    1DIPC   C1A17597  12.523  23.009   3.328 -0.0998 -0.1272  0.1375
    1DIPC   D2A17598  12.243  22.672   3.668 -0.1721  0.0153 -0.1411
    1DIPC   D3A17599  12.590  22.539   3.841 -0.2696 -0.0933 -0.1308
    1DIPC   C4A17600  12.935  22.951   3.891  0.3759  0.0836  0.1541
    1DIPC   C1B17601  12.652  23.516   3.831 -0.3357 -0.1369  0.0316
    1DIPC   D2B17602  12.278  23.428   4.123  0.2766  0.1043 -0.0549
    1DIPC   D3B17603  12.355  23.364   4.557  0.0535 -0.1823 -0.0795
    1DIPC   C4B17604  12.611  23.317   4.889  0.3598 -0.0131 -0.0879
    1DIPC   NC317605  17.176  18.034   4.050  0.1020  0.1527  0.0803
    1DIPC   PO417606  17.211  17.534   4.170  0.0635  0.0692 -0.0065
    1DIPC   GL117607  16.934  17.794   4.460 -0.2288  0.2672  0.0650
    1DIPC   GL217608  16.773  18.171   4.510 -0.0931  0.0096 -0.3418
    1DIPC   C1A17609  16.563  17.762   4.675  0.0337  0.0866  0.0729
    1DIPC   D2A17610  16.241  17.636   4.974  0.3431  0.0545  0.0004
    1DIPC   D3A17611  16.289  17.487   5.406 -0.0719 -0.0484  0.2113
    1DIPC   C4A17612  16.011  17.832   5.598 -0.3870  0.1072 -0.3247
    1DIPC   C1B17613  16.746  18.493   4.753 -0.0812 -0.1183  0.4325
    1DIPC   D2B17614  16.491  18.615   5.068  0.0239  0.0053  0.2409
    1DIPC   D3B17615  16.206  18.922   4.792 -0.0134 -0.0764 -0.2554
    1DIPC   C4B17616  16.367  19.018   4.387  0.2308 -0.2675  0.1195
    1DIPC   NC317617  23.837  26.275   3.308  0.0261  0.0999  0.2469
    1DIPC   PO417618  23.715  26.170   3.634  0.2552  0.1191 -0.0801
    1DIPC   GL117619  23.743  26.075   4.041  0.2394  0.5725  0.0684
    1DIPC   GL217620  23.743  25.766   4.232 -0.1159 -0.6567 -0.0505
    1DIPC   C1A17621  23.568  26.192   4.517  0.0669  0.1322  0.0733
    1DIPC   D2A17622  23.508  26.055   4.873 -0.1827  0.0174 -0.0038
    1DIPC   D3A17623  23.135  26.314   5.033  0.3559 -0.2703 -0.1397
    1DIPC   C4A17624  22.814  26.200   5.321 -0.1048  0.2338  0.2629
    1DIPC   C1B17625  23.960  25.700   4.657  0.0261 -0.0547  0.1794
    1DIPC   D2B17626  24.317  25.770   4.990 -0.0670 -0.0756 -0.0970
    1DIPC   D3B17627  24.534  26.158   4.803  0.4779 -0.2680 -0.0003
    1DIPC   C4B17628  24.844  26.443   4.972 -0.1856 -0.0215  0.2830
    1DIPC   NC317629  12.486  22.154   2.945 -0.0163 -0.1151  0.1662
    1DIPC   PO417630  12.866  22.098   3.118 -0.2729 -0.0707  0.0109
    1DIPC   GL117631  12.939  22.209   3.631 -0.1950  0.0756  0.0170
    1DIPC   GL217632  13.180  22.485   3.736  0.1014 -0.3688 -0.0978
    1DIPC   C1A17633  12.937  22.185   4.066  0.0488  0.0186 -0.1511
    1DIPC   D2A17634  13.031  22.161   4.483 -0.1656  0.3621 -0.3216
    1DIPC   D3A17635  12.689  22.207   4.722  0.3531 -0.0282  0.2833
    1DIPC   C4A17636  12.442  22.465   4.666 -0.0391 -0.0866 -0.0237
    1DIPC   C1B17637  13.674  22.568   3.865  0.0355 -0.1856  0.1843
    1DIPC   D2B17638  13.790  22.801   4.235 -0.1243  0.0260 -0.2173
    1DIPC   D3B17639  13.645  22.483   4.578  0.2164 -0.1082  0.1711
    1DIPC   C4B17640  13.185  22.534   4.795  0.1736  0.1055  0.0327
    1DIPC   NC317641  17.890  12.178   3.012  0.2012 -0.1021  0.0921
    1DIPC   PO417642  18.059  12.341   3.472 -0.3131  0.0503 -0.0826
    1DIPC   GL117643  18.187  12.299   3.905 -0.1378  0.1715  0.2039
    1DIPC   GL217644  18.026  12.256   4.234  0.2371 -0.0467  0.1685
    1DIPC   C1A17645  18.444  12.451   4.299  0.4045 -0.2675 -0.3872
    1DIPC   D2A17646  18.800  12.565   4.596 -0.3255 -0.1887 -0.3142
    1DIPC   D3A17647  18.475  12.541   4.826  0.1941 -0.0120  0.0206
    1DIPC   C4A17648  18.219  12.208   5.063  0.0633 -0.0714  0.0505
    1DIPC   C1B17649  17.889  12.124   4.681  0.2161  0.0901 -0.0973
    1DIPC   D2B17650  17.811  11.956   5.097  0.2928 -0.1421 -0.3372
    1DIPC   D3B17651  17.294  11.974   5.070  0.1449  0.1494  0.2697
    1DIPC   C4B17652  17.262  12.181   4.666  0.2665  0.0142 -0.1778
    1DIPC   NC317653  13.241  17.215   3.380  0.4165 -0.1372  0.3830
    1DIPC   PO417654  13.400  17.620   3.381 -0.2870 -0.2755 -0.1817
    1DIPC   GL117655  13.616  17.783   3.768 -0.0316  0.1101  0.0599
    1DIPC   GL217656  13.853  17.598   4.120  0.1331  0.1270 -0.0235
    1DIPC   C1A17657  13.495  17.933   4.158  0.2397  0.3975  0.0698
    1DIPC   D2A17658  13.320  18.141   4.467  0.1939 -0.1998 -0.1072
    1DIPC   D3A17659  13.375  18.312   4.853 -0.1715 -0.1002 -0.0378
    1DIPC   C4A17660  13.583  18.711   4.964 -0.0664 -0.0533  0.3912
    1DIPC   C1B17661  13.841  17.544   4.613  0.1963 -0.0944  0.0701
    1DIPC   D2B17662  13.880  17.165   4.903 -0.2289  0.0270  0.0682
    1DIPC   D3B17663  14.220  16.851   4.946  0.3266 -0.1042  0.0407
    1DIPC   C4B17664  14.401  16.715   4.497  0.0925 -0.0552  0.0514
    1DIPC   NC317665   7.902  21.951   2.643  0.1179  0.0595 -0.1474
    1DIPC   PO417666   7.667  21.836   3.100  0.2077  0.2886  0.1255
    1DIPC   GL117667   7.543  21.863   3.519  0.0087  0.0421  0.2769
    1DIPC   GL217668   7.653  22.171   3.591  0.2659  0.1136 -0.2149
    1DIPC   C1A17669   7.236  21.856   3.845 -0.1011 -0.1754 -0.1530
    1DIPC   D2A17670   6.805  21.843   3.830  0.0160  0.2535 -0.1306
    1DIPC   D3A17671   6.924  22.184   3.522 -0.0619  0.2711  0.3168
    1DIPC   C4A17672   6.811  22.666   3.602  0.0868 -0.0070 -0.0810
    1DIPC   C1B17673   7.564  22.237   4.042  0.0906 -0.1712  0.0365
    1DIPC   D2B17674   7.603  22.195   4.414  0.1268  0.0179  0.1615
    1DIPC   D3B17675   7.181  22.154   4.525 -0.0515 -0.1882  0.0524
    1DIPC   C4B17676   6.776  22.025   4.338  0.1293 -0.2449 -0.1953
    1DIPC   NC317677   7.645  24.240   3.045 -0.0421  0.2324 -0.1591
    1DIPC   PO417678   7.644  23.888   2.846 -0.3400  0.0142  0.0197
    1DIPC   GL117679   7.488  23.726   3.245 -0.2185 -0.0141  0.3994
    1DIPC   GL217680   7.520  23.936   3.527  0.0317  0.0206 -0.1887
    1DIPC   C1A17681   7.284  23.535   3.658  0.0602  0.1179 -0.0512
    1DIPC   D2A17682   6.913  23.673   3.832  0.0993 -0.1452 -0.0319
    1DIPC   D3A17683   6.451  23.553   3.989  0.1676 -0.2218  0.1727
    1DIPC   C4A17684   6.424  23.502   4.449 -0.2224  0.3106  0.1263
    1DIPC   C1B17685   7.196  24.158   3.731  0.1489 -0.0029  0.0591
    1DIPC   D2B17686   6.846  24.184   3.937 -0.0361  0.1338 -0.0358
    1DIPC   D3B17687   7.195  24.381   4.189 -0.5410  0.0691 -0.1146
    1DIPC   C4B17688   7.121  24.877   4.312 -0.0126  0.0385 -0.2139
    1DIPC   NC317689  23.232  26.297   3.734 -0.0877  0.0177 -0.0725
    1DIPC   PO417690  23.573  26.638   3.527 -0.1731  0.1701 -0.1769
    1DIPC   GL117691  23.869  26.626   3.807 -0.2081 -0.0217 -0.2266
    1DIPC   GL217692  24.098  26.903   3.993 -0.0031 -0.1873 -0.0410
    1DIPC   C1A17693  23.841  26.521   4.242  0.0986 -0.0022  0.2460
    1DIPC   D2A17694  23.839  26.719   4.602 -0.0393  0.0393 -0.0849
    1DIPC   D3A17695  24.252  26.597   4.729  0.2294  0.2019 -0.0988
    1DIPC   C4A17696  24.407  26.574   5.142  0.4658 -0.2442  0.3674
    1DIPC   C1B17697  24.323  26.551   4.211 -0.0824 -0.3149  0.0907
    1DIPC   D2B17698  24.546  26.223   4.288  0.5813 -0.2683 -0.0879
    1DIPC   D3B17699  24.121  26.141   4.531  0.0789 -0.1575 -0.1915
    1DIPC   C4B17700  23.969  26.233   4.882  0.0863  0.0262 -0.0286
    1DIPC   NC317701  25.583   3.315   2.644 -0.2322 -0.0888 -0.2528
    1DIPC   PO417702  25.480   3.608   2.986 -0.0336 -0.1289 -0.4390
    1DIPC   GL117703  25.091   3.627   3.263  0.1088 -0.0016  0.3741
    1DIPC   GL217704  24.787   3.522   3.266  0.1994 -0.0853  0.3134
    1DIPC   C1A17705  25.031   3.703   3.655  0.2146 -0.3338  0.1393
    1DIPC   D2A17706  24.888   3.766   4.151 -0.0081  0.1542 -0.0987
    1DIPC   D3A17707  24.485   3.814   4.037  0.2937  0.1632 -0.0854
    1DIPC   C4A17708  24.135   3.563   4.370 -0.0120  0.4326  0.1105
    1DIPC   C1B17709  24.419   3.544   3.597 -0.1096 -0.2243 -0.0801
    1DIPC   D2B17710  23.984   3.410   3.623 -0.2936  0.0932  0.2381
    1DIPC   D3B17711  24.001   3.879   3.809 -0.2027  0.1163 -0.2228
    1DIPC   C4B17712  23.831   4.002   4.215 -0.0533 -0.0011 -0.0094
    1DIPC   NC317713   6.234  13.463   3.284  0.1247 -0.0452 -0.2332
    1DIPC   PO417714   6.688  13.546   3.106  0.1228 -0.0800  0.2527
    1DIPC   GL117715   6.626  13.338   3.603 -0.0241  0.0155 -0.0719
    1DIPC   GL217716   6.458  13.001   3.459 -0.1862 -0.1749 -0.3075
    1DIPC   C1A17717   6.762  13.020   3.852 -0.0045  0.2388  0.1154
    1DIPC   D2A17718   7.087  12.637   4.009 -0.0508  0.0856  0.1238
    1DIPC   D3A17719   7.169  12.769   4.466 -0.2037 -0.1276  0.1296
    1DIPC   C4A17720   7.035  13.000   4.835  0.2436  0.1532 -0.1444
    1DIPC   C1B17721   6.113  13.010   3.755 -0.0778  0.1882  0.3323
    1DIPC   D2B17722   5.678  13.030   3.645  0.1468 -0.0517 -0.1411
    1DIPC   D3B17723   5.406  13.163   4.008 -0.0149 -0.3836 -0.0186
    1DIPC   C4B17724   5.257  12.988   4.405  0.0294 -0.2806  0.0603
    1DIPC   NC317725  13.558   9.709   3.759 -0.0215 -0.4085 -0.0215
    1DIPC   PO417726  13.484   9.286   3.572  0.1244  0.1143 -0.0932
    1DIPC   GL117727  13.517   9.133   4.009 -0.2244 -0.2671  0.1353
    1DIPC   GL217728  13.413   9.409   4.128  0.2865  0.1054 -0.2520
    1DIPC   C1A17729  13.496   9.085   4.502 -0.0427  0.3518  0.0275
    1DIPC   D2A17730  13.088   9.091   4.669  0.1283  0.1917  0.1488
    1DIPC   D3A17731  13.133   9.188   5.078 -0.1892  0.1987  0.1561
    1DIPC   C4A17732  12.925   9.535   5.247  0.1772 -0.2106 -0.3200
    1DIPC   C1B17733  13.003   9.661   4.202  0.1934 -0.0409  0.2091
    1DIPC   D2B17734  12.802   9.942   3.849  0.2677  0.0551  0.0550
    1DIPC   D3B17735  12.407  10.297   4.015 -0.0954 -0.0867 -0.0590
    1DIPC   C4B17736  12.512  10.623   4.332 -0.2343  0.2634 -0.0944
    1DIPC   NC317737  14.440  24.241   3.032 -0.1082  0.5332 -0.2335
    1DIPC   PO417738  14.308  23.791   3.040 -0.0505  0.3220  0.0965
    1DIPC   GL117739  14.266  23.728   3.525 -0.1243 -0.0844 -0.1585
    1DIPC   GL217740  14.240  23.503   3.753  0.0759 -0.1101  0.0400
    1DIPC   C1A17741  14.108  23.988   3.875 -0.1606  0.1081  0.1860
    1DIPC   D2A17742  13.994  24.164   4.337 -0.1781  0.1631  0.1315
    1DIPC   D3A17743  14.365  24.335   4.242 -0.0606 -0.0893 -0.1383
    1DIPC   C4A17744  14.734  24.434   4.538  0.2262 -0.0174  0.2288
    1DIPC   C1B17745  14.082  23.531   4.134  0.0807  0.1486  0.0741
    1DIPC   D2B17746  14.163  23.586   4.505 -0.0867  0.0067 -0.1787
    1DIPC   D3B17747  13.829  23.732   4.695 -0.2904 -0.1983 -0.1181
    1DIPC   C4B17748  13.594  24.152   4.695  0.1243 -0.0188  0.0926
    1DIPC   NC317749  12.020  20.170   3.509  0.1010 -0.2365  0.0494
    1DIPC   PO417750  11.929  20.550   3.644 -0.1550 -0.2282  0.1908
    1DIPC   GL117751  11.915  20.632   4.004 -0.0948 -0.1545 -0.2190
    1DIPC   GL217752  11.601  20.373   4.048  0.0260  0.0928 -0.1596
    1DIPC   C1A17753  11.994  20.932   4.341  0.0198  0.2582 -0.6654
    1DIPC   D2A17754  12.220  20.921   4.816  0.0062 -0.3370 -0.2048
    1DIPC   D3A17755  11.913  20.965   5.200 -0.3436  0.2025  0.1535
    1DIPC   C4A17756  12.050  20.706   5.550  0.2748  0.0921  0.1836
    1DIPC   C1B17757  11.481  20.767   4.296 -0.1389  0.0810 -0.1636
    1DIPC   D2B17758  11.485  21.194   4.438 -0.0083  0.0774  0.0312
    1DIPC   D3B17759  11.214  21.414   4.676 -0.0134  0.4147  0.4701
    1DIPC   C4B17760  11.348  21.706   4.893 -0.3707 -0.1415  0.1102
    1DIPC   NC317761  21.118  22.576   3.241  0.0196  0.0046 -0.0799
    1DIPC   PO417762  20.884  23.064   3.163 -0.0695 -0.0307  0.3059
    1DIPC   GL117763  20.858  23.294   3.554  0.1827  0.1543 -0.2037
    1DIPC   GL217764  20.686  23.519   3.511  0.1525  0.0813 -0.1880
    1DIPC   C1A17765  20.803  23.603   3.994 -0.1457  0.1452 -0.0953
    1DIPC   D2A17766  20.893  23.660   4.423  0.2462  0.1717 -0.3036
    1DIPC   D3A17767  20.595  23.803   4.878  0.1017  0.3252  0.0374
    1DIPC   C4A17768  20.644  23.865   5.304  0.0304 -0.2282 -0.1667
    1DIPC   C1B17769  20.312  23.588   3.771 -0.2463  0.3112 -0.1801
    1DIPC   D2B17770  20.093  23.769   4.050 -0.0073  0.1002 -0.1556
    1DIPC   D3B17771  20.127  23.632   4.475 -0.0193 -0.0458 -0.3508
    1DIPC   C4B17772  20.495  23.411   4.632 -0.0174  0.2151 -0.1327
    1DIPC   NC317773   0.984   1.923   2.331 -0.2384  0.0823 -0.4180
    1DIPC   PO417774   1.437   2.037   2.378  0.3133 -0.0766 -0.0934
    1DIPC   GL117775   1.214   2.180   2.727  0.1680  0.0360 -0.0323
    1DIPC   GL217776   1.159   1.914   2.879  0.0676  0.0271  0.0055
    1DIPC   C1A17777   1.493   2.216   3.100  0.0091  0.0983  0.3243
    1DIPC   D2A17778   1.944   2.420   3.265 -0.0058 -0.1118  0.0203
    1DIPC   D3A17779   1.840   2.502   3.676 -0.0867  0.1426 -0.0271
    1DIPC   C4A17780   2.057   2.429   3.961 -0.0830 -0.0081  0.1243
    1DIPC   C1B17781   0.840   2.247   3.028 -0.1099 -0.1330  0.0574
    1DIPC   D2B17782   0.839   2.584   3.311  0.1709  0.0810  0.1669
    1DIPC   D3B17783   0.967   2.971   3.224 -0.0757  0.0186 -0.0159
    1DIPC   C4B17784   1.125   3.245   3.572 -0.0592  0.1645 -0.1993
    1DIPC   NC317785  17.294   7.907   3.022  0.2970 -0.1681  0.1102
    1DIPC   PO417786  17.212   7.848   3.580 -0.0145  0.2963  0.1531
    1DIPC   GL117787  17.458   7.656   3.962  0.0911  0.0719 -0.1351
    1DIPC   GL217788  17.447   7.293   3.995 -0.1557 -0.1253 -0.0278
    1DIPC   C1A17789  17.692   7.657   4.345 -0.0479 -0.0039  0.0021
    1DIPC   D2A17790  17.517   7.364   4.601 -0.0151  0.0993 -0.0641
    1DIPC   D3A17791  17.110   7.043   4.579 -0.1914  0.2403 -0.2150
    1DIPC   C4A17792  16.686   7.207   4.600 -0.2518 -0.1903  0.3090
    1DIPC   C1B17793  17.549   6.941   4.299  0.3204  0.0118 -0.0828
    1DIPC   D2B17794  17.565   6.501   4.312  0.0950  0.1365 -0.0602
    1DIPC   D3B17795  17.687   6.303   4.692  0.1621  0.2037 -0.1165
    1DIPC   C4B17796  17.646   5.940   4.965  0.1910  0.0722  0.0380
    1DIPC   NC317797   5.660  25.663   2.913 -0.1671  0.0632  0.2247
    1DIPC   PO417798   5.420  26.044   2.803 -0.2673 -0.1961  0.1756
    1DIPC   GL117799   5.422  26.221   3.232  0.2506  0.5697  0.0074
    1DIPC   GL217800   5.173  26.458   3.255  0.1146  0.1164 -0.0318
    1DIPC   C1A17801   5.723  26.340   3.428  0.1961 -0.1227  0.1415
    1DIPC   D2A17802   6.089  26.466   3.343  0.3004  0.0612 -0.1422
    1DIPC   D3A17803   6.180  26.517   3.702 -0.1149 -0.0204 -0.1319
    1DIPC   C4A17804   5.893  26.399   3.985 -0.1659 -0.0246 -0.0364
    1DIPC   C1B17805   5.285  26.518   3.727  0.1917  0.1816  0.2227
    1DIPC   D2B17806   5.299  26.554   4.224  0.0341  0.2011 -0.2417
    1DIPC   D3B17807   5.031  26.228   4.052  0.1026 -0.2360  0.2187
    1DIPC   C4B17808   4.746  26.202   4.359 -0.1684 -0.1175 -0.1474
    1DIPC   NC317809  21.005  13.993   3.155 -0.0765 -0.0793 -0.0333
    1DIPC   PO417810  21.456  13.791   3.197 -0.1051  0.1726  0.3649
    1DIPC   GL117811  21.276  13.720   3.581 -0.2821  0.1257 -0.1803
    1DIPC   GL217812  21.000  13.757   3.671 -0.2366  0.0896  0.0303
    1DIPC   C1A17813  21.478  13.825   3.954 -0.1254 -0.0624 -0.1685
    1DIPC   D2A17814  21.613  13.594   4.348 -0.0137 -0.2726  0.1683
    1DIPC   D3A17815  21.570  13.427   4.868 -0.2007 -0.2199  0.0169
    1DIPC   C4A17816  21.231  13.463   5.219  0.1116  0.1224 -0.0359
    1DIPC   C1B17817  20.779  13.866   3.992 -0.1061  0.0092 -0.1988
    1DIPC   D2B17818  20.444  13.695   4.303 -0.1828  0.1185  0.0360
    1DIPC   D3B17819  20.799  13.738   4.556  0.2070  0.1058 -0.0346
    1DIPC   C4B17820  21.135  13.732   4.784 -0.2666 -0.0990 -0.0810
    1DIPC   NC317821   6.849  19.149   3.729  0.1800 -0.0120  0.0247
    1DIPC   PO417822   6.665  18.679   3.649  0.0094  0.0859 -0.1737
    1DIPC   GL117823   6.653  18.471   4.032 -0.3266 -0.1268 -0.1162
    1DIPC   GL217824   6.496  18.662   4.129 -0.1220 -0.0244 -0.1396
    1DIPC   C1A17825   6.889  18.523   4.441 -0.1312  0.0293 -0.0860
    1DIPC   D2A17826   6.531  18.489   4.654 -0.2374  0.0395  0.1762
    1DIPC   D3A17827   6.578  18.221   5.052  0.0303  0.3974  0.0810
    1DIPC   C4A17828   6.229  17.969   4.896  0.0787  0.2066  0.0528
    1DIPC   C1B17829   6.167  18.694   4.423 -0.2371  0.1979  0.0071
    1DIPC   D2B17830   5.732  18.540   4.554 -0.0672 -0.0434 -0.1255
    1DIPC   D3B17831   5.807  18.891   4.733  0.3305 -0.1580  0.1295
    1DIPC   C4B17832   5.841  18.842   5.072  0.1564 -0.1551  0.0033
    1DIPC   NC317833   4.753  15.777   3.523 -0.2328  0.0866  0.1155
    1DIPC   PO417834   4.316  15.584   3.387 -0.0260 -0.0008  0.0564
    1DIPC   GL117835   4.341  15.849   3.794 -0.0708  0.2525 -0.0588
    1DIPC   GL217836   4.468  16.142   3.856 -0.1144  0.1292  0.1039
    1DIPC   C1A17837   4.606  15.813   4.201 -0.3984  0.1343  0.1902
    1DIPC   D2A17838   4.673  15.740   4.660 -0.0078 -0.1067 -0.1670
    1DIPC   D3A17839   4.663  15.692   5.086  0.1350  0.0790  0.0445
    1DIPC   C4A17840   4.516  16.057   5.396 -0.2984 -0.3355  0.3228
    1DIPC   C1B17841   4.392  16.468   4.171  0.1879 -0.1611 -0.1690
    1DIPC   D2B17842   4.042  16.777   4.373  0.2326 -0.1183 -0.1562
    1DIPC   D3B17843   4.394  16.868   4.616 -0.0903 -0.0388 -0.1494
    1DIPC   C4B17844   4.455  16.528   4.782 -0.3458 -0.5317  0.1430
    1DIPC   NC317845  23.275   2.413   2.625 -0.1556  0.1263 -0.0060
    1DIPC   PO417846  23.476   2.222   3.016  0.0193  0.1928 -0.3721
    1DIPC   GL117847  23.618   2.368   3.372  0.0601  0.0951 -0.0049
    1DIPC   GL217848  23.693   2.591   3.383  0.0838  0.1769  0.0014
    1DIPC   C1A17849  23.735   2.238   3.822 -0.0909  0.0576 -0.0432
    1DIPC   D2A17850  24.012   1.846   3.906 -0.3008 -0.0896  0.0920
    1DIPC   D3A17851  23.946   1.492   4.063 -0.0703 -0.0257  0.3049
    1DIPC   C4A17852  24.216   1.270   4.410 -0.0919  0.0807  0.1011
    1DIPC   C1B17853  24.121   2.851   3.667 -0.1382  0.1826  0.0062
    1DIPC   D2B17854  24.332   3.155   3.886 -0.2635 -0.0109 -0.0298
    1DIPC   D3B17855  23.899   3.162   4.068 -0.0425  0.0984 -0.1821
    1DIPC   C4B17856  23.741   3.259   4.558 -0.3096 -0.0715  0.2009
    1DIPC   NC317857  10.414  15.984   3.442 -0.0563 -0.0989  0.2114
    1DIPC   PO417858  10.033  15.780   3.409  0.0179  0.1314 -0.3332
    1DIPC   GL117859   9.766  15.705   3.781 -0.1891 -0.1626 -0.0179
    1DIPC   GL217860   9.651  16.073   3.800  0.2527 -0.1687 -0.1262
    1DIPC   C1A17861   9.760  15.808   4.204 -0.2607  0.2349  0.1500
    1DIPC   D2A17862   9.688  15.981   4.596 -0.1688 -0.1553 -0.2950
    1DIPC   D3A17863   9.774  16.481   4.731  0.1066  0.3333  0.1361
    1DIPC   C4A17864   9.920  16.531   5.080  0.1629 -0.5514  0.1090
    1DIPC   C1B17865   9.296  15.896   4.100  0.0664  0.0504 -0.0766
    1DIPC   D2B17866   9.146  15.728   4.497 -0.1304  0.2388 -0.1119
    1DIPC   D3B17867   8.758  16.057   4.291 -0.1056  0.1846 -0.1491
    1DIPC   C4B17868   8.646  16.481   4.128 -0.3624 -0.2005 -0.3065
    1DIPC   NC317869   3.036  22.321   2.967 -0.0389  0.3432 -0.3015
    1DIPC   PO417870   2.648  22.381   3.114  0.0681  0.0471 -0.1092
    1DIPC   GL117871   2.718  22.478   3.543  0.1147  0.0491  0.0107
    1DIPC   GL217872   2.528  22.697   3.607  0.0797  0.3584  0.1969
    1DIPC   C1A17873   2.920  22.752   3.961 -0.3940 -0.1305  0.0350
    1DIPC   D2A17874   3.184  22.643   4.223  0.3499 -0.2052  0.0934
    1DIPC   D3A17875   3.441  23.045   4.373  0.1315  0.0268 -0.0813
    1DIPC   C4A17876   3.344  23.451   4.358 -0.2492 -0.1644  0.3749
    1DIPC   C1B17877   2.397  22.452   3.953 -0.3259  0.0801  0.0211
    1DIPC   D2B17878   2.597  22.398   4.227  0.1345  0.1254 -0.0883
    1DIPC   D3B17879   2.836  22.166   3.933  0.1284  0.5555 -0.1291
    1DIPC   C4B17880   2.965  21.814   4.140  0.0302 -0.0006 -0.2074
    1DIPC   NC317881   3.213  18.691   2.766 -0.0016 -0.1455  0.0530
    1DIPC   PO417882   3.263  18.611   3.228 -0.0717  0.1380  0.1349
    1DIPC   GL117883   3.127  18.357   3.664  0.0691 -0.1633  0.0163
    1DIPC   GL217884   3.360  18.106   3.785 -0.2887 -0.1008 -0.2064
    1DIPC   C1A17885   2.870  18.034   3.888 -0.2805 -0.0040  0.0055
    1DIPC   D2A17886   2.546  17.839   3.891 -0.0415  0.1428  0.2690
    1DIPC   D3A17887   2.441  17.786   4.364  0.3042 -0.0420  0.1964
    1DIPC   C4A17888   2.689  17.964   4.777 -0.1671 -0.3683  0.3902
    1DIPC   C1B17889   3.195  18.321   4.138  0.1302  0.2588  0.1497
    1DIPC   D2B17890   3.211  18.511   4.507  0.1391  0.0114  0.0668
    1DIPC   D3B17891   3.204  18.925   4.726  0.0349  0.0964 -0.1387
    1DIPC   C4B17892   3.342  19.076   5.125  0.3822  0.3293  0.1863
    1DIPC   NC317893  20.002  18.729   3.286  0.1115 -0.0285 -0.2519
    1DIPC   PO417894  20.013  19.071   3.520 -0.0126 -0.1063  0.0555
    1DIPC   GL117895  19.998  19.069   3.938 -0.2955 -0.0923  0.2688
    1DIPC   GL217896  19.812  18.881   4.211  0.0007 -0.0225 -0.0353
    1DIPC   C1A17897  20.243  19.204   4.395 -0.1324 -0.0930 -0.2216
    1DIPC   D2A17898  20.482  19.200   4.768 -0.1724  0.2676 -0.0217
    1DIPC   D3A17899  20.495  18.786   4.988 -0.0822  0.0828  0.2764
    1DIPC   C4A17900  20.847  18.580   5.059  0.1898  0.0251  0.1289
    1DIPC   C1B17901  19.761  19.149   4.627  0.1381  0.1785  0.4852
    1DIPC   D2B17902  19.989  19.020   4.978  0.0210 -0.1188  0.0129
    1DIPC   D3B17903  20.288  19.082   5.294  0.1028 -0.1696  0.1486
    1DIPC   C4B17904  20.175  18.914   5.743 -0.4601 -0.0346 -0.2421
    1DIPC   NC317905  18.962  16.204   3.611  0.2334 -0.0146 -0.0810
    1DIPC   PO417906  19.182  16.629   3.459 -0.0378 -0.0759 -0.3195
    1DIPC   GL117907  19.389  16.499   3.806  0.0566 -0.3479  0.0827
    1DIPC   GL217908  19.743  16.447   3.907  0.3231 -0.3383  0.0785
    1DIPC   C1A17909  19.257  16.284   4.227  0.2686 -0.0610  0.3191
    1DIPC   D2A17910  19.312  16.235   4.653 -0.0009 -0.1410  0.2126
    1DIPC   D3A17911  19.039  16.163   4.981  0.1331 -0.0450  0.1107
    1DIPC   C4A17912  19.038  16.444   5.295 -0.2548  0.0013  0.2494
    1DIPC   C1B17913  19.676  16.121   4.193 -0.0148  0.2654  0.1923
    1DIPC   D2B17914  19.359  15.812   4.357 -0.3482 -0.1466 -0.0151
    1DIPC   D3B17915  19.383  15.651   4.844  0.0848 -0.1609  0.1705
    1DIPC   C4B17916  18.976  15.632   4.993 -0.1435 -0.1008 -0.1607
    1DIPC   NC317917   1.108  11.230   3.526  0.3185 -0.2231  0.0462
    1DIPC   PO417918   0.674  11.223   3.434  0.1093 -0.0578 -0.2489
    1DIPC   GL117919   0.626  11.124   3.817  0.1261  0.1297  0.0818
    1DIPC   GL217920   0.779  10.762   3.711  0.1638 -0.1336  0.0155
    1DIPC   C1A17921   0.582  11.237   4.239  0.2213 -0.0318  0.0234
    1DIPC   D2A17922   0.431  11.164   4.691 -0.0175 -0.1518 -0.0099
    1DIPC   D3A17923   0.200  10.855   4.565 -0.3998  0.1855 -0.4337
    1DIPC   C4A17924   0.195  10.585   4.949 -0.0899 -0.1787  0.0796
    1DIPC   C1B17925   0.893  10.857   4.158  0.2596 -0.0362  0.0382
    1DIPC   D2B17926   1.123  11.250   4.165  0.3356 -0.0919  0.1374
    1DIPC   D3B17927   0.937  11.297   4.625  0.0377  0.0823  0.2005
    1DIPC   C4B17928   1.117  11.600   4.845  0.4672 -0.0564  0.2118
    1DIPC   NC317929  22.417  22.977   3.399  0.0221  0.2670 -0.0172
    1DIPC   PO417930  22.554  23.284   3.543  0.2119  0.0942 -0.1499
    1DIPC   GL117931  22.509  23.285   3.984  0.1250 -0.1415 -0.1362
    1DIPC   GL217932  22.381  23.561   3.967  0.1469 -0.0470 -0.0162
    1DIPC   C1A17933  22.631  23.309   4.455  0.1775  0.2064 -0.1505
    1DIPC   D2A17934  22.802  23.156   4.868 -0.1129 -0.2690 -0.1870
    1DIPC   D3A17935  23.179  22.856   4.949  0.0118  0.0453  0.0262
    1DIPC   C4A17936  23.504  22.490   4.854 -0.0200  0.1086 -0.1069
    1DIPC   C1B17937  22.195  23.542   4.340 -0.5420  0.0018  0.1677
    1DIPC   D2B17938  22.201  23.267   4.737  0.2084  0.0110  0.0194
    1DIPC   D3B17939  22.486  23.619   4.837 -0.0763 -0.1524  0.1841
    1DIPC   C4B17940  22.458  24.076   4.966 -0.3246  0.1817  0.0043
    1DIPC   NC317941   5.034  10.772   3.190  0.0056  0.0110  0.1941
    1DIPC   PO417942   5.078  10.760   3.541 -0.1269 -0.0943  0.1151
    1DIPC   GL117943   5.239  10.847   3.930  0.2031 -0.2862  0.3158
    1DIPC   GL217944   5.199  11.174   3.928 -0.1680  0.5364  0.3127
    1DIPC   C1A17945   5.670  10.950   4.243 -0.1529  0.0215 -0.1866
    1DIPC   D2A17946   5.810  10.778   4.718  0.1403  0.0326 -0.3218
    1DIPC   D3A17947   6.079  10.968   5.095  0.2426 -0.0654  0.2888
    1DIPC   C4A17948   6.487  11.090   5.215 -0.3237  0.0037  0.0738
    1DIPC   C1B17949   4.941  11.300   4.244 -0.0983  0.0633 -0.1593
    1DIPC   D2B17950   4.840  11.135   4.613  0.0754 -0.2217 -0.3034
    1DIPC   D3B17951   4.935  11.479   4.777  0.3402 -0.0770  0.1187
    1DIPC   C4B17952   5.325  11.733   4.704 -0.0472  0.1185  0.4616
    1DIPC   NC317953  19.689   5.993   3.304  0.0071 -0.0185 -0.1844
    1DIPC   PO417954  19.702   6.408   3.250  0.1532  0.0325 -0.2233
    1DIPC   GL117955  19.732   6.393   3.774  0.1024  0.0280  0.2551
    1DIPC   GL217956  19.762   6.762   3.974  0.1580 -0.1999 -0.2615
    1DIPC   C1A17957  19.652   6.158   4.203  0.1443 -0.0392 -0.1831
    1DIPC   D2A17958  19.543   5.806   4.406 -0.0688 -0.2752 -0.0785
    1DIPC   D3A17959  19.417   5.548   4.859 -0.2239 -0.2253  0.1721
    1DIPC   C4A17960  19.634   5.673   5.116  0.1867  0.1132  0.0397
    1DIPC   C1B17961  19.873   6.894   4.327 -0.2193  0.0677 -0.2518
    1DIPC   D2B17962  20.200   6.804   4.535 -0.1845 -0.0659 -0.0511
    1DIPC   D3B17963  20.304   6.418   4.689 -0.2017  0.0979 -0.5378
    1DIPC   C4B17964  20.342   6.090   4.910  0.1581 -0.3297 -0.2921
    1DIPC   NC317965  12.755   9.938   3.319  0.1470 -0.1071 -0.3023
    1DIPC   PO417966  12.593   9.694   3.488 -0.0599 -0.2090  0.0933
    1DIPC   GL117967  12.388   9.606   3.787 -0.0766 -0.2201  0.0317
    1DIPC   GL217968  12.622   9.402   3.941  0.2683  0.3824 -0.0213
    1DIPC   C1A17969  12.402   9.694   4.244  0.2081 -0.0503  0.0823
    1DIPC   D2A17970  12.488   9.743   4.747  0.2356  0.1769 -0.0380
    1DIPC   D3A17971  12.533   9.352   4.932 -0.2856 -0.0462 -0.0171
    1DIPC   C4A17972  12.186   9.145   5.067  0.2157  0.2815 -0.1349
    1DIPC   C1B17973  12.772   9.276   4.329  0.1672  0.0560  0.1050
    1DIPC   D2B17974  12.691   8.904   4.424 -0.3903  0.0741 -0.0839
    1DIPC   D3B17975  12.771   8.772   4.874 -0.0873  0.0080 -0.1613
    1DIPC   C4B17976  12.668   9.007   5.226  0.2131 -0.1056  0.0475
    1DIPC   NC317977  16.009  10.529   3.544  0.1282 -0.0635 -0.2168
    1DIPC   PO417978  15.860  10.566   3.932  0.3449  0.0600 -0.1280
    1DIPC   GL117979  15.812  10.342   4.327  0.2888 -0.1237  0.0592
    1DIPC   GL217980  15.496  10.151   4.420 -0.0284 -0.1475  0.0895
    1DIPC   C1A17981  16.029  10.191   4.692  0.1913  0.0514 -0.0964
    1DIPC   D2A17982  16.350  10.000   4.965  0.0446 -0.0106  0.1407
    1DIPC   D3A17983  16.194  10.068   5.420 -0.0369 -0.3113 -0.0918
    1DIPC   C4A17984  16.244   9.684   5.637  0.1595 -0.0162  0.0277
    1DIPC   C1B17985  15.579  10.325   4.834  0.3905 -0.1546 -0.2101
    1DIPC   D2B17986  15.831  10.472   5.190 -0.1506  0.0942  0.1578
    1DIPC   D3B17987  15.625  10.785   5.467 -0.0720  0.1313 -0.0469
    1DIPC   C4B17988  15.810  10.935   5.908 -0.1643  0.0792 -0.3595
    1DIPC   NC317989  21.278   4.070   2.752  0.1515 -0.1281  0.0066
    1DIPC   PO417990  21.129   4.484   2.704 -0.1699 -0.0594  0.0667
    1DIPC   GL117991  21.148   4.389   3.196 -0.0735 -0.0090  0.0734
    1DIPC   GL217992  21.298   4.111   3.250  0.1080  0.1693 -0.0091
    1DIPC   C1A17993  21.047   4.482   3.651 -0.0204 -0.1855  0.3010
    1DIPC   D2A17994  20.714   4.278   3.930 -0.1986  0.0896 -0.1963
    1DIPC   D3A17995  21.083   4.021   3.855  0.0616  0.1431  0.1905
    1DIPC   C4A17996  20.986   3.886   4.206  0.0502 -0.1215  0.1535
    1DIPC   C1B17997  21.555   4.300   3.677  0.0091  0.2677  0.1471
    1DIPC   D2B17998  21.781   4.274   4.037 -0.1890 -0.0742  0.3227
    1DIPC   D3B17999  21.407   4.130   4.252  0.1086  0.0867 -0.0897
    1DIPC   C4B18000  21.414   3.731   4.512  0.0762 -0.0341  0.1852
    1DIPC   NC318001  18.274  26.385   3.351 -0.0785 -0.0478  0.0682
    1DIPC   PO418002  18.637  26.392   3.450  0.0113  0.3550 -0.0574
    1DIPC   GL118003  18.531  26.503   3.915  0.1731  0.0601  0.0318
    1DIPC   GL218004  18.248  26.741   4.051  0.1379  0.0090  0.1572
    1DIPC   C1A18005  18.618  26.568   4.357 -0.0711 -0.1946  0.1095
    1DIPC   D2A18006  18.819  26.726   4.718 -0.3167 -0.5036  0.0587
    1DIPC   D3A18007  18.692  26.809   5.151 -0.0360 -0.1110  0.1423
    1DIPC   C4A18008  18.283  27.007   5.186 -0.1945  0.1094 -0.1511
    1DIPC   C1B18009  18.131  26.647   4.436  0.1301  0.0182  0.2492
    1DIPC   D2B18010  18.205  26.638   4.912 -0.1169  0.1122 -0.3318
    1DIPC   D3B18011  17.962  26.469   4.902  0.2021 -0.1866 -0.0531
    1DIPC   C4B18012  18.069  26.082   4.997  0.2355 -0.2488 -0.1247
    1DIPC   NC318013   6.329   9.652   3.242 -0.0478  0.0886 -0.0986
    1DIPC   PO418014   6.592   9.457   3.539  0.2489 -0.2058  0.0370
    1DIPC   GL118015   6.646   9.635   3.867  0.0013  0.3240  0.0491
    1DIPC   GL218016   6.692   9.988   3.949  0.0362 -0.1357 -0.1169
    1DIPC   C1A18017   7.033   9.795   4.220  0.2451 -0.1072 -0.0198
    1DIPC   D2A18018   7.240   9.647   4.674  0.0674 -0.1699  0.1096
    1DIPC   D3A18019   7.105   9.830   5.027  0.0468 -0.1231 -0.1369
    1DIPC   C4A18020   6.988  10.240   5.046  0.1271 -0.0729 -0.3192
    1DIPC   C1B18021   6.545   9.751   4.329 -0.1854  0.1325  0.3266
    1DIPC   D2B18022   6.259   9.535   4.338 -0.2733  0.0901 -0.1700
    1DIPC   D3B18023   6.189   9.295   4.717  0.0751  0.2233  0.0541
    1DIPC   C4B18024   5.851   8.951   4.721 -0.0071 -0.0425 -0.2745
    1DIPC   NC318025   9.512   2.545   2.901  0.2614 -0.2430 -0.1994
    1DIPC   PO418026   9.831   2.576   3.183  0.0926  0.0673  0.0004
    1DIPC   GL118027   9.523   2.532   3.519  0.1595 -0.1153  0.1802
    1DIPC   GL218028   9.662   2.769   3.648  0.0837 -0.0580 -0.0772
    1DIPC   C1A18029   9.415   2.284   3.837  0.1602 -0.0756 -0.1128
    1DIPC   D2A18030   9.528   2.030   4.160 -0.1327 -0.0256 -0.2649
    1DIPC   D3A18031   9.261   2.156   4.483 -0.2388 -0.4300  0.1289
    1DIPC   C4A18032   9.029   1.858   4.610  0.2587  0.0039  0.1301
    1DIPC   C1B18033   9.458   2.768   4.036  0.1944  0.1661  0.0416
    1DIPC   D2B18034   9.554   2.510   4.293 -0.0849  0.0470 -0.2332
    1DIPC   D3B18035   9.550   2.835   4.593 -0.0813  0.4232 -0.0125
    1DIPC   C4B18036   9.412   2.695   4.894  0.2526  0.1571 -0.1556
    1DIPC   NC318037  14.069  25.733   3.194 -0.1627  0.0326 -0.2460
    1DIPC   PO418038  14.254  25.291   3.296  0.3405  0.0578  0.0474
    1DIPC   GL118039  14.080  25.075   3.727 -0.2366 -0.0086  0.0108
    1DIPC   GL218040  13.990  25.368   3.964  0.2482  0.2244  0.0545
    1DIPC   C1A18041  14.274  24.882   4.065  0.1399 -0.2138  0.2958
    1DIPC   D2A18042  14.312  24.737   4.489 -0.2200 -0.2630  0.0288
    1DIPC   D3A18043  13.854  24.606   4.544 -0.1867  0.0356 -0.1417
    1DIPC   C4A18044  13.592  24.754   4.875 -0.1983  0.2320 -0.4924
    1DIPC   C1B18045  14.268  25.325   4.343 -0.0216  0.0697  0.0987
    1DIPC   D2B18046  14.620  25.391   4.674  0.2289  0.0605  0.2903
    1DIPC   D3B18047  14.882  25.313   4.954 -0.1393 -0.2233 -0.0706
    1DIPC   C4B18048  14.795  25.384   5.357 -0.0953 -0.0820 -0.0529
    1DIPC   NC318049  18.475   5.964   2.748  0.1698  0.4228  0.0911
    1DIPC   PO418050  18.637   5.732   3.130 -0.0712  0.3641 -0.2201
    1DIPC   GL118051  18.752   5.764   3.591 -0.0537  0.1331  0.0257
    1DIPC   GL218052  18.812   6.007   3.729 -0.2049  0.1788 -0.1451
    1DIPC   C1A18053  18.851   5.409   3.894 -0.3815  0.2066 -0.4350
    1DIPC   D2A18054  18.979   5.212   4.293 -0.4441  0.1371 -0.2206
    1DIPC   D3A18055  19.228   5.051   3.948 -0.0627  0.1178  0.1940
    1DIPC   C4A18056  19.175   5.158   3.558 -0.0650  0.1374  0.0042
    1DIPC   C1B18057  18.729   6.226   4.100  0.0587  0.1756 -0.6144
    1DIPC   D2B18058  18.922   6.180   4.549  0.0836  0.0078 -0.1320
    1DIPC   D3B18059  19.271   6.019   4.809 -0.0218 -0.2121 -0.0728
    1DIPC   C4B18060  19.695   6.063   4.747  0.1267  0.0518  0.2809
    1DIPC   NC318061   4.209   8.686   2.850 -0.2105  0.1694 -0.1431
    1DIPC   PO418062   4.049   8.202   2.739  0.1043  0.2109 -0.1646
    1DIPC   GL118063   3.541   8.048   2.968 -0.4339  0.0181 -0.1918
    1DIPC   GL218064   3.490   8.078   3.262  0.3066  0.1638  0.0628
    1DIPC   C1A18065   3.288   7.706   3.029  0.1164  0.0094  0.2314
    1DIPC   D2A18066   3.110   7.372   3.125 -0.0716 -0.4634 -0.1772
    1DIPC   D3A18067   3.383   7.118   3.186 -0.2910 -0.1483  0.0661
    1DIPC   C4A18068   3.524   6.884   3.571 -0.0304 -0.0840 -0.0619
    1DIPC   C1B18069   3.588   7.642   3.488  0.1528  0.0229 -0.3076
    1DIPC   D2B18070   3.622   7.316   3.813 -0.2331 -0.3296 -0.1458
    1DIPC   D3B18071   3.253   7.237   3.790  0.2951  0.0206  0.0177
    1DIPC   C4B18072   3.051   7.569   3.548 -0.0464 -0.1369  0.1916
    1DIPC   NC318073  25.040   3.471   2.748  0.1837  0.1529 -0.3881
    1DIPC   PO418074  24.872   3.049   2.996 -0.0827 -0.1498 -0.0812
    1DIPC   GL118075  24.938   2.970   3.406  0.1101  0.3093  0.2325
    1DIPC   GL218076  24.756   2.756   3.610 -0.1473 -0.1584 -0.3215
    1DIPC   C1A18077  24.815   3.218   3.769 -0.0613 -0.0348 -0.0919
    1DIPC   D2A18078  24.626   3.295   4.219  0.0695 -0.1347  0.1197
    1DIPC   D3A18079  24.844   2.966   4.574  0.2627  0.0612 -0.1215
    1DIPC   C4A18080  24.659   2.601   4.584 -0.1586  0.0370  0.1077
    1DIPC   C1B18081  25.028   2.855   4.023 -0.0441 -0.2703  0.0183
    1DIPC   D2B18082  25.172   3.226   4.221 -0.1867  0.1270 -0.0928
    1DIPC   D3B18083  25.171   3.510   4.448 -0.3010  0.0892 -0.1291
    1DIPC   C4B18084  25.384   3.864   4.347 -0.1822 -0.0446 -0.1117
    1DIPC   NC318085   2.933  21.515   3.358  0.0098  0.0373  0.1811
    1DIPC   PO418086   3.445  21.360   3.354 -0.0040  0.2054  0.0770
    1DIPC   GL118087   3.321  20.999   3.670  0.1870 -0.0743  0.3310
    1DIPC   GL218088   3.047  21.057   3.655 -0.0617 -0.0816  0.0017
    1DIPC   C1A18089   3.524  20.809   4.036 -0.0856  0.3071  0.1729
    1DIPC   D2A18090   3.526  20.476   4.254 -0.2551 -0.1597 -0.0205
    1DIPC   D3A18091   3.148  20.370   4.392  0.4016  0.1407 -0.0706
    1DIPC   C4A18092   3.083  20.478   4.842  0.0845  0.0799  0.1177
    1DIPC   C1B18093   2.667  21.032   3.846 -0.1962 -0.2397 -0.0877
    1DIPC   D2B18094   2.436  20.974   4.334 -0.0818  0.0462 -0.0083
    1DIPC   D3B18095   2.854  20.799   4.337  0.2257  0.1150 -0.0357
    1DIPC   C4B18096   3.048  20.840   4.112  0.0009  0.2353  0.1970
    1DIPC   NC318097   3.477  17.326   2.954 -0.0186 -0.1218  0.1095
    1DIPC   PO418098   3.472  17.686   3.216  0.0390  0.1500 -0.0832
    1DIPC   GL118099   3.217  17.670   3.675 -0.1153 -0.0138  0.1197
    1DIPC   GL218100   2.981  17.452   3.552 -0.0728  0.0935  0.3057
    1DIPC   C1A18101   3.327  17.739   4.067  0.1582 -0.0198  0.2571
    1DIPC   D2A18102   3.479  17.399   4.341 -0.0971 -0.0957  0.1475
    1DIPC   D3A18103   3.078  17.530   4.610 -0.0754  0.6605  0.0895
    1DIPC   C4A18104   2.975  17.920   4.375 -0.1373  0.1507 -0.1078
    1DIPC   C1B18105   2.894  17.484   4.019 -0.0173 -0.0226 -0.0762
    1DIPC   D2B18106   2.730  17.313   4.270 -0.1490 -0.0658  0.2025
    1DIPC   D3B18107   2.425  17.329   3.969  0.1191 -0.1490  0.0101
    1DIPC   C4B18108   2.500  17.390   3.636  0.1479  0.1575 -0.1947
    1DIPC   NC318109   6.774  14.334   2.974 -0.2222  0.1036  0.0344
    1DIPC   PO418110   6.799  14.053   3.280 -0.0804  0.5207  0.0209
    1DIPC   GL118111   6.483  13.921   3.515 -0.0625  0.4006  0.0450
    1DIPC   GL218112   6.432  14.086   3.775  0.0337  0.0577 -0.1012
    1DIPC   C1A18113   6.325  13.627   3.869  0.0131 -0.0813  0.3963
    1DIPC   D2A18114   6.368  13.216   4.084 -0.2658  0.2295 -0.1854
    1DIPC   D3A18115   6.130  13.283   4.436  0.0113 -0.0479 -0.1576
    1DIPC   C4A18116   6.089  13.135   4.867 -0.1531  0.0076  0.4224
    1DIPC   C1B18117   6.475  14.020   4.144  0.0441  0.1649 -0.0451
    1DIPC   D2B18118   6.423  14.155   4.491  0.0606  0.0193 -0.0185
    1DIPC   D3B18119   6.179  14.393   4.191 -0.0972 -0.0187 -0.1835
    1DIPC   C4B18120   6.199  14.797   4.311  0.0014 -0.2868 -0.1419
    1DIPC   NC318121  12.533  24.720   2.985  0.0506 -0.0587 -0.0604
    1DIPC   PO418122  12.749  24.563   3.377 -0.1216 -0.2048  0.0449
    1DIPC   GL118123  12.820  24.255   3.697 -0.4353 -0.0610 -0.1382
    1DIPC   GL218124  12.952  23.892   3.770  0.0192 -0.3777 -0.0453
    1DIPC   C1A18125  12.678  24.207   4.153 -0.1815  0.0151  0.0813
    1DIPC   D2A18126  12.719  24.363   4.621  0.0739  0.1896  0.1137
    1DIPC   D3A18127  12.379  24.362   4.904 -0.2662 -0.2510 -0.1643
    1DIPC   C4A18128  12.193  24.605   5.212  0.0596  0.1779 -0.1073
    1DIPC   C1B18129  12.949  23.831   4.220  0.3026  0.1452 -0.2107
    1DIPC   D2B18130  12.701  23.776   4.541  0.1914 -0.0520  0.1983
    1DIPC   D3B18131  12.958  23.917   4.859 -0.1786 -0.2898 -0.1870
    1DIPC   C4B18132  13.392  23.796   5.012 -0.2758  0.1018  0.1805
    1DIPC   NC318133  21.041  21.889   3.091 -0.0328  0.0831  0.2631
    1DIPC   PO418134  21.354  22.206   2.925 -0.0793  0.1307 -0.1426
    1DIPC   GL118135  21.343  22.119   3.402 -0.1083 -0.0974 -0.1142
    1DIPC   GL218136  21.087  22.266   3.656  0.0114  0.0945 -0.2146
    1DIPC   C1A18137  21.340  21.870   3.828  0.1916 -0.0908  0.0725
    1DIPC   D2A18138  21.447  21.427   4.045 -0.2393  0.1378  0.0329
    1DIPC   D3A18139  21.390  21.572   4.463  0.1325 -0.0592  0.1386
    1DIPC   C4A18140  21.765  21.622   4.765 -0.1858  0.0653  0.1581
    1DIPC   C1B18141  21.350  22.330   4.031 -0.0820  0.0332  0.3050
    1DIPC   D2B18142  21.579  22.060   4.163 -0.2449 -0.0914 -0.0766
    1DIPC   D3B18143  21.989  22.216   4.323  0.2630  0.2374  0.0220
    1DIPC   C4B18144  22.117  22.154   4.731  0.4448 -0.2198 -0.0577
    1DIPC   NC318145  10.406   1.670   2.642 -0.2120  0.2369 -0.2935
    1DIPC   PO418146  10.081   1.816   2.763  0.0941  0.1036  0.0184
    1DIPC   GL118147  10.020   2.001   3.194 -0.0424  0.1905  0.0296
    1DIPC   GL218148  10.173   1.875   3.409  0.0488 -0.1492  0.1836
    1DIPC   C1A18149   9.719   1.964   3.638  0.2380  0.1295  0.1673
    1DIPC   D2A18150   9.481   1.655   3.808  0.0577 -0.0346 -0.0512
    1DIPC   D3A18151   9.715   1.252   3.670 -0.1134  0.0952 -0.1185
    1DIPC   C4A18152  10.211   1.176   3.852  0.0498  0.1044 -0.0752
    1DIPC   C1B18153  10.060   1.629   3.726  0.0726 -0.2034  0.0743
    1DIPC   D2B18154   9.852   1.435   4.129  0.0606  0.2196  0.1292
    1DIPC   D3B18155   9.401   1.267   4.094 -0.2578 -0.0409 -0.2231
    1DIPC   C4B18156   9.455   0.878   3.867 -0.1930  0.2834 -0.5261
    1DIPC   NC318157  26.266  18.321   2.519  0.3269 -0.0064 -0.3136
    1DIPC   PO418158  25.893  18.513   2.657  0.0715 -0.1367 -0.0764
    1DIPC   GL118159  25.795  18.609   3.066 -0.0491  0.0252  0.2091
    1DIPC   GL218160  25.947  18.847   3.215  0.0129  0.0726  0.1312
    1DIPC   C1A18161  25.796  18.549   3.513  0.1072  0.2949 -0.0722
    1DIPC   D2A18162  25.957  18.409   3.871  0.3344 -0.3466  0.3481
    1DIPC   D3A18163  26.234  18.831   3.999  0.0359 -0.1129  0.0096
    1DIPC   C4A18164  26.563  18.935   3.785 -0.1266 -0.0946  0.2267
    1DIPC   C1B18165  26.262  18.622   3.445  0.0544  0.1753 -0.0896
    1DIPC   D2B18166  26.467  18.412   3.728 -0.0474 -0.5219 -0.1515
    1DIPC   D3B18167  26.439  18.370   4.160  0.1986  0.0244 -0.1485
    1DIPC   C4B18168  26.752  18.267   4.433  0.2728 -0.1367 -0.0491
    1DIPC   NC318169  18.165  27.209   3.724 -0.3368 -0.1389 -0.2209
    1DIPC   PO418170  18.135  26.848   3.550  0.2703 -0.1230 -0.1499
    1DIPC   GL118171  17.986  26.458   3.739  0.0544  0.2266  0.1416
    1DIPC   GL218172  17.784  26.233   3.609  0.3062 -0.0803 -0.2955
    1DIPC   C1A18173  18.057  26.237   4.074 -0.1663  0.1451  0.1914
    1DIPC   D2A18174  17.977  26.109   4.487 -0.1015 -0.0116 -0.2631
    1DIPC   D3A18175  18.404  26.122   4.629 -0.2381  0.1346  0.0951
    1DIPC   C4A18176  18.514  26.289   5.124 -0.1217  0.2470 -0.2377
    1DIPC   C1B18177  17.543  26.161   3.966 -0.2727 -0.0759  0.1965
    1DIPC   D2B18178  17.431  26.139   4.436 -0.4077  0.5182 -0.1655
    1DIPC   D3B18179  17.377  25.695   4.526 -0.4318 -0.1569  0.2032
    1DIPC   C4B18180  17.674  25.657   4.867  0.0589 -0.3200 -0.1414
    1DIPC   NC318181  16.519  25.012   3.209  0.0123 -0.2661 -0.2124
    1DIPC   PO418182  16.196  24.848   3.253  0.3134  0.0322 -0.0093
    1DIPC   GL118183  16.272  24.585   3.578 -0.0125 -0.2239  0.0649
    1DIPC   GL218184  16.247  24.296   3.473  0.2881 -0.0623 -0.1118
    1DIPC   C1A18185  16.203  24.638   3.977  0.1591  0.0720 -0.2537
    1DIPC   D2A18186  15.854  24.610   4.206  0.0105  0.4806 -0.2180
    1DIPC   D3A18187  15.830  24.999   4.403 -0.0354  0.2162 -0.1809
    1DIPC   C4A18188  15.605  25.051   4.770 -0.0263  0.1506 -0.1124
    1DIPC   C1B18189  16.574  24.195   3.753  0.1389 -0.1104  0.1031
    1DIPC   D2B18190  16.719  24.494   4.151 -0.1245 -0.0571 -0.0935
    1DIPC   D3B18191  16.664  24.538   4.554  0.2904  0.2377 -0.0791
    1DIPC   C4B18192  16.714  24.206   4.912  0.1274 -0.1063  0.0158
    1DIPC   NC318193   0.495  11.023   3.049 -0.2560 -0.0130  0.0313
    1DIPC   PO418194   0.860  10.664   3.068  0.0786  0.1106 -0.1299
    1DIPC   GL118195   0.954  10.384   3.271 -0.2656 -0.0173 -0.2841
    1DIPC   GL218196   1.267  10.491   3.433 -0.4285  0.0776  0.1303
    1DIPC   C1A18197   1.237  10.047   3.655  0.2479  0.2195  0.2237
    1DIPC   D2A18198   1.455   9.722   3.850 -0.0172  0.2184 -0.0062
    1DIPC   D3A18199   1.709   9.805   4.169 -0.1765  0.0601 -0.0695
    1DIPC   C4A18200   1.506   9.528   4.488  0.1679 -0.0794 -0.2655
    1DIPC   C1B18201   1.195  10.492   3.912 -0.0339 -0.1756  0.1549
    1DIPC   D2B18202   0.976  10.379   4.287 -0.2682 -0.2268  0.1013
    1DIPC   D3B18203   1.013   9.950   4.074  0.0978  0.3281 -0.0557
    1DIPC   C4B18204   1.070   9.532   4.274 -0.2342  0.0854  0.0741
    1DIPC   NC318205  20.906  25.213   2.836  0.0239 -0.5395 -0.0308
    1DIPC   PO418206  20.971  24.919   3.218  0.0382 -0.1195  0.2050
    1DIPC   GL118207  20.639  24.677   3.498  0.1370 -0.0108  0.3686
    1DIPC   GL218208  20.370  24.680   3.390  0.2042  0.2460 -0.0620
    1DIPC   C1A18209  20.773  24.506   3.879  0.1154  0.0114 -0.1140
    1DIPC   D2A18210  20.646  24.364   4.294 -0.1476 -0.0001  0.3593
    1DIPC   D3A18211  20.846  24.730   4.340 -0.0736 -0.0075  0.0189
    1DIPC   C4A18212  20.643  24.997   4.557  0.0307 -0.3980 -0.3092
    1DIPC   C1B18213  20.286  24.509   3.785 -0.1679 -0.0463 -0.0872
    1DIPC   D2B18214  20.182  24.276   4.089  0.0628  0.1564 -0.0199
    1DIPC   D3B18215  19.813  24.435   4.041  0.3417 -0.1485 -0.0614
    1DIPC   C4B18216  19.409  24.401   4.254 -0.1333 -0.3209  0.4496
    1DIPC   NC318217  22.370   7.208   2.536  0.2719 -0.1103 -0.0604
    1DIPC   PO418218  22.148   7.525   2.753 -0.2803 -0.1569  0.0032
    1DIPC   GL118219  22.157   7.506   3.154 -0.1663  0.0152 -0.0948
    1DIPC   GL218220  22.391   7.724   3.301 -0.1221  0.0721  0.1723
    1DIPC   C1A18221  22.003   7.355   3.570 -0.2307  0.0825  0.0664
    1DIPC   D2A18222  22.148   7.237   3.964 -0.1258 -0.0719 -0.1113
    1DIPC   D3A18223  21.935   6.850   4.005  0.1189  0.1730 -0.0243
    1DIPC   C4A18224  21.962   6.550   4.357  0.1438 -0.0501  0.3299
    1DIPC   C1B18225  22.116   7.819   3.570 -0.1935 -0.2909  0.0854
    1DIPC   D2B18226  21.757   7.913   3.723 -0.1655  0.1230 -0.0773
    1DIPC   D3B18227  21.705   8.354   3.762  0.0793 -0.1095 -0.0204
    1DIPC   C4B18228  21.969   8.606   4.040 -0.1988 -0.1662  0.3568
    1DIPC   NC318229  16.169   6.050   3.473  0.0994 -0.1427  0.2584
    1DIPC   PO418230  16.392   6.062   3.785 -0.0075  0.3020  0.0371
    1DIPC   GL118231  16.421   6.018   4.176  0.0263 -0.4053  0.0642
    1DIPC   GL218232  16.518   6.302   4.378 -0.1138  0.1218 -0.1882
    1DIPC   C1A18233  16.202   5.918   4.561  0.2042 -0.3955 -0.1848
    1DIPC   D2A18234  15.746   5.943   4.697  0.1161  0.1614  0.1404
    1DIPC   D3A18235  15.584   6.384   4.868 -0.2245 -0.0723  0.1202
    1DIPC   C4A18236  15.785   6.740   5.134 -0.3721  0.4294 -0.2292
    1DIPC   C1B18237  16.864   6.300   4.686  0.3827  0.1347  0.0503
    1DIPC   D2B18238  17.194   6.208   5.080  0.3204  0.1466  0.0427
    1DIPC   D3B18239  17.504   6.418   5.117 -0.2505  0.0662 -0.2280
    1DIPC   C4B18240  17.422   6.531   5.568 -0.1224  0.0708  0.1057
    1DIPC   NC318241  18.052   3.684   3.036 -0.3221  0.2048 -0.0515
    1DIPC   PO418242  18.003   4.012   3.343  0.2709 -0.2523 -0.1322
    1DIPC   GL118243  17.918   3.780   3.740 -0.0918 -0.0507  0.0342
    1DIPC   GL218244  17.778   3.974   4.020  0.0553  0.1812  0.0944
    1DIPC   C1A18245  18.256   3.465   4.019 -0.2034  0.2924 -0.2348
    1DIPC   D2A18246  18.660   3.551   4.213  0.1711  0.1031 -0.0059
    1DIPC   D3A18247  18.844   3.696   4.645 -0.0970  0.2443 -0.1079
    1DIPC   C4A18248  18.570   3.681   4.907  0.0574  0.1267 -0.0956
    1DIPC   C1B18249  17.671   4.004   4.400 -0.3417  0.0390  0.1233
    1DIPC   D2B18250  17.477   3.688   4.724 -0.0561 -0.2205 -0.0058
    1DIPC   D3B18251  17.138   3.847   4.903  0.0548 -0.0462 -0.2779
    1DIPC   C4B18252  17.184   3.981   5.378  0.2749  0.2960 -0.0183
    1DIPC   NC318253  22.257  12.109   2.937  0.1631  0.1641 -0.0417
    1DIPC   PO418254  22.118  11.713   3.127  0.0896 -0.4870 -0.2918
    1DIPC   GL118255  22.193  11.966   3.550  0.0395  0.0576  0.2000
    1DIPC   GL218256  22.290  11.778   3.682  0.1109  0.2910  0.0820
    1DIPC   C1A18257  22.510  12.203   3.896 -0.1117  0.0853 -0.1055
    1DIPC   D2A18258  22.474  12.217   4.361  0.1416  0.0120 -0.0950
    1DIPC   D3A18259  22.066  12.349   4.515 -0.3700 -0.0434  0.0305
    1DIPC   C4A18260  21.741  12.142   4.702 -0.1020  0.3810  0.0200
    1DIPC   C1B18261  22.039  12.081   4.012  0.0515 -0.1994  0.2037
    1DIPC   D2B18262  21.663  12.274   4.127  0.0032 -0.0495  0.0555
    1DIPC   D3B18263  21.328  12.187   4.350  0.0014  0.1409 -0.2118
    1DIPC   C4B18264  21.029  12.128   4.097  0.4731  0.3300 -0.2042
    1DIPC   NC318265  20.255  12.928   2.862  0.0513  0.1377 -0.0064
    1DIPC   PO418266  20.653  12.751   3.012  0.2501 -0.0819  0.1965
    1DIPC   GL118267  20.429  12.889   3.377 -0.0650  0.2086  0.2432
    1DIPC   GL218268  20.419  13.250   3.491  0.0686 -0.2433  0.1392
    1DIPC   C1A18269  20.274  12.855   3.731  0.1430 -0.1499 -0.0138
    1DIPC   D2A18270  20.282  12.858   4.186 -0.1821  0.0632 -0.0098
    1DIPC   D3A18271  20.535  13.178   4.283  0.4788  0.0116  0.0029
    1DIPC   C4A18272  20.660  13.355   3.889  0.1296 -0.0169  0.0410
    1DIPC   C1B18273  20.164  13.291   3.919  0.0070 -0.0827  0.0292
    1DIPC   D2B18274  20.027  13.302   4.281 -0.1817 -0.0887  0.1669
    1DIPC   D3B18275  20.109  12.999   4.648 -0.0466 -0.1223  0.1297
    1DIPC   C4B18276  20.457  13.127   5.106  0.0838 -0.1413  0.0932
    1DIPC   NC318277  13.264  12.932   4.315 -0.1175 -0.2314 -0.0909
    1DIPC   PO418278  13.161  12.692   4.697  0.0917  0.3499 -0.2341
    1DIPC   GL118279  13.120  12.724   5.191 -0.1269  0.0265 -0.2691
    1DIPC   GL218280  13.205  12.382   5.099 -0.1670 -0.2965 -0.1221
    1DIPC   C1A18281  13.245  12.747   5.669 -0.0508  0.0348 -0.1213
    1DIPC   D2A18282  13.464  12.721   6.056 -0.1905  0.0175 -0.0885
    1DIPC   D3A18283  13.637  13.027   6.273 -0.1014  0.2699  0.0508
    1DIPC   C4A18284  13.971  13.144   5.974  0.0001 -0.0289  0.0258
    1DIPC   C1B18285  12.938  12.190   5.446 -0.2972 -0.0072  0.0702
    1DIPC   D2B18286  12.558  11.999   5.781 -0.2639 -0.0615 -0.1715
    1DIPC   D3B18287  12.999  11.987   5.927  0.1640 -0.4496 -0.1996
    1DIPC   C4B18288  13.279  12.265   5.767  0.2304  0.3110 -0.0400
    1DIPC   NC318289  25.286  26.960   3.226  0.0315 -0.0425 -0.1773
    1DIPC   PO418290  25.573  26.664   3.186 -0.1465 -0.0343  0.1081
    1DIPC   GL118291  25.353  26.512   3.500 -0.1638 -0.3005 -0.1958
    1DIPC   GL218292  25.099  26.603   3.619  0.2980  0.4156  0.2325
    1DIPC   C1A18293  25.539  26.137   3.678 -0.1071  0.0148 -0.2125
    1DIPC   D2A18294  25.810  25.768   3.766 -0.0982  0.1389  0.0419
    1DIPC   D3A18295  25.573  25.559   4.277 -0.0198  0.2727 -0.1911
    1DIPC   C4A18296  25.331  25.808   4.531  0.2061 -0.3538 -0.1247
    1DIPC   C1B18297  25.082  26.322   3.895  0.3266 -0.0365  0.1474
    1DIPC   D2B18298  25.060  25.987   4.207 -0.0368 -0.3410 -0.2469
    1DIPC   D3B18299  25.071  26.180   4.624 -0.1351 -0.2217 -0.0681
    1DIPC   C4B18300  24.952  25.931   5.037 -0.0449 -0.3882 -0.0317
    1DIPC   NC318301  20.227  21.851   3.187  0.1450 -0.1448  0.0667
    1DIPC   PO418302  20.404  21.783   3.575 -0.2525 -0.1239 -0.0308
    1DIPC   GL118303  20.767  21.871   3.830  0.3180 -0.1087 -0.0145
    1DIPC   GL218304  20.578  22.117   3.947 -0.1037 -0.0661 -0.1071
    1DIPC   C1A18305  20.892  21.961   4.248  0.1802 -0.0473 -0.1605
    1DIPC   D2A18306  20.741  21.990   4.724 -0.0275 -0.2435  0.1151
    1DIPC   D3A18307  20.787  22.356   5.000 -0.2372  0.1213  0.2856
    1DIPC   C4A18308  21.289  22.446   5.056 -0.1193 -0.0440  0.1774
    1DIPC   C1B18309  20.168  22.337   4.154 -0.0554  0.2226 -0.1995
    1DIPC   D2B18310  19.821  22.030   4.328 -0.0588 -0.0635  0.3421
    1DIPC   D3B18311  19.513  22.254   4.521 -0.0714 -0.1100 -0.0683
    1DIPC   C4B18312  19.357  22.295   4.873 -0.1535 -0.0962  0.2033
    1DIPC   NC318313   0.507  17.738   2.804  0.1576  0.5134  0.4101
    1DIPC   PO418314   0.268  17.352   2.913  0.1511  0.0332  0.1148
    1DIPC   GL118315   0.036  17.261   3.276  0.2245 -0.0533 -0.4363
    1DIPC   GL218316   0.168  16.895   3.282  0.0492 -0.2548 -0.0262
    1DIPC   C1A18317  27.997  17.311   3.701  0.0001 -0.1593  0.3216
    1DIPC   D2A18318  27.792  17.492   4.027  0.1648  0.0335 -0.0953
    1DIPC   D3A18319  28.077  17.420   4.375 -0.1566 -0.1054 -0.0720
    1DIPC   C4A18320   0.077  17.450   4.799 -0.0804 -0.1498  0.2114
    1DIPC   C1B18321   0.165  16.884   3.741 -0.1602 -0.2052 -0.0394
    1DIPC   D2B18322   0.383  16.832   4.097 -0.3682  0.1275 -0.1039
    1DIPC   D3B18323   0.620  16.458   3.954  0.0894  0.2173 -0.1645
    1DIPC   C4B18324   0.339  16.225   3.810 -0.1781  0.2107 -0.1113
    1DIPC   NC318325  26.629  19.147   2.956  0.1727 -0.1124 -0.2736
    1DIPC   PO418326  26.878  19.595   3.035 -0.1854 -0.0924  0.0095
    1DIPC   GL118327  26.585  19.908   3.312 -0.1950 -0.2754 -0.2444
    1DIPC   GL218328  26.798  20.071   3.480 -0.0003  0.0631 -0.0070
    1DIPC   C1A18329  26.376  19.962   3.770  0.1904 -0.2958 -0.0001
    1DIPC   D2A18330  26.247  19.674   4.150  0.0811  0.0540  0.0055
    1DIPC   D3A18331  26.008  19.212   4.357  0.0002 -0.0541 -0.1953
    1DIPC   C4A18332  26.213  19.020   4.643 -0.0174 -0.1200  0.2086
    1DIPC   C1B18333  26.803  20.127   3.836 -0.2801  0.1882 -0.0887
    1DIPC   D2B18334  26.645  19.983   4.224  0.2055 -0.0234 -0.1243
    1DIPC   D3B18335  26.915  19.689   4.206 -0.0211  0.1557 -0.1732
    1DIPC   C4B18336  27.326  19.860   4.421 -0.1391 -0.0107  0.2094
    1DIPC   NC318337   5.943   9.394   3.914 -0.0534  0.3049  0.0009
    1DIPC   PO418338   6.112   9.305   3.570  0.0760  0.0269 -0.1302
    1DIPC   GL118339   6.355   9.101   3.872  0.0181  0.0527  0.1356
    1DIPC   GL218340   6.659   9.073   3.757 -0.0936  0.2858 -0.1502
    1DIPC   C1A18341   6.443   9.102   4.347  0.1497  0.2123 -0.0679
    1DIPC   D2A18342   6.624   9.085   4.858 -0.0146 -0.2902  0.2980
    1DIPC   D3A18343   6.389   9.286   5.183  0.2147 -0.0434 -0.0063
    1DIPC   C4A18344   6.478   9.556   5.547 -0.0241  0.0931 -0.1981
    1DIPC   C1B18345   6.824   8.794   4.169 -0.1060  0.1513  0.1878
    1DIPC   D2B18346   7.012   8.898   4.552  0.1363  0.1365  0.1510
    1DIPC   D3B18347   6.956   8.729   4.967 -0.0477  0.1774  0.0569
    1DIPC   C4B18348   6.718   8.480   5.184  0.0557  0.1985 -0.0578
    1DIPC   NC318349  27.933   4.167   1.581  0.2856 -0.0342 -0.1991
    1DIPC   PO418350   0.070   3.789   2.008 -0.1085 -0.1842  0.4083
    1DIPC   GL118351   0.237   4.206   2.292  0.1484  0.1619  0.1603
    1DIPC   GL218352   0.134   4.362   2.609 -0.0816  0.0423 -0.0860
    1DIPC   C1A18353   0.706   4.355   2.316  0.0142 -0.0909  0.1846
    1DIPC   D2A18354   0.900   4.419   2.626  0.1847  0.1718  0.1857
    1DIPC   D3A18355   0.616   4.058   2.707  0.0835  0.1204 -0.1012
    1DIPC   C4A18356   0.816   3.732   2.702 -0.1066 -0.0700 -0.0639
    1DIPC   C1B18357   0.200   4.707   2.902  0.0218  0.1747 -0.1488
    1DIPC   D2B18358   0.333   4.987   3.228  0.2791 -0.1057 -0.5803
    1DIPC   D3B18359   0.676   5.268   3.398 -0.2483  0.0563 -0.0851
    1DIPC   C4B18360   0.726   5.680   3.311 -0.2529 -0.1366  0.0577
    1DIPC   NC318361  19.500   4.606   2.508  0.0352  0.2344  0.0770
    1DIPC   PO418362  19.500   4.369   2.834 -0.0688  0.1055  0.4524
    1DIPC   GL118363  19.218   4.401   3.228 -0.1260  0.4060 -0.1040
    1DIPC   GL218364  19.266   4.713   3.215  0.0062  0.1994  0.0708
    1DIPC   C1A18365  19.322   4.203   3.632 -0.2996  0.1900  0.0073
    1DIPC   D2A18366  19.373   3.970   4.027 -0.0399  0.1237 -0.1876
    1DIPC   D3A18367  19.716   4.000   3.880  0.1235  0.0188  0.1290
    1DIPC   C4A18368  19.802   4.428   3.866 -0.2845  0.2328  0.0226
    1DIPC   C1B18369  19.463   4.694   3.574  0.1726  0.0478  0.0057
    1DIPC   D2B18370  19.652   4.798   4.105 -0.1865  0.1609 -0.1382
    1DIPC   D3B18371  19.833   4.676   4.481 -0.2400 -0.1162  0.0523
    1DIPC   C4B18372  19.759   4.722   4.841 -0.0810 -0.3209  0.0423
    1DIPC   NC318373   4.867   9.254   3.009 -0.1194  0.5483 -0.0409
    1DIPC   PO418374   4.659   9.314   3.366 -0.0995 -0.2158 -0.0796
    1DIPC   GL118375   4.645   9.141   3.748  0.0001  0.0414  0.2124
    1DIPC   GL218376   4.613   8.804   3.701 -0.1508 -0.0698  0.0132
    1DIPC   C1A18377   4.370   9.140   4.011 -0.1355 -0.2304  0.2597
    1DIPC   D2A18378   4.055   9.354   4.342 -0.1164 -0.2833  0.1519
    1DIPC   D3A18379   4.098   9.352   4.832  0.2238  0.1147 -0.0763
    1DIPC   C4A18380   4.187   9.729   5.166 -0.0537 -0.2201 -0.1153
    1DIPC   C1B18381   4.276   8.648   3.960  0.1888  0.0183  0.1979
    1DIPC   D2B18382   4.149   8.336   4.306  0.3413  0.4403  0.2635
    1DIPC   D3B18383   3.846   8.544   4.512 -0.1273  0.0209 -0.1659
    1DIPC   C4B18384   3.610   8.643   4.831 -0.0846  0.2398  0.1899
    1DIPC   NC318385   5.975  19.143   3.631  0.2097 -0.0947 -0.2779
    1DIPC   PO418386   6.090  19.479   3.930  0.1832 -0.2143  0.0287
    1DIPC   GL118387   6.426  19.500   4.241 -0.0299 -0.1784 -0.0510
    1DIPC   GL218388   6.318  19.821   4.380  0.0661  0.0931 -0.0359
    1DIPC   C1A18389   6.664  19.505   4.603  0.2306  0.1834 -0.1635
    1DIPC   D2A18390   6.797  19.689   4.992  0.1565  0.1732 -0.0553
    1DIPC   D3A18391   6.659  19.778   5.432 -0.2647 -0.2553  0.0533
    1DIPC   C4A18392   6.983  19.708   5.717  0.0143 -0.1053 -0.2716
    1DIPC   C1B18393   6.340  19.725   4.829 -0.2733 -0.1036 -0.0957
    1DIPC   D2B18394   6.188  19.982   5.177 -0.1602 -0.0291 -0.0938
    1DIPC   D3B18395   5.798  19.966   5.438 -0.1532 -0.4234 -0.0385
    1DIPC   C4B18396   5.536  19.711   5.698  0.0315 -0.1244  0.1388
    1DIPC   NC318397   6.494  19.512   3.584 -0.0491  0.0664 -0.0524
    1DIPC   PO418398   6.830  19.601   3.941  0.0138  0.0985  0.5057
    1DIPC   GL118399   6.991  19.974   4.181  0.0936  0.1358 -0.1509
    1DIPC   GL218400   6.884  20.170   3.895 -0.0260  0.0541  0.0765
    1DIPC   C1A18401   7.198  20.140   4.504  0.1022  0.1327 -0.2345
    1DIPC   D2A18402   7.427  20.416   4.717  0.3246 -0.0780  0.2099
    1DIPC   D3A18403   7.698  20.691   4.573  0.4610  0.1495 -0.2281
    1DIPC   C4A18404   8.050  20.984   4.742  0.0065 -0.0486  0.1484
    1DIPC   C1B18405   6.572  20.213   4.217  0.4620 -0.0522  0.0618
    1DIPC   D2B18406   6.688  20.023   4.595 -0.0491 -0.1881 -0.0910
    1DIPC   D3B18407   7.109  19.694   4.609  0.1413 -0.1984 -0.0982
    1DIPC   C4B18408   7.161  19.386   4.768 -0.1448 -0.2140 -0.0228
    1DIPC   NC318409  16.229  18.155   3.772 -0.1262 -0.1687 -0.1257
    1DIPC   PO418410  16.043  18.483   3.552  0.1333  0.0425 -0.0456
    1DIPC   GL118411  15.914  18.551   3.970 -0.0386  0.0814 -0.1855
    1DIPC   GL218412  16.148  18.507   4.263 -0.0027 -0.0075 -0.2784
    1DIPC   C1A18413  15.540  18.318   4.154  0.0902 -0.0463 -0.1364
    1DIPC   D2A18414  15.242  18.148   4.086 -0.2118 -0.2618 -0.0169
    1DIPC   D3A18415  14.860  18.463   4.184 -0.2759  0.0916  0.0955
    1DIPC   C4A18416  14.411  18.522   4.444 -0.2070  0.2772 -0.0877
    1DIPC   C1B18417  16.286  18.322   4.536 -0.0016 -0.0321 -0.3325
    1DIPC   D2B18418  16.441  18.109   4.943  0.2088 -0.1170  0.0068
    1DIPC   D3B18419  16.854  18.074   5.108 -0.1774 -0.3993  0.1017
    1DIPC   C4B18420  17.018  17.903   5.400 -0.0448  0.2145 -0.2508
    1DIPC   NC318421  19.874  27.875   2.860 -0.1913  0.1178  0.0093
    1DIPC   PO418422  20.269  27.854   3.170  0.1852  0.2471 -0.1284
    1DIPC   GL118423  20.225  27.705   3.597 -0.1776  0.0464  0.0183
    1DIPC   GL218424  19.889  27.587   3.700 -0.1584  0.1052  0.0293
    1DIPC   C1A18425  20.238  27.782   4.024  0.2185  0.0845  0.0023
    1DIPC   D2A18426  20.195  28.058   4.320  0.4551  0.0014  0.0439
    1DIPC   D3A18427  19.962  27.634   4.477  0.1648  0.0672 -0.1413
    1DIPC   C4A18428  19.992  27.677   4.878  0.1073 -0.2270  0.0798
    1DIPC   C1B18429  19.672  27.717   4.115 -0.0316  0.2395 -0.1990
    1DIPC   D2B18430  19.556  27.367   4.424  0.2997  0.0807 -0.0398
    1DIPC   D3B18431  19.619  27.169   4.885 -0.0755  0.2387 -0.1005
    1DIPC   C4B18432  19.905  27.185   5.188  0.2358  0.1381  0.3030
    1DIPC   NC318433  16.285  11.419   3.816  0.0972 -0.0303 -0.3692
    1DIPC   PO418434  16.586  11.519   3.473 -0.2575 -0.1299  0.1263
    1DIPC   GL118435  16.775  11.516   3.860  0.0633 -0.1385  0.0837
    1DIPC   GL218436  17.034  11.691   3.994  0.1236 -0.1599  0.1008
    1DIPC   C1A18437  16.946  11.190   4.229  0.1521 -0.0242 -0.2195
    1DIPC   D2A18438  16.817  11.093   4.650  0.0464  0.0418  0.0584
    1DIPC   D3A18439  16.708  10.663   4.564  0.0196  0.0794  0.1071
    1DIPC   C4A18440  16.948  10.496   4.891  0.0666  0.3059 -0.1557
    1DIPC   C1B18441  17.413  11.480   4.118 -0.1820 -0.0809  0.0051
    1DIPC   D2B18442  17.639  11.716   4.526 -0.0079  0.1200  0.3702
    1DIPC   D3B18443  17.576  11.575   4.771 -0.1615 -0.0422 -0.2499
    1DIPC   C4B18444  17.250  11.342   4.640  0.1339  0.3862  0.2409
    1DIPC   NC318445  18.275   9.095   3.762 -0.0732 -0.3351 -0.0863
    1DIPC   PO418446  18.607   9.353   3.762  0.0080 -0.1171 -0.4214
    1DIPC   GL118447  18.575   9.441   4.127 -0.2236  0.1696 -0.1793
    1DIPC   GL218448  18.292   9.296   4.236  0.0721  0.0600 -0.1551
    1DIPC   C1A18449  18.737   9.359   4.592 -0.1248  0.1043 -0.1088
    1DIPC   D2A18450  18.926   9.711   4.915  0.2848  0.2088 -0.2292
    1DIPC   D3A18451  18.941   9.473   5.315  0.0341 -0.0381 -0.2769
    1DIPC   C4A18452  18.903   9.067   5.435  0.1888 -0.1156  0.0042
    1DIPC   C1B18453  18.023   9.367   4.496  0.2557  0.1465 -0.1502
    1DIPC   D2B18454  17.961   9.382   4.963 -0.2427 -0.0071 -0.4061
    1DIPC   D3B18455  17.689   9.616   5.234 -0.0920 -0.0237  0.0588
    1DIPC   C4B18456  17.751   9.961   5.593  0.1561  0.2928  0.3126
    1DIPC   NC318457  23.379   1.243   3.307  0.1253  0.0730 -0.0422
    1DIPC   PO418458  23.278   1.555   3.584 -0.0003 -0.0468  0.1417
    1DIPC   GL118459  22.940   1.738   3.839 -0.6127 -0.0420  0.1462
    1DIPC   GL218460  22.705   1.598   3.897 -0.3442  0.3933 -0.0557
    1DIPC   C1A18461  22.974   1.863   4.309 -0.3909 -0.0445 -0.1937
    1DIPC   D2A18462  23.062   2.139   4.650  0.0007 -0.1744 -0.2800
    1DIPC   D3A18463  22.778   2.377   4.930  0.0903  0.1729  0.0442
    1DIPC   C4A18464  22.311   2.182   4.963  0.0019  0.0815 -0.2546
    1DIPC   C1B18465  23.013   1.359   4.194  0.0525  0.0416  0.3184
    1DIPC   D2B18466  23.032   1.318   4.598  0.0948  0.0579  0.0622
    1DIPC   D3B18467  23.273   1.653   4.666  0.0698  0.0228  0.2606
    1DIPC   C4B18468  23.364   1.845   5.071  0.1919  0.1230  0.0138
    1DIPC   NC318469   3.235  13.898   2.997 -0.2628  0.2015  0.0895
    1DIPC   PO418470   3.501  13.648   2.715  0.3354 -0.2290  0.1362
    1DIPC   GL118471   3.651  13.545   3.086 -0.0913 -0.1145  0.1765
    1DIPC   GL218472   3.643  13.282   3.101  0.0969 -0.1439  0.1886
    1DIPC   C1A18473   3.922  13.472   3.524 -0.1301 -0.2926  0.2124
    1DIPC   D2A18474   4.033  13.604   3.933 -0.0269  0.2578  0.2223
    1DIPC   D3A18475   3.888  13.293   4.099 -0.1358  0.1764 -0.0575
    1DIPC   C4A18476   3.677  13.254   4.542 -0.0326  0.2679 -0.0416
    1DIPC   C1B18477   3.712  12.940   3.471  0.2670 -0.1224  0.5463
    1DIPC   D2B18478   3.661  12.504   3.480  0.0192  0.0831 -0.2433
    1DIPC   D3B18479   3.360  12.477   3.738 -0.2131  0.1791 -0.1086
    1DIPC   C4B18480   3.368  13.029   3.838  0.0134  0.5818  0.0631
    1DIPC   NC318481  14.264  11.508   4.386 -0.2281  0.0634 -0.0176
    1DIPC   PO418482  14.614  11.307   4.142  0.0744  0.0528  0.3404
    1DIPC   GL118483  14.669  11.099   4.515  0.1625  0.0626 -0.1448
    1DIPC   GL218484  14.905  10.715   4.499 -0.0264  0.1937 -0.0248
    1DIPC   C1A18485  14.858  10.909   4.954 -0.1238 -0.0835 -0.0399
    1DIPC   D2A18486  14.853  10.569   5.286  0.1452  0.0439  0.1313
    1DIPC   D3A18487  14.594  10.367   5.124 -0.2644  0.1348  0.0056
    1DIPC   C4A18488  14.457  10.652   4.816 -0.2275  0.0514 -0.1659
    1DIPC   C1B18489  15.072  10.344   4.739 -0.1490  0.0371  0.1780
    1DIPC   D2B18490  15.091  10.103   5.150  0.0976  0.2341  0.1830
    1DIPC   D3B18491  15.230  10.230   5.542  0.5954  0.0569  0.0656
    1DIPC   C4B18492  15.075  10.641   5.702  0.0475 -0.0187 -0.3008
    1DIPC   NC318493   7.883  13.534   3.230  0.0042 -0.2256  0.2194
    1DIPC   PO418494   7.517  13.364   3.350  0.0937 -0.3061  0.0722
    1DIPC   GL118495   7.676  13.433   3.688 -0.3285 -0.1002 -0.1667
    1DIPC   GL218496   7.603  13.117   3.876  0.1242 -0.0181 -0.0988
    1DIPC   C1A18497   7.730  13.594   4.153  0.2874  0.2494  0.0157
    1DIPC   D2A18498   7.790  13.640   4.594  0.0447 -0.2046 -0.1546
    1DIPC   D3A18499   8.091  14.020   4.630  0.1225  0.1240 -0.0887
    1DIPC   C4A18500   8.486  14.021   4.856  0.4334 -0.0369  0.0291
    1DIPC   C1B18501   7.457  13.185   4.344 -0.2492  0.1141  0.0173
    1DIPC   D2B18502   7.491  13.218   4.815 -0.1014  0.1711  0.1390
    1DIPC   D3B18503   7.596  13.478   5.019  0.2113 -0.0855 -0.3789
    1DIPC   C4B18504   7.861  13.268   5.308 -0.0071  0.0542 -0.3502
    1DIPC   NC318505  10.255  27.920   3.214  0.0226  0.0204  0.0626
    1DIPC   PO418506   9.928  27.689   3.438  0.1718 -0.3560 -0.0408
    1DIPC   GL118507   9.985  27.471   3.889  0.0177 -0.2274 -0.0753
    1DIPC   GL218508  10.124  27.123   3.778 -0.2822 -0.0955  0.0183
    1DIPC   C1A18509  10.031  27.319   4.225 -0.0254  0.0372  0.4109
    1DIPC   D2A18510  10.204  27.104   4.595 -0.0362 -0.0383  0.3080
    1DIPC   D3A18511  10.646  26.969   4.696 -0.3167 -0.0917  0.1288
    1DIPC   C4A18512  10.536  26.658   4.976  0.1367  0.1938 -0.0447
    1DIPC   C1B18513  10.124  26.893   4.088  0.0293 -0.1692  0.2892
    1DIPC   D2B18514  10.391  26.710   4.327  0.1360  0.0268  0.0351
    1DIPC   D3B18515  10.354  26.338   4.564 -0.2362 -0.0493  0.0977
    1DIPC   C4B18516  10.283  25.915   4.384  0.3692  0.1147  0.0699
    1DIPC   NC318517  16.928  18.629   3.157 -0.1123  0.2357 -0.0485
    1DIPC   PO418518  17.038  18.976   3.401 -0.2823 -0.0270 -0.1281
    1DIPC   GL118519  16.911  19.041   3.797  0.3543 -0.0154  0.1372
    1DIPC   GL218520  16.726  19.261   3.624 -0.1067 -0.0465 -0.0089
    1DIPC   C1A18521  16.802  19.206   4.160  0.0505  0.1553 -0.1307
    1DIPC   D2A18522  16.406  19.477   4.322  0.1934 -0.1586  0.0819
    1DIPC   D3A18523  16.742  19.329   4.644 -0.0495  0.0965  0.2554
    1DIPC   C4A18524  16.700  18.967   4.864 -0.0483 -0.0823 -0.3412
    1DIPC   C1B18525  16.343  19.176   3.948 -0.0536 -0.1558 -0.1240
    1DIPC   D2B18526  15.959  19.022   4.092  0.1279 -0.0367 -0.0341
    1DIPC   D3B18527  15.553  18.973   3.982 -0.2588  0.3075  0.1796
    1DIPC   C4B18528  15.226  18.851   4.281 -0.1570  0.0323  0.2199
    1DIPC   NC318529  24.602  22.304   2.970  0.0908  0.2758 -0.1500
    1DIPC   PO418530  24.198  22.123   2.995 -0.1236  0.0790 -0.0752
    1DIPC   GL118531  23.985  21.898   3.295  0.1200 -0.0594  0.2921
    1DIPC   GL218532  23.714  21.662   3.241 -0.2423  0.0217 -0.0208
    1DIPC   C1A18533  23.863  21.882   3.767  0.0319 -0.1242  0.3219
    1DIPC   D2A18534  23.841  21.932   4.214 -0.2412 -0.1958 -0.2670
    1DIPC   D3A18535  23.813  21.901   4.677  0.0492 -0.0073  0.1273
    1DIPC   C4A18536  23.918  22.283   4.931  0.1121 -0.0228  0.3230
    1DIPC   C1B18537  24.096  21.508   3.515  0.1949  0.0355  0.0538
    1DIPC   D2B18538  24.573  21.416   3.656 -0.0793 -0.0010  0.3042
    1DIPC   D3B18539  24.617  21.217   4.008 -0.0556 -0.0695 -0.0629
    1DIPC   C4B18540  24.701  21.096   4.467 -0.1443 -0.2179  0.3659
    1DIPC   NC318541  16.053   0.718   3.671 -0.1986 -0.1330 -0.0827
    1DIPC   PO418542  15.889   0.560   4.068  0.0122 -0.0670  0.2088
    1DIPC   GL118543  15.876   0.548   4.489  0.1048 -0.1930 -0.0696
    1DIPC   GL218544  15.586   0.436   4.624  0.0036 -0.3835 -0.1971
    1DIPC   C1A18545  15.821   0.764   4.910 -0.3263 -0.0553  0.1013
    1DIPC   D2A18546  16.083   1.000   5.146 -0.0113  0.0854 -0.2398
    1DIPC   D3A18547  15.810   0.737   5.397 -0.2212  0.2300  0.1431
    1DIPC   C4A18548  15.973   0.479   5.504 -0.2135 -0.3722  0.0172
    1DIPC   C1B18549  15.356   0.126   4.739  0.0975 -0.1105  0.3975
    1DIPC   D2B18550  14.890  28.093   4.825  0.0522  0.0051  0.0552
    1DIPC   D3B18551  14.485   0.022   4.681  0.0185 -0.1304  0.2740
    1DIPC   C4B18552  14.193   0.017   4.930 -0.0627 -0.0154  0.1775
    1DIPC   NC318553  16.700  21.514   3.288  0.0294 -0.2084 -0.0356
    1DIPC   PO418554  16.633  21.126   3.335 -0.1674 -0.2102 -0.0880
    1DIPC   GL118555  16.551  21.094   3.767 -0.0180  0.1628  0.0643
    1DIPC   GL218556  16.160  21.094   3.773  0.3217 -0.1702  0.3862
    1DIPC   C1A18557  16.516  20.926   4.231 -0.0604  0.1288  0.0938
    1DIPC   D2A18558  16.598  20.494   4.550 -0.2109 -0.4187  0.2449
    1DIPC   D3A18559  16.338  20.491   4.848 -0.0364  0.0103 -0.2153
    1DIPC   C4A18560  16.546  20.204   5.068 -0.2519  0.1657 -0.0008
    1DIPC   C1B18561  15.993  21.039   4.169  0.0496  0.0420 -0.1637
    1DIPC   D2B18562  16.185  20.919   4.569 -0.0994  0.2753  0.0901
    1DIPC   D3B18563  16.586  21.166   4.661  0.2130 -0.2458 -0.1198
    1DIPC   C4B18564  16.739  21.505   4.735 -0.1934  0.0563  0.0421
    1DIPC   NC318565  17.562   1.229   3.640 -0.1060  0.0977 -0.0739
    1DIPC   PO418566  17.747   1.667   3.661  0.2107 -0.0323  0.2283
    1DIPC   GL118567  17.886   1.612   4.027 -0.0944  0.1263 -0.4746
    1DIPC   GL218568  18.177   1.460   4.115  0.2448 -0.0779 -0.1177
    1DIPC   C1A18569  17.890   1.809   4.502 -0.2117  0.0972 -0.1008
    1DIPC   D2A18570  17.643   1.866   4.940  0.0125 -0.3716  0.0686
    1DIPC   D3A18571  17.606   1.832   5.328  0.1240  0.0305 -0.1055
    1DIPC   C4A18572  17.879   1.754   5.668  0.0068  0.2841 -0.1868
    1DIPC   C1B18573  18.401   1.677   4.471 -0.2695 -0.2114 -0.2366
    1DIPC   D2B18574  18.334   1.902   4.840 -0.2218  0.0411  0.2376
    1DIPC   D3B18575  18.607   1.654   5.054 -0.1807  0.2201  0.2691
    1DIPC   C4B18576  18.525   1.380   5.336 -0.2852 -0.4479 -0.0295
    1DIPC   NC318577  24.067  19.822   2.418 -0.2593 -0.0605 -0.2038
    1DIPC   PO418578  24.058  19.594   2.827 -0.0038  0.2204  0.3025
    1DIPC   GL118579  24.141  19.782   3.145  0.2712 -0.0252  0.4812
    1DIPC   GL218580  24.477  19.831   3.056  0.2111 -0.2239 -0.3461
    1DIPC   C1A18581  24.360  20.054   3.512 -0.0197  0.2122  0.4056
    1DIPC   D2A18582  24.403  20.404   3.807  0.3461 -0.1146 -0.1247
    1DIPC   D3A18583  24.718  20.480   3.532  0.0452  0.1139  0.1576
    1DIPC   C4A18584  24.744  20.285   3.242 -0.2828  0.2609  0.1808
    1DIPC   C1B18585  24.539  19.553   3.431  0.0892  0.0084 -0.1634
    1DIPC   D2B18586  24.507  19.171   3.628 -0.2738 -0.0081 -0.0388
    1DIPC   D3B18587  24.277  19.101   3.900  0.1242  0.1261  0.2621
    1DIPC   C4B18588  24.199  18.757   4.071 -0.3776  0.0832  0.2232
    1DIPC   NC318589  16.046  26.609   3.609  0.1989 -0.3448  0.1517
    1DIPC   PO418590  15.940  27.059   3.575  0.5347  0.2136  0.1089
    1DIPC   GL118591  15.929  26.905   4.015 -0.2964 -0.2396 -0.0458
    1DIPC   GL218592  15.612  26.887   4.217  0.1110  0.1709 -0.2899
    1DIPC   C1A18593  16.102  26.786   4.453 -0.1892 -0.0995 -0.2428
    1DIPC   D2A18594  16.077  26.667   4.803  0.0433  0.2058  0.2436
    1DIPC   D3A18595  16.186  26.334   4.832  0.2320  0.2092 -0.1364
    1DIPC   C4A18596  16.474  26.033   5.100  0.4121  0.0255  0.0960
    1DIPC   C1B18597  15.642  26.936   4.563 -0.3983 -0.0427  0.1270
    1DIPC   D2B18598  15.622  26.695   5.080 -0.0535  0.1109  0.0297
    1DIPC   D3B18599  15.374  26.558   4.858 -0.4120 -0.0262  0.1511
    1DIPC   C4B18600  15.087  26.764   4.606 -0.0102  0.2082  0.1630
    1DIPC   NC318601  27.918  13.485   3.037  0.0149 -0.5823  0.0434
    1DIPC   PO418602  28.045  13.145   2.906  0.1415  0.3904 -0.3987
    1DIPC   GL118603   0.247  13.224   3.243 -0.0440 -0.0465  0.1395
    1DIPC   GL218604   0.111  13.218   3.582  0.0548  0.1688  0.0385
    1DIPC   C1A18605   0.478  13.481   3.681 -0.1186  0.4278  0.0938
    1DIPC   D2A18606   0.564  13.711   4.038  0.2662  0.6556 -0.0282
    1DIPC   D3A18607   0.773  13.973   4.319 -0.1808  0.4364 -0.1462
    1DIPC   C4A18608   0.605  14.169   4.636  0.1939  0.1958  0.1786
    1DIPC   C1B18609  27.822  13.109   3.851 -0.3256  0.2475  0.0366
    1DIPC   D2B18610  27.463  12.784   3.858  0.2897 -0.0744 -0.1679
    1DIPC   D3B18611  27.131  13.111   3.855 -0.1097  0.1894 -0.1611
    1DIPC   C4B18612  26.960  13.440   4.099 -0.0993  0.0294 -0.2676
    1DIPC   NC318613   6.974   9.159   3.383 -0.2369 -0.2341  0.2115
    1DIPC   PO418614   7.254   9.539   3.283  0.0503  0.0990 -0.3046
    1DIPC   GL118615   7.331   9.563   3.713  0.2081  0.0061 -0.1874
    1DIPC   GL218616   7.080   9.386   3.817 -0.0993 -0.0933 -0.0373
    1DIPC   C1A18617   7.376   9.447   4.178  0.2583  0.0846 -0.1180
    1DIPC   D2A18618   7.375   9.220   4.444 -0.1319 -0.2852  0.1075
    1DIPC   D3A18619   7.801   9.098   4.347  0.1731  0.1078 -0.1293
    1DIPC   C4A18620   7.975   8.725   4.480 -0.1218  0.2102 -0.1748
    1DIPC   C1B18621   6.926   9.313   4.122  0.0376 -0.0563 -0.0810
    1DIPC   D2B18622   6.855   9.388   4.486  0.1583  0.0054  0.0101
    1DIPC   D3B18623   6.759   9.565   4.848  0.1021 -0.1796 -0.2079
    1DIPC   C4B18624   6.390   9.676   4.889 -0.0812 -0.2865 -0.0193
    1DIPC   NC318625  16.165   8.952   4.136 -0.0889  0.0465 -0.0396
    1DIPC   PO418626  15.961   9.332   4.243  0.2299  0.0928 -0.2559
    1DIPC   GL118627  16.024   9.505   4.671 -0.0215 -0.0275  0.1579
    1DIPC   GL218628  15.783   9.742   4.692 -0.0242 -0.0402 -0.3137
    1DIPC   C1A18629  16.143   9.565   5.153  0.0352 -0.3305  0.2939
    1DIPC   D2A18630  16.135   9.253   5.472 -0.1314 -0.0090  0.1352
    1DIPC   D3A18631  16.489   9.237   5.301 -0.1543  0.4011 -0.3209
    1DIPC   C4A18632  16.373   9.074   4.914  0.0298 -0.0583 -0.2838
    1DIPC   C1B18633  15.760   9.953   5.122 -0.0382  0.1970  0.0323
    1DIPC   D2B18634  15.749   9.807   5.537  0.2504  0.0354 -0.0709
    1DIPC   D3B18635  15.803  10.262   5.650  0.0034  0.1159  0.0286
    1DIPC   C4B18636  15.908  10.431   6.013 -0.2101 -0.0940  0.0103
    1DIPC   NC318637  27.531  14.710   2.720 -0.2387 -0.1540  0.3162
    1DIPC   PO418638  27.613  14.992   2.659  0.0286 -0.0997 -0.1347
    1DIPC   GL118639  27.628  15.008   3.168  0.0823  0.2832  0.0619
    1DIPC   GL218640  27.634  14.698   3.210 -0.0891 -0.0271 -0.1642
    1DIPC   C1A18641  27.415  15.206   3.532 -0.0175  0.1255 -0.1502
    1DIPC   D2A18642  27.239  15.514   3.819 -0.0313  0.0531 -0.0938
    1DIPC   D3A18643  27.084  15.153   3.923 -0.3576  0.2744  0.0465
    1DIPC   C4A18644  26.943  14.878   3.587 -0.2648  0.2457 -0.1986
    1DIPC   C1B18645  27.395  14.649   3.586  0.1353  0.0951 -0.0174
    1DIPC   D2B18646  26.982  14.332   3.602  0.0523  0.0399 -0.2791
    1DIPC   D3B18647  27.223  14.409   4.022  0.3803  0.1332 -0.0107
    1DIPC   C4B18648  27.679  14.383   4.016 -0.2083  0.0131 -0.0358
    1DIPC   NC318649  21.310   9.377   2.706  0.1908  0.2528  0.3338
    1DIPC   PO418650  21.047   9.269   3.041 -0.2990  0.1389 -0.1309
    1DIPC   GL118651  21.198   9.115   3.440 -0.2793  0.2480 -0.2094
    1DIPC   GL218652  21.313   9.315   3.534 -0.3702  0.1260 -0.0863
    1DIPC   C1A18653  21.069   9.012   3.908  0.0717  0.1583 -0.1226
    1DIPC   D2A18654  21.059   8.804   4.375  0.2362  0.1542 -0.3462
    1DIPC   D3A18655  20.856   9.270   4.372 -0.0311  0.2769 -0.2280
    1DIPC   C4A18656  20.726   9.524   4.790 -0.1055  0.2543  0.0271
    1DIPC   C1B18657  21.296   9.475   3.976 -0.0946 -0.1320  0.3339
    1DIPC   D2B18658  21.369   9.714   4.319  0.1564 -0.2811 -0.0890
    1DIPC   D3B18659  21.033   9.835   4.596  0.0938 -0.0889  0.1239
    1DIPC   C4B18660  21.247   9.644   4.915 -0.1303  0.5732 -0.2689
    1DIPC   NC318661  14.185  24.758   3.030 -0.2526  0.3648  0.1127
    1DIPC   PO418662  14.501  24.805   3.192  0.2270 -0.0203  0.3931
    1DIPC   GL118663  14.354  24.588   3.564 -0.0347  0.0525  0.1532
    1DIPC   GL218664  14.458  24.239   3.592  0.2105 -0.0109 -0.1399
    1DIPC   C1A18665  14.027  24.494   3.895  0.2058 -0.5536 -0.2171
    1DIPC   D2A18666  13.726  24.420   3.925  0.2064 -0.3607 -0.2637
    1DIPC   D3A18667  13.521  24.734   4.107  0.0268 -0.3072 -0.0832
    1DIPC   C4A18668  13.735  25.033   4.342 -0.0935 -0.0423 -0.2961
    1DIPC   C1B18669  14.828  24.049   3.835  0.1883 -0.0395  0.1145
    1DIPC   D2B18670  14.772  23.658   3.897 -0.0116  0.0287  0.3289
    1DIPC   D3B18671  14.579  23.803   4.290 -0.0375  0.0040 -0.0449
    1DIPC   C4B18672  14.806  23.848   4.752 -0.2008 -0.2246 -0.2246
    1DIPC   NC318673  13.711  15.957   3.602 -0.1272  0.0550  0.2964
    1DIPC   PO418674  13.326  16.164   3.741  0.1362  0.1480  0.0557
    1DIPC   GL118675  13.339  16.207   4.197 -0.3448  0.0615  0.4278
    1DIPC   GL218676  13.175  16.029   4.410 -0.1593 -0.0204 -0.0266
    1DIPC   C1A18677  13.417  16.516   4.512  0.2378 -0.1746  0.2048
    1DIPC   D2A18678  13.567  16.717   4.892 -0.2977 -0.1270  0.2258
    1DIPC   D3A18679  13.281  16.514   5.231 -0.4568  0.1113 -0.3025
    1DIPC   C4A18680  13.005  16.826   5.327  0.2481 -0.3277  0.2370
    1DIPC   C1B18681  12.986  16.272   4.749  0.2945  0.1401 -0.0679
    1DIPC   D2B18682  13.012  16.764   4.747  0.3054  0.0556 -0.2205
    1DIPC   D3B18683  12.665  16.880   4.668  0.4177  0.2790 -0.1671
    1DIPC   C4B18684  12.540  16.896   5.095  0.2184  0.1645  0.1177
    1DIPC   NC318685   0.985   6.461   1.646 -0.3377  0.0312 -0.0572
    1DIPC   PO418686   0.860   6.186   1.948  0.0839  0.0020  0.2469
    1DIPC   GL118687   0.747   5.986   2.397 -0.2791  0.3433  0.2149
    1DIPC   GL218688   0.455   6.082   2.512 -0.0278 -0.0467  0.0962
    1DIPC   C1A18689   0.865   5.741   2.735 -0.0254  0.2174  0.1272
    1DIPC   D2A18690   0.676   5.303   2.834 -0.1364 -0.0304  0.1909
    1DIPC   D3A18691   0.839   5.292   2.449  0.0665 -0.0528 -0.1303
    1DIPC   C4A18692   1.208   5.357   2.589  0.0039  0.0253 -0.0970
    1DIPC   C1B18693   0.503   6.476   2.660 -0.0877  0.3339  0.0278
    1DIPC   D2B18694   0.611   6.855   2.622  0.0076 -0.1155  0.2432
    1DIPC   D3B18695   0.993   7.172   2.852 -0.4500 -0.2734 -0.2866
    1DIPC   C4B18696   1.397   7.037   2.877  0.0784 -0.0371 -0.1391
    1DIPC   NC318697  13.758  25.291   3.403  0.1988  0.1110 -0.0374
    1DIPC   PO418698  13.391  25.068   3.668 -0.1296  0.2218 -0.1621
    1DIPC   GL118699  13.472  25.312   3.959 -0.1223  0.1195 -0.3029
    1DIPC   GL218700  13.212  25.442   3.940  0.0462 -0.0231 -0.1683
    1DIPC   C1A18701  13.613  25.554   4.332 -0.0479 -0.1135  0.3674
    1DIPC   D2A18702  13.940  25.586   4.663  0.2738 -0.0126 -0.0606
    1DIPC   D3A18703  13.958  25.125   4.762 -0.1313 -0.1217  0.2480
    1DIPC   C4A18704  13.955  24.973   5.242 -0.0569  0.1170  0.0767
    1DIPC   C1B18705  13.067  25.606   4.324  0.0356 -0.1252  0.0367
    1DIPC   D2B18706  12.841  25.870   4.632  0.1771 -0.0913 -0.0782
    1DIPC   D3B18707  12.672  25.516   4.815  0.0550 -0.3230 -0.3504
    1DIPC   C4B18708  12.840  25.180   4.699 -0.0856 -0.1903 -0.1001
    1DIPC   NC318709   1.702   0.105   2.765  0.0745 -0.0388 -0.0952
    1DIPC   PO418710   1.498   0.508   2.818  0.1998 -0.0743  0.1185
    1DIPC   GL118711   1.440   0.703   3.307  0.2430  0.0659 -0.1175
    1DIPC   GL218712   1.134   0.924   3.385  0.2852 -0.2068  0.0207
    1DIPC   C1A18713   1.547   0.976   3.690  0.1829  0.0553 -0.0463
    1DIPC   D2A18714   1.850   1.133   3.964 -0.0834 -0.1929 -0.2334
    1DIPC   D3A18715   1.798   1.166   4.453  0.2657 -0.1367 -0.1350
    1DIPC   C4A18716   1.745   1.594   4.611  0.0684  0.0858  0.1678
    1DIPC   C1B18717   1.023   1.164   3.713  0.0524 -0.0538  0.1767
    1DIPC   D2B18718   0.788   1.316   4.078 -0.1428 -0.0304 -0.3030
    1DIPC   D3B18719   1.004   1.088   4.260 -0.2230 -0.0818  0.2178
    1DIPC   C4B18720   1.272   1.331   4.585 -0.2313 -0.0823 -0.1042
    1DIPC   NC318721  21.017   8.696   3.254  0.0300 -0.2918  0.2497
    1DIPC   PO418722  21.383   8.813   3.103  0.0380  0.5598  0.2100
    1DIPC   GL118723  21.506   8.775   3.605 -0.1861  0.0121 -0.0012
    1DIPC   GL218724  21.756   9.033   3.645  0.2214  0.0134 -0.4264
    1DIPC   C1A18725  21.539   8.882   4.080 -0.1226 -0.1801  0.1227
    1DIPC   D2A18726  21.355   9.175   4.411 -0.1152  0.2908 -0.0796
    1DIPC   D3A18727  21.336   8.963   4.829  0.0776 -0.1532 -0.4076
    1DIPC   C4A18728  21.711   8.903   4.994 -0.2170  0.1026  0.0731
    1DIPC   C1B18729  22.140   8.706   3.607 -0.3015 -0.1704  0.0688
    1DIPC   D2B18730  22.635   8.582   3.586 -0.0231 -0.0905  0.1437
    1DIPC   D3B18731  22.451   8.653   4.028 -0.1936  0.1423 -0.2622
    1DIPC   C4B18732  22.501   8.764   4.452  0.2370  0.1324 -0.1404
    1DIPC   NC318733   5.822   8.220   3.127  0.5272  0.1965 -0.3162
    1DIPC   PO418734   5.949   8.543   3.280  0.0974 -0.0063  0.2461
    1DIPC   GL118735   6.046   8.326   3.658  0.0356  0.3507 -0.0562
    1DIPC   GL218736   6.034   7.967   3.616  0.1186  0.1642  0.1793
    1DIPC   C1A18737   5.961   8.356   4.017  0.1347 -0.2883 -0.2549
    1DIPC   D2A18738   5.845   8.088   4.364 -0.1092  0.2769 -0.1119
    1DIPC   D3A18739   5.741   8.331   4.766 -0.2093 -0.0488 -0.0350
    1DIPC   C4A18740   5.740   8.086   5.215  0.1076  0.0372 -0.1862
    1DIPC   C1B18741   5.739   7.887   3.908  0.2016 -0.0158  0.0685
    1DIPC   D2B18742   5.722   7.580   4.216 -0.1494 -0.0533 -0.1066
    1DIPC   D3B18743   5.439   7.811   4.453  0.0100  0.1279 -0.0782
    1DIPC   C4B18744   5.153   7.752   4.814 -0.1740 -0.0486 -0.1436
    1DIPC   NC318745  21.536  15.692   3.164 -0.2369  0.1883 -0.1569
    1DIPC   PO418746  21.275  15.643   3.522  0.0953 -0.2425  0.1909
    1DIPC   GL118747  21.525  15.552   3.819 -0.3811 -0.2462  0.0985
    1DIPC   GL218748  21.696  15.215   3.936  0.1950 -0.0523 -0.0736
    1DIPC   C1A18749  21.477  15.651   4.249 -0.1999 -0.0941 -0.1204
    1DIPC   D2A18750  21.191  15.944   4.344 -0.3020 -0.0573  0.2974
    1DIPC   D3A18751  21.402  15.984   4.757  0.1917  0.0478  0.1669
    1DIPC   C4A18752  21.250  15.887   5.199  0.0884  0.1486 -0.0189
    1DIPC   C1B18753  21.790  14.979   4.288  0.2176  0.0523  0.1534
    1DIPC   D2B18754  22.245  14.974   4.515 -0.2146 -0.1427 -0.0303
    1DIPC   D3B18755  22.797  14.690   4.594  0.1158  0.2000 -0.1916
    1DIPC   C4B18756  22.896  14.578   5.004 -0.3418  0.0402  0.1291
    1DIPC   NC318757  18.574  27.998   3.688 -0.1688 -0.1786  0.0529
    1DIPC   PO418758  19.016  27.800   3.844  0.1311  0.2169 -0.1384
    1DIPC   GL118759  19.124  27.868   4.328 -0.2952 -0.0373  0.1040
    1DIPC   GL218760  18.986  27.612   4.446 -0.1748 -0.0294 -0.1952
    1DIPC   C1A18761  19.446  27.817   4.655 -0.1426  0.1708 -0.1947
    1DIPC   D2A18762  19.614  27.633   5.120  0.3395  0.1647 -0.1043
    1DIPC   D3A18763  19.562  27.643   5.515  0.0137  0.1281  0.2163
    1DIPC   C4A18764  19.697  27.409   5.859 -0.0041 -0.1520  0.1542
    1DIPC   C1B18765  19.178  27.481   4.875  0.0331  0.1681 -0.2247
    1DIPC   D2B18766  19.135  27.621   5.292  0.0347 -0.2108  0.2053
    1DIPC   D3B18767  19.211  27.937   5.074  0.1548 -0.1505  0.0023
    1DIPC   C4B18768  18.960  28.027   4.792  0.0331  0.0315 -0.0067
    1DIPC   NC318769  23.068  22.170   3.057  0.1255 -0.1599 -0.1605
    1DIPC   PO418770  23.259  21.770   3.076 -0.2897  0.3143  0.1391
    1DIPC   GL118771  23.147  21.776   3.455  0.2971 -0.0724  0.1274
    1DIPC   GL218772  23.432  21.621   3.622 -0.2176  0.1257 -0.1455
    1DIPC   C1A18773  22.799  21.830   3.744  0.0415 -0.0040  0.2459
    1DIPC   D2A18774  22.578  21.766   4.104  0.2297 -0.2469  0.1108
    1DIPC   D3A18775  22.914  21.550   4.225 -0.1733  0.0426 -0.1590
    1DIPC   C4A18776  22.926  21.129   4.239  0.1411  0.0457  0.0999
    1DIPC   C1B18777  23.252  21.831   3.967  0.0407  0.2050  0.0030
    1DIPC   D2B18778  23.064  22.180   4.206 -0.0864  0.2529 -0.0886
    1DIPC   D3B18779  23.439  22.126   4.451 -0.0538 -0.2651  0.2128
    1DIPC   C4B18780  23.818  22.353   4.433 -0.1713 -0.1216 -0.0183
    1DIPC   NC318781  14.802  22.826   2.582 -0.1965  0.0137  0.0524
    1DIPC   PO418782  14.929  22.630   3.001  0.2762 -0.3261 -0.1768
    1DIPC   GL118783  14.860  22.586   3.387 -0.1647  0.2948 -0.0278
    1DIPC   GL218784  14.614  22.755   3.440  0.1108  0.0841  0.2682
    1DIPC   C1A18785  14.938  22.458   3.772  0.4735 -0.3989  0.1966
    1DIPC   D2A18786  14.862  22.475   4.200 -0.0813 -0.0301  0.0281
    1DIPC   D3A18787  14.912  22.241   4.504  0.0660 -0.0080  0.0309
    1DIPC   C4A18788  14.748  21.961   4.755  0.0078 -0.0876 -0.4676
    1DIPC   C1B18789  14.556  22.779   3.913 -0.4253  0.2917 -0.0894
    1DIPC   D2B18790  14.340  22.627   4.309  0.0820 -0.0376 -0.0711
    1DIPC   D3B18791  14.699  22.857   4.449  0.3683 -0.0491 -0.0531
    1DIPC   C4B18792  15.032  22.671   4.724  0.1323  0.1238 -0.2387
    1DIPC   NC318793  15.168  24.899   3.459  0.1191  0.2372 -0.0203
    1DIPC   PO418794  15.327  25.354   3.366 -0.0244  0.2460  0.1349
    1DIPC   GL118795  15.514  25.247   3.743 -0.0272  0.0053  0.3590
    1DIPC   GL218796  15.434  25.499   3.944  0.0928  0.1022 -0.0911
    1DIPC   C1A18797  15.439  24.911   4.081 -0.0412 -0.1509 -0.1761
    1DIPC   D2A18798  15.468  24.596   4.487  0.1686  0.1203  0.1078
    1DIPC   D3A18799  15.170  24.561   4.315 -0.2313 -0.2334 -0.0928
    1DIPC   C4A18800  15.123  24.076   4.255 -0.1508  0.0415  0.1796
    1DIPC   C1B18801  15.397  25.344   4.345  0.0052  0.1917 -0.0365
    1DIPC   D2B18802  15.123  25.063   4.589  0.1256 -0.1969 -0.0415
    1DIPC   D3B18803  14.734  25.010   4.309  0.0510 -0.1039  0.1360
    1DIPC   C4B18804  14.740  24.604   3.957 -0.2537  0.1740 -0.4140
    1DIPC   NC318805   5.931   6.752   2.903 -0.2166 -0.2265  0.2781
    1DIPC   PO418806   5.520   6.616   2.771 -0.2194  0.0716 -0.0485
    1DIPC   GL118807   5.548   6.407   3.172 -0.2395 -0.0623  0.3467
    1DIPC   GL218808   5.755   6.602   3.369 -0.2407  0.1160 -0.3360
    1DIPC   C1A18809   5.473   6.286   3.649 -0.0761 -0.0018  0.0569
    1DIPC   D2A18810   5.469   6.064   4.083 -0.1403  0.0557  0.0280
    1DIPC   D3A18811   5.128   6.310   4.266  0.1502  0.1435  0.0819
    1DIPC   C4A18812   4.751   6.214   4.407  0.1511  0.0193  0.2686
    1DIPC   C1B18813   5.233   6.678   3.401  0.0549 -0.0952  0.0347
    1DIPC   D2B18814   5.035   6.955   3.782 -0.0450  0.0280 -0.0700
    1DIPC   D3B18815   4.945   7.336   3.888  0.2091  0.0158 -0.0428
    1DIPC   C4B18816   5.030   7.476   4.359 -0.0273 -0.0936  0.3865
    1DIPC   NC318817   3.961  19.018   3.409 -0.0175  0.0025  0.4477
    1DIPC   PO418818   4.317  18.664   3.467 -0.2188 -0.1035 -0.0585
    1DIPC   GL118819   4.046  18.665   3.746 -0.1609  0.1254 -0.0156
    1DIPC   GL218820   4.295  18.426   4.014 -0.2405  0.1078  0.0095
    1DIPC   C1A18821   3.570  18.652   3.894 -0.1077  0.2221 -0.1011
    1DIPC   D2A18822   3.440  18.981   4.275 -0.1012  0.4063  0.0118
    1DIPC   D3A18823   3.689  19.025   4.728  0.0284  0.2264  0.2778
    1DIPC   C4A18824   3.822  19.175   5.095 -0.1589  0.0532  0.0272
    1DIPC   C1B18825   4.038  18.332   4.344 -0.0581 -0.2013 -0.1637
    1DIPC   D2B18826   3.724  18.556   4.540  0.4270 -0.0003 -0.1086
    1DIPC   D3B18827   3.936  18.822   4.239  0.0259 -0.3011 -0.1076
    1DIPC   C4B18828   4.320  18.836   4.162 -0.1689  0.0236  0.0607
    1DIPC   NC318829   0.208   1.940   2.646  0.1706 -0.1759 -0.2554
    1DIPC   PO418830   0.278   1.593   2.577  0.2896  0.0269 -0.0741
    1DIPC   GL118831   0.357   1.538   2.982  0.1079 -0.1602 -0.0136
    1DIPC   GL218832   0.225   1.320   3.183  0.0565 -0.0458 -0.1358
    1DIPC   C1A18833   0.651   1.761   3.137  0.0069  0.0001  0.1549
    1DIPC   D2A18834   0.942   1.672   3.518 -0.0110  0.2318 -0.1925
    1DIPC   D3A18835   0.957   1.762   3.900 -0.3387  0.6250 -0.1902
    1DIPC   C4A18836   1.306   1.462   4.001  0.0820 -0.0697  0.3953
    1DIPC   C1B18837   0.023   1.588   3.372 -0.1784 -0.3367 -0.0771
    1DIPC   D2B18838  27.863   1.688   3.759 -0.2360  0.2324  0.0572
    1DIPC   D3B18839  28.007   1.784   4.193  0.1338 -0.0094  0.0659
    1DIPC   C4B18840   0.139   1.456   4.265 -0.0631 -0.0546  0.1537
    1DIPC   NC318841  22.767  10.312   3.187  0.3037 -0.2172  0.0786
    1DIPC   PO418842  22.403  10.189   3.430 -0.0383 -0.0623  0.0935
    1DIPC   GL118843  22.537  10.221   3.824 -0.1584 -0.0762  0.3146
    1DIPC   GL218844  22.407  10.178   3.974 -0.0071  0.2741  0.0635
    1DIPC   C1A18845  22.860  10.025   4.059  0.0048 -0.0787 -0.3230
    1DIPC   D2A18846  23.074  10.126   4.309  0.0374 -0.2390 -0.1981
    1DIPC   D3A18847  22.899   9.883   4.619 -0.2314 -0.0383  0.1346
    1DIPC   C4A18848  22.498   9.814   4.682  0.0364  0.0278 -0.0977
    1DIPC   C1B18849  22.387  10.258   4.330 -0.1694  0.1171 -0.3807
    1DIPC   D2B18850  22.202  10.387   4.737  0.2547  0.0565 -0.0122
    1DIPC   D3B18851  22.616  10.273   4.908 -0.2506  0.0303  0.0690
    1DIPC   C4B18852  22.970  10.404   4.760 -0.2667 -0.0289  0.2384
    1DIPC   NC318853   1.147  23.627   2.650 -0.0788  0.0332 -0.2638
    1DIPC   PO418854   1.510  23.856   2.652 -0.1558  0.0677 -0.2150
    1DIPC   GL118855   1.357  23.608   3.112 -0.2193  0.1028  0.2433
    1DIPC   GL218856   1.350  23.270   3.045  0.0196  0.2377  0.0719
    1DIPC   C1A18857   1.521  23.658   3.512  0.0620 -0.0950 -0.0356
    1DIPC   D2A18858   1.589  23.779   3.952  0.2370  0.0768  0.0390
    1DIPC   D3A18859   1.757  23.537   4.310  0.0762 -0.1469  0.2791
    1DIPC   C4A18860   1.375  23.266   4.588  0.1832 -0.0200  0.1718
    1DIPC   C1B18861   1.524  23.177   3.462 -0.1358 -0.0205 -0.2653
    1DIPC   D2B18862   1.897  23.389   3.812  0.0077  0.0814  0.5460
    1DIPC   D3B18863   2.101  23.281   4.070 -0.0470 -0.0230  0.0330
    1DIPC   C4B18864   2.458  23.489   4.127  0.0300 -0.6061 -0.2515
    1DIPC   NC318865  23.137   3.846   2.549  0.0623  0.1397  0.0754
    1DIPC   PO418866  23.084   3.625   2.914  0.0224  0.0820  0.2884
    1DIPC   GL118867  23.193   3.608   3.402  0.2841 -0.0880  0.2846
    1DIPC   GL218868  23.518   3.624   3.511 -0.0812  0.2619 -0.0422
    1DIPC   C1A18869  23.055   3.470   3.821  0.1925  0.2606  0.2198
    1DIPC   D2A18870  23.055   3.451   4.136  0.0000  0.1671  0.1004
    1DIPC   D3A18871  23.286   3.387   4.555  0.3139 -0.0440  0.2924
    1DIPC   C4A18872  23.367   3.600   4.952 -0.1568  0.3145 -0.0467
    1DIPC   C1B18873  23.402   3.834   3.873 -0.0554  0.0906  0.0201
    1DIPC   D2B18874  23.297   3.864   4.341 -0.2014 -0.0819  0.0376
    1DIPC   D3B18875  22.988   3.747   4.673 -0.2657 -0.0380  0.4309
    1DIPC   C4B18876  22.843   3.714   5.065 -0.0818 -0.1382 -0.1862
    1DIPC   NC318877  19.011  20.457   3.519 -0.0364  0.0897  0.5124
    1DIPC   PO418878  18.999  20.704   3.868  0.1829 -0.0935 -0.1940
    1DIPC   GL118879  18.719  20.888   4.263  0.1047 -0.0719 -0.1445
    1DIPC   GL218880  18.801  21.072   4.448  0.1187 -0.0246  0.2238
    1DIPC   C1A18881  18.431  20.729   4.651  0.1046 -0.0637 -0.0231
    1DIPC   D2A18882  18.454  20.782   5.060  0.1504 -0.0125 -0.0136
    1DIPC   D3A18883  18.864  20.677   5.248  0.0287 -0.0321  0.1754
    1DIPC   C4A18884  19.062  20.390   5.045 -0.1090  0.1186 -0.0614
    1DIPC   C1B18885  18.919  20.987   4.800  0.0880 -0.0162  0.0305
    1DIPC   D2B18886  18.753  21.172   5.140 -0.3521 -0.0354  0.2619
    1DIPC   D3B18887  18.336  21.290   5.233 -0.2782 -0.4492 -0.0325
    1DIPC   C4B18888  18.015  21.084   5.122  0.0190 -0.3005  0.2296
    1DIPC   NC318889   0.495  10.150   3.250 -0.3099  0.0212 -0.0667
    1DIPC   PO418890   0.334  10.580   3.318  0.1558 -0.0095 -0.1758
    1DIPC   GL118891   0.138  10.386   3.599  0.1597 -0.0941 -0.1366
    1DIPC   GL218892   0.176  10.143   3.656  0.1876 -0.0162 -0.2272
    1DIPC   C1A18893   0.028  10.406   4.094 -0.1832  0.0338  0.2589
    1DIPC   D2A18894  28.063  10.257   4.509 -0.0690 -0.2341 -0.1270
    1DIPC   D3A18895  27.980   9.889   4.331  0.3045  0.2789 -0.2563
    1DIPC   C4A18896  27.937   9.904   3.957 -0.1719  0.2243  0.1564
    1DIPC   C1B18897   0.332  10.050   4.120 -0.1900 -0.1270  0.1602
    1DIPC   D2B18898   0.619  10.058   4.386 -0.2031  0.0038 -0.1993
    1DIPC   D3B18899   0.478  10.413   4.446 -0.0601 -0.0592 -0.1774
    1DIPC   C4B18900   0.684  10.703   4.566  0.1214  0.0969 -0.1915
    1DIPC   NC318901  23.941  25.650   3.732  0.2969  0.0776  0.2068
    1DIPC   PO418902  23.452  25.706   3.707 -0.1693 -0.1293 -0.0656
    1DIPC   GL118903  23.247  25.691   4.101 -0.0422 -0.2018 -0.0800
    1DIPC   GL218904  23.185  25.959   4.118  0.0510 -0.2771 -0.0489
    1DIPC   C1A18905  22.901  25.515   4.432  0.0332  0.2845  0.0905
    1DIPC   D2A18906  22.597  25.484   4.709 -0.0709  0.0346  0.0965
    1DIPC   D3A18907  22.683  25.268   5.109 -0.4290 -0.1100  0.0949
    1DIPC   C4A18908  22.358  24.907   5.283 -0.0896 -0.3054  0.0505
    1DIPC   C1B18909  23.045  26.084   4.487 -0.0785 -0.0270 -0.1080
    1DIPC   D2B18910  22.794  26.024   4.786  0.0195  0.2374 -0.2722
    1DIPC   D3B18911  23.036  25.718   4.926 -0.2289 -0.0061 -0.4028
    1DIPC   C4B18912  23.116  25.351   4.845 -0.3047  0.0064 -0.0731
    1DIPC   NC318913  16.791  14.019   3.743 -0.1694 -0.2272 -0.1695
    1DIPC   PO418914  16.665  13.547   3.641 -0.3043 -0.1361  0.0092
    1DIPC   GL118915  16.799  13.319   4.031 -0.1286  0.2320  0.0935
    1DIPC   GL218916  17.069  13.157   4.071  0.0901 -0.0210  0.4222
    1DIPC   C1A18917  16.648  13.292   4.444 -0.0212 -0.0123 -0.1495
    1DIPC   D2A18918  16.442  13.182   4.807 -0.1695  0.1839  0.0492
    1DIPC   D3A18919  16.759  13.096   5.032  0.4178 -0.1031  0.1181
    1DIPC   C4A18920  17.158  13.364   5.249 -0.0409  0.0468 -0.2246
    1DIPC   C1B18921  17.054  12.972   4.386 -0.1473 -0.0110 -0.0127
    1DIPC   D2B18922  16.963  12.565   4.532  0.2288 -0.0329 -0.0726
    1DIPC   D3B18923  16.602  12.686   4.804  0.0980  0.0868 -0.2719
    1DIPC   C4B18924  16.584  12.684   5.247 -0.3128  0.0677  0.1512
    1DIPC   NC318925  16.637  15.995   3.892  0.1071  0.0012  0.1211
    1DIPC   PO418926  16.432  16.435   3.974  0.0363  0.0599  0.0566
    1DIPC   GL118927  16.623  16.676   4.273  0.1622  0.0226 -0.2188
    1DIPC   GL218928  16.839  16.612   4.474  0.0883  0.2484 -0.2769
    1DIPC   C1A18929  16.499  16.957   4.575 -0.0699 -0.1592  0.3085
    1DIPC   D2A18930  16.382  17.191   4.918  0.1646  0.3100 -0.0095
    1DIPC   D3A18931  16.100  16.864   5.169 -0.0861  0.2849  0.1632
    1DIPC   C4A18932  15.842  17.067   5.569 -0.2825 -0.1941  0.0634
    1DIPC   C1B18933  17.167  16.468   4.632 -0.3969  0.2853 -0.0481
    1DIPC   D2B18934  17.227  16.383   5.066  0.1374  0.0568 -0.1258
    1DIPC   D3B18935  17.193  16.215   5.495  0.5538  0.0431 -0.0581
    1DIPC   C4B18936  17.173  16.444   5.800  0.1709 -0.1214 -0.1011
    1DIPC   NC318937  20.770  11.844   3.386 -0.0345 -0.0677  0.1814
    1DIPC   PO418938  21.160  11.583   3.387 -0.2161 -0.2014  0.1102
    1DIPC   GL118939  21.172  11.448   3.773 -0.2360 -0.1671 -0.1252
    1DIPC   GL218940  20.851  11.515   3.863 -0.0762 -0.2206 -0.1759
    1DIPC   C1A18941  21.160  11.221   4.134  0.0752 -0.3868 -0.1939
    1DIPC   D2A18942  20.970  11.331   4.556  0.1927  0.3369  0.0071
    1DIPC   D3A18943  20.678  10.994   4.795  0.0292  0.0632  0.1444
    1DIPC   C4A18944  20.255  10.850   4.811  0.2101 -0.2083  0.1530
    1DIPC   C1B18945  20.795  11.684   4.207 -0.0948  0.0677 -0.1838
    1DIPC   D2B18946  20.876  11.846   4.535 -0.0262 -0.0229 -0.1388
    1DIPC   D3B18947  20.588  11.727   4.742  0.0998 -0.0768 -0.0114
    1DIPC   C4B18948  20.147  11.770   4.570 -0.1526  0.0841 -0.2839
    1DIPC   NC318949  21.975  10.082   3.685  0.0469  0.3612 -0.1541
    1DIPC   PO418950  21.648  10.050   4.062  0.3338  0.1035 -0.0715
    1DIPC   GL118951  21.759  10.498   4.110  0.0616  0.2045 -0.2227
    1DIPC   GL218952  21.461  10.846   4.120  0.4697  0.1649 -0.2462
    1DIPC   C1A18953  21.732  10.604   4.603 -0.0958 -0.0286  0.1428
    1DIPC   D2A18954  21.768  10.520   5.063  0.5929 -0.0042 -0.3090
    1DIPC   D3A18955  21.822  10.152   4.974 -0.0397 -0.2162  0.2804
    1DIPC   C4A18956  22.177   9.863   4.995  0.0977 -0.1986  0.0487
    1DIPC   C1B18957  21.425  11.089   4.563  0.0684 -0.1048 -0.0591
    1DIPC   D2B18958  21.598  11.241   4.859 -0.4247  0.2524  0.3304
    1DIPC   D3B18959  21.884  11.504   5.170 -0.1977  0.0572  0.0436
    1DIPC   C4B18960  22.249  11.364   5.277  0.2463  0.0680 -0.4850
    1DIPC   NC318961  20.236  11.953   2.718  0.3926  0.0520  0.3508
    1DIPC   PO418962  20.373  11.883   3.063  0.1756 -0.1058  0.0094
    1DIPC   GL118963  20.341  12.038   3.499 -0.1089  0.3471  0.1637
    1DIPC   GL218964  20.340  12.390   3.509  0.0151 -0.3486  0.0100
    1DIPC   C1A18965  20.115  11.992   3.945  0.1723  0.1465  0.0920
    1DIPC   D2A18966  19.917  11.624   4.173 -0.3985 -0.1912 -0.0052
    1DIPC   D3A18967  19.848  11.299   4.488 -0.1754  0.0107  0.0063
    1DIPC   C4A18968  20.146  11.316   4.751 -0.3981 -0.0055 -0.1165
    1DIPC   C1B18969  20.443  12.444   3.974 -0.2338  0.0214  0.1751
    1DIPC   D2B18970  20.508  12.143   4.372  0.1474  0.1544 -0.2963
    1DIPC   D3B18971  20.587  12.550   4.411  0.2778  0.2593 -0.3186
    1DIPC   C4B18972  20.668  12.811   4.738 -0.0837 -0.3929 -0.1584
    1DIPC   NC318973  17.923  20.531   3.349 -0.1208 -0.1673 -0.0159
    1DIPC   PO418974  17.723  20.209   3.584  0.2366  0.2540  0.1222
    1DIPC   GL118975  17.770  20.500   3.919  0.1528 -0.0500  0.0966
    1DIPC   GL218976  18.075  20.709   3.899 -0.1017 -0.1284  0.1824
    1DIPC   C1A18977  17.698  20.928   4.064 -0.0215 -0.0826 -0.2130
    1DIPC   D2A18978  17.417  21.294   4.113  0.1911 -0.0526 -0.0936
    1DIPC   D3A18979  17.209  21.256   4.459  0.0362 -0.1453  0.2095
    1DIPC   C4A18980  16.949  20.855   4.479 -0.1743 -0.1610  0.1452
    1DIPC   C1B18981  18.400  20.495   4.119 -0.3401 -0.1935  0.2457
    1DIPC   D2B18982  18.784  20.400   4.386  0.1504  0.2868  0.1269
    1DIPC   D3B18983  18.435  20.011   4.396 -0.1718 -0.0008 -0.0022
    1DIPC   C4B18984  18.775  19.626   4.415 -0.2444  0.2391  0.1417
    1DIPC   NC318985  10.373  22.972   2.821  0.0550 -0.0149  0.0152
    1DIPC   PO418986  10.445  23.138   3.296 -0.1651 -0.1485 -0.1349
    1DIPC   GL118987  10.271  23.139   3.706 -0.1440 -0.0385 -0.1315
    1DIPC   GL218988  10.217  22.756   3.833  0.2687 -0.1188  0.0494
    1DIPC   C1A18989   9.940  23.549   4.016 -0.1869  0.1249  0.1302
    1DIPC   D2A18990   9.919  23.740   4.454 -0.3432 -0.3824  0.2347
    1DIPC   D3A18991  10.214  23.944   4.731  0.1246  0.2770 -0.1834
    1DIPC   C4A18992  10.578  23.821   4.603 -0.1042 -0.2143 -0.0706
    1DIPC   C1B18993  10.129  22.560   4.120  0.2164  0.0377  0.4308
    1DIPC   D2B18994  10.012  22.159   4.135  0.1341 -0.0641  0.0035
    1DIPC   D3B18995  10.242  21.772   4.227 -0.0067  0.0397  0.1628
    1DIPC   C4B18996  10.462  21.739   4.588 -0.0047  0.1401 -0.2071
    1DIPC   NC318997   0.977  26.456   2.310 -0.0929 -0.1820  0.3042
    1DIPC   PO418998   0.667  26.855   2.491 -0.0133 -0.0033 -0.0192
    1DIPC   GL118999   0.670  26.904   2.975 -0.1145 -0.3169 -0.0105
    1DIPC   GL219000   0.894  26.992   3.200 -0.1977 -0.2572 -0.0023
    1DIPC   C1A19001   0.375  26.999   3.290  0.1489  0.0873 -0.3048
    1DIPC   D2A19002  28.116  27.260   3.258  0.0416 -0.3948  0.2567
    1DIPC   D3A19003   0.230  27.395   3.617 -0.1787 -0.0503 -0.4526
    1DIPC   C4A19004   0.209  27.475   3.995 -0.1587 -0.1278  0.1154
    1DIPC   C1B19005   0.825  26.788   3.640  0.0781  0.1408  0.1758
    1DIPC   D2B19006   0.719  26.704   4.073  0.2781  0.2788  0.3736
    1DIPC   D3B19007   0.318  26.489   4.109  0.2164 -0.0657 -0.0337
    1DIPC   C4B19008  28.097  26.385   4.471 -0.0037  0.1169 -0.2481
    1DIPC   NC319009  16.586   4.681   3.450 -0.0364  0.0205 -0.1252
    1DIPC   PO419010  16.405   4.285   3.398 -0.0018  0.2087 -0.1438
    1DIPC   GL119011  16.584   4.237   3.821  0.0765 -0.0646  0.1648
    1DIPC   GL219012  16.819   4.091   3.881 -0.0024 -0.1724 -0.3764
    1DIPC   C1A19013  16.400   3.967   4.107 -0.0672 -0.1752 -0.1626
    1DIPC   D2A19014  16.307   3.742   4.425  0.1421 -0.2870  0.0523
    1DIPC   D3A19015  16.349   3.335   4.333 -0.3371  0.0235 -0.0427
    1DIPC   C4A19016  16.332   2.961   4.642  0.1923  0.1386 -0.2559
    1DIPC   C1B19017  16.781   4.359   4.218 -0.1625 -0.1650  0.2544
    1DIPC   D2B19018  16.631   4.764   4.300 -0.0301 -0.5174  0.2167
    1DIPC   D3B19019  16.725   4.650   4.648  0.1356 -0.3887  0.1249
    1DIPC   C4B19020  16.908   4.912   5.017  0.5231  0.1437 -0.0836
    1DIPC   NC319021  22.187  22.195   3.239  0.3516  0.1371 -0.3261
    1DIPC   PO419022  21.813  22.036   3.050 -0.1924  0.1601 -0.1091
    1DIPC   GL119023  21.773  21.951   3.528 -0.0186  0.3076  0.5138
    1DIPC   GL219024  21.819  22.247   3.709  0.1025  0.0732  0.0693
    1DIPC   C1A19025  21.865  21.736   3.889  0.1895 -0.1098 -0.0668
    1DIPC   D2A19026  21.866  21.602   4.227  0.2023  0.0929 -0.2529
    1DIPC   D3A19027  22.202  21.722   4.449 -0.0425  0.1656  0.0129
    1DIPC   C4A19028  22.296  21.640   4.819  0.1397 -0.2409 -0.0565
    1DIPC   C1B19029  22.242  22.148   3.925 -0.2893  0.1117 -0.1695
    1DIPC   D2B19030  22.555  22.337   4.316 -0.0523 -0.0179  0.1258
    1DIPC   D3B19031  22.747  21.926   4.529  0.0316  0.2228  0.0181
    1DIPC   C4B19032  23.149  21.729   4.709 -0.1814 -0.0316 -0.3411
    1DIPC   NC319033   3.692   8.919   2.326 -0.0079  0.0544 -0.0782
    1DIPC   PO419034   3.755   8.969   2.785  0.0871 -0.0090 -0.0150
    1DIPC   GL119035   3.772   8.785   3.173  0.3769 -0.0529 -0.1546
    1DIPC   GL219036   4.087   8.746   3.344 -0.2427  0.2268 -0.2866
    1DIPC   C1A19037   3.560   8.650   3.492 -0.2536  0.3252 -0.2129
    1DIPC   D2A19038   3.430   8.684   3.989  0.0715  0.1961 -0.0526
    1DIPC   D3A19039   3.506   9.124   3.958  0.0245  0.1530 -0.1312
    1DIPC   C4A19040   3.876   9.362   3.815  0.0440 -0.1589  0.0840
    1DIPC   C1B19041   3.913   8.897   3.725  0.2270  0.1121  0.3143
    1DIPC   D2B19042   3.943   8.907   4.130  0.2951 -0.0144 -0.1409
    1DIPC   D3B19043   3.666   9.021   4.579 -0.0753 -0.3294 -0.1916
    1DIPC   C4B19044   3.571   9.510   4.637 -0.1288 -0.2346  0.1290
    1DIPC   NC319045  11.200  18.621   3.485  0.0700 -0.2264  0.0103
    1DIPC   PO419046  10.768  18.509   3.658 -0.1550  0.0404 -0.2562
    1DIPC   GL119047  10.956  18.700   3.986 -0.0219 -0.2998 -0.1101
    1DIPC   GL219048  11.288  18.593   3.945  0.0157  0.1463 -0.2032
    1DIPC   C1A19049  10.813  18.631   4.358  0.2563  0.3039 -0.0281
    1DIPC   D2A19050  10.817  18.557   4.831  0.1633 -0.1820  0.0582
    1DIPC   D3A19051  11.058  18.598   5.097  0.2756 -0.0016  0.3450
    1DIPC   C4A19052  11.237  18.937   5.249  0.1816 -0.1401  0.0105
    1DIPC   C1B19053  11.496  18.257   4.249  0.0013 -0.1844 -0.0504
    1DIPC   D2B19054  11.616  17.959   4.408 -0.2447 -0.0929 -0.0513
    1DIPC   D3B19055  11.300  17.686   4.245  0.1893 -0.1822  0.0542
    1DIPC   C4B19056  10.864  17.732   4.185 -0.0642  0.1833 -0.2168
    1DIPC   NC319057  10.893  27.413   2.689 -0.0741  0.1055 -0.2776
    1DIPC   PO419058  10.612  27.636   2.982 -0.0093  0.0532 -0.0509
    1DIPC   GL119059  10.643  27.600   3.420  0.2679 -0.2086 -0.0548
    1DIPC   GL219060  10.364  27.488   3.537 -0.0588 -0.0486 -0.0641
    1DIPC   C1A19061  10.775  27.894   3.684 -0.0291 -0.0764 -0.2421
    1DIPC   D2A19062  11.146  27.919   3.917  0.2453 -0.1351 -0.3228
    1DIPC   D3A19063  11.528  27.892   4.108  0.5622 -0.0206  0.0452
    1DIPC   C4A19064  11.664  27.835   4.545  0.1617  0.1200  0.0007
    1DIPC   C1B19065  10.504  27.572   4.005 -0.1388 -0.2647  0.2744
    1DIPC   D2B19066  10.444  27.841   4.268 -0.3262 -0.0508 -0.4385
    1DIPC   D3B19067  10.017  27.873   4.220  0.3309 -0.0761  0.0894
    1DIPC   C4B19068   9.826  27.649   4.583  0.0085  0.0102  0.1387
    1DIPC   NC319069  10.481  13.687   3.566 -0.3323 -0.0909 -0.2500
    1DIPC   PO419070  10.250  13.549   3.955  0.1812  0.1239 -0.1908
    1DIPC   GL119071  10.020  13.463   4.391  0.0404 -0.0689  0.1001
    1DIPC   GL219072  10.173  13.045   4.473 -0.1216  0.1196  0.1101
    1DIPC   C1A19073   9.819  13.306   4.813  0.0670 -0.0793 -0.0122
    1DIPC   D2A19074   9.583  13.214   5.231  0.0623 -0.1680  0.2152
    1DIPC   D3A19075   9.721  13.177   5.702 -0.3375  0.1674  0.2493
    1DIPC   C4A19076   9.963  13.458   5.829  0.0973 -0.1790  0.0846
    1DIPC   C1B19077  10.218  13.009   4.940 -0.1151 -0.1345 -0.1246
    1DIPC   D2B19078   9.880  12.813   5.339  0.3104 -0.0518  0.0223
    1DIPC   D3B19079   9.409  12.832   5.472  0.1880  0.1863  0.0794
    1DIPC   C4B19080   9.163  13.052   5.619  0.1369  0.2627 -0.0633
    1DIPC   NC319081  18.545   0.881   3.593 -0.2886  0.0644 -0.0817
    1DIPC   PO419082  18.422   1.021   4.047 -0.1776  0.3312  0.0943
    1DIPC   GL119083  18.403   0.954   4.374  0.0752 -0.0181 -0.1866
    1DIPC   GL219084  18.086   1.095   4.456 -0.3642  0.1561 -0.0230
    1DIPC   C1A19085  18.605   0.874   4.793 -0.1640 -0.1528  0.1795
    1DIPC   D2A19086  18.628   0.676   5.109 -0.1071  0.2442  0.0270
    1DIPC   D3A19087  18.375   0.331   4.958  0.1160 -0.1922  0.1354
    1DIPC   C4A19088  18.021   0.312   5.173 -0.0483 -0.1439  0.1933
    1DIPC   C1B19089  18.075   1.421   4.755 -0.0377  0.1487  0.0232
    1DIPC   D2B19090  18.035   1.605   5.202 -0.3113 -0.1097  0.4044
    1DIPC   D3B19091  18.370   1.878   5.416  0.0460 -0.2609  0.1522
    1DIPC   C4B19092  18.720   2.241   5.186 -0.1900  0.0655  0.2794
    1DIPC   NC319093   1.817  12.874   2.345  0.2150  0.0036 -0.0681
    1DIPC   PO419094   1.664  13.163   2.599  0.2048 -0.1575  0.1146
    1DIPC   GL119095   1.510  13.219   3.016 -0.1309  0.5171  0.1166
    1DIPC   GL219096   1.205  13.086   3.194  0.1132 -0.0472  0.0630
    1DIPC   C1A19097   1.776  13.204   3.376  0.0888 -0.0042 -0.0945
    1DIPC   D2A19098   2.029  13.229   3.736 -0.1034  0.0408 -0.1564
    1DIPC   D3A19099   1.960  12.983   4.036  0.0674 -0.0825 -0.0450
    1DIPC   C4A19100   1.660  13.153   4.330 -0.1655 -0.0767 -0.2648
    1DIPC   C1B19101   1.334  13.367   3.532  0.0765 -0.0798 -0.0490
    1DIPC   D2B19102   1.449  13.482   3.932  0.1810  0.2514  0.1093
    1DIPC   D3B19103   1.164  13.854   4.067  0.1837 -0.0621 -0.0319
    1DIPC   C4B19104   1.395  14.008   4.471  0.0033 -0.1011  0.0942
    1DIPC   NC319105  13.716  14.484   3.566 -0.0141 -0.1358  0.2749
    1DIPC   PO419106  14.101  14.618   3.754  0.1917  0.1030 -0.1320
    1DIPC   GL119107  13.885  14.583   4.077 -0.2612 -0.3534 -0.1896
    1DIPC   GL219108  13.787  14.277   4.121  0.2848  0.1463  0.0307
    1DIPC   C1A19109  13.660  14.626   4.513  0.0384 -0.0442  0.1059
    1DIPC   D2A19110  13.408  14.610   4.820  0.0750 -0.1828  0.0402
    1DIPC   D3A19111  12.879  14.639   4.742  0.0533  0.1750  0.2034
    1DIPC   C4A19112  12.649  14.441   5.065  0.0140 -0.0295  0.0418
    1DIPC   C1B19113  13.968  14.151   4.524 -0.0955 -0.4639 -0.1078
    1DIPC   D2B19114  13.945  13.953   4.880  0.0456 -0.1661  0.1225
    1DIPC   D3B19115  13.464  13.883   5.068 -0.2124  0.2033 -0.1919
    1DIPC   C4B19116  13.357  13.767   5.508  0.1122 -0.3347 -0.1598
    1DIPC   NC319117  27.655  24.442   2.858 -0.1397 -0.3698  0.1172
    1DIPC   PO419118  28.056  24.193   2.933 -0.1767  0.1832 -0.0802
    1DIPC   GL119119  27.867  24.272   3.325 -0.2262  0.0206 -0.0016
    1DIPC   GL219120  28.064  24.392   3.482  0.2512 -0.1598 -0.0771
    1DIPC   C1A19121  27.569  24.139   3.767  0.2952  0.0406  0.1916
    1DIPC   D2A19122  27.523  24.295   4.253  0.1823  0.2128  0.3299
    1DIPC   D3A19123  27.300  24.013   4.489 -0.0417 -0.4276 -0.2688
    1DIPC   C4A19124  27.479  23.669   4.634  0.1574 -0.0049  0.0490
    1DIPC   C1B19125   0.342  24.290   3.694  0.2300 -0.2055  0.1755
    1DIPC   D2B19126   0.327  24.081   4.023 -0.0881  0.2835 -0.2182
    1DIPC   D3B19127   0.195  23.634   4.097 -0.0067  0.1795  0.1513
    1DIPC   C4B19128   0.272  23.310   4.465  0.1887  0.1383 -0.2067
    1DIPC   NC319129  24.827  18.720   3.321 -0.0997  0.0756 -0.0347
    1DIPC   PO419130  24.519  18.668   3.576 -0.0113 -0.2939  0.2882
    1DIPC   GL119131  24.683  18.641   3.907 -0.0344 -0.2560 -0.0012
    1DIPC   GL219132  24.909  18.476   3.900 -0.2515  0.1153 -0.1903
    1DIPC   C1A19133  24.589  18.725   4.416  0.0355  0.0574  0.0858
    1DIPC   D2A19134  24.792  18.807   4.693 -0.1208  0.0460  0.1965
    1DIPC   D3A19135  25.014  18.393   4.609  0.0000 -0.0458  0.0484
    1DIPC   C4A19136  25.004  18.137   4.291  0.0100  0.1704 -0.1390
    1DIPC   C1B19137  25.089  18.673   4.239 -0.1131  0.0178 -0.2464
    1DIPC   D2B19138  25.234  18.953   4.444 -0.0640 -0.2963 -0.1098
    1DIPC   D3B19139  24.841  19.108   4.202 -0.2091 -0.1949 -0.3227
    1DIPC   C4B19140  24.368  19.262   4.385 -0.1773  0.0087  0.3898
    1DIPC   NC319141  14.612  16.232   3.369 -0.1288  0.2040  0.1538
    1DIPC   PO419142  14.234  16.095   3.542  0.0373  0.1314 -0.1234
    1DIPC   GL119143  14.136  15.903   3.834 -0.0330 -0.1995 -0.1127
    1DIPC   GL219144  14.198  15.650   3.812 -0.0878  0.2053  0.0717
    1DIPC   C1A19145  13.731  15.944   4.174 -0.0911 -0.1807  0.1557
    1DIPC   D2A19146  13.643  15.860   4.628 -0.2597 -0.2611 -0.1360
    1DIPC   D3A19147  13.461  16.139   4.935 -0.1043 -0.1715 -0.0334
    1DIPC   C4A19148  13.123  15.984   5.104 -0.1397  0.0209 -0.1282
    1DIPC   C1B19149  14.096  15.641   4.250  0.3207  0.2991 -0.2510
    1DIPC   D2B19150  14.000  15.515   4.629 -0.1555 -0.1056 -0.2780
    1DIPC   D3B19151  14.133  15.949   4.797  0.3038  0.1438  0.5384
    1DIPC   C4B19152  14.345  16.076   5.215  0.3531 -0.0393  0.0892
    1DIPC   NC319153   6.352   3.417   2.548  0.0789 -0.2734  0.0289
    1DIPC   PO419154   6.520   3.726   2.792 -0.1705  0.1262  0.0293
    1DIPC   GL119155   6.699   3.415   3.033  0.2005 -0.0952 -0.2152
    1DIPC   GL219156   6.383   3.366   3.258 -0.2160 -0.0513  0.0620
    1DIPC   C1A19157   6.783   3.311   3.482  0.1964  0.0758  0.2688
    1DIPC   D2A19158   6.628   3.594   3.837 -0.0692  0.0922  0.5192
    1DIPC   D3A19159   6.570   3.476   4.153 -0.1399 -0.3749 -0.1565
    1DIPC   C4A19160   6.865   3.498   4.504 -0.0495  0.0515  0.1236
    1DIPC   C1B19161   6.095   3.242   3.413  0.0623 -0.0176 -0.3099
    1DIPC   D2B19162   5.669   3.263   3.323 -0.3038 -0.2822 -0.2471
    1DIPC   D3B19163   5.313   3.272   3.585  0.0155 -0.1034 -0.2717
    1DIPC   C4B19164   5.165   3.601   3.788 -0.0951 -0.0219 -0.0145
    1DIPC   NC319165   8.888  20.715   3.378 -0.1828  0.1922  0.0383
    1DIPC   PO419166   9.006  20.765   3.740 -0.1815 -0.0804 -0.1829
    1DIPC   GL119167   9.067  21.029   4.139  0.2689  0.0049  0.1249
    1DIPC   GL219168   9.439  20.985   4.256  0.3041  0.2497  0.2072
    1DIPC   C1A19169   9.035  21.187   4.584  0.0168  0.2363 -0.0432
    1DIPC   D2A19170   8.939  21.579   4.572 -0.3501  0.0761  0.0566
    1DIPC   D3A19171   9.003  21.857   4.874  0.2516 -0.0966 -0.0444
    1DIPC   C4A19172   8.985  21.763   5.402 -0.1926 -0.0633  0.1165
    1DIPC   C1B19173   9.475  21.016   4.684 -0.0182  0.4950 -0.0468
    1DIPC   D2B19174   9.766  20.999   4.963  0.0191  0.2400  0.2637
    1DIPC   D3B19175  10.195  21.024   4.753  0.2404 -0.2677 -0.2747
    1DIPC   C4B19176  10.127  21.041   4.312 -0.2286  0.2671 -0.1454
    1DIPC   NC319177   3.835  22.894   2.622  0.1403 -0.0627 -0.2003
    1DIPC   PO419178   3.607  23.171   2.474  0.2834 -0.2028 -0.4422
    1DIPC   GL119179   3.671  23.270   2.898  0.1083 -0.3205 -0.1206
    1DIPC   GL219180   3.359  23.164   3.063 -0.0087 -0.0013  0.0082
    1DIPC   C1A19181   3.845  23.255   3.301  0.1785  0.2207  0.3474
    1DIPC   D2A19182   3.746  22.999   3.587 -0.1455 -0.0782  0.0141
    1DIPC   D3A19183   3.672  23.288   3.982 -0.1639  0.0062  0.0277
    1DIPC   C4A19184   3.545  23.622   3.840 -0.0547  0.0068 -0.2279
    1DIPC   C1B19185   3.409  23.504   3.361  0.1332  0.0718 -0.2117
    1DIPC   D2B19186   3.229  23.795   3.499  0.0802 -0.2254 -0.1895
    1DIPC   D3B19187   2.928  23.579   3.773 -0.1153 -0.1183 -0.3005
    1DIPC   C4B19188   2.553  23.795   3.694  0.0638  0.0739 -0.0212
    1DIPC   NC319189  23.991  17.404   3.248 -0.1748  0.0674  0.0190
    1DIPC   PO419190  24.093  17.475   3.571 -0.2605 -0.1296 -0.0770
    1DIPC   GL119191  24.221  17.384   3.938 -0.0858  0.2922 -0.3878
    1DIPC   GL219192  24.313  17.682   4.078  0.2099  0.4363  0.0076
    1DIPC   C1A19193  24.371  17.121   4.272 -0.3410  0.0270  0.1105
    1DIPC   D2A19194  24.759  17.027   4.513 -0.2649 -0.2477 -0.0153
    1DIPC   D3A19195  24.535  17.311   4.707  0.2811  0.2169 -0.2534
    1DIPC   C4A19196  24.151  17.483   4.542 -0.0941 -0.0667 -0.0246
    1DIPC   C1B19197  23.818  17.645   4.162 -0.1449  0.0367 -0.1124
    1DIPC   D2B19198  23.455  17.590   4.444 -0.0523 -0.0867  0.0347
    1DIPC   D3B19199  23.715  17.619   4.676  0.0769  0.1238  0.1429
    1DIPC   C4B19200  23.722  17.334   4.915  0.0971 -0.2743 -0.0089
    1DIPC   NC319201  26.520  26.445   3.014  0.0615  0.1017  0.2338
    1DIPC   PO419202  26.809  26.643   3.237  0.0824  0.0293  0.1174
    1DIPC   GL119203  26.703  26.936   3.541 -0.2406 -0.2151  0.0833
    1DIPC   GL219204  26.385  26.855   3.384 -0.0569 -0.2997  0.1245
    1DIPC   C1A19205  26.776  26.790   4.041  0.2640 -0.4824 -0.0305
    1DIPC   D2A19206  26.945  26.976   4.403  0.1275  0.0242 -0.3242
    1DIPC   D3A19207  26.768  27.049   4.805 -0.1361  0.3178  0.2173
    1DIPC   C4A19208  26.368  27.297   4.761 -0.2033  0.5927  0.1131
    1DIPC   C1B19209  26.238  26.708   3.759  0.0199 -0.0239 -0.1381
    1DIPC   D2B19210  26.327  26.652   4.153 -0.1317 -0.1737  0.0329
    1DIPC   D3B19211  26.380  26.959   4.417 -0.3161 -0.2084 -0.0883
    1DIPC   C4B19212  26.091  27.266   4.378 -0.2891  0.2385  0.0324
    1DIPC   NC319213  22.841   4.576   2.704  0.1229  0.2140  0.0679
    1DIPC   PO419214  22.990   4.531   3.061 -0.0459  0.0184 -0.2274
    1DIPC   GL119215  23.002   4.703   3.468 -0.1630  0.2747  0.2791
    1DIPC   GL219216  23.216   5.019   3.599 -0.2228  0.1757 -0.0353
    1DIPC   C1A19217  22.791   4.746   3.939  0.0527  0.0988  0.1766
    1DIPC   D2A19218  22.747   4.670   4.401  0.1778 -0.1675 -0.0233
    1DIPC   D3A19219  22.394   4.375   4.423  0.0896 -0.0165  0.1228
    1DIPC   C4A19220  22.292   4.051   4.081 -0.0207  0.0700  0.0609
    1DIPC   C1B19221  23.021   5.201   3.899  0.3065 -0.0728 -0.4288
    1DIPC   D2B19222  22.757   5.190   4.307  0.2279 -0.1977  0.2241
    1DIPC   D3B19223  23.070   5.095   4.575 -0.1674 -0.0281  0.0699
    1DIPC   C4B19224  23.119   4.719   4.758 -0.0458 -0.0549 -0.1633
    1DIPC   NC319225  12.422  20.469   3.502  0.1142  0.0841  0.0131
    1DIPC   PO419226  12.656  20.099   3.700 -0.0058  0.2539 -0.1746
    1DIPC   GL119227  12.806  20.125   4.137 -0.1098 -0.1352  0.2466
    1DIPC   GL219228  12.950  20.398   4.089  0.1532 -0.0868 -0.0766
    1DIPC   C1A19229  12.832  20.127   4.558 -0.1374  0.2960 -0.2094
    1DIPC   D2A19230  13.055  20.215   4.951 -0.0187 -0.0444 -0.0953
    1DIPC   D3A19231  12.608  20.052   5.013 -0.2509 -0.2798 -0.0474
    1DIPC   C4A19232  12.792  19.650   5.139  0.0878  0.0237  0.0962
    1DIPC   C1B19233  13.225  20.335   4.362 -0.0392  0.0947  0.2378
    1DIPC   D2B19234  13.570  20.399   4.677  0.1318 -0.0606  0.2877
    1DIPC   D3B19235  13.584  20.075   4.987  0.0360  0.1443 -0.0089
    1DIPC   C4B19236  14.021  19.919   5.108 -0.1671  0.1422  0.2451
    1DIPC   NC319237  25.178   0.806   3.042 -0.0005  0.3428  0.1920
    1DIPC   PO419238  25.130   1.077   3.437  0.2430 -0.1281 -0.0033
    1DIPC   GL119239  25.311   1.101   3.785  0.0752  0.1753  0.1081
    1DIPC   GL219240  25.027   1.105   4.004  0.0304  0.4690  0.3335
    1DIPC   C1A19241  25.347   1.554   3.996 -0.0164 -0.0051  0.1300
    1DIPC   D2A19242  25.081   1.916   3.898  0.0073 -0.1472  0.2159
    1DIPC   D3A19243  25.041   1.807   4.376  0.0923  0.0020 -0.2850
    1DIPC   C4A19244  25.310   1.498   4.483 -0.3113 -0.1005  0.2706
    1DIPC   C1B19245  24.924   1.295   4.322 -0.1402  0.2548  0.1655
    1DIPC   D2B19246  24.707   1.145   4.602 -0.3001 -0.2954  0.2786
    1DIPC   D3B19247  24.955   1.479   4.868 -0.1964 -0.0177  0.1046
    1DIPC   C4B19248  25.365   1.349   4.984  0.4332  0.1482 -0.2159
    1DIPC   NC319249  10.044   9.548   3.389  0.2062  0.0725  0.2271
    1DIPC   PO419250   9.942   9.167   3.160  0.3878  0.1116  0.0468
    1DIPC   GL119251   9.992   9.074   3.590 -0.3184  0.2449  0.1228
    1DIPC   GL219252  10.271   9.284   3.736 -0.2114 -0.2206  0.0441
    1DIPC   C1A19253  10.108   8.921   4.003 -0.0459  0.1562  0.1521
    1DIPC   D2A19254  10.142   9.156   4.417  0.1405 -0.3816 -0.2413
    1DIPC   D3A19255  10.508   9.266   4.717 -0.1105 -0.1414  0.2478
    1DIPC   C4A19256  10.735   8.975   4.831  0.0093 -0.2257 -0.3386
    1DIPC   C1B19257  10.183   9.570   3.994 -0.1139 -0.1596  0.0032
    1DIPC   D2B19258  10.333   9.687   4.424 -0.0941 -0.0728 -0.1974
    1DIPC   D3B19259  10.580   9.323   4.168 -0.0357  0.0188  0.0198
    1DIPC   C4B19260  10.559   8.931   4.363  0.0258 -0.0061  0.3206
    1DIPC   NC319261  18.505  22.686   3.145 -0.2337 -0.1277 -0.1578
    1DIPC   PO419262  18.797  22.298   3.215 -0.0085 -0.0988 -0.1285
    1DIPC   GL119263  18.678  22.327   3.598 -0.0421 -0.0832 -0.4039
    1DIPC   GL219264  18.770  22.103   3.844  0.0897 -0.2397 -0.0818
    1DIPC   C1A19265  18.601  22.549   4.049 -0.1584  0.3029  0.0691
    1DIPC   D2A19266  18.603  22.587   4.460 -0.0500  0.0145 -0.0399
    1DIPC   D3A19267  18.459  22.372   4.718  0.0698  0.0285 -0.1429
    1DIPC   C4A19268  18.379  22.372   5.151 -0.0890 -0.1663  0.0288
    1DIPC   C1B19269  18.377  22.129   3.983 -0.0373 -0.0405  0.1905
    1DIPC   D2B19270  18.115  22.218   4.265 -0.2107 -0.4338 -0.2802
    1DIPC   D3B19271  18.048  22.098   4.538  0.1918  0.1978  0.0136
    1DIPC   C4B19272  17.967  22.331   4.905  0.2441  0.0865  0.0369
    1DIPC   NC319273   9.780  18.185   3.520  0.0128 -0.0830 -0.0325
    1DIPC   PO419274  10.105  18.461   3.620  0.1437 -0.1534 -0.0518
    1DIPC   GL119275   9.916  18.606   3.913  0.1521 -0.5545  0.1666
    1DIPC   GL219276   9.787  18.250   4.054  0.1680 -0.2629 -0.1415
    1DIPC   C1A19277   9.800  18.753   4.269 -0.0090 -0.0346  0.0507
    1DIPC   D2A19278   9.771  19.112   4.641  0.2159  0.4551  0.2563
    1DIPC   D3A19279   9.728  19.260   4.945 -0.0805  0.0012 -0.1085
    1DIPC   C4A19280   9.458  19.081   5.299 -0.3895 -0.0023  0.1521
    1DIPC   C1B19281   9.855  18.256   4.512 -0.1829 -0.2588 -0.2760
    1DIPC   D2B19282   9.606  18.000   4.907 -0.1524  0.0610  0.0580
    1DIPC   D3B19283   9.945  18.279   4.998  0.1467  0.1203  0.0711
    1DIPC   C4B19284  10.005  18.363   5.363  0.0928  0.0810 -0.1222
    1DIPC   NC319285  13.101  19.121   3.426  0.1103  0.2927 -0.2388
    1DIPC   PO419286  13.218  19.596   3.349 -0.0588 -0.0825  0.0180
    1DIPC   GL119287  13.175  19.508   3.803  0.0841  0.1697 -0.0673
    1DIPC   GL219288  13.063  19.263   3.905 -0.1172 -0.0011  0.0388
    1DIPC   C1A19289  13.003  19.654   4.123  0.0621 -0.1090 -0.0406
    1DIPC   D2A19290  12.817  19.625   4.517  0.2790 -0.0410 -0.0401
    1DIPC   D3A19291  12.428  19.326   4.421 -0.0208  0.0174 -0.2091
    1DIPC   C4A19292  12.014  19.390   4.554  0.1309 -0.3738  0.1379
    1DIPC   C1B19293  12.952  19.166   4.427 -0.1164 -0.1083  0.0863
    1DIPC   D2B19294  12.648  18.835   4.648 -0.1455 -0.3246  0.0185
    1DIPC   D3B19295  12.665  19.176   4.882  0.1222  0.4642  0.0426
    1DIPC   C4B19296  12.896  19.146   5.330  0.0982 -0.1450 -0.0727
    1DIPC   NC319297   7.960  12.631   3.708  0.0555  0.0838 -0.1625
    1DIPC   PO419298   8.026  12.184   3.751  0.1678 -0.1523 -0.0630
    1DIPC   GL119299   8.099  12.285   4.154 -0.0797  0.2003 -0.2734
    1DIPC   GL219300   8.145  12.564   4.247 -0.0582 -0.1181 -0.1896
    1DIPC   C1A19301   8.104  12.117   4.580 -0.1299 -0.1647  0.1923
    1DIPC   D2A19302   8.276  11.826   4.861 -0.6248 -0.0580  0.1619
    1DIPC   D3A19303   8.636  12.126   4.835  0.1218  0.1506  0.0426
    1DIPC   C4A19304   8.985  11.936   4.820 -0.2888 -0.0421 -0.1397
    1DIPC   C1B19305   7.903  12.939   4.349 -0.3075  0.1146  0.0999
    1DIPC   D2B19306   7.926  13.140   4.674 -0.2011  0.0656  0.0324
    1DIPC   D3B19307   7.946  12.937   5.001  0.2231 -0.3700  0.0867
    1DIPC   C4B19308   8.364  12.874   5.177 -0.0323  0.2730 -0.0006
    1DIPC   NC319309  21.341   6.463   2.685  0.0747 -0.0349  0.2087
    1DIPC   PO419310  21.291   6.680   3.060  0.0331 -0.0052  0.0170
    1DIPC   GL119311  21.312   6.708   3.513  0.0510 -0.0988 -0.1213
    1DIPC   GL219312  21.519   6.897   3.679  0.1038  0.2157  0.0789
    1DIPC   C1A19313  21.299   6.374   3.714 -0.0359  0.0615 -0.0881
    1DIPC   D2A19314  21.418   5.975   3.740  0.1786 -0.1757  0.3554
    1DIPC   D3A19315  21.336   5.886   4.121  0.0736 -0.3692 -0.4515
    1DIPC   C4A19316  21.717   5.714   4.401 -0.2071  0.3565  0.1122
    1DIPC   C1B19317  21.494   6.556   4.090  0.4278  0.0241 -0.0842
    1DIPC   D2B19318  21.487   6.286   4.321 -0.1857  0.0221 -0.1918
    1DIPC   D3B19319  21.145   6.364   4.592  0.2409  0.1416 -0.0638
    1DIPC   C4B19320  21.158   6.665   4.848 -0.1947 -0.0916 -0.0801
    1DIPC   NC319321  27.363  20.368   2.719  0.0097 -0.0835 -0.1251
    1DIPC   PO419322  27.766  20.590   2.853 -0.0274  0.0076  0.2485
    1DIPC   GL119323  27.682  20.735   3.232  0.0568 -0.1589 -0.1748
    1DIPC   GL219324  27.943  20.600   3.358  0.0178 -0.3378 -0.1629
    1DIPC   C1A19325  27.453  20.487   3.555  0.0139  0.0818  0.0295
    1DIPC   D2A19326  27.213  20.357   3.883  0.5426 -0.0962  0.1199
    1DIPC   D3A19327  27.086  20.238   4.291  0.0207 -0.1135 -0.3600
    1DIPC   C4A19328  27.251  20.264   4.738  0.0725  0.1027  0.3829
    1DIPC   C1B19329  27.922  20.751   3.733  0.0582 -0.2780 -0.1302
    1DIPC   D2B19330  28.035  20.826   4.136 -0.3267 -0.1824 -0.0401
    1DIPC   D3B19331  27.838  20.659   4.362 -0.1175 -0.0966  0.1001
    1DIPC   C4B19332  27.605  20.811   4.634  0.1358 -0.0676  0.0693
    1DIPC   NC319333  12.766  21.743   3.422 -0.0881  0.0481 -0.0271
    1DIPC   PO419334  13.265  21.829   3.316 -0.2367 -0.2531 -0.1517
    1DIPC   GL119335  13.465  22.066   3.640  0.0039  0.0027 -0.0312
    1DIPC   GL219336  13.771  21.839   3.579 -0.1682 -0.4401  0.0009
    1DIPC   C1A19337  13.463  22.108   4.087 -0.1939 -0.1168 -0.1952
    1DIPC   D2A19338  13.607  21.940   4.443 -0.1603 -0.1044 -0.0060
    1DIPC   D3A19339  13.415  21.834   4.763  0.0679  0.0229  0.4772
    1DIPC   C4A19340  13.099  22.129   5.036 -0.1321  0.1755 -0.4277
    1DIPC   C1B19341  13.791  21.571   3.950  0.2883 -0.0360  0.0828
    1DIPC   D2B19342  13.622  21.356   4.404 -0.3244 -0.1776 -0.1601
    1DIPC   D3B19343  13.616  21.325   4.895  0.3522  0.1318  0.1867
    1DIPC   C4B19344  13.316  21.171   5.154  0.0799  0.2061  0.0456
    1DIPC   NC319345  21.968  13.806   3.158 -0.0826  0.0108  0.1314
    1DIPC   PO419346  22.005  14.305   3.075 -0.3101 -0.2852  0.2946
    1DIPC   GL119347  21.725  14.107   3.496 -0.1261 -0.1512  0.4713
    1DIPC   GL219348  21.422  14.275   3.564 -0.1831  0.1509  0.0139
    1DIPC   C1A19349  21.899  14.243   3.774  0.2424 -0.0451  0.0275
    1DIPC   D2A19350  22.268  14.272   4.016 -0.2615 -0.1671  0.3155
    1DIPC   D3A19351  22.100  14.586   4.298  0.1658 -0.1615  0.3187
    1DIPC   C4A19352  22.283  14.557   4.729  0.1342  0.0564  0.3429
    1DIPC   C1B19353  21.146  14.198   3.950 -0.0331  0.2060 -0.2214
    1DIPC   D2B19354  21.124  14.040   4.415  0.1950 -0.0943 -0.1277
    1DIPC   D3B19355  21.183  14.292   4.815 -0.1206  0.1927 -0.1054
    1DIPC   C4B19356  21.510  14.423   5.067 -0.0916 -0.1351 -0.1418
    1DIPC   NC319357  14.717  19.444   2.978  0.0714  0.0592  0.2062
    1DIPC   PO419358  14.563  19.240   3.280  0.1767  0.0139 -0.3438
    1DIPC   GL119359  14.159  19.316   3.567  0.0611  0.0886 -0.3578
    1DIPC   GL219360  14.199  19.676   3.733 -0.0950  0.1709  0.0334
    1DIPC   C1A19361  13.960  19.164   3.977 -0.0962  0.1806 -0.0065
    1DIPC   D2A19362  14.005  19.167   4.345  0.1412 -0.4411 -0.0075
    1DIPC   D3A19363  13.724  19.099   4.641 -0.1570 -0.1468 -0.3277
    1DIPC   C4A19364  13.323  18.878   4.526  0.0616  0.1397  0.0641
    1DIPC   C1B19365  14.148  19.842   4.219  0.0230  0.1303  0.0156
    1DIPC   D2B19366  14.202  20.002   4.615  0.4076  0.2629  0.1001
    1DIPC   D3B19367  13.861  19.595   4.658  0.4085 -0.2388 -0.0257
    1DIPC   C4B19368  13.636  19.617   4.994 -0.0385  0.0843 -0.0481
    1DIPC   NC319369  11.997  21.693   3.644 -0.1851  0.1509  0.2697
    1DIPC   PO419370  12.013  22.191   3.439  0.4359  0.1202  0.1301
    1DIPC   GL119371  12.091  22.230   3.862 -0.2304  0.1081 -0.0459
    1DIPC   GL219372  11.694  21.987   3.971 -0.0998 -0.3054 -0.1984
    1DIPC   C1A19373  12.407  22.250   4.217 -0.0525 -0.1452  0.2205
    1DIPC   D2A19374  12.623  21.887   4.334 -0.1272  0.2020  0.0979
    1DIPC   D3A19375  12.922  21.715   4.786  0.1904  0.2019 -0.1339
    1DIPC   C4A19376  12.725  21.794   5.191 -0.2749  0.0419  0.0765
    1DIPC   C1B19377  11.896  22.196   4.345 -0.0038  0.0715  0.1874
    1DIPC   D2B19378  12.235  22.006   4.633  0.0402 -0.1151  0.2505
    1DIPC   D3B19379  11.954  22.359   4.873  0.1802  0.0287 -0.1989
    1DIPC   C4B19380  11.713  22.643   4.583 -0.2114 -0.0394 -0.3995
    1DIPC   NC319381  20.410  20.866   3.272  0.5260  0.1103 -0.0225
    1DIPC   PO419382  20.226  20.745   3.693 -0.0527 -0.0918 -0.1791
    1DIPC   GL119383  20.371  20.674   4.052 -0.2226 -0.1179  0.0467
    1DIPC   GL219384  20.413  21.007   4.169 -0.0234  0.0572 -0.0978
    1DIPC   C1A19385  20.380  20.597   4.476  0.1585  0.2786  0.1890
    1DIPC   D2A19386  20.516  20.632   4.915  0.1392 -0.2211  0.0499
    1DIPC   D3A19387  20.622  20.657   5.255  0.2307  0.0375 -0.1532
    1DIPC   C4A19388  20.586  21.084   5.453 -0.1122  0.0559  0.0665
    1DIPC   C1B19389  20.584  21.033   4.632  0.0314  0.0620  0.0543
    1DIPC   D2B19390  20.832  21.078   4.888  0.1921  0.2814  0.2877
    1DIPC   D3B19391  20.826  21.452   4.947  0.1514  0.1209 -0.2646
    1DIPC   C4B19392  21.220  21.573   5.080 -0.0715 -0.2060  0.4976
    1DIPC   NC319393   3.902   4.839   1.806  0.0369 -0.0679 -0.1881
    1DIPC   PO419394   3.429   4.830   1.701  0.1176 -0.0702  0.0204
    1DIPC   GL119395   3.202   4.769   2.188  0.0165 -0.0195  0.0447
    1DIPC   GL219396   2.962   4.988   1.966 -0.0493 -0.3701 -0.1728
    1DIPC   C1A19397   3.066   4.536   2.533  0.0183 -0.1184  0.1221
    1DIPC   D2A19398   3.092   4.350   2.940 -0.3226 -0.0741  0.0018
    1DIPC   D3A19399   3.394   4.567   3.101 -0.2416  0.0534 -0.0170
    1DIPC   C4A19400   3.692   4.403   3.407 -0.2377 -0.0317  0.1335
    1DIPC   C1B19401   2.737   4.639   2.141  0.3410 -0.2470 -0.1800
    1DIPC   D2B19402   2.428   4.243   2.233  0.0664 -0.3196 -0.0204
    1DIPC   D3B19403   2.582   4.530   2.627 -0.1097  0.0370  0.1022
    1DIPC   C4B19404   2.471   4.675   2.992 -0.1596 -0.1361 -0.0832
    1DIPC   NC319405  18.491  15.294   3.636  0.0352 -0.2898  0.0525
    1DIPC   PO419406  18.228  14.986   3.671  0.1199  0.0746 -0.3411
    1DIPC   GL119407  18.368  15.039   4.037 -0.2756 -0.3140  0.2490
    1DIPC   GL219408  18.452  14.676   4.172 -0.1506 -0.0194 -0.3277
    1DIPC   C1A19409  18.486  15.383   4.253 -0.1175  0.0050 -0.0777
    1DIPC   D2A19410  18.812  15.608   4.323 -0.0132 -0.0850  0.1581
    1DIPC   D3A19411  18.960  15.941   4.562  0.1968 -0.0680 -0.2447
    1DIPC   C4A19412  18.814  16.270   4.471 -0.0063 -0.0481 -0.1350
    1DIPC   C1B19413  18.581  14.235   4.058 -0.2863 -0.0303  0.0642
    1DIPC   D2B19414  18.716  13.954   4.319  0.0286  0.2145  0.4033
    1DIPC   D3B19415  18.548  13.997   4.664 -0.2020 -0.1008  0.1347
    1DIPC   C4B19416  18.618  13.857   5.101 -0.1410 -0.0370 -0.1652
    1DIPC   NC319417  13.518   2.599   3.705 -0.0043  0.0416 -0.1340
    1DIPC   PO419418  13.984   2.494   3.665 -0.1671  0.0198 -0.0880
    1DIPC   GL119419  13.868   2.369   4.022  0.1400  0.0888  0.2246
    1DIPC   GL219420  13.898   2.173   4.189  0.1034 -0.0238  0.1447
    1DIPC   C1A19421  13.732   2.574   4.409  0.0158 -0.0215 -0.3184
    1DIPC   D2A19422  13.737   2.601   4.844 -0.1823  0.1490 -0.1969
    1DIPC   D3A19423  13.671   2.348   5.216  0.1540 -0.0794 -0.2171
    1DIPC   C4A19424  13.814   2.421   5.642  0.3413 -0.0466 -0.3211
    1DIPC   C1B19425  13.709   2.094   4.650 -0.3628  0.1097  0.2624
    1DIPC   D2B19426  13.770   1.846   4.938 -0.0480  0.1111  0.2332
    1DIPC   D3B19427  14.097   1.713   4.575 -0.1055 -0.0192  0.0080
    1DIPC   C4B19428  14.550   1.529   4.628  0.0027 -0.2335 -0.0643
    1DIPC   NC319429  15.389   1.199   3.867 -0.2293 -0.1165 -0.0829
    1DIPC   PO419430  15.263   1.608   3.933 -0.1178  0.0776  0.1295
    1DIPC   GL119431  15.267   1.469   4.308 -0.2225 -0.2293  0.0947
    1DIPC   GL219432  15.535   1.330   4.380  0.2463 -0.0482  0.0958
    1DIPC   C1A19433  15.108   1.592   4.663 -0.0778  0.1602  0.2309
    1DIPC   D2A19434  15.230   1.753   5.137 -0.0165  0.2940  0.0811
    1DIPC   D3A19435  15.428   1.985   5.480 -0.1740  0.0972 -0.0342
    1DIPC   C4A19436  15.383   2.509   5.475 -0.1229 -0.1914  0.1185
    1DIPC   C1B19437  15.790   1.185   4.778  0.0284 -0.1832  0.0242
    1DIPC   D2B19438  15.854   1.465   5.200  0.0797 -0.2565  0.0098
    1DIPC   D3B19439  15.573   1.469   5.518 -0.2212 -0.2413  0.2748
    1DIPC   C4B19440  15.798   1.332   5.962  0.1364 -0.0624 -0.2848
    1DIPC   NC319441  14.064  27.082   3.217 -0.0036 -0.0259 -0.0823
    1DIPC   PO419442  14.358  26.831   3.453  0.2133  0.0209 -0.2527
    1DIPC   GL119443  14.325  26.901   3.882  0.1554  0.2703  0.3411
    1DIPC   GL219444  14.638  27.040   3.863 -0.1592  0.1696  0.0188
    1DIPC   C1A19445  14.263  26.849   4.289 -0.1985  0.1543 -0.0402
    1DIPC   D2A19446  13.941  26.735   4.645 -0.0733 -0.2246 -0.1858
    1DIPC   D3A19447  13.484  26.859   4.435 -0.4207  0.0480 -0.1242
    1DIPC   C4A19448  13.229  26.928   4.747  0.1197 -0.1453 -0.1108
    1DIPC   C1B19449  14.847  27.048   4.278 -0.0212 -0.3541  0.0689
    1DIPC   D2B19450  14.846  27.238   4.666 -0.1687  0.0159  0.3743
    1DIPC   D3B19451  14.812  27.081   5.009 -0.1075 -0.0171 -0.1300
    1DIPC   C4B19452  14.985  26.663   5.138 -0.4406 -0.1375  0.2232
    1DIPC   NC319453  20.125  21.314   3.850  0.2454 -0.2450 -0.1978
    1DIPC   PO419454  20.547  21.312   3.663 -0.3248  0.1831 -0.0501
    1DIPC   GL119455  20.492  21.564   4.058  0.2048 -0.2848  0.0930
    1DIPC   GL219456  20.177  21.780   4.078  0.2274 -0.0521 -0.0165
    1DIPC   C1A19457  20.556  21.547   4.542 -0.2001  0.2511 -0.1522
    1DIPC   D2A19458  20.261  21.426   4.765  0.5662 -0.0880 -0.2208
    1DIPC   D3A19459  20.061  21.105   4.466  0.4966  0.1923 -0.3233
    1DIPC   C4A19460  19.705  20.989   4.654 -0.2236  0.0187 -0.2332
    1DIPC   C1B19461  20.284  21.918   4.464  0.3082 -0.0355 -0.2144
    1DIPC   D2B19462  20.372  22.287   4.635  0.0002  0.1161 -0.1786
    1DIPC   D3B19463  19.999  22.523   4.750 -0.1519  0.0808  0.1015
    1DIPC   C4B19464  20.108  22.986   4.983  0.2454 -0.3348  0.0813
    1DIPC   NC319465  22.280   5.320   2.952  0.3285 -0.0288 -0.2575
    1DIPC   PO419466  22.724   5.262   2.871 -0.0808  0.3213 -0.0274
    1DIPC   GL119467  22.708   5.381   3.303  0.0520  0.0943 -0.0883
    1DIPC   GL219468  22.725   5.134   3.459 -0.0633  0.2865 -0.0686
    1DIPC   C1A19469  22.518   5.641   3.659  0.1527 -0.2469  0.2512
    1DIPC   D2A19470  22.196   5.610   4.041  0.1358  0.1585  0.1388
    1DIPC   D3A19471  22.363   5.504   4.407 -0.1115 -0.0550 -0.0843
    1DIPC   C4A19472  22.165   5.672   4.789  0.0895 -0.0765 -0.2266
    1DIPC   C1B19473  22.490   5.148   3.902 -0.2990 -0.1138 -0.1472
    1DIPC   D2B19474  22.316   4.971   4.347 -0.0268 -0.2391 -0.1647
    1DIPC   D3B19475  22.440   5.087   4.736  0.2736 -0.1709 -0.0832
    1DIPC   C4B19476  22.445   4.678   4.866 -0.0560 -0.0036 -0.2099
    1DIPC   NC319477   8.247  11.178   3.439 -0.1567 -0.1942 -0.1523
    1DIPC   PO419478   8.590  11.103   3.637 -0.0358 -0.0170 -0.0336
    1DIPC   GL119479   8.849  11.039   3.935  0.0562  0.0084  0.4198
    1DIPC   GL219480   9.207  11.208   3.940  0.0388  0.0347 -0.1261
    1DIPC   C1A19481   8.944  10.748   4.222 -0.1054 -0.1875  0.3945
    1DIPC   D2A19482   9.022  10.660   4.651 -0.1684  0.1139  0.0265
    1DIPC   D3A19483   9.277  10.995   4.503  0.2852 -0.0116 -0.0652
    1DIPC   C4A19484   8.928  11.224   4.390  0.0264  0.5548 -0.1247
    1DIPC   C1B19485   9.362  10.841   3.992  0.2564  0.0082  0.0439
    1DIPC   D2B19486   9.541  10.505   4.149 -0.0729 -0.2408  0.0694
    1DIPC   D3B19487   9.496  10.469   4.524 -0.1943  0.0621 -0.3407
    1DIPC   C4B19488   9.606  10.806   4.889  0.2275 -0.1510  0.1078
    1DIPC   NC319489  25.068   4.426   2.980  0.2969  0.0451  0.2075
    1DIPC   PO419490  24.583   4.474   2.833  0.1206  0.1097 -0.1898
    1DIPC   GL119491  24.383   4.333   3.161  0.2413 -0.2040 -0.0460
    1DIPC   GL219492  24.140   4.354   3.425 -0.0674 -0.0047  0.1106
    1DIPC   C1A19493  24.546   4.112   3.570  0.1144  0.2089 -0.0045
    1DIPC   D2A19494  24.549   4.322   4.000 -0.1828  0.0511 -0.0587
    1DIPC   D3A19495  24.407   4.165   4.378  0.3002  0.0984  0.1081
    1DIPC   C4A19496  24.626   3.841   4.568  0.0113  0.0413 -0.0569
    1DIPC   C1B19497  24.338   4.577   3.636 -0.1136 -0.4116 -0.0793
    1DIPC   D2B19498  24.344   4.796   4.040 -0.0979  0.2867  0.2138
    1DIPC   D3B19499  24.740   4.737   4.303  0.1257  0.0412  0.1098
    1DIPC   C4B19500  24.802   4.619   4.674 -0.1362  0.4969  0.0019
    1DIPC   NC319501  22.641  24.932   3.724 -0.1440  0.1069  0.2076
    1DIPC   PO419502  22.576  24.478   3.687  0.0300 -0.0419 -0.0646
    1DIPC   GL119503  22.542  24.604   4.082  0.2599  0.1880  0.1007
    1DIPC   GL219504  22.451  24.973   4.217  0.0358 -0.0867  0.2119
    1DIPC   C1A19505  22.805  24.472   4.409  0.1242  0.1589  0.0458
    1DIPC   D2A19506  22.895  24.237   4.712  0.0678  0.1311 -0.0728
    1DIPC   D3A19507  23.112  24.532   5.108  0.4109  0.1327  0.2799
    1DIPC   C4A19508  23.062  24.937   5.205 -0.0210  0.2906  0.2888
    1DIPC   C1B19509  22.236  25.000   4.661  0.0991  0.1193 -0.2156
    1DIPC   D2B19510  21.929  24.966   4.941  0.2019  0.0429  0.0539
    1DIPC   D3B19511  21.415  24.851   4.910  0.3993  0.3149 -0.2701
    1DIPC   C4B19512  21.200  24.584   4.608 -0.0411 -0.1203 -0.1016
    1DIPC   NC319513   4.053   7.624   2.636 -0.0120 -0.0283  0.2521
    1DIPC   PO419514   4.316   7.479   2.903  0.2396 -0.0764  0.4376
    1DIPC   GL119515   4.309   7.378   3.349  0.1112  0.0258  0.0058
    1DIPC   GL219516   3.965   7.321   3.398 -0.0645  0.0453 -0.1017
    1DIPC   C1A19517   4.550   7.025   3.529  0.3727 -0.0883  0.0430
    1DIPC   D2A19518   4.307   6.613   3.627 -0.0478 -0.1967  0.1627
    1DIPC   D3A19519   4.508   6.458   4.047 -0.2402  0.3221 -0.2530
    1DIPC   C4A19520   4.818   6.687   4.160 -0.2081  0.0442 -0.3958
    1DIPC   C1B19521   3.980   7.005   3.190  0.3521  0.0192  0.0337
    1DIPC   D2B19522   4.368   6.845   3.079 -0.0647 -0.1784 -0.1861
    1DIPC   D3B19523   4.353   6.438   3.155  0.0153 -0.0116 -0.1293
    1DIPC   C4B19524   4.306   6.048   2.822  0.1118 -0.0201 -0.0853
    1DIPC   NC319525   6.807  17.289   3.754 -0.6007  0.0443 -0.1248
    1DIPC   PO419526   6.366  17.358   3.840  0.0850 -0.0978 -0.0562
    1DIPC   GL119527   6.467  17.441   4.306 -0.0834 -0.0986  0.0239
    1DIPC   GL219528   6.295  17.675   4.285 -0.2080  0.0988 -0.1829
    1DIPC   C1A19529   6.240  17.324   4.645  0.2726  0.1737 -0.1968
    1DIPC   D2A19530   5.964  16.977   4.685  0.1242  0.0379 -0.3318
    1DIPC   D3A19531   6.445  16.921   4.691 -0.3115 -0.2852 -0.1974
    1DIPC   C4A19532   6.574  16.513   4.883 -0.0156  0.0723  0.1752
    1DIPC   C1B19533   5.982  17.745   4.544  0.2351  0.4167 -0.1184
    1DIPC   D2B19534   5.754  17.481   4.743 -0.0857  0.0772  0.1978
    1DIPC   D3B19535   5.947  17.429   5.131 -0.1480 -0.0465 -0.2802
    1DIPC   C4B19536   5.702  17.084   5.296  0.1035  0.0669 -0.1592
    1DIPC   NC319537  12.059  19.716   2.780 -0.2005 -0.0228  0.2218
    1DIPC   PO419538  12.050  19.656   3.206  0.3361 -0.4541 -0.0949
    1DIPC   GL119539  11.736  19.576   3.600  0.2316 -0.1993 -0.0062
    1DIPC   GL219540  11.557  19.812   3.860  0.1566 -0.1528  0.1276
    1DIPC   C1A19541  11.569  19.377   4.026 -0.2356  0.1589  0.0032
    1DIPC   D2A19542  11.510  19.415   4.488  0.0560  0.1459  0.0346
    1DIPC   D3A19543  11.677  19.115   4.786  0.1397  0.1004 -0.0231
    1DIPC   C4A19544  11.783  19.129   5.134  0.0273  0.0290 -0.4985
    1DIPC   C1B19545  11.317  19.788   4.246  0.4164  0.1851  0.0500
    1DIPC   D2B19546  11.216  19.799   4.701 -0.0878  0.0106 -0.0283
    1DIPC   D3B19547  11.341  19.498   4.996 -0.1745  0.1443  0.1380
    1DIPC   C4B19548  11.408  19.588   5.364  0.3941  0.0242  0.0803
    1DIPC   NC319549  27.796  27.867   2.395  0.2860 -0.3316 -0.2653
    1DIPC   PO419550   0.016  28.019   2.631 -0.3463 -0.0117  0.0399
    1DIPC   GL119551  27.970  27.903   3.041  0.3005  0.1909 -0.0709
    1DIPC   GL219552  28.048   0.028   3.307  0.0805  0.0155 -0.3546
    1DIPC   C1A19553  27.741  27.583   3.255  0.2060 -0.0856  0.1553
    1DIPC   D2A19554  27.678  27.202   3.460  0.0488 -0.1035  0.1226
    1DIPC   D3A19555  28.005  27.036   3.721 -0.1231 -0.1035  0.2141
    1DIPC   C4A19556  27.916  26.878   4.062 -0.3257  0.0182 -0.1962
    1DIPC   C1B19557  27.866   0.331   3.577 -0.0196 -0.0235 -0.0133
    1DIPC   D2B19558  27.745   0.735   3.545 -0.1431  0.2533 -0.2558
    1DIPC   D3B19559  27.410   0.932   3.370 -0.2052 -0.0262 -0.2146
    1DIPC   C4B19560  27.059   1.219   3.514 -0.1177  0.1162 -0.0900
    1DIPC   NC319561  16.340  22.107   3.050  0.2064 -0.2511 -0.1012
    1DIPC   PO419562  16.797  22.017   3.362 -0.1468  0.2365 -0.1715
    1DIPC   GL119563  17.001  21.997   3.704 -0.0925  0.2269 -0.4354
    1DIPC   GL219564  17.200  22.278   3.806  0.0396  0.0421 -0.1840
    1DIPC   C1A19565  17.131  21.830   4.004 -0.1127  0.3089  0.0607
    1DIPC   D2A19566  17.058  21.811   4.426 -0.1168 -0.0863 -0.1228
    1DIPC   D3A19567  17.274  22.118   4.478  0.0127  0.1262  0.2706
    1DIPC   C4A19568  17.250  22.522   4.588  0.1342  0.0211 -0.1349
    1DIPC   C1B19569  17.520  22.313   4.100 -0.3998  0.0155 -0.2035
    1DIPC   D2B19570  17.733  22.523   4.458  0.1439  0.3352  0.0583
    1DIPC   D3B19571  18.111  22.726   4.427 -0.1428 -0.3605 -0.1637
    1DIPC   C4B19572  18.224  22.788   4.802  0.0794  0.1584 -0.1354
    1DIPC   NC319573   6.466  25.781   2.741  0.0038 -0.0379 -0.2133
    1DIPC   PO419574   6.076  25.940   2.905  0.1142 -0.1677 -0.2029
    1DIPC   GL119575   5.986  25.907   3.249  0.0554  0.0811 -0.0818
    1DIPC   GL219576   6.277  25.682   3.271 -0.0477 -0.0675  0.0127
    1DIPC   C1A19577   6.003  26.000   3.677 -0.1785 -0.1986  0.0412
    1DIPC   D2A19578   6.036  25.810   3.978 -0.1540  0.0925 -0.1663
    1DIPC   D3A19579   6.054  26.083   4.352 -0.0148 -0.0188 -0.0441
    1DIPC   C4A19580   6.387  25.973   4.747 -0.2541  0.2690 -0.2763
    1DIPC   C1B19581   6.236  25.514   3.603  0.0263 -0.0390 -0.0924
    1DIPC   D2B19582   6.011  25.128   3.705  0.0405  0.0159 -0.4138
    1DIPC   D3B19583   6.229  25.285   4.114 -0.0850 -0.2634 -0.0913
    1DIPC   C4B19584   6.337  25.654   4.381 -0.2365 -0.2746  0.1722
    1DIPC   NC319585   3.425  20.375   3.082 -0.1148  0.1287  0.2404
    1DIPC   PO419586   3.163  20.566   3.304 -0.1668  0.3034  0.0682
    1DIPC   GL119587   3.059  20.544   3.725 -0.0751 -0.1258  0.0600
    1DIPC   GL219588   3.212  20.322   3.909 -0.1909  0.3076  0.1495
    1DIPC   C1A19589   2.737  20.352   4.031 -0.0377 -0.1316 -0.0365
    1DIPC   D2A19590   2.349  20.472   4.306  0.2743 -0.0527  0.1721
    1DIPC   D3A19591   2.469  20.595   4.652 -0.2030 -0.3714 -0.1639
    1DIPC   C4A19592   2.561  20.377   4.996 -0.2748 -0.1092  0.1130
    1DIPC   C1B19593   3.569  20.007   4.215 -0.0771  0.1696  0.0936
    1DIPC   D2B19594   3.793  19.622   4.434 -0.3854  0.0619 -0.4571
    1DIPC   D3B19595   3.442  19.436   4.739 -0.3093 -0.0181  0.0574
    1DIPC   C4B19596   3.208  19.610   5.093 -0.1335  0.0163 -0.0175
    1DIPC   NC319597  17.273  12.526   3.610 -0.3365  0.4030  0.2852
    1DIPC   PO419598  17.455  12.936   3.742  0.0939 -0.3428 -0.0453
    1DIPC   GL119599  17.573  12.886   4.244  0.0536 -0.0395 -0.0815
    1DIPC   GL219600  17.447  12.559   4.435  0.0732 -0.1420  0.0769
    1DIPC   C1A19601  17.628  13.097   4.532  0.0153 -0.1760  0.3570
    1DIPC   D2A19602  17.981  13.228   4.743  0.0392  0.0219  0.0157
    1DIPC   D3A19603  17.729  13.051   5.021 -0.0313 -0.1950 -0.1663
    1DIPC   C4A19604  17.377  12.936   5.296 -0.0469 -0.2471 -0.0599
    1DIPC   C1B19605  17.548  12.555   4.921 -0.1569  0.0729  0.2502
    1DIPC   D2B19606  17.570  12.351   5.356 -0.2884 -0.2447  0.2528
    1DIPC   D3B19607  17.399  12.641   5.646  0.0730  0.4956  0.0262
    1DIPC   C4B19608  17.615  12.954   5.937  0.0257 -0.0225 -0.1251
    1DIPC   NC319609  15.864  18.965   3.551 -0.0737 -0.0208 -0.1344
    1DIPC   PO419610  15.742  19.465   3.314  0.0970  0.0434 -0.4074
    1DIPC   GL119611  15.481  19.512   3.721 -0.0065 -0.0154 -0.0079
    1DIPC   GL219612  15.315  19.730   3.740 -0.2050 -0.2777 -0.0069
    1DIPC   C1A19613  15.382  19.428   4.061  0.1205 -0.2359 -0.3890
    1DIPC   D2A19614  15.470  19.269   4.449  0.0924 -0.0721 -0.1304
    1DIPC   D3A19615  15.751  18.905   4.515 -0.0653  0.2525  0.0509
    1DIPC   C4A19616  15.792  18.462   4.586 -0.0724 -0.1139 -0.0539
    1DIPC   C1B19617  14.953  19.712   4.035 -0.0408  0.1543  0.3837
    1DIPC   D2B19618  14.787  19.851   4.445 -0.2128  0.1458  0.2343
    1DIPC   D3B19619  14.639  20.101   4.879 -0.1827 -0.0481  0.0803
    1DIPC   C4B19620  14.916  20.016   5.306 -0.2897  0.0134  0.0571
    1DIPC   NC319621  24.491  27.473   3.374 -0.0513  0.0491 -0.1437
    1DIPC   PO419622  24.802  27.219   3.405  0.5647  0.2979 -0.0940
    1DIPC   GL119623  25.082  27.160   3.812 -0.0299 -0.3692  0.4137
    1DIPC   GL219624  25.426  27.143   3.709  0.2467  0.1607  0.3758
    1DIPC   C1A19625  25.261  27.191   4.226  0.0011  0.2101 -0.3669
    1DIPC   D2A19626  25.545  27.134   4.420 -0.1045  0.0287  0.0339
    1DIPC   D3A19627  25.732  27.246   4.779 -0.2395  0.3310 -0.1135
    1DIPC   C4A19628  25.530  27.572   5.045 -0.0837  0.2649  0.0761
    1DIPC   C1B19629  25.855  27.049   4.019 -0.0829  0.1051  0.1498
    1DIPC   D2B19630  25.889  26.772   4.382 -0.1018  0.0076 -0.0139
    1DIPC   D3B19631  26.009  26.396   4.582 -0.1333 -0.2430  0.0910
    1DIPC   C4B19632  26.187  25.992   4.647  0.3791 -0.0663  0.1356
    1DIPC   NC319633  18.473  20.979   3.152  0.1224 -0.3591  0.0224
    1DIPC   PO419634  18.101  20.992   3.510  0.0451  0.0287  0.0567
    1DIPC   GL119635  18.366  21.162   3.891 -0.0895  0.0562 -0.3510
    1DIPC   GL219636  18.487  21.355   4.204 -0.1050 -0.2430  0.0412
    1DIPC   C1A19637  18.195  20.970   4.261  0.0902  0.1517  0.0057
    1DIPC   D2A19638  17.730  21.131   4.496  0.0987 -0.1655  0.1081
    1DIPC   D3A19639  17.513  21.207   4.934  0.0120  0.0640 -0.2030
    1DIPC   C4A19640  17.252  21.623   4.858 -0.2245 -0.0884 -0.1376
    1DIPC   C1B19641  18.507  21.746   4.353 -0.3555 -0.2421 -0.4295
    1DIPC   D2B19642  18.443  21.867   4.774 -0.1140 -0.1370 -0.3058
    1DIPC   D3B19643  18.197  21.819   5.088  0.0283  0.2199 -0.1718
    1DIPC   C4B19644  17.816  21.610   5.030  0.1174  0.0564  0.1070
    1DIPC   NC319645  21.480   7.958   2.708 -0.0693 -0.1571 -0.0057
    1DIPC   PO419646  21.226   8.096   3.050  0.2880  0.0047  0.2377
    1DIPC   GL119647  21.312   8.068   3.543 -0.2661  0.2537 -0.0597
    1DIPC   GL219648  21.187   8.372   3.566 -0.0959  0.2725  0.0916
    1DIPC   C1A19649  21.308   7.867   3.984  0.0023  0.1169  0.3647
    1DIPC   D2A19650  21.358   7.521   4.385 -0.0896 -0.2257  0.0250
    1DIPC   D3A19651  21.525   7.978   4.526 -0.1079  0.1499 -0.0072
    1DIPC   C4A19652  21.717   8.205   4.262  0.0051 -0.0284 -0.2506
    1DIPC   C1B19653  21.290   8.389   4.032 -0.2092  0.0056 -0.2027
    1DIPC   D2B19654  21.265   8.429   4.523 -0.2005  0.0366 -0.1689
    1DIPC   D3B19655  21.620   8.577   4.534 -0.0516 -0.0613  0.1476
    1DIPC   C4B19656  21.763   8.333   4.776  0.0763 -0.0060 -0.0207
    1DIPC   NC319657   9.239  22.721   2.946  0.0830  0.0714  0.1105
    1DIPC   PO419658   9.634  22.766   3.202 -0.1814 -0.2887 -0.1124
    1DIPC   GL119659   9.756  22.860   3.669  0.3578 -0.0138 -0.1217
    1DIPC   GL219660   9.727  23.154   3.716  0.2751  0.0671 -0.0597
    1DIPC   C1A19661   9.790  22.862   4.257 -0.0410  0.1471  0.0094
    1DIPC   D2A19662   9.718  22.924   4.696 -0.1111 -0.3206 -0.1906
    1DIPC   D3A19663   9.946  23.218   4.925  0.0712 -0.3175  0.0330
    1DIPC   C4A19664   9.827  23.624   4.911 -0.1729 -0.3449  0.0223
    1DIPC   C1B19665   9.497  23.269   4.110 -0.1237  0.1352 -0.0681
    1DIPC   D2B19666   9.687  23.342   4.475 -0.3160  0.3348 -0.1971
    1DIPC   D3B19667   9.307  23.280   4.762 -0.3638  0.0764 -0.0909
    1DIPC   C4B19668   9.453  23.505   5.150  0.3126 -0.0503 -0.0062
    1DIPC   NC319669  22.149   2.140   3.339  0.0384 -0.3305 -0.0921
    1DIPC   PO419670  21.802   2.264   3.404 -0.0467 -0.0119 -0.0297
    1DIPC   GL119671  21.915   2.507   3.711  0.3171  0.2688 -0.1781
    1DIPC   GL219672  22.227   2.493   3.774  0.1889 -0.0491 -0.1610
    1DIPC   C1A19673  21.885   2.856   3.856  0.1262  0.1746  0.0806
    1DIPC   D2A19674  21.788   3.265   4.125 -0.1140 -0.0262 -0.0500
    1DIPC   D3A19675  21.994   2.925   4.293  0.0761  0.0906 -0.1548
    1DIPC   C4A19676  21.635   2.585   4.213  0.2841  0.2863  0.3427
    1DIPC   C1B19677  21.936   2.217   4.126 -0.1057  0.0743  0.1972
    1DIPC   D2B19678  22.056   1.940   4.533  0.0093 -0.1216  0.0495
    1DIPC   D3B19679  21.832   2.033   4.795 -0.1784 -0.0553  0.2076
    1DIPC   C4B19680  21.618   2.343   4.679  0.0666  0.2161  0.1415
    1DIPC   NC319681  15.900   4.427   3.368 -0.1238 -0.1331 -0.4569
    1DIPC   PO419682  16.159   4.689   3.679 -0.0026  0.2502 -0.1892
    1DIPC   GL119683  16.127   4.540   4.083 -0.1198 -0.0283  0.2086
    1DIPC   GL219684  15.882   4.730   4.312 -0.0483  0.0288  0.0470
    1DIPC   C1A19685  16.282   4.350   4.422  0.1310  0.2903  0.0100
    1DIPC   D2A19686  16.344   4.082   4.866 -0.2199  0.3407 -0.0153
    1DIPC   D3A19687  16.738   4.165   4.717 -0.1824  0.2269  0.0516
    1DIPC   C4A19688  16.851   3.888   4.339 -0.1714  0.1723  0.1473
    1DIPC   C1B19689  15.886   4.484   4.683  0.2242  0.2888  0.1956
    1DIPC   D2B19690  15.889   4.301   5.078 -0.1982 -0.2666 -0.0379
    1DIPC   D3B19691  15.863   4.747   5.196 -0.2081  0.0426  0.2701
    1DIPC   C4B19692  16.200   4.877   5.417  0.0591 -0.0773 -0.0845
    1DIPC   NC319693  16.239   6.979   3.790  0.4666 -0.0313 -0.1826
    1DIPC   PO419694  15.974   7.254   3.984 -0.0329  0.2883 -0.0351
    1DIPC   GL119695  16.186   7.215   4.398  0.0311  0.0618 -0.0619
    1DIPC   GL219696  15.893   6.978   4.582  0.1771  0.1636 -0.0185
    1DIPC   C1A19697  16.294   6.889   4.763 -0.0968  0.0044  0.1396
    1DIPC   D2A19698  16.634   6.755   4.839  0.2552  0.0765  0.1141
    1DIPC   D3A19699  17.059   6.713   5.011  0.0993  0.2008  0.1275
    1DIPC   C4A19700  17.235   6.577   4.701 -0.1807 -0.0946  0.3260
    1DIPC   C1B19701  15.659   7.149   4.840 -0.0324  0.1465 -0.0694
    1DIPC   D2B19702  15.429   7.416   5.225 -0.1191 -0.0610 -0.0563
    1DIPC   D3B19703  15.160   7.138   5.407 -0.1300  0.0353 -0.0668
    1DIPC   C4B19704  15.035   6.948   5.875 -0.3064  0.0421 -0.0147
    1DIPC   NC319705  14.949  25.536   3.616 -0.1344 -0.3967 -0.2442
    1DIPC   PO419706  14.894  25.195   3.877 -0.3051  0.0144 -0.2473
    1DIPC   GL119707  14.971  25.545   4.176  0.1390  0.1512  0.4010
    1DIPC   GL219708  15.079  25.834   3.986  0.0806 -0.2148 -0.2590
    1DIPC   C1A19709  15.059  25.762   4.575  0.1773  0.0184 -0.2457
    1DIPC   D2A19710  15.220  25.768   4.993  0.0101 -0.2704  0.0148
    1DIPC   D3A19711  15.584  25.457   5.036  0.1254 -0.1324 -0.0594
    1DIPC   C4A19712  15.863  25.148   5.256  0.0947 -0.0490  0.0747
    1DIPC   C1B19713  15.450  25.812   4.320 -0.2517 -0.1759  0.1878
    1DIPC   D2B19714  15.707  26.028   4.745 -0.0443 -0.2002  0.2182
    1DIPC   D3B19715  15.704  26.427   4.454  0.0705 -0.0236 -0.0742
    1DIPC   C4B19716  15.907  26.436   4.162  0.0603  0.0120  0.0630
    1DIPC   NC319717   8.649  26.756   2.926  0.0706 -0.0099  0.1604
    1DIPC   PO419718   8.692  26.383   3.063  0.1496 -0.0932 -0.1844
    1DIPC   GL119719   8.496  26.214   3.560  0.3320 -0.0323  0.2453
    1DIPC   GL219720   8.833  26.008   3.700  0.5239  0.0789  0.2502
    1DIPC   C1A19721   8.350  26.293   3.958 -0.0011 -0.0174  0.0764
    1DIPC   D2A19722   8.309  26.157   4.430  0.3428 -0.2512  0.0559
    1DIPC   D3A19723   8.252  25.727   4.401  0.3063  0.1283  0.4164
    1DIPC   C4A19724   7.848  25.517   4.506  0.0865  0.0177 -0.2974
    1DIPC   C1B19725   8.515  25.835   3.952  0.2324  0.1542 -0.1823
    1DIPC   D2B19726   8.020  25.884   4.016  0.1326 -0.2275 -0.0639
    1DIPC   D3B19727   7.830  26.294   3.964 -0.1028 -0.2256  0.2763
    1DIPC   C4B19728   7.503  26.337   3.801 -0.1333 -0.3615  0.0710
    1DIPC   NC319729  25.814  19.488   2.520  0.0397  0.2028  0.2121
    1DIPC   PO419730  26.008  19.896   2.767  0.0380  0.0678  0.0896
    1DIPC   GL119731  26.085  19.837   3.243  0.2426 -0.0093 -0.0579
    1DIPC   GL219732  25.889  19.968   3.504 -0.0618 -0.0314 -0.1511
    1DIPC   C1A19733  26.269  19.518   3.501 -0.1908 -0.0010  0.0332
    1DIPC   D2A19734  26.305  19.173   3.402  0.0136  0.0065  0.3411
    1DIPC   D3A19735  26.724  19.356   3.477  0.2039  0.1113 -0.0815
    1DIPC   C4A19736  26.729  19.662   3.766  0.1897 -0.0515  0.0424
    1DIPC   C1B19737  25.910  19.701   3.793 -0.2507 -0.0059  0.2176
    1DIPC   D2B19738  25.944  19.246   3.839 -0.0108  0.0386 -0.0428
    1DIPC   D3B19739  25.746  19.359   3.487 -0.3356  0.1687  0.1654
    1DIPC   C4B19740  25.444  19.610   3.423  0.1899  0.0720  0.0166
    1DIPC   NC319741  23.321  15.991   3.540 -0.2249  0.0949  0.1219
    1DIPC   PO419742  23.494  15.660   3.250  0.0317 -0.0975 -0.1967
    1DIPC   GL119743  23.435  15.418   3.488  0.0945 -0.1131  0.0195
    1DIPC   GL219744  23.238  15.191   3.419 -0.0399  0.2760 -0.2187
    1DIPC   C1A19745  23.781  15.271   3.744  0.1566 -0.1557  0.0188
    1DIPC   D2A19746  24.005  14.919   3.550  0.1554  0.0498  0.0403
    1DIPC   D3A19747  24.186  14.535   3.640  0.0303 -0.3167 -0.1025
    1DIPC   C4A19748  24.238  14.506   4.209 -0.0215  0.0828 -0.1263
    1DIPC   C1B19749  23.352  15.112   3.908  0.1189 -0.3580  0.1164
    1DIPC   D2B19750  23.529  15.236   4.165 -0.0783 -0.0974  0.1870
    1DIPC   D3B19751  23.385  15.014   4.550 -0.1580 -0.1192 -0.0835
    1DIPC   C4B19752  23.474  15.263   4.890  0.0794 -0.1149 -0.4342
    1DIPC   NC319753  16.218  25.287   2.872  0.0346  0.2169  0.3103
    1DIPC   PO419754  16.253  25.431   3.388 -0.0038 -0.2480  0.3185
    1DIPC   GL119755  16.410  25.214   3.642  0.2990  0.2395  0.0134
    1DIPC   GL219756  16.050  25.098   3.756 -0.2568  0.0669  0.0287
    1DIPC   C1A19757  16.477  25.173   4.066 -0.1078  0.0026  0.0506
    1DIPC   D2A19758  16.325  25.186   4.451 -0.4001  0.1186 -0.2539
    1DIPC   D3A19759  16.335  24.923   4.801  0.2650 -0.0920 -0.1268
    1DIPC   C4A19760  16.415  24.539   5.056  0.0717  0.1459  0.1286
    1DIPC   C1B19761  15.932  25.442   4.169  0.2159 -0.2040  0.4814
    1DIPC   D2B19762  15.750  25.499   4.541  0.1748  0.0142  0.0126
    1DIPC   D3B19763  16.027  25.311   4.812  0.2034  0.1285 -0.1480
    1DIPC   C4B19764  16.265  25.522   5.123 -0.0060 -0.0382  0.2439
    1DIPC   NC319765  21.092  11.861   2.913 -0.0082  0.2515  0.0895
    1DIPC   PO419766  21.298  12.119   3.202  0.0540 -0.0585  0.0375
    1DIPC   GL119767  21.331  12.011   3.611 -0.2542  0.1431  0.1700
    1DIPC   GL219768  21.279  12.265   3.716 -0.2366  0.0929  0.0024
    1DIPC   C1A19769  21.466  11.859   3.996  0.0042 -0.1916 -0.2358
    1DIPC   D2A19770  21.407  11.671   4.488 -0.3059 -0.0999 -0.0408
    1DIPC   D3A19771  21.790  11.665   4.599 -0.0470  0.1866 -0.3113
    1DIPC   C4A19772  22.060  11.276   4.465 -0.0162  0.3703 -0.0806
    1DIPC   C1B19773  20.881  12.513   3.755 -0.1715  0.0089  0.1055
    1DIPC   D2B19774  20.766  12.892   3.875  0.0777 -0.3290  0.0466
    1DIPC   D3B19775  21.188  13.041   3.785 -0.0867  0.2030  0.1223
    1DIPC   C4B19776  21.177  13.435   3.999 -0.0186  0.0284  0.5697
    1DIPC   NC319777  27.992  25.323   2.683  0.2224  0.3657  0.1987
    1DIPC   PO419778  27.713  25.329   2.925  0.3968  0.2940 -0.3599
    1DIPC   GL119779  27.706  25.095   3.284 -0.1017 -0.2998 -0.0901
    1DIPC   GL219780  27.465  25.082   3.543  0.1249  0.0376 -0.0244
    1DIPC   C1A19781  28.027  24.907   3.536 -0.0740  0.2980 -0.1002
    1DIPC   D2A19782   0.332  24.729   3.436  0.0918  0.0387  0.0896
    1DIPC   D3A19783   0.606  24.724   3.768  0.2093 -0.1377  0.3633
    1DIPC   C4A19784   0.838  24.343   3.529 -0.0558 -0.1932  0.0315
    1DIPC   C1B19785  27.545  25.170   3.902  0.3188 -0.3728  0.0039
    1DIPC   D2B19786  27.408  24.838   4.173 -0.0587  0.1777  0.1905
    1DIPC   D3B19787  27.727  24.858   4.458  0.1126  0.2201  0.2490
    1DIPC   C4B19788  27.671  25.124   4.938  0.0478 -0.0553  0.0417
    1DIPC   NC319789  20.087   3.112   2.939 -0.4139 -0.2407  0.2204
    1DIPC   PO419790  20.177   2.820   3.137 -0.2275 -0.0930 -0.1575
    1DIPC   GL119791  20.145   2.711   3.534  0.0176 -0.3305 -0.1879
    1DIPC   GL219792  20.396   2.512   3.634  0.0826  0.1843  0.1171
    1DIPC   C1A19793  19.823   2.928   3.795 -0.2142 -0.0587 -0.1912
    1DIPC   D2A19794  19.470   3.111   3.791 -0.0043 -0.1887  0.2363
    1DIPC   D3A19795  19.656   3.130   4.267  0.0596 -0.0666  0.3199
    1DIPC   C4A19796  20.052   3.038   4.278  0.2285 -0.1877  0.0146
    1DIPC   C1B19797  20.418   2.740   4.059  0.1450  0.4561  0.0138
    1DIPC   D2B19798  20.444   2.892   4.511  0.1410 -0.0057  0.0584
    1DIPC   D3B19799  20.083   2.747   4.672 -0.5250 -0.1612 -0.0183
    1DIPC   C4B19800  19.732   2.938   4.794 -0.1751 -0.1768  0.2093
    1DIPC   NC319801  26.190   2.683   3.161  0.1393  0.1296  0.2159
    1DIPC   PO419802  25.837   2.986   3.122  0.1192 -0.0136 -0.1909
    1DIPC   GL119803  25.778   3.158   3.559  0.1519  0.1725 -0.2430
    1DIPC   GL219804  25.444   3.111   3.708  0.2811 -0.0643  0.0374
    1DIPC   C1A19805  26.018   3.170   3.841  0.1506  0.0742  0.1231
    1DIPC   D2A19806  26.057   2.966   4.205 -0.0900 -0.0540  0.0466
    1DIPC   D3A19807  26.118   3.361   4.343  0.4579 -0.1006  0.1675
    1DIPC   C4A19808  26.230   3.557   4.783  0.0113 -0.1692 -0.2848
    1DIPC   C1B19809  25.567   2.822   3.990  0.1416 -0.0227  0.0438
    1DIPC   D2B19810  25.396   2.780   4.424 -0.3462 -0.0300  0.2497
    1DIPC   D3B19811  25.333   3.128   4.717  0.1525 -0.1418  0.4188
    1DIPC   C4B19812  24.949   3.337   4.884  0.1081  0.0390  0.0525
    1DIPC   NC319813  21.188  18.493   3.808  0.2075  0.0834 -0.3890
    1DIPC   PO419814  20.877  18.816   3.727  0.2566 -0.0870  0.2172
    1DIPC   GL119815  20.872  19.092   4.009 -0.0867 -0.2242  0.1903
    1DIPC   GL219816  20.623  18.926   4.190  0.0015 -0.1975 -0.1574
    1DIPC   C1A19817  21.009  19.215   4.398  0.4210  0.1103  0.2569
    1DIPC   D2A19818  20.976  19.099   4.870  0.1458 -0.2876 -0.0809
    1DIPC   D3A19819  20.919  19.095   5.258  0.1233 -0.1315  0.1323
    1DIPC   C4A19820  21.214  18.731   5.372 -0.0641 -0.2814  0.1846
    1DIPC   C1B19821  20.711  18.762   4.542  0.0892 -0.1378 -0.0630
    1DIPC   D2B19822  20.803  18.388   4.511 -0.0803 -0.2423 -0.3955
    1DIPC   D3B19823  20.372  18.260   4.676 -0.0896 -0.1739 -0.1787
    1DIPC   C4B19824  20.162  18.655   4.586  0.2820 -0.3712 -0.0946
    1DIPC   NC319825  27.166   8.691   2.664  0.0791  0.0539  0.0141
    1DIPC   PO419826  27.075   9.011   2.835  0.4289 -0.0317 -0.0856
    1DIPC   GL119827  27.146   8.887   3.216  0.1223 -0.0552 -0.3592
    1DIPC   GL219828  27.269   8.533   3.128 -0.0954 -0.2358  0.1323
    1DIPC   C1A19829  26.970   8.816   3.632  0.3736  0.0192 -0.1691
    1DIPC   D2A19830  26.759   9.009   3.997  0.1359  0.0834 -0.0493
    1DIPC   D3A19831  26.543   9.209   3.738 -0.1017  0.0972 -0.0832
    1DIPC   C4A19832  26.316   9.528   3.920  0.1449 -0.1965 -0.1172
    1DIPC   C1B19833  27.526   8.789   3.555  0.0471 -0.1751 -0.1140
    1DIPC   D2B19834  27.714   9.060   3.863  0.4228 -0.0796  0.0880
    1DIPC   D3B19835  27.958   9.038   4.273 -0.4407 -0.0174  0.0120
    1DIPC   C4B19836  28.034   9.398   4.514  0.1131 -0.2398  0.2026
    1DIPC   NC319837   0.972   0.855   2.039 -0.1209 -0.3547 -0.3635
    1DIPC   PO419838   1.005   0.951   2.532 -0.0891 -0.2060  0.1295
    1DIPC   GL119839   1.254   1.102   2.901 -0.0061  0.2885 -0.2003
    1DIPC   GL219840   1.188   1.439   3.059 -0.1172 -0.4299  0.2306
    1DIPC   C1A19841   1.588   1.244   3.203  0.1413 -0.0291  0.0981
    1DIPC   D2A19842   2.011   1.439   3.180  0.2118 -0.0049 -0.1393
    1DIPC   D3A19843   2.083   0.965   3.420  0.0748  0.1933 -0.0060
    1DIPC   C4A19844   2.308   0.942   3.799  0.2472 -0.2114  0.0801
    1DIPC   C1B19845   1.388   1.738   3.322 -0.3586 -0.1374 -0.1892
    1DIPC   D2B19846   1.670   1.637   3.720 -0.1626 -0.0654  0.2586
    1DIPC   D3B19847   1.734   2.032   3.753  0.2210 -0.0162  0.0699
    1DIPC   C4B19848   1.560   2.380   4.078 -0.0825 -0.0766  0.6321
    1DIPC   NC319849   8.963  12.159   3.595  0.3347  0.1247 -0.1686
    1DIPC   PO419850   8.670  12.428   3.729 -0.1706  0.0389  0.0484
    1DIPC   GL119851   8.745  12.728   4.125  0.1133 -0.0762  0.0696
    1DIPC   GL219852   9.060  12.751   4.285 -0.1619 -0.0359 -0.2062
    1DIPC   C1A19853   8.559  12.959   4.458 -0.0997  0.0066  0.0814
    1DIPC   D2A19854   8.679  12.881   4.783 -0.3768  0.0899 -0.0949
    1DIPC   D3A19855   8.876  13.217   5.014 -0.0036 -0.3915  0.2456
    1DIPC   C4A19856   8.698  13.136   5.457  0.2146  0.1649  0.0114
    1DIPC   C1B19857   9.041  12.383   4.692 -0.1079 -0.0828 -0.0028
    1DIPC   D2B19858   9.127  12.236   5.225  0.0367 -0.1593 -0.2233
    1DIPC   D3B19859   8.977  12.547   5.556 -0.1133  0.0441 -0.2421
    1DIPC   C4B19860   8.578  12.692   5.656  0.1752  0.3049 -0.0615
    1DIPC   NC319861  14.897   7.155   3.532 -0.4397 -0.0106  0.2726
    1DIPC   PO419862  14.627   6.782   3.672  0.0611  0.2877  0.2219
    1DIPC   GL119863  14.924   6.764   3.997 -0.1692 -0.0720 -0.1546
    1DIPC   GL219864  15.015   7.028   3.978  0.1233 -0.1184  0.2153
    1DIPC   C1A19865  14.726   6.739   4.400  0.3119  0.0537 -0.1970
    1DIPC   D2A19866  14.628   6.776   4.848  0.0845  0.0410  0.1356
    1DIPC   D3A19867  14.305   6.755   5.043 -0.2009 -0.0124 -0.1107
    1DIPC   C4A19868  14.150   6.529   5.342 -0.3168  0.1306  0.2486
    1DIPC   C1B19869  15.333   7.177   4.266  0.0310  0.1251 -0.2267
    1DIPC   D2B19870  15.723   7.425   4.390  0.0402  0.0046  0.0658
    1DIPC   D3B19871  15.487   7.600   4.749 -0.0912  0.0684 -0.0394
    1DIPC   C4B19872  15.797   7.717   4.984 -0.1191 -0.0992  0.2578
    1DIPC   NC319873  19.809   1.433   3.090  0.1491  0.1789  0.0578
    1DIPC   PO419874  19.720   1.790   3.232  0.1458  0.0568 -0.1953
    1DIPC   GL119875  19.710   1.773   3.655  0.1871  0.3516 -0.0434
    1DIPC   GL219876  19.526   1.886   3.786  0.0195  0.0440 -0.4838
    1DIPC   C1A19877  19.545   1.431   3.939  0.1374 -0.2705 -0.2506
    1DIPC   D2A19878  19.826   1.512   4.155  0.1558  0.3221  0.2589
    1DIPC   D3A19879  19.846   1.784   4.550  0.3575  0.0191  0.0724
    1DIPC   C4A19880  19.806   1.521   4.915 -0.1053  0.0020 -0.3557
    1DIPC   C1B19881  19.782   2.068   4.067 -0.1563  0.1945 -0.1678
    1DIPC   D2B19882  20.137   2.272   4.239 -0.0389 -0.1869  0.2819
    1DIPC   D3B19883  20.345   2.154   4.627  0.0442 -0.0727  0.0919
    1DIPC   C4B19884  20.281   2.368   5.021  0.0543 -0.1154  0.0394
    1DIPC   NC319885  17.790  21.722   3.271  0.0529  0.0893 -0.1575
    1DIPC   PO419886  18.163  21.879   3.077 -0.0673 -0.0278 -0.1128
    1DIPC   GL119887  18.300  22.268   3.352 -0.0727 -0.1896 -0.3953
    1DIPC   GL219888  18.126  22.058   3.540 -0.4349  0.1738 -0.0763
    1DIPC   C1A19889  18.236  22.539   3.715 -0.2237 -0.0607 -0.1606
    1DIPC   D2A19890  17.931  22.609   3.944 -0.1062  0.1469 -0.0608
    1DIPC   D3A19891  17.805  22.954   3.836  0.0949 -0.0032  0.0723
    1DIPC   C4A19892  17.552  23.266   3.819 -0.1624  0.0889  0.0143
    1DIPC   C1B19893  18.050  21.717   3.899 -0.1123  0.0499  0.4133
    1DIPC   D2B19894  17.920  21.412   4.128 -0.2754  0.4411 -0.0501
    1DIPC   D3B19895  18.080  21.591   4.523 -0.4194 -0.0925 -0.0450
    1DIPC   C4B19896  18.409  21.266   4.663 -0.1229  0.1492 -0.0478
    1DIPC   NC319897  19.974   2.097   2.513 -0.0833  0.2847 -0.1272
    1DIPC   PO419898  20.276   1.746   2.875 -0.1511  0.2495  0.0052
    1DIPC   GL119899  20.309   1.700   3.382 -0.0242  0.0796 -0.0594
    1DIPC   GL219900  20.528   2.013   3.565  0.0590  0.0220 -0.2771
    1DIPC   C1A19901  20.191   1.749   3.850 -0.0742  0.0345 -0.0584
    1DIPC   D2A19902  20.389   1.810   4.258  0.4253 -0.0687 -0.0809
    1DIPC   D3A19903  20.469   1.544   4.678  0.1546 -0.2054  0.2347
    1DIPC   C4A19904  20.670   1.770   4.943 -0.1380 -0.1981 -0.1703
    1DIPC   C1B19905  20.695   1.712   3.895 -0.2638  0.0160 -0.2776
    1DIPC   D2B19906  20.806   1.331   4.197  0.1132 -0.0745  0.0789
    1DIPC   D3B19907  20.983   1.400   4.568 -0.0332  0.0665  0.0499
    1DIPC   C4B19908  20.840   1.294   4.972 -0.1748 -0.1651  0.0588
    1DIPC   NC319909  14.363   2.802   3.886 -0.2072 -0.1767 -0.3288
    1DIPC   PO419910  13.925   2.953   3.955 -0.4132  0.3845  0.1439
    1DIPC   GL119911  14.173   2.883   4.357 -0.0957  0.2809 -0.0383
    1DIPC   GL219912  14.266   2.623   4.417  0.1674 -0.0176 -0.0626
    1DIPC   C1A19913  14.126   2.953   4.818 -0.1093  0.0169  0.2514
    1DIPC   D2A19914  14.067   2.763   5.177 -0.0993  0.0164 -0.0450
    1DIPC   D3A19915  14.354   2.655   5.536  0.2259  0.1030  0.1648
    1DIPC   C4A19916  14.202   2.611   6.010 -0.0858  0.2826  0.2086
    1DIPC   C1B19917  14.474   2.492   4.753  0.1884  0.0319 -0.0154
    1DIPC   D2B19918  14.556   2.663   5.134 -0.0603 -0.0958 -0.1707
    1DIPC   D3B19919  14.906   2.411   5.333  0.5229 -0.0432  0.0274
    1DIPC   C4B19920  14.838   2.018   5.519  0.5114 -0.0351  0.0634
    1DIPC   NC319921  18.435  23.514   3.278  0.1252 -0.2317 -0.1997
    1DIPC   PO419922  18.651  23.223   3.056  0.1444  0.0513 -0.0857
    1DIPC   GL119923  18.899  23.296   3.409  0.2150 -0.0399  0.1481
    1DIPC   GL219924  18.763  23.608   3.572 -0.2033 -0.1094  0.0285
    1DIPC   C1A19925  19.013  23.223   3.857  0.1402 -0.2285 -0.2187
    1DIPC   D2A19926  18.793  23.001   4.264 -0.4529 -0.2006 -0.2490
    1DIPC   D3A19927  18.492  23.104   4.493 -0.0016 -0.0526  0.4452
    1DIPC   C4A19928  18.315  23.538   4.305 -0.2494 -0.2138  0.0930
    1DIPC   C1B19929  18.490  23.408   3.863  0.2281 -0.0841 -0.0248
    1DIPC   D2B19930  18.332  22.979   3.961  0.2538  0.0247 -0.1563
    1DIPC   D3B19931  18.679  22.869   3.575  0.1887  0.1661  0.2463
    1DIPC   C4B19932  19.017  22.605   3.789 -0.2893  0.0153  0.0870
    1DIPC   NC319933   3.064  16.425   3.027  0.1073 -0.1377  0.3679
    1DIPC   PO419934   3.044  16.699   3.366 -0.1251  0.1657 -0.1783
    1DIPC   GL119935   2.986  16.814   3.738  0.0275  0.3325 -0.0568
    1DIPC   GL219936   2.755  16.898   3.946  0.1913 -0.0610 -0.4349
    1DIPC   C1A19937   3.208  17.097   4.087  0.0434 -0.0870  0.1891
    1DIPC   D2A19938   3.597  16.945   4.265  0.2775  0.3349 -0.2503
    1DIPC   D3A19939   3.498  16.591   4.519 -0.2952  0.0446  0.0272
    1DIPC   C4A19940   3.164  16.581   4.840 -0.0551 -0.1780  0.0540
    1DIPC   C1B19941   2.850  16.748   4.303  0.4942  0.3282  0.1362
    1DIPC   D2B19942   2.482  16.644   4.626 -0.0894 -0.1647  0.2001
    1DIPC   D3B19943   2.386  17.049   4.594 -0.1199 -0.1676  0.0386
    1DIPC   C4B19944   2.598  17.463   4.731  0.0045  0.0380 -0.0983
    1DIPC   NC319945  20.226  22.376   3.051  0.0551  0.1944  0.0110
    1DIPC   PO419946  20.059  22.697   2.977  0.0276  0.0828 -0.2686
    1DIPC   GL119947  20.183  22.732   3.373 -0.1601  0.0768 -0.3283
    1DIPC   GL219948  20.059  22.802   3.535 -0.2750 -0.1076 -0.0385
    1DIPC   C1A19949  20.429  23.063   3.735 -0.1959  0.0941  0.0619
    1DIPC   D2A19950  20.432  23.175   4.172 -0.3178  0.2519 -0.0474
    1DIPC   D3A19951  20.192  22.848   4.377  0.3589  0.1843 -0.1595
    1DIPC   C4A19952  20.598  22.838   4.740  0.0177 -0.0015  0.1172
    1DIPC   C1B19953  20.023  22.753   3.906 -0.0184  0.2744 -0.2369
    1DIPC   D2B19954  19.729  22.610   4.265 -0.3191  0.2629  0.1256
    1DIPC   D3B19955  19.579  22.815   4.571 -0.1360 -0.0607 -0.0137
    1DIPC   C4B19956  19.611  22.732   5.007 -0.3129  0.1592 -0.1998
    1DIPC   NC319957   6.898  12.536   3.110  0.1062  0.0743 -0.0478
    1DIPC   PO419958   6.510  12.598   3.198 -0.2420 -0.2563  0.0379
    1DIPC   GL119959   6.267  12.485   3.585 -0.2745  0.1558  0.0140
    1DIPC   GL219960   6.133  12.157   3.678 -0.3776 -0.1935  0.2542
    1DIPC   C1A19961   6.325  12.550   4.039 -0.0012  0.2717  0.0116
    1DIPC   D2A19962   6.414  12.866   4.458 -0.1902  0.4993 -0.2293
    1DIPC   D3A19963   6.732  12.975   4.336 -0.0341 -0.2708 -0.1572
    1DIPC   C4A19964   6.965  13.350   4.451  0.0761 -0.0445  0.2777
    1DIPC   C1B19965   6.249  12.031   4.133  0.1468  0.2778  0.2882
    1DIPC   D2B19966   6.664  11.931   4.381  0.1705 -0.0748 -0.0217
    1DIPC   D3B19967   6.578  11.766   4.786 -0.0506  0.0608 -0.0238
    1DIPC   C4B19968   6.936  11.392   4.826 -0.0192 -0.2979 -0.0181
    1DIPC   NC319969  11.832  19.218   3.296  0.1201 -0.2407  0.1371
    1DIPC   PO419970  11.718  18.768   3.478  0.1138  0.1044 -0.0963
    1DIPC   GL119971  11.677  18.875   3.848 -0.1564  0.3041  0.1800
    1DIPC   GL219972  11.787  18.612   3.995  0.0793  0.4136  0.1069
    1DIPC   C1A19973  11.510  18.931   4.295  0.0563 -0.1813  0.0123
    1DIPC   D2A19974  11.290  18.577   4.529  0.0707  0.1338 -0.3855
    1DIPC   D3A19975  11.325  18.184   4.815  0.3692 -0.1487  0.1786
    1DIPC   C4A19976  11.431  18.232   5.187  0.1386 -0.0631  0.1200
    1DIPC   C1B19977  11.886  18.634   4.366  0.1105 -0.0920  0.0236
    1DIPC   D2B19978  12.163  18.853   4.637  0.0370  0.2988 -0.3437
    1DIPC   D3B19979  12.299  18.542   4.872 -0.1545 -0.1290 -0.1843
    1DIPC   C4B19980  12.545  18.812   5.147  0.0319 -0.0785 -0.3041
    1DIPC   NC319981  24.352  17.865   3.576 -0.3267  0.3440 -0.0918
    1DIPC   PO419982  24.712  17.711   3.548  0.0430 -0.0490  0.1032
    1DIPC   GL119983  24.804  17.531   4.000  0.1071 -0.0558 -0.0152
    1DIPC   GL219984  24.689  17.431   4.259 -0.0020 -0.2511  0.5577
    1DIPC   C1A19985  25.040  17.670   4.419 -0.1707  0.1895  0.0238
    1DIPC   D2A19986  25.104  17.378   4.750  0.1980  0.0674  0.2373
    1DIPC   D3A19987  25.246  17.753   4.935 -0.0279  0.2816  0.2639
    1DIPC   C4A19988  24.996  18.081   4.998 -0.1528  0.0974 -0.1104
    1DIPC   C1B19989  24.558  17.729   4.541 -0.1806 -0.3203  0.1963
    1DIPC   D2B19990  24.667  17.663   4.986 -0.0861 -0.0116 -0.1127
    1DIPC   D3B19991  24.695  17.184   5.189 -0.0206  0.0151  0.2431
    1DIPC   C4B19992  24.321  16.987   5.055 -0.2417  0.1352  0.0447
    1DIPC   NC319993  12.650  25.643   3.072  0.4093 -0.0119 -0.0966
    1DIPC   PO419994  12.570  25.282   3.228 -0.0034  0.2423  0.3606
    1DIPC   GL119995  12.227  24.924   3.321  0.0358 -0.0527 -0.1207
    1DIPC   GL219996  12.230  24.747   3.447  0.2647 -0.0643  0.0062
    1DIPC   C1A19997  11.811  25.008   3.572  0.0935  0.3882  0.0606
    1DIPC   D2A19998  11.692  25.418   3.670  0.2216  0.2029 -0.0717
    1DIPC   D3A19999  11.930  25.703   4.025 -0.2344 -0.1025 -0.2197
    1DIPC   C4A20000  11.978  25.390   4.386  0.3600 -0.2521 -0.0403
    1DIPC   C1B20001  12.482  24.912   3.786  0.0139 -0.0833  0.3401
    1DIPC   D2B20002  12.946  24.975   3.859 -0.1824 -0.2851 -0.1851
    1DIPC   D3B20003  13.027  25.099   4.236 -0.3788  0.4950  0.0500
    1DIPC   C4B20004  13.116  24.799   4.549  0.3332 -0.0481 -0.2192
    1DIPC   NC320005   3.187  20.064   3.487  0.0405  0.2109  0.1350
    1DIPC   PO420006   3.168  19.654   3.468  0.2576 -0.2955  0.1866
    1DIPC   GL120007   3.195  19.777   3.960  0.2111  0.1455  0.1597
    1DIPC   GL220008   2.925  19.785   3.956  0.0666 -0.2328  0.3241
    1DIPC   C1A20009   3.157  19.849   4.430 -0.0951 -0.0797 -0.1773
    1DIPC   D2A20010   3.319  19.979   4.753 -0.0281  0.4516  0.1673
    1DIPC   D3A20011   2.822  19.992   4.753  0.1925  0.0023 -0.0606
    1DIPC   C4A20012   2.582  19.623   4.915  0.1514  0.0414 -0.0481
    1DIPC   C1B20013   2.638  19.957   4.273 -0.0909 -0.2329 -0.2220
    1DIPC   D2B20014   2.334  20.066   4.633 -0.1094  0.1343 -0.1961
    1DIPC   D3B20015   1.832  20.023   4.508  0.1731  0.0957 -0.2947
    1DIPC   C4B20016   1.569  19.726   4.624 -0.2354 -0.1482 -0.2464
    1DIPC   NC320017  10.436  15.448   3.543 -0.0355 -0.0141  0.0500
    1DIPC   PO420018  10.394  14.999   3.572 -0.3126  0.0306  0.1286
    1DIPC   GL120019  10.281  15.111   4.049  0.0877  0.1522  0.2460
    1DIPC   GL220020  10.064  15.354   4.124  0.2636 -0.0928  0.2733
    1DIPC   C1A20021  10.140  14.919   4.409 -0.0650 -0.2688  0.2484
    1DIPC   D2A20022  10.224  14.594   4.787 -0.1068  0.0023  0.1167
    1DIPC   D3A20023   9.981  14.714   5.187  0.2414  0.0593  0.0921
    1DIPC   C4A20024  10.266  14.560   5.618  0.1246 -0.0846  0.3373
    1DIPC   C1B20025  10.095  15.538   4.522 -0.0657 -0.0771 -0.2151
    1DIPC   D2B20026  10.020  15.687   4.897  0.0019  0.0352 -0.0996
    1DIPC   D3B20027  10.006  15.964   5.226  0.0234 -0.0669  0.3237
    1DIPC   C4B20028  10.080  15.714   5.549  0.0626 -0.1552 -0.0638
    1DIPC   NC320029  27.803  16.207   2.860  0.0837  0.1721  0.1941
    1DIPC   PO420030   0.094  16.342   3.009  0.1588  0.1959 -0.0044
    1DIPC   GL120031   0.430  16.158   3.316  0.1441 -0.0154 -0.2388
    1DIPC   GL220032   0.439  15.957   3.145 -0.2045 -0.3458 -0.0714
    1DIPC   C1A20033   0.768  16.138   3.512  0.0167  0.1817  0.0520
    1DIPC   D2A20034   1.096  15.857   3.477  0.1563  0.5119  0.1148
    1DIPC   D3A20035   1.118  15.746   3.844  0.1758 -0.0209  0.2211
    1DIPC   C4A20036   0.741  15.926   3.986  0.1987 -0.1539 -0.0403
    1DIPC   C1B20037   0.304  15.730   3.568 -0.2040 -0.0242 -0.2576
    1DIPC   D2B20038   0.639  15.386   3.826  0.2120  0.0448  0.1218
    1DIPC   D3B20039   0.724  15.326   3.342  0.0571  0.1177  0.1489
    1DIPC   C4B20040   0.846  15.710   3.091  0.2388  0.5791 -0.0634
    1DIPC   NC320041   4.689   7.184   2.782 -0.2131 -0.1155 -0.2247
    1DIPC   PO420042   4.898   7.567   2.775 -0.0060 -0.0002 -0.0971
    1DIPC   GL120043   4.795   7.472   3.191  0.0961  0.3149  0.2385
    1DIPC   GL220044   4.990   7.173   3.203  0.3121  0.0936  0.2604
    1DIPC   C1A20045   4.692   7.625   3.590 -0.3902 -0.0847 -0.1083
    1DIPC   D2A20046   4.795   8.014   3.755 -0.0735  0.5081  0.1237
    1DIPC   D3A20047   4.694   7.749   4.134 -0.1501 -0.0961  0.2265
    1DIPC   C4A20048   4.283   7.800   4.349 -0.2439  0.0058 -0.3378
    1DIPC   C1B20049   5.322   7.247   3.497  0.1781 -0.2044  0.4873
    1DIPC   D2B20050   5.563   7.374   3.790  0.3494  0.1176 -0.3021
    1DIPC   D3B20051   5.388   7.181   4.193 -0.0157 -0.1611  0.1168
    1DIPC   C4B20052   5.394   7.303   4.639 -0.3000 -0.0292 -0.0965
    1DIPC   NC320053   5.599   3.495   2.695 -0.0499  0.2231  0.2887
    1DIPC   PO420054   5.529   3.894   2.485 -0.0115  0.2285 -0.1508
    1DIPC   GL120055   5.538   3.987   2.887 -0.1062 -0.1275 -0.2868
    1DIPC   GL220056   5.785   4.225   3.024 -0.0011 -0.0511 -0.0960
    1DIPC   C1A20057   5.388   3.654   3.257  0.1084 -0.2579 -0.0982
    1DIPC   D2A20058   5.728   3.622   3.658  0.0065 -0.2963  0.2373
    1DIPC   D3A20059   5.590   3.702   4.025  0.0704 -0.0104  0.0044
    1DIPC   C4A20060   5.629   3.353   4.299 -0.1660 -0.0335  0.1453
    1DIPC   C1B20061   5.511   4.129   3.395 -0.0815 -0.3014 -0.0972
    1DIPC   D2B20062   5.380   4.172   3.830  0.3271  0.0989 -0.0412
    1DIPC   D3B20063   5.137   4.422   3.643  0.1808 -0.0360 -0.0395
    1DIPC   C4B20064   4.649   4.351   3.792  0.0535  0.0937  0.0190
    1DIPC   NC320065  19.675  26.590   3.294  0.0048  0.2981 -0.4467
    1DIPC   PO420066  19.281  26.444   3.326  0.0014 -0.0898 -0.1864
    1DIPC   GL120067  19.030  26.397   3.772  0.5178 -0.0333  0.0555
    1DIPC   GL220068  19.025  26.632   3.789  0.1416 -0.0813  0.1966
    1DIPC   C1A20069  19.112  26.512   4.289  0.0061  0.1186 -0.2744
    1DIPC   D2A20070  18.905  26.240   4.592 -0.2169 -0.1195 -0.2080
    1DIPC   D3A20071  19.292  26.454   4.789 -0.0286  0.0630 -0.0452
    1DIPC   C4A20072  19.065  26.480   5.143 -0.0945  0.1951 -0.4256
    1DIPC   C1B20073  18.855  26.927   4.022  0.0332 -0.0654 -0.3389
    1DIPC   D2B20074  19.103  27.248   4.150  0.1316  0.0478  0.2113
    1DIPC   D3B20075  19.530  27.200   3.889  0.2722 -0.0801 -0.2664
    1DIPC   C4B20076  19.905  27.291   4.099  0.4627 -0.2387  0.1721
    1DIPC   NC320077   4.506  10.601   3.141  0.0117  0.1401  0.1105
    1DIPC   PO420078   4.174  10.774   3.390  0.2005  0.0640  0.4676
    1DIPC   GL120079   4.081  11.097   3.575 -0.1718 -0.0245  0.0930
    1DIPC   GL220080   4.276  11.319   3.655 -0.4556  0.0134 -0.2335
    1DIPC   C1A20081   3.766  11.093   3.923 -0.1521 -0.0266 -0.0540
    1DIPC   D2A20082   3.896  11.105   4.331  0.1039 -0.0541  0.0628
    1DIPC   D3A20083   3.563  10.922   4.528  0.1196  0.3198  0.1679
    1DIPC   C4A20084   3.554  10.529   4.826  0.0479  0.2256  0.1534
    1DIPC   C1B20085   4.498  11.068   3.982  0.2054 -0.1393  0.2680
    1DIPC   D2B20086   4.818  10.826   4.264  0.0789 -0.1414 -0.1956
    1DIPC   D3B20087   4.703  10.582   4.678 -0.0696  0.2237  0.0039
    1DIPC   C4B20088   4.607  10.794   5.012 -0.1176  0.1082  0.0391
    1DIPC   NC320089  10.848  14.711   3.888 -0.1676 -0.0382 -0.0951
    1DIPC   PO420090  10.845  14.315   4.115  0.4146 -0.2553  0.0373
    1DIPC   GL120091  10.748  14.478   4.439  0.1826  0.2215 -0.1971
    1DIPC   GL220092  10.836  14.791   4.394 -0.1028 -0.0120 -0.1726
    1DIPC   C1A20093  10.705  14.423   4.867  0.0550  0.0171  0.1293
    1DIPC   D2A20094  10.499  14.586   5.156 -0.1104  0.2079  0.0667
    1DIPC   D3A20095  10.532  14.170   5.458  0.0926  0.1629 -0.1853
    1DIPC   C4A20096  10.894  13.960   5.476  0.1580  0.2185 -0.0070
    1DIPC   C1B20097  10.532  14.972   4.704 -0.0227 -0.0128  0.0558
    1DIPC   D2B20098  10.205  15.109   4.920 -0.2886  0.0757  0.2682
    1DIPC   D3B20099  10.407  15.117   5.273  0.0191  0.0080 -0.1978
    1DIPC   C4B20100  10.826  15.054   5.462 -0.1169  0.2031  0.4598
    1DIPC   NC320101   1.445  14.661   2.983 -0.1049  0.2005  0.0611
    1DIPC   PO420102   1.665  14.983   2.763  0.1346  0.2028 -0.0301
    1DIPC   GL120103   1.724  15.098   3.220  0.0633 -0.1743  0.2781
    1DIPC   GL220104   1.419  14.981   3.348 -0.2459 -0.3621  0.0854
    1DIPC   C1A20105   1.900  15.018   3.677  0.2910  0.1248  0.4779
    1DIPC   D2A20106   2.261  14.943   3.781 -0.2900 -0.0591 -0.0047
    1DIPC   D3A20107   2.587  15.252   3.811  0.1414 -0.2932  0.0149
    1DIPC   C4A20108   2.872  15.200   4.113  0.1092  0.0908 -0.2007
    1DIPC   C1B20109   1.026  14.872   3.366  0.1861  0.1267  0.0215
    1DIPC   D2B20110   0.678  14.565   3.414 -0.2444 -0.4039 -0.0872
    1DIPC   D3B20111   0.380  14.771   3.652 -0.0087 -0.0531  0.0804
    1DIPC   C4B20112   0.476  14.999   4.067 -0.1305  0.0446  0.0497
    1DIPC   NC320113  11.733  12.276   4.204  0.0087 -0.0022 -0.1576
    1DIPC   PO420114  11.791  11.856   3.984  0.0537 -0.0667  0.1718
    1DIPC   GL120115  11.657  11.498   4.217  0.1197 -0.2653  0.1175
    1DIPC   GL220116  11.313  11.446   4.358 -0.0701  0.1557 -0.1004
    1DIPC   C1A20117  11.879  11.246   4.561  0.1643  0.3522  0.0478
    1DIPC   D2A20118  11.578  11.244   5.002  0.1702  0.1512  0.0041
    1DIPC   D3A20119  11.389  11.269   5.386  0.1772 -0.2906  0.0733
    1DIPC   C4A20120  11.091  11.077   5.632 -0.1888 -0.2374  0.0880
    1DIPC   C1B20121  10.941  11.242   4.343  0.0602 -0.2115 -0.0146
    1DIPC   D2B20122  10.552  11.393   4.222  0.2112  0.3677  0.0019
    1DIPC   D3B20123  10.356  11.639   4.583 -0.1402 -0.1740 -0.2941
    1DIPC   C4B20124  10.514  11.518   5.051 -0.5631  0.1596  0.1806
    1DIPC   NC320125  14.504   1.761   3.668  0.0362  0.0068  0.2763
    1DIPC   PO420126  14.345   1.272   3.726  0.3315 -0.0678 -0.0116
    1DIPC   GL120127  14.114   0.952   3.965  0.0878  0.1315  0.2200
    1DIPC   GL220128  14.216   1.188   4.183  0.0409 -0.2290  0.1982
    1DIPC   C1A20129  14.303   0.722   4.352  0.1809  0.0482 -0.2873
    1DIPC   D2A20130  14.312   0.528   4.790 -0.1522  0.1154 -0.1783
    1DIPC   D3A20131  14.297   0.774   5.049 -0.0814  0.1989  0.1331
    1DIPC   C4A20132  14.411   0.800   5.441  0.0648  0.2873  0.1011
    1DIPC   C1B20133  14.374   1.106   4.667 -0.0001 -0.2336 -0.2504
    1DIPC   D2B20134  14.517   1.271   5.016 -0.0947  0.1276 -0.3847
    1DIPC   D3B20135  14.230   1.228   5.400 -0.4136 -0.0400  0.0901
    1DIPC   C4B20136  13.818   1.386   5.525 -0.0169 -0.1541  0.1811
    1DIPC   NC320137  17.147   5.979   3.332  0.0515  0.1042  0.2417
    1DIPC   PO420138  16.760   5.775   3.555 -0.0305  0.0474 -0.1422
    1DIPC   GL120139  16.720   5.567   4.015 -0.1260 -0.0017  0.0468
    1DIPC   GL220140  16.448   5.444   4.143 -0.2684 -0.1634  0.0536
    1DIPC   C1A20141  16.843   5.215   4.374  0.0979 -0.1523  0.0644
    1DIPC   D2A20142  16.596   5.134   4.715  0.0336  0.2238  0.1395
    1DIPC   D3A20143  16.440   5.302   5.066 -0.1137 -0.0431 -0.2878
    1DIPC   C4A20144  16.297   5.666   5.196  0.0951 -0.3261 -0.1202
    1DIPC   C1B20145  16.605   5.597   4.582 -0.0211  0.2651  0.0845
    1DIPC   D2B20146  16.608   5.899   4.887 -0.1558  0.0869  0.2044
    1DIPC   D3B20147  16.736   5.806   5.304  0.0459  0.1876 -0.2200
    1DIPC   C4B20148  16.608   5.892   5.633  0.2061  0.0766  0.3245
    1DIPC   NC320149  26.214   7.093   2.270  0.1049 -0.1837 -0.0061
    1DIPC   PO420150  26.527   6.876   2.447  0.2690  0.1407 -0.0671
    1DIPC   GL120151  26.821   7.168   2.723 -0.1526  0.0272 -0.0737
    1DIPC   GL220152  26.816   7.425   2.847 -0.0827  0.1564 -0.1485
    1DIPC   C1A20153  26.917   7.063   3.138  0.1736 -0.0045  0.1166
    1DIPC   D2A20154  27.087   7.150   3.485  0.1266 -0.0853 -0.1118
    1DIPC   D3A20155  27.445   7.075   3.671 -0.0120 -0.0907  0.3540
    1DIPC   C4A20156  27.350   6.956   4.092 -0.2454 -0.0668  0.1304
    1DIPC   C1B20157  26.948   7.615   3.240 -0.1705  0.0875 -0.0260
    1DIPC   D2B20158  26.863   7.777   3.744 -0.2852 -0.1077  0.3310
    1DIPC   D3B20159  27.029   7.508   3.967  0.3193 -0.0633 -0.0433
    1DIPC   C4B20160  27.293   7.543   4.226 -0.0240  0.0243  0.0309
    1DIPC   NC320161  21.489  11.210   3.399  0.0114  0.2493 -0.0085
    1DIPC   PO420162  21.661  10.915   3.647  0.2336  0.1747 -0.0783
    1DIPC   GL120163  21.918  10.998   3.923  0.2184  0.2371  0.0117
    1DIPC   GL220164  22.240  11.075   3.908 -0.0606  0.0569  0.1286
    1DIPC   C1A20165  22.083  10.801   4.301  0.1616 -0.0727 -0.1450
    1DIPC   D2A20166  22.098  10.865   4.790  0.3499 -0.2752  0.2742
    1DIPC   D3A20167  22.459  10.685   5.100 -0.1605 -0.2257 -0.2160
    1DIPC   C4A20168  22.239  10.278   5.267 -0.1070 -0.1965  0.0902
    1DIPC   C1B20169  22.522  10.753   4.005 -0.2293 -0.0710 -0.0752
    1DIPC   D2B20170  22.904  10.628   4.035  0.0581  0.0276  0.0522
    1DIPC   D3B20171  23.127  10.770   3.615 -0.2932 -0.1663 -0.2857
    1DIPC   C4B20172  23.419  10.392   3.552  0.0340  0.0904  0.0984
    1DIPC   NC320173  15.934  16.413   3.836 -0.2179 -0.0775 -0.3421
    1DIPC   PO420174  15.429  16.568   3.960  0.1900  0.1612  0.0570
    1DIPC   GL120175  15.274  16.391   4.385 -0.0641 -0.1235 -0.0202
    1DIPC   GL220176  15.391  16.362   4.678 -0.0901 -0.1841  0.0194
    1DIPC   C1A20177  14.907  16.511   4.709 -0.2312  0.0203 -0.0927
    1DIPC   D2A20178  14.514  16.472   4.904 -0.0325 -0.1581 -0.0182
    1DIPC   D3A20179  14.529  16.612   5.349 -0.1612 -0.0963 -0.2564
    1DIPC   C4A20180  14.658  16.366   5.658 -0.3405 -0.2623  0.0805
    1DIPC   C1B20181  15.319  16.860   4.734  0.2378 -0.0382  0.1703
    1DIPC   D2B20182  15.228  17.234   4.977  0.1333  0.0442 -0.0850
    1DIPC   D3B20183  15.474  16.850   5.224 -0.0201  0.1526  0.0456
    1DIPC   C4B20184  15.356  16.370   5.256  0.1875  0.0010  0.2593
    1DIPC   NC320185  19.117  21.683   3.212 -0.0001  0.1296  0.0312
    1DIPC   PO420186  19.371  21.369   3.542 -0.0511  0.1990 -0.0533
    1DIPC   GL120187  19.445  21.320   4.039  0.0537  0.4009 -0.1443
    1DIPC   GL220188  19.695  21.520   4.094 -0.3109 -0.0295  0.2114
    1DIPC   C1A20189  19.351  21.272   4.493  0.2775 -0.0449 -0.0818
    1DIPC   D2A20190  19.297  21.343   4.938 -0.0248  0.4295  0.2154
    1DIPC   D3A20191  19.272  21.152   5.246  0.0337 -0.1314 -0.2430
    1DIPC   C4A20192  19.158  21.406   5.511 -0.1041  0.2492  0.3312
    1DIPC   C1B20193  19.828  21.521   4.479 -0.2292 -0.2913 -0.0482
    1DIPC   D2B20194  19.895  21.824   4.813  0.2186 -0.2327  0.2045
    1DIPC   D3B20195  20.050  21.723   5.148 -0.1328  0.0031 -0.0186
    1DIPC   C4B20196  20.296  21.418   5.247  0.3070 -0.1273 -0.2152
    1DIPC   NC320197   1.811   3.246   1.819 -0.1705  0.3008  0.1407
    1DIPC   PO420198   1.370   3.438   1.921  0.1454 -0.3768 -0.0661
    1DIPC   GL120199   1.722   3.428   2.253 -0.0120  0.0706  0.0165
    1DIPC   GL220200   1.899   3.651   2.404  0.1342 -0.0687 -0.0517
    1DIPC   C1A20201   1.873   3.072   2.495 -0.3292  0.1348  0.1444
    1DIPC   D2A20202   2.106   2.772   2.595  0.1202  0.1317  0.1971
    1DIPC   D3A20203   1.790   2.726   2.928 -0.0993  0.4332 -0.1285
    1DIPC   C4A20204   1.850   2.938   3.379 -0.2803 -0.0342  0.0482
    1DIPC   C1B20205   1.633   3.612   2.780 -0.1702 -0.3328 -0.1373
    1DIPC   D2B20206   1.591   3.730   3.200  0.0675 -0.2971 -0.0150
    1DIPC   D3B20207   1.170   3.713   3.432 -0.0961  0.0357  0.1366
    1DIPC   C4B20208   0.911   4.172   3.557  0.4228  0.1552  0.2782
    1DIPC   NC320209   2.567  15.848   3.006  0.0159  0.1416 -0.2278
    1DIPC   PO420210   2.836  16.017   3.428  0.2197 -0.1657  0.3249
    1DIPC   GL120211   3.023  16.223   3.654  0.1791  0.2778  0.0677
    1DIPC   GL220212   3.410  16.165   3.566  0.1437  0.0777 -0.0680
    1DIPC   C1A20213   3.100  16.376   4.032  0.2184  0.1645 -0.1883
    1DIPC   D2A20214   2.877  16.275   4.428 -0.1497  0.2141  0.2199
    1DIPC   D3A20215   2.524  16.273   4.129  0.2878 -0.0826 -0.4110
    1DIPC   C4A20216   2.182  16.249   4.358 -0.0545 -0.1945  0.3671
    1DIPC   C1B20217   3.526  15.971   3.948 -0.0572  0.1810 -0.1265
    1DIPC   D2B20218   3.347  15.933   4.238 -0.1912  0.1846 -0.3824
    1DIPC   D3B20219   3.306  16.131   4.684 -0.3476 -0.0549  0.4242
    1DIPC   C4B20220   2.894  15.975   4.894 -0.1905 -0.0245 -0.0050
    1DIPC   NC320221  13.594  22.164   3.054  0.2927 -0.1269  0.0505
    1DIPC   PO420222  13.990  22.208   3.299  0.1875 -0.0691 -0.1312
    1DIPC   GL120223  13.981  22.208   3.761 -0.2175  0.0803 -0.1870
    1DIPC   GL220224  14.341  22.327   3.958  0.2929  0.1414  0.0891
    1DIPC   C1A20225  13.940  22.326   4.214 -0.2034  0.1890  0.2118
    1DIPC   D2A20226  13.991  22.193   4.697  0.4216  0.2714  0.1349
    1DIPC   D3A20227  14.110  22.631   4.761  0.0444  0.0112 -0.1630
    1DIPC   C4A20228  14.411  22.838   4.863 -0.0026 -0.2551 -0.2010
    1DIPC   C1B20229  14.409  22.118   4.357  0.0097 -0.0165  0.1089
    1DIPC   D2B20230  14.337  21.677   4.473  0.0406  0.1427 -0.1458
    1DIPC   D3B20231  14.032  21.515   4.670 -0.3654  0.1136  0.1495
    1DIPC   C4B20232  14.012  21.470   5.102  0.1324 -0.3402 -0.0973
    1DIPC   NC320233  26.591  22.335   3.013 -0.2069 -0.1479  0.0422
    1DIPC   PO420234  26.785  22.773   2.921 -0.2890 -0.2677 -0.0583
    1DIPC   GL120235  26.863  22.990   3.378  0.1642  0.0757  0.0189
    1DIPC   GL220236  26.783  23.320   3.464  0.0885  0.2089  0.4741
    1DIPC   C1A20237  27.126  22.912   3.580 -0.2547 -0.2642  0.2915
    1DIPC   D2A20238  27.191  22.814   3.903 -0.1792 -0.3649 -0.1706
    1DIPC   D3A20239  27.083  22.782   4.306  0.1899  0.5039 -0.1706
    1DIPC   C4A20240  27.156  22.272   4.525  0.0280 -0.0692  0.0818
    1DIPC   C1B20241  26.624  23.638   3.640  0.1547 -0.4586  0.2915
    1DIPC   D2B20242  26.202  23.881   3.700 -0.0165 -0.0727 -0.2235
    1DIPC   D3B20243  25.985  23.936   4.163 -0.1274  0.0194  0.1731
    1DIPC   C4B20244  25.973  23.645   4.459  0.3973  0.3109 -0.2054
    1DIPC   NC320245  21.571  17.263   3.687  0.1211 -0.1763 -0.0713
    1DIPC   PO420246  22.045  17.269   3.545 -0.0299  0.1840  0.4093
    1DIPC   GL120247  22.005  17.324   3.977  0.0621  0.1590 -0.4432
    1DIPC   GL220248  22.003  17.593   4.201  0.1109  0.0507 -0.1565
    1DIPC   C1A20249  22.147  17.126   4.419  0.0397  0.0038 -0.0135
    1DIPC   D2A20250  22.343  16.920   4.805 -0.4100 -0.0503 -0.1036
    1DIPC   D3A20251  22.208  17.294   4.942  0.1968  0.1987  0.1821
    1DIPC   C4A20252  22.487  17.506   5.243 -0.2266 -0.3690  0.0110
    1DIPC   C1B20253  21.949  17.548   4.608 -0.2029 -0.2321  0.1013
    1DIPC   D2B20254  21.843  17.626   5.021  0.1483 -0.0693 -0.1588
    1DIPC   D3B20255  22.084  17.876   5.356  0.1794  0.3763  0.3585
    1DIPC   C4B20256  22.108  18.371   5.315  0.2291  0.1808  0.0412
    1DIPC   NC320257   9.304   0.598   2.932  0.1600  0.0618 -0.2001
    1DIPC   PO420258   9.637   0.504   3.163  0.2425 -0.0880  0.2725
    1DIPC   GL120259   9.643   0.537   3.577  0.0679  0.0789  0.1755
    1DIPC   GL220260   9.538   0.376   3.685 -0.0161  0.2129  0.1261
    1DIPC   C1A20261   9.926   0.781   3.894  0.1198  0.0372  0.1558
    1DIPC   D2A20262  10.259   0.695   4.204  0.1529 -0.1292  0.2777
    1DIPC   D3A20263  10.030   1.030   4.418  0.0359 -0.0287 -0.2310
    1DIPC   C4A20264   9.645   1.058   4.468 -0.1416  0.2888  0.2670
    1DIPC   C1B20265   9.379   0.091   3.930  0.3979 -0.1621 -0.2346
    1DIPC   D2B20266   9.081  27.997   4.066  0.0044 -0.2004 -0.0875
    1DIPC   D3B20267   9.046  27.966   3.646  0.2431  0.0436 -0.0803
    1DIPC   C4B20268   8.964   0.226   3.577  0.2700 -0.1111 -0.2250
    1DIPC   NC320269  15.825   3.479   3.053  0.1300 -0.0569  0.4596
    1DIPC   PO420270  15.830   3.894   3.248 -0.0675  0.0603 -0.0338
    1DIPC   GL120271  15.641   3.954   3.692 -0.2200  0.1785  0.0133
    1DIPC   GL220272  15.713   4.274   3.847  0.0987  0.1692 -0.0149
    1DIPC   C1A20273  15.456   3.871   4.095 -0.1695  0.2194  0.2833
    1DIPC   D2A20274  14.965   3.930   4.308  0.0785  0.1255 -0.2958
    1DIPC   D3A20275  15.008   4.305   4.518  0.3103 -0.3802  0.2350
    1DIPC   C4A20276  14.895   4.222   4.914  0.0559 -0.1383  0.0802
    1DIPC   C1B20277  15.920   4.088   4.211 -0.2182 -0.2379 -0.2818
    1DIPC   D2B20278  15.931   4.013   4.654 -0.0379 -0.0475  0.0052
    1DIPC   D3B20279  15.962   3.787   5.121  0.2940 -0.3242 -0.1258
    1DIPC   C4B20280  16.245   3.534   5.340 -0.0401  0.1774  0.0153
    1DIPC   NC320281  10.310  23.986   2.817  0.2069 -0.1658 -0.1097
    1DIPC   PO420282  10.666  24.275   2.805  0.2211 -0.2550  0.1312
    1DIPC   GL120283  10.759  24.068   3.133 -0.1838  0.1981 -0.0806
    1DIPC   GL220284  10.484  24.023   3.274 -0.2234  0.1442 -0.0173
    1DIPC   C1A20285  11.128  23.915   3.425  0.2241  0.0321  0.0763
    1DIPC   D2A20286  11.492  24.131   3.491 -0.1376  0.2236  0.1125
    1DIPC   D3A20287  11.952  23.871   3.521  0.5309  0.1896  0.1128
    1DIPC   C4A20288  11.931  23.600   3.818  0.0267  0.0480  0.1897
    1DIPC   C1B20289  10.463  24.038   3.715 -0.0374  0.1009  0.2584
    1DIPC   D2B20290  10.689  24.152   4.009 -0.3546  0.2299  0.0644
    1DIPC   D3B20291  10.885  23.814   3.842 -0.1481 -0.0500  0.3688
    1DIPC   C4B20292  10.896  23.459   4.138  0.3129 -0.3325 -0.0865
    1DIPC   NC320293  18.949  26.837   3.310 -0.4971 -0.2446 -0.0258
    1DIPC   PO420294  19.379  26.918   3.487  0.2352  0.0682 -0.3064
    1DIPC   GL120295  19.498  26.663   3.785  0.0231 -0.1610 -0.2653
    1DIPC   GL220296  19.499  26.385   3.772  0.0829 -0.0179 -0.0270
    1DIPC   C1A20297  19.455  26.900   4.222 -0.1759 -0.0199  0.0954
    1DIPC   D2A20298  19.304  26.977   4.557  0.1380 -0.0789 -0.0024
    1DIPC   D3A20299  19.185  26.955   5.045  0.0663  0.1818  0.2154
    1DIPC   C4A20300  19.389  27.189   5.307 -0.2683 -0.0520  0.1661
    1DIPC   C1B20301  19.596  26.382   4.129 -0.1215  0.4436 -0.0315
    1DIPC   D2B20302  20.076  26.416   4.370  0.2094 -0.0921 -0.3448
    1DIPC   D3B20303  20.115  25.904   4.595 -0.1801  0.0427  0.0171
    1DIPC   C4B20304  20.040  25.903   5.037  0.0722  0.2306  0.0821
    1DIPC   NC320305  26.574   9.035   2.052 -0.1062 -0.1035  0.2304
    1DIPC   PO420306  26.442   9.219   2.556  0.0708  0.1023 -0.0099
    1DIPC   GL120307  26.248   9.282   3.028  0.2336 -0.0735  0.2852
    1DIPC   GL220308  25.913   9.301   3.175 -0.1626  0.0447  0.2191
    1DIPC   C1A20309  26.371   9.519   3.398  0.1133 -0.1548 -0.0203
    1DIPC   D2A20310  26.752   9.683   3.633 -0.1192  0.0748  0.2516
    1DIPC   D3A20311  26.834   9.638   4.126  0.2603  0.0530 -0.0283
    1DIPC   C4A20312  26.919  10.041   4.268  0.2228  0.0348 -0.0672
    1DIPC   C1B20313  25.892   9.416   3.586  0.2877  0.1017  0.0383
    1DIPC   D2B20314  25.777   9.383   4.050  0.3528 -0.0980 -0.2514
    1DIPC   D3B20315  26.182   9.131   4.148  0.2469  0.1795  0.3672
    1DIPC   C4B20316  26.469   9.127   4.513  0.0492  0.2654  0.3320
    1DIPC   NC320317  27.455   4.192   2.410  0.3760  0.2928 -0.2438
    1DIPC   PO420318  27.585   4.629   2.496  0.0873 -0.1123  0.0104
    1DIPC   GL120319  27.727   4.539   2.941 -0.2939  0.1528  0.0740
    1DIPC   GL220320  27.738   4.190   2.856 -0.0209  0.2849 -0.0553
    1DIPC   C1A20321  27.667   4.632   3.382 -0.2152  0.0137  0.0140
    1DIPC   D2A20322  27.820   4.637   3.806  0.0761  0.0499 -0.0700
    1DIPC   D3A20323   0.081   4.734   4.121  0.1232 -0.2050 -0.0911
    1DIPC   C4A20324   0.141   4.491   4.453  0.0557  0.0201  0.0379
    1DIPC   C1B20325  28.057   4.203   3.141  0.0538 -0.1682  0.1157
    1DIPC   D2B20326  28.036   4.192   3.534 -0.1230  0.0292  0.1363
    1DIPC   D3B20327   0.074   4.611   3.466 -0.2166 -0.2473 -0.0924
    1DIPC   C4B20328   0.574   4.627   3.481  0.2147 -0.1427  0.1190
    1DIPC   NC320329  10.222  24.447   2.608 -0.0480  0.0812 -0.2324
    1DIPC   PO420330  10.235  24.490   3.110 -0.3290 -0.2814 -0.3561
    1DIPC   GL120331  10.284  24.534   3.557  0.0641  0.1080 -0.2125
    1DIPC   GL220332  10.422  24.814   3.574 -0.0170  0.0632 -0.1815
    1DIPC   C1A20333  10.185  24.367   3.922 -0.1388  0.0372  0.3471
    1DIPC   D2A20334  10.189  24.214   4.337 -0.0370  0.2381  0.1924
    1DIPC   D3A20335  10.311  23.849   4.107 -0.0262 -0.1982 -0.0474
    1DIPC   C4A20336  10.437  23.602   3.883  0.1602  0.4475 -0.0105
    1DIPC   C1B20337  10.614  24.608   3.928 -0.0475 -0.1696 -0.1818
    1DIPC   D2B20338  10.598  24.501   4.363 -0.0987 -0.1520  0.0322
    1DIPC   D3B20339  10.992  24.387   4.383 -0.3342 -0.0367 -0.0594
    1DIPC   C4B20340  10.967  23.956   4.390 -0.1577  0.0621 -0.1331
    1DIPC   NC320341  27.156  22.744   2.559  0.0433 -0.1577 -0.2648
    1DIPC   PO420342  27.101  22.376   2.863 -0.3837  0.0750  0.1901
    1DIPC   GL120343  27.158  22.624   3.163  0.2705  0.0012 -0.0804
    1DIPC   GL220344  26.939  22.447   3.369  0.0516 -0.1512 -0.1866
    1DIPC   C1A20345  27.471  22.500   3.458  0.0084 -0.0545  0.1651
    1DIPC   D2A20346  27.722  22.288   3.783 -0.3303 -0.0105 -0.0378
    1DIPC   D3A20347  27.878  22.613   3.786  0.0730  0.0471 -0.1904
    1DIPC   C4A20348  27.826  22.894   4.168 -0.1052 -0.0018  0.0485
    1DIPC   C1B20349  27.027  22.328   3.653  0.0167  0.3033 -0.3019
    1DIPC   D2B20350  27.041  22.373   4.030  0.1802 -0.1015  0.1958
    1DIPC   D3B20351  27.491  22.513   4.195 -0.2063  0.0263  0.2012
    1DIPC   C4B20352  27.816  22.231   4.254  0.1315 -0.2267 -0.4344
    1DIPC   NC320353  16.143   2.766   3.694 -0.0819 -0.1634 -0.1777
    1DIPC   PO420354  15.635   2.718   3.853  0.2934 -0.1403  0.1500
    1DIPC   GL120355  15.803   2.666   4.239  0.0261  0.0605 -0.0152
    1DIPC   GL220356  15.929   2.410   4.343 -0.0136 -0.1204  0.1205
    1DIPC   C1A20357  15.901   3.153   4.487  0.0018  0.1954 -0.0092
    1DIPC   D2A20358  16.079   3.373   4.812  0.0068 -0.1875 -0.0900
    1DIPC   D3A20359  15.993   3.147   5.168 -0.3339  0.1591 -0.0841
    1DIPC   C4A20360  15.789   3.406   5.423  0.0591  0.3619 -0.0416
    1DIPC   C1B20361  15.814   2.273   4.696 -0.2406  0.1763 -0.0721
    1DIPC   D2B20362  15.480   2.221   5.024 -0.1212  0.0676 -0.0591
    1DIPC   D3B20363  15.706   2.602   5.064 -0.2109  0.0109  0.1145
    1DIPC   C4B20364  15.841   2.821   4.805  0.0135 -0.3269 -0.5141
    1DIPC   NC320365  22.226  16.790   3.442 -0.1044 -0.3079 -0.0963
    1DIPC   PO420366  22.089  16.388   3.558  0.0730  0.0737  0.1723
    1DIPC   GL120367  22.112  16.357   4.080  0.0964 -0.0994  0.3629
    1DIPC   GL220368  22.293  16.241   4.246 -0.2081  0.3885  0.0856
    1DIPC   C1A20369  21.988  16.654   4.461  0.1508  0.0466 -0.2208
    1DIPC   D2A20370  21.892  16.880   4.840 -0.1143 -0.0606  0.1734
    1DIPC   D3A20371  22.146  16.766   5.226  0.2441 -0.1197 -0.0148
    1DIPC   C4A20372  22.050  16.311   5.397  0.3006  0.3595  0.0537
    1DIPC   C1B20373  22.533  16.234   4.605  0.0702  0.2176  0.1533
    1DIPC   D2B20374  22.614  16.470   4.983  0.0623  0.1472  0.2355
    1DIPC   D3B20375  22.533  16.141   5.211  0.0143  0.1263 -0.2535
    1DIPC   C4B20376  22.783  15.904   5.406  0.0783  0.1302 -0.3088
    1DIPC   NC320377   3.612   3.640   1.823  0.1250 -0.1324  0.0568
    1DIPC   PO420378   3.887   4.065   1.818  0.0402  0.1998  0.2516
    1DIPC   GL120379   3.741   3.912   2.236 -0.1804 -0.2826  0.1450
    1DIPC   GL220380   3.417   3.720   2.405 -0.1241 -0.2210  0.2259
    1DIPC   C1A20381   4.002   3.763   2.513  0.0495 -0.2718  0.1486
    1DIPC   D2A20382   4.078   3.541   2.861  0.1184  0.0178  0.1653
    1DIPC   D3A20383   3.753   3.247   2.876  0.3390  0.0424 -0.4796
    1DIPC   C4A20384   3.379   3.358   3.038  0.0121  0.2581  0.2362
    1DIPC   C1B20385   3.507   3.805   2.780 -0.0075  0.0516 -0.2940
    1DIPC   D2B20386   3.368   4.007   3.205  0.0055 -0.1342 -0.0513
    1DIPC   D3B20387   2.897   3.888   3.217 -0.1813  0.0481 -0.0280
    1DIPC   C4B20388   2.938   3.424   3.321 -0.3776 -0.0674 -0.0382
    1DIPC   NC320389  13.567  12.071   4.033 -0.2880 -0.0020  0.0610
    1DIPC   PO420390  13.984  11.882   3.927  0.1162 -0.0064  0.1812
    1DIPC   GL120391  13.789  11.735   4.334  0.0807  0.1546 -0.2670
    1DIPC   GL220392  13.972  11.796   4.660  0.0093 -0.1852  0.0356
    1DIPC   C1A20393  13.498  11.473   4.372 -0.0266 -0.0349 -0.0556
    1DIPC   D2A20394  13.279  11.191   4.150  0.2614 -0.1197 -0.0520
    1DIPC   D3A20395  12.922  11.318   4.399 -0.3935 -0.2517  0.0257
    1DIPC   C4A20396  12.814  11.083   4.763  0.1372  0.1652  0.0135
    1DIPC   C1B20397  13.692  11.552   4.881 -0.1045  0.0823  0.0779
    1DIPC   D2B20398  13.603  11.659   5.392 -0.0516 -0.2359 -0.1266
    1DIPC   D3B20399  13.980  11.349   5.312  0.1910 -0.1158  0.0353
    1DIPC   C4B20400  14.036  11.090   5.544  0.2398  0.1625 -0.0201
    1DIPC   NC320401  20.220  15.220   2.763 -0.0163 -0.4473 -0.1201
    1DIPC   PO420402  19.977  14.989   3.213 -0.2219 -0.0226 -0.1920
    1DIPC   GL120403  19.979  14.886   3.753 -0.1724 -0.2401  0.0597
    1DIPC   GL220404  19.851  14.581   3.906 -0.1094  0.1063 -0.0339
    1DIPC   C1A20405  20.285  14.815   4.160  0.3816 -0.0141  0.1187
    1DIPC   D2A20406  20.370  14.617   4.684 -0.0737 -0.1130  0.1954
    1DIPC   D3A20407  20.498  14.870   5.121 -0.2005 -0.1158  0.1381
    1DIPC   C4A20408  20.486  14.826   5.571 -0.0542 -0.0342  0.2358
    1DIPC   C1B20409  19.807  14.735   4.323 -0.3972 -0.2662  0.2881
    1DIPC   D2B20410  19.573  14.713   4.758 -0.2344 -0.1274 -0.0982
    1DIPC   D3B20411  19.458  14.483   5.155 -0.1689  0.3245  0.3447
    1DIPC   C4B20412  19.833  14.329   5.345  0.0808  0.1438 -0.3383
    1DIPC   NC320413  19.516  17.263   3.457 -0.1649  0.1565  0.2129
    1DIPC   PO420414  19.778  16.931   3.731 -0.2751  0.1715 -0.1729
    1DIPC   GL120415  19.644  16.909   4.178 -0.1596 -0.3930  0.0841
    1DIPC   GL220416  20.048  17.063   4.286  0.1905 -0.0905 -0.1002
    1DIPC   C1A20417  19.620  16.537   4.519 -0.0787 -0.1572 -0.1984
    1DIPC   D2A20418  19.502  16.631   4.939  0.0039  0.1349 -0.2518
    1DIPC   D3A20419  19.966  16.574   4.954 -0.2642  0.1867 -0.0294
    1DIPC   C4A20420  20.118  16.540   4.465 -0.0799 -0.1621  0.1057
    1DIPC   C1B20421  19.869  17.014   4.698  0.1705  0.3432  0.2965
    1DIPC   D2B20422  19.735  16.998   5.099 -0.0663 -0.0348  0.0544
    1DIPC   D3B20423  19.550  17.321   5.041  0.2349 -0.0202  0.2532
    1DIPC   C4B20424  19.692  17.731   5.290 -0.1442  0.0885  0.1488
    1DIPC   NC320425  20.254   0.182   3.108  0.0241 -0.2842 -0.1265
    1DIPC   PO420426  19.881   0.283   3.008 -0.2702 -0.0906 -0.0800
    1DIPC   GL120427  19.869   0.400   3.427  0.2133 -0.1147 -0.0063
    1DIPC   GL220428  20.093   0.281   3.591 -0.1965  0.1632 -0.3430
    1DIPC   C1A20429  19.796   0.677   3.754  0.0805 -0.1886  0.1126
    1DIPC   D2A20430  19.874   1.068   3.939  0.0363 -0.1473  0.2952
    1DIPC   D3A20431  20.065   0.875   4.222  0.2542  0.0570  0.1076
    1DIPC   C4A20432  20.165   0.423   4.121  0.0865  0.0688  0.0754
    1DIPC   C1B20433  19.841   0.028   3.940  0.2044 -0.0458 -0.0919
    1DIPC   D2B20434  19.452   0.108   4.182 -0.0503 -0.0010  0.0198
    1DIPC   D3B20435  19.714   0.090   4.604 -0.1736  0.1877  0.0644
    1DIPC   C4B20436  20.102   0.068   4.728  0.5415  0.0453  0.3990
    1DIPC   NC320437  23.891   5.461   2.684 -0.3603  0.0915  0.1029
    1DIPC   PO420438  23.694   5.052   2.843  0.1727  0.0090  0.1933
    1DIPC   GL120439  23.608   5.010   3.252  0.1535  0.0096  0.1995
    1DIPC   GL220440  23.833   4.778   3.408  0.2170 -0.1150  0.0659
    1DIPC   C1A20441  23.654   5.267   3.632 -0.0393 -0.2820 -0.0593
    1DIPC   D2A20442  23.419   5.497   3.969 -0.1382  0.3252  0.2255
    1DIPC   D3A20443  23.522   5.147   4.055 -0.0866  0.1598  0.3142
    1DIPC   C4A20444  23.360   4.846   4.306  0.0063  0.2114  0.1422
    1DIPC   C1B20445  23.856   4.776   3.829 -0.3726  0.1513 -0.0827
    1DIPC   D2B20446  23.885   4.835   4.293  0.1767  0.0555 -0.1904
    1DIPC   D3B20447  23.856   4.371   4.636  0.1636 -0.0144 -0.2820
    1DIPC   C4B20448  23.684   4.393   5.014 -0.3341  0.2757  0.1147
    1DIPC   NC320449  25.166  22.848   2.794 -0.0634  0.3157 -0.0707
    1DIPC   PO420450  25.140  23.042   3.126  0.0598  0.4373  0.0722
    1DIPC   GL120451  25.398  23.041   3.559  0.2608 -0.0436  0.0450
    1DIPC   GL220452  25.767  23.164   3.679  0.0952 -0.3115 -0.1192
    1DIPC   C1A20453  25.500  22.975   4.047  0.2112 -0.0485 -0.0760
    1DIPC   D2A20454  25.526  22.922   4.506  0.0952 -0.3229 -0.0717
    1DIPC   D3A20455  25.967  22.698   4.581  0.0517 -0.0119 -0.1995
    1DIPC   C4A20456  26.040  22.251   4.600  0.3182  0.0888 -0.2200
    1DIPC   C1B20457  25.738  23.420   3.999  0.0595  0.2188 -0.2067
    1DIPC   D2B20458  25.374  23.384   4.345 -0.1180  0.0597 -0.0965
    1DIPC   D3B20459  25.499  23.479   4.865  0.1426 -0.2674  0.2762
    1DIPC   C4B20460  25.815  23.718   5.027  0.0152 -0.1580  0.0243
    1DIPC   NC320461  27.373  16.413   2.043  0.0723  0.0796 -0.1599
    1DIPC   PO420462  27.306  16.364   2.569 -0.0268 -0.0735 -0.0172
    1DIPC   GL120463  27.357  16.443   3.008 -0.0803  0.1943  0.0205
    1DIPC   GL220464  27.471  16.250   3.206  0.3272  0.1889  0.0552
    1DIPC   C1A20465  27.367  16.720   3.349 -0.1793 -0.1422 -0.2410
    1DIPC   D2A20466  27.229  17.135   3.386 -0.2161 -0.1824 -0.1483
    1DIPC   D3A20467  27.675  17.156   3.318 -0.0840 -0.1671 -0.1301
    1DIPC   C4A20468  27.776  17.645   3.435  0.0408  0.5977 -0.0352
    1DIPC   C1B20469  27.553  16.302   3.654  0.1003  0.1668 -0.0926
    1DIPC   D2B20470  27.655  16.412   4.042  0.2255  0.0182 -0.1831
    1DIPC   D3B20471  28.105  16.537   4.041 -0.1910  0.1723 -0.1601
    1DIPC   C4B20472   0.286  16.429   4.350  0.1173  0.0190  0.4453
    1DIPC   NC320473   2.391  14.180   2.977  0.1522  0.0814  0.2155
    1DIPC   PO420474   2.218  13.800   3.021  0.2519 -0.1203  0.2952
    1DIPC   GL120475   2.098  13.535   3.311 -0.1093 -0.2194  0.0736
    1DIPC   GL220476   2.360  13.390   3.349  0.3095 -0.0448 -0.0934
    1DIPC   C1A20477   1.817  13.631   3.618 -0.0153 -0.1041 -0.1038
    1DIPC   D2A20478   1.426  13.923   3.616 -0.1366  0.4492 -0.3385
    1DIPC   D3A20479   0.978  13.738   3.588  0.0701  0.0856  0.0462
    1DIPC   C4A20480   0.976  13.377   3.966 -0.0304 -0.2623 -0.0486
    1DIPC   C1B20481   2.647  13.163   3.465  0.0476 -0.2705 -0.1867
    1DIPC   D2B20482   3.079  13.030   3.397 -0.3441 -0.0967 -0.0621
    1DIPC   D3B20483   2.849  12.758   3.704 -0.1224 -0.0082  0.0924
    1DIPC   C4B20484   2.890  12.788   4.181  0.0850  0.0040 -0.2202
    1DIPC   NC320485  14.185  23.094   3.357  0.0065  0.3160 -0.0165
    1DIPC   PO420486  13.738  23.068   3.298  0.3452  0.0700 -0.3262
    1DIPC   GL120487  13.677  23.021   3.673 -0.1106 -0.2749  0.0835
    1DIPC   GL220488  13.661  23.298   3.853  0.1179 -0.1159  0.2843
    1DIPC   C1A20489  13.387  22.878   4.004  0.0802 -0.3173 -0.3630
    1DIPC   D2A20490  13.283  22.568   4.214 -0.1426  0.0361 -0.3316
    1DIPC   D3A20491  12.812  22.658   4.343 -0.2381  0.1467  0.0348
    1DIPC   C4A20492  12.772  22.884   4.661  0.1277 -0.0065  0.1987
    1DIPC   C1B20493  13.333  23.310   4.218 -0.2210 -0.2444 -0.1375
    1DIPC   D2B20494  13.233  23.002   4.501  0.0009  0.1408 -0.0811
    1DIPC   D3B20495  13.121  23.067   4.977  0.0221  0.0818 -0.1206
    1DIPC   C4B20496  13.051  23.461   5.111 -0.0762  0.0648 -0.3335
    1DIPC   NC320497   1.774  23.616   2.205 -0.2735  0.2722  0.1520
    1DIPC   PO420498   1.951  23.961   2.454  0.1677 -0.1052  0.2577
    1DIPC   GL120499   2.053  23.785   2.828 -0.1373  0.3493 -0.4878
    1DIPC   GL220500   1.803  23.963   3.081  0.2569 -0.0245 -0.4514
    1DIPC   C1A20501   1.979  23.488   3.219 -0.1828 -0.0119 -0.1160
    1DIPC   D2A20502   1.992  23.054   3.482 -0.1368 -0.1180  0.3779
    1DIPC   D3A20503   2.329  23.329   3.622  0.0594  0.5614 -0.3665
    1DIPC   C4A20504   2.529  23.031   3.983  0.2285  0.2795 -0.0694
    1DIPC   C1B20505   1.835  24.282   3.403 -0.4822  0.1993 -0.1714
    1DIPC   D2B20506   1.920  24.385   3.824 -0.2006 -0.4133 -0.1155
    1DIPC   D3B20507   2.016  24.356   4.272 -0.0965  0.1003 -0.0982
    1DIPC   C4B20508   2.458  24.442   4.466  0.0385 -0.0465 -0.0220
    1DIPC   NC320509  16.744   0.935   3.920  0.0572 -0.1938 -0.0261
    1DIPC   PO420510  16.528   0.577   3.761 -0.0487  0.0745 -0.0701
    1DIPC   GL120511  16.689   0.424   4.209  0.0182  0.1369  0.0930
    1DIPC   GL220512  16.330   0.328   4.234  0.0577  0.1256  0.0571
    1DIPC   C1A20513  16.598   0.023   4.518  0.3044 -0.0972  0.1015
    1DIPC   D2A20514  16.377  28.120   4.869  0.0517 -0.1788 -0.0141
    1DIPC   D3A20515  16.669  27.843   4.982 -0.1121 -0.1281  0.1465
    1DIPC   C4A20516  16.751  27.867   5.314 -0.1348 -0.0312 -0.0359
    1DIPC   C1B20517  16.396   0.467   4.622  0.2606 -0.0308  0.0145
    1DIPC   D2B20518  16.192   0.491   5.005 -0.1071  0.3387  0.0771
    1DIPC   D3B20519  16.037   0.109   5.190  0.0546 -0.0907 -0.1001
    1DIPC   C4B20520  16.207  27.858   5.440 -0.2660  0.0824 -0.0341
    1DIPC   NC320521  14.764   9.130   4.112 -0.2129 -0.2124 -0.2807
    1DIPC   PO420522  15.074   9.346   4.148  0.2186  0.0475 -0.0369
    1DIPC   GL120523  15.036   9.149   4.521 -0.0674 -0.2005 -0.1630
    1DIPC   GL220524  15.108   9.293   4.726  0.2145  0.0031  0.0348
    1DIPC   C1A20525  15.052   8.716   4.616  0.1359  0.2709 -0.0987
    1DIPC   D2A20526  15.019   8.578   5.159  0.0020  0.1681 -0.0706
    1DIPC   D3A20527  15.373   8.426   5.409  0.3553 -0.1480  0.0204
    1DIPC   C4A20528  15.327   8.403   5.881 -0.0452  0.0209 -0.3577
    1DIPC   C1B20529  15.008   9.483   5.070  0.1004 -0.1031  0.0011
    1DIPC   D2B20530  15.160   9.718   5.422  0.1317  0.0588 -0.2468
    1DIPC   D3B20531  15.251   9.661   5.864  0.1223  0.2861 -0.1169
    1DIPC   C4B20532  15.067   9.751   6.313 -0.0640 -0.2302  0.1152
    1DIPC   NC320533  27.752  18.883   2.357 -0.0046 -0.0119  0.0941
    1DIPC   PO420534  27.933  18.783   2.732  0.2089 -0.0022 -0.2365
    1DIPC   GL120535  27.788  18.885   3.112 -0.1190 -0.2211  0.0857
    1DIPC   GL220536  27.957  19.006   3.303  0.1328  0.2288 -0.0889
    1DIPC   C1A20537  27.880  18.587   3.549 -0.0024  0.1593  0.0441
    1DIPC   D2A20538  28.072  18.220   3.633 -0.2190 -0.1764  0.3147
    1DIPC   D3A20539  27.788  17.968   3.810  0.1417 -0.1490 -0.0004
    1DIPC   C4A20540  27.854  17.982   4.229  0.0474  0.1718  0.0564
    1DIPC   C1B20541  27.667  18.980   3.718 -0.1630  0.1124 -0.3325
    1DIPC   D2B20542  27.767  18.789   4.131 -0.0546 -0.0819 -0.0633
    1DIPC   D3B20543  27.553  18.852   4.529 -0.1649 -0.0564 -0.0904
    1DIPC   C4B20544  27.689  18.754   4.926 -0.0943  0.1837  0.3559
    1DIPC   NC320545   4.301  17.092   3.239 -0.1199  0.1344  0.1847
    1DIPC   PO420546   4.755  17.167   3.352  0.2263 -0.1323 -0.2635
    1DIPC   GL120547   4.531  17.064   3.684 -0.0033 -0.0802 -0.0937
    1DIPC   GL220548   4.656  16.825   3.943  0.0900  0.0379  0.2366
    1DIPC   C1A20549   4.078  17.153   3.923 -0.1446 -0.0291 -0.4563
    1DIPC   D2A20550   3.675  17.266   3.869  0.1115  0.0905 -0.0083
    1DIPC   D3A20551   3.575  16.853   3.753 -0.1320 -0.2647  0.0550
    1DIPC   C4A20552   3.726  16.524   3.982 -0.0570 -0.1385 -0.0016
    1DIPC   C1B20553   4.482  17.112   4.169  0.4089 -0.0828 -0.2927
    1DIPC   D2B20554   4.039  17.350   4.397 -0.2462  0.0936  0.2764
    1DIPC   D3B20555   3.812  17.103   4.687  0.2822 -0.1066  0.2314
    1DIPC   C4B20556   3.812  17.261   5.119  0.1113  0.0230 -0.0024
    1DIPC   NC320557  17.453  19.825   3.635  0.1663 -0.0574 -0.0542
    1DIPC   PO420558  17.006  19.702   3.543 -0.0369 -0.0824 -0.1152
    1DIPC   GL120559  17.018  20.048   3.823 -0.0528 -0.0557  0.0762
    1DIPC   GL220560  17.230  20.281   3.841 -0.1770  0.1084  0.1799
    1DIPC   C1A20561  17.199  20.097   4.258 -0.1153 -0.1551 -0.2164
    1DIPC   D2A20562  17.538  20.215   4.443 -0.0608 -0.0813 -0.1029
    1DIPC   D3A20563  17.686  20.371   4.780  0.1129  0.0648 -0.1054
    1DIPC   C4A20564  17.917  20.735   4.838  0.3244  0.1054  0.1721
    1DIPC   C1B20565  17.314  20.567   4.171  0.2972  0.1934 -0.0177
    1DIPC   D2B20566  17.486  20.721   4.468  0.1993  0.1072 -0.0883
    1DIPC   D3B20567  17.936  20.540   4.377 -0.3713  0.0514  0.1490
    1DIPC   C4B20568  18.151  20.324   4.687 -0.1416  0.0135 -0.0926
    1DIPC   NC320569   7.624   7.124   2.992  0.0527  0.0081 -0.0238
    1DIPC   PO420570   7.149   6.989   2.836 -0.0345 -0.2065 -0.4786
    1DIPC   GL120571   7.155   6.810   3.259  0.1248 -0.2127  0.3248
    1DIPC   GL220572   7.478   6.635   3.222 -0.2155  0.0755 -0.0743
    1DIPC   C1A20573   7.185   6.614   3.631  0.3687  0.0824  0.2047
    1DIPC   D2A20574   7.173   6.668   4.038  0.0041  0.1675 -0.0020
    1DIPC   D3A20575   6.892   6.953   4.081 -0.1228 -0.0316 -0.0102
    1DIPC   C4A20576   6.473   7.021   3.922 -0.0437 -0.1879  0.2121
    1DIPC   C1B20577   7.648   6.555   3.642  0.1490 -0.0829  0.1748
    1DIPC   D2B20578   7.756   6.559   4.065  0.1068  0.0980 -0.0662
    1DIPC   D3B20579   8.164   6.683   4.266  0.1203  0.0906  0.0705
    1DIPC   C4B20580   8.243   6.750   4.624 -0.1321 -0.1222  0.2385
    1DIPC   NC320581  21.315  16.097   3.796  0.1181 -0.2140 -0.2649
    1DIPC   PO420582  21.633  16.318   3.879  0.0491  0.0553  0.2697
    1DIPC   GL120583  21.688  16.203   4.294  0.4908 -0.6791 -0.1682
    1DIPC   GL220584  21.465  16.378   4.430 -0.2002  0.0101  0.0771
    1DIPC   C1A20585  21.930  16.124   4.626  0.0972  0.1160  0.1662
    1DIPC   D2A20586  22.072  16.362   4.917 -0.1219  0.0437 -0.0480
    1DIPC   D3A20587  21.764  16.040   5.109 -0.0130  0.0652  0.3621
    1DIPC   C4A20588  21.790  15.613   5.052 -0.1533 -0.1553  0.1491
    1DIPC   C1B20589  21.527  16.515   4.825 -0.1302  0.0467  0.2111
    1DIPC   D2B20590  21.409  16.402   5.163 -0.0499  0.4183 -0.1309
    1DIPC   D3B20591  21.145  16.629   5.112 -0.1524  0.3043  0.0532
    1DIPC   C4B20592  21.152  16.776   5.528 -0.0797  0.4579 -0.0839
    1DIPC   NC320593   1.788  12.382   2.552 -0.0154  0.1281 -0.0272
    1DIPC   PO420594   1.904  12.652   2.798 -0.1019 -0.2707  0.4442
    1DIPC   GL120595   1.755  12.725   3.057 -0.1327  0.0582  0.0003
    1DIPC   GL220596   1.532  12.559   3.164 -0.1593 -0.2841  0.0961
    1DIPC   C1A20597   1.819  12.762   3.497 -0.0762  0.1977 -0.2110
    1DIPC   D2A20598   1.890  12.567   3.844  0.0260  0.3299 -0.0703
    1DIPC   D3A20599   2.337  12.647   3.843  0.1342  0.0258  0.1967
    1DIPC   C4A20600   2.490  13.033   3.986 -0.2056 -0.2433  0.0179
    1DIPC   C1B20601   1.393  12.469   3.606  0.1309  0.3191  0.0684
    1DIPC   D2B20602   1.195  12.072   3.687  0.1383 -0.1087  0.3730
    1DIPC   D3B20603   1.202  12.209   4.112 -0.1356  0.0348  0.1102
    1DIPC   C4B20604   0.807  12.321   4.478  0.2175 -0.2285  0.1413
    1DIPC   NC320605  12.393   0.896   3.586  0.3388 -0.0399 -0.0274
    1DIPC   PO420606  12.794   1.123   3.488  0.1566 -0.1051  0.1452
    1DIPC   GL120607  12.805   0.911   3.865 -0.1647  0.1543  0.3017
    1DIPC   GL220608  12.994   1.120   4.038  0.0822 -0.0697 -0.1100
    1DIPC   C1A20609  12.948   0.586   4.229  0.0235 -0.3297 -0.0088
    1DIPC   D2A20610  12.939   0.419   4.601  0.0164  0.2319 -0.0660
    1DIPC   D3A20611  13.099   0.419   5.011 -0.0784 -0.1467 -0.1535
    1DIPC   C4A20612  13.434   0.568   5.125 -0.2299  0.2039  0.0501
    1DIPC   C1B20613  13.035   1.000   4.456  0.3500  0.2111  0.1277
    1DIPC   D2B20614  13.118   0.867   4.912  0.2224 -0.1090  0.3012
    1DIPC   D3B20615  13.457   1.079   4.848 -0.0627  0.1407 -0.0771
    1DIPC   C4B20616  13.491   1.484   5.061 -0.0057 -0.0012  0.0377
    1DIPC   NC320617  18.577   0.391   2.858 -0.3052 -0.4024  0.1938
    1DIPC   PO420618  18.833   0.560   3.232  0.0849  0.0056 -0.3015
    1DIPC   GL120619  18.919   0.321   3.621 -0.1117 -0.2274  0.1163
    1DIPC   GL220620  18.877   0.266   3.940  0.0992  0.4523 -0.1767
    1DIPC   C1A20621  19.337   0.471   3.842  0.0543 -0.1591 -0.1866
    1DIPC   D2A20622  19.624   0.549   4.175  0.0392  0.4361 -0.0409
    1DIPC   D3A20623  19.553   0.755   4.549  0.1237  0.0034  0.2172
    1DIPC   C4A20624  19.631   0.477   4.861 -0.2098  0.1141 -0.2567
    1DIPC   C1B20625  19.012   0.401   4.259  0.1391  0.1135  0.0520
    1DIPC   D2B20626  19.244   0.343   4.563 -0.1733 -0.1619  0.0162
    1DIPC   D3B20627  18.849   0.452   4.750 -0.0702 -0.1375 -0.2040
    1DIPC   C4B20628  18.475   0.443   4.489 -0.3273 -0.2763  0.1393
    1DIPC   NC320629  20.909  24.450   3.071  0.0650 -0.1648  0.2710
    1DIPC   PO420630  20.462  24.373   3.014 -0.1127 -0.0234 -0.2955
    1DIPC   GL120631  20.624  24.171   3.392 -0.1395  0.0915  0.0311
    1DIPC   GL220632  20.953  24.077   3.632 -0.0802 -0.1353 -0.1023
    1DIPC   C1A20633  20.530  24.025   3.830  0.0884 -0.0939  0.4327
    1DIPC   D2A20634  20.506  23.889   4.252 -0.2091 -0.0972 -0.0370
    1DIPC   D3A20635  20.259  24.120   4.540 -0.1252 -0.0769 -0.2013
    1DIPC   C4A20636  20.359  24.398   4.716  0.1996 -0.0983 -0.1647
    1DIPC   C1B20637  20.963  24.074   4.119  0.2584  0.1231 -0.2613
    1DIPC   D2B20638  20.997  24.104   4.621 -0.2005 -0.2145 -0.0067
    1DIPC   D3B20639  20.827  24.413   4.939 -0.2445  0.1597  0.0919
    1DIPC   C4B20640  20.530  24.304   5.159  0.1801  0.1401 -0.1944
    1DIPC   NC320641  27.937  10.725   3.367 -0.0832  0.4231  0.2014
    1DIPC   PO420642  27.837  11.133   3.344 -0.0458 -0.1697 -0.1444
    1DIPC   GL120643  27.601  10.943   3.671  0.2334  0.0074  0.2715
    1DIPC   GL220644  27.579  11.326   3.813 -0.2334 -0.0619 -0.0216
    1DIPC   C1A20645  27.396  10.836   4.102  0.0941  0.2079 -0.0779
    1DIPC   D2A20646  27.383  10.533   4.439  0.0347 -0.2553 -0.0817
    1DIPC   D3A20647  27.308  10.130   4.630 -0.1422  0.1142  0.0928
    1DIPC   C4A20648  27.330   9.770   4.326  0.2038  0.0252  0.1559
    1DIPC   C1B20649  27.728  11.172   4.049 -0.0272  0.1940  0.0572
    1DIPC   D2B20650  27.833  10.841   4.295  0.0808 -0.1429  0.0382
    1DIPC   D3B20651  27.582  11.062   4.500 -0.0145 -0.1790  0.6437
    1DIPC   C4B20652  27.283  11.347   4.273  0.0513  0.1077 -0.0440
    1DIPC   NC320653  21.882  28.019   3.274 -0.2305 -0.3422 -0.0767
    1DIPC   PO420654  21.778   0.272   3.412  0.0709  0.2011 -0.1116
    1DIPC   GL120655  21.598   0.318   3.862  0.0425 -0.2256  0.2974
    1DIPC   GL220656  21.824   0.693   3.830  0.0092  0.0230  0.1581
    1DIPC   C1A20657  21.322   0.313   4.149  0.0098 -0.3619 -0.2470
    1DIPC   D2A20658  21.347   0.480   4.498  0.2467 -0.2477  0.1143
    1DIPC   D3A20659  21.729   0.702   4.355  0.0009  0.2457  0.0990
    1DIPC   C4A20660  21.919   0.969   4.655 -0.0799  0.1700  0.1095
    1DIPC   C1B20661  22.103   0.869   4.029  0.0009  0.3188  0.1797
    1DIPC   D2B20662  22.228   0.694   4.397 -0.1263  0.2061 -0.1093
    1DIPC   D3B20663  22.600   0.681   4.141 -0.2178 -0.0858 -0.0910
    1DIPC   C4B20664  22.964   0.885   4.177  0.3365  0.1274 -0.1259
    1DIPC   NC320665  13.895  17.538   3.354 -0.0329  0.1445  0.0121
    1DIPC   PO420666  14.125  17.318   3.758  0.1993 -0.0202  0.0126
    1DIPC   GL120667  14.546  17.426   4.049 -0.1256  0.2599 -0.0194
    1DIPC   GL220668  14.687  17.771   4.195 -0.3324 -0.1218  0.1545
    1DIPC   C1A20669  14.451  17.383   4.421  0.2907  0.0811 -0.3054
    1DIPC   D2A20670  14.356  17.468   4.814  0.0265 -0.1462  0.2599
    1DIPC   D3A20671  14.119  17.786   5.029  0.3182  0.1229  0.4535
    1DIPC   C4A20672  14.009  18.108   5.428 -0.1099  0.0021  0.0200
    1DIPC   C1B20673  14.888  18.048   4.520  0.5002 -0.0522  0.1808
    1DIPC   D2B20674  14.878  18.431   4.744  0.1863  0.1398 -0.0771
    1DIPC   D3B20675  15.334  18.644   4.745  0.2815 -0.0906  0.2944
    1DIPC   C4B20676  15.236  19.077   4.840  0.2416  0.3141  0.0249
    1DIPC   NC320677  15.621  27.326   3.854  0.1854 -0.0915 -0.0267
    1DIPC   PO420678  15.227  27.595   3.733 -0.0503  0.1752 -0.1259
    1DIPC   GL120679  15.147  27.617   4.221 -0.1070  0.1289 -0.0882
    1DIPC   GL220680  15.353  27.349   4.323 -0.1161  0.0266 -0.2070
    1DIPC   C1A20681  15.181  27.811   4.556  0.1441 -0.0217 -0.0206
    1DIPC   D2A20682  15.262  27.796   4.967  0.3393  0.5402 -0.2737
    1DIPC   D3A20683  15.686  27.845   4.761 -0.3304  0.1680 -0.0673
    1DIPC   C4A20684  15.936   0.128   4.717 -0.4659  0.2192  0.2872
    1DIPC   C1B20685  15.307  27.342   4.755  0.2729  0.2809  0.1330
    1DIPC   D2B20686  15.322  27.064   5.070 -0.2975 -0.3347  0.4015
    1DIPC   D3B20687  15.749  27.250   5.024  0.1108  0.1934 -0.0475
    1DIPC   C4B20688  16.173  27.052   5.130 -0.0664 -0.3801  0.3362
    1DIPC   NC320689  22.673   9.413   3.203  0.0247  0.3583 -0.2737
    1DIPC   PO420690  22.666   9.806   3.223  0.2231 -0.3719  0.0913
    1DIPC   GL120691  22.593   9.666   3.616  0.1100 -0.3472 -0.2714
    1DIPC   GL220692  22.384   9.752   3.722 -0.1349  0.1722  0.4254
    1DIPC   C1A20693  22.709   9.567   4.188  0.1431  0.0412 -0.2208
    1DIPC   D2A20694  22.927   9.300   4.580  0.2280 -0.0082  0.1983
    1DIPC   D3A20695  23.271   9.156   4.716 -0.0106 -0.1887 -0.1992
    1DIPC   C4A20696  23.712   9.383   4.966  0.2673  0.2753  0.2879
    1DIPC   C1B20697  22.213   9.707   4.150 -0.3734 -0.2920  0.1752
    1DIPC   D2B20698  21.986  10.022   4.454  0.1395 -0.1394 -0.0673
    1DIPC   D3B20699  21.600   9.854   4.663 -0.3249  0.1363  0.0084
    1DIPC   C4B20700  21.746   9.612   4.942  0.0931  0.2408 -0.3264
    1DIPC   NC320701  11.831  25.080   2.662  0.0738  0.1479 -0.0442
    1DIPC   PO420702  11.427  24.941   2.992  0.1540 -0.2583 -0.1154
    1DIPC   GL120703  11.000  24.874   3.239 -0.1207 -0.2595  0.0027
    1DIPC   GL220704  10.760  24.615   3.182 -0.2874 -0.0155  0.2845
    1DIPC   C1A20705  10.899  24.871   3.619  0.1839  0.3392 -0.0051
    1DIPC   D2A20706  10.731  25.167   3.863 -0.0337 -0.1309 -0.2219
    1DIPC   D3A20707  10.977  24.906   4.148  0.0176  0.0978  0.0047
    1DIPC   C4A20708  11.142  24.850   4.631 -0.2266  0.0057  0.1792
    1DIPC   C1B20709  10.808  24.383   3.507  0.0105 -0.0217 -0.2560
    1DIPC   D2B20710  11.127  24.410   3.768  0.1546  0.2802  0.0827
    1DIPC   D3B20711  11.319  24.089   4.002  0.2428 -0.2149 -0.1950
    1DIPC   C4B20712  11.767  24.125   4.060  0.0320  0.0044 -0.1877
    1DIPC   NC320713  25.095  17.252   2.736 -0.0431 -0.1381  0.1604
    1DIPC   PO420714  24.901  17.579   2.930  0.0698  0.0537  0.0376
    1DIPC   GL120715  25.179  17.422   3.241  0.0860  0.1968  0.2601
    1DIPC   GL220716  25.520  17.675   3.323 -0.1432  0.1921  0.2813
    1DIPC   C1A20717  25.261  17.449   3.736 -0.0846  0.1370 -0.1189
    1DIPC   D2A20718  25.426  17.589   4.072  0.0738  0.0943  0.1672
    1DIPC   D3A20719  25.092  17.190   4.164 -0.1969  0.0445  0.1536
    1DIPC   C4A20720  25.178  16.840   4.409 -0.2506 -0.0537  0.4311
    1DIPC   C1B20721  25.732  17.497   3.630  0.2288 -0.1685  0.1207
    1DIPC   D2B20722  25.696  17.213   3.861  0.2089 -0.3040 -0.1336
    1DIPC   D3B20723  25.697  17.154   4.350 -0.1797 -0.3825  0.0138
    1DIPC   C4B20724  25.969  16.912   4.585  0.0873 -0.4475 -0.3185
    1DIPC   NC320725  21.571  24.814   3.749  0.0218 -0.2164  0.2771
    1DIPC   PO420726  21.345  25.037   3.510  0.0585 -0.2996  0.1523
    1DIPC   GL120727  21.067  25.008   3.777 -0.0848 -0.1139  0.0558
    1DIPC   GL220728  21.083  25.082   4.092 -0.0468 -0.1427  0.2353
    1DIPC   C1A20729  20.603  24.979   3.983  0.1027  0.1446  0.1821
    1DIPC   D2A20730  20.292  25.315   4.012  0.2343 -0.0181 -0.0639
    1DIPC   D3A20731  20.320  25.742   4.054 -0.3042  0.0366  0.2551
    1DIPC   C4A20732  20.532  25.859   4.357 -0.0156  0.2861  0.1819
    1DIPC   C1B20733  21.147  25.145   4.583  0.1175 -0.1610 -0.1990
    1DIPC   D2B20734  21.168  25.306   4.955 -0.1317  0.2512  0.1614
    1DIPC   D3B20735  20.875  24.884   4.972 -0.0154  0.1679  0.0493
    1DIPC   C4B20736  20.384  24.946   4.937 -0.4031  0.0402 -0.5514
    1DIPC   NC320737   2.219  11.381   3.311 -0.0332  0.2283  0.1160
    1DIPC   PO420738   2.167  10.889   3.331 -0.2367  0.2223  0.0797
    1DIPC   GL120739   2.177  10.890   3.664 -0.2004  0.0956 -0.3590
    1DIPC   GL220740   1.989  11.150   3.803  0.1700 -0.0101  0.0174
    1DIPC   C1A20741   2.279  10.506   3.987  0.1074  0.1661  0.0075
    1DIPC   D2A20742   2.368  10.437   4.486  0.0932  0.0083  0.4316
    1DIPC   D3A20743   2.203  10.812   4.668  0.0961 -0.1259  0.0672
    1DIPC   C4A20744   1.988  11.275   4.508 -0.2054  0.0640 -0.0402
    1DIPC   C1B20745   2.169  10.942   4.169 -0.0905 -0.0520  0.1680
    1DIPC   D2B20746   2.499  11.138   4.396 -0.0547 -0.1991  0.0608
    1DIPC   D3B20747   2.305  11.471   4.181 -0.1544 -0.1619 -0.0179
    1DIPC   C4B20748   2.446  11.830   4.092  0.1077 -0.3362  0.1748
    1DIPC   NC320749   5.975  10.483   3.454  0.2299  0.3099  0.2422
    1DIPC   PO420750   5.834  10.166   3.486  0.0529 -0.0754 -0.2056
    1DIPC   GL120751   5.825  10.179   3.881 -0.0206 -0.1093 -0.0293
    1DIPC   GL220752   5.859  10.466   3.964  0.2728  0.1500  0.0565
    1DIPC   C1A20753   5.739   9.912   4.297 -0.2052 -0.1533 -0.1009
    1DIPC   D2A20754   5.972   9.860   4.668 -0.1683  0.0945 -0.0577
    1DIPC   D3A20755   5.790   9.955   5.040 -0.0588 -0.1476  0.1162
    1DIPC   C4A20756   5.330  10.158   5.305  0.0257  0.0430  0.2318
    1DIPC   C1B20757   5.695  10.491   4.322 -0.0936  0.1217  0.2424
    1DIPC   D2B20758   5.240  10.698   4.445  0.0936 -0.1840  0.1650
    1DIPC   D3B20759   5.178  10.787   4.962 -0.0739 -0.2359 -0.3082
    1DIPC   C4B20760   5.120  11.139   5.035  0.1675  0.0238 -0.2237
    1DIPC   NC320761   3.657  10.600   3.008  0.0521  0.0597  0.0716
    1DIPC   PO420762   3.377  10.390   3.161  0.1796 -0.0856 -0.0721
    1DIPC   GL120763   3.288  10.249   3.587 -0.0159  0.1543 -0.0877
    1DIPC   GL220764   3.109  10.477   3.703  0.5061 -0.0210 -0.0138
    1DIPC   C1A20765   3.623  10.108   3.862  0.0668 -0.1730  0.2599
    1DIPC   D2A20766   4.073   9.816   3.932 -0.0408  0.0113 -0.1496
    1DIPC   D3A20767   4.313   9.857   4.259  0.0963  0.2374  0.0791
    1DIPC   C4A20768   4.351   9.751   4.619 -0.1140  0.2708 -0.0652
    1DIPC   C1B20769   3.096  10.206   4.046  0.2411  0.0091 -0.5603
    1DIPC   D2B20770   3.306  10.144   4.436 -0.1017  0.0990 -0.2608
    1DIPC   D3B20771   3.320   9.948   4.753  0.2614 -0.2857 -0.1830
    1DIPC   C4B20772   3.097   9.590   4.788  0.2321 -0.0910  0.1656
    1DIPC   NC320773  13.755   6.195   3.339  0.0518  0.0015 -0.0799
    1DIPC   PO420774  13.471   6.143   3.694 -0.1166 -0.1293 -0.3892
    1DIPC   GL120775  13.449   6.229   4.120  0.0601  0.0077 -0.0144
    1DIPC   GL220776  13.163   6.467   4.052 -0.5656  0.0192 -0.2353
    1DIPC   C1A20777  13.447   6.271   4.538  0.1855 -0.4765 -0.1873
    1DIPC   D2A20778  13.395   6.361   5.028 -0.2599 -0.1693 -0.1414
    1DIPC   D3A20779  13.571   6.475   5.394  0.2194 -0.4244 -0.1681
    1DIPC   C4A20780  13.260   6.714   5.778 -0.1748 -0.2754  0.0228
    1DIPC   C1B20781  13.270   6.804   4.332 -0.2539  0.0870  0.0758
    1DIPC   D2B20782  13.493   7.000   4.689 -0.0263  0.1437 -0.0198
    1DIPC   D3B20783  13.921   7.032   4.660 -0.1393  0.3635  0.0033
    1DIPC   C4B20784  14.239   7.001   4.312 -0.0280 -0.1338 -0.0883
    1DIPC   NC320785   5.335   9.966   3.396 -0.0382 -0.1615 -0.2698
    1DIPC   PO420786   4.963  10.307   3.267 -0.3358  0.2623  0.0240
    1DIPC   GL120787   4.869  10.280   3.650  0.0588  0.1281 -0.2543
    1DIPC   GL220788   4.917   9.980   3.748  0.0496  0.0910 -0.1634
    1DIPC   C1A20789   4.298  10.252   3.775  0.1241 -0.0910 -0.1675
    1DIPC   D2A20790   4.045  10.612   3.950  0.0506 -0.4458 -0.0372
    1DIPC   D3A20791   3.949  10.581   4.363 -0.2307  0.0106 -0.0574
    1DIPC   C4A20792   4.325  10.916   4.527 -0.2066 -0.0696  0.0115
    1DIPC   C1B20793   4.658  10.134   4.090 -0.1270 -0.1824  0.0086
    1DIPC   D2B20794   4.418  10.491   4.232 -0.3350  0.1106 -0.1506
    1DIPC   D3B20795   4.325  10.251   4.524 -0.0801 -0.0386 -0.1786
    1DIPC   C4B20796   4.203  10.483   4.852 -0.0771 -0.0937 -0.0366
    1DIPC   NC320797  17.550   2.368   3.553 -0.0757 -0.0209 -0.0761
    1DIPC   PO420798  17.188   2.748   3.541  0.0962 -0.0777  0.1903
    1DIPC   GL120799  17.533   2.633   4.005  0.2647 -0.1899  0.3799
    1DIPC   GL220800  17.804   2.686   3.973 -0.0110  0.3543  0.2459
    1DIPC   C1A20801  17.604   2.891   4.333 -0.0525 -0.2011 -0.0455
    1DIPC   D2A20802  17.706   3.220   4.692  0.0431  0.2122  0.3556
    1DIPC   D3A20803  18.019   3.279   4.433  0.3063 -0.4322  0.2082
    1DIPC   C4A20804  18.450   3.268   4.574  0.3724  0.1090  0.1348
    1DIPC   C1B20805  17.847   2.392   4.382 -0.4083  0.1204 -0.1478
    1DIPC   D2B20806  17.902   2.281   4.804  0.1889  0.0214 -0.2146
    1DIPC   D3B20807  17.918   2.167   5.202 -0.0827 -0.0984 -0.0329
    1DIPC   C4B20808  18.268   2.405   5.362  0.0964  0.1928 -0.0239
    1DIPC   NC320809  21.741   4.967   2.457 -0.3649 -0.0837 -0.4054
    1DIPC   PO420810  21.992   5.324   2.501  0.2861 -0.6486 -0.0420
    1DIPC   GL120811  21.778   5.328   2.897 -0.0518  0.1621 -0.0220
    1DIPC   GL220812  21.812   5.183   3.166  0.0462 -0.0570  0.0539
    1DIPC   C1A20813  21.664   5.664   3.228 -0.5288 -0.0249  0.3540
    1DIPC   D2A20814  21.837   5.887   3.535 -0.0904 -0.0504  0.1677
    1DIPC   D3A20815  21.687   5.510   3.859 -0.0339  0.0706 -0.2274
    1DIPC   C4A20816  21.294   5.510   3.775  0.2666 -0.1138 -0.0638
    1DIPC   C1B20817  21.728   5.085   3.572 -0.0014 -0.1845  0.0611
    1DIPC   D2B20818  21.953   5.134   4.026  0.1525 -0.0503  0.1389
    1DIPC   D3B20819  21.571   5.135   4.335  0.0030  0.4096  0.0438
    1DIPC   C4B20820  21.577   4.923   4.747 -0.0671  0.1553  0.0502
    1DIPC   NC320821  19.396  14.622   3.025 -0.2082 -0.1743  0.1502
    1DIPC   PO420822  19.195  14.753   3.448 -0.0101  0.0021 -0.2793
    1DIPC   GL120823  19.301  14.580   3.812  0.0803 -0.0075 -0.3187
    1DIPC   GL220824  19.487  14.262   3.809 -0.3341  0.0626  0.1218
    1DIPC   C1A20825  19.320  14.877   4.243  0.2655  0.1675 -0.1420
    1DIPC   D2A20826  19.230  15.300   4.240  0.0045  0.0130  0.1007
    1DIPC   D3A20827  19.137  15.251   4.654  0.1754 -0.0265  0.3400
    1DIPC   C4A20828  18.705  15.225   4.742  0.0733 -0.2078  0.0599
    1DIPC   C1B20829  19.772  14.068   4.165 -0.0421 -0.2021  0.1514
    1DIPC   D2B20830  19.985  13.794   4.376 -0.0563  0.0983 -0.1614
    1DIPC   D3B20831  20.300  14.008   4.677  0.1606 -0.2020  0.1711
    1DIPC   C4B20832  20.529  13.913   4.960  0.1227 -0.1105 -0.0982
    1DIPC   NC320833  28.118   1.201   2.755  0.0310  0.2067  0.2009
    1DIPC   PO420834   0.154   0.851   2.998 -0.0302 -0.0105  0.0193
    1DIPC   GL120835   0.110   0.847   3.423 -0.2464  0.1442 -0.1167
    1DIPC   GL220836   0.237   0.534   3.590 -0.2114  0.0417 -0.1074
    1DIPC   C1A20837   0.016   0.858   3.873  0.1953  0.1932  0.1095
    1DIPC   D2A20838   0.094   0.929   4.318 -0.0325  0.2060 -0.1107
    1DIPC   D3A20839  27.919   0.801   4.279  0.2038 -0.1783  0.3244
    1DIPC   C4A20840  27.836   0.550   4.060  0.2140 -0.2438 -0.2858
    1DIPC   C1B20841   0.176   0.415   4.026 -0.0742 -0.1547  0.0402
    1DIPC   D2B20842   0.012   0.339   4.447  0.0663 -0.0091  0.2836
    1DIPC   D3B20843   0.214  28.126   4.444  0.0793 -0.3377  0.4890
    1DIPC   C4B20844   0.414  27.951   4.072  0.3238  0.0035  0.1156
    1DIPC   NC320845   5.717   5.237   2.245  0.1635 -0.1656 -0.0097
    1DIPC   PO420846   6.165   5.163   2.183 -0.0945  0.0633  0.1914
    1DIPC   GL120847   6.085   5.020   2.563 -0.1507 -0.2277 -0.0579
    1DIPC   GL220848   5.898   4.904   2.813 -0.1360  0.0124  0.0999
    1DIPC   C1A20849   6.261   5.107   3.037 -0.1499  0.2965 -0.0492
    1DIPC   D2A20850   6.296   5.054   3.491  0.0327  0.2385  0.0979
    1DIPC   D3A20851   5.959   5.351   3.558 -0.1838 -0.0861 -0.0772
    1DIPC   C4A20852   5.705   5.112   3.842  0.0209  0.0142 -0.0014
    1DIPC   C1B20853   5.538   4.702   2.980 -0.3207  0.2170  0.0689
    1DIPC   D2B20854   5.228   4.457   3.071 -0.0226 -0.1630 -0.1864
    1DIPC   D3B20855   4.831   4.232   2.933  0.0252 -0.2325  0.0093
    1DIPC   C4B20856   4.999   3.800   2.989  0.0360  0.0878 -0.0378
    1DIPC   NC320857  17.419  27.629   3.635 -0.0996 -0.0693 -0.0112
    1DIPC   PO420858  17.760  27.440   3.873  0.0177 -0.1992 -0.1626
    1DIPC   GL120859  17.911  27.534   4.293  0.2311  0.0198 -0.1042
    1DIPC   GL220860  18.090  27.241   4.249  0.0931 -0.0662 -0.1267
    1DIPC   C1A20861  17.634  27.424   4.597  0.2127 -0.0109  0.2113
    1DIPC   D2A20862  17.548  27.157   5.001  0.0864 -0.0712 -0.2103
    1DIPC   D3A20863  17.841  27.382   5.114  0.1828 -0.0781  0.1860
    1DIPC   C4A20864  18.026  27.383   5.532  0.1121 -0.3213 -0.0319
    1DIPC   C1B20865  18.455  27.028   4.510 -0.2586  0.1992 -0.0616
    1DIPC   D2B20866  18.781  27.213   4.618 -0.0385  0.0112 -0.0868
    1DIPC   D3B20867  18.676  27.492   5.017 -0.1707 -0.1591  0.3251
    1DIPC   C4B20868  18.774  27.236   5.359  0.2596 -0.2729  0.0053
    1DIPC   NC320869   0.038   8.393   2.579  0.1861  0.4470 -0.0426
    1DIPC   PO420870   0.216   8.250   2.170  0.1578  0.1216  0.1921
    1DIPC   GL120871   0.119   7.898   2.475 -0.1210  0.0349 -0.0463
    1DIPC   GL220872  27.935   7.730   2.597  0.1186 -0.1288  0.2178
    1DIPC   C1A20873   0.183   7.783   2.924  0.5635 -0.0833  0.1868
    1DIPC   D2A20874   0.305   7.883   3.232  0.0304  0.1500 -0.1833
    1DIPC   D3A20875   0.219   8.283   3.145 -0.2133 -0.0440 -0.1391
    1DIPC   C4A20876   0.157   8.512   3.435 -0.1948 -0.0105  0.0417
    1DIPC   C1B20877  27.955   7.429   2.969  0.0142 -0.2272 -0.2813
    1DIPC   D2B20878  27.684   7.147   3.264  0.0651 -0.2500 -0.0107
    1DIPC   D3B20879  27.924   6.946   3.403  0.0096 -0.3073 -0.2861
    1DIPC   C4B20880  28.020   7.017   3.716  0.0924 -0.1850  0.0934
    1DIPC   NC320881  20.773  15.410   3.556 -0.1781 -0.1632 -0.1441
    1DIPC   PO420882  20.897  15.735   3.792 -0.0012  0.0360  0.0338
    1DIPC   GL120883  20.818  15.642   4.191  0.3157  0.0490  0.0309
    1DIPC   GL220884  20.537  15.845   4.306  0.1618  0.3668 -0.1722
    1DIPC   C1A20885  20.947  15.536   4.544  0.2155 -0.0729 -0.1677
    1DIPC   D2A20886  20.936  15.704   4.832 -0.0769  0.2049 -0.3029
    1DIPC   D3A20887  21.056  15.387   5.163  0.1514  0.1292 -0.0274
    1DIPC   C4A20888  20.800  15.379   5.472 -0.1609  0.3097  0.0711
    1DIPC   C1B20889  20.445  15.717   4.740  0.1771 -0.1726 -0.1821
    1DIPC   D2B20890  20.576  15.396   5.047 -0.0506  0.3023  0.0591
    1DIPC   D3B20891  20.403  15.643   5.295 -0.2873 -0.1306  0.0440
    1DIPC   C4B20892  20.125  15.633   5.498  0.1905  0.0221  0.1753
    1DIPC   NC320893   4.134  19.503   3.534 -0.0817 -0.1321 -0.0900
    1DIPC   PO420894   4.133  19.991   3.574  0.0270  0.1425  0.2896
    1DIPC   GL120895   4.263  20.062   3.951  0.0265  0.1679 -0.1111
    1DIPC   GL220896   4.096  19.679   4.042 -0.0364 -0.2301  0.1544
    1DIPC   C1A20897   4.010  20.127   4.371  0.1472  0.0289  0.1490
    1DIPC   D2A20898   3.883  20.114   4.835 -0.0753  0.2325 -0.3144
    1DIPC   D3A20899   3.898  19.660   4.930  0.0981  0.0776  0.3175
    1DIPC   C4A20900   4.027  19.623   5.314 -0.0722  0.2071  0.0631
    1DIPC   C1B20901   4.293  19.310   4.233 -0.1782  0.3521  0.1110
    1DIPC   D2B20902   4.454  19.102   4.600 -0.1273 -0.0290  0.0196
    1DIPC   D3B20903   4.174  19.198   4.744  0.4599 -0.0800  0.1133
    1DIPC   C4B20904   4.344  19.242   5.211  0.1942 -0.0300 -0.4831
    1DIPC   NC320905  21.395  28.045   3.476  0.0874  0.0905 -0.0289
    1DIPC   PO420906  21.029  28.004   3.272  0.0370 -0.0123  0.1800
    1DIPC   GL120907  20.968  27.729   3.595 -0.2550  0.0563 -0.3015
    1DIPC   GL220908  21.235  27.607   3.843  0.1970  0.2779  0.0256
    1DIPC   C1A20909  20.753  27.808   3.931 -0.1569  0.1791  0.5600
    1DIPC   D2A20910  20.663  27.907   4.340 -0.2527 -0.2175  0.2476
    1DIPC   D3A20911  20.520  27.631   4.667 -0.0421  0.0320  0.3419
    1DIPC   C4A20912  20.599  27.215   4.885 -0.1718  0.1974  0.1600
    1DIPC   C1B20913  21.313  27.916   4.165 -0.3121 -0.0775 -0.3176
    1DIPC   D2B20914  21.533  27.975   4.578 -0.1234  0.1231 -0.3162
    1DIPC   D3B20915  21.804  27.747   4.161 -0.0404  0.2556  0.0234
    1DIPC   C4B20916  22.183  27.597   4.209 -0.2384  0.2430  0.2095
    1DIPC   NC320917  14.830  17.860   3.760  0.0750 -0.1389  0.1675
    1DIPC   PO420918  14.537  18.130   3.894  0.2453  0.1660  0.1566
    1DIPC   GL120919  14.077  18.148   4.124  0.3461 -0.0572 -0.0537
    1DIPC   GL220920  14.217  17.890   4.215 -0.1189  0.2325  0.1153
    1DIPC   C1A20921  13.828  18.062   4.481 -0.0054 -0.2449 -0.1184
    1DIPC   D2A20922  13.899  18.242   4.840  0.0736  0.0280  0.3418
    1DIPC   D3A20923  13.594  17.902   5.090  0.0009  0.0449 -0.2942
    1DIPC   C4A20924  13.795  17.590   5.374 -0.0435  0.0286 -0.3072
    1DIPC   C1B20925  14.345  18.000   4.678  0.0584  0.0562 -0.0125
    1DIPC   D2B20926  14.787  17.784   4.967  0.0508 -0.0106 -0.0170
    1DIPC   D3B20927  14.658  18.125   5.219 -0.4138 -0.0512  0.4073
    1DIPC   C4B20928  14.791  18.156   5.592  0.0351  0.1471  0.2107
    1DIPC   NC320929   8.153  20.269   3.699  0.1537  0.3336 -0.1655
    1DIPC   PO420930   7.794  20.476   3.466  0.2028 -0.1324 -0.0040
    1DIPC   GL120931   7.958  20.673   3.889  0.0273 -0.1610 -0.0209
    1DIPC   GL220932   7.711  20.538   4.092 -0.0490  0.1185  0.2838
    1DIPC   C1A20933   8.139  20.846   4.257  0.1604 -0.2045  0.0476
    1DIPC   D2A20934   8.074  21.331   4.321  0.1119 -0.0002 -0.0243
    1DIPC   D3A20935   7.678  21.250   4.567 -0.3145 -0.2326  0.1248
    1DIPC   C4A20936   7.578  21.337   4.992 -0.2411  0.0600 -0.1597
    1DIPC   C1B20937   7.354  20.662   4.142  0.1355  0.1023 -0.1493
    1DIPC   D2B20938   7.107  20.841   4.496  0.1764  0.1981 -0.0854
    1DIPC   D3B20939   7.325  20.862   4.859  0.1460 -0.0590 -0.1231
    1DIPC   C4B20940   7.717  20.723   5.070  0.1765 -0.1156 -0.1550
    1DIPC   NC320941  16.306   8.223   3.662 -0.2852  0.0764 -0.0514
    1DIPC   PO420942  16.523   8.146   4.048 -0.0951 -0.1977 -0.4365
    1DIPC   GL120943  16.378   8.157   4.507  0.1897  0.0194  0.0915
    1DIPC   GL220944  16.072   8.452   4.540  0.2115  0.2117 -0.2488
    1DIPC   C1A20945  16.266   8.048   4.902 -0.2492 -0.0758  0.0026
    1DIPC   D2A20946  16.597   8.036   5.179  0.1149 -0.3518 -0.2831
    1DIPC   D3A20947  16.813   7.637   4.939  0.1396  0.1101 -0.0588
    1DIPC   C4A20948  16.752   7.207   5.109  0.0927  0.0660  0.2065
    1DIPC   C1B20949  15.795   8.243   4.890 -0.0679 -0.1478  0.1821
    1DIPC   D2B20950  15.650   8.083   5.234 -0.1691  0.2424 -0.1539
    1DIPC   D3B20951  16.099   8.110   5.372 -0.2507  0.0347  0.2478
    1DIPC   C4B20952  16.230   7.726   5.255  0.0418 -0.1632 -0.1947
    1DIPC   NC320953   5.029   8.387   2.557  0.0157 -0.0857  0.2313
    1DIPC   PO420954   5.370   8.423   2.939 -0.1555 -0.0925 -0.0946
    1DIPC   GL120955   5.249   8.007   3.114 -0.0723 -0.1102  0.2596
    1DIPC   GL220956   4.939   8.011   3.112  0.1479  0.3967 -0.0830
    1DIPC   C1A20957   5.138   7.767   3.488  0.0926  0.0765  0.1893
    1DIPC   D2A20958   5.226   7.771   3.948  0.2152 -0.3313 -0.1647
    1DIPC   D3A20959   5.067   8.094   4.280  0.1628  0.3823  0.3141
    1DIPC   C4A20960   5.317   8.241   4.623 -0.2152  0.2772 -0.2499
    1DIPC   C1B20961   5.028   8.345   3.442  0.2715  0.0412  0.0158
    1DIPC   D2B20962   5.137   8.393   3.860 -0.0862  0.2017 -0.1436
    1DIPC   D3B20963   5.487   8.731   3.951 -0.1566 -0.0294  0.0089
    1DIPC   C4B20964   5.431   9.023   4.339 -0.4623  0.0110 -0.2219
    1DIPC   NC320965   6.453   6.134   3.150  0.0374 -0.1444 -0.0586
    1DIPC   PO420966   6.727   6.548   3.096  0.2533  0.1391 -0.3395
    1DIPC   GL120967   6.861   6.290   3.435 -0.2821 -0.0235  0.1451
    1DIPC   GL220968   6.918   6.074   3.208  0.2252 -0.2124 -0.3396
    1DIPC   C1A20969   6.827   6.076   3.869 -0.1951  0.0865 -0.1239
    1DIPC   D2A20970   6.520   5.721   4.002 -0.4558  0.2099  0.1637
    1DIPC   D3A20971   6.361   6.118   3.694  0.3656  0.0849 -0.1816
    1DIPC   C4A20972   5.921   6.228   3.630  0.1333  0.1461 -0.1637
    1DIPC   C1B20973   6.979   5.640   3.553 -0.0715  0.2878 -0.3768
    1DIPC   D2B20974   7.169   5.351   3.812 -0.0575  0.0607  0.1418
    1DIPC   D3B20975   6.976   5.325   4.102 -0.0231  0.2158 -0.3636
    1DIPC   C4B20976   7.022   5.419   4.590 -0.1383 -0.2455  0.2294
    1DIPC   NC320977  20.293   8.344   3.571  0.2143  0.1060 -0.0891
    1DIPC   PO420978  20.742   8.521   3.670  0.0868 -0.1178 -0.0652
    1DIPC   GL120979  20.817   8.434   4.071 -0.0081  0.2286  0.1345
    1DIPC   GL220980  20.876   8.088   4.115 -0.2487  0.1294 -0.1188
    1DIPC   C1A20981  20.711   8.480   4.527 -0.3234  0.0164  0.0547
    1DIPC   D2A20982  20.895   8.653   4.828 -0.1636 -0.1085 -0.0277
    1DIPC   D3A20983  20.908   9.072   4.920 -0.1887  0.0702  0.0172
    1DIPC   C4A20984  20.571   9.237   5.291  0.0027 -0.5027 -0.0754
    1DIPC   C1B20985  20.974   7.967   4.487 -0.1646 -0.3625 -0.1349
    1DIPC   D2B20986  21.184   7.743   4.849  0.2423 -0.2387  0.1693
    1DIPC   D3B20987  21.420   8.172   5.154 -0.0589 -0.0310 -0.0618
    1DIPC   C4B20988  21.240   8.666   5.225  0.1523  0.2459 -0.2588
    1DIPC   NC320989  19.928   7.764   3.195 -0.0733 -0.2090 -0.3320
    1DIPC   PO420990  19.862   8.026   3.546 -0.1958  0.1602 -0.0418
    1DIPC   GL120991  20.097   8.067   3.962  0.0730  0.0096  0.0411
    1DIPC   GL220992  20.328   8.255   4.177  0.2248 -0.0356  0.0467
    1DIPC   C1A20993  20.008   7.933   4.397 -0.0172 -0.0655 -0.0921
    1DIPC   D2A20994  19.715   7.699   4.504  0.0975  0.2203  0.0238
    1DIPC   D3A20995  19.883   7.371   4.614 -0.3812  0.0955 -0.0235
    1DIPC   C4A20996  20.321   7.275   4.788  0.0169 -0.0873  0.0468
    1DIPC   C1B20997  20.261   8.654   4.559  0.1061 -0.1513  0.0914
    1DIPC   D2B20998  20.501   9.039   4.645  0.2783  0.2975  0.1107
    1DIPC   D3B20999  20.233   9.315   4.375 -0.0153  0.1422  0.1193
    1DIPC   C4B21000  20.127   9.774   4.406 -0.1705  0.0368  0.0636
    1DIPC   NC321001  14.321   2.584   3.017  0.1346  0.1533 -0.0157
    1DIPC   PO421002  14.473   2.441   3.434 -0.0132  0.0489  0.0588
    1DIPC   GL121003  14.368   2.244   3.988 -0.1721  0.1385 -0.0320
    1DIPC   GL221004  14.623   2.109   4.145 -0.2096 -0.1191 -0.0977
    1DIPC   C1A21005  14.307   2.132   4.510  0.1672 -0.1077  0.2146
    1DIPC   D2A21006  14.140   2.164   4.907  0.0488  0.3633  0.0989
    1DIPC   D3A21007  14.186   2.261   5.249  0.0615  0.1028  0.1736
    1DIPC   C4A21008  14.220   2.090   5.638  0.3370 -0.0202  0.2926
    1DIPC   C1B21009  14.770   2.434   4.378  0.2057 -0.1810 -0.0043
    1DIPC   D2B21010  15.064   2.338   4.750 -0.2277  0.0304 -0.1704
    1DIPC   D3B21011  15.041   2.704   4.916  0.1235 -0.0785 -0.1819
    1DIPC   C4B21012  15.295   2.954   4.661  0.2641  0.2752  0.1716
    1DIPC   NC321013  10.642  13.253   4.118  0.4041 -0.1577  0.2930
    1DIPC   PO421014  11.071  13.447   4.238 -0.0511 -0.0410 -0.2510
    1DIPC   GL121015  10.802  13.680   4.540 -0.1776 -0.1076  0.1987
    1DIPC   GL221016  10.503  13.762   4.597  0.1016  0.0471 -0.4233
    1DIPC   C1A21017  10.724  13.933   4.977  0.1443  0.3330 -0.2774
    1DIPC   D2A21018  10.255  14.131   4.916  0.1893  0.2869  0.0422
    1DIPC   D3A21019  10.017  14.250   5.280 -0.1673  0.0540 -0.2916
    1DIPC   C4A21020   9.683  14.305   5.608  0.2166  0.0630 -0.1627
    1DIPC   C1B21021  10.251  13.496   4.962  0.2857 -0.3668 -0.0374
    1DIPC   D2B21022  10.122  13.267   5.359 -0.0542 -0.0470 -0.1753
    1DIPC   D3B21023  10.286  13.737   5.361 -0.4377 -0.1837 -0.2620
    1DIPC   C4B21024  10.020  13.949   5.672  0.1454  0.1035  0.2352
    1DIPC   NC321025  12.919  20.934   3.278  0.3379  0.1356 -0.1244
    1DIPC   PO421026  12.377  20.950   3.301  0.2791 -0.7844  0.0289
    1DIPC   GL121027  12.270  20.922   3.750 -0.1487 -0.1389 -0.0994
    1DIPC   GL221028  12.027  21.087   3.834  0.1809 -0.0699  0.0983
    1DIPC   C1A21029  12.595  20.944   4.014 -0.2420 -0.2081 -0.4449
    1DIPC   D2A21030  12.453  20.886   4.350  0.0931 -0.1929  0.0164
    1DIPC   D3A21031  12.794  20.599   4.506 -0.2188  0.2197  0.1683
    1DIPC   C4A21032  12.595  20.522   4.879  0.0697  0.1034  0.0823
    1DIPC   C1B21033  12.283  21.357   4.146  0.2056  0.2079 -0.1733
    1DIPC   D2B21034  12.143  21.767   4.195 -0.0672 -0.2035  0.1526
    1DIPC   D3B21035  12.020  21.405   4.590  0.0190  0.1142  0.1158
    1DIPC   C4B21036  11.883  21.497   5.057  0.1759 -0.0799 -0.2104
    1DIPC   NC321037  21.096   2.731   2.642  0.1417  0.0520  0.2258
    1DIPC   PO421038  21.123   2.446   2.933 -0.0257  0.1312  0.1536
    1DIPC   GL121039  21.400   2.626   3.292 -0.0149 -0.2909 -0.1154
    1DIPC   GL221040  21.582   2.863   3.387 -0.0740  0.0041  0.0471
    1DIPC   C1A21041  21.360   2.574   3.727 -0.3374 -0.1764 -0.0476
    1DIPC   D2A21042  21.095   2.588   4.110 -0.3074 -0.1010 -0.2115
    1DIPC   D3A21043  21.247   2.242   4.289 -0.1024  0.1847 -0.1880
    1DIPC   C4A21044  21.467   2.166   3.992  0.0866  0.3274 -0.0879
    1DIPC   C1B21045  21.603   3.354   3.576 -0.0665 -0.0101 -0.1049
    1DIPC   D2B21046  21.466   3.629   3.960  0.0654  0.0916  0.3960
    1DIPC   D3B21047  21.791   3.774   4.188  0.1693  0.1661  0.1794
    1DIPC   C4B21048  21.948   4.101   4.460 -0.1405 -0.2134 -0.1362
    1DIPC   NC321049  25.267  15.869   2.294 -0.0729 -0.0269  0.0126
    1DIPC   PO421050  25.063  15.961   2.629 -0.1446 -0.0165 -0.3122
    1DIPC   GL121051  25.058  15.884   3.046 -0.2648  0.0850 -0.0417
    1DIPC   GL221052  24.796  15.698   3.096 -0.0679 -0.1566  0.0624
    1DIPC   C1A21053  25.135  16.004   3.501 -0.2608 -0.2586  0.2722
    1DIPC   D2A21054  24.967  16.349   3.709 -0.0366  0.1321  0.1007
    1DIPC   D3A21055  25.120  16.570   3.385  0.0009  0.3303 -0.0727
    1DIPC   C4A21056  25.438  16.370   3.389 -0.1096 -0.4128  0.1020
    1DIPC   C1B21057  24.734  15.760   3.516 -0.1473 -0.2606  0.2030
    1DIPC   D2B21058  24.809  15.871   3.978 -0.0202  0.0158  0.2644
    1DIPC   D3B21059  24.669  15.450   4.010  0.1115  0.1455  0.1433
    1DIPC   C4B21060  24.857  15.219   3.646 -0.2607 -0.5175 -0.0090
    1DIPC   NC321061  26.510   1.728   2.539  0.0569 -0.1484  0.0380
    1DIPC   PO421062  27.003   1.735   2.583  0.1286  0.0859 -0.0804
    1DIPC   GL121063  27.038   1.941   2.934  0.2249 -0.0429  0.4088
    1DIPC   GL221064  27.312   2.027   3.134 -0.0423  0.3671  0.1996
    1DIPC   C1A21065  26.679   2.186   3.194 -0.0402 -0.0584  0.0414
    1DIPC   D2A21066  26.591   2.551   3.361  0.2019  0.1213  0.0123
    1DIPC   D3A21067  26.216   2.353   3.498  0.1924  0.1872 -0.4040
    1DIPC   C4A21068  26.208   1.994   3.795  0.3710  0.4046  0.0562
    1DIPC   C1B21069  27.445   1.935   3.583  0.2842 -0.1648  0.2241
    1DIPC   D2B21070  27.402   1.880   3.997  0.0430  0.1314  0.1938
    1DIPC   D3B21071  27.133   2.270   3.983 -0.0361 -0.0660  0.1627
    1DIPC   C4B21072  27.037   2.430   4.315 -0.0753  0.2317 -0.1083
    1DIPC   NC321073  13.737  19.776   3.456  0.2469  0.0982  0.0575
    1DIPC   PO421074  14.142  20.023   3.364 -0.1235 -0.0777 -0.1004
    1DIPC   GL121075  14.385  20.222   3.643 -0.1972  0.0359  0.0246
    1DIPC   GL221076  14.567  20.048   3.978  0.0745 -0.0872  0.1375
    1DIPC   C1A21077  14.668  20.593   3.974  0.1506  0.4951 -0.0141
    1DIPC   D2A21078  14.649  21.072   3.867 -0.1000 -0.1157 -0.2392
    1DIPC   D3A21079  14.710  21.462   4.024  0.4031 -0.2082  0.1768
    1DIPC   C4A21080  14.349  21.764   3.994 -0.0471  0.0100  0.1417
    1DIPC   C1B21081  14.262  20.362   4.089  0.1503 -0.0009 -0.2368
    1DIPC   D2B21082  13.997  20.442   4.372 -0.1629  0.0697  0.1889
    1DIPC   D3B21083  14.252  20.503   4.751  0.0282 -0.1114  0.0045
    1DIPC   C4B21084  13.902  20.452   5.056 -0.1235 -0.3760 -0.1475
    1DIPC   NC321085  22.159  24.284   3.807 -0.0543  0.2373  0.1047
    1DIPC   PO421086  22.117  24.737   3.635  0.6018 -0.3071 -0.1124
    1DIPC   GL121087  21.963  24.636   4.059 -0.0987 -0.0474 -0.3880
    1DIPC   GL221088  21.768  24.386   4.109  0.1016 -0.3580  0.0495
    1DIPC   C1A21089  22.191  24.470   4.433  0.2955  0.0078 -0.4192
    1DIPC   D2A21090  22.304  24.531   4.890  0.1837 -0.1308  0.1899
    1DIPC   D3A21091  22.686  24.707   4.903  0.3251  0.0938  0.1006
    1DIPC   C4A21092  22.795  25.041   4.618 -0.2149 -0.3096 -0.0767
    1DIPC   C1B21093  21.480  24.101   4.458 -0.0361 -0.2638  0.1839
    1DIPC   D2B21094  21.489  23.925   4.844 -0.0531  0.0404 -0.1698
    1DIPC   D3B21095  21.132  23.929   5.089  0.0807  0.2057  0.3999
    1DIPC   C4B21096  21.035  24.178   5.449  0.3356 -0.1025  0.2951
    1DIPC   NC321097   7.566  15.599   3.538 -0.2736  0.0881 -0.2713
    1DIPC   PO421098   8.007  15.650   3.634  0.0083  0.0537 -0.1127
    1DIPC   GL121099   7.997  15.484   4.021 -0.2048  0.0896  0.0509
    1DIPC   GL221100   7.696  15.462   4.137 -0.2079 -0.3136  0.2573
    1DIPC   C1A21101   8.174  15.816   4.279 -0.1628 -0.4575 -0.0983
    1DIPC   D2A21102   7.873  15.888   4.424  0.0462  0.1505  0.2628
    1DIPC   D3A21103   7.925  15.797   4.759  0.1920 -0.1588 -0.2199
    1DIPC   C4A21104   8.091  15.949   5.079  0.2895 -0.3610  0.0504
    1DIPC   C1B21105   8.113  15.372   4.524 -0.0016  0.1207 -0.0342
    1DIPC   D2B21106   8.138  15.408   4.950 -0.0580 -0.4403 -0.3869
    1DIPC   D3B21107   7.857  15.514   5.197 -0.1937 -0.0564  0.0127
    1DIPC   C4B21108   7.471  15.758   5.083  0.2855  0.1016  0.1554
    1DIPC   NC321109   9.508  12.230   3.555 -0.0405  0.0929  0.2872
    1DIPC   PO421110   9.400  11.956   3.731 -0.0225  0.5875  0.2149
    1DIPC   GL121111   9.232  11.854   4.113 -0.1202 -0.0558  0.0127
    1DIPC   GL221112   9.313  11.540   4.299 -0.2469 -0.0705  0.1241
    1DIPC   C1A21113   8.891  11.995   4.332  0.1683  0.0332 -0.0650
    1DIPC   D2A21114   8.634  12.408   4.470 -0.0015  0.0228  0.2172
    1DIPC   D3A21115   8.240  12.639   4.702  0.0592  0.2610  0.0662
    1DIPC   C4A21116   8.122  12.323   5.036 -0.0843 -0.3156 -0.1198
    1DIPC   C1B21117   9.481  11.768   4.713 -0.5208  0.0623 -0.1165
    1DIPC   D2B21118   9.565  11.937   5.137  0.1705 -0.0043 -0.3109
    1DIPC   D3B21119   9.193  11.739   5.265  0.2513 -0.1006 -0.0715
    1DIPC   C4B21120   8.977  11.987   5.587 -0.0208  0.2871 -0.2427
    1DIPC   NC321121  16.746  22.955   3.384  0.0493  0.2721 -0.0062
    1DIPC   PO421122  16.397  22.561   3.255  0.2364  0.1397  0.2535
    1DIPC   GL121123  16.107  22.558   3.520  0.0084 -0.2258 -0.1253
    1DIPC   GL221124  16.306  22.926   3.680  0.1468  0.3482  0.1296
    1DIPC   C1A21125  15.845  22.790   3.912 -0.2356  0.0149  0.1084
    1DIPC   D2A21126  15.436  22.779   4.063  0.2483  0.2511 -0.0603
    1DIPC   D3A21127  15.420  22.658   4.488 -0.2662  0.0402  0.2039
    1DIPC   C4A21128  15.389  22.207   4.599 -0.1742  0.1660 -0.2910
    1DIPC   C1B21129  16.315  22.656   4.109  0.1118  0.1046  0.2058
    1DIPC   D2B21130  16.324  22.258   4.262 -0.2603  0.1501  0.1720
    1DIPC   D3B21131  16.170  22.262   4.701 -0.0577 -0.1055  0.0168
    1DIPC   C4B21132  16.283  21.889   4.881 -0.0977  0.1538  0.3542
    1DIPC   NC321133  14.675  26.377   3.343 -0.0221  0.0213  0.2195
    1DIPC   PO421134  14.892  26.055   3.558  0.1300 -0.1093 -0.0623
    1DIPC   GL121135  14.632  26.065   3.872  0.1529 -0.0293 -0.3246
    1DIPC   GL221136  14.563  25.722   3.927  0.0598  0.0407 -0.2799
    1DIPC   C1A21137  14.634  26.079   4.307 -0.2653 -0.0474  0.0673
    1DIPC   D2A21138  14.476  25.878   4.747  0.2414  0.0155  0.1098
    1DIPC   D3A21139  14.491  26.263   5.007  0.2135 -0.0909  0.0608
    1DIPC   C4A21140  14.075  26.522   5.082 -0.0025  0.2242 -0.0516
    1DIPC   C1B21141  14.201  25.803   4.149 -0.0528 -0.1889  0.0352
    1DIPC   D2B21142  13.863  25.957   4.234 -0.0375 -0.2769 -0.0864
    1DIPC   D3B21143  13.403  25.969   4.131  0.0837  0.0658 -0.1998
    1DIPC   C4B21144  13.199  26.209   4.467  0.0848  0.0622 -0.1548
    1DIPC   NC321145   6.361   8.829   3.444 -0.1065 -0.2214  0.0381
    1DIPC   PO421146   6.725   8.508   3.476  0.1391  0.1569  0.1288
    1DIPC   GL121147   6.469   8.577   3.848  0.0069 -0.2143 -0.0611
    1DIPC   GL221148   6.520   8.270   4.073  0.4631  0.1159 -0.2529
    1DIPC   C1A21149   6.184   8.755   4.135 -0.1825  0.2417 -0.0757
    1DIPC   D2A21150   5.933   9.012   4.184  0.1045  0.1759  0.1781
    1DIPC   D3A21151   5.771   8.646   4.370  0.2366  0.2761  0.1741
    1DIPC   C4A21152   5.510   8.330   4.176 -0.1266  0.0734 -0.0534
    1DIPC   C1B21153   6.578   8.128   4.380  0.0884  0.1318 -0.2541
    1DIPC   D2B21154   6.739   8.129   4.773 -0.3964 -0.2499 -0.1899
    1DIPC   D3B21155   6.740   7.679   4.875  0.2038  0.0911  0.0934
    1DIPC   C4B21156   6.672   7.662   5.296 -0.1564  0.0588  0.3627
    1DIPC   NC321157   2.193  17.839   2.828 -0.3554  0.0463  0.3710
    1DIPC   PO421158   2.508  18.005   2.932 -0.0644  0.2663 -0.2551
    1DIPC   GL121159   2.352  18.196   3.392 -0.1938  0.2326 -0.1668
    1DIPC   GL221160   2.560  18.373   3.627 -0.0106  0.0685 -0.1159
    1DIPC   C1A21161   2.119  17.984   3.720 -0.3174  0.3780  0.1817
    1DIPC   D2A21162   2.083  17.757   4.037  0.0514  0.2909 -0.1451
    1DIPC   D3A21163   2.018  17.538   3.547 -0.0376 -0.2413 -0.0561
    1DIPC   C4A21164   1.996  17.070   3.441 -0.3571  0.1198  0.3646
    1DIPC   C1B21165   2.301  18.296   4.051  0.0538  0.2518  0.2524
    1DIPC   D2B21166   1.794  18.272   4.185  0.3951 -0.3603 -0.0213
    1DIPC   D3B21167   1.726  18.008   4.427 -0.1993  0.1425  0.1480
    1DIPC   C4B21168   1.732  18.175   4.846 -0.0209  0.2224  0.5270
    1DIPC   NC321169  23.348  23.034   2.969 -0.1509  0.0395  0.2997
    1DIPC   PO421170  23.058  22.654   3.033 -0.1120  0.0422 -0.2879
    1DIPC   GL121171  23.101  22.479   3.520  0.2784  0.0824 -0.3887
    1DIPC   GL221172  22.958  22.247   3.516 -0.2541 -0.0098 -0.3427
    1DIPC   C1A21173  23.428  22.463   3.773  0.0370  0.0081  0.0620
    1DIPC   D2A21174  23.778  22.456   3.963  0.0770 -0.1064 -0.2820
    1DIPC   D3A21175  24.112  22.295   3.980  0.2287  0.2680  0.0947
    1DIPC   C4A21176  24.336  22.212   4.369 -0.1382 -0.4921  0.2062
    1DIPC   C1B21177  22.732  22.393   3.824 -0.0744  0.4442  0.2236
    1DIPC   D2B21178  22.301  22.639   3.930  0.1243  0.1171  0.1006
    1DIPC   D3B21179  22.216  23.021   4.271  0.0283  0.4800 -0.2394
    1DIPC   C4B21180  22.358  22.796   4.686 -0.0351  0.1412  0.1131
    1DIPC   NC321181  27.599  23.893   2.894 -0.2303  0.0147  0.3200
    1DIPC   PO421182  27.232  23.667   2.828  0.0865  0.4819 -0.1167
    1DIPC   GL121183  27.499  23.473   3.180  0.1977 -0.2770 -0.0464
    1DIPC   GL221184  27.398  23.279   3.323 -0.1704  0.0756  0.1784
    1DIPC   C1A21185  27.637  23.602   3.602 -0.4853  0.2349  0.0624
    1DIPC   D2A21186  27.818  23.428   3.911  0.0370 -0.1910 -0.1814
    1DIPC   D3A21187  27.900  23.802   4.304  0.1311  0.0131  0.2084
    1DIPC   C4A21188   0.101  23.757   4.590 -0.0383 -0.1238  0.2233
    1DIPC   C1B21189  27.203  23.376   3.713  0.0672  0.3138  0.1805
    1DIPC   D2B21190  26.955  23.405   4.086  0.5428  0.1160 -0.0504
    1DIPC   D3B21191  26.880  23.880   4.193 -0.3666 -0.0762  0.1704
    1DIPC   C4B21192  26.654  24.122   3.861 -0.1693 -0.3362 -0.2204
    1DIPC   NC321193  20.527   0.361   2.694  0.0362 -0.2652 -0.1768
    1DIPC   PO421194  20.769   0.377   3.156  0.0144 -0.3337  0.1160
    1DIPC   GL121195  20.867   0.350   3.534  0.0695  0.0103 -0.1241
    1DIPC   GL221196  20.991   0.063   3.730 -0.1447  0.0956  0.0069
    1DIPC   C1A21197  20.963   0.575   3.943 -0.1547 -0.1954 -0.0341
    1DIPC   D2A21198  21.193   0.837   4.236 -0.0464  0.1884 -0.0348
    1DIPC   D3A21199  20.903   0.940   4.637  0.0172 -0.1853  0.0908
    1DIPC   C4A21200  20.963   0.648   4.778  0.1522 -0.1691  0.3405
    1DIPC   C1B21201  20.609   0.156   3.938  0.2295 -0.1367  0.0112
    1DIPC   D2B21202  20.595   0.260   4.330 -0.1700  0.2827 -0.0603
    1DIPC   D3B21203  20.971   0.119   4.468  0.1452  0.0564  0.1122
    1DIPC   C4B21204  21.271   0.168   4.836  0.0483  0.0879  0.5057
    1DIPC   NC321205  22.341  27.994   3.094  0.2384  0.0759 -0.3035
    1DIPC   PO421206  22.285   0.189   3.452  0.2494  0.1675 -0.0300
    1DIPC   GL121207  22.215   0.375   3.849 -0.1706  0.0453  0.1698
    1DIPC   GL221208  22.468   0.151   4.067 -0.2252  0.1557 -0.0680
    1DIPC   C1A21209  22.006   0.320   4.166 -0.0235  0.1276  0.0731
    1DIPC   D2A21210  21.980   0.053   4.537  0.3239 -0.0316  0.1620
    1DIPC   D3A21211  21.813   0.296   4.744 -0.0822  0.1293 -0.0177
    1DIPC   C4A21212  21.939   0.433   5.135  0.0023 -0.2221 -0.0629
    1DIPC   C1B21213  22.459  28.011   4.368  0.1470 -0.1485 -0.2279
    1DIPC   D2B21214  22.747  27.757   4.530 -0.0099  0.1783  0.1797
    1DIPC   D3B21215  22.940  28.044   4.800  0.0248  0.3014 -0.1141
    1DIPC   C4B21216  22.751   0.257   5.033  0.0135  0.5668 -0.2337
    1DIPC   NC321217  26.462  22.740   2.554  0.1167 -0.1113  0.0416
    1DIPC   PO421218  26.241  22.715   2.925 -0.2144  0.0768  0.1032
    1DIPC   GL121219  26.399  22.641   3.363 -0.3159 -0.0937 -0.1578
    1DIPC   GL221220  26.420  22.312   3.475 -0.3778 -0.0372  0.0903
    1DIPC   C1A21221  26.707  22.708   3.773 -0.2138  0.1062  0.0509
    1DIPC   D2A21222  26.547  22.868   4.198 -0.0007 -0.2158  0.1760
    1DIPC   D3A21223  26.470  22.572   4.423 -0.0384  0.3982  0.0491
    1DIPC   C4A21224  26.566  22.132   4.373  0.2086 -0.1815  0.0734
    1DIPC   C1B21225  26.435  22.306   3.846 -0.0222 -0.0415 -0.1574
    1DIPC   D2B21226  26.144  22.277   4.123 -0.3252  0.0777  0.0420
    1DIPC   D3B21227  25.927  22.202   3.723  0.0013 -0.0628 -0.0547
    1DIPC   C4B21228  25.550  22.108   3.562 -0.0915 -0.4273  0.0094
    1DIPC   NC321229  13.648  21.078   3.149 -0.2489  0.1968 -0.2006
    1DIPC   PO421230  14.046  20.875   2.998 -0.1585  0.0327  0.1247
    1DIPC   GL121231  14.225  20.968   3.360  0.1114 -0.1443  0.1125
    1DIPC   GL221232  14.313  20.725   3.649  0.2442  0.1003  0.1134
    1DIPC   C1A21233  14.349  21.358   3.645 -0.0486  0.1984 -0.1392
    1DIPC   D2A21234  14.233  21.274   4.155  0.0381  0.0893 -0.0718
    1DIPC   D3A21235  14.085  20.930   4.342  0.2499 -0.3225 -0.0839
    1DIPC   C4A21236  14.046  21.021   4.817 -0.0700 -0.1302  0.2308
    1DIPC   C1B21237  13.956  20.685   3.901  0.1812 -0.1753  0.1432
    1DIPC   D2B21238  13.503  20.539   3.987  0.3665 -0.0850 -0.2548
    1DIPC   D3B21239  13.494  20.827   4.425  0.1847  0.2353  0.1398
    1DIPC   C4B21240  13.204  20.845   4.728  0.2493 -0.0358  0.4138
    1DIPC   NC321241   8.859  25.172   3.060  0.2374 -0.1456 -0.1473
    1DIPC   PO421242   8.491  25.465   3.049  0.0660  0.0236  0.2210
    1DIPC   GL121243   8.460  25.527   3.438  0.4140  0.0521  0.5305
    1DIPC   GL221244   8.233  25.790   3.576 -0.1179 -0.1143 -0.1256
    1DIPC   C1A21245   8.262  25.316   3.915 -0.1453 -0.1708  0.1943
    1DIPC   D2A21246   8.004  25.087   4.150 -0.2479 -0.0743  0.1225
    1DIPC   D3A21247   7.739  25.369   4.028  0.5404  0.0656 -0.1766
    1DIPC   C4A21248   7.801  25.573   3.653  0.0933 -0.1006 -0.1271
    1DIPC   C1B21249   7.842  26.138   3.487 -0.1123  0.3141 -0.4082
    1DIPC   D2B21250   7.822  26.560   3.477 -0.3426  0.0649  0.2098
    1DIPC   D3B21251   7.999  26.715   3.794  0.0805 -0.0923  0.0138
    1DIPC   C4B21252   7.955  26.564   4.355  0.1607 -0.1059  0.1189
    1DIPC   NC321253  21.930   2.171   2.880  0.0349 -0.0524 -0.0389
    1DIPC   PO421254  21.907   2.644   3.036 -0.2515 -0.1699 -0.3389
    1DIPC   GL121255  22.097   2.765   3.361  0.0381 -0.4288 -0.1247
    1DIPC   GL221256  22.413   2.759   3.419  0.0456 -0.0868 -0.0131
    1DIPC   C1A21257  22.120   3.201   3.600 -0.0104  0.0372 -0.2456
    1DIPC   D2A21258  22.084   3.620   3.790 -0.1217 -0.2625 -0.1680
    1DIPC   D3A21259  22.281   3.572   4.213 -0.0257  0.2594 -0.3408
    1DIPC   C4A21260  22.119   3.332   4.625 -0.0126  0.0899  0.1748
    1DIPC   C1B21261  22.801   2.654   3.575  0.2220  0.1625 -0.0255
    1DIPC   D2B21262  23.166   2.430   3.731 -0.0088  0.1291 -0.0310
    1DIPC   D3B21263  23.531   2.688   3.809 -0.3336  0.2390  0.3541
    1DIPC   C4B21264  23.874   2.700   4.178 -0.3948 -0.0589 -0.0994
    1DIPC   NC321265  24.728   1.315   3.292 -0.1376  0.2758 -0.0761
    1DIPC   PO421266  24.303   1.133   3.256  0.2869 -0.1188 -0.1744
    1DIPC   GL121267  24.322   1.197   3.669 -0.0681  0.0493 -0.0965
    1DIPC   GL221268  24.562   1.090   3.746 -0.0108 -0.1046 -0.2010
    1DIPC   C1A21269  24.534   1.466   4.093  0.2779 -0.0208 -0.1328
    1DIPC   D2A21270  24.489   1.672   4.578 -0.0199 -0.1021  0.0916
    1DIPC   D3A21271  24.146   1.822   4.838 -0.1444 -0.2435  0.1775
    1DIPC   C4A21272  24.364   2.161   5.012  0.2292  0.2327  0.1931
    1DIPC   C1B21273  24.575   0.941   4.190 -0.0544 -0.2303 -0.0690
    1DIPC   D2B21274  24.478   0.608   4.398  0.4786  0.1020  0.3187
    1DIPC   D3B21275  24.236   0.783   4.641 -0.0911 -0.0238 -0.1239
    1DIPC   C4B21276  24.438   0.948   4.990 -0.1150 -0.1663  0.0933
    1DIPC   NC321277   7.885  20.990   3.441 -0.1666  0.1495  0.0809
    1DIPC   PO421278   7.479  20.850   3.544  0.0449  0.0112 -0.0886
    1DIPC   GL121279   7.218  21.172   3.794  0.1369  0.0789  0.3442
    1DIPC   GL221280   6.878  21.179   3.952 -0.1042 -0.1325  0.0904
    1DIPC   C1A21281   7.257  21.207   4.216 -0.2942 -0.2442  0.0287
    1DIPC   D2A21282   7.140  21.284   4.695 -0.1401  0.2196  0.1859
    1DIPC   D3A21283   7.105  21.730   4.822 -0.0882 -0.1269  0.1106
    1DIPC   C4A21284   7.488  21.802   4.977  0.1707  0.0736  0.1233
    1DIPC   C1B21285   6.667  21.150   4.408 -0.0456 -0.2337 -0.2338
    1DIPC   D2B21286   6.680  21.466   4.720  0.1598  0.1636  0.6125
    1DIPC   D3B21287   6.876  21.588   4.363 -0.1221 -0.3711 -0.5087
    1DIPC   C4B21288   7.313  21.670   4.358 -0.1118 -0.1569 -0.4074
    1DIPC   NC321289  25.542  27.770   2.955 -0.0553  0.2930  0.1860
    1DIPC   PO421290  25.617  28.057   3.301 -0.1711  0.3383 -0.2341
    1DIPC   GL121291  25.510   0.028   3.698  0.4103 -0.1170 -0.0303
    1DIPC   GL221292  25.205  28.078   3.691  0.0662  0.1923 -0.0957
    1DIPC   C1A21293  25.554  28.087   4.218  0.0104 -0.1127 -0.1283
    1DIPC   D2A21294  25.366   0.225   4.586  0.1230 -0.1322 -0.3652
    1DIPC   D3A21295  25.351   0.597   4.695  0.0893  0.1895 -0.0893
    1DIPC   C4A21296  25.124   0.857   4.446  0.0645  0.2417  0.3042
    1DIPC   C1B21297  25.017   0.062   4.151  0.0115 -0.0170  0.1074
    1DIPC   D2B21298  24.924   0.428   4.356 -0.1898  0.1840 -0.2073
    1DIPC   D3B21299  24.778   0.117   4.727  0.2482 -0.0126  0.1237
    1DIPC   C4B21300  25.051  27.948   4.597  0.1340  0.1154  0.2202
    1DIPC   NC321301  26.240  15.792   2.727  0.0014 -0.0112  0.1737
    1DIPC   PO421302  26.476  16.182   2.833 -0.3255 -0.2398 -0.0214
    1DIPC   GL121303  26.349  16.475   3.218  0.3576 -0.2108  0.3455
    1DIPC   GL221304  26.371  16.708   3.125  0.1226 -0.0205  0.5950
    1DIPC   C1A21305  26.348  16.634   3.700 -0.1106  0.1577 -0.4704
    1DIPC   D2A21306  26.521  16.691   4.108 -0.1129 -0.4213  0.0736
    1DIPC   D3A21307  26.481  16.879   4.490  0.0796 -0.6186 -0.1987
    1DIPC   C4A21308  26.328  17.300   4.509  0.2944  0.4661  0.2557
    1DIPC   C1B21309  26.615  17.021   3.310  0.3558  0.0064 -0.1473
    1DIPC   D2B21310  26.903  16.930   3.776  0.0940  0.0929 -0.0925
    1DIPC   D3B21311  27.342  16.976   3.880  0.4100 -0.0629 -0.0512
    1DIPC   C4B21312  27.415  17.373   3.734  0.2431 -0.1367 -0.0125
    1DIPC   NC321313   7.841   4.478   2.593  0.0008 -0.0632  0.2259
    1DIPC   PO421314   7.966   4.747   2.991  0.1575 -0.0636  0.2037
    1DIPC   GL121315   8.012   4.446   3.387  0.2580  0.0763 -0.2243
    1DIPC   GL221316   8.228   4.266   3.563  0.0649  0.1587  0.1266
    1DIPC   C1A21317   7.838   4.605   3.807  0.1385  0.0896 -0.0133
    1DIPC   D2A21318   7.732   4.583   4.241  0.1020 -0.1118  0.0209
    1DIPC   D3A21319   7.851   4.247   4.492 -0.0479  0.1204  0.1288
    1DIPC   C4A21320   7.870   4.360   4.943  0.1662 -0.2194  0.1045
    1DIPC   C1B21321   8.101   4.235   4.011  0.0624  0.0196 -0.0070
    1DIPC   D2B21322   8.249   3.978   4.273 -0.2231  0.2204 -0.2898
    1DIPC   D3B21323   8.298   4.137   4.695 -0.4231 -0.1484  0.0132
    1DIPC   C4B21324   8.161   3.928   5.036  0.1042  0.1583 -0.2765
    1DIPC   NC321325   4.936   5.165   1.706 -0.2104 -0.1314  0.0154
    1DIPC   PO421326   4.567   5.008   1.732  0.0623 -0.0699 -0.2353
    1DIPC   GL121327   4.317   4.970   2.063 -0.0220 -0.0328  0.0605
    1DIPC   GL221328   4.165   4.664   2.160 -0.0757 -0.3237 -0.0051
    1DIPC   C1A21329   4.284   5.236   2.446  0.0093  0.2102  0.0376
    1DIPC   D2A21330   4.391   5.721   2.472  0.1868 -0.2157 -0.4594
    1DIPC   D3A21331   4.624   6.184   2.511  0.0511 -0.1296 -0.1342
    1DIPC   C4A21332   4.479   6.630   2.664  0.2410  0.1791  0.1227
    1DIPC   C1B21333   4.002   4.846   2.504 -0.2377  0.1535 -0.2886
    1DIPC   D2B21334   3.951   5.040   2.877 -0.3083 -0.1446  0.0547
    1DIPC   D3B21335   3.966   4.843   3.271  0.0128  0.0454  0.2097
    1DIPC   C4B21336   4.075   4.599   3.693 -0.3028  0.0459  0.3044
    1DIPC   NC321337  11.255  26.730   2.620 -0.1200  0.1382 -0.3023
    1DIPC   PO421338  11.064  27.003   3.002  0.0695  0.0029  0.4222
    1DIPC   GL121339  10.875  27.157   3.340  0.0295 -0.0456 -0.1578
    1DIPC   GL221340  10.566  27.113   3.130  0.1819 -0.5073  0.0560
    1DIPC   C1A21341  10.687  27.092   3.772  0.0520  0.0617 -0.1488
    1DIPC   D2A21342  10.645  27.128   4.170 -0.2481 -0.1541  0.0818
    1DIPC   D3A21343  10.862  26.687   4.085 -0.2061 -0.0398 -0.2821
    1DIPC   C4A21344  11.316  26.492   4.108  0.2363  0.2382 -0.0723
    1DIPC   C1B21345  10.253  26.828   3.384  0.0476 -0.0292 -0.0621
    1DIPC   D2B21346  10.012  26.518   3.574  0.1451  0.0767  0.0686
    1DIPC   D3B21347  10.072  26.423   4.107 -0.2100  0.0630 -0.2295
    1DIPC   C4B21348   9.846  26.105   4.330  0.2365 -0.0925 -0.3446
    1DIPC   NC321349  19.426   7.479   3.269  0.0634  0.1250 -0.3517
    1DIPC   PO421350  19.662   7.128   3.235  0.1051  0.0499 -0.0180
    1DIPC   GL121351  19.899   7.264   3.609 -0.1350 -0.0319 -0.1766
    1DIPC   GL221352  19.914   7.583   3.787  0.4746 -0.0759 -0.0183
    1DIPC   C1A21353  20.184   7.118   3.860 -0.0223 -0.1440  0.0537
    1DIPC   D2A21354  20.384   7.229   4.227  0.2713  0.0464  0.1093
    1DIPC   D3A21355  20.674   6.900   4.218  0.1201 -0.0992  0.3488
    1DIPC   C4A21356  20.687   6.540   4.407  0.0677  0.1151  0.3347
    1DIPC   C1B21357  19.705   7.325   4.094 -0.0572  0.1658 -0.1504
    1DIPC   D2B21358  19.441   7.075   4.442  0.1301  0.0855  0.1057
    1DIPC   D3B21359  19.079   6.905   4.643  0.2309  0.1581  0.1765
    1DIPC   C4B21360  18.899   6.639   4.332  0.1981  0.0629 -0.0460
    1DIPC   NC321361  20.700   7.884   2.921  0.0223 -0.2914  0.0296
    1DIPC   PO421362  20.447   7.786   3.292  0.0546  0.0567  0.0012
    1DIPC   GL121363  20.544   7.890   3.724  0.0903 -0.3024 -0.1152
    1DIPC   GL221364  20.843   7.819   3.669 -0.0823  0.3265 -0.2091
    1DIPC   C1A21365  20.395   7.692   4.111  0.0455  0.1612  0.1971
    1DIPC   D2A21366  20.472   7.737   4.542 -0.1930 -0.0904  0.0892
    1DIPC   D3A21367  20.516   7.951   4.882  0.0282 -0.0227 -0.2051
    1DIPC   C4A21368  20.285   8.301   4.958  0.1001 -0.3399 -0.0535
    1DIPC   C1B21369  20.856   7.453   4.013  0.0511  0.0285  0.0461
    1DIPC   D2B21370  20.831   7.292   4.480  0.0908 -0.1791 -0.3920
    1DIPC   D3B21371  20.736   6.931   4.816 -0.1509  0.2600  0.0078
    1DIPC   C4B21372  20.634   7.093   5.228 -0.0677  0.0118  0.0631
    1DIPC   NC321373   0.543  14.324   2.112  0.1556 -0.1124 -0.0362
    1DIPC   PO421374   0.584  14.203   2.534  0.2134  0.0156  0.3764
    1DIPC   GL121375   0.676  14.079   3.056  0.2854  0.0501 -0.0643
    1DIPC   GL221376   0.977  14.250   3.212  0.2451 -0.0441 -0.1556
    1DIPC   C1A21377   0.608  14.010   3.433  0.0306 -0.2517 -0.0450
    1DIPC   D2A21378   0.707  14.149   3.773 -0.1440 -0.1103  0.1160
    1DIPC   D3A21379   0.333  14.194   3.951  0.2094  0.0635 -0.2894
    1DIPC   C4A21380   0.184  13.958   4.224  0.1689 -0.2692 -0.0594
    1DIPC   C1B21381   1.152  14.306   3.695  0.0007 -0.2109  0.2078
    1DIPC   D2B21382   1.067  14.412   4.101  0.1191 -0.0867  0.0231
    1DIPC   D3B21383   0.907  14.749   3.838  0.0223 -0.2023  0.0194
    1DIPC   C4B21384   1.049  15.201   3.827 -0.1434 -0.1333  0.0897
    1DIPC   NC321385  18.892  21.252   3.949 -0.1414 -0.2270  0.2109
    1DIPC   PO421386  19.010  21.721   3.727 -0.5354 -0.0020 -0.0803
    1DIPC   GL121387  19.080  21.660   4.184 -0.5363 -0.5418  0.0542
    1DIPC   GL221388  19.393  21.847   4.335  0.0118 -0.3423  0.3479
    1DIPC   C1A21389  18.937  21.572   4.546 -0.1826  0.3651  0.0749
    1DIPC   D2A21390  18.926  21.666   4.969  0.2109 -0.0208  0.0112
    1DIPC   D3A21391  18.697  21.645   5.354  0.0408 -0.2549 -0.0389
    1DIPC   C4A21392  18.627  21.310   5.673 -0.2357 -0.0767  0.1538
    1DIPC   C1B21393  19.339  21.784   4.716 -0.1729  0.0775 -0.1768
    1DIPC   D2B21394  19.532  21.793   5.112 -0.0507  0.1494  0.2689
    1DIPC   D3B21395  19.276  21.894   5.326  0.1094  0.0700 -0.0418
    1DIPC   C4B21396  18.887  22.094   5.145  0.0466 -0.3316  0.1695
    1DIPC   NC321397   8.737  16.069   3.683 -0.0155  0.2835  0.0399
    1DIPC   PO421398   8.237  16.096   3.580 -0.0077 -0.1197 -0.1935
    1DIPC   GL121399   8.014  16.191   3.939 -0.3621 -0.1975 -0.0789
    1DIPC   GL221400   7.672  16.389   3.970  0.2459  0.0783  0.1989
    1DIPC   C1A21401   8.145  16.344   4.405  0.0446 -0.0468  0.0646
    1DIPC   D2A21402   8.329  16.242   4.667 -0.0770 -0.3058 -0.1691
    1DIPC   D3A21403   7.991  16.481   4.901  0.1252  0.3252 -0.0017
    1DIPC   C4A21404   8.162  16.414   5.335  0.1202 -0.0052 -0.0264
    1DIPC   C1B21405   7.461  15.969   4.137 -0.1358  0.0263  0.0561
    1DIPC   D2B21406   7.398  15.896   4.519 -0.0708 -0.1237  0.3099
    1DIPC   D3B21407   7.562  16.258   4.604  0.1767  0.2023  0.0741
    1DIPC   C4B21408   7.559  16.303   5.132  0.0869 -0.0443 -0.2020
    1DIPC   NC321409   1.411  19.038   3.051  0.0299 -0.0728  0.3561
    1DIPC   PO421410   1.209  18.647   3.052  0.2589  0.2316  0.0260
    1DIPC   GL121411   1.321  18.653   3.494 -0.2007 -0.2447 -0.2826
    1DIPC   GL221412   1.449  18.963   3.530  0.4426 -0.2221  0.2580
    1DIPC   C1A21413   1.384  18.512   3.994 -0.3065 -0.0032  0.1729
    1DIPC   D2A21414   1.022  18.716   4.225  0.0485  0.1859 -0.0033
    1DIPC   D3A21415   0.681  18.591   4.456 -0.0790 -0.2296  0.4689
    1DIPC   C4A21416   0.300  18.547   4.443  0.2916  0.0104  0.0676
    1DIPC   C1B21417   1.287  18.956   3.932 -0.1969 -0.0529  0.1188
    1DIPC   D2B21418   1.145  19.174   4.153  0.1515 -0.0770  0.1243
    1DIPC   D3B21419   1.051  19.551   3.842  0.2624  0.0288 -0.2629
    1DIPC   C4B21420   0.886  19.945   3.998 -0.0388  0.1825  0.0429
    1DIPC   NC321421  25.819  27.080   3.024 -0.2535 -0.0371 -0.4045
    1DIPC   PO421422  25.652  27.398   3.272  0.0789 -0.0135 -0.2236
    1DIPC   GL121423  25.822  27.571   3.575 -0.3426 -0.0907  0.2816
    1DIPC   GL221424  26.070  27.477   3.685  0.0238  0.0594 -0.0179
    1DIPC   C1A21425  25.785  27.552   4.098 -0.1095 -0.0134 -0.1500
    1DIPC   D2A21426  25.801  27.676   4.496 -0.0266 -0.1733  0.1567
    1DIPC   D3A21427  25.674  27.953   4.738  0.0395  0.1337  0.0141
    1DIPC   C4A21428  25.835  28.102   5.184  0.3952  0.1681 -0.0303
    1DIPC   C1B21429  26.233  27.790   4.045  0.4715  0.3048 -0.0585
    1DIPC   D2B21430  26.323  27.791   4.430  0.1689 -0.1340  0.0310
    1DIPC   D3B21431  26.530  27.451   4.361 -0.1769  0.1992 -0.1353
    1DIPC   C4B21432  26.354  27.156   3.985  0.0424  0.2690  0.0503
    1DIPC   NC321433  20.172   7.049   2.629  0.0505  0.2121  0.1176
    1DIPC   PO421434  20.387   6.753   2.921 -0.3668 -0.0238 -0.1109
    1DIPC   GL121435  20.771   6.886   3.259 -0.2950  0.2108 -0.3300
    1DIPC   GL221436  21.010   7.136   3.315  0.2540  0.2849 -0.0572
    1DIPC   C1A21437  20.654   6.901   3.701 -0.0612  0.2762  0.1040
    1DIPC   D2A21438  21.073   6.720   3.944 -0.0022  0.1290 -0.0661
    1DIPC   D3A21439  21.034   6.240   4.128 -0.2546 -0.0633 -0.1691
    1DIPC   C4A21440  20.939   5.944   3.747 -0.0650 -0.4068  0.0060
    1DIPC   C1B21441  21.087   7.141   3.680  0.1585  0.3541  0.0630
    1DIPC   D2B21442  21.263   7.147   4.081  0.1426 -0.2115  0.0508
    1DIPC   D3B21443  21.167   6.945   4.453 -0.0226 -0.1602  0.2764
    1DIPC   C4B21444  21.554   6.765   4.565  0.0057  0.1556 -0.0871
    1DIPC   NC321445  15.357  17.841   3.719  0.0951  0.2690  0.3073
    1DIPC   PO421446  15.569  17.510   3.869  0.0049 -0.0606  0.0958
    1DIPC   GL121447  15.518  17.711   4.245 -0.0717  0.0176  0.1491
    1DIPC   GL221448  15.522  17.371   4.517 -0.1164 -0.1810 -0.1561
    1DIPC   C1A21449  15.432  18.065   4.615 -0.0838 -0.0344 -0.2785
    1DIPC   D2A21450  15.576  18.288   4.990 -0.0563 -0.1396 -0.0108
    1DIPC   D3A21451  15.723  17.989   5.217 -0.1468 -0.0455 -0.3105
    1DIPC   C4A21452  15.832  17.559   5.188 -0.2886 -0.1213 -0.2456
    1DIPC   C1B21453  15.892  17.543   4.570 -0.0664  0.2679  0.0500
    1DIPC   D2B21454  16.337  17.383   4.455  0.3127  0.3814 -0.1915
    1DIPC   D3B21455  15.995  17.036   4.581 -0.1092  0.0642 -0.1438
    1DIPC   C4B21456  15.745  17.123   4.885  0.1369 -0.0645  0.1559
    1DIPC   NC321457   1.338  27.832   3.221  0.1085  0.2730  0.0621
    1DIPC   PO421458   0.838  27.814   3.040  0.0236 -0.1605 -0.0368
    1DIPC   GL121459   0.768  27.851   3.455 -0.2547  0.1236  0.3010
    1DIPC   GL221460   0.992  27.988   3.528 -0.0907 -0.2002  0.0290
    1DIPC   C1A21461   0.322  27.927   3.579  0.0083  0.0706 -0.3951
    1DIPC   D2A21462   0.059  28.110   3.802  0.0805  0.1621  0.1699
    1DIPC   D3A21463  27.905  27.771   3.670  0.1265  0.0999  0.1150
    1DIPC   C4A21464  27.806  27.482   3.934 -0.1217 -0.1126 -0.1211
    1DIPC   C1B21465   0.930  27.926   3.928  0.0803  0.1392  0.3569
    1DIPC   D2B21466   0.810  27.826   4.365 -0.2878 -0.0569  0.3549
    1DIPC   D3B21467   1.071  27.831   4.762 -0.0904  0.3039 -0.1630
    1DIPC   C4B21468   1.525  27.996   4.807  0.1385 -0.1040 -0.2403
    1DIPC   NC321469   0.417   4.839   1.478 -0.0318 -0.1087 -0.3271
    1DIPC   PO421470   0.159   4.971   1.850  0.0270  0.1048 -0.1885
    1DIPC   GL121471   0.576   4.787   2.039 -0.1454 -0.3825 -0.0360
    1DIPC   GL221472   0.820   4.949   1.958 -0.2753 -0.0218 -0.1806
    1DIPC   C1A21473   0.565   4.778   2.570 -0.0489  0.0408  0.0326
    1DIPC   D2A21474   0.558   4.452   2.953  0.0205  0.1462  0.3826
    1DIPC   D3A21475   0.934   4.484   3.099  0.2650  0.0072  0.0450
    1DIPC   C4A21476   1.068   4.786   3.340 -0.0682 -0.1565  0.1740
    1DIPC   C1B21477   1.037   4.777   2.249  0.0788 -0.1415  0.3565
    1DIPC   D2B21478   1.377   4.895   2.537  0.0975 -0.0321  0.0046
    1DIPC   D3B21479   1.054   4.839   2.799 -0.1924 -0.0088  0.1123
    1DIPC   C4B21480   1.075   5.262   3.105 -0.1256 -0.0972  0.2175
    1DIPC   NC321481  11.267  24.388   3.000 -0.0671  0.0856 -0.0134
    1DIPC   PO421482  11.723  24.240   3.008  0.0043 -0.2219  0.0408
    1DIPC   GL121483  11.619  24.526   3.269 -0.0237  0.4092 -0.1335
    1DIPC   GL221484  11.433  24.664   3.403 -0.0287 -0.0276 -0.2956
    1DIPC   C1A21485  11.861  24.494   3.621 -0.1740  0.0385 -0.0915
    1DIPC   D2A21486  12.290  24.448   3.871  0.0543 -0.0367  0.1161
    1DIPC   D3A21487  12.196  24.453   4.231 -0.3129 -0.3391  0.2427
    1DIPC   C4A21488  11.959  24.365   4.554  0.0322 -0.3296  0.2051
    1DIPC   C1B21489  11.443  24.779   3.867  0.0916 -0.0316  0.2716
    1DIPC   D2B21490  11.576  25.194   4.098  0.1187  0.1238  0.0243
    1DIPC   D3B21491  11.523  24.934   4.337 -0.4643 -0.0919  0.0509
    1DIPC   C4B21492  11.571  24.501   4.280 -0.0616 -0.1521  0.0612
    1DIPC   NC321493   0.325  23.262   2.442 -0.1328 -0.2314  0.1848
    1DIPC   PO421494   0.144  23.425   2.920 -0.1884 -0.0261  0.0956
    1DIPC   GL121495   0.289  23.473   3.336 -0.0484 -0.0112 -0.0589
    1DIPC   GL221496   0.165  23.656   3.559  0.0746  0.3782  0.1877
    1DIPC   C1A21497   0.581  23.363   3.635  0.3152 -0.0655  0.1037
    1DIPC   D2A21498   0.636  23.397   4.068 -0.1302  0.2519 -0.1336
    1DIPC   D3A21499   1.004  23.465   4.040  0.0540 -0.0790  0.1146
    1DIPC   C4A21500   1.229  23.697   4.276  0.4459  0.0516  0.0276
    1DIPC   C1B21501  28.076  23.958   3.710  0.1706 -0.0433 -0.0589
    1DIPC   D2B21502  27.977  24.229   3.974  0.1495 -0.0796  0.0715
    1DIPC   D3B21503  27.791  24.653   3.920 -0.3310  0.2915  0.2834
    1DIPC   C4B21504  27.390  24.609   3.728 -0.1998 -0.2987  0.0585
    1DIPC   NC321505   3.154  10.804   3.279  0.2915 -0.1455 -0.0327
    1DIPC   PO421506   3.071  11.287   3.250 -0.3122  0.2180  0.0684
    1DIPC   GL121507   2.979  11.511   3.590  0.0145  0.3519  0.0313
    1DIPC   GL221508   2.542  11.614   3.652  0.2961 -0.0075  0.1162
    1DIPC   C1A21509   2.972  11.723   4.040 -0.0702  0.1039  0.0129
    1DIPC   D2A21510   2.910  11.787   4.460 -0.2703 -0.1385 -0.0039
    1DIPC   D3A21511   2.647  11.623   4.566 -0.1600  0.0609  0.2515
    1DIPC   C4A21512   2.238  11.874   4.561 -0.2365  0.0014 -0.1164
    1DIPC   C1B21513   2.727  11.245   3.981  0.0315 -0.2807  0.0614
    1DIPC   D2B21514   3.074  11.137   4.257  0.0379  0.0070 -0.1137
    1DIPC   D3B21515   2.983  11.266   4.696  0.1208 -0.0908  0.4348
    1DIPC   C4B21516   3.275  11.204   5.075 -0.1033  0.0535  0.1406
    1DIPC   NC321517   3.171  11.681   2.992  0.0128  0.0520  0.0151
    1DIPC   PO421518   3.615  11.806   3.101  0.0656  0.0183  0.0875
    1DIPC   GL121519   3.591  11.805   3.561 -0.0656  0.0306 -0.0368
    1DIPC   GL221520   3.816  11.597   3.786 -0.0593 -0.0272 -0.0643
    1DIPC   C1A21521   3.436  11.935   3.969  0.0956 -0.0631  0.0625
    1DIPC   D2A21522   3.336  12.006   4.460 -0.3017 -0.1452  0.0475
    1DIPC   D3A21523   3.270  11.839   4.824  0.0674  0.0042 -0.0006
    1DIPC   C4A21524   3.123  11.752   5.253  0.2275  0.2534  0.4101
    1DIPC   C1B21525   3.855  11.612   4.272  0.0761  0.1309  0.1832
    1DIPC   D2B21526   3.825  11.831   4.648  0.0237 -0.0313  0.1078
    1DIPC   D3B21527   3.795  12.236   4.344  0.0754 -0.2301 -0.1281
    1DIPC   C4B21528   3.846  12.180   3.866  0.0812 -0.1108 -0.0448
    1DIPC   NC321529  13.325  25.637   3.460 -0.4606  0.2698  0.0952
    1DIPC   PO421530  13.532  25.987   3.381  0.0696  0.2081  0.1063
    1DIPC   GL121531  13.796  26.178   3.593 -0.1335  0.1617 -0.3030
    1DIPC   GL221532  13.544  26.264   3.778 -0.2857  0.1513 -0.5186
    1DIPC   C1A21533  14.149  26.292   3.967 -0.2962 -0.0674 -0.2708
    1DIPC   D2A21534  14.156  26.396   4.383  0.0450 -0.1874 -0.3406
    1DIPC   D3A21535  14.033  26.137   4.719 -0.1824 -0.2002  0.1651
    1DIPC   C4A21536  13.556  25.927   4.672 -0.0061 -0.0769  0.1005
    1DIPC   C1B21537  13.217  26.470   4.005 -0.1980 -0.3133  0.1183
    1DIPC   D2B21538  12.807  26.295   4.134  0.0100  0.1195  0.3799
    1DIPC   D3B21539  12.433  26.490   3.804 -0.4757  0.0897 -0.0239
    1DIPC   C4B21540  12.062  26.587   4.017 -0.2125 -0.3583  0.0927
    1DIPC   NC321541  17.288  16.563   3.696 -0.1114  0.1943  0.2830
    1DIPC   PO421542  17.291  16.994   3.953  0.2655 -0.1531 -0.0660
    1DIPC   GL121543  17.488  16.935   4.317 -0.0657 -0.0429  0.3597
    1DIPC   GL221544  17.298  16.882   4.497  0.3625  0.1135 -0.0694
    1DIPC   C1A21545  17.777  17.110   4.501 -0.2822 -0.1360  0.0081
    1DIPC   D2A21546  17.732  17.583   4.602  0.0700  0.1931  0.0751
    1DIPC   D3A21547  17.344  17.451   4.760  0.2426  0.3731  0.2516
    1DIPC   C4A21548  17.269  17.454   5.224 -0.0129 -0.0106 -0.0920
    1DIPC   C1B21549  17.122  16.885   4.916 -0.2017 -0.2791  0.1108
    1DIPC   D2B21550  16.837  17.049   5.027 -0.2366  0.1499  0.1206
    1DIPC   D3B21551  16.626  17.073   5.404 -0.0350 -0.1279 -0.1341
    1DIPC   C4B21552  16.695  16.754   5.795  0.0057  0.0683  0.1789
    1DIPC   NC321553  16.711  25.918   2.751 -0.0641 -0.1388  0.1938
    1DIPC   PO421554  17.124  25.737   3.057 -0.3158  0.0959 -0.0438
    1DIPC   GL121555  16.964  25.650   3.543  0.4305 -0.3324 -0.0189
    1DIPC   GL221556  16.897  25.350   3.728  0.1257  0.0859 -0.2189
    1DIPC   C1A21557  16.674  25.971   3.774  0.2808  0.2068  0.0607
    1DIPC   D2A21558  16.166  26.147   3.785  0.1296  0.1836 -0.0378
    1DIPC   D3A21559  16.277  25.702   3.854  0.1955 -0.0457  0.1663
    1DIPC   C4A21560  16.523  25.623   4.248  0.1620 -0.2550  0.0977
    1DIPC   C1B21561  16.994  25.406   4.165 -0.2134 -0.1808  0.0509
    1DIPC   D2B21562  16.931  25.404   4.546  0.0279  0.1650 -0.1606
    1DIPC   D3B21563  16.817  25.027   4.584  0.1309  0.4298 -0.1515
    1DIPC   C4B21564  16.865  24.794   4.923  0.0265  0.1999  0.1741
    1DIPC   NC321565  13.452  16.704   3.891 -0.3192 -0.1373 -0.0175
    1DIPC   PO421566  13.183  16.785   3.532 -0.1475  0.0921  0.1023
    1DIPC   GL121567  12.883  16.909   3.871  0.0651  0.2250  0.0877
    1DIPC   GL221568  12.613  16.710   3.909  0.0048  0.0793 -0.2045
    1DIPC   C1A21569  12.717  17.104   4.218  0.0479  0.1299 -0.1881
    1DIPC   D2A21570  12.541  17.368   4.480  0.2382 -0.0572 -0.2166
    1DIPC   D3A21571  12.485  17.695   4.545 -0.0131 -0.3572  0.3876
    1DIPC   C4A21572  12.564  18.054   4.254  0.2377  0.2929 -0.0529
    1DIPC   C1B21573  12.367  16.759   4.297 -0.0476 -0.0674 -0.1862
    1DIPC   D2B21574  12.070  17.068   4.430 -0.0424  0.3516 -0.1416
    1DIPC   D3B21575  12.226  17.209   4.842  0.0259  0.1648  0.1536
    1DIPC   C4B21576  12.387  17.457   5.154  0.1892 -0.2797 -0.0235
    1DIPC   NC321577  15.952  21.283   2.788 -0.0189  0.2172 -0.1800
    1DIPC   PO421578  16.196  21.638   3.172 -0.2523  0.0836  0.0340
    1DIPC   GL121579  16.303  21.602   3.536  0.0592 -0.1452 -0.1869
    1DIPC   GL221580  16.510  21.793   3.731  0.0535 -0.4008 -0.0906
    1DIPC   C1A21581  16.151  21.580   3.997 -0.2505  0.1876  0.2754
    1DIPC   D2A21582  16.294  21.453   4.376  0.2504  0.0089 -0.2578
    1DIPC   D3A21583  16.531  21.807   4.442 -0.1911 -0.3215 -0.0489
    1DIPC   C4A21584  16.717  22.004   4.146  0.0468 -0.1349 -0.0080
    1DIPC   C1B21585  16.709  21.521   3.978 -0.3456  0.3265  0.4244
    1DIPC   D2B21586  16.782  21.328   4.239  0.0228 -0.0431  0.2552
    1DIPC   D3B21587  16.993  21.017   3.962 -0.2423  0.1193  0.0358
    1DIPC   C4B21588  16.847  20.533   4.116  0.0283  0.1936 -0.0143
    1DIPC   NC321589   5.734  20.641   3.488 -0.2898 -0.1970  0.2031
    1DIPC   PO421590   5.942  20.709   3.834  0.2215  0.0646 -0.2466
    1DIPC   GL121591   5.753  20.373   4.137 -0.0381 -0.1171  0.3025
    1DIPC   GL221592   6.107  20.240   4.191  0.1837 -0.1126 -0.1625
    1DIPC   C1A21593   5.688  20.331   4.595  0.0332 -0.3096 -0.0528
    1DIPC   D2A21594   5.744  20.244   4.989 -0.2345  0.0266  0.1018
    1DIPC   D3A21595   5.431  19.894   5.116  0.2342 -0.3547  0.0227
    1DIPC   C4A21596   5.097  19.908   5.325 -0.1887 -0.1839  0.1848
    1DIPC   C1B21597   6.224  20.208   4.670  0.0810  0.0387  0.4059
    1DIPC   D2B21598   6.240  20.437   5.058 -0.1901 -0.2715 -0.2312
    1DIPC   D3B21599   6.598  20.184   5.012 -0.1942 -0.3175 -0.5207
    1DIPC   C4B21600   6.930  20.402   4.942  0.2402  0.2117 -0.1299
    1DIPC   NC321601   6.666  23.106   2.740 -0.0491 -0.1160  0.1673
    1DIPC   PO421602   6.832  23.306   2.990  0.0221 -0.2104 -0.0934
    1DIPC   GL121603   6.672  23.321   3.340  0.2364  0.0748  0.1695
    1DIPC   GL221604   6.511  23.532   3.463  0.0238 -0.0381 -0.1190
    1DIPC   C1A21605   6.830  23.191   3.691 -0.2212  0.0480  0.3900
    1DIPC   D2A21606   6.844  23.166   4.120 -0.1386 -0.0865 -0.0345
    1DIPC   D3A21607   7.148  23.278   4.357  0.2586 -0.1661  0.1333
    1DIPC   C4A21608   7.321  23.074   4.643 -0.0717 -0.1597  0.0383
    1DIPC   C1B21609   6.345  23.179   3.683 -0.2053  0.2688  0.1778
    1DIPC   D2B21610   6.209  22.750   3.710  0.2750  0.0542  0.2034
    1DIPC   D3B21611   5.866  22.540   3.808 -0.1868  0.2522  0.1822
    1DIPC   C4B21612   5.908  22.666   4.168  0.2115  0.1029  0.0993
    1DIPC   NC321613  23.546  27.114   3.293  0.1208  0.0183 -0.1800
    1DIPC   PO421614  23.544  27.618   3.177  0.3682 -0.0997  0.2230
    1DIPC   GL121615  23.506  27.536   3.600  0.2528  0.0526  0.1733
    1DIPC   GL221616  23.249  27.560   3.731 -0.3614  0.1896 -0.0017
    1DIPC   C1A21617  23.633  27.519   4.082 -0.0013  0.0465 -0.1324
    1DIPC   D2A21618  23.495  27.351   4.511 -0.2437  0.1139 -0.0197
    1DIPC   D3A21619  23.785  27.103   4.304  0.0855  0.1416  0.0108
    1DIPC   C4A21620  23.514  26.846   4.084 -0.0445  0.1011  0.1343
    1DIPC   C1B21621  23.160  27.526   4.175  0.1305  0.2216 -0.1986
    1DIPC   D2B21622  23.096  27.136   4.258  0.2490 -0.2363  0.0506
    1DIPC   D3B21623  22.834  27.184   4.562  0.2738 -0.2592  0.0091
    1DIPC   C4B21624  22.412  27.399   4.603 -0.0753  0.2584 -0.2911
    1DIPC   NC321625   9.888  22.282   3.141 -0.3929  0.1182 -0.0709
    1DIPC   PO421626   9.884  22.305   3.564 -0.0733  0.1948 -0.0435
    1DIPC   GL121627   9.583  22.305   3.928 -0.0621 -0.0722 -0.1055
    1DIPC   GL221628   9.231  22.085   3.796  0.0139  0.3076  0.0908
    1DIPC   C1A21629   9.584  22.437   4.353 -0.2999  0.0760  0.1074
    1DIPC   D2A21630   9.624  22.379   4.719  0.0009 -0.2186  0.1449
    1DIPC   D3A21631   9.577  22.040   4.900 -0.0574  0.2510 -0.0605
    1DIPC   C4A21632   9.707  21.820   5.248  0.3479  0.0951 -0.2986
    1DIPC   C1B21633   8.792  22.223   3.841  0.1296  0.2595 -0.0105
    1DIPC   D2B21634   8.864  22.541   3.758  0.1688  0.0846 -0.1208
    1DIPC   D3B21635   9.110  22.422   4.180  0.3511  0.0799 -0.1157
    1DIPC   C4B21636   9.193  22.034   4.451 -0.3065  0.1521 -0.1139
    1DIPC   NC321637  25.798   0.381   3.478  0.1718 -0.1322 -0.1494
    1DIPC   PO421638  26.125   0.213   3.274  0.2719  0.1989  0.0953
    1DIPC   GL121639  26.269   0.161   3.659  0.2865  0.0801  0.3185
    1DIPC   GL221640  26.011   0.028   3.812  0.0595 -0.0875  0.1023
    1DIPC   C1A21641  26.452   0.108   4.096  0.0316 -0.2686 -0.0145
    1DIPC   D2A21642  26.641   0.141   4.481 -0.0293  0.0204 -0.0469
    1DIPC   D3A21643  26.679  28.006   4.726  0.2721 -0.0805  0.0807
    1DIPC   C4A21644  26.751  27.624   4.739  0.1133 -0.0447 -0.1173
    1DIPC   C1B21645  26.020   0.143   4.223 -0.0875 -0.0658 -0.3123
    1DIPC   D2B21646  26.204   0.084   4.692 -0.2217 -0.0649  0.1415
    1DIPC   D3B21647  26.524   0.393   4.876 -0.0525 -0.1456  0.0306
    1DIPC   C4B21648  26.588   0.766   4.921 -0.2543  0.0236 -0.2136
    1DIPC   NC321649  22.871   1.568   3.347  0.0104  0.0920 -0.0231
    1DIPC   PO421650  22.623   1.822   3.371  0.1857 -0.0228  0.0903
    1DIPC   GL121651  22.628   2.149   3.739  0.1508  0.0585  0.1909
    1DIPC   GL221652  22.268   1.929   3.888 -0.2141  0.1139  0.0201
    1DIPC   C1A21653  22.834   2.361   4.088  0.0625  0.1440 -0.0138
    1DIPC   D2A21654  22.850   2.559   4.421  0.2152 -0.0136  0.3426
    1DIPC   D3A21655  23.088   2.721   4.768 -0.0448  0.2245 -0.2162
    1DIPC   C4A21656  22.977   3.119   4.911 -0.2978  0.3503 -0.0993
    1DIPC   C1B21657  22.504   1.910   4.244  0.2332 -0.0484 -0.0683
    1DIPC   D2B21658  22.616   1.611   4.529 -0.2842  0.0402  0.0033
    1DIPC   D3B21659  22.334   1.670   4.891 -0.2611  0.0250  0.1280
    1DIPC   C4B21660  22.383   1.721   5.286 -0.1054 -0.1026  0.1001
    1DIPC   NC321661   2.685  18.421   3.161 -0.3369 -0.0562  0.1461
    1DIPC   PO421662   2.746  18.772   3.332 -0.1563 -0.0007 -0.2246
    1DIPC   GL121663   2.581  18.979   3.750 -0.1366  0.2405 -0.0354
    1DIPC   GL221664   2.339  18.809   3.985  0.0730 -0.1355  0.0193
    1DIPC   C1A21665   2.470  19.275   4.038  0.1614 -0.3601 -0.1787
    1DIPC   D2A21666   2.435  19.698   3.851 -0.0494 -0.0280 -0.3813
    1DIPC   D3A21667   2.251  19.311   3.550 -0.0578  0.0392  0.2768
    1DIPC   C4A21668   1.955  19.128   3.967  0.0052 -0.1867  0.0677
    1DIPC   C1B21669   2.266  18.744   4.380  0.2696  0.1474  0.0440
    1DIPC   D2B21670   2.013  18.546   4.577 -0.1859 -0.0289 -0.2495
    1DIPC   D3B21671   2.370  18.264   4.588  0.2485 -0.3705 -0.3204
    1DIPC   C4B21672   2.695  18.284   4.305 -0.1832 -0.2738  0.0510
    1DIPC   NC321673  19.495   8.365   3.727  0.0850  0.2048  0.2505
    1DIPC   PO421674  19.872   8.498   3.781  0.3395 -0.0984  0.0408
    1DIPC   GL121675  19.726   8.451   4.199  0.0740  0.3441  0.1197
    1DIPC   GL221676  19.453   8.560   4.239  0.2227 -0.1383 -0.1712
    1DIPC   C1A21677  19.798   8.425   4.685 -0.0257 -0.2551 -0.2626
    1DIPC   D2A21678  19.579   8.602   5.018 -0.1148 -0.0360 -0.2334
    1DIPC   D3A21679  19.975   8.850   5.205 -0.0103  0.0849 -0.0211
    1DIPC   C4A21680  20.425   8.787   5.075 -0.0236  0.1369 -0.0526
    1DIPC   C1B21681  19.323   8.413   4.602  0.1406  0.2326 -0.1728
    1DIPC   D2B21682  19.417   8.021   4.788  0.0312  0.3131  0.0881
    1DIPC   D3B21683  19.415   8.134   5.252  0.0325 -0.0724 -0.1602
    1DIPC   C4B21684  19.809   8.028   5.336 -0.2346  0.0456 -0.0732
    1DIPC   NC321685  27.073   9.506   2.635 -0.0327 -0.2505 -0.0303
    1DIPC   PO421686  27.284   9.797   2.883 -0.0364 -0.1610  0.0735
    1DIPC   GL121687  27.038   9.553   3.200  0.0788  0.0135  0.0055
    1DIPC   GL221688  26.765   9.304   3.026 -0.0989 -0.3251  0.2062
    1DIPC   C1A21689  27.054   9.327   3.616  0.0104  0.0802  0.3070
    1DIPC   D2A21690  27.286   9.253   4.021  0.1230  0.0141 -0.2504
    1DIPC   D3A21691  27.065   9.205   4.380 -0.1355  0.0450 -0.3330
    1DIPC   C4A21692  26.929   8.827   4.447 -0.0950  0.0507  0.3331
    1DIPC   C1B21693  26.684   9.132   3.299 -0.0895 -0.4624 -0.2097
    1DIPC   D2B21694  26.380   8.903   3.387 -0.2837 -0.0120 -0.3289
    1DIPC   D3B21695  26.659   8.584   3.270 -0.1059 -0.5314  0.0111
    1DIPC   C4B21696  26.932   8.380   3.442 -0.3051  0.1208 -0.1945
    1DIPC   NC321697  12.739   5.519   2.947 -0.1802  0.1213 -0.1540
    1DIPC   PO421698  12.600   5.391   3.407 -0.2575 -0.0996  0.1286
    1DIPC   GL121699  12.494   5.425   3.803 -0.1550 -0.0633 -0.0715
    1DIPC   GL221700  12.691   5.192   3.872  0.2532  0.1947 -0.1853
    1DIPC   C1A21701  12.591   5.558   4.210 -0.0588  0.1387  0.1215
    1DIPC   D2A21702  12.735   5.641   4.711 -0.2317 -0.0425 -0.2269
    1DIPC   D3A21703  12.613   5.379   4.938 -0.1718  0.0889  0.3134
    1DIPC   C4A21704  12.700   5.089   5.228 -0.0167  0.3448 -0.1228
    1DIPC   C1B21705  12.759   5.115   4.182 -0.2495 -0.0493 -0.0801
    1DIPC   D2B21706  12.631   5.174   4.499  0.3416  0.0840  0.0122
    1DIPC   D3B21707  12.878   4.935   4.767 -0.1036  0.2485  0.1804
    1DIPC   C4B21708  13.268   4.897   4.720  0.2465  0.0641  0.1246
    1DIPC   NC321709  17.920  12.824   3.581  0.1524  0.0522 -0.0574
    1DIPC   PO421710  18.150  13.136   3.486  0.1849 -0.0414  0.1976
    1DIPC   GL121711  17.868  13.288   3.880  0.0757 -0.0168 -0.2687
    1DIPC   GL221712  17.511  13.311   3.999  0.0198 -0.4668  0.0860
    1DIPC   C1A21713  18.052  13.262   4.216  0.2061 -0.0458  0.0327
    1DIPC   D2A21714  18.337  13.564   4.389  0.2728  0.0253  0.0829
    1DIPC   D3A21715  18.370  13.492   4.777  0.0543  0.0298  0.0182
    1DIPC   C4A21716  18.456  13.033   4.923 -0.4849  0.1347  0.3880
    1DIPC   C1B21717  17.336  13.452   4.362  0.0359  0.2980  0.0009
    1DIPC   D2B21718  17.088  13.358   4.698 -0.3569  0.1611  0.2586
    1DIPC   D3B21719  17.212  12.900   4.848 -0.0781  0.1225 -0.1744
    1DIPC   C4B21720  17.042  12.522   5.000  0.1489  0.0417  0.3151
    1DIPC   NC321721  24.727  23.758   2.880  0.1749  0.2842  0.0238
    1DIPC   PO421722  25.215  23.605   3.136  0.0774 -0.0611 -0.0943
    1DIPC   GL121723  24.977  23.375   3.476  0.3026 -0.0863 -0.0431
    1DIPC   GL221724  24.863  23.141   3.489  0.0316 -0.0922 -0.0107
    1DIPC   C1A21725  25.138  23.295   3.873  0.1660 -0.3002  0.0313
    1DIPC   D2A21726  24.997  23.050   4.262  0.0716 -0.1100 -0.1984
    1DIPC   D3A21727  24.802  23.426   4.530 -0.0148 -0.2494  0.1784
    1DIPC   C4A21728  25.069  23.695   4.709 -0.2025  0.1182 -0.1228
    1DIPC   C1B21729  24.997  22.707   3.758 -0.1723 -0.1739  0.3909
    1DIPC   D2B21730  24.716  22.381   3.911  0.0177 -0.1253 -0.3474
    1DIPC   D3B21731  24.879  22.164   4.350 -0.1535 -0.0812 -0.0575
    1DIPC   C4B21732  24.692  21.928   4.671  0.0187 -0.1541  0.1474
    1DIPC   NC321733  21.849  22.466   2.770 -0.1407 -0.0482  0.1686
    1DIPC   PO421734  21.587  22.709   3.213  0.1816  0.0072  0.2725
    1DIPC   GL121735  21.456  22.628   3.651 -0.0775 -0.1271 -0.1131
    1DIPC   GL221736  21.605  22.871   3.807  0.1466 -0.0405  0.2910
    1DIPC   C1A21737  21.058  22.693   3.884  0.0272  0.2204 -0.1459
    1DIPC   D2A21738  20.899  23.108   4.002  0.1040 -0.3839  0.0443
    1DIPC   D3A21739  20.912  23.181   4.503 -0.1960 -0.2025  0.2285
    1DIPC   C4A21740  21.328  23.413   4.639  0.2211 -0.1483 -0.0626
    1DIPC   C1B21741  21.714  22.594   4.136 -0.1791 -0.0160 -0.1089
    1DIPC   D2B21742  21.863  22.654   4.486  0.0486 -0.0274  0.0258
    1DIPC   D3B21743  21.616  22.338   4.602 -0.2646  0.0128  0.1669
    1DIPC   C4B21744  21.312  22.013   4.779 -0.3604 -0.2720  0.1853
    1DIPC   NC321745  23.168  16.066   3.095 -0.3096 -0.0413 -0.0045
    1DIPC   PO421746  22.957  16.273   3.459  0.0731 -0.1184 -0.1766
    1DIPC   GL121747  22.986  16.067   3.939  0.1657 -0.1426 -0.3293
    1DIPC   GL221748  22.808  16.257   4.203  0.0880 -0.4049  0.0930
    1DIPC   C1A21749  23.038  15.757   4.237 -0.1502  0.0038  0.1360
    1DIPC   D2A21750  23.147  15.471   4.584  0.0329 -0.4135  0.0999
    1DIPC   D3A21751  22.946  15.079   4.391  0.1185  0.2257  0.0281
    1DIPC   C4A21752  22.855  15.224   3.941  0.0761  0.0917 -0.0755
    1DIPC   C1B21753  23.122  16.229   4.477 -0.1636  0.0125 -0.1365
    1DIPC   D2B21754  23.443  16.027   4.823  0.0486 -0.5520 -0.0616
    1DIPC   D3B21755  23.552  16.399   5.119  0.3614  0.2214  0.0127
    1DIPC   C4B21756  23.999  16.476   5.232 -0.0441 -0.1969  0.0492
    1DIPC   NC321757  16.825   9.131   3.662  0.1476 -0.0769  0.2532
    1DIPC   PO421758  16.715   8.983   4.079 -0.2913  0.2398  0.1045
    1DIPC   GL121759  16.912   8.981   4.578  0.0796  0.0339  0.2824
    1DIPC   GL221760  17.297   8.838   4.515  0.0957  0.2203 -0.0832
    1DIPC   C1A21761  17.123   9.030   4.972  0.0612 -0.0181 -0.2159
    1DIPC   D2A21762  17.609   9.089   5.203  0.0236  0.0120  0.3700
    1DIPC   D3A21763  17.508   9.242   4.795 -0.1015 -0.0539  0.0714
    1DIPC   C4A21764  17.083   9.434   4.570  0.3685  0.3185 -0.1241
    1DIPC   C1B21765  17.052   8.569   4.857  0.0405  0.1131  0.1038
    1DIPC   D2B21766  16.767   8.816   5.182  0.1584 -0.0083  0.0953
    1DIPC   D3B21767  16.729   8.424   5.399  0.0717 -0.3623  0.1231
    1DIPC   C4B21768  16.305   8.387   5.718  0.0618 -0.0383  0.1343
    1DIPC   NC321769  10.528  25.771   3.052  0.1544 -0.0235  0.0004
    1DIPC   PO421770  10.140  25.505   2.986 -0.1486  0.3043  0.0293
    1DIPC   GL121771   9.971  25.388   3.383 -0.1910 -0.0307 -0.1135
    1DIPC   GL221772   9.872  25.627   3.501  0.1047  0.1726  0.1251
    1DIPC   C1A21773  10.151  25.179   3.746  0.3629  0.1302  0.0234
    1DIPC   D2A21774  10.293  24.965   4.150 -0.0949 -0.0262  0.3598
    1DIPC   D3A21775  10.036  25.166   4.307  0.0407 -0.1283  0.0016
    1DIPC   C4A21776   9.604  25.213   4.245  0.0714  0.1804  0.1519
    1DIPC   C1B21777   9.817  25.951   3.796 -0.3094 -0.1464  0.0624
    1DIPC   D2B21778   9.628  26.361   3.878 -0.0647 -0.1889  0.0840
    1DIPC   D3B21779   9.326  26.115   3.841  0.1208  0.0634 -0.1024
    1DIPC   C4B21780   9.064  25.888   4.129 -0.0648 -0.1544  0.0588
    1DIPC   NC321781   5.119  19.281   3.777 -0.2617 -0.0004 -0.2599
    1DIPC   PO421782   5.435  19.113   3.890  0.1674 -0.0073 -0.2470
    1DIPC   GL121783   5.580  19.068   4.293  0.1486  0.1603  0.3496
    1DIPC   GL221784   5.979  19.099   4.244 -0.0316 -0.0421  0.2245
    1DIPC   C1A21785   5.728  19.409   4.557  0.2357 -0.1357  0.0325
    1DIPC   D2A21786   5.827  19.779   4.759 -0.0644  0.1450 -0.0110
    1DIPC   D3A21787   5.351  19.912   4.611 -0.1356 -0.0624  0.1818
    1DIPC   C4A21788   5.173  20.249   4.830 -0.2059  0.0299  0.0940
    1DIPC   C1B21789   6.242  19.190   4.536  0.1100  0.1161  0.1991
    1DIPC   D2B21790   6.131  19.273   4.961  0.0114  0.2113  0.1039
    1DIPC   D3B21791   6.488  19.392   5.175 -0.0487 -0.2666 -0.0236
    1DIPC   C4B21792   6.529  19.342   5.587  0.0181 -0.1017  0.0165
    1DIPC   NC321793  15.821  22.655   3.001 -0.1495 -0.2733 -0.1351
    1DIPC   PO421794  15.895  22.283   3.097  0.0121 -0.0931 -0.2987
    1DIPC   GL121795  15.710  22.244   3.502 -0.0669 -0.1037  0.0462
    1DIPC   GL221796  16.014  21.985   3.502 -0.1886 -0.2001 -0.0465
    1DIPC   C1A21797  15.485  22.338   3.816  0.2840 -0.2649  0.0487
    1DIPC   D2A21798  15.320  22.097   4.113  0.1570 -0.0177  0.0565
    1DIPC   D3A21799  15.729  21.861   3.961 -0.0361 -0.0172 -0.0735
    1DIPC   C4A21800  15.645  21.389   3.899  0.0325 -0.3068 -0.4477
    1DIPC   C1B21801  16.033  22.284   3.881  0.4093 -0.3693 -0.0579
    1DIPC   D2B21802  15.775  22.372   4.203 -0.1461  0.0802  0.2034
    1DIPC   D3B21803  15.949  22.650   4.444  0.2232  0.5449  0.0242
    1DIPC   C4B21804  15.775  23.096   4.358 -0.0279  0.2153 -0.1465
    1DIPC   NC321805  23.735  16.620   3.405 -0.3379  0.1057 -0.0765
    1DIPC   PO421806  23.377  16.443   3.374 -0.0236 -0.2582 -0.0218
    1DIPC   GL121807  23.374  16.593   3.815 -0.0854  0.1518  0.0669
    1DIPC   GL221808  23.198  16.505   4.053 -0.0574 -0.1365 -0.0301
    1DIPC   C1A21809  23.786  16.642   4.119  0.1037  0.2407 -0.0334
    1DIPC   D2A21810  24.246  16.470   4.148  0.1779  0.1790 -0.0176
    1DIPC   D3A21811  23.922  16.171   4.248 -0.3132 -0.1046  0.1487
    1DIPC   C4A21812  23.572  16.248   4.365 -0.0833  0.4415 -0.0148
    1DIPC   C1B21813  23.387  16.957   4.110  0.0662 -0.0718 -0.1611
    1DIPC   D2B21814  23.704  17.173   4.217 -0.1305 -0.1181  0.2372
    1DIPC   D3B21815  23.990  16.970   4.567  0.0230 -0.0005  0.1571
    1DIPC   C4B21816  24.353  16.675   4.595  0.0274  0.0955  0.0566
    1DIPC   NC321817  27.187  12.760   2.446  0.0728  0.1202 -0.1839
    1DIPC   PO421818  27.160  13.184   2.752 -0.0376 -0.0897 -0.3021
    1DIPC   GL121819  26.953  13.232   3.157  0.1078  0.0105  0.1521
    1DIPC   GL221820  27.160  13.267   3.312 -0.2606 -0.1181 -0.0373
    1DIPC   C1A21821  26.761  13.194   3.583 -0.0777  0.0716  0.2933
    1DIPC   D2A21822  26.486  13.314   4.054  0.2900  0.0868 -0.2409
    1DIPC   D3A21823  26.186  13.264   3.734  0.0161 -0.0031  0.3106
    1DIPC   C4A21824  25.832  13.333   3.914  0.1244  0.0404 -0.3284
    1DIPC   C1B21825  27.492  13.273   3.485  0.0416  0.0883 -0.4151
    1DIPC   D2B21826  27.792  13.550   3.541 -0.1627 -0.2316  0.3952
    1DIPC   D3B21827  27.447  13.477   3.904  0.0156 -0.0168 -0.0048
    1DIPC   C4B21828  27.171  13.868   3.855 -0.0991 -0.0436  0.3709
    1DIPC   NC321829  18.458   6.356   3.518 -0.0829 -0.2374  0.0710
    1DIPC   PO421830  18.446   6.778   3.626  0.2187  0.0089  0.2327
    1DIPC   GL121831  18.242   6.705   4.025 -0.1099 -0.1260  0.0181
    1DIPC   GL221832  17.946   6.858   4.041  0.2145 -0.2223 -0.0290
    1DIPC   C1A21833  18.018   6.593   4.483 -0.3817  0.1251  0.1817
    1DIPC   D2A21834  17.672   6.771   4.808 -0.1332  0.1287  0.0121
    1DIPC   D3A21835  18.125   6.717   5.002  0.0032 -0.0950 -0.0252
    1DIPC   C4A21836  18.328   6.821   5.421 -0.0755 -0.1888 -0.0074
    1DIPC   C1B21837  18.083   7.095   4.417 -0.2303  0.0966 -0.0545
    1DIPC   D2B21838  18.450   7.129   4.799  0.1589  0.1197 -0.2700
    1DIPC   D3B21839  18.428   7.601   4.984  0.2335 -0.0936  0.0344
    1DIPC   C4B21840  18.581   7.901   5.217 -0.1236  0.0818 -0.0936
    1DIPC   NC321841   4.633   4.608   2.064  0.2913 -0.0789  0.1112
    1DIPC   PO421842   4.774   4.254   2.281 -0.1645  0.0097  0.0503
    1DIPC   GL121843   4.446   4.400   2.449 -0.2726 -0.2154 -0.0319
    1DIPC   GL221844   4.500   4.727   2.511 -0.1474 -0.0958  0.1019
    1DIPC   C1A21845   4.085   4.301   2.562  0.2885  0.2019  0.2189
    1DIPC   D2A21846   3.954   4.471   2.935 -0.0021 -0.3868 -0.2335
    1DIPC   D3A21847   4.156   4.115   3.029  0.2152  0.4904  0.0438
    1DIPC   C4A21848   4.162   4.121   3.510 -0.0913 -0.3135  0.1157
    1DIPC   C1B21849   4.419   4.677   2.840  0.0121  0.1852  0.0541
    1DIPC   D2B21850   4.421   4.511   3.283  0.1449  0.1330 -0.0589
    1DIPC   D3B21851   4.597   4.022   3.360  0.2705 -0.0374  0.1410
    1DIPC   C4B21852   5.026   3.990   3.428 -0.0373  0.0761 -0.1198
    1DIPC   NC321853   8.330  15.183   3.669 -0.2572 -0.2238 -0.0860
    1DIPC   PO421854   8.561  14.855   3.756 -0.2023  0.3469 -0.2274
    1DIPC   GL121855   8.249  14.716   3.981  0.1096 -0.0368 -0.2305
    1DIPC   GL221856   8.275  14.836   4.285 -0.1271  0.0203 -0.2522
    1DIPC   C1A21857   7.866  14.512   4.224 -0.1465 -0.0153 -0.1083
    1DIPC   D2A21858   7.915  14.497   4.635  0.2484 -0.0704 -0.1525
    1DIPC   D3A21859   8.110  14.420   5.087 -0.0141  0.1241 -0.3278
    1DIPC   C4A21860   7.831  14.164   5.442  0.2351 -0.0489 -0.0250
    1DIPC   C1B21861   8.265  14.854   4.593  0.2130 -0.0778 -0.1099
    1DIPC   D2B21862   7.937  14.953   4.881 -0.0706  0.0602 -0.1385
    1DIPC   D3B21863   8.051  15.059   5.279  0.0321 -0.1833  0.1389
    1DIPC   C4B21864   7.801  15.171   5.588 -0.0480 -0.1154 -0.2136
    1DIPC   NC321865  16.215  19.695   3.221 -0.2003  0.2477  0.0246
    1DIPC   PO421866  16.598  19.717   3.308 -0.1142 -0.1665  0.1849
    1DIPC   GL121867  16.512  19.726   3.740 -0.2630 -0.0822 -0.4278
    1DIPC   GL221868  16.715  19.673   3.958  0.0243  0.0191 -0.0498
    1DIPC   C1A21869  16.344  19.990   4.046  0.1886  0.0745 -0.1376
    1DIPC   D2A21870  16.402  20.083   4.442  0.4609 -0.0060  0.0050
    1DIPC   D3A21871  16.267  19.875   4.757  0.0859 -0.1286 -0.3194
    1DIPC   C4A21872  16.291  19.454   4.867  0.0738 -0.3934 -0.0309
    1DIPC   C1B21873  16.795  19.759   4.367  0.1065 -0.4903  0.0013
    1DIPC   D2B21874  16.870  20.061   4.672  0.0622 -0.1195  0.0702
    1DIPC   D3B21875  17.113  20.358   4.745  0.2573 -0.0807  0.1661
    1DIPC   C4B21876  16.801  20.687   5.007  0.1512 -0.2075 -0.0178
    1DIPC   NC321877  27.393  10.358   2.368 -0.0542 -0.0619  0.0326
    1DIPC   PO421878  27.215  10.308   2.758  0.2906  0.1604  0.0342
    1DIPC   GL121879  27.386  10.214   3.213 -0.1090  0.3601 -0.1634
    1DIPC   GL221880  27.188   9.968   3.364 -0.1547  0.1777  0.0193
    1DIPC   C1A21881  27.378  10.459   3.542  0.1406  0.2733  0.2271
    1DIPC   D2A21882  27.727  10.441   3.784 -0.0464 -0.2525  0.1433
    1DIPC   D3A21883  28.085  10.808   3.852  0.1256 -0.0443  0.0025
    1DIPC   C4A21884   0.362  10.819   4.086 -0.0530  0.1466  0.3548
    1DIPC   C1B21885  27.376   9.944   3.834 -0.3758  0.0102  0.0644
    1DIPC   D2B21886  27.464  10.198   4.090 -0.0505  0.3616  0.0555
    1DIPC   D3B21887  27.083  10.483   3.983  0.0933 -0.1766  0.0404
    1DIPC   C4B21888  26.919  10.233   3.774  0.2639  0.0200  0.4437
    1CHOL   ROH21889   6.583  20.574   4.567  0.0041 -0.0012 -0.0102
    1CHOL    R121890   6.595  20.795   4.744 -0.0278  0.0035 -0.0126
    1CHOL    R221891   6.696  20.775   5.000 -0.0612  0.0132  0.0045
    1CHOL    R321892   6.855  20.980   4.918 -0.0577  0.0146  0.0188
    1CHOL    R421893   6.894  20.968   5.208  0.1384 -0.1685 -0.0138
    1CHOL    R521894   6.837  21.143   5.091  0.1099 -0.0828  0.1297
    1CHOL    C121895   7.158  21.273   5.251  0.2578 -0.2729 -0.0109
    1CHOL    C221896   7.140  21.419   5.617 -0.1142 -0.0711  0.0158
    1CHOL   ROH21897   8.310   0.557   6.164 -0.0051  0.1196  0.0874
    1CHOL    R121898   8.112   0.618   5.972 -0.0430  0.1228  0.1266
    1CHOL    R221899   8.124   0.843   5.813 -0.0280  0.0820  0.0639
    1CHOL    R321900   8.098   0.662   5.611 -0.1287  0.0340  0.1200
    1CHOL    R421901   8.025   0.920   5.491  0.3644  0.0905 -0.0606
    1CHOL    R521902   7.905   0.737   5.490  0.0880  0.2717 -0.0806
    1CHOL    C121903   7.942   0.796   5.114  0.4984  0.0504 -0.0805
    1CHOL    C221904   7.890   0.779   4.748  0.1795 -0.0910  0.2834
    1CHOL   ROH21905  20.134  17.538   5.129 -0.1294  0.1025  0.1366
    1CHOL    R121906  20.325  17.569   5.336 -0.1201  0.2438  0.1104
    1CHOL    R221907  20.579  17.463   5.321 -0.1945  0.0058  0.2787
    1CHOL    R321908  20.654  17.720   5.372  0.0008  0.0282 -0.0909
    1CHOL    R421909  20.894  17.560   5.427 -0.1627 -0.0778  0.2575
    1CHOL    R521910  20.799  17.702   5.562 -0.0965  0.2118 -0.0069
    1CHOL    C121911  21.147  17.857   5.537  0.0391 -0.1057 -0.1019
    1CHOL    C221912  21.499  18.158   5.377 -0.2594  0.0802  0.0678
    1CHOL   ROH21913  27.064  20.107   6.275 -0.0420 -0.2970 -0.0395
    1CHOL    R121914  26.983  20.225   6.030 -0.1184 -0.1648  0.0481
    1CHOL    R221915  27.116  20.438   5.916 -0.0870 -0.1780  0.0655
    1CHOL    R321916  27.127  20.273   5.699 -0.2685 -0.0950 -0.0090
    1CHOL    R421917  27.187  20.540   5.593 -0.1343 -0.0802  0.0857
    1CHOL    R521918  27.033  20.403   5.521 -0.2506  0.0460  0.0794
    1CHOL    C121919  27.238  20.445   5.202 -0.3323  0.0547  0.0275
    1CHOL    C221920  27.422  20.633   5.033  0.3025 -0.1598 -0.0813
    1CHOL   ROH21921  23.538   8.044   6.354 -0.3111 -0.0864  0.0707
    1CHOL    R121922  23.537   8.101   6.077 -0.2909  0.2061  0.1270
    1CHOL    R221923  23.624   8.342   5.974  0.1129  0.1697  0.3538
    1CHOL    R321924  23.783   8.183   5.822 -0.2104  0.0320  0.1487
    1CHOL    R421925  23.760   8.431   5.669  0.1126  0.1929  0.3609
    1CHOL    R521926  23.718   8.230   5.597 -0.2426  0.3150  0.2167
    1CHOL    C121927  23.990   8.334   5.350 -0.1911  0.0771  0.1726
    1CHOL    C221928  24.081   8.368   5.084  0.2061 -0.0222  0.1181
    1CHOL   ROH21929   0.150  12.569   3.569 -0.1436 -0.0502  0.0128
    1CHOL    R121930   0.027  12.695   3.791 -0.0034 -0.1070  0.1235
    1CHOL    R221931  27.925  12.598   3.909 -0.0412 -0.0229  0.1142
    1CHOL    R321932  28.075  12.606   4.135  0.0168 -0.2719  0.0872
    1CHOL    R421933  27.803  12.668   4.225  0.1143  0.1410  0.1396
    1CHOL    R521934  27.982  12.786   4.262  0.3106 -0.1321  0.1173
    1CHOL    C121935  27.874  12.716   4.621  0.2594  0.0026  0.1290
    1CHOL    C221936  27.543  12.604   4.835  0.2236 -0.0551 -0.0255
    1CHOL   ROH21937  15.574  15.386   4.570 -0.0307  0.0484 -0.1804
    1CHOL    R121938  15.496  15.385   4.842  0.0643  0.0139 -0.1528
    1CHOL    R221939  15.551  15.175   5.012  0.1024 -0.0190 -0.2043
    1CHOL    R321940  15.664  15.370   5.165  0.1761 -0.0538 -0.2139
    1CHOL    R421941  15.643  15.138   5.344 -0.0144 -0.0021 -0.1697
    1CHOL    R521942  15.567  15.339   5.381  0.0954  0.0517 -0.2351
    1CHOL    C121943  15.802  15.300   5.679 -0.0135 -0.0249 -0.1586
    1CHOL    C221944  15.668  15.354   5.980  0.1321 -0.1219  0.1326
    1CHOL   ROH21945  27.195  17.873   3.336 -0.1027  0.0389 -0.1266
    1CHOL    R121946  27.344  17.857   3.576 -0.1128  0.1777 -0.1095
    1CHOL    R221947  27.307  18.032   3.787 -0.3694  0.0866 -0.0709
    1CHOL    R321948  27.274  17.802   3.929 -0.0956  0.0053 -0.1330
    1CHOL    R421949  27.213  18.017   4.119 -0.1072 -0.1216 -0.0031
    1CHOL    R521950  27.357  17.855   4.147  0.0299 -0.0277 -0.1755
    1CHOL    C121951  27.128  17.793   4.446  0.3022 -0.3192 -0.0219
    1CHOL    C221952  27.472  17.652   4.627 -0.0378  0.0500  0.3772
    1CHOL   ROH21953   4.202  18.032   6.247  0.2155 -0.2878 -0.0039
    1CHOL    R121954   4.173  18.078   5.969  0.1359 -0.1621  0.0242
    1CHOL    R221955   4.245  17.890   5.779  0.1485 -0.0497 -0.0847
    1CHOL    R321956   3.989  17.926   5.694  0.1169 -0.0859 -0.0049
    1CHOL    R421957   4.124  17.797   5.468  0.0800 -0.0027 -0.0721
    1CHOL    R521958   4.010  17.983   5.462  0.0381 -0.0273  0.0030
    1CHOL    C121959   3.814  17.777   5.208  0.0104 -0.0095  0.0102
    1CHOL    C221960   4.006  17.743   5.010 -0.2128 -0.1112 -0.0144
    1CHOL   ROH21961   4.672  25.419   3.482  0.0496 -0.0095 -0.1348
    1CHOL    R121962   4.598  25.348   3.746  0.0494  0.1232 -0.0989
    1CHOL    R221963   4.719  25.142   3.884 -0.0545  0.0942 -0.0515
    1CHOL    R321964   4.760  25.335   4.072  0.0951  0.1312 -0.1209
    1CHOL    R421965   4.823  25.083   4.208 -0.3432  0.1007  0.0456
    1CHOL    R521966   4.683  25.236   4.276 -0.1767  0.3339 -0.1183
    1CHOL    C121967   4.922  25.229   4.573 -0.3709  0.1393  0.0369
    1CHOL    C221968   5.168  25.374   4.832 -0.1231 -0.0062  0.0419
    1CHOL   ROH21969  23.207  14.288   6.086  0.0528  0.0592  0.0497
    1CHOL    R121970  23.046  14.273   5.853  0.2935  0.0674 -0.1207
    1CHOL    R221971  22.771  14.252   5.863  0.3130 -0.5328 -0.3929
    1CHOL    R321972  22.781  14.471   5.702  0.0080 -0.2555 -0.0529
    1CHOL    R421973  22.503  14.377   5.684  0.1584 -0.6898 -0.2740
    1CHOL    R521974  22.639  14.414   5.517  0.1551 -0.2062 -0.1835
    1CHOL    C121975  22.356  14.655   5.428 -0.2178 -0.5210  0.1143
    1CHOL    C221976  22.392  14.904   5.173 -0.2152 -0.0801  0.0952
    1CHOL   ROH21977  23.545  14.432   6.347  0.2095 -0.0484  0.0054
    1CHOL    R121978  23.670  14.576   6.137  0.0488  0.0976  0.0073
    1CHOL    R221979  23.823  14.452   5.942  0.0523  0.2525 -0.0924
    1CHOL    R321980  23.653  14.582   5.774 -0.0890  0.2101  0.0160
    1CHOL    R421981  23.851  14.460   5.598 -0.0796  0.4053 -0.1015
    1CHOL    R521982  23.794  14.669   5.602 -0.2092  0.3651 -0.0026
    1CHOL    C121983  23.709  14.585   5.240 -0.2890  0.4544 -0.0050
    1CHOL    C221984  23.624  14.765   4.899  0.1016  0.2419  0.0680
    1CHOL   ROH21985  25.470  10.093   3.443  0.0549 -0.2676 -0.0135
    1CHOL    R121986  25.619  10.106   3.683  0.0259 -0.0810 -0.0044
    1CHOL    R221987  25.539   9.979   3.915  0.0869 -0.0457  0.0382
    1CHOL    R321988  25.788   9.871   3.903  0.1579  0.1094  0.0997
    1CHOL    R421989  25.739   9.914   4.189  0.0080 -0.0435  0.0961
    1CHOL    R521990  25.911   9.985   4.075  0.0153  0.1087  0.2018
    1CHOL    C121991  26.089   9.774   4.338  0.0287  0.1032  0.1875
    1CHOL    C221992  26.400   9.655   4.510  0.0617  0.1170 -0.0046
    1CHOL   ROH21993  25.740   4.925   4.999  0.0277 -0.0511  0.0522
    1CHOL    R121994  25.715   5.040   4.741  0.0310 -0.0184  0.0670
    1CHOL    R221995  25.817   4.920   4.514  0.0766  0.0383  0.0642
    1CHOL    R321996  25.562   4.948   4.424  0.0829  0.0011  0.0335
    1CHOL    R421997  25.728   4.964   4.183  0.1346  0.0781  0.0540
    1CHOL    R521998  25.579   5.109   4.248  0.0881  0.0418  0.0618
    1CHOL    C121999  25.437   5.017   3.906  0.1742  0.0663  0.0192
    1CHOL    C222000  25.395   4.929   3.557 -0.3272  0.0957  0.1691
    1CHOL   ROH22001   8.261  27.155   6.201  0.3244 -0.0901 -0.0594
    1CHOL    R122002   8.312  27.108   5.926  0.1818 -0.0624 -0.0904
    1CHOL    R222003   8.261  27.296   5.731  0.0368 -0.0617 -0.0479
    1CHOL    R322004   8.522  27.253   5.667  0.0104 -0.0061 -0.2004
    1CHOL    R422005   8.393  27.326   5.413 -0.1035  0.2372 -0.0825
    1CHOL    R522006   8.513  27.148   5.452 -0.0861  0.1942 -0.3007
    1CHOL    C122007   8.715  27.303   5.168 -0.2099  0.4634 -0.2458
    1CHOL    C222008   8.873  27.527   4.862  0.1530 -0.2546  0.0380
    1CHOL   ROH22009  26.261   6.835   5.771 -0.1394  0.0147  0.0096
    1CHOL    R122010  25.986   6.871   5.712 -0.1153 -0.0527 -0.1487
    1CHOL    R222011  25.880   6.820   5.462  0.0081 -0.2449 -0.1661
    1CHOL    R322012  25.710   6.661   5.602 -0.0417 -0.1593 -0.1294
    1CHOL    R422013  25.567   6.722   5.353 -0.0114 -0.1966 -0.1524
    1CHOL    R522014  25.493   6.751   5.556 -0.0152 -0.1179 -0.1670
    1CHOL    C122015  25.225   6.515   5.421 -0.0697 -0.0880 -0.1101
    1CHOL    C222016  25.159   6.219   5.195  0.2477 -0.0365  0.0649
    1CHOL   ROH22017  28.058  14.397   5.544  0.1876 -0.1291 -0.0548
    1CHOL    R122018  27.930  14.247   5.341  0.1597  0.0508 -0.1724
    1CHOL    R222019  27.995  14.272   5.074  0.3786  0.0271 -0.1236
    1CHOL    R322020  28.029  14.003   5.090  0.0641 -0.0175 -0.1439
    1CHOL    R422021  28.088  14.069   4.810  0.4180 -0.0211 -0.0728
    1CHOL    R522022  27.945  13.920   4.882  0.1792  0.1194 -0.2458
    1CHOL    C122023   0.046  13.697   4.672  0.1461 -0.0911 -0.0622
    1CHOL    C222024   0.396  13.605   4.506 -0.3898  0.3998  0.1810
    1CHOL   ROH22025   4.321   2.317   5.788 -0.1153 -0.2965  0.0980
    1CHOL    R122026   4.405   2.316   5.518  0.0653 -0.4268  0.1545
    1CHOL    R222027   4.474   2.085   5.383 -0.3598 -0.5550  0.1619
    1CHOL    R322028   4.289   2.172   5.204 -0.0519 -0.1062  0.0439
    1CHOL    R422029   4.460   1.989   5.052 -0.2690 -0.3910  0.1084
    1CHOL    R522030   4.412   2.195   4.999  0.1760 -0.2549  0.1522
    1CHOL    C122031   4.279   2.015   4.690  0.0731  0.1257 -0.0334
    1CHOL    C222032   4.472   1.797   4.428  0.1311  0.1599  0.0422
    1CHOL   ROH22033  26.635  15.937   3.274 -0.0414 -0.1327 -0.0345
    1CHOL    R122034  26.533  16.082   3.495  0.0525 -0.0944 -0.0158
    1CHOL    R222035  26.469  15.961   3.735  0.0013 -0.0792 -0.0217
    1CHOL    R322036  26.636  16.149   3.837  0.1119 -0.1793 -0.0168
    1CHOL    R422037  26.497  16.038   4.071  0.0488 -0.1054 -0.0196
    1CHOL    R522038  26.511  16.248   4.016  0.1712 -0.1117 -0.0130
    1CHOL    C122039  26.670  16.259   4.362  0.1803 -0.2145 -0.0137
    1CHOL    C222040  26.806  16.433   4.634  0.1029 -0.1257  0.0586
    1CHOL   ROH22041  17.556  27.957   4.465  0.0410 -0.0710 -0.0766
    1CHOL    R122042  17.705  27.961   4.705 -0.0208  0.1727 -0.0394
    1CHOL    R222043  17.634  28.116   4.922 -0.3346  0.0549 -0.0525
    1CHOL    R322044  17.645  27.879   5.055  0.0254  0.0649 -0.0562
    1CHOL    R422045  17.646  28.083   5.266 -0.3889  0.0677 -0.0493
    1CHOL    R522046  17.791  27.922   5.240 -0.1029  0.3098 -0.0078
    1CHOL    C122047  17.664  27.841   5.591 -0.0827  0.0843 -0.0509
    1CHOL    C222048  17.609  27.652   5.853 -0.0639  0.0751  0.1105
    1CHOL   ROH22049   3.877  14.531   3.375  0.0714 -0.0062  0.0319
    1CHOL    R122050   3.942  14.614   3.638  0.0346 -0.0116  0.0425
    1CHOL    R222051   3.757  14.612   3.844  0.0122 -0.0375  0.0216
    1CHOL    R322052   3.947  14.463   3.969  0.0120 -0.0251  0.0369
    1CHOL    R422053   3.758  14.535   4.181 -0.0027 -0.0248  0.0246
    1CHOL    R522054   3.973  14.567   4.183 -0.0037 -0.0158  0.0346
    1CHOL    C122055   3.936  14.350   4.495 -0.0116 -0.0060  0.0407
    1CHOL    C222056   4.021  14.400   4.950  0.2674  0.2576  0.1422
    1CHOL   ROH22057   3.526  22.307   6.083 -0.0183  0.2309  0.3349
    1CHOL    R122058   3.390  22.456   5.884 -0.0462  0.1670  0.3063
    1CHOL    R222059   3.337  22.726   5.911  0.0180  0.1898  0.1977
    1CHOL    R322060   3.464  22.741   5.671 -0.0503  0.0537  0.1513
    1CHOL    R422061   3.291  22.978   5.679  0.1523  0.2041  0.1853
    1CHOL    R522062   3.298  22.828   5.521 -0.0303  0.1781  0.1991
    1CHOL    C122063   3.383  23.140   5.319  0.1664  0.0846  0.1345
    1CHOL    C222064   3.286  23.536   5.177 -0.0399  0.0740 -0.0917
    1CHOL   ROH22065  14.357   8.838   7.181 -0.3876 -0.1156  0.1004
    1CHOL    R122066  14.398   8.937   6.919 -0.2556 -0.1705  0.0997
    1CHOL    R222067  14.251   8.848   6.702 -0.3030 -0.0533  0.0840
    1CHOL    R322068  14.200   9.113   6.670 -0.0571 -0.0063  0.0557
    1CHOL    R422069  14.174   9.000   6.401 -0.3522 -0.0477  0.0989
    1CHOL    R522070  14.300   9.168   6.459 -0.1410 -0.1581 -0.0251
    1CHOL    C122071  14.081   9.337   6.196 -0.1500 -0.0004  0.0809
    1CHOL    C222072  14.266   9.405   5.837  0.2094 -0.2761  0.2266
    1CHOL   ROH22073   9.471   6.073   3.853 -0.4522 -0.0106 -0.2481
    1CHOL    R122074   9.255   6.016   4.027 -0.2615 -0.1844 -0.0621
    1CHOL    R222075   9.277   5.837   4.237  0.1460  0.0412  0.1041
    1CHOL    R322076   9.187   6.048   4.383 -0.0902  0.0490 -0.0490
    1CHOL    R422077   9.153   5.816   4.559  0.2773  0.1561  0.1627
    1CHOL    R522078   8.999   5.961   4.504  0.0651 -0.0966  0.0857
    1CHOL    C122079   8.996   6.002   4.883  0.1321  0.2303  0.0531
    1CHOL    C222080   8.952   5.725   5.203 -0.0403  0.0412 -0.1071
    1CHOL   ROH22081  20.982  23.455   6.543 -0.3252  0.0147  0.0337
    1CHOL    R122082  20.927  23.361   6.282 -0.0546 -0.0487 -0.0059
    1CHOL    R222083  20.750  23.489   6.112 -0.1696 -0.2926 -0.0893
    1CHOL    R322084  20.962  23.488   5.942 -0.0699  0.0411  0.0282
    1CHOL    R422085  20.727  23.448   5.770  0.0990 -0.3539 -0.1006
    1CHOL    R522086  20.905  23.322   5.778  0.2983 -0.0606  0.0041
    1CHOL    C122087  20.912  23.423   5.411  0.3490 -0.0766  0.0032
    1CHOL    C222088  20.850  23.467   5.060  0.0302 -0.1776  0.1568
    1CHOL   ROH22089   3.246   5.211   5.154  0.0980 -0.1292 -0.0735
    1CHOL    R122090   3.067   5.115   4.956  0.0261 -0.0814 -0.0323
    1CHOL    R222091   3.007   5.259   4.728 -0.1561  0.0313  0.0840
    1CHOL    R322092   3.085   5.031   4.603 -0.1349  0.1349 -0.0940
    1CHOL    R422093   2.889   5.152   4.421 -0.3571  0.1184  0.1295
    1CHOL    R522094   2.885   4.948   4.499 -0.1785  0.0768  0.0347
    1CHOL    C122095   2.893   4.876   4.125 -0.4541  0.2664 -0.0112
    1CHOL    C222096   3.160   4.642   3.836 -0.1982  0.0966  0.0654
    1CHOL   ROH22097   3.442   9.346   5.805  0.0179  0.2354 -0.1699
    1CHOL    R122098   3.451   9.380   5.524  0.0887  0.1269 -0.1832
    1CHOL    R222099   3.568   9.196   5.355  0.1201  0.0468 -0.0909
    1CHOL    R322100   3.326   9.202   5.232  0.1457  0.0195 -0.1387
    1CHOL    R422101   3.490   9.029   5.062  0.0579 -0.2886  0.1126
    1CHOL    R522102   3.377   9.204   4.998  0.1704 -0.3162 -0.1321
    1CHOL    C122103   3.216   8.939   4.777  0.0458 -0.5096  0.1860
    1CHOL    C222104   3.174   8.868   4.382 -0.0883 -0.2359 -0.3227
    1CHOL   ROH22105  18.529  12.634   6.616 -0.2146 -0.0030 -0.0973
    1CHOL    R122106  18.496  12.592   6.339 -0.0603  0.0749 -0.1281
    1CHOL    R222107  18.639  12.732   6.148  0.3344 -0.1507 -0.0002
    1CHOL    R322108  18.704  12.482   6.061 -0.0131 -0.2584  0.0315
    1CHOL    R422109  18.769  12.658   5.836  0.4993 -0.3204  0.1057
    1CHOL    R522110  18.642  12.482   5.830  0.1917 -0.1112 -0.0319
    1CHOL    C122111  18.906  12.381   5.573  0.2691 -0.5205  0.1971
    1CHOL    C222112  18.855  12.160   5.167  0.1136 -0.0659 -0.0757
    1CHOL   ROH22113  13.777  26.022   5.337 -0.1631 -0.1950  0.0648
    1CHOL    R122114  13.888  25.831   5.161 -0.2663 -0.2447  0.0491
    1CHOL    R222115  14.161  25.797   5.129 -0.2667 -0.1008 -0.2708
    1CHOL    R322116  14.102  25.538   5.189 -0.0521 -0.0913 -0.0138
    1CHOL    R422117  14.365  25.526   5.063 -0.1070 -0.0252 -0.0844
    1CHOL    R522118  14.190  25.413   5.005 -0.0328 -0.2037  0.0849
    1CHOL    C122119  14.430  25.126   5.081  0.1874  0.0278  0.2653
    1CHOL    C222120  14.718  24.881   4.816 -0.0285  0.1345  0.0883
    1CHOL   ROH22121  25.201  12.099   3.720  0.1162  0.1138  0.1610
    1CHOL    R122122  25.112  12.118   3.988 -0.1320 -0.0058  0.0889
    1CHOL    R222123  24.922  11.947   4.094  0.0684 -0.3205 -0.0460
    1CHOL    R322124  25.112  11.904   4.283 -0.0026  0.0256  0.1118
    1CHOL    R422125  24.886  11.739   4.367  0.2312 -0.4151 -0.0949
    1CHOL    R522126  24.990  11.887   4.488 -0.1479 -0.2213  0.0086
    1CHOL    C122127  25.044  11.577   4.704  0.2591 -0.1452  0.0247
    1CHOL    C222128  25.024  11.261   5.013  0.1248  0.3452  0.5285
    1CHOL   ROH22129   4.682  12.560   3.570  0.0372  0.0683  0.0218
    1CHOL    R122130   4.701  12.696   3.817 -0.0202  0.1267 -0.0058
    1CHOL    R222131   4.548  12.918   3.878 -0.1303  0.0595 -0.0424
    1CHOL    R322132   4.479  12.771   4.096 -0.0449  0.0682 -0.0089
    1CHOL    R422133   4.321  13.017   4.119 -0.1901 -0.0130 -0.0683
    1CHOL    R522134   4.453  12.933   4.271 -0.1390  0.0974 -0.0466
    1CHOL    C122135   4.125  12.937   4.465 -0.1448 -0.0470 -0.0520
    1CHOL    C222136   3.837  12.720   4.685 -0.0304  0.4427  0.3217
    1CHOL   ROH22137  11.530   3.746   6.984  0.2233  0.1456  0.1843
    1CHOL    R122138  11.578   3.777   6.707 -0.0101  0.1315  0.1386
    1CHOL    R222139  11.832   3.767   6.598 -0.0777  0.3000 -0.0554
    1CHOL    R322140  11.721   3.577   6.439 -0.0631  0.1863  0.0710
    1CHOL    R422141  11.906   3.723   6.264  0.0731 -0.0565  0.0219
    1CHOL    R522142  11.694   3.685   6.227  0.0835 -0.0140 -0.0489
    1CHOL    C122143  11.846   3.518   5.919  0.1748 -0.3709  0.1856
    1CHOL    C222144  12.005   3.781   5.767 -0.2294  0.1166 -0.0454
    1CHOL   ROH22145   1.417   7.857   6.008 -0.1801 -0.0567  0.1785
    1CHOL    R122146   1.496   8.011   5.784 -0.2572 -0.0232  0.1748
    1CHOL    R222147   1.669   7.915   5.591 -0.1343  0.0941  0.2312
    1CHOL    R322148   1.468   7.983   5.422 -0.1511 -0.0970  0.1705
    1CHOL    R422149   1.701   7.942   5.248  0.0331  0.4025  0.2668
    1CHOL    R522150   1.574   8.119   5.255 -0.2599  0.2045  0.3340
    1CHOL    C122151   1.531   8.022   4.889  0.1148  0.4026  0.2306
    1CHOL    C222152   1.607   7.995   4.461 -0.0149 -0.0016  0.1360
    1CHOL   ROH22153   7.056   1.222   3.198 -0.0119  0.0315  0.0530
    1CHOL    R122154   7.106   1.393   3.418 -0.0078 -0.0146  0.0878
    1CHOL    R222155   6.916   1.568   3.517 -0.0008 -0.0254  0.1186
    1CHOL    R322156   6.969   1.442   3.752 -0.0117 -0.0739  0.0953
    1CHOL    R422157   6.873   1.708   3.830  0.0144 -0.0772  0.1441
    1CHOL    R522158   7.059   1.614   3.893  0.0063 -0.1074  0.1259
    1CHOL    C122159   6.896   1.671   4.233  0.0131 -0.1529  0.1370
    1CHOL    C222160   6.711   1.488   4.553 -0.2433  0.0137 -0.0207
    1CHOL   ROH22161  14.650   0.944   3.978 -0.1206 -0.0573 -0.0861
    1CHOL    R122162  14.692   1.028   4.245 -0.1274 -0.1753 -0.0482
    1CHOL    R222163  14.787   0.859   4.441  0.1923 -0.1747 -0.2038
    1CHOL    R322164  14.974   1.054   4.473 -0.0631  0.0701 -0.1499
    1CHOL    R422165  14.913   0.965   4.745  0.3158 -0.3634 -0.1866
    1CHOL    R522166  14.907   1.170   4.671 -0.0598 -0.2698  0.0618
    1CHOL    C122167  15.162   1.209   4.952  0.1480 -0.2436 -0.1261
    1CHOL    C222168  15.515   1.068   5.229  0.0685 -0.0657  0.0923
    1CHOL   ROH22169   3.165  24.195   6.366 -0.0902 -0.0148  0.0488
    1CHOL    R122170   3.116  24.357   6.139 -0.0632  0.0180  0.0664
    1CHOL    R222171   3.252  24.325   5.901  0.0754  0.1541  0.1264
    1CHOL    R322172   3.002  24.306   5.798  0.1372  0.0452 -0.0057
    1CHOL    R422173   3.166  24.409   5.577  0.1920  0.1988  0.1061
    1CHOL    R522174   2.982  24.497   5.654  0.1039  0.0753  0.0392
    1CHOL    C122175   2.880  24.439   5.291  0.3180  0.1226 -0.0298
    1CHOL    C222176   3.059  24.602   4.960  0.1622 -0.0918 -0.1665
    1CHOL   ROH22177  24.878  10.182   6.535  0.0048 -0.1623 -0.2023
    1CHOL    R122178  25.032  10.199   6.299  0.0468 -0.1894 -0.1739
    1CHOL    R222179  24.956  10.078   6.063 -0.1030  0.1034 -0.2653
    1CHOL    R322180  24.987  10.328   5.962  0.2584  0.1424 -0.0843
    1CHOL    R422181  25.005  10.150   5.729 -0.5984  0.2705 -0.3126
    1CHOL    R522182  25.151  10.302   5.788 -0.1184 -0.0927 -0.4379
    1CHOL    C122183  25.063  10.427   5.438 -0.5476  0.4043 -0.1703
    1CHOL    C222184  25.241  10.211   5.135  0.2652  0.1401  0.0389
    1CHOL   ROH22185  13.664  18.850   6.677 -0.0777 -0.0479 -0.0768
    1CHOL    R122186  13.693  18.805   6.399  0.0399 -0.1321 -0.0519
    1CHOL    R222187  13.704  18.552   6.289 -0.1262 -0.1675  0.0082
    1CHOL    R322188  13.501  18.645   6.135  0.0423 -0.0138 -0.1262
    1CHOL    R422189  13.630  18.438   5.972 -0.1104 -0.2357  0.0290
    1CHOL    R522190  13.590  18.644   5.913  0.1422 -0.2167 -0.0875
    1CHOL    C122191  13.395  18.459   5.642  0.0570 -0.1314 -0.0849
    1CHOL    C222192  13.532  18.290   5.378 -0.1370 -0.1518 -0.1265
    1CHOL   ROH22193  17.002   0.859   4.439 -0.1402  0.0757  0.0472
    1CHOL    R122194  16.837   0.715   4.618 -0.0221 -0.0796  0.0329
    1CHOL    R222195  16.876   0.447   4.674  0.2373 -0.0397  0.0516
    1CHOL    R322196  16.882   0.535   4.931  0.1163 -0.0200  0.0484
    1CHOL    R422197  16.786   0.258   4.949  0.1707 -0.0412  0.0292
    1CHOL    R522198  16.689   0.435   5.033  0.0978 -0.0564 -0.0210
    1CHOL    C122199  16.740   0.231   5.351  0.0183 -0.0235  0.0130
    1CHOL    C222200  16.775   0.355   5.766  0.1308 -0.1946  0.0141
    1CHOL   ROH22201   2.752  13.059   5.912 -0.0379 -0.3048 -0.1245
    1CHOL    R122202   2.802  13.105   5.637 -0.0635 -0.2016 -0.1120
    1CHOL    R222203   2.624  13.239   5.473 -0.0402 -0.0677 -0.0254
    1CHOL    R322204   2.840  13.394   5.420  0.0057 -0.1192  0.0074
    1CHOL    R422205   2.648  13.462   5.211 -0.0147  0.0423  0.0697
    1CHOL    R522206   2.854  13.399   5.182 -0.0386 -0.0181  0.0041
    1CHOL    C122207   2.865  13.739   5.009  0.0433  0.0579  0.1559
    1CHOL    C222208   2.878  13.828   4.719 -0.0293 -0.0070 -0.2329
    1CHOL   ROH22209  13.991   0.901   6.843  0.2204 -0.0734 -0.0166
    1CHOL    R122210  14.039   0.831   6.573  0.1910  0.0631 -0.0586
    1CHOL    R222211  13.844   0.720   6.411  0.1929  0.0766 -0.0731
    1CHOL    R322212  13.908   0.927   6.248  0.0993  0.1718  0.0102
    1CHOL    R422213  13.886   0.696   6.069  0.2962  0.2162 -0.0707
    1CHOL    R522214  14.056   0.831   6.085  0.2031  0.3220  0.0157
    1CHOL    C122215  13.970   0.877   5.716  0.2685  0.3869  0.0088
    1CHOL    C222216  13.641   0.822   5.532 -0.0905 -0.0208  0.0862
    1CHOL   ROH22217  25.002  11.355   3.490  0.0004  0.0369 -0.1365
    1CHOL    R122218  25.071  11.123   3.637 -0.2252 -0.0188 -0.1140
    1CHOL    R222219  25.315  11.095   3.763 -0.1610 -0.3368 -0.2966
    1CHOL    R322220  25.161  11.046   3.982 -0.0672 -0.0307 -0.1576
    1CHOL    R422221  25.427  10.949   4.056 -0.1443 -0.3692 -0.3193
    1CHOL    R522222  25.240  10.837   4.066 -0.2954 -0.1078 -0.1312
    1CHOL    C122223  25.347  10.818   4.431 -0.0465 -0.1007 -0.2020
    1CHOL    C222224  25.276  10.618   4.729 -0.2460  0.1427 -0.0871
    1CHOL   ROH22225  12.004   7.840   4.170  0.1365  0.0628  0.1772
    1CHOL    R122226  11.805   7.836   4.372  0.0218  0.0775  0.0674
    1CHOL    R222227  11.821   7.670   4.593 -0.1170  0.0704  0.0769
    1CHOL    R322228  11.791   7.902   4.730 -0.1697  0.0724  0.0607
    1CHOL    R422229  11.751   7.692   4.930  0.0828  0.0831  0.1180
    1CHOL    R522230  11.616   7.857   4.886 -0.0425 -0.0067  0.1790
    1CHOL    C122231  11.683   7.924   5.256  0.1497  0.0922  0.1266
    1CHOL    C222232  11.516   7.739   5.596  0.2570 -0.3253 -0.1976
    1CHOL   ROH22233   4.594  24.536   6.236 -0.2245  0.0645 -0.0150
    1CHOL    R122234   4.525  24.631   5.978 -0.1760  0.0435 -0.0355
    1CHOL    R222235   4.711  24.662   5.777 -0.1385  0.0285 -0.0015
    1CHOL    R322236   4.539  24.504   5.637 -0.1105  0.0170 -0.0235
    1CHOL    R422237   4.738  24.591   5.440 -0.1776  0.1593 -0.0333
    1CHOL    R522238   4.522  24.610   5.423 -0.1896  0.0890  0.0169
    1CHOL    C122239   4.592  24.400   5.113 -0.1741  0.2246 -0.0724
    1CHOL    C222240   4.910  24.282   4.801 -0.0747  0.0591 -0.0933
    1CHOL   ROH22241  26.641   6.598   3.249  0.2468  0.5337 -0.0769
    1CHOL    R122242  26.706   6.558   3.522  0.1736  0.3939 -0.0792
    1CHOL    R222243  26.798   6.761   3.685  0.0034  0.3430  0.0854
    1CHOL    R322244  26.590   6.686   3.843 -0.0111  0.1239 -0.0344
    1CHOL    R422245  26.741   6.878   4.005 -0.0319 -0.0879  0.2429
    1CHOL    R522246  26.683   6.676   4.063 -0.0337 -0.1713 -0.0343
    1CHOL    C122247  26.512   6.875   4.340 -0.0662 -0.5445  0.2221
    1CHOL    C222248  26.352   7.163   4.591 -0.0896  0.1598 -0.1404
    1CHOL   ROH22249   9.743  13.927   4.423  0.1497  0.0395 -0.0469
    1CHOL    R122250   9.840  13.871   4.683  0.0405  0.1496  0.0186
    1CHOL    R222251   9.749  14.004   4.908 -0.1849  0.1196 -0.0542
    1CHOL    R322252   9.701  13.752   4.997 -0.0554  0.0984 -0.0424
    1CHOL    R422253   9.647  13.924   5.228  0.0528  0.0692  0.0111
    1CHOL    R522254   9.780  13.752   5.223  0.0988  0.1040 -0.0939
    1CHOL    C122255   9.541  13.641   5.498  0.3128  0.0200  0.0601
    1CHOL    C222256   9.439  13.920   5.737  0.1945 -0.0223  0.2199
    1CHOL   ROH22257   4.269   4.299   5.632  0.0476  0.2478 -0.0475
    1CHOL    R122258   4.365   4.305   5.366  0.0205  0.3729 -0.0545
    1CHOL    R222259   4.228   4.187   5.156  0.1878  0.1367 -0.0296
    1CHOL    R322260   4.249   4.435   5.046 -0.2092  0.1634 -0.0615
    1CHOL    R422261   4.272   4.250   4.819  0.0819  0.1553 -0.0407
    1CHOL    R522262   4.412   4.409   4.872 -0.1633  0.3937 -0.0620
    1CHOL    C122263   4.318   4.519   4.519 -0.3526  0.1912 -0.0772
    1CHOL    C222264   4.389   4.521   4.222  0.2766 -0.0275  0.0329
    1CHOL   ROH22265  16.918  23.856   3.698 -0.1170 -0.0878 -0.0758
    1CHOL    R122266  17.009  23.706   3.921 -0.1019 -0.0164 -0.0344
    1CHOL    R222267  17.275  23.642   3.959 -0.0980  0.0144 -0.0215
    1CHOL    R322268  17.236  23.760   4.200 -0.1006  0.0805 -0.0536
    1CHOL    R422269  17.433  23.550   4.252 -0.2623 -0.0490  0.0488
    1CHOL    R522270  17.245  23.580   4.357 -0.2797  0.0978 -0.0206
    1CHOL    C122271  17.488  23.607   4.649 -0.3605 -0.0239  0.0596
    1CHOL    C222272  17.477  23.390   4.927  0.0236  0.1314 -0.0389
    1CHOL   ROH22273  24.326  27.818   5.431  0.1033 -0.0961  0.0470
    1CHOL    R122274  24.320  27.542   5.497  0.1641 -0.0453  0.2734
    1CHOL    R222275  24.336  27.343   5.307 -0.2643 -0.1998  0.3883
    1CHOL    R322276  24.543  27.257   5.460  0.0257 -0.1267  0.0496
    1CHOL    R422277  24.513  27.051   5.254 -0.2424 -0.1355  0.0913
    1CHOL    R522278  24.516  27.019   5.469  0.1253 -0.1376  0.0934
    1CHOL    C122279  24.811  26.800   5.367  0.0427 -0.0294 -0.3995
    1CHOL    C222280  25.114  26.705   5.228 -0.3124  0.2925  0.3326
    1CHOL   ROH22281  25.594   8.341   3.087  0.2794  0.0906  0.0594
    1CHOL    R122282  25.526   8.110   3.236 -0.0293  0.1920  0.0848
    1CHOL    R222283  25.717   7.940   3.342 -0.2391 -0.2636 -0.2167
    1CHOL    R322284  25.582   7.988   3.574  0.1671 -0.0128 -0.0214
    1CHOL    R422285  25.665   7.707   3.592 -0.2522 -0.1336 -0.0969
    1CHOL    R522286  25.462   7.784   3.615 -0.0972  0.1856  0.1893
    1CHOL    C122287  25.508   7.615   3.954  0.1214  0.1776  0.1564
    1CHOL    C222288  25.409   7.329   4.122  0.3328  0.0978 -0.2132
    1CHOL   ROH22289  27.005  24.985   3.406 -0.1517 -0.4058 -0.0177
    1CHOL    R122290  27.023  24.907   3.678 -0.1046 -0.1387  0.0597
    1CHOL    R222291  27.011  25.089   3.886 -0.1700  0.0603 -0.1095
    1CHOL    R322292  26.810  24.927   3.972 -0.0988  0.0563  0.0509
    1CHOL    R422293  26.943  25.017   4.217  0.0923  0.0493 -0.0559
    1CHOL    R522294  26.903  24.811   4.160  0.0494  0.0538 -0.0266
    1CHOL    C122295  26.715  24.823   4.491  0.3119  0.0393  0.1260
    1CHOL    C222296  26.836  24.805   4.853  0.1527  0.0708  0.2186
    1CHOL   ROH22297  10.860  16.797   4.006 -0.2096  0.2728 -0.2727
    1CHOL    R122298  10.833  16.979   4.220 -0.1923  0.2173 -0.2213
    1CHOL    R222299  11.021  17.002   4.421 -0.2247  0.0896 -0.1667
    1CHOL    R322300  11.019  17.264   4.350 -0.1164  0.1091 -0.0953
    1CHOL    R422301  11.069  17.267   4.638 -0.3634  0.0274 -0.0596
    1CHOL    R522302  10.912  17.375   4.533 -0.2502  0.0809 -0.1612
    1CHOL    C122303  11.095  17.667   4.697 -0.3424  0.0096  0.0697
    1CHOL    C222304  11.262  17.748   5.035 -0.0452 -0.0044  0.0427
    1CHOL   ROH22305  15.949  19.670   3.751  0.3765 -0.1323 -0.1539
    1CHOL    R122306  16.016  19.552   4.000  0.1538 -0.1276 -0.0879
    1CHOL    R222307  15.989  19.686   4.239  0.2027 -0.0180 -0.1357
    1CHOL    R322308  15.842  19.468   4.308 -0.0634  0.1596 -0.1296
    1CHOL    R422309  15.936  19.578   4.564  0.4342 -0.1979 -0.1559
    1CHOL    R522310  15.961  19.373   4.494  0.0180 -0.1831 -0.3540
    1CHOL    C122311  15.768  19.311   4.817  0.3191 -0.1360 -0.1620
    1CHOL    C222312  15.512  19.364   5.141  0.0790 -0.0717  0.0136
    1CHOL   ROH22313   5.477  27.224   6.381  0.1008 -0.0915  0.0089
    1CHOL    R122314   5.441  27.177   6.104 -0.0290 -0.0140  0.0115
    1CHOL    R222315   5.296  27.348   5.942  0.0435  0.1264  0.0899
    1CHOL    R322316   5.524  27.348   5.794 -0.0047 -0.0195  0.0155
    1CHOL    R422317   5.319  27.457   5.615 -0.0259 -0.0379  0.0298
    1CHOL    R522318   5.452  27.289   5.573 -0.0953 -0.1011  0.0671
    1CHOL    C122319   5.547  27.521   5.285 -0.1117 -0.2706 -0.0751
    1CHOL    C222320   5.631  27.605   4.969 -0.1275 -0.2700  0.0982
    1CHOL   ROH22321   0.323   1.983   5.938  0.0590  0.1877 -0.0129
    1CHOL    R122322   0.350   1.840   5.696 -0.1860 -0.1230  0.1360
    1CHOL    R222323   0.146   1.686   5.590 -0.5254  0.2538  0.2128
    1CHOL    R322324   0.189   1.839   5.369 -0.0664 -0.0511  0.0768
    1CHOL    R422325  28.105   1.652   5.290 -0.4160  0.3088  0.1451
    1CHOL    R522326   0.166   1.687   5.186 -0.2725 -0.1916  0.2175
    1CHOL    C122327  28.048   1.776   4.908  0.0785  0.0546 -0.0220
    1CHOL    C222328  27.914   1.988   4.607  0.0379 -0.0423 -0.2624
    1CHOL   ROH22329  18.773   5.664   5.472 -0.0646 -0.0284  0.0626
    1CHOL    R122330  18.763   5.426   5.320 -0.1586  0.0087  0.0102
    1CHOL    R222331  18.990   5.287   5.245 -0.2064  0.0180 -0.1503
    1CHOL    R322332  18.863   5.079   5.366 -0.1464 -0.0073 -0.1308
    1CHOL    R422333  19.135   4.982   5.317 -0.0704  0.1199  0.0140
    1CHOL    R522334  18.950   4.885   5.256  0.0039 -0.0000 -0.0301
    1CHOL    C122335  19.102   4.609   5.472  0.0652  0.1554  0.1279
    1CHOL    C222336  19.385   4.589   5.819  0.0940 -0.0083  0.1089
    1CHOL   ROH22337  11.710   8.063   7.033  0.1061  0.0983 -0.0489
    1CHOL    R122338  11.744   8.021   6.755  0.1699 -0.0661 -0.0170
    1CHOL    R222339  11.775   8.229   6.576 -0.1320 -0.1535 -0.1740
    1CHOL    R322340  11.999   8.092   6.506  0.0728  0.1172 -0.0667
    1CHOL    R422341  11.927   8.244   6.266 -0.1985 -0.2213 -0.2110
    1CHOL    R522342  11.962   8.029   6.278  0.1329 -0.1647 -0.0041
    1CHOL    C122343  12.226   8.125   6.020 -0.0451 -0.0065 -0.1318
    1CHOL    C222344  12.222   8.382   5.649  0.0065 -0.0435 -0.3900
    1CHOL   ROH22345   4.595  18.453   4.400 -0.2285 -0.2907 -0.1365
    1CHOL    R122346   4.498  18.618   4.609 -0.0505 -0.2539 -0.0813
    1CHOL    R222347   4.230  18.680   4.637 -0.0006 -0.0804  0.0161
    1CHOL    R322348   4.267  18.582   4.888  0.0175 -0.1382 -0.0087
    1CHOL    R422349   4.016  18.731   4.904  0.0684 -0.0575  0.0679
    1CHOL    R522350   4.189  18.756   5.033  0.1032 -0.1377  0.0384
    1CHOL    C122351   3.926  18.669   5.294  0.1257 -0.0985  0.0748
    1CHOL    C222352   3.620  18.800   5.456  0.1165  0.3269 -0.1534
    1CHOL   ROH22353  27.451   7.761   5.929 -0.2413  0.2614 -0.0307
    1CHOL    R122354  27.522   7.690   5.664 -0.3119  0.1153 -0.0108
    1CHOL    R222355  27.339   7.680   5.457 -0.2955  0.3964 -0.0365
    1CHOL    R322356  27.515   7.848   5.337  0.0053  0.0975 -0.0315
    1CHOL    R422357  27.382   7.710   5.116 -0.2847  0.3569 -0.0391
    1CHOL    R522358  27.597   7.725   5.149 -0.2406 -0.0384 -0.0587
    1CHOL    C122359  27.573   7.885   4.804  0.0040  0.0534 -0.0359
    1CHOL    C222360  27.469   8.089   4.432 -0.0279 -0.1331 -0.2071
    1CHOL   ROH22361  22.999   6.322   4.245 -0.0568  0.0890 -0.0815
    1CHOL    R122362  22.873   6.556   4.340 -0.0751  0.0009  0.1137
    1CHOL    R222363  22.669   6.682   4.202 -0.0595  0.1152  0.2033
    1CHOL    R322364  22.536   6.654   4.437 -0.0897 -0.0929  0.1648
    1CHOL    R422365  22.419   6.893   4.313 -0.2647 -0.1332  0.2243
    1CHOL    R522366  22.503   6.879   4.514 -0.2945 -0.1420  0.2437
    1CHOL    C122367  22.149   6.990   4.599 -0.4129 -0.4732  0.2003
    1CHOL    C222368  22.044   7.002   4.953  0.1234 -0.1618  0.2122
    1CHOL   ROH22369  20.498   3.285   3.813  0.0262 -0.1246  0.0556
    1CHOL    R122370  20.403   3.287   4.080 -0.0457  0.0029  0.0320
    1CHOL    R222371  20.572   3.301   4.298 -0.0727 -0.2662  0.0897
    1CHOL    R322372  20.417   3.515   4.364  0.2293 -0.0275  0.0412
    1CHOL    R422373  20.486   3.392   4.621 -0.2875 -0.2987  0.0414
    1CHOL    R522374  20.286   3.438   4.549 -0.1212  0.1012 -0.1561
    1CHOL    C122375  20.291   3.645   4.870 -0.1290 -0.0935 -0.0321
    1CHOL    C222376  20.221   3.994   5.037  0.0850 -0.0166 -0.1148
    1CHOL   ROH22377  24.380  23.397   6.401 -0.0614  0.2317  0.2336
    1CHOL    R122378  24.311  23.317   6.138 -0.2402  0.2175  0.2856
    1CHOL    R222379  24.228  23.496   5.945  0.1755  0.2873  0.1784
    1CHOL    R322380  24.430  23.385   5.801 -0.0719 -0.2739  0.2353
    1CHOL    R422381  24.275  23.540   5.606  0.5187  0.3992  0.2346
    1CHOL    R522382  24.329  23.329   5.591 -0.1485  0.2018  0.1244
    1CHOL    C122383  24.492  23.462   5.273  0.4866 -0.0626  0.3208
    1CHOL    C222384  24.721  23.543   4.991 -0.0873  0.1089 -0.3686
    1CHOL   ROH22385  20.883  21.472   5.462 -0.0183 -0.1564 -0.1347
    1CHOL    R122386  20.791  21.738   5.437  0.0509 -0.1115  0.0654
    1CHOL    R222387  20.705  21.844   5.197  0.1585  0.1201  0.1240
    1CHOL    R322388  20.481  21.902   5.339  0.1222  0.0430  0.0984
    1CHOL    R422389  20.434  22.021   5.075  0.1650  0.1405  0.1397
    1CHOL    R522390  20.420  22.122   5.268  0.1140  0.0631  0.1740
    1CHOL    C122391  20.066  22.178   5.138  0.1346  0.0800  0.1248
    1CHOL    C222392  19.709  22.243   5.200 -0.0154 -0.5792 -0.2261
    1CHOL   ROH22393   7.203  23.310   6.476  0.0542  0.1428  0.0230
    1CHOL    R122394   7.255  23.468   6.247  0.1735 -0.0134 -0.0600
    1CHOL    R222395   7.464  23.415   6.074  0.1468 -0.2503 -0.0263
    1CHOL    R322396   7.267  23.416   5.887  0.1530 -0.2143 -0.0322
    1CHOL    R422397   7.509  23.490   5.740  0.1809 -0.3288 -0.0391
    1CHOL    R522398   7.321  23.600   5.744  0.2216 -0.2616 -0.0651
    1CHOL    C122399   7.350  23.535   5.370  0.2067 -0.3404 -0.0521
    1CHOL    C222400   7.449  23.429   5.064 -0.2908  0.3595 -0.2975
    1CHOL   ROH22401   5.534   1.433   5.908 -0.3188 -0.0271  0.0344
    1CHOL    R122402   5.620   1.276   5.688 -0.3368 -0.0709  0.0599
    1CHOL    R222403   5.446   1.184   5.494 -0.3050  0.1515 -0.0693
    1CHOL    R322404   5.621   1.307   5.326 -0.0645  0.0024  0.0628
    1CHOL    R422405   5.492   1.099   5.162 -0.2575  0.2165 -0.0805
    1CHOL    R522406   5.706   1.129   5.189 -0.2232 -0.0627  0.0375
    1CHOL    C122407   5.682   1.165   4.811 -0.0041  0.1143  0.0370
    1CHOL    C222408   5.752   1.194   4.472  0.2697 -0.0631 -0.0824
    1CHOL   ROH22409  19.711  19.592   6.838  0.0499 -0.0564  0.0929
    1CHOL    R122410  19.718  19.687   6.571 -0.0007 -0.0840  0.0824
    1CHOL    R222411  19.918  19.854   6.477 -0.0828 -0.0015  0.0604
    1CHOL    R322412  19.946  19.661   6.288  0.0049 -0.0095  0.0793
    1CHOL    R422413  20.023  19.908   6.153  0.2218 -0.0367  0.1486
    1CHOL    R522414  19.874  19.765   6.085  0.2211  0.0237  0.0162
    1CHOL    C122415  20.110  19.759   5.786  0.4816 -0.0648  0.2177
    1CHOL    C222416  19.997  19.911   5.457 -0.1458  0.0000 -0.0456
    1CHOL   ROH22417  15.128   5.799   6.849  0.0078  0.0033 -0.0792
    1CHOL    R122418  14.919   5.700   6.686 -0.0294 -0.1137  0.0376
    1CHOL    R222419  14.912   5.737   6.412 -0.2870  0.0296  0.0569
    1CHOL    R322420  14.888   5.466   6.409 -0.0219  0.0041 -0.0622
    1CHOL    R422421  14.759   5.556   6.161 -0.1202 -0.0154 -0.0134
    1CHOL    R522422  14.671   5.428   6.314  0.0125 -0.1693 -0.0676
    1CHOL    C122423  14.647   5.196   6.012  0.2258 -0.0656 -0.1661
    1CHOL    C222424  14.424   5.152   5.684  0.0588 -0.2442 -0.0223
    1CHOL   ROH22425   1.546  10.116   5.210 -0.0945 -0.2033  0.1595
    1CHOL    R122426   1.815  10.026   5.219 -0.0440 -0.0865 -0.0652
    1CHOL    R222427   1.883   9.766   5.284  0.1360 -0.0033  0.1192
    1CHOL    R322428   2.016   9.776   5.047 -0.1533 -0.1793 -0.0555
    1CHOL    R422429   2.112   9.531   5.175  0.2186  0.0704  0.1369
    1CHOL    R522430   2.234   9.694   5.098 -0.0181  0.0834 -0.2136
    1CHOL    C122431   2.370   9.404   4.889 -0.0049 -0.0520 -0.0167
    1CHOL    C222432   2.683   9.202   4.697 -0.0432 -0.0109  0.2030
    1CHOL   ROH22433   1.547  17.504   3.340 -0.0401  0.0854  0.0228
    1CHOL    R122434   1.505  17.616   3.596  0.0341  0.1026  0.0277
    1CHOL    R222435   1.405  17.469   3.808 -0.0675  0.1596  0.0195
    1CHOL    R322436   1.629  17.558   3.933 -0.0068  0.0020  0.0262
    1CHOL    R422437   1.485  17.407   4.139 -0.0526 -0.0127 -0.0155
    1CHOL    R522438   1.556  17.612   4.155  0.0484 -0.0522  0.0583
    1CHOL    C122439   1.742  17.455   4.449  0.0131 -0.2612 -0.0296
    1CHOL    C222440   1.884  17.094   4.460 -0.1671 -0.0569  0.3543
    1CHOL   ROH22441  14.472   9.512   4.644  0.2038 -0.2103 -0.0215
    1CHOL    R122442  14.479   9.379   4.894  0.0449 -0.2769 -0.0519
    1CHOL    R222443  14.282   9.410   5.085  0.0709 -0.0983 -0.0552
    1CHOL    R322444  14.272   9.138   5.071 -0.2340 -0.0886 -0.1144
    1CHOL    R422445  14.124   9.207   5.316  0.0960  0.0173  0.0655
    1CHOL    R522446  14.291   9.067   5.299 -0.0651 -0.1616 -0.1484
    1CHOL    C122447  14.023   8.834   5.438 -0.1754  0.0938  0.0802
    1CHOL    C222448  14.208   8.873   5.830 -0.1531 -0.0279  0.2978
    1CHOL   ROH22449  23.247  20.496   3.397 -0.1984  0.1267  0.0945
    1CHOL    R122450  23.418  20.419   3.608 -0.2257  0.0774  0.0980
    1CHOL    R222451  23.693  20.441   3.593 -0.2164 -0.0898  0.0679
    1CHOL    R322452  23.662  20.581   3.824 -0.1085 -0.0153  0.0383
    1CHOL    R422453  23.952  20.557   3.790 -0.1177 -0.0383 -0.0904
    1CHOL    R522454  23.837  20.501   3.966 -0.0430  0.0197 -0.0167
    1CHOL    C122455  24.074  20.757   4.121  0.0410  0.0615 -0.2103
    1CHOL    C222456  24.237  21.006   4.235 -0.3499 -0.3147 -0.0713
    1CHOL   ROH22457  24.483  14.157   3.318  0.2789  0.1860 -0.0143
    1CHOL    R122458  24.609  14.265   3.547  0.1499  0.2257  0.0395
    1CHOL    R222459  24.824  14.439   3.531  0.1913  0.1903  0.1319
    1CHOL    R322460  24.665  14.597   3.685  0.1124  0.2529 -0.0133
    1CHOL    R422461  24.938  14.662   3.769  0.0518  0.0366  0.3456
    1CHOL    R522462  24.773  14.601   3.899 -0.1499  0.1117  0.1237
    1CHOL    C122463  24.856  14.940   4.053 -0.1035  0.0059  0.3338
    1CHOL    C222464  24.684  15.012   4.323 -0.2126  0.0784  0.0424
    1CHOL   ROH22465  10.602   3.343   4.013  0.1578  0.0941 -0.0845
    1CHOL    R122466  10.459   3.233   4.231  0.0126  0.1839 -0.1340
    1CHOL    R222467  10.514   2.982   4.333 -0.2316  0.1186 -0.1647
    1CHOL    R322468  10.537   3.119   4.567 -0.1620  0.0571 -0.1343
    1CHOL    R422469  10.489   2.841   4.648  0.0329 -0.0009 -0.1939
    1CHOL    R522470  10.376   3.016   4.712 -0.0236 -0.0775 -0.0691
    1CHOL    C122471  10.496   2.887   5.051  0.2524 -0.1283 -0.1824
    1CHOL    C222472  10.619   2.860   5.462  0.0032  0.1575  0.0359
    1CHOL   ROH22473  25.389   4.468   3.550  0.0811  0.0755  0.0781
    1CHOL    R122474  25.579   4.472   3.760 -0.0647  0.2847  0.2103
    1CHOL    R222475  25.539   4.613   3.994 -0.5082  0.0245  0.3020
    1CHOL    R322476  25.589   4.372   4.109 -0.1108  0.0200  0.1381
    1CHOL    R422477  25.765   4.559   4.250 -0.4272  0.2271  0.2753
    1CHOL    R522478  25.824   4.373   4.152 -0.1085  0.3863  0.1488
    1CHOL    C122479  25.944   4.301   4.507 -0.0069  0.3407  0.1059
    1CHOL    C222480  25.899   4.484   4.860  0.2000 -0.1734  0.1038
    1CHOL   ROH22481   3.174   4.164   5.543 -0.0923 -0.0525  0.0316
    1CHOL    R122482   3.174   4.072   5.276 -0.0250 -0.0433  0.0281
    1CHOL    R222483   3.249   4.232   5.063 -0.0103 -0.0228  0.0473
    1CHOL    R322484   3.420   4.027   5.011  0.0343  0.0073  0.0749
    1CHOL    R422485   3.349   4.133   4.748  0.1496  0.0650  0.0695
    1CHOL    R522486   3.333   3.926   4.812  0.1393  0.0484  0.0087
    1CHOL    C122487   3.568   3.883   4.515  0.2844  0.1445  0.1083
    1CHOL    C222488   3.576   3.856   4.097 -0.1250  0.0407 -0.1473
    1CHOL   ROH22489  24.443  25.768   6.667 -0.2475 -0.1576 -0.0762
    1CHOL    R122490  24.542  25.759   6.402 -0.2203 -0.0172 -0.0715
    1CHOL    R222491  24.518  25.535   6.241 -0.0626  0.0121 -0.1389
    1CHOL    R322492  24.402  25.711   6.070 -0.1637 -0.0121 -0.0958
    1CHOL    R422493  24.391  25.454   5.930 -0.1125 -0.0010 -0.1154
    1CHOL    R522494  24.474  25.640   5.853 -0.1941  0.0322 -0.1196
    1CHOL    C122495  24.209  25.572   5.588 -0.2364 -0.0314 -0.0613
    1CHOL    C222496  24.189  25.282   5.346 -0.0762  0.2465  0.0859
    1CHOL   ROH22497  23.056   9.487   3.476  0.2478  0.1076 -0.2315
    1CHOL    R122498  23.090   9.591   3.737  0.2406  0.1484 -0.2468
    1CHOL    R222499  23.102   9.430   3.961  0.0380  0.1943 -0.2000
    1CHOL    R322500  23.336   9.562   4.003  0.1288  0.0222 -0.1566
    1CHOL    R422501  23.272   9.437   4.261  0.0064  0.0469 -0.1776
    1CHOL    R522502  23.315   9.648   4.226  0.1634  0.0182 -0.1531
    1CHOL    C122503  23.591   9.565   4.477  0.0733 -0.2006 -0.1238
    1CHOL    C222504  24.015   9.449   4.566 -0.0963 -0.3075 -0.2470
    1CHOL   ROH22505   2.909   0.188   3.314 -0.2485 -0.0861  0.1687
    1CHOL    R122506   3.040   0.112   3.554 -0.1308 -0.2378  0.0584
    1CHOL    R222507   3.157  27.990   3.587  0.0471 -0.1997 -0.2200
    1CHOL    R322508   3.376   0.010   3.650 -0.0351 -0.1116 -0.1402
    1CHOL    R422509   3.397  27.900   3.818  0.1637 -0.2382 -0.3553
    1CHOL    R522510   3.404  28.106   3.886  0.0429 -0.2964 -0.1769
    1CHOL    C122511   3.743  27.985   4.012  0.1545 -0.1780 -0.3592
    1CHOL    C222512   3.951  28.112   4.319 -0.1184 -0.2761  0.1206
    1CHOL   ROH22513  11.734   1.248   3.884 -0.1270  0.2511 -0.1827
    1CHOL    R122514  11.547   1.278   4.095 -0.1668  0.4344 -0.2437
    1CHOL    R222515  11.607   1.214   4.357 -0.4393 -0.0350 -0.2883
    1CHOL    R322516  11.526   1.469   4.403  0.1369  0.1185 -0.0192
    1CHOL    R422517  11.457   1.324   4.648 -0.1740  0.0143 -0.1646
    1CHOL    R522518  11.323   1.445   4.527  0.0827  0.4505 -0.0346
    1CHOL    C122519  11.293   1.627   4.861  0.5215  0.1871  0.1600
    1CHOL    C222520  11.411   1.548   5.274 -0.0307  0.0385  0.2461
    1CHOL   ROH22521  26.634   5.957   5.906 -0.0647  0.1906  0.2802
    1CHOL    R122522  26.397   5.991   5.755 -0.0370  0.1204  0.2204
    1CHOL    R222523  26.355   5.866   5.511  0.0322  0.0536  0.2433
    1CHOL    R322524  26.128   5.778   5.632  0.0176  0.0533  0.2157
    1CHOL    R422525  26.106   5.683   5.357 -0.1343  0.3892  0.1034
    1CHOL    R522526  25.959   5.800   5.466 -0.0258  0.3580  0.2923
    1CHOL    C122527  25.748   5.494   5.381 -0.2449  0.5842 -0.0041
    1CHOL    C222528  25.619   5.416   5.031 -0.0610  0.1119 -0.1825
    1CHOL   ROH22529  25.817  27.324   6.179 -0.1643 -0.0093  0.1090
    1CHOL    R122530  25.672  27.204   5.967 -0.1738  0.1084  0.0483
    1CHOL    R222531  25.657  27.318   5.715  0.0715  0.0950  0.0236
    1CHOL    R322532  25.748  27.074   5.636 -0.1280 -0.0090  0.1047
    1CHOL    R422533  25.603  27.179   5.403 -0.0298  0.0372  0.0660
    1CHOL    R522534  25.572  26.986   5.500 -0.1956  0.0938  0.1262
    1CHOL    C122535  25.658  26.871   5.146 -0.2759 -0.0941  0.1668
    1CHOL    C222536  25.745  26.590   4.981  0.4459  0.0630  0.1160
    1CHOL   ROH22537  12.608  13.478   5.006  0.1812  0.0595  0.1090
    1CHOL    R122538  12.416  13.548   5.201  0.0087 -0.0655 -0.0105
    1CHOL    R222539  12.278  13.359   5.349  0.1554 -0.1593  0.0247
    1CHOL    R322540  12.374  13.502   5.560 -0.0927  0.0594 -0.0083
    1CHOL    R422541  12.138  13.362   5.665 -0.0116 -0.0815 -0.0502
    1CHOL    R522542  12.177  13.577   5.675 -0.2156 -0.0464 -0.1596
    1CHOL    C122543  12.147  13.498   6.047 -0.3418  0.1690 -0.1249
    1CHOL    C222544  11.875  13.653   6.445  0.1784  0.1126 -0.1073
    1CHOL   ROH22545  16.807  12.971   6.839  0.0769  0.1491  0.1778
    1CHOL    R122546  16.823  12.911   6.563 -0.0077  0.1285  0.1789
    1CHOL    R222547  16.758  13.094   6.367  0.1666  0.1870  0.1909
    1CHOL    R322548  17.007  13.036   6.275  0.0980 -0.0697  0.1532
    1CHOL    R422549  16.839  13.043   6.035  0.0998  0.5058  0.1220
    1CHOL    R522550  16.970  12.880   6.097 -0.1397  0.2075 -0.0655
    1CHOL    C122551  17.120  12.960   5.755 -0.0033  0.4504  0.0465
    1CHOL    C222552  16.988  12.838   5.466  0.2808 -0.1992  0.2992
    1CHOL   ROH22553   0.775  10.368   5.469  0.0970 -0.3348  0.0820
    1CHOL    R122554   0.543  10.344   5.308  0.0482 -0.0695  0.1048
    1CHOL    R222555   0.550  10.241   5.052 -0.0693  0.0972  0.0250
    1CHOL    R322556   0.360  10.073   5.149 -0.1587  0.1591 -0.0466
    1CHOL    R422557   0.332  10.057   4.857  0.1091 -0.0324 -0.0538
    1CHOL    R522558   0.174  10.103   5.001 -0.0216  0.0574 -0.2340
    1CHOL    C122559   0.025   9.793   4.835  0.1290 -0.0499 -0.1669
    1CHOL    C222560  27.722   9.755   4.733  0.1149 -0.0620 -0.2828
    1CHOL   ROH22561  26.910   4.116   3.208  0.0329  0.1724  0.1640
    1CHOL    R122562  26.870   4.072   3.484 -0.1563  0.0256  0.1160
    1CHOL    R222563  26.620   4.077   3.602 -0.2533 -0.1730 -0.0723
    1CHOL    R322564  26.692   3.831   3.691 -0.1785 -0.1722 -0.1297
    1CHOL    R422565  26.522   3.940   3.903 -0.2620 -0.3005 -0.1328
    1CHOL    R522566  26.723   3.859   3.927 -0.2373 -0.2309 -0.1155
    1CHOL    C122567  26.532   3.628   4.162 -0.1966 -0.3741 -0.2218
    1CHOL    C222568  26.681   3.353   4.424  0.4278 -0.0881  0.0435
    1CHOL   ROH22569  23.974  15.890   6.366 -0.2525 -0.0100  0.0150
    1CHOL    R122570  23.930  15.835   6.092 -0.0851  0.0187 -0.0160
    1CHOL    R222571  23.865  16.031   5.910 -0.0243  0.0213 -0.0158
    1CHOL    R322572  24.080  15.933   5.775  0.0683  0.0919  0.0738
    1CHOL    R422573  23.908  16.049   5.567  0.1188  0.0896  0.0027
    1CHOL    R522574  23.987  15.846   5.572  0.1713  0.0964  0.0130
    1CHOL    C122575  24.134  15.967   5.241  0.2892  0.1957  0.0975
    1CHOL    C222576  23.933  16.076   4.965  0.3550 -0.0246 -0.2187
    1CHOL   ROH22577   3.706   0.535   6.066 -0.1847  0.0040 -0.0979
    1CHOL    R122578   3.854   0.608   5.837 -0.0961  0.1892  0.0171
    1CHOL    R222579   3.801   0.506   5.586  0.2345  0.1081 -0.0209
    1CHOL    R322580   3.785   0.769   5.518 -0.0522  0.0897 -0.0443
    1CHOL    R422581   3.759   0.624   5.264  0.2608  0.0287 -0.0543
    1CHOL    R522582   3.902   0.783   5.309  0.0478  0.2134  0.0143
    1CHOL    C122583   3.721   0.939   5.012  0.0070 -0.0348 -0.0958
    1CHOL    C222584   3.932   0.984   4.729  0.1025  0.0591  0.0748
    1CHOL   ROH22585  17.634  27.419   6.962 -0.0920  0.0320 -0.1065
    1CHOL    R122586  17.749  27.366   6.709 -0.1055  0.1707 -0.1417
    1CHOL    R222587  17.720  27.122   6.581  0.1795  0.1231 -0.1120
    1CHOL    R322588  17.628  27.277   6.378 -0.0999 -0.0158 -0.0967
    1CHOL    R422589  17.699  27.023   6.250  0.3951  0.1168 -0.1261
    1CHOL    R522590  17.767  27.221   6.191  0.0313  0.2668 -0.0934
    1CHOL    C122591  17.600  27.111   5.867  0.2586 -0.0171 -0.1198
    1CHOL    C222592  17.527  26.783   5.824  0.0229  0.0233 -0.1123
    1CHOL   ROH22593   5.403  26.322   6.268  0.0462  0.3456 -0.0734
    1CHOL    R122594   5.200  26.253   6.082  0.0314  0.1662  0.0068
    1CHOL    R222595   5.168  26.385   5.841 -0.0704  0.0212 -0.0594
    1CHOL    R322596   5.185  26.134   5.739  0.0014 -0.0296  0.0744
    1CHOL    R422597   5.140  26.306   5.506 -0.2364 -0.1823  0.0004
    1CHOL    R522598   5.023  26.131   5.562 -0.1088 -0.2163  0.1739
    1CHOL    C122599   5.139  26.025   5.215 -0.2656 -0.3486  0.1609
    1CHOL    C222600   5.379  26.039   5.019 -0.1417 -0.1975  0.2443
    1CHOL   ROH22601  10.820   7.743   4.075  0.1436 -0.0121 -0.0392
    1CHOL    R122602  10.869   7.688   4.349  0.0303  0.0124 -0.0134
    1CHOL    R222603  10.798   7.863   4.550 -0.0815  0.0171 -0.0553
    1CHOL    R322604  10.669   7.646   4.650 -0.0977  0.0068 -0.0984
    1CHOL    R422605  10.701   7.826   4.880 -0.1206 -0.0256 -0.0716
    1CHOL    R522606  10.762   7.617   4.869 -0.1242 -0.0247 -0.0919
    1CHOL    C122607  10.523   7.600   5.165 -0.1586 -0.0601 -0.1216
    1CHOL    C222608  10.543   7.700   5.424 -0.0781 -0.0151 -0.1447
    1CHOL   ROH22609   6.465  21.500   3.852  0.0988  0.1997 -0.0672
    1CHOL    R122610   6.421  21.548   4.127  0.2211  0.2568 -0.0583
    1CHOL    R222611   6.363  21.799   4.227  0.0885  0.2409 -0.1133
    1CHOL    R322612   6.148  21.672   4.333  0.2447  0.1160  0.0632
    1CHOL    R422613   6.199  21.896   4.515  0.0196  0.4147 -0.2081
    1CHOL    R522614   6.181  21.686   4.570  0.2679  0.4464  0.0518
    1CHOL    C122615   5.901  21.832   4.783  0.1260  0.3986 -0.0976
    1CHOL    C222616   5.819  21.984   5.146 -0.0150  0.1210 -0.0525
    1CHOL   ROH22617  12.221   4.904   4.047 -0.1719  0.1739  0.0445
    1CHOL    R122618  12.203   5.040   4.295  0.0223  0.0659  0.1204
    1CHOL    R222619  12.000   4.993   4.477  0.0270  0.1584  0.1565
    1CHOL    R322620  12.207   4.948   4.647  0.0395 -0.1195  0.0717
    1CHOL    R422621  11.978   4.999   4.822  0.1430 -0.0160  0.1676
    1CHOL    R522622  12.170   5.101   4.828  0.2318 -0.1902  0.1690
    1CHOL    C122623  12.159   4.961   5.183  0.2224 -0.3785  0.0945
    1CHOL    C222624  12.124   4.994   5.462 -0.2203 -0.3512 -0.1108
    1CHOL   ROH22625  24.380   5.643   3.746  0.2093 -0.0929 -0.1371
    1CHOL    R122626  24.441   5.745   4.002  0.2868 -0.0935 -0.1559
    1CHOL    R222627  24.258   5.746   4.209  0.2570  0.1663 -0.1865
    1CHOL    R322628  24.456   5.616   4.342  0.0915 -0.0213 -0.1167
    1CHOL    R422629  24.249   5.663   4.545  0.0984  0.2768 -0.1615
    1CHOL    R522630  24.460   5.718   4.559  0.1668  0.0453 -0.1442
    1CHOL    C122631  24.430   5.492   4.865 -0.1494  0.1649 -0.0814
    1CHOL    C222632  24.596   5.482   5.308  0.1325 -0.1798 -0.0281
    1CHOL   ROH22633  19.045  18.731   7.055  0.0277  0.0056 -0.0095
    1CHOL    R122634  19.091  18.491   6.912  0.2996  0.0759 -0.0473
    1CHOL    R222635  18.891  18.361   6.772  0.3523 -0.3191  0.2246
    1CHOL    R322636  19.066  18.381   6.566  0.0524  0.0094 -0.0098
    1CHOL    R422637  18.904  18.146   6.502  0.0694  0.0210 -0.0700
    1CHOL    R522638  19.121  18.154   6.512  0.0805  0.0990 -0.3718
    1CHOL    C122639  19.076  18.039   6.151 -0.3770  0.5277 -0.4616
    1CHOL    C222640  19.279  17.890   5.743  0.0499 -0.0433 -0.1044
    1CHOL   ROH22641  12.740   1.976   4.102 -0.2310  0.0142 -0.0904
    1CHOL    R122642  12.588   1.884   4.322 -0.3961  0.1986 -0.1246
    1CHOL    R222643  12.704   1.776   4.549 -0.5772 -0.4394 -0.3137
    1CHOL    R322644  12.556   1.967   4.674  0.0553 -0.1254  0.0016
    1CHOL    R422645  12.578   1.749   4.869 -0.6430 -0.5461 -0.3480
    1CHOL    R522646  12.394   1.843   4.800 -0.3591  0.1924 -0.1949
    1CHOL    C122647  12.365   1.912   5.174 -0.0874 -0.3134 -0.0721
    1CHOL    C222648  12.352   1.844   5.523 -0.0544 -0.1768 -0.1945
    1CHOL   ROH22649  26.819  11.955   3.552 -0.3910  0.1615  0.1271
    1CHOL    R122650  26.827  12.134   3.771 -0.3097  0.2042  0.0898
    1CHOL    R222651  27.016  12.334   3.793 -0.0540 -0.0399  0.1748
    1CHOL    R322652  26.797  12.493   3.820  0.1335  0.2619 -0.0196
    1CHOL    R422653  27.004  12.622   3.983  0.1596 -0.0474  0.2017
    1CHOL    R522654  26.804  12.565   4.049  0.0099  0.2183 -0.0012
    1CHOL    C122655  26.792  12.939   4.120  0.4604  0.2315  0.0349
    1CHOL    C222656  26.869  13.161   4.461 -0.3262 -0.0581 -0.2569
    1CHOL   ROH22657  28.057   5.720   5.886 -0.1124  0.2031  0.0619
    1CHOL    R122658  27.908   5.695   5.647 -0.1556  0.2187  0.0877
    1CHOL    R222659  27.879   5.903   5.467 -0.0035  0.1628  0.0011
    1CHOL    R322660  27.974   5.720   5.290 -0.1701  0.0072  0.0680
    1CHOL    R422661  27.809   5.901   5.129  0.1224  0.2082 -0.0261
    1CHOL    R522662  27.792   5.684   5.139 -0.1659  0.2237  0.0032
    1CHOL    C122663  27.857   5.728   4.765  0.0393  0.0886  0.0208
    1CHOL    C222664  27.693   5.968   4.629 -0.1192  0.3533 -0.0732
    1CHOL   ROH22665  15.336  19.778   6.579 -0.1782  0.0311 -0.1375
    1CHOL    R122666  15.341  19.717   6.303 -0.1076 -0.1622 -0.0951
    1CHOL    R222667  15.490  19.863   6.121 -0.3368 -0.0656 -0.2090
    1CHOL    R322668  15.592  19.619   6.059  0.0275  0.0359 -0.0388
    1CHOL    R422669  15.634  19.780   5.818 -0.3098 -0.0904 -0.1895
    1CHOL    R522670  15.534  19.587   5.828 -0.0052 -0.2456  0.0044
    1CHOL    C122671  15.814  19.503   5.583  0.0480 -0.0098 -0.0184
    1CHOL    C222672  16.025  19.289   5.245  0.1058 -0.1488 -0.2069
    1CHOL   ROH22673   6.783   1.586   3.078 -0.0493 -0.1446  0.1574
    1CHOL    R122674   6.697   1.811   3.227  0.0420 -0.0391  0.0536
    1CHOL    R222675   6.430   1.867   3.271  0.0649  0.0773  0.0480
    1CHOL    R322676   6.506   1.868   3.532  0.0861  0.1798  0.0415
    1CHOL    R422677   6.238   1.986   3.532 -0.0165 -0.0457  0.0447
    1CHOL    R522678   6.418   2.073   3.618 -0.0811  0.1199  0.0176
    1CHOL    C122679   6.197   2.057   3.929 -0.0439 -0.0212  0.0367
    1CHOL    C222680   6.220   2.305   4.215 -0.1007 -0.0895 -0.1439
    1CHOL   ROH22681   1.350   9.012   3.326 -0.2322  0.3407  0.0621
    1CHOL    R122682   1.378   8.981   3.606 -0.1799  0.2403  0.0463
    1CHOL    R222683   1.410   9.196   3.777 -0.1630  0.1808  0.1190
    1CHOL    R322684   1.195   9.086   3.903 -0.1337  0.1210  0.1173
    1CHOL    R422685   1.365   9.184   4.120 -0.1572  0.1500  0.1190
    1CHOL    R522686   1.287   8.982   4.098 -0.1070  0.1329  0.1100
    1CHOL    C122687   1.138   9.074   4.437 -0.1264  0.0760  0.1174
    1CHOL    C222688   1.378   9.136   4.756  0.4100 -0.0374 -0.0514
    1CHOL   ROH22689   7.537   5.727   5.876  0.1400 -0.3384 -0.0877
    1CHOL    R122690   7.704   5.798   5.659  0.0979 -0.1792 -0.0703
    1CHOL    R222691   7.695   5.667   5.415  0.1315 -0.0783 -0.1291
    1CHOL    R322692   7.658   5.918   5.318  0.0256 -0.0494 -0.0145
    1CHOL    R422693   7.814   5.781   5.111  0.1950  0.1511 -0.0199
    1CHOL    R522694   7.864   5.970   5.207  0.0421  0.1311  0.0992
    1CHOL    C122695   7.848   6.083   4.843  0.1324  0.3118  0.1513
    1CHOL    C222696   7.899   6.335   4.554  0.2327 -0.1283  0.4905
    1CHOL   ROH22697  22.655   3.326   3.471  0.0952 -0.0624  0.0377
    1CHOL    R122698  22.688   3.138   3.680 -0.0581 -0.1017  0.0272
    1CHOL    R222699  22.565   3.166   3.926 -0.0580 -0.0296  0.0179
    1CHOL    R322700  22.473   2.916   3.872 -0.2355  0.0391 -0.0056
    1CHOL    R422701  22.483   2.930   4.165  0.1252 -0.1170 -0.0043
    1CHOL    R522702  22.575   2.778   4.039 -0.0928 -0.0947 -0.1989
    1CHOL    C122703  22.350   2.558   4.254  0.0652 -0.1035 -0.0394
    1CHOL    C222704  22.506   2.274   4.539 -0.1140 -0.2096 -0.1054
    1CHOL   ROH22705   8.149  16.746   4.091 -0.1682 -0.2180  0.0548
    1CHOL    R122706   8.255  16.877   4.318 -0.2878 -0.0689  0.0222
    1CHOL    R222707   8.104  16.935   4.541 -0.2885 -0.3372  0.0730
    1CHOL    R322708   8.302  16.801   4.671 -0.0168 -0.0236  0.0036
    1CHOL    R422709   8.156  16.943   4.883 -0.5618 -0.6655  0.1298
    1CHOL    R522710   8.371  16.951   4.844 -0.5239 -0.0556  0.2693
    1CHOL    C122711   8.371  16.821   5.203 -0.4661 -0.5622  0.0978
    1CHOL    C222712   8.498  17.091   5.474  0.0223  0.2477 -0.0224
    1CHOL   ROH22713  19.342  16.798   6.684 -0.0179  0.1594 -0.2266
    1CHOL    R122714  19.497  16.740   6.454  0.0671  0.0566 -0.1459
    1CHOL    R222715  19.697  16.550   6.452 -0.0493 -0.0763 -0.0381
    1CHOL    R322716  19.557  16.451   6.241 -0.0091  0.0129 -0.1055
    1CHOL    R422717  19.819  16.322   6.222 -0.0500 -0.0529 -0.0608
    1CHOL    R522718  19.718  16.434   6.065  0.0325  0.0091 -0.0605
    1CHOL    C122719  19.758  16.098   5.890 -0.0127  0.0445 -0.1373
    1CHOL    C222720  19.842  16.087   5.555  0.0172  0.0367  0.1863
    1CHOL   ROH22721  22.482  10.748   5.723  0.1285 -0.2481  0.1926
    1CHOL    R122722  22.693  10.653   5.561  0.0959 -0.0764  0.0442
    1CHOL    R222723  22.846  10.433   5.629  0.2991  0.0134 -0.0817
    1CHOL    R322724  22.772  10.346   5.382  0.1953  0.0032 -0.0459
    1CHOL    R422725  23.016  10.196   5.443  0.2122  0.0104 -0.1564
    1CHOL    R522726  22.979  10.316   5.265  0.1357 -0.0016 -0.1383
    1CHOL    C122727  23.046   9.977   5.103  0.0639 -0.0008 -0.1662
    1CHOL    C222728  23.196   9.602   4.901  0.1146 -0.2597  0.3666
    1CHOL   ROH22729   9.006   9.542   6.643 -0.0021  0.2021 -0.0585
    1CHOL    R122730   9.191   9.384   6.499 -0.1660  0.0162 -0.0693
    1CHOL    R222731   9.152   9.312   6.235 -0.1780  0.1897 -0.1156
    1CHOL    R322732   9.399   9.423   6.203 -0.0134 -0.1244  0.0172
    1CHOL    R422733   9.387   9.207   6.004 -0.2808  0.0398 -0.1534
    1CHOL    R522734   9.542   9.237   6.156 -0.2620 -0.2918 -0.0997
    1CHOL    C122735   9.755   9.250   5.840 -0.1860 -0.3425 -0.0507
    1CHOL    C222736   9.983   9.177   5.518  0.0458 -0.0816  0.4241
    1CHOL   ROH22737   9.952  24.021   3.623  0.1774 -0.1400 -0.0749
    1CHOL    R122738   9.748  24.041   3.819 -0.0040 -0.0339 -0.2692
    1CHOL    R222739   9.802  24.035   4.090 -0.2944 -0.3702 -0.2095
    1CHOL    R322740   9.664  24.270   4.090  0.0464 -0.1646 -0.1429
    1CHOL    R422741   9.686  24.196   4.373 -0.1403 -0.3252 -0.1718
    1CHOL    R522742   9.503  24.244   4.265 -0.0425 -0.0069 -0.2024
    1CHOL    C122743   9.489  24.510   4.538  0.2693 -0.1055 -0.0875
    1CHOL    C222744   9.525  24.865   4.618 -0.1613  0.2839 -0.0085
    1CHOL   ROH22745  20.302  27.363   6.551 -0.1382 -0.1988 -0.1621
    1CHOL    R122746  20.489  27.336   6.340 -0.1667 -0.2104 -0.1864
    1CHOL    R222747  20.413  27.322   6.075 -0.1858  0.1224 -0.2043
    1CHOL    R322748  20.586  27.530   6.048  0.0471 -0.0407 -0.0061
    1CHOL    R422749  20.561  27.418   5.778 -0.0351  0.2093 -0.1022
    1CHOL    R522750  20.746  27.453   5.887 -0.0120 -0.0827 -0.0435
    1CHOL    C122751  20.810  27.669   5.579  0.2712  0.1067  0.1434
    1CHOL    C222752  20.729  27.535   5.242 -0.0752 -0.2717 -0.0245
    1CHOL   ROH22753   4.975  26.877   3.525 -0.2201 -0.1224 -0.0890
    1CHOL    R122754   4.814  26.850   3.757 -0.1501 -0.0061 -0.0284
    1CHOL    R222755   4.894  26.703   3.977 -0.1398  0.0031 -0.0361
    1CHOL    R322756   4.843  26.935   4.109  0.0072  0.0474 -0.0512
    1CHOL    R422757   4.821  26.727   4.314 -0.0148  0.0747 -0.0115
    1CHOL    R522758   4.671  26.878   4.266  0.0303  0.1384  0.0162
    1CHOL    C122759   4.730  26.958   4.634  0.1960  0.1581 -0.0114
    1CHOL    C222760   4.925  26.837   4.960 -0.0513 -0.1602  0.3311
    1CHOL   ROH22761  20.466   3.208   6.246  0.0498  0.0295 -0.1331
    1CHOL    R122762  20.321   2.973   6.181  0.0377  0.0172 -0.0620
    1CHOL    R222763  20.190   2.941   5.940 -0.0529 -0.0059 -0.0091
    1CHOL    R322764  20.339   2.713   5.927 -0.0465  0.0006 -0.0515
    1CHOL    R422765  20.136   2.683   5.717 -0.0085  0.0635 -0.1007
    1CHOL    R522766  20.179   2.541   5.877 -0.0363  0.0135 -0.1350
    1CHOL    C122767  20.244   2.319   5.574  0.0232  0.1100 -0.1938
    1CHOL    C222768  20.052   1.957   5.564  0.0281  0.1176  0.1081
    1CHOL   ROH22769   0.493   7.823   5.998 -0.0505 -0.1686 -0.0330
    1CHOL    R122770   0.404   7.949   5.761 -0.0449 -0.1455 -0.0232
    1CHOL    R222771   0.564   7.977   5.537 -0.0121 -0.0498  0.0116
    1CHOL    R322772   0.356   7.855   5.412  0.0483 -0.0864 -0.0526
    1CHOL    R422773   0.486   8.015   5.203  0.0274  0.0180  0.0102
    1CHOL    R522774   0.275   8.019   5.258  0.0164 -0.0695 -0.0190
    1CHOL    C122775   0.245   7.921   4.891  0.1071  0.0232 -0.0509
    1CHOL    C222776   0.274   7.618   4.619  0.1120  0.1891  0.0111
    1CHOL   ROH22777  26.437   1.446   6.423 -0.1662  0.1826  0.0391
    1CHOL    R122778  26.260   1.548   6.227 -0.2359 -0.1066 -0.0529
    1CHOL    R222779  26.325   1.764   6.067 -0.5593  0.0987  0.0901
    1CHOL    R322780  26.262   1.592   5.866 -0.0475  0.0441 -0.0368
    1CHOL    R422781  26.223   1.858   5.750 -0.5272  0.0324  0.0594
    1CHOL    R522782  26.078   1.696   5.754 -0.1957 -0.2885 -0.1213
    1CHOL    C122783  26.106   1.752   5.377 -0.0284 -0.0574 -0.0776
    1CHOL    C222784  26.095   1.828   5.059 -0.3004 -0.0822  0.2249
    1CHOL   ROH22785  28.111   3.437   5.653 -0.1105  0.1303 -0.0008
    1CHOL    R122786  28.095   3.307   5.402 -0.0668  0.2183 -0.0493
    1CHOL    R222787  28.036   3.039   5.378  0.1068  0.1894 -0.1444
    1CHOL    R322788  27.840   3.129   5.212  0.0181  0.1241 -0.0768
    1CHOL    R422789  27.834   2.837   5.182  0.2209  0.1269 -0.1992
    1CHOL    R522790  27.852   2.984   5.022  0.0948  0.2107 -0.1412
    1CHOL    C122791  27.533   2.806   4.913  0.2037  0.0292 -0.1678
    1CHOL    C222792  27.479   2.597   4.608  0.3458 -0.0848  0.1827
    1CHOL   ROH22793   2.065   3.166   2.949 -0.2076 -0.2786  0.1739
    1CHOL    R122794   1.953   3.359   3.124 -0.0571 -0.1228  0.1022
    1CHOL    R222795   2.008   3.364   3.395 -0.1097 -0.1099  0.1135
    1CHOL    R322796   2.078   3.622   3.342  0.1560 -0.1892  0.0627
    1CHOL    R422797   2.071   3.604   3.635 -0.0394 -0.0826  0.0675
    1CHOL    R522798   1.965   3.749   3.511  0.1659 -0.0277 -0.0499
    1CHOL    C122799   2.173   3.986   3.726  0.2509 -0.1411 -0.0071
    1CHOL    C222800   2.463   4.334   3.879  0.0554  0.1942  0.0547
    1CHOL   ROH22801  20.170  25.495   6.552 -0.1924 -0.0817 -0.0924
    1CHOL    R122802  20.329  25.356   6.364 -0.1019 -0.0268 -0.0549
    1CHOL    R222803  20.233  25.274   6.118 -0.0127 -0.0478 -0.0777
    1CHOL    R322804  20.447  25.413   6.024 -0.0292  0.0167 -0.0241
    1CHOL    R422805  20.336  25.278   5.788  0.0610 -0.0171 -0.0555
    1CHOL    R522806  20.542  25.269   5.858  0.0513  0.0417 -0.0045
    1CHOL    C122807  20.597  25.411   5.508  0.0888  0.0616  0.0078
    1CHOL    C222808  20.756  25.288   5.308  0.1646  0.1197 -0.0272
    1CHOL   ROH22809  14.366  27.980   6.524 -0.0277 -0.2103  0.1566
    1CHOL    R122810  14.521   0.010   6.347 -0.1844  0.0230  0.2218
    1CHOL    R222811  14.688  28.026   6.156  0.0449  0.2681  0.2722
    1CHOL    R322812  14.545   0.056   5.986 -0.1223  0.0784  0.2330
    1CHOL    R422813  14.825   0.118   5.927 -0.1861  0.3584  0.2173
    1CHOL    R522814  14.669   0.261   5.977 -0.3366  0.2079  0.1816
    1CHOL    C122815  14.771   0.393   5.634 -0.4773  0.2330  0.1486
    1CHOL    C222816  15.007   0.305   5.210  0.0921  0.0051 -0.0350
    1CHOL   ROH22817   8.627   5.158   3.585  0.1384  0.0514  0.0633
    1CHOL    R122818   8.662   5.272   3.842  0.1470 -0.0807  0.1209
    1CHOL    R222819   8.453   5.302   4.020  0.1203 -0.0175  0.0767
    1CHOL    R322820   8.618   5.164   4.187 -0.0155 -0.1984  0.0651
    1CHOL    R422821   8.408   5.272   4.362  0.0453 -0.0702  0.0629
    1CHOL    R522822   8.624   5.296   4.387  0.0641 -0.2538  0.1008
    1CHOL    C122823   8.537   5.125   4.717 -0.1259 -0.2709  0.0438
    1CHOL    C222824   8.654   4.902   5.001 -0.1699 -0.1521  0.1447
    1CHOL   ROH22825   6.379  27.693   5.951 -0.2051 -0.2381 -0.0606
    1CHOL    R122826   6.538  27.664   5.718 -0.2014 -0.1467 -0.0685
    1CHOL    R222827   6.431  27.592   5.473 -0.2157  0.0680 -0.1245
    1CHOL    R322828   6.554  27.819   5.389 -0.1094  0.0734  0.0368
    1CHOL    R422829   6.632  27.615   5.193 -0.2375  0.1812 -0.1322
    1CHOL    R522830   6.766  27.745   5.306 -0.1557  0.0270 -0.0457
    1CHOL    C122831   6.864  27.842   4.950 -0.1504  0.2521  0.0148
    1CHOL    C222832   7.125  28.031   4.793  0.1621 -0.3387 -0.0094
    1CHOL   ROH22833  10.566   7.379   6.996 -0.0502  0.1458  0.0611
    1CHOL    R122834  10.529   7.335   6.719 -0.0877  0.0944  0.0740
    1CHOL    R222835  10.437   7.532   6.548  0.0615  0.1179  0.0178
    1CHOL    R322836  10.663   7.471   6.409  0.0151 -0.0974  0.0333
    1CHOL    R422837  10.508   7.641   6.228  0.2904  0.2352  0.1060
    1CHOL    R522838  10.588   7.444   6.183  0.0325  0.1533 -0.0038
    1CHOL    C122839  10.761   7.648   5.911  0.3801  0.1013  0.1720
    1CHOL    C222840  10.988   7.550   5.598 -0.1414 -0.0902 -0.2711
    1CHOL   ROH22841  27.749  22.312   5.857  0.2322 -0.0363  0.0882
    1CHOL    R122842  27.761  22.222   5.589  0.1452 -0.0163  0.0778
    1CHOL    R222843  27.552  22.256   5.412  0.0728 -0.0401  0.1611
    1CHOL    R322844  27.743  22.373   5.259 -0.0066  0.0019  0.0927
    1CHOL    R422845  27.516  22.332   5.077 -0.0654 -0.0558  0.1714
    1CHOL    R522846  27.722  22.265   5.045 -0.0579 -0.0096  0.1013
    1CHOL    C122847  27.676  22.486   4.737 -0.2205 -0.0254  0.1131
    1CHOL    C222848  27.559  22.800   4.586 -0.0490  0.1863 -0.0073
    1CHOL   ROH22849  26.480  20.903   3.272  0.1952  0.1805  0.0531
    1CHOL    R122850  26.406  20.992   3.531 -0.0380  0.1139  0.0118
    1CHOL    R222851  26.183  20.896   3.663  0.0158 -0.1530 -0.0847
    1CHOL    R322852  26.363  20.842   3.860 -0.0056  0.0882  0.0046
    1CHOL    R422853  26.102  20.803   3.986 -0.0244 -0.3233 -0.1431
    1CHOL    R522854  26.263  20.930   4.058 -0.2501 -0.0878 -0.0351
    1CHOL    C122855  26.224  20.698   4.358 -0.0676 -0.1957 -0.0932
    1CHOL    C222856  26.149  20.585   4.660  0.0464  0.0458 -0.2658
    1CHOL   ROH22857   5.947   1.668   6.186  0.1393 -0.2486 -0.1581
    1CHOL    R122858   5.961   1.751   5.915 -0.0019 -0.2102 -0.1540
    1CHOL    R222859   6.158   1.661   5.742  0.0603  0.0149 -0.1974
    1CHOL    R322860   5.945   1.590   5.589  0.1062 -0.2008 -0.1658
    1CHOL    R422861   6.169   1.602   5.402  0.0412  0.2315 -0.2372
    1CHOL    R522862   5.979   1.706   5.382 -0.1209 -0.0242 -0.1124
    1CHOL    C122863   5.976   1.502   5.060  0.0731  0.1550 -0.2306
    1CHOL    C222864   5.799   1.615   4.761 -0.2792  0.0118  0.1370
    1CHOL   ROH22865  13.657  12.043   5.036  0.1317  0.0848 -0.1509
    1CHOL    R122866  13.613  12.198   5.268  0.1921  0.2111 -0.2239
    1CHOL    R222867  13.703  12.121   5.518 -0.0287  0.1807 -0.1549
    1CHOL    R322868  13.819  12.367   5.516  0.2640  0.0490 -0.1703
    1CHOL    R422869  13.812  12.290   5.799 -0.0406  0.1639 -0.1390
    1CHOL    R522870  13.733  12.474   5.713  0.2375  0.2279 -0.2743
    1CHOL    C122871  13.984  12.619   5.961  0.2271  0.0305 -0.1440
    1CHOL    C222872  14.018  12.600   6.305  0.1158  0.0036 -0.0775
    1CHOL   ROH22873   0.017   6.787   6.017  0.0064  0.1131  0.0195
    1CHOL    R122874  28.054   6.686   5.768 -0.0151  0.0576  0.0519
    1CHOL    R222875  27.848   6.803   5.626  0.0125  0.0522  0.0250
    1CHOL    R322876  28.032   6.807   5.426  0.0030 -0.0447  0.0115
    1CHOL    R422877  27.772   6.788   5.289 -0.0474  0.2731  0.0253
    1CHOL    R522878  27.944   6.655   5.262 -0.1731  0.1058 -0.0465
    1CHOL    C122879  27.901   6.782   4.905 -0.0911  0.3108  0.0128
    1CHOL    C222880  27.577   6.890   4.598  0.0429  0.0644  0.2864
    1CHOL   ROH22881  23.993  18.095   4.271  0.1453  0.0684  0.0313
    1CHOL    R122882  23.950  18.095   4.551  0.0933  0.0728  0.0242
    1CHOL    R222883  24.131  17.986   4.730 -0.0239 -0.0943  0.0495
    1CHOL    R322884  24.117  18.232   4.844  0.1527 -0.0918  0.0672
    1CHOL    R422885  24.127  18.046   5.070 -0.1287 -0.1195  0.0523
    1CHOL    R522886  23.977  18.201   5.036  0.0338  0.0225 -0.0029
    1CHOL    C122887  24.111  18.312   5.375 -0.0240 -0.1320  0.0705
    1CHOL    C222888  24.354  18.557   5.572  0.1515  0.0115  0.0972
    1CHOL   ROH22889  10.000   0.509   6.365 -0.1137  0.0439  0.1156
    1CHOL    R122890   9.924   0.648   6.130 -0.0464  0.1058  0.1296
    1CHOL    R222891   9.951   0.539   5.878 -0.1391  0.1007  0.1206
    1CHOL    R322892   9.686   0.597   5.859 -0.1042  0.2717  0.1483
    1CHOL    R422893   9.798   0.674   5.599 -0.0839  0.1826  0.1299
    1CHOL    R522894   9.679   0.799   5.731  0.0127  0.2690  0.1360
    1CHOL    C122895   9.460   0.807   5.419 -0.0191  0.3908  0.1613
    1CHOL    C222896   9.530   0.895   4.985 -0.0636  0.2584  0.1640
    1CHOL   ROH22897  24.018   0.638   6.377  0.0257 -0.1385  0.0405
    1CHOL    R122898  23.860   0.815   6.224 -0.0421 -0.0764  0.1809
    1CHOL    R222899  23.884   0.837   5.949  0.0362  0.2365  0.2111
    1CHOL    R322900  23.617   0.788   5.954  0.0647  0.0525  0.0683
    1CHOL    R422901  23.676   0.856   5.674  0.0957  0.5856  0.1861
    1CHOL    R522902  23.525   0.949   5.802  0.0017  0.2693  0.3228
    1CHOL    C122903  23.304   0.822   5.519  0.1571  0.6163  0.0374
    1CHOL    C222904  22.976   1.026   5.433  0.1042 -0.0430  0.0893
    1CHOL   ROH22905  11.551   9.498   7.041 -0.0977  0.1399 -0.0455
    1CHOL    R122906  11.537   9.533   6.761  0.2629  0.2420 -0.0557
    1CHOL    R222907  11.746   9.469   6.592  0.3030 -0.1865  0.1428
    1CHOL    R322908  11.557   9.320   6.466  0.0852  0.2590 -0.0806
    1CHOL    R422909  11.798   9.289   6.302  0.3297 -0.5749  0.3803
    1CHOL    R522910  11.601   9.353   6.233  0.6221 -0.0442 -0.0371
    1CHOL    C122911  11.651   9.045   6.014  0.1409 -0.3828  0.3088
    1CHOL    C222912  11.477   9.031   5.707 -0.1027 -0.3211  0.2618
    1CHOL   ROH22913   2.265   8.410   4.198 -0.0531 -0.0030  0.0931
    1CHOL    R122914   2.203   8.631   4.364 -0.1102 -0.0403  0.1198
    1CHOL    R222915   2.121   8.602   4.626  0.1907 -0.0866  0.2088
    1CHOL    R322916   2.328   8.771   4.676  0.0712  0.1404 -0.0298
    1CHOL    R422917   2.156   8.792   4.912  0.3132 -0.0506  0.1721
    1CHOL    R522918   2.227   8.956   4.788 -0.0056  0.0326  0.0857
    1CHOL    C122919   2.371   9.061   5.126  0.2723  0.1836 -0.0732
    1CHOL    C222920   2.298   9.215   5.518 -0.2831 -0.0048  0.1055
    1CHOL   ROH22921   1.475  12.882   5.840  0.0115  0.1581 -0.0131
    1CHOL    R122922   1.346  12.769   5.615 -0.0289  0.0034  0.0869
    1CHOL    R222923   1.071  12.747   5.597 -0.0349  0.1048  0.1013
    1CHOL    R322924   1.107  12.881   5.364  0.0265 -0.1289 -0.0276
    1CHOL    R422925   0.860  12.728   5.324 -0.1904  0.1318  0.2170
    1CHOL    R522926   1.036  12.727   5.195 -0.2431 -0.1902  0.1309
    1CHOL    C122927   0.772  12.843   4.945 -0.2232 -0.0718  0.1633
    1CHOL    C222928   0.748  12.809   4.546 -0.0418  0.2382  0.0825
    1CHOL   ROH22929  25.230  23.684   6.244 -0.1477  0.0400  0.0280
    1CHOL    R122930  25.251  23.779   5.978 -0.0371 -0.0327  0.0095
    1CHOL    R222931  25.091  23.981   5.879 -0.1185 -0.1745 -0.1667
    1CHOL    R322932  25.329  24.096   5.817 -0.1535 -0.0295 -0.0372
    1CHOL    R422933  25.138  24.213   5.628 -0.1390 -0.0191 -0.0283
    1CHOL    R522934  25.325  24.114   5.578 -0.0833  0.0977 -0.0247
    1CHOL    C122935  25.389  24.457   5.423 -0.1836  0.2074  0.1739
    1CHOL    C222936  25.286  24.603   4.992  0.1390 -0.0257 -0.1661
    1CHOL   ROH22937  11.196  18.340   6.999  0.1331  0.2841 -0.0388
    1CHOL    R122938  11.328  18.277   6.757  0.0679 -0.1217  0.0225
    1CHOL    R222939  11.318  18.026   6.642 -0.5859 -0.1306  0.0564
    1CHOL    R322940  11.232  18.163   6.425 -0.1218  0.0932  0.0023
    1CHOL    R422941  11.341  17.914   6.316 -0.5035 -0.1033  0.0533
    1CHOL    R522942  11.395  18.117   6.256 -0.0519 -0.1869  0.1423
    1CHOL    C122943  11.273  17.979   5.922 -0.0200  0.1227  0.0008
    1CHOL    C222944  11.421  17.847   5.582  0.0113 -0.3872  0.1433
    1CHOL   ROH22945  18.271  18.454   4.530  0.2769 -0.0625 -0.2108
    1CHOL    R122946  18.342  18.309   4.763  0.0781  0.0647 -0.0677
    1CHOL    R222947  18.572  18.157   4.779 -0.0892 -0.1762  0.1052
    1CHOL    R322948  18.617  18.308   5.001  0.0390 -0.0268 -0.0211
    1CHOL    R422949  18.716  18.042   5.071 -0.1187 -0.0426  0.1728
    1CHOL    R522950  18.573  18.161   5.184 -0.0296  0.1409  0.1028
    1CHOL    C122951  18.843  18.117   5.449 -0.0155  0.1749  0.0936
    1CHOL    C222952  18.728  18.076   5.837  0.0053  0.0341  0.1736
    1CHOL   ROH22953   5.962  15.808   4.071  0.1115 -0.2226 -0.1691
    1CHOL    R122954   5.968  15.797   4.354  0.1544 -0.2450 -0.1705
    1CHOL    R222955   6.195  15.855   4.501  0.1223 -0.0567 -0.1911
    1CHOL    R322956   6.030  16.030   4.627 -0.0208 -0.2145 -0.1561
    1CHOL    R422957   6.262  16.004   4.805 -0.0170 -0.0920 -0.1426
    1CHOL    R522958   6.052  15.975   4.859 -0.0017 -0.2635 -0.1695
    1CHOL    C122959   6.146  16.256   5.101 -0.2324 -0.2605 -0.0815
    1CHOL    C222960   6.142  16.379   5.408  0.0311 -0.3357 -0.3332
    1CHOL   ROH22961   2.273  26.518   3.153 -0.0203 -0.0181 -0.0858
    1CHOL    R122962   2.279  26.424   3.420  0.0687 -0.1121 -0.1210
    1CHOL    R222963   2.483  26.266   3.518  0.3065  0.1848 -0.1373
    1CHOL    R322964   2.498  26.460   3.708 -0.0549  0.1395 -0.0528
    1CHOL    R422965   2.572  26.213   3.847  0.4120  0.1980 -0.1625
    1CHOL    R522966   2.417  26.354   3.907  0.1381 -0.1090 -0.0960
    1CHOL    C122967   2.638  26.364   4.218  0.1342  0.1628 -0.0979
    1CHOL    C222968   2.879  26.372   4.537  0.3937  0.1592  0.0982
    1CHOL   ROH22969   1.949   2.035   5.708  0.0935 -0.0933  0.0995
    1CHOL    R122970   1.887   1.790   5.580 -0.0726 -0.0011  0.0012
    1CHOL    R222971   1.832   1.773   5.310  0.1354  0.1142 -0.0478
    1CHOL    R322972   2.030   1.587   5.314 -0.0738 -0.1108  0.0829
    1CHOL    R422973   1.883   1.535   5.065  0.1089  0.1505 -0.0891
    1CHOL    R522974   1.928   1.390   5.222 -0.2090  0.0361 -0.0937
    1CHOL    C122975   2.099   1.221   4.926 -0.1029 -0.0396  0.0095
    1CHOL    C222976   2.111   0.864   4.687  0.1466 -0.1626 -0.1460
    1CHOL   ROH22977  11.809  13.977   4.575  0.1193  0.0291  0.2491
    1CHOL    R122978  11.686  14.119   4.787  0.0753  0.1678  0.1319
    1CHOL    R222979  11.607  13.997   5.022 -0.2168  0.2698  0.0882
    1CHOL    R322980  11.760  14.190   5.136 -0.1376  0.1533  0.1825
    1CHOL    R422981  11.601  14.080   5.357 -0.2169  0.1337  0.1230
    1CHOL    R522982  11.617  14.290   5.300 -0.1125  0.1534  0.2080
    1CHOL    C122983  11.742  14.310   5.660 -0.1426 -0.0551  0.2317
    1CHOL    C222984  11.634  14.231   6.010 -0.2469  0.0270  0.4190
    1CHOL   ROH22985   4.611  28.118   2.939 -0.0583 -0.0524  0.2206
    1CHOL    R122986   4.746   0.042   3.182 -0.1382 -0.1157  0.2798
    1CHOL    R222987   4.819   0.296   3.261  0.2476 -0.1751  0.1507
    1CHOL    R322988   4.681   0.231   3.486 -0.0321  0.2148  0.0999
    1CHOL    R422989   4.897   0.407   3.579  0.3359 -0.2602  0.1586
    1CHOL    R522990   4.850   0.208   3.655 -0.1741 -0.1329  0.1975
    1CHOL    C122991   4.812   0.411   3.976  0.1247  0.0563  0.1155
    1CHOL    C222992   5.174   0.568   3.974 -0.0477 -0.1465  0.1442
    1CHOL   ROH22993  14.270   5.752   6.975 -0.1256 -0.2180  0.0334
    1CHOL    R122994  14.227   5.826   6.705 -0.0831 -0.0704  0.0676
    1CHOL    R222995  14.432   5.914   6.541 -0.0457 -0.0608  0.1273
    1CHOL    R322996  14.342   5.715   6.379 -0.1032  0.0520  0.0164
    1CHOL    R422997  14.472   5.906   6.198  0.1790  0.0034  0.1494
    1CHOL    R522998  14.269   5.827   6.181  0.1191  0.1711 -0.0059
    1CHOL    C122999  14.411   5.714   5.846  0.2559  0.1467  0.0583
    1CHOL    C223000  14.332   5.693   5.475 -0.1513  0.1768  0.0131
    1CHOL   ROH23001  26.843  16.860   5.960 -0.0663  0.0041 -0.2844
    1CHOL    R123002  26.649  16.817   5.758 -0.0442 -0.0653 -0.2907
    1CHOL    R223003  26.582  17.011   5.573 -0.2398 -0.0250 -0.1791
    1CHOL    R323004  26.644  16.816   5.394 -0.0731  0.1276 -0.2925
    1CHOL    R423005  26.410  16.950   5.279 -0.2384 -0.0497 -0.1750
    1CHOL    R523006  26.432  16.737   5.317 -0.0106 -0.0512 -0.2881
    1CHOL    C123007  26.368  16.731   4.941 -0.0809  0.0795 -0.2790
    1CHOL    C223008  26.264  16.506   4.728 -0.0484  0.0134  0.0291
    1CHOL   ROH23009  10.618  13.243   4.603  0.0640 -0.0324  0.0285
    1CHOL    R123010  10.702  13.172   4.864  0.0960  0.0147  0.0294
    1CHOL    R223011  10.770  13.360   5.054 -0.0296  0.0503  0.0302
    1CHOL    R323012  10.584  13.230   5.204  0.0480 -0.0663  0.0287
    1CHOL    R423013  10.687  13.441   5.380 -0.2492  0.1639 -0.0501
    1CHOL    R523014  10.677  13.228   5.424 -0.0332  0.1706  0.0732
    1CHOL    C123015  10.465  13.366   5.710 -0.3043  0.1206 -0.0981
    1CHOL    C223016  10.524  13.706   5.832  0.1045 -0.0313  0.0444
    1CHOL   ROH23017  26.937   6.332   4.111 -0.0725 -0.0094 -0.3215
    1CHOL    R123018  27.159   6.484   4.025 -0.0004  0.0228 -0.0889
    1CHOL    R223019  27.392   6.506   4.173  0.0056 -0.2951 -0.0403
    1CHOL    R323020  27.508   6.420   3.942 -0.0257 -0.0139 -0.1646
    1CHOL    R423021  27.718   6.573   4.078 -0.0450 -0.0790 -0.0672
    1CHOL    R523022  27.647   6.602   3.874 -0.1117  0.1076 -0.0170
    1CHOL    C123023  28.016   6.530   3.808 -0.1040  0.3108 -0.1995
    1CHOL    C223024   0.159   6.677   3.839 -0.3150 -0.2035 -0.2621
    1CHOL   ROH23025  20.852  20.746   4.269 -0.0673  0.1524  0.1692
    1CHOL    R123026  20.904  20.648   4.529  0.0581 -0.1348  0.0399
    1CHOL    R223027  21.134  20.507   4.591  0.3357  0.2242 -0.1180
    1CHOL    R323028  21.160  20.697   4.783 -0.1022  0.0057  0.1742
    1CHOL    R423029  21.315  20.469   4.883  0.3685  0.1835 -0.1435
    1CHOL    R523030  21.156  20.574   4.989  0.1217 -0.3078 -0.0050
    1CHOL    C123031  21.445  20.625   5.233 -0.0233 -0.0453  0.1159
    1CHOL    C223032  21.385  20.762   5.537  0.0049  0.0008 -0.0718
    1CHOL   ROH23033   5.675  22.909   3.436  0.1542 -0.0306 -0.0104
    1CHOL    R123034   5.798  23.094   3.611  0.0719  0.0535 -0.0410
    1CHOL    R223035   5.664  23.209   3.824  0.0058  0.0683 -0.0903
    1CHOL    R323036   5.874  23.112   3.967  0.0155  0.1705 -0.0344
    1CHOL    R423037   5.753  23.315   4.141 -0.2031  0.0302 -0.0177
    1CHOL    R523038   5.962  23.304   4.080 -0.1679  0.1983  0.0656
    1CHOL    C123039   6.001  23.286   4.460 -0.3156  0.1041  0.0769
    1CHOL    C223040   6.071  23.589   4.688 -0.0981 -0.2552  0.1738
    1CHOL   ROH23041  10.245  15.759   3.920  0.4851  0.0111  0.0391
    1CHOL    R123042  10.320  15.819   4.186  0.2744  0.0876  0.0841
    1CHOL    R223043  10.450  16.053   4.254  0.0376  0.2042  0.1558
    1CHOL    R323044  10.244  16.078   4.430 -0.0938  0.0371  0.0283
    1CHOL    R423045  10.478  16.184   4.573 -0.2799  0.2808  0.1547
    1CHOL    R523046  10.342  16.028   4.643 -0.1753  0.1632  0.0948
    1CHOL    C123047  10.301  16.284   4.923 -0.5882  0.1683  0.0344
    1CHOL    C223048  10.703  16.448   5.100 -0.0857  0.1523 -0.0613
    1CHOL   ROH23049  24.488  22.112   3.472 -0.0646 -0.2345 -0.0431
    1CHOL    R123050  24.459  21.891   3.646 -0.1673 -0.2099 -0.0281
    1CHOL    R223051  24.598  21.870   3.884 -0.1424 -0.2793 -0.0495
    1CHOL    R323052  24.349  21.837   3.989 -0.1464 -0.1295 -0.0081
    1CHOL    R423053  24.531  21.740   4.197 -0.1633 -0.1597 -0.0034
    1CHOL    R523054  24.363  21.631   4.111 -0.2286 -0.1040  0.0480
    1CHOL    C123055  24.259  21.632   4.478 -0.1791  0.0506  0.0624
    1CHOL    C223056  24.187  21.205   4.664  0.1462  0.0720 -0.2783
    1CHOL   ROH23057   9.816  21.243   4.062 -0.2372  0.0555 -0.0556
    1CHOL    R123058   9.816  21.416   4.286 -0.0309  0.1051 -0.0921
    1CHOL    R223059   9.809  21.324   4.546 -0.1460  0.1667 -0.0741
    1CHOL    R323060  10.031  21.479   4.572  0.0429 -0.0922 -0.1021
    1CHOL    R423061   9.939  21.433   4.847 -0.1564  0.2525 -0.1005
    1CHOL    R523062   9.979  21.626   4.754  0.1370  0.1298 -0.2481
    1CHOL    C123063  10.222  21.642   5.047  0.0150  0.0592 -0.1423
    1CHOL    C223064  10.478  21.852   5.131 -0.0687  0.0832 -0.1281
    1CHOL   ROH23065   7.006  10.753   3.924 -0.1449  0.0240  0.0092
    1CHOL    R123066   7.035  10.813   4.199 -0.1231  0.0922 -0.0081
    1CHOL    R223067   6.830  10.920   4.350 -0.1288  0.0744 -0.0052
    1CHOL    R323068   6.881  10.706   4.511 -0.0545  0.1233  0.0371
    1CHOL    R423069   6.798  10.921   4.694 -0.2157  0.1074 -0.0130
    1CHOL    R523070   6.982  10.802   4.706 -0.1539  0.2063  0.0493
    1CHOL    C123071   6.827  10.721   5.046 -0.1966  0.1726  0.0221
    1CHOL    C223072   6.597  10.693   5.458 -0.1725 -0.2432 -0.2786
    1CHOL   ROH23073  27.037  27.922   3.475  0.0444  0.0682  0.0761
    1CHOL    R123074  27.108  28.107   3.678  0.0661  0.0815  0.0561
    1CHOL    R223075  26.926   0.077   3.861  0.0629  0.1735  0.0046
    1CHOL    R323076  27.107  28.113   4.041  0.0001  0.1467  0.0548
    1CHOL    R423077  26.987   0.220   4.169  0.0180  0.1776  0.0118
    1CHOL    R523078  27.200   0.184   4.139  0.0175  0.1323  0.0663
    1CHOL    C123079  27.193   0.218   4.518 -0.0672  0.1548  0.0632
    1CHOL    C223080  27.101   0.168   4.833  0.1351 -0.0871  0.0107
    1CHOL   ROH23081  26.112   0.504   6.457  0.0478  0.0003 -0.1185
    1CHOL    R123082  26.105   0.497   6.174 -0.0400  0.2823 -0.1274
    1CHOL    R223083  26.144   0.722   6.018  0.1510  0.4033  0.0763
    1CHOL    R323084  26.336   0.568   5.902 -0.0375  0.3086 -0.1148
    1CHOL    R423085  26.271   0.770   5.700 -0.0070  0.4265  0.0161
    1CHOL    R523086  26.271   0.554   5.672 -0.1854  0.4476 -0.0754
    1CHOL    C123087  26.525   0.654   5.406 -0.2759  0.3511 -0.1983
    1CHOL    C223088  26.509   1.015   5.387 -0.0827 -0.0524 -0.0534
    1CHOL   ROH23089   2.211   5.967   2.340 -0.1726  0.1188 -0.0055
    1CHOL    R123090   2.051   5.891   2.560 -0.0711  0.0107  0.0291
    1CHOL    R223091   2.033   5.630   2.648  0.1880  0.0184  0.0781
    1CHOL    R323092   2.105   5.739   2.886  0.1100  0.1238  0.0569
    1CHOL    R423093   2.013   5.468   2.952  0.5221 -0.0374  0.0757
    1CHOL    R523094   1.943   5.654   3.041  0.2710 -0.1293  0.1063
    1CHOL    C123095   2.069   5.475   3.353  0.6434  0.0291  0.0544
    1CHOL    C223096   2.279   5.524   3.660 -0.3109  0.1002 -0.2140
    1CHOL   ROH23097  16.336  13.834   6.700 -0.0935 -0.3181 -0.0009
    1CHOL    R123098  16.112  13.791   6.531 -0.2037 -0.0901  0.0828
    1CHOL    R223099  15.876  13.930   6.559  0.0009  0.2659  0.0737
    1CHOL    R323100  15.917  13.987   6.296  0.0131  0.0679  0.0306
    1CHOL    R423101  15.628  14.024   6.337  0.0749  0.5433  0.1039
    1CHOL    R523102  15.723  13.899   6.186 -0.1654  0.3117  0.1364
    1CHOL    C123103  15.522  14.132   5.961  0.1293  0.5190  0.0811
    1CHOL    C223104  15.534  14.333   5.657 -0.0878 -0.2258 -0.0729
    1CHOL   ROH23105   2.274  16.872   6.163  0.1401 -0.0850 -0.0485
    1CHOL    R123106   2.432  16.842   5.929  0.0925 -0.1704 -0.0713
    1CHOL    R223107   2.372  16.660   5.730 -0.0939 -0.0680 -0.1157
    1CHOL    R323108   2.384  16.880   5.571  0.0899 -0.0345 -0.0565
    1CHOL    R423109   2.417  16.654   5.388 -0.0996 -0.0101 -0.1168
    1CHOL    R523110   2.549  16.825   5.407  0.0432 -0.1267 -0.0706
    1CHOL    C123111   2.455  16.856   5.039  0.0696  0.0550 -0.0619
    1CHOL    C223112   2.837  17.022   4.858  0.1190  0.0442  0.0440
    1CHOL   ROH23113   6.373  27.260   3.093  0.0324  0.1019  0.1245
    1CHOL    R123114   6.420  27.203   3.366  0.1891  0.0184  0.0822
    1CHOL    R223115   6.233  27.255   3.563  0.3856  0.1688  0.2373
    1CHOL    R323116   6.269  26.992   3.622  0.1820  0.1242  0.1650
    1CHOL    R423117   6.210  27.119   3.880  0.6438  0.1625  0.2549
    1CHOL    R523118   6.382  26.993   3.833  0.4531 -0.0165  0.0230
    1CHOL    C123119   6.230  26.793   4.120  0.6030  0.1169  0.1971
    1CHOL    C223120   6.415  26.793   4.444 -0.3085  0.2138 -0.1832
    1CHOL   ROH23121  13.053   2.956   7.069 -0.0948 -0.0799  0.0185
    1CHOL    R123122  13.110   2.981   6.793 -0.1989  0.0802  0.0105
    1CHOL    R223123  13.087   3.220   6.657  0.0415  0.2278  0.2260
    1CHOL    R323124  13.344   3.167   6.587 -0.0565 -0.0457  0.0557
    1CHOL    R423125  13.236   3.320   6.362  0.0415  0.3568  0.2687
    1CHOL    R523126  13.335   3.126   6.351 -0.2221  0.2269  0.0092
    1CHOL    C123127  13.564   3.329   6.124 -0.0503  0.1752  0.1337
    1CHOL    C223128  13.785   3.496   5.767  0.0043  0.0469  0.0857
    1CHOL   ROH23129  10.034   7.315   3.870 -0.0757 -0.0647  0.1815
    1CHOL    R123130   9.908   7.270   4.120 -0.1003 -0.0114  0.1778
    1CHOL    R223131  10.016   7.105   4.313 -0.1029  0.0603  0.2344
    1CHOL    R323132   9.989   7.324   4.470 -0.1546  0.0984  0.1749
    1CHOL    R423133   9.940   7.097   4.650 -0.2075  0.1322  0.2136
    1CHOL    R523134   9.809   7.269   4.618 -0.2029  0.1267  0.1321
    1CHOL    C123135   9.870   7.299   4.994 -0.3169  0.2098  0.1457
    1CHOL    C223136   9.988   7.467   5.264 -0.2420 -0.0249  0.1904
    1CHOL   ROH23137   6.226  23.079   6.446  0.0036  0.0366  0.0189
    1CHOL    R123138   6.358  23.071   6.195 -0.0472  0.2053 -0.0140
    1CHOL    R223139   6.260  22.928   5.980  0.0657  0.1008  0.0059
    1CHOL    R323140   6.282  23.168   5.853 -0.2457  0.1361  0.0085
    1CHOL    R423141   6.330  22.967   5.644  0.0468  0.1927  0.0117
    1CHOL    R523142   6.460  23.135   5.695 -0.1810  0.3736  0.0253
    1CHOL    C123143   6.391  23.215   5.329 -0.2566  0.2794  0.0176
    1CHOL    C223144   6.452  23.267   4.959  0.1269  0.2458 -0.1163
    1CHOL   ROH23145  25.534  15.919   5.787 -0.2646  0.0526  0.1208
    1CHOL    R123146  25.468  16.032   5.535 -0.1410  0.0721  0.0964
    1CHOL    R223147  25.310  16.257   5.510 -0.1378  0.0689  0.0353
    1CHOL    R323148  25.521  16.349   5.366 -0.0665  0.0890  0.1518
    1CHOL    R423149  25.287  16.479   5.246 -0.0052  0.1038  0.0524
    1CHOL    R523150  25.439  16.363   5.141  0.0464  0.1190  0.1126
    1CHOL    C123151  25.472  16.695   4.957  0.1389  0.1429  0.1717
    1CHOL    C223152  25.491  17.015   4.735  0.0993  0.2305  0.1872
    1CHOL   ROH23153   5.094   3.752   4.596 -0.0444  0.1620  0.0903
    1CHOL    R123154   5.346   3.794   4.473  0.0093 -0.0293  0.1309
    1CHOL    R223155   5.397   4.010   4.310  0.0806 -0.2729 -0.1849
    1CHOL    R323156   5.605   4.049   4.481  0.0047 -0.0145 -0.1479
    1CHOL    R423157   5.696   4.163   4.226  0.0639 -0.2695 -0.2374
    1CHOL    R523158   5.800   4.014   4.346  0.0669 -0.1014 -0.0318
    1CHOL    C123159   6.065   4.289   4.339 -0.0171 -0.0250 -0.2332
    1CHOL    C223160   6.398   4.346   4.211 -0.3422  0.1740 -0.2356
    1CHOL   ROH23161  11.498   9.424   3.709 -0.0141  0.2117 -0.1224
    1CHOL    R123162  11.517   9.559   3.957  0.0041  0.1089 -0.0640
    1CHOL    R223163  11.433   9.820   3.991  0.1594  0.1652  0.0121
    1CHOL    R323164  11.285   9.713   4.192  0.0311  0.1685 -0.0825
    1CHOL    R423165  11.381   9.970   4.298  0.4745 -0.1297  0.2144
    1CHOL    R523166  11.404   9.774   4.391  0.1709 -0.2756 -0.0318
    1CHOL    C123167  11.213   9.957   4.666  0.5376 -0.2983  0.2433
    1CHOL    C223168  10.872  10.181   4.800  0.2091 -0.0433 -0.0398
    1CHOL   ROH23169  17.330   2.004   4.316 -0.2429 -0.0970  0.0984
    1CHOL    R123170  17.444   2.100   4.557 -0.1410 -0.1862  0.0868
    1CHOL    R223171  17.393   2.354   4.654  0.0681 -0.1443  0.0933
    1CHOL    R323172  17.322   2.218   4.879 -0.0159 -0.0902  0.0996
    1CHOL    R423173  17.351   2.495   4.967  0.0682 -0.0891  0.0681
    1CHOL    R523174  17.448   2.322   5.054 -0.0074 -0.1122  0.1060
    1CHOL    C123175  17.259   2.450   5.359 -0.0105 -0.0061  0.0594
    1CHOL    C223176  17.365   2.764   5.498 -0.1486 -0.2481  0.1129
    1CHOL   ROH23177   9.001   1.843   6.447  0.2047  0.2564 -0.2546
    1CHOL    R123178   8.947   1.798   6.173  0.1036  0.1594 -0.2203
    1CHOL    R223179   8.717   1.672   6.085  0.1021  0.0611 -0.0897
    1CHOL    R323180   8.690   1.897   5.935 -0.0275  0.0113 -0.1406
    1CHOL    R423181   8.557   1.687   5.780  0.1394 -0.1067 -0.1177
    1CHOL    R523182   8.714   1.821   5.709  0.0578 -0.0164 -0.1199
    1CHOL    C123183   8.438   1.907   5.460  0.0395 -0.2512 -0.1817
    1CHOL    C223184   8.243   1.858   5.117  0.0073  0.2702 -0.0037
    1CHOL   ROH23185  12.437  20.483   4.003  0.1662 -0.1461  0.1182
    1CHOL    R123186  12.279  20.362   4.204  0.1964 -0.1753  0.1228
    1CHOL    R223187  12.381  20.292   4.452  0.1342  0.1719  0.2451
    1CHOL    R323188  12.175  20.443   4.544 -0.1243 -0.0145 -0.0077
    1CHOL    R423189  12.217  20.241   4.751  0.0032  0.1784  0.1760
    1CHOL    R523190  12.029  20.286   4.651  0.0024 -0.1317  0.0086
    1CHOL    C123191  11.928  20.353   5.012 -0.3159  0.0071 -0.1017
    1CHOL    C223192  12.008  20.124   5.213  0.2055 -0.0740 -0.1472
    1CHOL   ROH23193  18.374   4.104   3.728 -0.3112 -0.0409 -0.1190
    1CHOL    R123194  18.378   3.922   3.945 -0.2207 -0.0450 -0.1229
    1CHOL    R223195  18.415   4.003   4.207  0.0123 -0.0622 -0.1457
    1CHOL    R323196  18.183   3.868   4.248 -0.0146  0.0342  0.0248
    1CHOL    R423197  18.304   3.890   4.514  0.1544  0.0353 -0.0575
    1CHOL    R523198  18.237   3.707   4.417  0.0245  0.0456  0.0195
    1CHOL    C123199  18.022   3.697   4.732  0.2123  0.1826  0.1540
    1CHOL    C223200  17.763   3.674   5.130  0.1932  0.1774 -0.0269
    1CHOL   ROH23201  26.614   3.097   6.341 -0.1539 -0.1099 -0.0018
    1CHOL    R123202  26.627   3.042   6.063 -0.1882 -0.0267 -0.0201
    1CHOL    R223203  26.548   2.800   5.956 -0.0297 -0.0603 -0.0610
    1CHOL    R323204  26.391   2.956   5.800 -0.1966 -0.1408  0.0238
    1CHOL    R423205  26.465   2.731   5.628  0.1295  0.0775 -0.1318
    1CHOL    R523206  26.490   2.943   5.582 -0.1287  0.1480  0.0325
    1CHOL    C123207  26.268   2.839   5.290  0.0654  0.0821 -0.0934
    1CHOL    C223208  25.950   2.630   5.211 -0.2266 -0.0462  0.1429
    1CHOL   ROH23209  19.640  23.897   3.880 -0.0556 -0.1701  0.1336
    1CHOL    R123210  19.571  23.951   4.150 -0.0504  0.0882  0.0873
    1CHOL    R223211  19.642  23.782   4.358 -0.2909  0.1357  0.2184
    1CHOL    R323212  19.751  24.008   4.461 -0.0426  0.0802  0.0819
    1CHOL    R423213  19.764  23.814   4.679 -0.2831  0.2174  0.2067
    1CHOL    R523214  19.676  24.013   4.688 -0.0555  0.3199  0.0696
    1CHOL    C123215  19.938  24.045   4.964 -0.0458  0.2133  0.0717
    1CHOL    C223216  20.138  23.931   5.251  0.1320  0.0858  0.2184
    1CHOL   ROH23217  19.099  12.953   4.608 -0.0046  0.2123 -0.1595
    1CHOL    R123218  19.299  13.149   4.568  0.0687  0.1626 -0.0426
    1CHOL    R223219  19.354  13.347   4.754  0.1030  0.0678  0.0496
    1CHOL    R323220  19.607  13.250   4.734  0.0740 -0.0093  0.0542
    1CHOL    R423221  19.640  13.525   4.829  0.1634  0.0387 -0.1081
    1CHOL    R523222  19.736  13.436   4.655  0.1064 -0.0859 -0.0773
    1CHOL    C123223  20.045  13.538   4.854  0.1712 -0.0506 -0.1955
    1CHOL    C223224  20.477  13.443   4.732  0.2259  0.4555  0.0434
    1CHOL   ROH23225  24.722  16.742   3.974  0.0653 -0.1237 -0.1639
    1CHOL    R123226  24.811  16.519   4.124 -0.1197 -0.0635  0.0379
    1CHOL    R223227  24.773  16.500   4.397 -0.4269  0.0637  0.0045
    1CHOL    R323228  24.658  16.262   4.332 -0.3720  0.0404 -0.0131
    1CHOL    R423229  24.732  16.234   4.614 -0.3132  0.0188 -0.0264
    1CHOL    R523230  24.787  16.099   4.452 -0.3023  0.0575 -0.0592
    1CHOL    C123231  24.601  15.856   4.680 -0.1954 -0.0291 -0.0610
    1CHOL    C223232  24.488  15.614   5.040 -0.0778 -0.2261  0.1073
    1CHOL   ROH23233  20.481  19.558   4.256  0.0715 -0.2297 -0.1125
    1CHOL    R123234  20.637  19.701   4.444  0.0032 -0.1961 -0.0810
    1CHOL    R223235  20.603  19.675   4.717 -0.0463 -0.2032 -0.0874
    1CHOL    R323236  20.869  19.619   4.713 -0.0337 -0.1469 -0.0345
    1CHOL    R423237  20.795  19.608   4.996 -0.1250 -0.3421 -0.0660
    1CHOL    R523238  20.955  19.726   4.909 -0.1197 -0.2538  0.0628
    1CHOL    C123239  21.156  19.516   5.155 -0.1588 -0.3701 -0.0037
    1CHOL    C223240  21.117  19.554   5.598  0.0086  0.0833  0.0717
    1CHOL   ROH23241   4.845   7.925   6.037 -0.1334 -0.1076  0.0567
    1CHOL    R123242   4.854   7.944   5.755 -0.2466 -0.0087  0.0592
    1CHOL    R223243   5.028   7.794   5.601 -0.0963  0.2635 -0.0396
    1CHOL    R323244   4.800   7.722   5.472 -0.0439  0.0031  0.0080
    1CHOL    R423245   5.015   7.624   5.300  0.0430  0.2727 -0.0514
    1CHOL    R523246   4.849   7.752   5.240 -0.1279  0.0854 -0.0027
    1CHOL    C123247   4.793   7.458   5.004  0.1732  0.0335 -0.0136
    1CHOL    C223248   4.517   7.477   4.690 -0.2725  0.1322  0.0115
    1CHOL   ROH23249   6.954   2.579   3.022  0.2258 -0.0979  0.0307
    1CHOL    R123250   7.036   2.596   3.292  0.1568 -0.0944  0.0528
    1CHOL    R223251   6.964   2.806   3.457  0.1766 -0.0497  0.0133
    1CHOL    R323252   6.874   2.607   3.618  0.0669 -0.0071  0.0040
    1CHOL    R423253   6.859   2.848   3.783  0.3033 -0.0341  0.0517
    1CHOL    R523254   6.960   2.662   3.835  0.1696 -0.1185 -0.0123
    1CHOL    C123255   6.714   2.685   4.125  0.2741  0.0150  0.0654
    1CHOL    C223256   6.480   2.810   4.423 -0.0712  0.1355 -0.3699
    1CHOL   ROH23257  11.130  22.673   3.557 -0.0006  0.1979 -0.0761
    1CHOL    R123258  11.274  22.747   3.789  0.0653  0.1443 -0.0987
    1CHOL    R223259  11.234  22.987   3.919  0.1130  0.1252 -0.0377
    1CHOL    R323260  11.197  22.826   4.135  0.1579  0.0804 -0.0643
    1CHOL    R423261  11.308  23.074   4.245  0.0350  0.1052 -0.0152
    1CHOL    R523262  11.384  22.872   4.276  0.1169  0.1385 -0.0348
    1CHOL    C123263  11.316  22.974   4.638  0.0319  0.0517 -0.0271
    1CHOL    C223264  11.363  22.899   4.992  0.2118  0.1069 -0.1421
    1CHOL   ROH23265   8.891  14.855   6.845 -0.0414 -0.0095  0.1578
    1CHOL    R123266   8.815  14.854   6.572 -0.4597  0.0354  0.2669
    1CHOL    R223267   8.589  14.984   6.480 -0.2339  0.6608  0.5355
    1CHOL    R323268   8.766  15.103   6.311 -0.1100  0.0327  0.1942
    1CHOL    R423269   8.502  15.176   6.206 -0.0485  0.4491  0.3239
    1CHOL    R523270   8.664  15.082   6.095 -0.3411 -0.0739  0.3107
    1CHOL    C123271   8.618  15.399   5.888  0.1757 -0.2638 -0.1199
    1CHOL    C223272   8.515  15.735   5.929 -0.1852  0.0570  0.2070
    1CHOL   ROH23273   3.598   1.029   5.817  0.1400 -0.3048  0.1491
    1CHOL    R123274   3.382   0.935   5.661  0.1442 -0.3316  0.1592
    1CHOL    R223275   3.334   1.025   5.404 -0.0967 -0.0542  0.2949
    1CHOL    R323276   3.340   0.759   5.345  0.1436  0.0192 -0.0418
    1CHOL    R423277   3.272   0.891   5.091 -0.3676  0.2668  0.2048
    1CHOL    R523278   3.161   0.730   5.187 -0.0439  0.0087  0.1667
    1CHOL    C123279   3.242   0.564   4.854 -0.2998  0.5227 -0.1638
    1CHOL    C223280   3.119   0.621   4.425 -0.1572  0.0550 -0.0341
    1CHOL   ROH23281  13.895  24.731   6.334  0.0876 -0.1607  0.1795
    1CHOL    R123282  13.947  24.739   6.056 -0.0881 -0.2435  0.1429
    1CHOL    R223283  14.141  24.903   5.945 -0.4097  0.0066 -0.0685
    1CHOL    R323284  14.229  24.670   5.837 -0.0968  0.0786  0.0228
    1CHOL    R423285  14.295  24.874   5.637 -0.5199  0.0752 -0.1308
    1CHOL    R523286  14.182  24.690   5.604 -0.2528 -0.1280  0.0327
    1CHOL    C123287  14.467  24.638   5.356 -0.2905  0.1827 -0.0815
    1CHOL    C223288  14.624  24.413   5.043  0.1062 -0.2719  0.1954
    1CHOL   ROH23289  19.095   1.373   3.888 -0.1815 -0.0592 -0.1498
    1CHOL    R123290  19.043   1.495   4.138 -0.0405 -0.0574 -0.1219
    1CHOL    R223291  18.824   1.430   4.293  0.0105 -0.0026 -0.0349
    1CHOL    R323292  19.012   1.387   4.484  0.0766 -0.0629 -0.1112
    1CHOL    R423293  18.756   1.339   4.619  0.1089 -0.0598 -0.0290
    1CHOL    R523294  18.914   1.474   4.685  0.1528 -0.0876 -0.0576
    1CHOL    C123295  18.893   1.245   4.989  0.2282 -0.1498 -0.0973
    1CHOL    C223296  18.833   1.022   5.420 -0.0152 -0.3351  0.1768
    1CHOL   ROH23297  16.232  22.086   6.295 -0.1144 -0.0366 -0.2622
    1CHOL    R123298  16.192  22.090   6.015  0.0471 -0.1481 -0.2882
    1CHOL    R223299  16.189  22.324   5.868 -0.1523 -0.1824 -0.3390
    1CHOL    R323300  16.380  22.198   5.723  0.0925  0.0181 -0.2002
    1CHOL    R423301  16.259  22.389   5.536 -0.3407 -0.4515 -0.4349
    1CHOL    R523302  16.283  22.175   5.505  0.0957 -0.4577 -0.1646
    1CHOL    C123303  16.480  22.308   5.206 -0.2205 -0.4200 -0.3603
    1CHOL    C223304  16.290  22.684   5.120 -0.1147 -0.2829 -0.2079
    1CHOL   ROH23305  27.634   9.637   6.162 -0.0487  0.1290  0.2564
    1CHOL    R123306  27.529   9.647   5.899 -0.0276  0.0175  0.2434
    1CHOL    R223307  27.362   9.850   5.813  0.0138  0.0037  0.1317
    1CHOL    R323308  27.547   9.875   5.616  0.0321 -0.1251  0.1311
    1CHOL    R423309  27.289   9.874   5.476  0.0289  0.0536  0.1316
    1CHOL    R523310  27.460   9.744   5.435 -0.0601 -0.0658  0.1314
    1CHOL    C123311  27.421   9.911   5.094  0.0546 -0.0384  0.1310
    1CHOL    C223312  27.258   9.583   4.801  0.2539  0.4352 -0.2364
    1CHOL   ROH23313  12.263   0.606   3.961 -0.0384  0.0041  0.0077
    1CHOL    R123314  12.166   0.465   4.187  0.0162 -0.0231  0.0143
    1CHOL    R223315  12.287   0.481   4.435 -0.0109  0.0647  0.0217
    1CHOL    R323316  12.038   0.551   4.517 -0.0542 -0.0559 -0.0039
    1CHOL    R423317  12.170   0.451   4.759 -0.0622 -0.0896 -0.0104
    1CHOL    R523318  11.979   0.384   4.678 -0.0228 -0.1345 -0.0716
    1CHOL    C123319  11.867   0.499   5.024 -0.1326 -0.2927 -0.0532
    1CHOL    C223320  11.838   0.491   5.356  0.0465  0.0329 -0.2419
    1CHOL   ROH23321  26.844  21.949   3.243 -0.3561 -0.1928 -0.0158
    1CHOL    R123322  26.734  21.914   3.501 -0.2020 -0.0604  0.0685
    1CHOL    R223323  26.815  21.711   3.671 -0.1946 -0.0495  0.0703
    1CHOL    R323324  26.858  21.916   3.844  0.0258 -0.0232 -0.0109
    1CHOL    R423325  26.858  21.675   4.012 -0.3068  0.0347  0.0944
    1CHOL    R523326  26.736  21.854   4.041 -0.0962  0.2060 -0.0061
    1CHOL    C123327  26.924  21.847   4.373 -0.1653  0.1081  0.0322
    1CHOL    C223328  27.060  21.880   4.758 -0.0463 -0.2357 -0.0651
    1CHOL   ROH23329  17.525  14.735   4.461 -0.0890  0.1283 -0.0233
    1CHOL    R123330  17.570  14.715   4.740 -0.0856  0.0140 -0.0303
    1CHOL    R223331  17.804  14.615   4.846 -0.0930 -0.0636 -0.0702
    1CHOL    R323332  17.807  14.851   4.980 -0.0588 -0.1128  0.0131
    1CHOL    R423333  17.953  14.665   5.154 -0.2060 -0.2197  0.0099
    1CHOL    R523334  17.783  14.789   5.211 -0.1783 -0.1777 -0.0207
    1CHOL    C123335  18.043  14.915   5.459 -0.2398 -0.3569  0.1348
    1CHOL    C223336  17.966  14.728   5.876  0.0165  0.0467  0.1462
    1CHOL   ROH23337   9.033   2.774   3.490  0.2043 -0.0586  0.1778
    1CHOL    R123338   9.068   2.604   3.715  0.0323 -0.0979  0.1777
    1CHOL    R223339   8.917   2.629   3.945 -0.1160 -0.1097  0.0869
    1CHOL    R323340   8.865   2.367   3.900 -0.1278 -0.0934  0.0104
    1CHOL    R423341   8.767   2.417   4.172 -0.0953 -0.1768  0.0366
    1CHOL    R523342   8.907   2.261   4.111 -0.1072 -0.1607 -0.0282
    1CHOL    C123343   8.630   2.046   4.262 -0.0943 -0.2005 -0.0645
    1CHOL    C223344   8.470   1.881   4.630  0.2484  0.1142 -0.1097
    1CHOL   ROH23345  11.921  19.622   6.944 -0.1193 -0.1295 -0.1189
    1CHOL    R123346  11.870  19.611   6.666 -0.0794  0.0840 -0.1353
    1CHOL    R223347  11.818  19.837   6.515  0.2087  0.2290 -0.0185
    1CHOL    R323348  12.024  19.743   6.364  0.1315  0.0772 -0.0336
    1CHOL    R423349  11.840  19.865   6.171  0.1796  0.1703 -0.0262
    1CHOL    R523350  11.919  19.662   6.164  0.0511  0.1159 -0.0098
    1CHOL    C123351  12.045  19.794   5.829  0.0903 -0.0062 -0.0449
    1CHOL    C223352  11.826  19.970   5.647 -0.0172  0.4260  0.2643
    1CHOL   ROH23353  22.709  13.362   3.825  0.3547  0.1408  0.0568
    1CHOL    R123354  22.762  13.126   3.973  0.1578  0.0234 -0.0557
    1CHOL    R223355  23.002  13.082   4.103  0.0862 -0.1988  0.0023
    1CHOL    R323356  22.841  13.044   4.319 -0.0093 -0.2226 -0.0722
    1CHOL    R423357  23.108  12.968   4.411 -0.0307 -0.1682  0.0545
    1CHOL    R523358  22.927  12.847   4.423 -0.0163 -0.2046 -0.0270
    1CHOL    C123359  23.019  12.865   4.793 -0.1881 -0.1725  0.0149
    1CHOL    C223360  22.982  12.577   5.002  0.0976  0.0250  0.1100
    1CHOL   ROH23361  20.720  14.975   3.932 -0.1740  0.1955  0.0160
    1CHOL    R123362  20.719  15.057   4.203  0.0640  0.2406  0.0055
    1CHOL    R223363  20.701  14.877   4.413 -0.0814  0.2936  0.0432
    1CHOL    R323364  20.928  15.001   4.497  0.1318  0.0020 -0.0862
    1CHOL    R423365  20.834  14.852   4.731 -0.0888  0.3486  0.0503
    1CHOL    R523366  20.881  15.064   4.723  0.2551  0.2709 -0.1337
    1CHOL    C123367  21.125  14.953   4.994  0.1070  0.1068 -0.0670
    1CHOL    C223368  21.012  14.714   5.153 -0.2122 -0.0555  0.0055
    1CHOL   ROH23369  23.867  12.265   6.268  0.0698 -0.0775 -0.0555
    1CHOL    R123370  23.808  12.268   5.991 -0.0259  0.1442 -0.0350
    1CHOL    R223371  23.782  12.037   5.842  0.1238  0.2641 -0.2533
    1CHOL    R323372  23.542  12.146   5.775  0.0059  0.1247 -0.0635
    1CHOL    R423373  23.549  11.889   5.633  0.1299  0.2139 -0.2242
    1CHOL    R523374  23.511  12.085   5.546 -0.0641  0.2409 -0.0859
    1CHOL    C123375  23.188  11.905   5.450  0.0228  0.0537 -0.0291
    1CHOL    C223376  23.001  12.013   5.202 -0.3746 -0.2910  0.4001
    1CHOL   ROH23377   0.594   0.763   3.264  0.0029  0.3789 -0.0285
    1CHOL    R123378   0.716   0.779   3.520  0.0867  0.2686 -0.0607
    1CHOL    R223379   0.606   0.925   3.727  0.1587  0.1833  0.0354
    1CHOL    R323380   0.627   0.689   3.861  0.1977  0.1274 -0.0674
    1CHOL    R423381   0.534   0.881   4.062  0.0448  0.0041 -0.0112
    1CHOL    R523382   0.708   0.751   4.078  0.0917  0.0619 -0.0058
    1CHOL    C123383   0.511   0.635   4.383  0.0151 -0.1526 -0.1348
    1CHOL    C223384   0.623   0.734   4.753  0.0468 -0.1106  0.0947
    1CHOL   ROH23385  18.214  23.911   3.620  0.0851 -0.1759 -0.0091
    1CHOL    R123386  18.267  23.939   3.897  0.0555 -0.0743 -0.0127
    1CHOL    R223387  18.504  23.857   4.012  0.0362 -0.0560  0.0497
    1CHOL    R323388  18.512  24.113   4.102  0.0507 -0.0207 -0.0539
    1CHOL    R423389  18.636  23.955   4.316 -0.2021  0.0304  0.1265
    1CHOL    R523390  18.469  24.095   4.338 -0.1676  0.1006 -0.0840
    1CHOL    C123391  18.720  24.253   4.578 -0.3273  0.1142  0.0739
    1CHOL    C223392  18.851  24.123   4.898 -0.1428  0.0200  0.1512
    1CHOL   ROH23393  16.833   4.551   6.852 -0.2462  0.0324  0.0276
    1CHOL    R123394  16.807   4.733   6.637 -0.0676  0.0224 -0.0057
    1CHOL    R223395  16.890   4.673   6.380 -0.0910 -0.0909  0.0071
    1CHOL    R323396  16.634   4.741   6.317 -0.0294  0.1157 -0.0229
    1CHOL    R423397  16.773   4.726   6.059 -0.0543 -0.1526 -0.0156
    1CHOL    R523398  16.657   4.894   6.134  0.1065 -0.0046 -0.1048
    1CHOL    C123399  16.465   4.821   5.813  0.0251  0.0054 -0.0569
    1CHOL    C223400  16.692   4.853   5.489 -0.0883 -0.3421  0.0393
    1CHOL   ROH23401  22.336  24.983   6.327 -0.1266  0.1023  0.1841
    1CHOL    R123402  22.518  25.119   6.159 -0.0822 -0.1187  0.0488
    1CHOL    R223403  22.512  25.098   5.884 -0.3682 -0.0461  0.0472
    1CHOL    R323404  22.499  25.369   5.896  0.0312 -0.0258  0.1277
    1CHOL    R423405  22.549  25.309   5.613 -0.3807 -0.0389  0.0513
    1CHOL    R523406  22.665  25.443   5.740 -0.0392 -0.2290 -0.0485
    1CHOL    C123407  22.559  25.687   5.466 -0.0133 -0.0158  0.1292
    1CHOL    C223408  22.603  25.718   5.178 -0.1390 -0.0780  0.6327
    1CHOL   ROH23409   4.107  21.003   4.033  0.0739 -0.1238  0.1489
    1CHOL    R123410   4.002  21.088   4.282  0.1595 -0.0244  0.1517
    1CHOL    R223411   4.150  21.236   4.463  0.1483  0.2509 -0.0564
    1CHOL    R323412   3.939  21.406   4.447 -0.0162  0.0511 -0.0558
    1CHOL    R423413   4.020  21.414   4.729 -0.0866  0.0528 -0.0353
    1CHOL    R523414   3.820  21.373   4.652 -0.0310 -0.1217 -0.0913
    1CHOL    C123415   3.746  21.678   4.869 -0.3779 -0.2503 -0.0223
    1CHOL    C223416   3.679  22.041   4.804  0.1855 -0.0407  0.2120
    1CHOL   ROH23417   8.875  25.161   6.510  0.0449 -0.0738 -0.0260
    1CHOL    R123418   8.960  25.255   6.257 -0.0966 -0.0015 -0.0488
    1CHOL    R223419   9.179  25.150   6.124  0.0092  0.2285 -0.0719
    1CHOL    R323420   8.999  25.117   5.923  0.0110  0.0052 -0.0383
    1CHOL    R423421   9.257  25.145   5.788 -0.0133  0.0026 -0.0747
    1CHOL    R523422   9.077  25.262   5.749 -0.0584 -0.0983 -0.1534
    1CHOL    C123423   9.134  25.112   5.403 -0.0245 -0.3386 -0.0449
    1CHOL    C223424   9.176  25.397   5.120  0.2787 -0.2610 -0.0240
    1CHOL   ROH23425   9.788  14.910   6.877  0.0658 -0.1003 -0.0846
    1CHOL    R123426   9.848  14.886   6.602 -0.1152 -0.0665 -0.1288
    1CHOL    R223427   9.687  14.993   6.404 -0.0281  0.3344  0.0068
    1CHOL    R323428   9.918  15.113   6.326  0.1584 -0.0399 -0.0412
    1CHOL    R423429   9.740  15.138   6.095  0.1748  0.1729 -0.0362
    1CHOL    R523430   9.941  15.054   6.095  0.0518 -0.1399 -0.0277
    1CHOL    C123431   9.987  15.335   5.841  0.4679 -0.2726 -0.1062
    1CHOL    C223432   9.967  15.202   5.406 -0.0099 -0.1365 -0.0455
    1CHOL   ROH23433  19.502  23.202   6.735  0.0986 -0.0319 -0.0269
    1CHOL    R123434  19.656  23.124   6.511  0.0710 -0.1334 -0.0100
    1CHOL    R223435  19.561  22.951   6.317 -0.0715  0.0308 -0.0826
    1CHOL    R323436  19.630  23.153   6.149  0.1962  0.0059 -0.0109
    1CHOL    R423437  19.636  22.912   5.982 -0.1918  0.0481 -0.1127
    1CHOL    R523438  19.796  23.058   6.006  0.0355 -0.1906 -0.0796
    1CHOL    C123439  19.743  23.079   5.629 -0.0107  0.0349 -0.0629
    1CHOL    C223440  19.789  23.169   5.312 -0.1552  0.1654  0.2729
    1CHOL   ROH23441  21.904  15.882   3.724 -0.2824 -0.0720  0.0835
    1CHOL    R123442  22.032  15.769   3.949 -0.1047 -0.1614 -0.0586
    1CHOL    R223443  21.944  15.812   4.207  0.2351 -0.0683  0.0487
    1CHOL    R323444  21.942  15.540   4.218  0.0223 -0.0678  0.0658
    1CHOL    R423445  21.930  15.626   4.498  0.4392 -0.0315  0.0826
    1CHOL    R523446  22.075  15.488   4.411  0.2205 -0.1602 -0.0901
    1CHOL    C123447  21.921  15.263   4.678  0.3583 -0.0096  0.1184
    1CHOL    C223448  22.170  15.252   4.961  0.0797 -0.0422  0.0481
    1CHOL   ROH23449  12.790  15.513   6.968  0.1181  0.0195 -0.0074
    1CHOL    R123450  12.665  15.511   6.714  0.1290 -0.0471 -0.0130
    1CHOL    R223451  12.754  15.666   6.504  0.0156  0.0523  0.0076
    1CHOL    R323452  12.761  15.428   6.373  0.2109  0.0721 -0.0188
    1CHOL    R423453  12.743  15.630   6.160 -0.0120  0.0753  0.0065
    1CHOL    R523454  12.612  15.458   6.188  0.1515 -0.0476  0.0114
    1CHOL    C123455  12.744  15.386   5.837  0.1552  0.1070 -0.0190
    1CHOL    C223456  12.646  15.430   5.435  0.2141 -0.5274 -0.2718
    1CHOL   ROH23457   7.665  12.552   4.102  0.1620 -0.2223  0.0081
    1CHOL    R123458   7.558  12.523   4.362  0.2929 -0.3746  0.0459
    1CHOL    R223459   7.717  12.496   4.586  0.4265  0.1699  0.0260
    1CHOL    R323460   7.571  12.708   4.676 -0.1304 -0.1608 -0.0540
    1CHOL    R423461   7.675  12.581   4.919  0.5342  0.3904 -0.0137
    1CHOL    R523462   7.466  12.627   4.875  0.3215 -0.2855  0.1489
    1CHOL    C123463   7.513  12.828   5.196  0.0741  0.2083 -0.1119
    1CHOL    C223464   7.427  13.159   5.341 -0.0699 -0.0601 -0.2427
    1CHOL   ROH23465  19.819   1.967   6.450 -0.0778  0.2352 -0.2084
    1CHOL    R123466  19.912   1.730   6.326  0.4725  0.3261  0.0062
    1CHOL    R223467  19.781   1.611   6.113  0.4382 -0.4441  0.4318
    1CHOL    R323468  20.024   1.632   5.994  0.1794  0.1747 -0.0552
    1CHOL    R423469  19.858   1.497   5.796  0.1513 -0.5369  0.3914
    1CHOL    R523470  20.049   1.428   5.872  0.5370  0.0996  0.1126
    1CHOL    C123471  20.131   1.449   5.500 -0.2589 -0.0102 -0.0892
    1CHOL    C223472  20.426   1.383   5.179  0.0955  0.4528 -0.1543
    1CHOL   ROH23473  16.942   5.130   6.625 -0.0857 -0.1070 -0.1082
    1CHOL    R123474  16.949   5.160   6.344 -0.2203 -0.0931 -0.1104
    1CHOL    R223475  17.182   5.210   6.204 -0.3293  0.2192 -0.1890
    1CHOL    R323476  17.107   4.991   6.063 -0.0879  0.1186 -0.1656
    1CHOL    R423477  17.265   5.150   5.874 -0.1219  0.1906 -0.1330
    1CHOL    R523478  17.063   5.074   5.843 -0.0477  0.0221 -0.2104
    1CHOL    C123479  17.243   4.909   5.549  0.2255  0.0795 -0.0784
    1CHOL    C223480  17.155   5.208   5.373  0.0406 -0.3678  0.3022
    1CHOL   ROH23481   9.871  14.485   4.376 -0.0019  0.0394  0.1504
    1CHOL    R123482   9.720  14.357   4.579 -0.0887  0.0191  0.0732
    1CHOL    R223483   9.751  14.416   4.847 -0.1216 -0.0901  0.0989
    1CHOL    R323484   9.483  14.458   4.836 -0.1055  0.0087  0.0629
    1CHOL    R423485   9.542  14.427   5.122 -0.1442  0.0249  0.0779
    1CHOL    R523486   9.394  14.316   5.007 -0.1752  0.0627  0.0750
    1CHOL    C123487   9.168  14.473   5.272 -0.1422  0.1846  0.0318
    1CHOL    C223488   9.172  14.324   5.713 -0.0979  0.4209  0.0301
    1CHOL   ROH23489   9.752   9.587   3.796 -0.0390  0.0489 -0.0493
    1CHOL    R123490   9.666   9.593   4.066 -0.0225 -0.1160 -0.0385
    1CHOL    R223491   9.694   9.378   4.236  0.0228 -0.2100 -0.1588
    1CHOL    R323492   9.820   9.560   4.393  0.0058 -0.2765 -0.0680
    1CHOL    R423493   9.700   9.371   4.582 -0.1906 -0.2337 -0.1549
    1CHOL    R523494   9.675   9.588   4.582 -0.0958 -0.2253 -0.1556
    1CHOL    C123495   9.822   9.539   4.930 -0.3309 -0.3098 -0.0674
    1CHOL    C223496   9.854   9.683   5.401 -0.1258 -0.2403 -0.1966
    1CHOL   ROH23497   5.870  14.250   3.737  0.2736  0.2587  0.1222
    1CHOL    R123498   5.808  14.060   3.937  0.1948  0.1735  0.0186
    1CHOL    R223499   6.003  13.916   4.071  0.1412  0.0828  0.0032
    1CHOL    R323500   5.880  14.016   4.291  0.0984 -0.0007  0.0172
    1CHOL    R423501   6.069  13.818   4.395  0.1661  0.0521 -0.0115
    1CHOL    R523502   5.855  13.827   4.436  0.1627 -0.0332 -0.0158
    1CHOL    C123503   5.992  13.855   4.792  0.1405 -0.0441 -0.0068
    1CHOL    C223504   6.137  13.594   4.867  0.3531  0.5727  0.0430
    1CHOL   ROH23505  10.803   8.218   7.315  0.3382  0.0527  0.1104
    1CHOL    R123506  10.674   8.284   7.071  0.1397 -0.5255  0.0441
    1CHOL    R223507  10.740   8.509   6.923 -0.7767 -0.1901  0.0791
    1CHOL    R323508  10.772   8.327   6.724  0.1456 -0.0967  0.0936
    1CHOL    R423509  10.782   8.586   6.589 -0.5364 -0.0332  0.1411
    1CHOL    R523510  10.652   8.420   6.539  0.0905 -0.4927 -0.0763
    1CHOL    C123511  10.836   8.460   6.207  0.4694  0.1459  0.1909
    1CHOL    C223512  10.478   8.589   6.139  0.0681  0.1291 -0.1746
    1CHOL   ROH23513  23.150   4.095   3.371  0.0944 -0.0110  0.1211
    1CHOL    R123514  23.084   4.202   3.625  0.1138 -0.0741  0.1528
    1CHOL    R223515  22.840   4.157   3.746  0.0748  0.0008  0.1030
    1CHOL    R323516  22.995   4.069   3.952  0.0047 -0.1541  0.0913
    1CHOL    R423517  22.791   4.238   4.078  0.1174 -0.0364  0.1186
    1CHOL    R523518  23.007   4.257   4.101  0.1307 -0.1941  0.1329
    1CHOL    C123519  22.907   4.203   4.465  0.0762 -0.2035  0.1167
    1CHOL    C223520  22.741   4.243   4.808  0.1801 -0.0796 -0.1228
    1CHOL   ROH23521  22.298  18.387   4.285  0.0236 -0.0367 -0.2870
    1CHOL    R123522  22.558  18.386   4.398  0.0144 -0.0718 -0.2647
    1CHOL    R223523  22.614  18.266   4.640 -0.0773  0.1462 -0.1294
    1CHOL    R323524  22.803  18.135   4.495 -0.1433 -0.1199  0.0180
    1CHOL    R423525  22.933  18.194   4.751 -0.0726  0.2194 -0.0958
    1CHOL    R523526  23.008  18.245   4.553 -0.1012 -0.0912 -0.1878
    1CHOL    C123527  23.297  18.030   4.679 -0.1318  0.0121  0.0622
    1CHOL    C223528  23.579  18.059   4.858  0.0162  0.1008 -0.0675
    1CHOL   ROH23529  24.721  12.719   6.334 -0.0749  0.1456  0.0241
    1CHOL    R123530  24.826  12.758   6.074 -0.0876  0.1120  0.0137
    1CHOL    R223531  24.676  12.717   5.846 -0.0861  0.0433  0.0253
    1CHOL    R323532  24.752  12.971   5.789 -0.1289  0.0442 -0.0269
    1CHOL    R423533  24.651  12.865   5.535 -0.0575 -0.0486 -0.0208
    1CHOL    R523534  24.846  12.957   5.568 -0.0823  0.0026 -0.0060
    1CHOL    C123535  24.708  13.190   5.300 -0.0811 -0.1012 -0.0967
    1CHOL    C223536  24.403  13.086   5.004  0.0394 -0.2078  0.1506
    1CHOL   ROH23537   5.913  11.853   6.603 -0.1013  0.3121 -0.1996
    1CHOL    R123538   5.951  11.721   6.355 -0.1150  0.2312 -0.1595
    1CHOL    R223539   5.915  11.847   6.112 -0.0089  0.1876 -0.1999
    1CHOL    R323540   6.168  11.760   6.066 -0.0402  0.0572 -0.1280
    1CHOL    R423541   6.052  11.797   5.799  0.0632  0.1488 -0.1618
    1CHOL    R523542   6.148  11.616   5.875 -0.0572  0.0890 -0.1502
    1CHOL    C123543   6.370  11.686   5.573  0.0758  0.0039 -0.0722
    1CHOL    C223544   6.418  11.902   5.217  0.0037 -0.2195 -0.2467
    1CHOL   ROH23545  15.319  23.772   6.325 -0.1343 -0.1778  0.0661
    1CHOL    R123546  15.399  23.592   6.122 -0.2543 -0.0024 -0.1400
    1CHOL    R223547  15.426  23.667   5.858  0.0388  0.3485 -0.0149
    1CHOL    R323548  15.675  23.563   5.887 -0.1253 -0.0575  0.0155
    1CHOL    R423549  15.603  23.507   5.609  0.0246  0.5619 -0.1670
    1CHOL    R523550  15.671  23.362   5.757 -0.3018  0.1797 -0.3667
    1CHOL    C123551  15.941  23.315   5.491 -0.1377  0.3050 -0.2271
    1CHOL    C223552  16.053  23.111   5.195  0.0164 -0.1803  0.5761
    1CHOL   ROH23553  12.658   3.500   4.178  0.4635  0.1449  0.1292
    1CHOL    R123554  12.608   3.445   4.451  0.3019 -0.0039  0.0719
    1CHOL    R223555  12.775   3.286   4.603  0.2785  0.0127  0.1173
    1CHOL    R323556  12.777   3.503   4.768  0.0537 -0.0591  0.2169
    1CHOL    R423557  12.799   3.271   4.948  0.2259 -0.1260  0.1146
    1CHOL    R523558  12.652   3.432   4.960  0.0787 -0.2612  0.1611
    1CHOL    C123559  12.815   3.465   5.303 -0.0158 -0.2742  0.2066
    1CHOL    C223560  12.631   3.595   5.574  0.0225 -0.0339  0.1611
    1CHOL   ROH23561  25.570  23.602   3.530  0.1204 -0.0724  0.2561
    1CHOL    R123562  25.641  23.805   3.713  0.0796 -0.0342  0.2322
    1CHOL    R223563  25.708  24.061   3.633  0.1046 -0.0451  0.1941
    1CHOL    R323564  25.513  24.132   3.808  0.0590 -0.0144  0.1288
    1CHOL    R423565  25.704  24.354   3.817  0.0340 -0.0083  0.1325
    1CHOL    R523566  25.629  24.240   3.987 -0.0006  0.0305  0.1334
    1CHOL    C123567  25.518  24.591   4.089 -0.0497  0.0420  0.0353
    1CHOL    C223568  25.345  24.680   4.440  0.1222 -0.0356 -0.3238
    1CHOL   ROH23569  25.333  12.243   6.172  0.1403  0.2044 -0.0065
    1CHOL    R123570  25.387  12.144   5.913  0.1802 -0.0700  0.1024
    1CHOL    R223571  25.333  11.883   5.839 -0.3440 -0.0033  0.2014
    1CHOL    R323572  25.195  12.004   5.638  0.1258  0.2120 -0.0059
    1CHOL    R423573  25.185  11.718   5.574 -0.3122  0.2105  0.0489
    1CHOL    R523574  25.252  11.878   5.442  0.1493  0.0658  0.0953
    1CHOL    C123575  24.969  11.735   5.231  0.1472  0.5372 -0.2343
    1CHOL    C223576  24.700  11.785   4.951 -0.0755  0.0399  0.0812
    1CHOL   ROH23577  20.826   0.607   5.222  0.1409  0.3454  0.1676
    1CHOL    R123578  21.091   0.507   5.220  0.0812  0.1815  0.0108
    1CHOL    R223579  21.249   0.500   5.446  0.2581  0.2096 -0.1075
    1CHOL    R323580  21.274   0.237   5.382  0.0426  0.1578  0.0145
    1CHOL    R423581  21.544   0.321   5.458  0.1396  0.0098 -0.1599
    1CHOL    R523582  21.486   0.223   5.272 -0.0193 -0.0464 -0.0818
    1CHOL    C123583  21.739  28.097   5.404 -0.1316 -0.1552 -0.0757
    1CHOL    C223584  21.977  28.040   5.130 -0.0597  0.0905  0.2697
    1CHOL   ROH23585  11.805  25.845   6.178 -0.1110 -0.0620  0.0534
    1CHOL    R123586  11.652  25.741   5.963 -0.1498 -0.0128  0.0572
    1CHOL    R223587  11.460  25.890   5.831  0.0450  0.1201 -0.0781
    1CHOL    R323588  11.603  25.818   5.611  0.0435 -0.1381  0.0005
    1CHOL    R423589  11.322  25.789   5.531  0.0314  0.1017 -0.0660
    1CHOL    R523590  11.478  25.637   5.516 -0.1121 -0.0663  0.0596
    1CHOL    C123591  11.376  25.664   5.149  0.0221 -0.1514  0.0149
    1CHOL    C223592  11.122  25.447   5.095  0.0497 -0.0250 -0.0835
    1CHOL   ROH23593   9.769   2.042   6.275  0.0744 -0.1898 -0.0020
    1CHOL    R123594   9.849   2.147   6.025 -0.0208 -0.0050  0.0432
    1CHOL    R223595   9.913   1.985   5.810  0.1976  0.1447 -0.0039
    1CHOL    R323596   9.727   2.137   5.682  0.0302 -0.0317  0.0248
    1CHOL    R423597   9.935   2.089   5.481 -0.1067 -0.1058 -0.1085
    1CHOL    R523598   9.855   2.282   5.542 -0.1376 -0.0869 -0.1956
    1CHOL    C123599   9.773   2.291   5.169 -0.4411 -0.4172 -0.1425
    1CHOL    C223600   9.649   2.259   4.769 -0.0303 -0.0758  0.0495
    1CHOL   ROH23601   9.585  26.335   6.301 -0.1783  0.1934  0.2600
    1CHOL    R123602   9.567  26.543   6.109 -0.2213  0.1449  0.2114
    1CHOL    R223603   9.776  26.609   5.941 -0.1650  0.2805  0.3334
    1CHOL    R323604   9.590  26.570   5.747 -0.0124  0.0966  0.2199
    1CHOL    R423605   9.780  26.761   5.631 -0.0611  0.1863  0.2877
    1CHOL    R523606   9.564  26.786   5.646 -0.0889  0.0484  0.1363
    1CHOL    C123607   9.607  26.813   5.267  0.1428 -0.0416  0.1546
    1CHOL    C223608   9.579  26.711   4.850  0.0248 -0.1451 -0.0347
    1CHOL   ROH23609  16.309  21.177   6.376 -0.0494  0.0069 -0.0773
    1CHOL    R123610  16.186  21.270   6.138 -0.0883  0.0315 -0.0491
    1CHOL    R223611  16.307  21.251   5.891 -0.1763 -0.0532 -0.0941
    1CHOL    R323612  16.076  21.125   5.823 -0.2544  0.0362  0.0081
    1CHOL    R423613  16.187  21.220   5.568 -0.1643 -0.3147 -0.0743
    1CHOL    R523614  15.986  21.258   5.645 -0.1420 -0.0951 -0.1415
    1CHOL    C123615  15.900  21.084   5.317 -0.2305 -0.3830  0.0331
    1CHOL    C223616  15.848  20.838   5.021  0.0298  0.0450 -0.2089
    1CHOL   ROH23617   9.967  12.606   4.429 -0.0601  0.2303  0.0773
    1CHOL    R123618   9.992  12.444   4.660 -0.0370  0.1920  0.0479
    1CHOL    R223619  10.223  12.437   4.812  0.0464  0.0279 -0.0791
    1CHOL    R323620  10.053  12.498   5.014  0.1949  0.1226  0.0193
    1CHOL    R423621  10.292  12.392   5.147  0.1608 -0.1084 -0.1196
    1CHOL    R523622  10.087  12.323   5.175  0.1198  0.0593 -0.0385
    1CHOL    C123623  10.172  12.422   5.533  0.3670 -0.0989 -0.0507
    1CHOL    C223624  10.085  12.127   5.748 -0.3204 -0.1047 -0.2137
    1CHOL   ROH23625  11.556  14.960   4.584 -0.0310  0.0097 -0.0152
    1CHOL    R123626  11.581  15.152   4.791  0.0732  0.0018 -0.0195
    1CHOL    R223627  11.365  15.238   4.940  0.1329  0.0627  0.0331
    1CHOL    R323628  11.521  15.163   5.149  0.1618  0.0165 -0.0050
    1CHOL    R423629  11.284  15.285   5.273  0.0780 -0.2054  0.0592
    1CHOL    R523630  11.492  15.338   5.311  0.0442 -0.1059  0.1095
    1CHOL    C123631  11.383  15.241   5.663  0.0731 -0.4050  0.0385
    1CHOL    C223632  11.563  15.224   5.986  0.2419  0.0408  0.0023
    1CHOL   ROH23633  11.303   5.391   7.324 -0.0745  0.0331  0.0448
    1CHOL    R123634  11.329   5.343   7.046 -0.0651  0.0216  0.0475
    1CHOL    R223635  11.135   5.417   6.862 -0.0569  0.0182  0.0370
    1CHOL    R323636  11.343   5.544   6.743 -0.0501  0.0094  0.0400
    1CHOL    R423637  11.117   5.591   6.564  0.0174 -0.2209 -0.1097
    1CHOL    R523638  11.310   5.508   6.510  0.0789 -0.1869  0.0499
    1CHOL    C123639  11.302   5.812   6.279  0.0670 -0.3683 -0.1923
    1CHOL    C223640  11.662   5.934   6.132  0.4115 -0.0321  0.3280
    1CHOL   ROH23641   0.966  19.005   3.321  0.2101 -0.4659  0.0833
    1CHOL    R123642   0.924  18.954   3.596  0.2346  0.0094  0.1853
    1CHOL    R223643   0.818  19.142   3.768 -0.2193  0.1591 -0.2326
    1CHOL    R323644   0.640  18.944   3.822  0.1743 -0.1189  0.1045
    1CHOL    R423645   0.583  19.152   4.021 -0.2976  0.1644 -0.3056
    1CHOL    R523646   0.625  18.942   4.061  0.1327  0.3131  0.1129
    1CHOL    C123647   0.279  18.971   4.220  0.0263 -0.0936 -0.0316
    1CHOL    C223648  28.073  18.883   4.456  0.3585 -0.1481 -0.2013
    1CHOL   ROH23649   7.603   4.138   3.531 -0.0227 -0.0173 -0.0559
    1CHOL    R123650   7.611   4.119   3.813 -0.0401  0.0162 -0.0532
    1CHOL    R223651   7.438   4.260   3.977 -0.0077  0.0868 -0.0780
    1CHOL    R323652   7.385   4.013   4.078 -0.0821  0.1140 -0.0499
    1CHOL    R423653   7.266   4.199   4.270 -0.1488  0.1648 -0.1435
    1CHOL    R523654   7.408   4.040   4.315 -0.1879  0.1589 -0.0453
    1CHOL    C123655   7.116   3.932   4.536 -0.3009  0.2357 -0.1552
    1CHOL    C223656   7.269   3.613   4.837 -0.1021 -0.1023 -0.1912
    1CHOL   ROH23657  27.232  26.951   3.420  0.0307 -0.1297  0.1891
    1CHOL    R123658  27.242  27.051   3.684  0.0299 -0.0037  0.1425
    1CHOL    R223659  27.320  26.896   3.899 -0.0569  0.0713  0.2307
    1CHOL    R323660  27.497  27.099   3.940  0.0119  0.0267  0.1545
    1CHOL    R423661  27.472  26.968   4.201 -0.0832  0.1734  0.2197
    1CHOL    R523662  27.445  27.180   4.159  0.0041  0.1619  0.1028
    1CHOL    C123663  27.727  27.200   4.415 -0.0338  0.1908  0.1416
    1CHOL    C223664  28.074  27.288   4.486 -0.0840 -0.0644 -0.2430
    1CHOL   ROH23665  22.998  20.180   4.164  0.1742  0.2254 -0.0543
    1CHOL    R123666  23.126  20.216   4.414  0.2679  0.0713 -0.0794
    1CHOL    R223667  22.992  20.193   4.655  0.2819  0.2510 -0.0554
    1CHOL    R323668  23.188  20.014   4.710  0.0667 -0.0002 -0.0839
    1CHOL    R423669  23.096  20.106   4.973  0.3123  0.2267 -0.0715
    1CHOL    R523670  23.301  20.106   4.900  0.2836 -0.0808 -0.1698
    1CHOL    C123671  23.341  19.887   5.210  0.1280 -0.0232 -0.1077
    1CHOL    C223672  23.438  19.474   5.366 -0.1214  0.0049 -0.1620
    1CHOL   ROH23673  17.361  24.357   6.602  0.0218 -0.0742 -0.2512
    1CHOL    R123674  17.399  24.395   6.324 -0.0935  0.0400 -0.2512
    1CHOL    R223675  17.195  24.475   6.156 -0.0833  0.4441 -0.0773
    1CHOL    R323676  17.371  24.672   6.089  0.1672  0.2310 -0.0648
    1CHOL    R423677  17.242  24.597   5.836  0.0654  0.4081 -0.0706
    1CHOL    R523678  17.456  24.604   5.876  0.0804  0.1346 -0.0717
    1CHOL    C123679  17.434  24.852   5.587  0.3870  0.1867 -0.0549
    1CHOL    C223680  17.249  24.916   5.192  0.0188  0.0872 -0.0470
    1CHOL   ROH23681   1.860   5.721   5.636  0.2622  0.0732 -0.0670
    1CHOL    R123682   1.908   5.708   5.357  0.0951 -0.1207 -0.0900
    1CHOL    R223683   1.747   5.566   5.185 -0.2301  0.0607  0.0530
    1CHOL    R323684   1.732   5.803   5.054  0.0803  0.0367 -0.0325
    1CHOL    R423685   1.677   5.602   4.848 -0.2011  0.0344  0.0443
    1CHOL    R523686   1.828   5.759   4.839  0.0098 -0.1687 -0.0222
    1CHOL    C123687   1.623   5.846   4.529  0.1071 -0.0035 -0.0409
    1CHOL    C223688   1.938   6.019   4.240  0.2795  0.2098 -0.0187
    1CHOL   ROH23689  16.305  14.661   4.499  0.1610 -0.0680 -0.0872
    1CHOL    R123690  16.352  14.647   4.778  0.0491 -0.1786 -0.0725
    1CHOL    R223691  16.605  14.664   4.886  0.0097 -0.2430  0.0361
    1CHOL    R323692  16.494  14.864   5.034 -0.0315 -0.2882  0.0657
    1CHOL    R423693  16.751  14.807   5.165  0.2060  0.0804 -0.2251
    1CHOL    R523694  16.554  14.810   5.260  0.3197 -0.0952  0.0240
    1CHOL    C123695  16.731  15.078   5.466  0.2816  0.2263 -0.3494
    1CHOL    C223696  17.042  15.274   5.602  0.0103 -0.4023  0.0288
    1CHOL   ROH23697   1.594   6.825   5.623  0.0260 -0.0401  0.0266
    1CHOL    R123698   1.406   6.878   5.418  0.1628  0.1464 -0.0524
    1CHOL    R223699   1.479   6.988   5.175  0.4177 -0.1633 -0.1244
    1CHOL    R323700   1.352   6.770   5.074  0.0430 -0.0171  0.0176
    1CHOL    R423701   1.404   6.940   4.841  0.3017 -0.2388 -0.0875
    1CHOL    R523702   1.211   6.858   4.902  0.1682  0.1144 -0.0176
    1CHOL    C123703   1.240   6.707   4.553 -0.1175 -0.1456  0.0672
    1CHOL    C223704   1.035   6.836   4.228  0.0105  0.1013  0.1154
    1CHOL   ROH23705   1.667  20.869   3.070 -0.0795 -0.0257 -0.0166
    1CHOL    R123706   1.698  20.940   3.342 -0.1003  0.1080 -0.0475
    1CHOL    R223707   1.484  21.002   3.505 -0.1276  0.0702 -0.0589
    1CHOL    R323708   1.590  20.808   3.664 -0.0171  0.1884  0.0117
    1CHOL    R423709   1.387  20.938   3.831 -0.0728  0.1322 -0.0309
    1CHOL    R523710   1.597  20.907   3.882 -0.0601  0.2665 -0.0275
    1CHOL    C123711   1.430  20.719   4.169  0.0628  0.2794  0.0516
    1CHOL    C223712   1.320  20.623   4.380 -0.2082 -0.4028 -0.1211
    1W        W23713   6.835  12.411   1.224  0.0001 -0.0980  0.0776
    1W        W23714  19.754  10.166   2.852  0.1060 -0.1124  0.0243
    1W        W23715  10.294  15.559   9.610 -0.3676 -0.3247  0.3323
    1W        W23716  19.029  23.807   7.724 -0.0613 -0.1352 -0.1258
    1W        W23717  10.212   6.876   9.719  0.0302  0.1587  0.2837
    1W        W23718  19.477  13.505   8.209 -0.0131 -0.1310 -0.1046
    1W        W23719  19.353   0.824   2.390  0.0375 -0.1324  0.0306
    1W        W23720   5.245  14.498   3.458  0.2815 -0.1335  0.5755
    1W        W23721  26.636  14.310   9.469  0.0822  0.0162  0.0702
    1W        W23722  18.672   5.471   1.793  0.0831  0.4604 -0.2967
    1W        W23723   5.263  18.623   9.102 -0.1096  0.1129  0.0731
    1W        W23724  15.604  26.210   1.487  0.1265 -0.0738 -0.0440
    1W        W23725  10.265  15.750  10.160 -0.1613 -0.1234 -0.4030
    1W        W23726   1.229   8.792   1.853  0.3199  0.0031 -0.2019
    1W        W23727   8.877   8.037   3.373 -0.0836  0.3289  0.1941
    1W        W23728  14.543  22.376   1.083  0.1505  0.4409 -0.0844
    1W        W23729   0.761  26.710   1.437  0.1663  0.3375  0.1023
    1W        W23730  24.213  16.020   7.577  0.1741  0.0739  0.0398
    1W        W23731   6.612  20.543   9.994  0.0006  0.1626 -0.0406
    1W        W23732  12.988   5.212   8.548  0.0394 -0.0742 -0.0732
    1W        W23733   3.651  16.548   0.148  0.0706  0.0417 -0.0831
    1W        W23734  12.619  23.283   2.743  0.1192  0.2795  0.0606
    1W        W23735  19.993   6.125   2.876  0.0738 -0.1055  0.3617
    1W        W23736  18.694   8.911  10.265  0.0352 -0.2872 -0.1815
    1W        W23737  17.999   5.340   7.628  0.0617  0.0507  0.0609
    1W        W23738   8.510  19.486   8.763  0.1335  0.0170  0.3905
    1W        W23739   2.843  12.296   0.394 -0.0340 -0.0898  0.4031
    1W        W23740   0.616  18.803   7.860  0.1411 -0.1318 -0.0448
    1W        W23741  16.502  10.675   0.087  0.0358 -0.1721  0.2477
    1W        W23742  21.006  10.183   9.777 -0.1874  0.1492  0.1263
    1W        W23743  19.871  12.761   8.609 -0.0069  0.1999 -0.2504
    1W        W23744  22.346  18.748   0.996 -0.0226 -0.1204  0.0157
    1W        W23745   2.336  20.921   6.877 -0.2262  0.3348 -0.2201
    1W        W23746  15.737  26.417   9.865  0.1633 -0.0930  0.5177
    1W        W23747  25.628  18.171   0.777 -0.2199  0.0564 -0.1972
    1W        W23748   2.274  10.153   7.459  0.2005  0.0195  0.0359
    1W        W23749  27.035  18.380   9.587  0.3131  0.2043  0.1130
    1W        W23750  11.243   9.388   9.321  0.1059  0.2848  0.0283
    1W        W23751  14.197   6.211   0.956  0.0373  0.3575  0.1236
    1W        W23752  24.634  13.599   9.133 -0.3875  0.0077 -0.2684
    1W        W23753  11.135  11.528   8.009  0.2055 -0.2008  0.2827
    1W        W23754   9.930  27.508   8.738 -0.2178 -0.0055 -0.1988
    1W        W23755  28.047  18.080  10.234 -0.2238 -0.1709 -0.0557
    1W        W23756  21.567  19.195   9.247  0.0042 -0.0667  0.0727
    1W        W23757  19.229  14.779   8.770  0.1275  0.3041  0.0286
    1W        W23758  26.230  14.080   1.395  0.1128  0.1190 -0.0827
    1W        W23759  15.455  17.967   1.441 -0.0073 -0.2714  0.2595
    1W        W23760  26.854  15.179   7.791 -0.0088 -0.1488  0.0678
    1W        W23761  22.093  16.611   8.192  0.1501 -0.0593 -0.0813
    1W        W23762  15.421  23.391   8.784  0.4665  0.2001  0.0005
    1W        W23763   9.855   4.085   1.618  0.2557  0.0931  0.3228
    1W        W23764  12.142  21.765   9.785 -0.1462  0.2124 -0.2057
    1W        W23765  12.384   3.802   7.693  0.2190  0.3376 -0.2476
    1W        W23766  22.235  25.137   0.237 -0.1094  0.1358 -0.1758
    1W        W23767  23.421  14.407   2.021 -0.1031 -0.0720  0.1733
    1W        W23768   9.062  13.259   2.665 -0.2087 -0.1222 -0.2150
    1W        W23769  17.775  18.776   1.036 -0.0168  0.0410  0.1232
    1W        W23770  21.953  17.453   1.655  0.0702 -0.3118  0.2923
    1W        W23771  12.388  21.424   1.414  0.5313  0.2366  0.0206
    1W        W23772  16.511  21.798   7.545  0.1121 -0.0406  0.1174
    1W        W23773   9.836   7.230   0.090  0.1483 -0.1937  0.1833
    1W        W23774  14.199  18.571   9.352 -0.0461  0.3483 -0.2190
    1W        W23775  24.551  16.680   9.194  0.0216  0.1099  0.1521
    1W        W23776  27.170  22.015   6.972  0.0953  0.1207  0.0516
    1W        W23777   0.904   1.980   7.008 -0.0646  0.1747 -0.4815
    1W        W23778  25.109  23.285   0.772  0.0270  0.0986 -0.0828
    1W        W23779  11.269   2.470   1.425 -0.0312 -0.1652 -0.0738
    1W        W23780  13.463   4.394   0.363  0.5801 -0.0616 -0.2020
    1W        W23781  24.637   7.759   9.774  0.0690 -0.1230 -0.0998
    1W        W23782   0.944  20.221   7.242 -0.4151 -0.3524 -0.3018
    1W        W23783  12.651   4.122  10.278 -0.2395 -0.1713 -0.1119
    1W        W23784  20.152  12.727   0.300 -0.0051 -0.2160 -0.1013
    1W        W23785  11.543   7.318   8.345  0.1264 -0.0148 -0.1246
    1W        W23786   4.739  23.213   3.100 -0.2279 -0.2504  0.2463
    1W        W23787   1.704  21.582   8.819  0.1001  0.0435  0.2840
    1W        W23788  25.698  17.613   7.195  0.0237 -0.0851  0.0110
    1W        W23789  28.106  23.516   7.614  0.2051 -0.2332  0.0846
    1W        W23790  12.650   1.921   9.462 -0.2129  0.0157 -0.0170
    1W        W23791  25.690  23.283   8.153  0.1037 -0.0205  0.3487
    1W        W23792  23.624   4.006   8.782 -0.1050  0.0631  0.1109
    1W        W23793   0.997   8.412   6.447 -0.2783 -0.3247 -0.0549
    1W        W23794   6.474  12.942   9.383 -0.0902  0.1022  0.3777
    1W        W23795  10.398  14.109   3.903  0.1007  0.0725  0.0047
    1W        W23796   3.075  25.786   1.291  0.1434  0.2331 -0.1003
    1W        W23797  17.335  27.986   2.838  0.3147  0.0858 -0.3070
    1W        W23798  10.917  23.357   9.491 -0.1282 -0.0440 -0.3552
    1W        W23799   1.025  10.899   7.706 -0.2137  0.1292  0.1260
    1W        W23800  23.420  26.036   0.239 -0.0041  0.2646  0.0741
    1W        W23801  26.111  19.173   8.797  0.0747  0.4579  0.0656
    1W        W23802  18.364  18.288   9.490 -0.0130  0.2620  0.0199
    1W        W23803  21.799  10.595   2.292  0.0752 -0.1770  0.0810
    1W        W23804   0.526  13.871   1.291  0.0874 -0.3224 -0.0186
    1W        W23805   6.167  19.150   2.117 -0.0638 -0.1292 -0.1844
    1W        W23806  20.423  18.804   9.087 -0.1730 -0.1771 -0.0387
    1W        W23807   9.890  27.470   0.541  0.1950 -0.2246  0.0568
    1W        W23808  18.923   3.799   0.778  0.0499  0.3752  0.1096
    1W        W23809  15.479  21.177  10.022 -0.0059  0.0538  0.0419
    1W        W23810  23.557   6.584   7.328  0.0569 -0.0024 -0.2595
    1W        W23811  19.751  11.008   0.292  0.1495 -0.0334  0.0137
    1W        W23812  18.468   4.225   1.556 -0.1162 -0.0637 -0.0327
    1W        W23813   8.914  20.643   8.746 -0.2584 -0.1909  0.0434
    1W        W23814  25.148   6.133   1.486 -0.2088  0.0262  0.0564
    1W        W23815  12.870  11.678   9.473 -0.1215  0.0567  0.0699
    1W        W23816  11.341  12.433   0.345  0.1172 -0.0560  0.0533
    1W        W23817  17.539   0.084   8.028  0.0571 -0.0046 -0.1178
    1W        W23818   1.828  16.628   2.749  0.1820  0.1982 -0.0309
    1W        W23819  11.441  12.112   1.387  0.2520 -0.1513  0.2474
    1W        W23820  17.769  23.162   3.355 -0.0762 -0.1125 -0.3055
    1W        W23821  15.514   3.912   1.785  0.0002 -0.1205  0.2300
    1W        W23822   3.746  10.693   2.298  0.0004  0.1922 -0.1825
    1W        W23823  27.816  13.446   7.582  0.0488  0.1166  0.1861
    1W        W23824   4.440  24.385   0.225  0.2612  0.1471 -0.3390
    1W        W23825   1.472  13.849   1.209 -0.1881 -0.2226  0.1641
    1W        W23826  25.132  23.975   1.432 -0.3456  0.1270  0.1148
    1W        W23827  25.759  12.467   9.961 -0.0825  0.0369  0.0696
    1W        W23828   4.546  13.117   1.025  0.1549 -0.0080  0.0937
    1W        W23829  12.997   4.400   7.077  0.1245  0.0556  0.1164
    1W        W23830  25.908   9.617   0.203 -0.4099 -0.1692 -0.2221
    1W        W23831   4.540  10.875   2.732 -0.1221  0.0122 -0.2752
    1W        W23832  16.405  19.963   7.262  0.1257 -0.4292  0.2000
    1W        W23833   9.886   3.562   8.649  0.1020  0.0681 -0.1115
    1W        W23834   4.946  10.583  10.201  0.1768  0.0346  0.0705
    1W        W23835  14.053  24.723   0.996  0.0770  0.0670  0.0577
    1W        W23836  16.638  18.505   2.352  0.1939 -0.0591 -0.0163
    1W        W23837  15.453  16.897   9.966 -0.0109  0.1239  0.0019
    1W        W23838  24.461  17.183   9.410  0.2500  0.0450  0.0550
    1W        W23839   8.348   3.085   8.323 -0.1909  0.2531  0.0132
    1W        W23840  24.123   5.802   1.788  0.0622  0.1787  0.0810
    1W        W23841  10.361   7.101   9.276  0.1253  0.1793  0.0036
    1W        W23842  11.971  22.109   2.791  0.1372 -0.0490 -0.3983
    1W        W23843  24.522   6.618   2.730 -0.0264  0.0017  0.1909
    1W        W23844  18.229  13.191   2.962  0.0016 -0.1386  0.0961
    1W        W23845   7.897  23.674   8.471 -0.0785  0.1627 -0.0243
    1W        W23846  15.567  15.866   2.681 -0.2213  0.2292 -0.0815
    1W        W23847   5.734  24.107   1.920  0.0531 -0.1597  0.0904
    1W        W23848   5.661  10.123   2.944  0.1474 -0.2947 -0.3559
    1W        W23849  16.301   0.539   0.514  0.1049 -0.3484  0.0743
    1W        W23850  19.206  15.660   0.022  0.1633  0.0761  0.1649
    1W        W23851   2.638  27.415   2.111  0.1552  0.0001  0.2165
    1W        W23852   2.511  10.020  10.158 -0.0937  0.1906 -0.2117
    1W        W23853  16.508  23.960   0.724 -0.2239 -0.1224 -0.1543
    1W        W23854   0.457   3.048   7.913  0.2119  0.1070 -0.0059
    1W        W23855   4.677   1.407   1.887  0.2901  0.0475  0.0247
    1W        W23856   8.763   0.555   2.692  0.0199  0.0001 -0.2738
    1W        W23857  15.633  13.516   1.333 -0.2957 -0.1796  0.0167
    1W        W23858   1.253  19.485   2.489 -0.0492 -0.1216 -0.0184
    1W        W23859  25.782  20.787   6.373  0.0862  0.1769  0.0208
    1W        W23860  24.407  21.621   3.203  0.0844 -0.2723  0.1440
    1W        W23861  19.715   4.649   8.272 -0.1459  0.0554  0.0395
    1W        W23862  24.657  18.809   9.885 -0.0035  0.1417 -0.0687
    1W        W23863  15.694  15.968   9.860 -0.0776 -0.3615 -0.1155
    1W        W23864  14.333   4.783   0.174 -0.1914 -0.0625  0.0812
    1W        W23865   0.353  10.890   7.863 -0.0277 -0.0378 -0.0172
    1W        W23866  24.068   8.835   7.533 -0.0929  0.1098 -0.1182
    1W        W23867  16.234  17.711   4.101  0.1746 -0.1046  0.2653
    1W        W23868  16.059  16.926   0.909 -0.0825  0.1778  0.1473
    1W        W23869   6.013   4.829   7.059  0.0265 -0.0987 -0.3715
    1W        W23870  14.825   5.993   8.310  0.0565 -0.1610  0.0403
    1W        W23871  13.661  17.038   0.764  0.1899 -0.0859  0.3888
    1W        W23872  11.863   3.040   8.053 -0.1450 -0.2931 -0.0602
    1W        W23873  24.415  18.872   0.998  0.1402  0.0706 -0.3624
    1W        W23874   5.964   0.097   8.962  0.2136  0.2384  0.0186
    1W        W23875  28.063   4.183   8.994 -0.2370  0.0006 -0.0630
    1W        W23876  11.568  24.788   8.949 -0.3197 -0.0353  0.0237
    1W        W23877   4.034   7.854   1.434  0.1121 -0.3060 -0.1258
    1W        W23878  22.754   6.955   9.821  0.0360  0.1340 -0.0512
    1W        W23879   9.905   5.335   3.519 -0.1690  0.2048  0.1096
    1W        W23880   8.042  18.151   2.714 -0.0910 -0.2986  0.0737
    1W        W23881   3.416  13.649   0.374  0.2831 -0.1654 -0.0550
    1W        W23882  17.457  17.790   2.728  0.1543  0.0898 -0.2825
    1W        W23883  15.899  15.426   2.907  0.1636  0.0780  0.0706
    1W        W23884   3.469   4.483   9.769  0.0540 -0.2185  0.1161
    1W        W23885   6.526   6.936   8.740  0.0986 -0.1241  0.2098
    1W        W23886  20.972  26.610   7.382  0.0897  0.0028  0.0277
    1W        W23887   4.131  27.628   7.784  0.1392  0.3381  0.2500
    1W        W23888  23.383   1.546   8.397  0.0350  0.0018 -0.1552
    1W        W23889   2.560  17.520   9.141 -0.0086 -0.0578 -0.2258
    1W        W23890  22.997   2.149   1.920  0.0746 -0.1193  0.2603
    1W        W23891  22.008  20.280   2.815 -0.2565 -0.0470 -0.0292
    1W        W23892   1.913  12.196   0.031  0.0294 -0.0207  0.0191
    1W        W23893  19.362  21.296   0.137 -0.2625 -0.1176  0.0199
    1W        W23894  12.091   9.745   2.189 -0.1373 -0.1305  0.0396
    1W        W23895   6.223   7.515   8.013 -0.0665  0.0390 -0.1101
    1W        W23896  24.728  22.181  10.346  0.1345  0.2998  0.1956
    1W        W23897  24.781  26.519   9.965  0.1516  0.0503 -0.1458
    1W        W23898  11.457  21.569   0.131 -0.1265 -0.0570 -0.1219
    1W        W23899  27.916   2.051   1.201  0.0677 -0.4217  0.0906
    1W        W23900  25.779  17.711   0.671 -0.1117  0.1425 -0.3600
    1W        W23901   4.522   5.350   6.210 -0.0965 -0.0287 -0.2418
    1W        W23902  13.771  24.650   3.492  0.1902 -0.3562 -0.0341
    1W        W23903  14.730  15.159  10.125  0.1020 -0.0389  0.1662
    1W        W23904  17.684   8.097   9.818  0.2011  0.2010  0.0523
    1W        W23905   2.441   1.340   6.410 -0.1917 -0.0971 -0.1435
    1W        W23906   9.392   6.592  10.203 -0.2445  0.1972 -0.2904
    1W        W23907  17.679  15.568   0.959  0.0181 -0.1392  0.1394
    1W        W23908  13.736   1.648   8.296  0.2973 -0.0673 -0.0546
    1W        W23909   0.583  26.338   2.580 -0.0002 -0.0562 -0.1722
    1W        W23910   8.392  18.700   9.247 -0.1067 -0.3490 -0.1717
    1W        W23911  13.495   9.502   0.227  0.1017 -0.0029  0.2675
    1W        W23912  17.163  25.192   1.589 -0.1805 -0.2811 -0.2468
    1W        W23913  13.295  10.737   0.614  0.1845  0.0664  0.3300
    1W        W23914   1.720   9.802   7.427  0.0053 -0.2130  0.0744
    1W        W23915  16.295   7.017   1.078  0.1703  0.1614  0.0053
    1W        W23916  27.442   2.886   2.220 -0.0529  0.1412  0.2060
    1W        W23917   5.046  21.154  10.194  0.1405 -0.0378  0.0825
    1W        W23918  26.697  14.937   1.760 -0.0728  0.4598 -0.0491
    1W        W23919  13.886  24.050   7.298  0.1239  0.3938 -0.0565
    1W        W23920  12.035  27.884   8.825  0.4651  0.5224 -0.0829
    1W        W23921  10.516   7.463   1.689 -0.2031  0.1442  0.1122
    1W        W23922   5.726   3.507   1.364 -0.1648  0.2036 -0.1216
    1W        W23923   0.677  22.939   1.632  0.0994 -0.0651  0.2945
    1W        W23924  18.542   4.629   0.885  0.2526 -0.0228 -0.0264
    1W        W23925  27.152   2.427   7.743  0.1763 -0.0414  0.2633
    1W        W23926  23.266  17.844   9.969 -0.0880  0.1383  0.0062
    1W        W23927   7.153  17.202   8.751 -0.4481 -0.3549 -0.0972
    1W        W23928  21.263  16.817   1.008 -0.0604 -0.2727 -0.1875
    1W        W23929   2.806  25.030   1.002 -0.0498 -0.0389  0.1203
    1W        W23930  26.020   9.565   7.062 -0.0008 -0.2830 -0.2890
    1W        W23931  15.721  22.211   7.922 -0.0354 -0.2806  0.1126
    1W        W23932   2.516  19.632   9.818 -0.0540 -0.1027  0.0188
    1W        W23933  11.910  26.134   2.270  0.0413  0.1307 -0.1779
    1W        W23934  16.005   6.582   7.791  0.0398  0.1618  0.3763
    1W        W23935   2.334  22.780   0.224  0.0408  0.0266  0.0317
    1W        W23936  12.496   0.481   9.782 -0.0696 -0.2915 -0.3110
    1W        W23937   3.211   6.185   8.246 -0.0696 -0.1568  0.4095
    1W        W23938  20.572  27.973   1.388  0.1038 -0.0531 -0.0131
    1W        W23939  25.241  14.983   0.929  0.2174 -0.2327  0.0963
    1W        W23940   7.168  10.609   8.918 -0.2114 -0.3411 -0.2200
    1W        W23941   4.211   8.635   9.989 -0.1891  0.2839  0.0950
    1W        W23942   9.113   8.442  10.239 -0.2183 -0.1101  0.0611
    1W        W23943  11.612   5.140   7.629  0.2942  0.1709  0.2976
    1W        W23944  14.297  12.850   1.885  0.2144 -0.0146 -0.3176
    1W        W23945  25.277  14.384   0.408 -0.0844 -0.1506  0.1119
    1W        W23946  17.210  24.131  10.094  0.2105 -0.0259 -0.0728
    1W        W23947   5.213  24.923   8.931 -0.1501 -0.0522  0.1202
    1W        W23948  26.276  20.521   1.454 -0.1981  0.1896 -0.0304
    1W        W23949  25.378   4.230   9.238 -0.1521 -0.1970  0.1695
    1W        W23950  18.187  23.885   8.724  0.3086 -0.1115  0.3757
    1W        W23951  18.179  17.252   2.449 -0.3624  0.0799  0.0750
    1W        W23952  25.364   3.248   9.460  0.0337 -0.0067 -0.6838
    1W        W23953  18.680  23.417   2.384 -0.1600 -0.1092 -0.3691
    1W        W23954   2.794  28.100   7.700 -0.0725  0.1766 -0.0361
    1W        W23955   5.869  23.266   9.957 -0.1543 -0.2379  0.1986
    1W        W23956  10.104  18.568   7.610  0.1590 -0.1076 -0.2792
    1W        W23957  20.072  11.407   0.226 -0.1630 -0.1395 -0.1153
    1W        W23958  21.070  12.155   0.728 -0.3006 -0.1222  0.1314
    1W        W23959  23.936   8.593  10.268 -0.2010 -0.2369 -0.1190
    1W        W23960   4.307  19.698  10.281 -0.1599 -0.0556 -0.0822
    1W        W23961  26.030   1.215   0.322 -0.0254  0.2091 -0.1618
    1W        W23962  23.056  26.687   3.499 -0.4327 -0.1761 -0.2276
    1W        W23963   1.579   0.310   2.279 -0.1007 -0.2987 -0.1714
    1W        W23964  11.453  15.703   2.646  0.4040 -0.0578 -0.0926
    1W        W23965  24.192   4.481   0.871 -0.0097  0.1412 -0.0203
    1W        W23966   5.853  19.738  10.357  0.0132 -0.1957 -0.3289
    1W        W23967  24.915  10.722  10.346  0.2526 -0.2120 -0.0516
    1W        W23968   1.710  20.131   1.506 -0.0611  0.3128 -0.0126
    1W        W23969   6.469  21.135   9.377  0.0518  0.1927  0.1222
    1W        W23970  17.510  14.907   2.478 -0.0345 -0.0335 -0.3957
    1W        W23971  22.866  11.192   0.976 -0.0204 -0.0485 -0.0908
    1W        W23972   7.467   6.812   0.142  0.0281  0.0297 -0.2768
    1W        W23973  20.098  22.240   2.590 -0.2044 -0.1529  0.0848
    1W        W23974  27.988   9.368   0.529  0.0799  0.3860  0.2075
    1W        W23975  20.233  22.539   2.121  0.2446  0.1436 -0.1436
    1W        W23976   2.916  23.042   1.983  0.1985 -0.0707  0.0348
    1W        W23977   9.063  13.858   1.876  0.3019 -0.0660 -0.2127
    1W        W23978  15.057   7.814   0.359  0.1369 -0.1422  0.0669
    1W        W23979   1.808   4.542   1.247 -0.1290 -0.0374 -0.2676
    1W        W23980  20.296  10.543   9.909  0.2249 -0.1198  0.2688
    1W        W23981  16.718  10.919   1.020 -0.1601  0.0284  0.0154
    1W        W23982   4.864  17.371   1.415 -0.0434 -0.1418 -0.0980
    1W        W23983  21.616   7.895   1.164  0.0396 -0.1313 -0.0668
    1W        W23984   3.603  14.413   8.563  0.0428  0.2949 -0.2788
    1W        W23985   6.309   6.856   2.121  0.0043 -0.0973  0.1348
    1W        W23986   8.747  26.299   0.590 -0.0624 -0.1488 -0.2396
    1W        W23987  17.923  12.823   1.956  0.1783  0.1278 -0.1714
    1W        W23988  21.892  23.423   2.837  0.0392  0.3705  0.0010
    1W        W23989   9.761  12.621   1.533  0.0459 -0.0730 -0.0875
    1W        W23990  16.630   0.267   2.897 -0.3289 -0.0832  0.0957
    1W        W23991  17.091  17.767   9.059  0.2271  0.0504 -0.2313
    1W        W23992  16.397  14.772  10.215 -0.0887 -0.1877 -0.1568
    1W        W23993  10.230  13.098   2.259 -0.2315 -0.1179  0.2480
    1W        W23994  18.624   1.503   3.765 -0.0015 -0.1058 -0.1317
    1W        W23995  10.390   7.936   8.124  0.0619  0.1619 -0.0183
    1W        W23996  17.155  11.192   8.471  0.0104  0.2027  0.1750
    1W        W23997  20.899  19.466   2.081 -0.2079 -0.2057 -0.3952
    1W        W23998   8.496  10.693   8.828  0.1441  0.3811  0.0362
    1W        W23999  19.282  27.283   3.147  0.2047  0.2990  0.0525
    1W        W24000   0.872  22.362   2.373 -0.1309 -0.0200  0.1616
    1W        W24001  15.537  21.624   8.802  0.1316 -0.4286 -0.1021
    1W        W24002  15.997   8.973   8.280 -0.2815  0.0439 -0.1271
    1W        W24003  21.536  10.303   9.706 -0.3727 -0.2341 -0.0540
    1W        W24004   5.955  21.597  10.247  0.0456  0.0248 -0.0592
    1W        W24005   0.685   1.410  10.137  0.0454  0.0517  0.3110
    1W        W24006  27.143   8.841   9.015 -0.1171 -0.2065  0.3397
    1W        W24007  11.811   6.238   0.550 -0.0620 -0.0928 -0.2384
    1W        W24008  12.731   4.202   1.596  0.4430  0.0833  0.1291
    1W        W24009  10.811  19.303   8.450 -0.0821 -0.1114 -0.1546
    1W        W24010   0.286  25.853   0.416  0.3870 -0.2401  0.1914
    1W        W24011  24.182  23.228   2.866  0.2509  0.1891  0.0937
    1W        W24012   5.911  25.974   8.434 -0.2595  0.2233 -0.1835
    1W        W24013  15.773  21.466   9.242 -0.1269  0.2895  0.0315
    1W        W24014  17.298   6.603   0.438 -0.3011  0.1889 -0.0522
    1W        W24015  23.385  20.084   7.968  0.1745  0.0660  0.2011
    1W        W24016  25.250   1.414   8.575  0.0696  0.0616 -0.0609
    1W        W24017   1.924  27.885   9.868  0.1885 -0.2326  0.0629
    1W        W24018  15.641  25.254   8.317 -0.0655  0.1063 -0.0619
    1W        W24019  20.707   5.808   8.298  0.0487  0.0666 -0.0034
    1W        W24020   0.167  23.094   0.547  0.3244  0.1113 -0.2618
    1W        W24021   3.545   4.683   0.585  0.2259  0.0477 -0.1067
    1W        W24022  22.464   9.553   9.351 -0.0388 -0.0510  0.1965
    1W        W24023  18.367   0.736   3.195 -0.0227 -0.0930 -0.0381
    1W        W24024   2.725  14.029   6.223 -0.2107  0.5340 -0.5176
    1W        W24025  15.970   3.558   8.698  0.0035 -0.0343  0.0828
    1W        W24026  20.509  13.753   0.063 -0.3160  0.1198  0.1644
    1W        W24027   5.001  27.222   2.473  0.2006 -0.0240 -0.1185
    1W        W24028  23.233  27.766   1.764  0.0764  0.1374 -0.0140
    1W        W24029  10.809  24.593   1.606  0.0629  0.3729 -0.3083
    1W        W24030   0.500  12.899   7.679  0.1929  0.0464 -0.1845
    1W        W24031  21.974   5.754   2.725 -0.2059 -0.2970  0.0743
    1W        W24032  19.681   5.247   8.256 -0.3474 -0.1580  0.3144
    1W        W24033   1.237  23.650   7.272 -0.1111  0.0250  0.0230
    1W        W24034  27.917   8.810   2.370 -0.1679 -0.2648 -0.1231
    1W        W24035   2.609  22.522   7.422 -0.0259  0.2041 -0.2894
    1W        W24036   4.768  14.533   2.099  0.0226  0.0674  0.0660
    1W        W24037   7.502  24.046   9.685 -0.0818 -0.0278  0.3684
    1W        W24038   9.185  10.947   2.954  0.0503 -0.0812 -0.0480
    1W        W24039  25.697  14.717   9.560 -0.1865 -0.0828  0.1344
    1W        W24040  22.331   2.642  10.100 -0.0961 -0.0058 -0.1730
    1W        W24041  22.047   8.205   9.371 -0.0562  0.0771 -0.2413
    1W        W24042  17.625   5.429   8.112  0.2849  0.0468  0.0902
    1W        W24043   4.805  17.623   7.793  0.2326  0.1155  0.0352
    1W        W24044  12.372  10.588   0.779 -0.0681  0.2153 -0.1170
    1W        W24045   4.087  19.431   7.869 -0.0782 -0.0117 -0.4879
    1W        W24046  27.087  21.003   8.437  0.3727  0.2192 -0.1337
    1W        W24047  21.720  16.989   0.875  0.0608 -0.1948 -0.2644
    1W        W24048  21.475   9.320   8.343 -0.1114 -0.1047  0.1030
    1W        W24049  24.865  17.254   1.656  0.0982 -0.1839 -0.0390
    1W        W24050   7.516   4.958   7.656 -0.0528 -0.0368 -0.3596
    1W        W24051  26.600  21.941   9.496  0.1504  0.1659  0.2184
    1W        W24052   4.423  10.715   9.456 -0.0682 -0.0648  0.4137
    1W        W24053  24.847  23.564   8.639  0.1638 -0.0490 -0.0295
    1W        W24054  12.087  25.050   7.504  0.1331  0.0503  0.0270
    1W        W24055  12.767  22.897   6.746 -0.0068  0.0491 -0.0779
    1W        W24056  14.372  14.941   9.779  0.1658 -0.1627  0.0716
    1W        W24057   1.554  27.852   8.931  0.0287  0.1010 -0.1204
    1W        W24058  14.854  16.234   9.537  0.0478  0.0945 -0.2099
    1W        W24059  17.034  20.574   3.022  0.2580 -0.1348  0.1916
    1W        W24060   5.037  26.657  10.115 -0.4962  0.0093  0.2032
    1W        W24061  10.409   3.017   1.104 -0.0174 -0.1210 -0.1227
    1W        W24062   2.229  23.265   6.966 -0.1796  0.4953 -0.2545
    1W        W24063  24.546   0.863   1.839 -0.2903  0.0298  0.1326
    1W        W24064  20.276   8.697   8.278  0.0581  0.0348  0.2480
    1W        W24065  22.878  22.976   6.890  0.0184 -0.1682 -0.0666
    1W        W24066  16.134  18.300   0.716 -0.0166 -0.4279  0.0912
    1W        W24067  11.645  25.610   9.439 -0.1359  0.0627  0.1557
    1W        W24068   1.353   1.544   1.377 -0.2919  0.0688 -0.1258
    1W        W24069  19.901  16.916   2.596 -0.1491  0.0248  0.0441
    1W        W24070  12.038  15.520   0.961  0.3793 -0.1758  0.1349
    1W        W24071  25.686   0.524   9.626  0.2179  0.3313 -0.0714
    1W        W24072  21.741  23.745   9.924 -0.0012  0.4358  0.0150
    1W        W24073  12.256  15.984   0.173  0.2485 -0.1702  0.0366
    1W        W24074  16.984   7.329  10.253  0.1558 -0.0279  0.0185
    1W        W24075  14.267  15.827   1.158  0.2643  0.3110  0.0983
    1W        W24076  26.196  25.044   8.021  0.3159  0.1268  0.1515
    1W        W24077  24.687  14.405   1.220  0.0241  0.3365 -0.3130
    1W        W24078   0.393   6.562   9.752  0.0187  0.2367  0.2074
    1W        W24079  25.347   5.733   1.261  0.0175 -0.2713 -0.0469
    1W        W24080  23.265  18.004   2.243 -0.1848  0.2989 -0.0168
    1W        W24081  17.147   0.893   9.193  0.1416  0.0971  0.1365
    1W        W24082   2.134   7.258   2.337  0.0929 -0.0056 -0.1266
    1W        W24083  24.864  26.590   9.400 -0.2543 -0.1185 -0.2907
    1W        W24084   5.323  17.932  10.329 -0.2360  0.1762 -0.0986
    1W        W24085   2.877   7.009   1.176  0.3111  0.1052  0.0436
    1W        W24086  18.014  23.191   1.161 -0.1524  0.1750  0.4682
    1W        W24087  24.008  10.039  10.060 -0.1001 -0.2324  0.0769
    1W        W24088  17.895  10.710   0.013 -0.2338  0.1319  0.0644
    1W        W24089   0.079  21.630   9.227 -0.1417 -0.0001 -0.0867
    1W        W24090  19.421  24.753   7.463 -0.2728 -0.2124 -0.0391
    1W        W24091  19.126  16.331   8.120 -0.0862 -0.1641  0.0701
    1W        W24092   6.503  25.489   0.555 -0.1002 -0.0491 -0.0876
    1W        W24093  23.799  11.825   8.063  0.3581 -0.0477  0.0301
    1W        W24094  23.369  18.565   3.026  0.0698 -0.0300  0.0814
    1W        W24095   3.252   1.398   1.926 -0.0943 -0.1411  0.0486
    1W        W24096  12.688  10.507   2.556  0.3091 -0.1508  0.1130
    1W        W24097  10.927  16.901   7.502  0.1518 -0.1317  0.0129
    1W        W24098  25.802  24.597   9.816  0.2690  0.0570  0.2234
    1W        W24099   6.728  18.580   9.379  0.3441  0.1534  0.0802
    1W        W24100   5.167   1.881   7.602  0.2082 -0.1296  0.2201
    1W        W24101   7.270   9.703   1.874 -0.3594  0.2975 -0.0336
    1W        W24102   9.223  24.584   1.593  0.0980 -0.1140  0.1366
    1W        W24103  26.339   0.207   9.228 -0.2426 -0.4370  0.1290
    1W        W24104  18.040   2.588   1.191 -0.0344  0.0667 -0.0406
    1W        W24105  10.156  22.318   2.254  0.3701 -0.1162  0.3311
    1W        W24106  14.487  22.613   7.742  0.2926 -0.0289  0.0430
    1W        W24107   6.843  10.258   8.038  0.1502 -0.0599  0.4025
    1W        W24108  12.579   4.242   7.974 -0.0855  0.1946  0.0101
    1W        W24109  19.100   3.673   6.237  0.0481 -0.2762  0.3340
    1W        W24110   5.621  17.671   9.539  0.1232  0.2555  0.0732
    1W        W24111   9.624   8.219   3.480  0.0152  0.0470  0.1142
    1W        W24112  25.378   3.998   9.778  0.0054 -0.2024  0.0341
    1W        W24113   4.989   8.593   9.645  0.0062 -0.0683 -0.0479
    1W        W24114   4.539  21.054   8.767 -0.0203  0.0184  0.2930
    1W        W24115  15.341  10.804   8.440  0.0063 -0.2177 -0.1613
    1W        W24116  21.653  27.604   6.875 -0.0295  0.1693  0.1920
    1W        W24117   7.111   2.121   8.507 -0.1202  0.0783 -0.1097
    1W        W24118   6.449  16.941   8.001 -0.0294 -0.1834 -0.0069
    1W        W24119   3.001   0.963   7.698  0.2190  0.0458 -0.3880
    1W        W24120  20.004   5.347   9.906  0.2712 -0.1233  0.0445
    1W        W24121  10.398  19.875   9.667 -0.0712 -0.2198 -0.1103
    1W        W24122  12.929  23.048  10.075  0.1973  0.0599 -0.1001
    1W        W24123   1.089  28.095   2.276  0.1561 -0.1440  0.4324
    1W        W24124   4.955  10.850   9.324 -0.0745 -0.0679  0.0303
    1W        W24125  15.576  21.507   1.582 -0.3171 -0.2353  0.0949
    1W        W24126   6.908   3.484   2.374 -0.3862 -0.1409 -0.2992
    1W        W24127  11.033  24.398   0.524 -0.1912  0.1030  0.0842
    1W        W24128  10.859  23.070   7.736 -0.1249 -0.1561  0.2062
    1W        W24129  24.917   6.325   2.539 -0.1750 -0.0723  0.1409
    1W        W24130   1.518  15.476   9.189 -0.1875 -0.0019  0.0316
    1W        W24131   5.398   9.048   9.679  0.4072  0.1316  0.2609
    1W        W24132  15.294  26.321   7.378 -0.2260  0.0626  0.0421
    1W        W24133   2.791  11.115   7.354 -0.1827 -0.1189 -0.0127
    1W        W24134  10.489  21.881   9.273 -0.2384 -0.0316 -0.0389
    1W        W24135   6.009  18.036   9.670 -0.1316 -0.0189 -0.0979
    1W        W24136   5.150   3.388   6.244 -0.1750 -0.0205  0.0610
    1W        W24137  24.291   1.130   2.719 -0.0148 -0.1222 -0.1240
    1W        W24138  25.481  11.132   1.408 -0.1608 -0.0460  0.4397
    1W        W24139  19.636   3.752   9.441  0.0355  0.3659 -0.3124
    1W        W24140  26.258  26.812   2.902  0.4235 -0.2702  0.1490
    1W        W24141  17.633   6.380   0.796 -0.0471  0.0303 -0.1252
    1W        W24142   3.096   3.331   7.602 -0.0712  0.0048  0.1905
    1W        W24143   3.403  24.216   8.368  0.1133 -0.0295 -0.0409
    1W        W24144   4.578   9.639   2.875  0.0360  0.2452 -0.2784
    1W        W24145   7.430  10.861   8.471  0.3912  0.0106  0.3503
    1W        W24146  12.803  17.367   7.626  0.2347  0.3107 -0.0803
    1W        W24147   6.413  22.646   2.238 -0.0206 -0.0514  0.3183
    1W        W24148  17.847   6.681   7.703  0.2132  0.1013 -0.1250
    1W        W24149  17.217  14.284   8.065 -0.1255  0.1603  0.0890
    1W        W24150  13.562  17.032   0.057 -0.1301 -0.0879  0.2775
    1W        W24151   4.590  18.721   9.004 -0.0492  0.1419 -0.1222
    1W        W24152  25.238  21.485   9.578 -0.0638  0.1018 -0.0566
    1W        W24153   7.923   0.963   6.481 -0.1305  0.2280 -0.0973
    1W        W24154  14.873   6.810   2.523 -0.0885  0.1109  0.1179
    1W        W24155  11.725  17.628  10.332 -0.0401 -0.1094 -0.3917
    1W        W24156   5.106  10.889   2.625 -0.0939 -0.2245  0.1511
    1W        W24157  25.008  17.398   1.112 -0.0226 -0.0880 -0.0101
    1W        W24158  26.575  18.441   2.115 -0.2306  0.0026  0.2210
    1W        W24159  21.370  13.531   0.736  0.2773 -0.3655 -0.3887
    1W        W24160   6.065   4.777   9.499  0.1921  0.2368  0.0404
    1W        W24161  15.110  23.010   0.258 -0.4097 -0.0643 -0.0804
    1W        W24162  18.549  25.062  10.351  0.1302  0.0155 -0.0411
    1W        W24163  24.761  16.848   1.145 -0.1526 -0.1634  0.0771
    1W        W24164   7.340   5.942   7.801 -0.0873 -0.1259 -0.1748
    1W        W24165   1.098  25.143   9.505 -0.0117 -0.1926 -0.1147
    1W        W24166   5.157   5.673   7.975  0.2561 -0.0528  0.2285
    1W        W24167   5.536  20.343   1.586  0.1604  0.3275  0.0617
    1W        W24168   6.077   5.011   1.664 -0.0238 -0.1466 -0.3210
    1W        W24169  16.198  17.845   8.408 -0.0277  0.1484  0.4579
    1W        W24170  16.508  26.871   8.005 -0.0559  0.2871  0.0678
    1W        W24171  12.244   6.203   0.346  0.1558 -0.0850 -0.1669
    1W        W24172  18.398   7.029   9.031  0.2412 -0.1578  0.1659
    1W        W24173  19.879  15.388   9.921 -0.2247 -0.2607  0.0349
    1W        W24174   8.807   1.278   7.925  0.0106 -0.3393  0.1174
    1W        W24175   5.749  15.245   3.004 -0.0229 -0.3056 -0.3113
    1W        W24176  23.468  20.126   0.396 -0.1979 -0.0769  0.1135
    1W        W24177  28.079  10.237   3.044 -0.1185  0.2393 -0.1809
    1W        W24178  20.789  22.015   0.822 -0.0418 -0.0093  0.1453
    1W        W24179  27.647  12.703   9.518 -0.3577  0.0010 -0.0789
    1W        W24180  27.783  17.123   1.875 -0.1089  0.2528  0.0082
    1W        W24181   4.289  11.924   6.712 -0.1642  0.1517 -0.1321
    1W        W24182  12.149  16.367   1.083  0.0936 -0.1378  0.2362
    1W        W24183  18.566   3.194   9.626 -0.0879 -0.1488  0.1015
    1W        W24184  19.460  16.117   7.514  0.0967  0.0987  0.2259
    1W        W24185  12.763  23.813   9.538 -0.0712  0.0756  0.0728
    1W        W24186  16.889  25.542   9.146  0.0307  0.2843  0.1515
    1W        W24187  15.465  15.998   1.507 -0.0998  0.2790 -0.0785
    1W        W24188  12.296  25.079   8.511  0.2633  0.1025  0.1204
    1W        W24189   4.725   3.128   8.843  0.2453  0.0227  0.1852
    1W        W24190   1.417  22.252   9.880  0.0926  0.0812 -0.0588
    1W        W24191   2.328  13.697   0.492  0.0094 -0.0219 -0.1022
    1W        W24192   6.758   7.522   7.838 -0.2644 -0.0038  0.2047
    1W        W24193  26.135  11.820   9.293  0.1251 -0.0414 -0.0121
    1W        W24194  20.261  15.207   0.948  0.2088  0.2305  0.3030
    1W        W24195  25.295   0.052   0.472  0.0544 -0.1505  0.0496
    1W        W24196   9.091   2.475   7.255 -0.0466  0.0735  0.4398
    1W        W24197   6.724  10.960   9.036 -0.0830 -0.3942 -0.0565
    1W        W24198  25.679  24.759   3.184  0.2054  0.0931 -0.0114
    1W        W24199   7.071  23.766   9.915  0.0181  0.3325 -0.3415
    1W        W24200  25.170  20.526   9.705  0.2038  0.1633  0.1746
    1W        W24201  24.686  11.669   7.089  0.1164  0.2173 -0.1523
    1W        W24202  17.296   0.259   2.147  0.2061  0.3944 -0.3806
    1W        W24203  14.080   5.512   1.806 -0.1580 -0.1975  0.0842
    1W        W24204  13.999  14.510  10.061  0.2071  0.3555 -0.0708
    1W        W24205  23.742   2.794   7.647 -0.0959 -0.2463 -0.1119
    1W        W24206   8.839  21.602   8.832 -0.2067  0.0847 -0.0921
    1W        W24207  17.019   7.364   0.373 -0.2141 -0.5268  0.1526
    1W        W24208  14.140  13.961   2.368  0.0942  0.2823 -0.1266
    1W        W24209   8.239  16.985   3.632 -0.0202  0.0269  0.2434
    1W        W24210  13.210  11.432   0.979 -0.0994  0.0467  0.0850
    1W        W24211  11.978  15.002   9.688 -0.1211  0.0287  0.1683
    1W        W24212  21.657  26.913   1.349 -0.1706 -0.0122 -0.0299
    1W        W24213   0.965  14.862   0.161 -0.0798 -0.0582 -0.0604
    1W        W24214   8.207   2.917   1.582  0.1705 -0.2997  0.2493
    1W        W24215  20.942  21.098   3.394  0.2673  0.0919 -0.1566
    1W        W24216   0.136  26.322   7.185  0.0839 -0.1023  0.1085
    1W        W24217  25.827  27.518  10.204 -0.0073  0.0520  0.0899
    1W        W24218   5.887  13.752   1.615 -0.0639  0.2350  0.0703
    1W        W24219  10.219   8.151   8.554  0.4635 -0.1542 -0.0533
    1W        W24220  21.910  27.920   2.712  0.1153  0.1115  0.1566
    1W        W24221   1.080  15.649   6.132 -0.0542 -0.1184  0.1930
    1W        W24222  23.509  11.492   8.832 -0.0287  0.1634 -0.0113
    1W        W24223  23.629  14.192   7.196 -0.1574  0.2664  0.4491
    1W        W24224  25.661  15.003   9.947 -0.0365 -0.1023 -0.1205
    1W        W24225  27.586  26.150   1.815 -0.1175  0.0536  0.1200
    1W        W24226  24.789  19.573   2.762 -0.4145  0.2877  0.0339
    1W        W24227  24.471  20.124   0.787  0.0861 -0.1676 -0.0704
    1W        W24228   8.305  17.142   2.363 -0.2639  0.3961  0.0042
    1W        W24229   4.215   0.060   2.114 -0.0301 -0.0339  0.1692
    1W        W24230   5.164  11.606   9.281 -0.2164  0.1366 -0.1770
    1W        W24231  11.787   5.319   0.230  0.1418 -0.2006 -0.2316
    1W        W24232   5.693  13.296  10.330 -0.2289 -0.0888  0.1418
    1W        W24233  27.286  20.298   2.235  0.1504 -0.1494 -0.0071
    1W        W24234  27.893   1.701   8.045  0.1329  0.1466 -0.2383
    1W        W24235   7.071  11.120   8.701 -0.0984 -0.0981  0.0799
    1W        W24236  14.844   1.736   0.429  0.0055  0.1255  0.0627
    1W        W24237  17.404   9.039   9.998 -0.1130 -0.1730 -0.3494
    1W        W24238  27.609  15.858   0.063 -0.0549  0.0545 -0.0016
    1W        W24239   2.178  17.632   7.272 -0.0579  0.0983 -0.0117
    1W        W24240   7.288  27.039   2.759  0.1246 -0.0871 -0.2648
    1W        W24241  20.304  11.384   2.714  0.0328  0.2210  0.0380
    1W        W24242   3.474  26.219   8.753 -0.2831  0.2216  0.1750
    1W        W24243   5.095   0.502   8.587  0.1260 -0.0785 -0.0896
    1W        W24244  10.803  21.397   2.149 -0.1997 -0.2223  0.1752
    1W        W24245  13.599  10.667   9.981 -0.3734  0.1338 -0.0144
    1W        W24246  13.557  22.665   2.874  0.2931  0.0733 -0.1156
    1W        W24247  16.206   4.429   0.028  0.0014 -0.6544  0.0902
    1W        W24248   9.239   2.580   9.641  0.0007  0.1691 -0.2020
    1W        W24249  15.673  24.789   8.720 -0.2639 -0.1587  0.0409
    1W        W24250  27.006  11.556   7.395 -0.2889 -0.2048  0.0699
    1W        W24251   0.143  24.142   8.902  0.0960 -0.0887 -0.2112
    1W        W24252  27.729   0.305   1.766  0.1142  0.2547  0.1650
    1W        W24253   1.127   7.895   9.002 -0.1659  0.1641  0.0467
    1W        W24254  24.684  23.615   9.137  0.1691 -0.3835  0.1442
    1W        W24255  24.350  26.618   9.724  0.0756 -0.3207 -0.3431
    1W        W24256  15.937   4.846   2.961 -0.1959 -0.0134 -0.3043
    1W        W24257  19.359   2.730   3.460  0.2955  0.2574  0.2539
    1W        W24258  23.605  25.587   2.434 -0.0514 -0.1251  0.2167
    1W        W24259  12.595  15.183   1.710  0.2243 -0.1853 -0.0391
    1W        W24260  12.979   3.062   9.929 -0.0105 -0.0435  0.0097
    1W        W24261  21.628   6.426   9.065  0.0968 -0.2100  0.1335
    1W        W24262  11.483  18.932   2.517  0.0901  0.1991 -0.0295
    1W        W24263   1.849  20.953   8.179 -0.1240  0.2059  0.1016
    1W        W24264   2.611   0.765   9.015 -0.0868 -0.0233  0.0493
    1W        W24265   3.119  20.504   9.645  0.0504  0.0463 -0.0195
    1W        W24266  21.667   1.607   9.557  0.0702  0.0792 -0.3079
    1W        W24267   0.676   2.666   9.708 -0.0269  0.1347  0.1751
    1W        W24268  19.677  23.398   2.139 -0.0662 -0.0695  0.0182
    1W        W24269  18.931  17.519   3.048  0.3281  0.1860  0.2831
    1W        W24270  14.886  18.830   9.993  0.2873  0.0062 -0.0739
    1W        W24271  17.069   1.476   3.487  0.2578  0.0318  0.0169
    1W        W24272  20.334  16.030   8.606 -0.0885  0.1156 -0.1148
    1W        W24273  25.229  14.061   9.922 -0.1415  0.2819  0.2500
    1W        W24274   2.366   6.730   6.914 -0.3165 -0.0654  0.0194
    1W        W24275  27.667  24.182   2.451  0.0686  0.1641  0.1381
    1W        W24276  21.688   4.651   0.470 -0.3155 -0.1730  0.0254
    1W        W24277   4.861  16.132   7.115  0.1668  0.0931  0.0696
    1W        W24278   7.364  12.437   3.098 -0.2138 -0.0786  0.0673
    1W        W24279  11.624   3.124   0.103 -0.3733 -0.0555 -0.2229
    1W        W24280  14.522  16.685   9.531  0.1319 -0.1605 -0.0960
    1W        W24281   6.915   5.547   9.803  0.2271 -0.0582  0.1966
    1W        W24282   5.269  13.849   9.801  0.0388  0.3872 -0.0778
    1W        W24283  14.506  25.911   8.524  0.0539  0.2325  0.0069
    1W        W24284  22.223  16.040   2.817  0.0156  0.1511  0.1031
    1W        W24285  18.268  24.581   9.209  0.1290 -0.2425 -0.1624
    1W        W24286  19.962  27.347   6.896  0.0906  0.2321  0.0095
    1W        W24287   2.277  15.049   2.700 -0.0561 -0.1438  0.2659
    1W        W24288  23.086  13.054   0.159  0.2425  0.0264  0.0142
    1W        W24289  14.514   6.634  10.019  0.1226 -0.2118  0.1063
    1W        W24290  11.765  12.804   0.778 -0.2273 -0.0702  0.1260
    1W        W24291  15.367  18.648   2.786 -0.2367 -0.0931  0.0249
    1W        W24292  13.994  24.482   1.511 -0.0982  0.1182  0.0496
    1W        W24293   0.617   2.713   1.806  0.0060  0.1383  0.3825
    1W        W24294  16.093   0.514   1.225  0.0043  0.0165  0.0756
    1W        W24295  23.255  16.305  10.201  0.0557  0.1399  0.5038
    1W        W24296  21.153  11.358   1.586  0.0630 -0.0041  0.3621
    1W        W24297   7.788  27.674   8.283  0.3115  0.0497 -0.0461
    1W        W24298  19.791  17.384   9.730  0.1221  0.0806  0.1722
    1W        W24299   4.636  27.378   9.009  0.1534  0.0512  0.1509
    1W        W24300  10.624  18.976   0.795  0.3099  0.2752  0.4374
    1W        W24301   7.306  18.122   2.881 -0.1343 -0.1495  0.0317
    1W        W24302  16.509  25.019   8.217 -0.0329  0.0929 -0.2217
    1W        W24303  12.158  20.777   7.612  0.1572  0.3066  0.3559
    1W        W24304   9.879  12.054  10.101 -0.0565  0.0269  0.2162
    1W        W24305  17.521  23.856   1.577 -0.1226 -0.2689  0.2002
    1W        W24306  27.668   6.017   8.755  0.4425 -0.2330 -0.2222
    1W        W24307  19.028   1.055   9.085 -0.0291  0.0295 -0.2156
    1W        W24308  21.146  12.340   8.884  0.0530  0.0866 -0.0976
    1W        W24309  25.561  18.055   7.046 -0.5074 -0.0558  0.0874
    1W        W24310  22.527  23.058   8.318 -0.1259  0.2210 -0.1063
    1W        W24311   4.354   2.371   7.549 -0.1668  0.0345  0.0576
    1W        W24312   8.916  12.843   8.518 -0.1212 -0.1564  0.0494
    1W        W24313   7.390  22.034   9.437 -0.2373  0.0065  0.0352
    1W        W24314  24.698  19.955   9.843  0.0911  0.3622 -0.0063
    1W        W24315  25.713  15.910   8.312  0.0065  0.1809  0.3414
    1W        W24316  14.138  10.994   9.356  0.1529  0.0056 -0.0013
    1W        W24317  14.538  10.998   1.663 -0.0967 -0.0083 -0.0213
    1W        W24318  26.103  22.258   0.675  0.0358 -0.0869 -0.1387
    1W        W24319   1.306   8.649  10.216  0.2087  0.1446  0.1828
    1W        W24320  22.384   1.706   8.320 -0.1853 -0.2524 -0.0267
    1W        W24321  20.883  16.246   3.657  0.0232 -0.1495  0.1966
    1W        W24322  14.675  13.747   1.870 -0.3184  0.1063  0.4926
    1W        W24323   4.333  16.074   0.347 -0.1096 -0.1696  0.0270
    1W        W24324  12.832  21.688   8.154  0.1810  0.0665  0.0120
    1W        W24325   6.650  15.618   2.362 -0.2019  0.0726  0.0078
    1W        W24326  13.254  11.288   1.448  0.2680 -0.1468 -0.2550
    1W        W24327  21.356  12.582   9.413 -0.0300 -0.3408 -0.0008
    1W        W24328  26.319  13.608   0.241  0.2001 -0.0249  0.4457
    1W        W24329  27.909   6.733   8.615  0.3247 -0.1339 -0.0430
    1W        W24330   0.784  23.427   2.288 -0.0344  0.1549  0.0321
    1W        W24331   0.186  11.033   3.481  0.0097 -0.2463  0.1189
    1W        W24332   7.226  10.990   9.232 -0.2849 -0.1052 -0.1237
    1W        W24333   5.140  11.181   8.423 -0.0595 -0.0775 -0.1486
    1W        W24334   3.309  26.891   0.288  0.2196  0.3152 -0.1800
    1W        W24335  14.028  27.251   9.166 -0.0098  0.3265  0.3192
    1W        W24336  11.398  18.373   3.107  0.2573  0.1036  0.0503
    1W        W24337  25.409  11.892   7.115  0.1332  0.0818 -0.2330
    1W        W24338   1.793  21.947   7.983 -0.0747  0.1899 -0.2065
    1W        W24339   4.610  18.783   0.478 -0.2493  0.0075  0.0677
    1W        W24340  11.051  11.911   1.690 -0.0469  0.0932 -0.0690
    1W        W24341   4.243  22.351   9.772  0.1974  0.1650  0.1219
    1W        W24342  22.818   2.451   2.703  0.0794 -0.2309 -0.2740
    1W        W24343  27.435  26.551   9.250 -0.2388 -0.2329 -0.0667
    1W        W24344  19.762   7.355   1.468  0.1159 -0.0412 -0.1227
    1W        W24345  18.287  21.534   9.103  0.3503 -0.0517 -0.4517
    1W        W24346  15.483   5.986   8.991 -0.2241  0.0348  0.1293
    1W        W24347  16.543   6.564   1.375  0.1628 -0.1643 -0.0077
    1W        W24348   1.894   7.784   9.491 -0.2412 -0.0011 -0.2326
    1W        W24349   6.432  11.253   9.330  0.0433 -0.0586 -0.1102
    1W        W24350  27.605   6.837   0.562 -0.1383  0.0821 -0.0326
    1W        W24351  11.585  27.510   1.126  0.1164 -0.2152 -0.0826
    1W        W24352  16.308   5.181   2.963 -0.0869  0.1184  0.1685
    1W        W24353  21.252  27.906   0.222  0.0245  0.2797  0.0101
    1W        W24354  18.123  24.383   1.028  0.1336 -0.3337 -0.0525
    1W        W24355  24.501  18.012   0.077 -0.2837 -0.1437  0.4910
    1W        W24356  18.102   7.141   6.894  0.2011 -0.4103  0.1804
    1W        W24357  22.817  26.189   1.747 -0.1923 -0.0327  0.3497
    1W        W24358  23.032  13.829   9.808  0.0957 -0.2308 -0.2628
    1W        W24359  26.057  19.706   1.174 -0.1645  0.0291 -0.2464
    1W        W24360   8.968  24.677   3.056  0.3398 -0.0603 -0.3156
    1W        W24361  10.356  23.222  10.283 -0.1741 -0.4733 -0.1921
    1W        W24362   1.675  13.665   0.531 -0.1656 -0.4257  0.0295
    1W        W24363   6.376   2.416   0.165  0.1863 -0.1408  0.0842
    1W        W24364   0.101  25.292   8.759 -0.0923  0.0665  0.0698
    1W        W24365   2.569  21.776   9.913  0.2339 -0.1003 -0.1302
    1W        W24366   9.415  10.442   1.549  0.0563 -0.0969  0.2345
    1W        W24367   2.483   8.300   6.905 -0.0893  0.2265  0.4290
    1W        W24368  23.928   0.022   1.085 -0.1442  0.2070  0.1545
    1W        W24369   1.418  21.334   9.654 -0.0722  0.2653 -0.1136
    1W        W24370   6.955  23.294   9.736 -0.0520 -0.0646  0.1378
    1W        W24371   9.588  24.101   1.279  0.2105 -0.1899 -0.1371
    1W        W24372   7.901  24.234   7.611 -0.0340  0.1031  0.0146
    1W        W24373   1.741  25.954   9.028  0.1955  0.2623  0.1504
    1W        W24374  24.500   0.291   9.112  0.2878 -0.0395  0.0087
    1W        W24375  14.284   3.701   8.904  0.0255 -0.1684 -0.1730
    1W        W24376   7.844  14.623   9.455 -0.2019  0.0061 -0.3825
    1W        W24377  26.460  23.022   1.264 -0.0166  0.2085  0.2593
    1W        W24378  10.005  27.975   9.214 -0.2452 -0.3263 -0.1445
    1W        W24379  24.975  21.190   0.099  0.0426 -0.0984  0.1483
    1W        W24380  18.497  13.625   2.018 -0.0945 -0.3767  0.1446
    1W        W24381  22.886  15.792   1.695 -0.1719 -0.0247  0.0919
    1W        W24382  21.473  20.165   9.420  0.1134 -0.1882  0.2443
    1W        W24383   3.602  23.912   0.686  0.2389  0.2958  0.1540
    1W        W24384  14.857  28.047   8.908 -0.0374  0.2285 -0.1481
    1W        W24385  25.908  22.009   9.564 -0.1727  0.0275  0.0962
    1W        W24386   8.465   0.350   9.356  0.0323 -0.0480  0.0671
    1W        W24387  24.323  22.923   8.256  0.0929  0.0308 -0.0791
    1W        W24388  22.847  17.692   1.405 -0.1068  0.0266 -0.2849
    1W        W24389  13.854   6.358   1.686 -0.0723 -0.2658 -0.2497
    1W        W24390  20.444  17.133   0.640  0.0539 -0.2133  0.0462
    1W        W24391  13.829   3.485   3.918 -0.1418 -0.0810  0.1699
    1W        W24392  15.212  26.447   3.353 -0.0428 -0.0944 -0.0836
    1W        W24393   4.549  27.885   7.131 -0.2765 -0.0180  0.1627
    1W        W24394   1.724  18.322   2.391  0.1122  0.0897 -0.0023
    1W        W24395   1.160  27.391   9.591 -0.0211 -0.0786 -0.1444
    1W        W24396   7.680   3.051   1.460 -0.0719 -0.2134 -0.0500
    1W        W24397   9.973  18.031   9.750 -0.0752 -0.0077  0.2326
    1W        W24398  24.543  27.360   1.260  0.0648  0.1576 -0.0048
    1W        W24399   2.985  17.684   3.002 -0.1028  0.1801  0.3429
    1W        W24400  11.991   3.183   2.874 -0.0174 -0.2105  0.3468
    1W        W24401   6.538  16.025   8.206  0.2068  0.2848  0.0417
    1W        W24402  21.453   3.348   6.319 -0.2637 -0.1023 -0.1012
    1W        W24403   5.145   2.199   1.945  0.0345  0.2685 -0.1632
    1W        W24404  18.380  10.306   9.289  0.1224  0.0700 -0.0141
    1W        W24405  17.599  27.301   2.137 -0.3151  0.0520 -0.0741
    1W        W24406  25.505  17.066   8.505 -0.0837 -0.1380 -0.3086
    1W        W24407  21.184  16.086   3.211 -0.4416  0.0924  0.0798
    1W        W24408   3.313  22.416   9.892 -0.0221  0.0530 -0.1502
    1W        W24409   1.890   7.762   8.256  0.1413 -0.0849  0.1359
    1W        W24410  13.957   5.725   8.691 -0.1310  0.1073 -0.0296
    1W        W24411  19.974  19.180   3.001 -0.2015 -0.0105 -0.4319
    1W        W24412  17.461  12.847   0.679 -0.4265 -0.0018  0.0553
    1W        W24413  25.913  14.575  10.136 -0.2649  0.1077  0.3887
    1W        W24414   9.396  17.089   2.013  0.1405  0.1336 -0.2099
    1W        W24415  25.189  24.081   2.849 -0.1101 -0.0585 -0.0645
    1W        W24416   5.484  12.217   2.425  0.2240  0.0581 -0.0777
    1W        W24417  10.263  19.463   8.599  0.0601  0.0360  0.2804
    1W        W24418  24.358  17.338   6.895 -0.3704 -0.2038 -0.2379
    1W        W24419   8.237  22.803   0.029 -0.0370  0.0729 -0.0959
    1W        W24420  13.381   4.853   0.627  0.0287 -0.0346 -0.1689
    1W        W24421  16.070  27.352   8.764  0.2258  0.0010  0.0818
    1W        W24422  21.457  14.736   2.711  0.0139 -0.0758 -0.1344
    1W        W24423   5.108  10.966   1.029  0.0330 -0.1268 -0.2698
    1W        W24424  13.378  19.146  10.187  0.0805 -0.1164  0.0039
    1W        W24425   5.118   4.456   7.064 -0.2019 -0.0601  0.0724
    1W        W24426  25.600  17.150   9.007 -0.0811 -0.3252  0.2702
    1W        W24427  18.074  21.244   0.168  0.1706 -0.0642 -0.1167
    1W        W24428   4.490   4.549   9.347  0.0765 -0.2132 -0.0560
    1W        W24429  18.235  27.967   9.467 -0.0201 -0.1682  0.2996
    1W        W24430  27.297  15.859   1.317 -0.1098  0.1137  0.2768
    1W        W24431   4.033  21.312   8.229 -0.0391 -0.1656 -0.0513
    1W        W24432   3.329  28.000   9.662 -0.0685  0.3369  0.0032
    1W        W24433   2.123  12.439   7.899 -0.1394 -0.1770  0.1783
    1W        W24434  18.623   4.140   8.252 -0.1474  0.0386  0.0941
    1W        W24435  16.203  23.587   2.359  0.0162  0.1987  0.1281
    1W        W24436  13.837  26.953   1.711  0.0629 -0.1777  0.1765
    1W        W24437   6.129  10.826   3.878  0.1818  0.0617  0.0761
    1W        W24438  20.131  13.597   8.185  0.1907 -0.4290 -0.2192
    1W        W24439  25.267  15.238   7.091  0.2959 -0.1217  0.0025
    1W        W24440  12.570   8.959   3.048 -0.2242  0.2326  0.2826
    1W        W24441  20.009   6.483   1.517 -0.0104 -0.0380 -0.2254
    1W        W24442  17.740  24.693   8.401  0.2857  0.0620 -0.2287
    1W        W24443   4.248  22.001   8.369 -0.1547  0.0838  0.1797
    1W        W24444  16.878  24.546  10.203 -0.3537 -0.0623 -0.1674
    1W        W24445   1.734   5.185   7.973  0.0947  0.1804 -0.1255
    1W        W24446   0.681  21.650  10.147  0.2472 -0.1049  0.1752
    1W        W24447  17.563  27.124   0.691 -0.0874  0.0812  0.1954
    1W        W24448  10.170   5.689   2.552  0.0488 -0.0824 -0.2100
    1W        W24449   6.717   4.051   8.387 -0.2955  0.0722 -0.1805
    1W        W24450  23.711  24.263   9.003 -0.0844 -0.0678 -0.0136
    1W        W24451   5.861  12.807   8.022 -0.1258 -0.0380  0.1117
    1W        W24452   4.602  18.935   1.804  0.0708 -0.0361 -0.0196
    1W        W24453   3.264  13.922   7.623 -0.1500 -0.0264 -0.3284
    1W        W24454  13.928  27.336   7.686  0.1059  0.1005  0.1434
    1W        W24455  17.856  10.460   9.820  0.2211  0.0840 -0.0980
    1W        W24456   7.424  22.871   9.794 -0.2445 -0.2480 -0.2315
    1W        W24457  23.730  22.606   7.395  0.1634  0.0589 -0.1554
    1W        W24458   9.352   5.348   9.664 -0.0941 -0.0386 -0.0315
    1W        W24459   0.504   5.079   6.539 -0.1839 -0.2947 -0.0320
    1W        W24460  27.795   7.676   0.842  0.0909  0.0789 -0.1236
    1W        W24461  16.039  25.024   9.826 -0.0093  0.0903  0.0520
    1W        W24462  23.227   7.588   1.673  0.1208 -0.0374 -0.0396
    1W        W24463  13.641   2.225   3.291  0.0972  0.0681  0.0914
    1W        W24464  25.539  23.728   1.974  0.1745 -0.1265  0.1042
    1W        W24465  19.074  19.075   3.690  0.0241 -0.1464  0.2857
    1W        W24466   3.086  23.202   1.140 -0.0133 -0.0443  0.1302
    1W        W24467  18.114   5.060   8.828 -0.1126  0.1645 -0.3572
    1W        W24468  20.263  21.603   8.548 -0.0807  0.1481  0.3048
    1W        W24469  11.576  24.878   9.733  0.1951 -0.0007 -0.0891
    1W        W24470  20.192  22.013   2.091 -0.3273 -0.4084 -0.1139
    1W        W24471  18.077  11.109   8.402  0.0037  0.5760  0.2433
    1W        W24472  26.829  25.118   8.644  0.0996 -0.0708 -0.4194
    1W        W24473   7.946  25.860   9.766 -0.1667  0.3080 -0.0464
    1W        W24474  17.035   8.575   8.773  0.0201 -0.3824  0.2357
    1W        W24475   3.868   4.998   0.277 -0.1890  0.1430 -0.0036
    1W        W24476   3.888  15.962   7.452  0.0646 -0.4331  0.3089
    1W        W24477   3.814   4.064   8.195 -0.0855 -0.0248 -0.0608
    1W        W24478  10.845   9.353   2.753  0.1553 -0.1397  0.1832
    1W        W24479  20.267  13.590  10.047  0.1188  0.3407 -0.3377
    1W        W24480   5.441  15.791   8.225  0.0601 -0.0064 -0.1429
    1W        W24481  14.891   7.400  10.279 -0.0143  0.0309  0.0290
    1W        W24482   4.553   2.036   2.556  0.2651  0.1432  0.0584
    1W        W24483   7.297   1.425   2.821 -0.2725 -0.3373 -0.0298
    1W        W24484  26.052  12.365   7.868 -0.1886 -0.1165  0.1630
    1W        W24485   0.867   1.063   0.136 -0.0504 -0.1456 -0.1536
    1W        W24486  26.586  20.044   2.774  0.4145 -0.0749  0.1120
    1W        W24487  15.275  20.407   2.042 -0.0615  0.1225 -0.1596
    1W        W24488   2.770   5.403   8.962  0.0801  0.1355 -0.1891
    1W        W24489   4.846  22.492   7.247  0.0861  0.1749  0.1301
    1W        W24490  16.996  19.596   9.446  0.2869  0.0373  0.4055
    1W        W24491  10.636  27.397   2.224 -0.0102  0.2081  0.1575
    1W        W24492  10.076  14.579   3.394 -0.2361 -0.0759  0.0520
    1W        W24493   5.926   8.657   2.383  0.1785  0.2062 -0.1706
    1W        W24494  21.307  10.597   0.705 -0.6378  0.0072  0.2202
    1W        W24495  14.665   4.571   3.221 -0.1057  0.0661 -0.0298
    1W        W24496  12.374   6.884   9.146 -0.0439  0.0797  0.1403
    1W        W24497  11.528   4.013   1.340 -0.0820 -0.1099  0.0809
    1W        W24498  12.523   8.593   0.370  0.0155 -0.0383  0.1568
    1W        W24499  27.178  16.184   9.034 -0.1742  0.0082  0.4099
    1W        W24500  19.834  10.525   1.273  0.1577  0.0807  0.0531
    1W        W24501  24.063  18.758   1.472  0.0835 -0.0251 -0.0224
    1W        W24502  18.729  13.551  10.354  0.1589 -0.1589  0.0908
    1W        W24503  12.601  12.591   9.744 -0.0766 -0.3034  0.1525
    1W        W24504   6.714  18.695   8.861 -0.2185 -0.0379 -0.0607
    1W        W24505  10.256  23.615   0.772 -0.0859 -0.1627 -0.1693
    1W        W24506   9.719  12.957   2.372  0.0200  0.1129  0.1867
    1W        W24507  24.721   1.391   9.743 -0.2891  0.0149 -0.0474
    1W        W24508  20.454   0.822   7.242 -0.1204 -0.0192  0.0400
    1W        W24509  12.407   4.310   2.096  0.3577  0.0939 -0.0833
    1W        W24510  15.125   3.155   9.291 -0.3572  0.0091  0.1939
    1W        W24511  17.221   4.419  10.219  0.0932  0.0202  0.0510
    1W        W24512  25.305  24.627   6.513  0.0728  0.1861 -0.1757
    1W        W24513  11.191   4.137   0.964  0.2009  0.1805  0.1149
    1W        W24514  16.312  13.342   3.111  0.0214 -0.2368 -0.1991
    1W        W24515  12.528  19.925   2.264 -0.2421 -0.2073  0.3091
    1W        W24516   9.006  18.217   3.075 -0.1979 -0.0954  0.0635
    1W        W24517   9.261  12.221   3.069 -0.4520  0.1454  0.1296
    1W        W24518  25.016  13.067   7.247  0.2037  0.2559 -0.1424
    1W        W24519  16.763  26.208   9.877 -0.0234 -0.0951  0.0623
    1W        W24520  18.245  17.591   0.083  0.0340 -0.2684  0.1061
    1W        W24521  23.345  26.436   3.153 -0.2041 -0.0357 -0.0764
    1W        W24522  23.132  20.580   2.439  0.1644  0.2581 -0.2423
    1W        W24523   2.521   3.158   6.970 -0.4706 -0.1880 -0.0832
    1W        W24524  25.509  14.547   8.623  0.1166  0.1613 -0.0627
    1W        W24525  25.451  17.097   9.736  0.3166  0.0517 -0.3835
    1W        W24526  20.332   2.645   7.575  0.1000  0.0664  0.0291
    1W        W24527  23.730  16.946   8.527  0.0706  0.0018  0.0554
    1W        W24528  25.712  24.962   7.679 -0.1385  0.0224 -0.2289
    1W        W24529  18.875   4.547   1.842  0.1059  0.0943  0.4701
    1W        W24530  18.921  24.400   0.335 -0.0579  0.2126  0.1342
    1W        W24531   8.075  24.429   8.416  0.2129 -0.2040 -0.1636
    1W        W24532  19.616  13.756   9.861 -0.3531 -0.0382  0.0329
    1W        W24533  17.266  17.814   0.501  0.2093  0.5094  0.1199
    1W        W24534  26.123  24.063   8.307 -0.1139  0.0733  0.1090
    1W        W24535  22.078  12.124   7.268 -0.0772 -0.2746 -0.1537
    1W        W24536   9.098  25.605   6.646 -0.0444  0.3098  0.0165
    1W        W24537  13.450   2.728   9.280  0.0747  0.0599  0.0524
    1W        W24538  22.095  26.471   9.025  0.0858  0.0755  0.1141
    1W        W24539   0.661  12.500   2.895  0.2526 -0.1881  0.0391
    1W        W24540  24.716   8.994   6.903  0.3444 -0.2316  0.3417
    1W        W24541   9.086  19.385   4.080 -0.2310 -0.0053 -0.0470
    1W        W24542  19.124   7.090   2.417 -0.0985 -0.1083  0.0360
    1W        W24543  15.644  18.436   1.284 -0.1208 -0.0103 -0.0468
    1W        W24544  13.690  16.798   3.419 -0.2410  0.2754 -0.0558
    1W        W24545  18.219   1.707   9.227  0.1424  0.2542  0.1878
    1W        W24546  11.314  10.686   7.632  0.0104 -0.0561  0.2498
    1W        W24547   3.202  17.091   9.766 -0.3119  0.4862  0.0272
    1W        W24548  19.011  27.846   8.593 -0.0307  0.0485 -0.0800
    1W        W24549   6.719  19.072   7.865 -0.3422  0.1807  0.0529
    1W        W24550  14.060  18.979   9.763  0.1947 -0.0439 -0.2035
    1W        W24551  19.618  12.869   8.153 -0.0383 -0.2508 -0.0019
    1W        W24552   4.140  16.999   2.763  0.2211 -0.4314 -0.0596
    1W        W24553  11.907  10.788   2.246  0.0649  0.5819 -0.1389
    1W        W24554   7.653   2.895   7.818  0.2452  0.2114 -0.0962
    1W        W24555   5.609  23.074   9.520 -0.0321 -0.0742 -0.0016
    1W        W24556  21.859   6.884   1.537 -0.1966 -0.0523  0.3057
    1W        W24557   4.055   6.905   0.243 -0.3052 -0.0173 -0.1222
    1W        W24558  13.034   6.755   8.724  0.0651  0.3037  0.1811
    1W        W24559  16.507  15.264   1.541 -0.1656  0.0310  0.1010
    1W        W24560   4.845  12.588   0.161  0.0881 -0.1194  0.2342
    1W        W24561   1.059   5.187   1.000 -0.1321  0.1130 -0.2947
    1W        W24562  11.688  26.974   7.731 -0.5609 -0.0050  0.4013
    1W        W24563   0.125  23.066   7.577  0.1540 -0.0145  0.1813
    1W        W24564  26.479   6.713   1.887 -0.1576 -0.0959 -0.2911
    1W        W24565   2.777  13.872   7.458 -0.0516 -0.0264 -0.0078
    1W        W24566  17.802  22.558   7.162 -0.2505  0.1723  0.2511
    1W        W24567  20.017   6.535   2.577  0.1593  0.0251  0.3573
    1W        W24568   1.506  21.101   7.372 -0.0187  0.3026  0.0591
    1W        W24569   9.401  19.795   7.657  0.1212  0.1077  0.1795
    1W        W24570   2.140  11.205   9.169 -0.0213  0.1513 -0.0051
    1W        W24571  13.944  24.049   8.198 -0.3640 -0.2797 -0.0176
    1W        W24572  12.457  19.456   8.364 -0.2822  0.5425 -0.1986
    1W        W24573  22.183   6.160   2.278 -0.2270 -0.0418  0.0742
    1W        W24574   5.035   7.522   1.335 -0.1656  0.2566  0.1210
    1W        W24575  20.626   7.642   8.110  0.0542 -0.0321 -0.0653
    1W        W24576  20.068   4.262   6.961 -0.2245  0.4127 -0.0528
    1W        W24577   9.210  21.950   8.816  0.3990 -0.0189 -0.0307
    1W        W24578  27.918   1.897   0.688  0.1577  0.2320  0.0845
    1W        W24579  11.821  24.182   8.142 -0.3526 -0.1361  0.1085
    1W        W24580  24.875   0.494   8.679 -0.1986 -0.0157 -0.2062
    1W        W24581  17.584  10.389   8.385  0.2476  0.2103  0.2446
    1W        W24582  13.066  18.205   8.382 -0.2480  0.2302 -0.1006
    1W        W24583  17.756  15.103   3.541  0.2189 -0.0541 -0.1587
    1W        W24584  16.513  16.962   8.350  0.3965 -0.1403 -0.2538
    1W        W24585   3.255   8.752   7.173  0.0214  0.2299 -0.1513
    1W        W24586  15.507  25.771   3.057  0.0682 -0.1217  0.1062
    1W        W24587  17.729  20.538   7.851 -0.1411  0.2009 -0.1307
    1W        W24588   9.848  18.299   7.923 -0.0888 -0.3688 -0.6049
    1W        W24589  17.871  14.956   9.976  0.1373 -0.0254 -0.1351
    1W        W24590  24.746   7.651   9.283 -0.0600 -0.0828  0.0104
    1W        W24591  19.253  24.709   8.801  0.2634 -0.2472 -0.0060
    1W        W24592   6.339  16.506   3.367 -0.0238 -0.0378  0.0409
    1W        W24593  21.602  19.763   0.689  0.2636  0.0596  0.0428
    1W        W24594  18.054  20.739  10.329  0.0791  0.0322 -0.0130
    1W        W24595  11.529  25.989   0.377  0.0253  0.1345 -0.1974
    1W        W24596   3.449  22.510   0.019  0.0000 -0.0968 -0.0788
    1W        W24597  15.950  20.619   0.415 -0.0832 -0.0843  0.0982
    1W        W24598  11.545  24.427   1.584  0.0491  0.0253 -0.1118
    1W        W24599  25.723  12.629   9.276 -0.1711  0.0951 -0.1798
    1W        W24600   7.781  10.683   2.086  0.2154  0.0189  0.0209
    1W        W24601  26.011   3.948   7.582  0.3028  0.0173  0.0416
    1W        W24602  19.231  16.404  10.246 -0.2372  0.1455  0.2614
    1W        W24603  25.378  13.438   9.121 -0.0965 -0.0859  0.1187
    1W        W24604  24.059  23.846   7.732 -0.1251 -0.2157  0.0623
    1W        W24605  27.854  18.045   9.297  0.3330  0.0642 -0.2974
    1W        W24606  13.830  11.828   2.381  0.0564  0.2042  0.1942
    1W        W24607  23.194   3.798   8.974 -0.0719  0.1747 -0.0743
    1W        W24608   1.729  20.104   0.070 -0.0877  0.1731 -0.0582
    1W        W24609   7.663   4.585   6.790  0.1034 -0.1084 -0.1246
    1W        W24610  13.777  24.641   2.724  0.0569  0.0780 -0.0364
    1W        W24611   8.001   9.652   1.911  0.1596  0.0239  0.0401
    1W        W24612  10.614   5.003   7.473 -0.0056  0.0096  0.2710
    1W        W24613  11.755  14.589   9.323  0.1518  0.1322 -0.2647
    1W        W24614   6.388   3.926   7.615  0.2183  0.0493  0.0292
    1W        W24615  10.358  19.074   8.255 -0.2086 -0.0850  0.1022
    1W        W24616   0.962   2.325   9.461 -0.0263  0.0508  0.0153
    1W        W24617  27.403   4.675   6.044 -0.4800 -0.0166 -0.0929
    1W        W24618   4.609   3.059   0.102 -0.0773 -0.1447  0.1236
    1W        W24619   5.450  23.788   7.524  0.1403  0.0148 -0.1005
    1W        W24620   1.997  21.666   1.704  0.0888  0.2646  0.0314
    1W        W24621   2.094  19.369   2.223  0.4398 -0.2932  0.2502
    1W        W24622  12.322  19.596   0.777 -0.1798  0.0741 -0.1391
    1W        W24623   6.398  15.232   0.541  0.0354 -0.1358 -0.0531
    1W        W24624   5.036  22.136   2.184 -0.0214  0.0851 -0.1156
    1W        W24625  10.408  17.935   7.109  0.1357 -0.1038 -0.0138
    1W        W24626  19.042  10.242   3.563 -0.0649 -0.1769 -0.0032
    1W        W24627  12.250   3.700   8.911  0.3151  0.1531  0.1176
    1W        W24628  10.408   9.519   1.339  0.0535  0.0316  0.0197
    1W        W24629  19.077   5.492   2.151 -0.0614 -0.0528  0.1556
    1W        W24630  11.222   2.186   1.043 -0.2870 -0.0140 -0.0722
    1W        W24631  18.173   1.052   0.848 -0.0801 -0.0089  0.0446
    1W        W24632   7.377  16.104   0.634 -0.2360  0.4682 -0.0304
    1W        W24633   0.010  27.005   1.882 -0.1386 -0.1473 -0.1733
    1W        W24634  18.259   4.563   1.287 -0.0891  0.1668  0.1360
    1W        W24635  16.571   6.338   1.849  0.3616 -0.0322 -0.1133
    1W        W24636  24.124  11.580   2.181  0.1874 -0.1480 -0.0971
    1W        W24637   6.606  23.493   7.946  0.4152 -0.0700  0.0862
    1W        W24638  21.140  24.249   7.336 -0.2749 -0.1322 -0.1200
    1W        W24639  22.840  21.572   2.152 -0.2150  0.1925 -0.0694
    1W        W24640  12.323  25.306   1.818 -0.0343  0.1279  0.2192
    1W        W24641   4.085  15.821   2.989  0.1848  0.0405 -0.1696
    1W        W24642  24.806   7.800   7.378  0.1601  0.0950  0.0364
    1W        W24643   5.997  13.328   1.375 -0.0334  0.1742 -0.4246
    1W        W24644  14.289  27.247   0.365  0.1014  0.2155 -0.0296
    1W        W24645   3.119  22.817  10.064 -0.1025 -0.4890  0.1867
    1W        W24646  11.287   8.047   0.687 -0.1535 -0.0103 -0.0878
    1W        W24647   0.630   7.982   8.861 -0.1841 -0.3960 -0.0242
    1W        W24648   9.621  12.678   7.739 -0.0358 -0.0518 -0.2079
    1W        W24649   6.926  22.886   0.471 -0.0610  0.0842  0.0474
    1W        W24650  12.970  20.694  10.250 -0.0378  0.0653 -0.0513
    1W        W24651   4.971  13.654   1.512  0.0181 -0.0609 -0.1485
    1W        W24652   8.858  27.998   3.185  0.0294  0.1008  0.1823
    1W        W24653  16.362  27.269   2.364 -0.0303  0.0716 -0.3621
    1W        W24654  27.028   5.141   1.431  0.2444  0.1329  0.1981
    1W        W24655  18.648   8.083  10.087  0.1097  0.1432  0.1115
    1W        W24656  11.588  11.578   8.918 -0.0711 -0.0645  0.1621
    1W        W24657  11.940  11.829   4.506 -0.0929 -0.1315  0.4304
    1W        W24658   7.382  25.370   9.309 -0.3719 -0.0761 -0.0463
    1W        W24659   1.864  24.424   7.562 -0.2263  0.1742  0.3017
    1W        W24660  16.155  16.275   0.240 -0.1056  0.1587  0.1140
    1W        W24661   1.607  27.915   0.783 -0.2178  0.0233  0.1216
    1W        W24662  22.487   0.349   9.224 -0.1070 -0.1740  0.0792
    1W        W24663   1.130  10.216   8.316 -0.0271  0.0073 -0.1921
    1W        W24664  23.450  27.508   7.113  0.3505  0.2357 -0.0222
    1W        W24665  17.000  27.365   9.658  0.0361 -0.1825 -0.1909
    1W        W24666   1.868  18.659   9.212 -0.2212  0.0142 -0.1389
    1W        W24667  19.185   8.657   9.488 -0.1271  0.1670  0.2378
    1W        W24668  18.911  26.109   1.306 -0.1248  0.2226  0.0187
    1W        W24669   8.337  12.587   2.852 -0.0491  0.0446  0.0261
    1W        W24670  13.294  21.010   2.306 -0.0095  0.0246 -0.1973
    1W        W24671   6.611   1.581   7.804  0.2932 -0.0491  0.1728
    1W        W24672  17.746  13.059   8.390  0.0899  0.3943  0.0655
    1W        W24673  23.459   2.865   2.427 -0.0769 -0.4305  0.1142
    1W        W24674   1.741  13.196   7.948 -0.0452  0.1662  0.1992
    1W        W24675   2.111  19.544   9.391 -0.1541  0.2307 -0.0906
    1W        W24676   1.114  15.110   1.630 -0.0359 -0.0310 -0.2534
    1W        W24677   7.335   2.299   2.264  0.1660  0.0558 -0.2553
    1W        W24678   8.925   2.490   8.691  0.1313  0.3794  0.0471
    1W        W24679   4.203  10.454   0.132  0.0842  0.1602 -0.3319
    1W        W24680   1.964  13.485   1.718  0.2109 -0.1448 -0.1840
    1W        W24681   0.937  15.798   8.452  0.2219  0.2076 -0.0008
    1W        W24682  20.659  18.040   0.361  0.0788  0.0689 -0.4488
    1W        W24683   2.673   1.539   5.955  0.0429  0.0963  0.1117
    1W        W24684  22.770  16.843   8.341  0.1602 -0.1997 -0.1860
    1W        W24685  10.139   1.266   3.392 -0.2693  0.0595 -0.0334
    1W        W24686   8.481  18.867   8.276  0.1577  0.1807  0.0209
    1W        W24687  12.387   4.540   1.681  0.3297 -0.0494 -0.0156
    1W        W24688  24.318  13.593   9.567  0.0502 -0.2736  0.1088
    1W        W24689  15.623  14.759   0.389 -0.0110 -0.0358 -0.0740
    1W        W24690   4.918   0.990   0.652 -0.1353 -0.0257  0.0552
    1W        W24691  17.043  21.776   8.037  0.0218  0.2444 -0.1729
    1W        W24692   8.844  22.467   3.301  0.0255 -0.0180  0.0483
    1W        W24693   8.970  17.746   2.879 -0.0537  0.2670  0.1352
    1W        W24694  12.343  23.478   2.231  0.0778  0.1979 -0.0523
    1W        W24695  10.115   5.944   2.117  0.0657  0.0591 -0.1097
    1W        W24696  26.675  24.797   2.116  0.3878 -0.2708  0.0256
    1W        W24697   6.119  26.122   1.542 -0.0988 -0.0962  0.1344
    1W        W24698  11.827  15.878   8.323  0.1725 -0.0036  0.0782
    1W        W24699  17.486  24.906   2.173  0.3255  0.3108 -0.1566
    1W        W24700  25.874   4.320   9.012 -0.1264 -0.1824  0.4649
    1W        W24701  18.648   8.753   8.732  0.3981 -0.2681 -0.3230
    1W        W24702  26.637  13.364   2.703  0.2394 -0.0175 -0.1156
    1W        W24703  22.989  15.472   3.024 -0.4846 -0.0674  0.0372
    1W        W24704   3.852  19.171   3.922  0.0349 -0.0769 -0.2820
    1W        W24705  23.864  23.441   6.597 -0.0404 -0.0291  0.3151
    1W        W24706  20.944   3.379  10.160 -0.1237  0.1704  0.0034
    1W        W24707  12.060  16.169   2.364 -0.0642  0.0973 -0.1906
    1W        W24708  26.565   9.502   8.791 -0.2243 -0.2570  0.0906
    1W        W24709  20.870   3.871   0.076 -0.1538 -0.0114 -0.3491
    1W        W24710  14.122   8.092   9.603 -0.3561 -0.0737  0.1765
    1W        W24711   4.393   2.678   1.348 -0.2583 -0.1361 -0.2240
    1W        W24712  25.119   5.398   8.455 -0.0578  0.1268 -0.0623
    1W        W24713  24.759   2.175   8.200  0.2421 -0.2351 -0.0794
    1W        W24714  11.368   6.198   8.545  0.0455  0.0038  0.0759
    1W        W24715  25.846   4.132   8.535 -0.0573 -0.0575  0.0559
    1W        W24716  15.828   0.136   8.130  0.0278  0.3956  0.0855
    1W        W24717  12.948  17.853   0.465 -0.2542  0.1201  0.3389
    1W        W24718   9.604  18.436   7.478  0.1767 -0.0835 -0.1015
    1W        W24719   6.279   4.167   3.084  0.4271  0.1390  0.0142
    1W        W24720   4.641  14.469   3.470 -0.0223  0.0828 -0.1977
    1W        W24721  16.652  16.013   3.351  0.3994  0.0772 -0.1146
    1W        W24722   4.433  21.477   7.953 -0.0971 -0.0219 -0.2098
    1W        W24723  28.097  18.381   9.642 -0.2980  0.0139 -0.0869
    1W        W24724  13.781  18.252   3.705  0.1916  0.4629 -0.0635
    1W        W24725   0.712  18.383   1.646 -0.0629  0.2238  0.0096
    1W        W24726   4.806  18.934   1.307  0.3578 -0.3746 -0.2153
    1W        W24727   1.084   5.482   7.234 -0.0657 -0.0912  0.2921
    1W        W24728   3.890  20.311   8.401 -0.5049  0.1181 -0.4037
    1W        W24729   1.047  17.168   9.784 -0.2715  0.1148 -0.1479
    1W        W24730  11.373  21.574   7.266  0.1499 -0.2809 -0.0246
    1W        W24731  22.682  15.195   3.315  0.1394 -0.2822 -0.0455
    1W        W24732  23.668  17.032   3.061 -0.1365  0.0535 -0.1389
    1W        W24733  20.941  26.960   1.916 -0.0491  0.3919  0.0909
    1W        W24734  16.877   9.320   0.721 -0.1837  0.4515  0.0397
    1W        W24735  19.543   1.493   7.328  0.1861 -0.0329  0.1326
    1W        W24736  11.000   2.552   9.771 -0.0554 -0.0041 -0.0741
    1W        W24737   3.801   2.573   0.455  0.0148  0.0955  0.0982
    1W        W24738   2.628  25.917   2.551  0.0797  0.2208 -0.0337
    1W        W24739   9.573  23.530   8.192  0.3406 -0.1977  0.0408
    1W        W24740   1.874  20.346   9.982 -0.0213 -0.3099  0.0404
    1W        W24741  22.448   3.565   7.947 -0.0429 -0.1739  0.2189
    1W        W24742  25.613  27.050   8.029  0.2057 -0.2476 -0.3440
    1W        W24743   0.555  23.935   9.092 -0.1984  0.0479 -0.0878
    1W        W24744   9.719  14.861   9.525 -0.1671  0.1861  0.1308
    1W        W24745  20.285   2.177   8.639  0.1710 -0.2119 -0.1813
    1W        W24746  23.407  23.789   0.503  0.2631 -0.1680  0.0462
    1W        W24747  15.295  27.704   2.296  0.0913  0.3582  0.0852
    1W        W24748  20.704  23.562   9.055 -0.2130  0.0595 -0.3080
    1W        W24749  25.863  10.412   2.168  0.0846 -0.2193  0.2157
    1W        W24750  15.259  13.961   9.345  0.1201 -0.0826  0.1940
    1W        W24751  15.913   9.568   0.691 -0.1004  0.2849  0.0416
    1W        W24752  17.390  25.537   2.697  0.1640 -0.0720 -0.2336
    1W        W24753  21.751  20.615   2.354  0.0103  0.0692  0.0963
    1W        W24754  18.733   0.422  10.236 -0.0067 -0.1233 -0.1996
    1W        W24755   8.849  10.477   3.773 -0.0159 -0.1720  0.0313
    1W        W24756   3.681   6.562   9.417  0.0657  0.2327  0.1004
    1W        W24757  24.322  18.286   8.314 -0.3662 -0.2117  0.3506
    1W        W24758  14.807  26.602   0.035  0.0889 -0.1046  0.1289
    1W        W24759  18.349  26.619   7.460 -0.2367 -0.0141 -0.2018
    1W        W24760   8.474  24.561   1.025  0.0706 -0.0346 -0.1235
    1W        W24761   1.979  23.542  10.299 -0.0569  0.2469 -0.0562
    1W        W24762   6.603   3.474   1.088  0.0552 -0.0765  0.1904
    1W        W24763   2.174  16.480   8.137  0.1517  0.0735 -0.2701
    1W        W24764   9.001   7.962   1.832  0.0819  0.2900 -0.0145
    1W        W24765   8.148  16.669   7.729  0.3087 -0.2779 -0.0326
    1W        W24766   6.221  23.846   1.820  0.0332  0.1238 -0.1518
    1W        W24767   1.861  17.857   1.688 -0.0679 -0.2547  0.0342
    1W        W24768  24.664  15.772   7.434  0.0822  0.2072  0.1467
    1W        W24769   2.052   0.422   2.680 -0.4305 -0.0881 -0.1031
    1W        W24770  24.995  16.064   9.934 -0.1550 -0.0533 -0.0651
    1W        W24771  24.347   6.984   1.068  0.1720 -0.2535  0.0469
    1W        W24772   6.414  13.163   2.911  0.1466  0.0197 -0.0321
    1W        W24773   4.562  10.330   0.628  0.0780  0.1417 -0.0792
    1W        W24774   1.298  25.825   0.360 -0.0119 -0.0171 -0.4714
    1W        W24775  15.926  14.584   3.002 -0.1793  0.0178  0.0817
    1W        W24776   4.131  27.324   9.241  0.2374  0.2024 -0.0525
    1W        W24777   4.598  17.810   9.075 -0.0008  0.1897 -0.1785
    1W        W24778   8.094  22.712   9.508  0.1431  0.1117 -0.1164
    1W        W24779   2.081  23.486   0.929 -0.0394  0.2930  0.1893
    1W        W24780   0.587  12.605  10.154  0.0211  0.2348 -0.2666
    1W        W24781  22.780  13.926   8.789  0.2529  0.1189 -0.0082
    1W        W24782   1.034   6.191   0.703 -0.1566 -0.0634 -0.1564
    1W        W24783  25.824  26.988  10.001 -0.1827 -0.0746  0.1509
    1W        W24784  22.285   1.194   2.538 -0.2328 -0.1382  0.0358
    1W        W24785  13.681  11.842   1.860  0.0503 -0.0848 -0.1565
    1W        W24786  12.793   9.915   8.999 -0.1520  0.2444 -0.0499
    1W        W24787  12.907  16.783   8.447  0.1666  0.1673 -0.2376
    1W        W24788   2.751  14.345   6.672 -0.0589  0.2477 -0.2089
    1W        W24789  18.870  13.957   0.173 -0.2987  0.0410  0.2272
    1W        W24790  12.082  23.354   2.716  0.1066 -0.2779 -0.1464
    1W        W24791  10.917   7.073   3.246  0.1710 -0.3434  0.2010
    1W        W24792  17.499   4.773   1.714  0.1977 -0.1419  0.1208
    1W        W24793   6.339  24.825   8.601  0.0641  0.1399 -0.2295
    1W        W24794   4.043  23.179   0.151  0.1644 -0.1617  0.2305
    1W        W24795  14.669   1.510   2.338 -0.4099 -0.3237 -0.1327
    1W        W24796  14.463   1.595   8.440 -0.0685 -0.0540  0.3095
    1W        W24797  15.943   7.329   1.406 -0.3716  0.1359 -0.1062
    1W        W24798  26.179  16.120   1.495  0.0664 -0.0702 -0.3062
    1W        W24799   0.781   5.692   6.838  0.0196  0.0294  0.3401
    1W        W24800  10.203  12.268   8.622  0.0872 -0.3038 -0.0771
    1W        W24801  24.670   9.960   9.753 -0.0400 -0.0393 -0.1797
    1W        W24802   7.942   7.636   6.783  0.1031  0.1901 -0.2373
    1W        W24803  25.857   4.318   7.208 -0.1025  0.1017  0.3534
    1W        W24804  20.771   1.524   3.310 -0.3260  0.0593 -0.2760
    1W        W24805  22.166   9.128   9.510  0.1917 -0.0152 -0.1968
    1W        W24806  22.664  12.010   8.859 -0.1710 -0.1292  0.0348
    1W        W24807  21.212  25.731   2.565 -0.2608  0.0418 -0.0968
    1W        W24808   0.222  23.944   7.441 -0.2746  0.1627 -0.0143
    1W        W24809   7.917  24.567   3.264  0.1233 -0.2021  0.1120
    1W        W24810   1.419  21.769   1.422  0.0796 -0.2613 -0.0423
    1W        W24811   8.377   3.016   7.324 -0.0183  0.1025  0.2943
    1W        W24812  16.906   8.988   7.862 -0.1603  0.1698  0.0395
    1W        W24813  12.903   9.383   1.786  0.0506  0.0843 -0.0928
    1W        W24814  11.900  23.962   0.057 -0.1123  0.0834 -0.0358
    1W        W24815  19.618   4.237   1.044 -0.2544 -0.4530 -0.0573
    1W        W24816   2.086   0.379   9.073 -0.1798 -0.1515  0.0036
    1W        W24817  11.763  20.371   9.339  0.2651  0.2680  0.1400
    1W        W24818   6.833   1.704   8.654  0.1607  0.0232 -0.1188
    1W        W24819  13.079  23.486  10.318 -0.0434  0.1709  0.2229
    1W        W24820  27.023  26.137   8.381 -0.0304  0.1695 -0.1049
    1W        W24821  13.281  13.233   3.321  0.1084 -0.4199 -0.0561
    1W        W24822   6.835  12.596   3.608  0.0298  0.0559  0.0535
    1W        W24823   3.635   6.418   0.149 -0.2104  0.0209 -0.0538
    1W        W24824  17.022   1.099   3.014  0.0108  0.1003 -0.1959
    1W        W24825  26.880  23.688   7.545 -0.0066 -0.0673  0.0564
    1W        W24826  12.600   0.634   1.112 -0.0123  0.2948 -0.0001
    1W        W24827  18.704  15.087   7.619 -0.1139 -0.0482 -0.0615
    1W        W24828  18.106  25.662   2.194 -0.0571  0.2306 -0.2267
    1W        W24829  19.990  22.828   2.491  0.1505 -0.0497 -0.1228
    1W        W24830  20.088  24.129  10.190 -0.0199 -0.2110 -0.1777
    1W        W24831   0.300  22.805   7.973  0.2568  0.2719 -0.3354
    1W        W24832  24.453  19.190   7.578 -0.0300 -0.1442  0.1124
    1W        W24833   0.328   7.711   9.158 -0.2473  0.1990 -0.1454
    1W        W24834   7.249  13.956   7.321  0.1615 -0.0789  0.0897
    1W        W24835   2.479  20.018   6.541 -0.1187 -0.0912 -0.0546
    1W        W24836  14.598  16.104   0.072 -0.0393  0.0043  0.3713
    1W        W24837   0.242  25.691   6.267  0.0944 -0.2152  0.0434
    1W        W24838  20.542   6.983   0.657  0.1739  0.1387 -0.1524
    1W        W24839   6.476   8.717   0.302 -0.3391  0.0955  0.0761
    1W        W24840  18.811   4.609   1.340 -0.1015 -0.0442 -0.1400
    1W        W24841  10.554  23.054   1.823  0.0629 -0.0353  0.0652
    1W        W24842  20.956  27.301   7.275 -0.0658  0.0478 -0.4003
    1W        W24843  23.130   8.666   1.682 -0.0205  0.1666  0.2188
    1W        W24844  26.711   3.933   1.885 -0.0761 -0.0412  0.1197
    1W        W24845  23.489  16.379   2.821  0.1720 -0.0539 -0.2038
    1W        W24846  20.981  17.174   0.290 -0.0639  0.3395 -0.0298
    1W        W24847   3.920   7.756   7.458 -0.1874 -0.0236  0.2519
    1W        W24848  26.336   5.075   0.544  0.0281 -0.2247  0.0202
    1W        W24849  22.020   7.086   7.927 -0.0672  0.1458 -0.3620
    1W        W24850  16.304   3.757   9.520 -0.3694 -0.2645 -0.1064
    1W        W24851  10.663   9.835   2.809  0.0619 -0.2297  0.4447
    1W        W24852  13.317  13.562   8.236 -0.0377 -0.0607 -0.2144
    1W        W24853   4.635  16.940   2.902 -0.2224 -0.0497 -0.2131
    1W        W24854  19.376  22.023   8.281 -0.2862 -0.1218  0.1010
    1W        W24855   3.652   1.632   2.137  0.0278  0.0047  0.2868
    1W        W24856  10.048  23.425   9.931  0.0967  0.0837 -0.2565
    1W        W24857  13.647  24.082   2.637  0.0845 -0.1906  0.1307
    1W        W24858  11.915   0.409   7.661 -0.1120 -0.1136  0.5348
    1W        W24859   5.827  27.020   0.833 -0.0949  0.0283  0.1452
    1W        W24860  14.401   8.804   9.462  0.0290 -0.0360  0.1442
    1W        W24861  22.735   1.580   9.565 -0.1197  0.0105  0.2720
    1W        W24862  27.529  16.728   9.157  0.0028 -0.1879 -0.0174
    1W        W24863  12.196  22.630  10.037  0.3839 -0.1107  0.0073
    1W        W24864  24.444   2.865   9.648  0.0246 -0.0072 -0.1527
    1W        W24865  11.353   5.451   9.920  0.0577  0.0772 -0.0822
    1W        W24866  12.633  22.006  10.091  0.2011  0.1566  0.1643
    1W        W24867   9.448   6.711   9.713  0.1970 -0.0020  0.3423
    1W        W24868  25.179   0.674   9.714 -0.0718 -0.2151  0.2108
    1W        W24869   6.253   3.645   9.727 -0.1425  0.1425  0.1265
    1W        W24870  18.297   1.646   2.972 -0.3331 -0.1794  0.1805
    1W        W24871  18.996  27.553   2.821 -0.0037  0.1585 -0.4322
    1W        W24872   9.821  26.037   7.861 -0.1350  0.0646 -0.1629
    1W        W24873   1.103  21.474   7.182  0.0247 -0.2066  0.2160
    1W        W24874   6.259   0.467   0.967 -0.1263  0.0497  0.0687
    1W        W24875  24.480   7.638   8.503 -0.1497  0.0608 -0.1837
    1W        W24876  17.923   3.143   2.233 -0.3105  0.1173  0.5651
    1W        W24877   0.732  20.282   9.265 -0.0177  0.0806 -0.1610
    1W        W24878  24.373  23.487   2.506  0.0685 -0.1218 -0.2289
    1W        W24879  16.804  27.902   0.072  0.1830 -0.0789 -0.0574
    1W        W24880  21.426   8.320   7.924  0.1963 -0.1225  0.1325
    1W        W24881   8.334  22.603   9.932  0.2264 -0.1683 -0.0041
    1W        W24882   6.532  17.679   0.747 -0.0548  0.1165  0.2486
    1W        W24883  27.817   3.878   1.093 -0.1068  0.3209  0.0852
    1W        W24884  16.746  26.405   8.136 -0.0840  0.0376 -0.3112
    1W        W24885  11.974  18.964   9.991 -0.1486  0.0401  0.3221
    1W        W24886  10.486   9.815   3.628  0.3206 -0.1996  0.2387
    1W        W24887  27.496  26.543   1.458 -0.2707 -0.1912 -0.2003
    1W        W24888   4.948  14.717   7.806  0.0477 -0.1601  0.0135
    1W        W24889  22.134   9.009   0.242  0.2659 -0.1883 -0.0269
    1W        W24890  27.926  21.006   7.304  0.0157  0.3225  0.0260
    1W        W24891  20.686  18.007   1.617  0.1559  0.1256  0.1059
    1W        W24892  16.102  14.722   7.659  0.0413 -0.0419  0.1130
    1W        W24893  20.811   8.162   3.290 -0.0510 -0.1602  0.0266
    1W        W24894  10.190  23.300   0.397  0.0313  0.2602  0.0104
    1W        W24895  27.415  15.364   6.868  0.0885 -0.1005 -0.2175
    1W        W24896  25.997  19.972   9.022  0.6544  0.1692  0.2049
    1W        W24897   8.459   9.145   2.345  0.0608  0.1740 -0.1412
    1W        W24898   9.826  11.828   0.648  0.0736 -0.0336  0.1790
    1W        W24899  22.175   6.083   7.760  0.3055 -0.0216 -0.1422
    1W        W24900   7.418  14.670   2.302  0.2415  0.2572  0.1087
    1W        W24901  26.214  24.840   2.160  0.1715  0.3156 -0.2654
    1W        W24902  24.723   3.646   1.923 -0.3662 -0.1645  0.1037
    1W        W24903  20.939   0.555   2.501  0.1923  0.2137  0.1245
    1W        W24904  16.626   6.871   1.864 -0.1891  0.0900 -0.0211
    1W        W24905   6.067  22.895   9.704 -0.2158 -0.1292  0.1538
    1W        W24906   0.818  16.689   8.527  0.0355  0.0587  0.1401
    1W        W24907   1.506  12.517   2.129 -0.1789  0.3523 -0.2897
    1W        W24908   1.530  13.955   2.315  0.0614  0.1996 -0.0892
    1W        W24909  13.583   2.462  10.278 -0.3103 -0.0196  0.0821
    1W        W24910  27.532  14.638   6.222 -0.0405 -0.0519  0.1563
    1W        W24911  23.724  25.121   0.104 -0.0421  0.0826 -0.2660
    1W        W24912  24.895   1.113   0.839 -0.1553 -0.0020  0.2016
    1W        W24913  24.498   0.817   8.726 -0.1054  0.0064 -0.0855
    1W        W24914   1.890   6.385   8.565 -0.3134  0.1220 -0.1026
    1W        W24915   5.332  26.359   7.807 -0.3180  0.1110 -0.2999
    1W        W24916  19.547  21.413   8.399 -0.0676  0.1008 -0.6072
    1W        W24917  22.706  17.851   2.992  0.0885  0.2628 -0.0090
    1W        W24918   7.778   6.659   1.169 -0.2276  0.1641 -0.1873
    1W        W24919   5.410  19.524   4.213 -0.1044  0.1759 -0.3367
    1W        W24920  12.012   6.585   3.231  0.0294 -0.1395 -0.1838
    1W        W24921   0.436   1.617   8.023 -0.2065 -0.1841 -0.0731
    1W        W24922  14.206  17.135   3.253 -0.5151  0.1814 -0.0255
    1W        W24923   3.072   2.216   1.452 -0.1441  0.0030 -0.0066
    1W        W24924   8.254   2.548   7.433 -0.1879  0.0465 -0.1019
    1W        W24925  10.067  17.832   9.311  0.1073  0.1684 -0.1344
    1W        W24926   8.810  19.173   8.510 -0.0493  0.0299  0.0443
    1W        W24927  22.846  13.688   0.619 -0.3433  0.1881  0.1987
    1W        W24928  26.775  23.967  10.362  0.0539 -0.1204  0.0024
    1W        W24929  15.508   5.170   2.696 -0.1345  0.1121  0.1882
    1W        W24930   1.125  10.866   2.127  0.1032  0.2072 -0.0939
    1W        W24931   5.114  12.259   1.470 -0.2836  0.0133 -0.2007
    1W        W24932   7.018   7.084   2.269 -0.0276 -0.1775 -0.1882
    1W        W24933   6.801  26.704   1.051 -0.1662  0.2183  0.0279
    1W        W24934   9.860  10.866   2.238 -0.0867 -0.6737  0.0565
    1W        W24935   3.196   5.619   0.306  0.1451  0.0259  0.0386
    1W        W24936  16.239  10.147   3.306  0.0731 -0.0596  0.0338
    1W        W24937  13.580   0.264   1.224 -0.1006  0.0169  0.0396
    1W        W24938   8.270  12.210   7.493 -0.0289 -0.0217  0.0220
    1W        W24939   0.395   9.447   1.110  0.0592  0.2482  0.1548
    1W        W24940  10.865  10.387   1.319  0.1837  0.1023  0.0768
    1W        W24941  18.993   7.720   2.380 -0.0534  0.2552  0.2312
    1W        W24942  21.029  16.476   8.060  0.3446  0.1398 -0.0890
    1W        W24943  15.076   3.035   9.871 -0.2782  0.0786  0.0902
    1W        W24944   6.450  22.323   8.297  0.3867  0.2859  0.1233
    1W        W24945  26.986   8.371   9.145  0.2101  0.2096 -0.0208
    1W        W24946  18.765   7.456   0.985  0.0821 -0.0584 -0.2226
    1W        W24947   9.028   6.744   7.855 -0.2493  0.0732  0.0465
    1W        W24948  14.369  11.817   9.478 -0.0258 -0.0639 -0.0761
    1W        W24949   6.672  10.990   3.027 -0.1165  0.1034 -0.2443
    1W        W24950  23.770  13.841   9.633  0.3650  0.2415  0.2180
    1W        W24951  15.578   1.668   3.509 -0.0932  0.2926  0.1161
    1W        W24952  23.872  20.630  10.011  0.0822  0.0849  0.0788
    1W        W24953  22.109  22.406   9.678  0.0269  0.1548 -0.2543
    1W        W24954  10.796   7.864   0.630 -0.0205  0.1005  0.0276
    1W        W24955   7.538  25.138   1.403  0.0358 -0.1984 -0.5119
    1W        W24956   8.264  11.246   9.442  0.0327  0.0083  0.1742
    1W        W24957   7.530  20.050   8.116 -0.1451 -0.3697 -0.0398
    1W        W24958  25.419  26.484   7.199 -0.0361  0.1024 -0.0884
    1W        W24959   2.792  22.112   7.970  0.2377 -0.0819 -0.0018
    1W        W24960   7.082  14.026   1.965  0.3355 -0.1568  0.1170
    1W        W24961  26.679   9.869   0.887 -0.0349  0.1766  0.0386
    1W        W24962   0.043  21.988   1.580  0.1516 -0.0099 -0.0319
    1W        W24963  16.152  19.164   1.792 -0.1941 -0.3510  0.1033
    1W        W24964  27.008  13.555  10.139 -0.1167  0.3172 -0.0325
    1W        W24965  12.340  14.897   0.390  0.0375  0.0588 -0.1525
    1W        W24966   0.007  13.016   8.803  0.3651  0.0985  0.2261
    1W        W24967  20.614  27.122   8.108 -0.3286 -0.2242  0.3607
    1W        W24968  27.384  24.681   6.974  0.1022  0.2870  0.0551
    1W        W24969  25.607   9.595   0.687  0.1370 -0.2088 -0.3495
    1W        W24970  25.818   0.653  10.126  0.1178  0.2329 -0.1443
    1W        W24971   2.486  15.465   2.631  0.3005 -0.4752 -0.3554
    1W        W24972   9.282  22.793   7.933 -0.0948  0.2082  0.2502
    1W        W24973  24.268  13.053   8.346  0.0917  0.1457 -0.0321
    1W        W24974  12.742  25.731   9.533  0.0259 -0.1126 -0.1716
    1W        W24975   0.209  17.373   8.214  0.0774  0.0938 -0.1261
    1W        W24976   7.808  12.876  10.027 -0.0530 -0.1305 -0.0464
    1W        W24977  11.296  19.021   8.007  0.0743 -0.1704 -0.0388
    1W        W24978  20.498  23.260   8.528 -0.1787 -0.2489  0.2458
    1W        W24979   6.327   1.264  10.020 -0.0006 -0.1537  0.2412
    1W        W24980  26.439  17.228   0.638  0.0714  0.1328  0.2710
    1W        W24981  12.445  19.693   1.311 -0.3616 -0.0405 -0.1324
    1W        W24982   2.269   6.479   7.373  0.0161 -0.1549  0.0330
    1W        W24983  27.034  14.677  10.163 -0.3159  0.2321  0.2089
    1W        W24984  19.486  23.788   7.556 -0.4194 -0.0957  0.1775
    1W        W24985   5.204   9.418   7.562  0.0001  0.0472  0.0341
    1W        W24986   7.210   8.972   0.905  0.2975  0.0694  0.2299
    1W        W24987   3.497  25.411   0.497 -0.2223 -0.2634 -0.0153
    1W        W24988   9.605   2.610   0.677  0.1728  0.0899 -0.0946
    1W        W24989  27.007  27.053   0.799  0.0490  0.2595  0.0181
    1W        W24990  17.652   2.476   7.200 -0.0285  0.0021 -0.1347
    1W        W24991  11.633  20.284   0.805 -0.1844  0.0046  0.0517
    1W        W24992   5.263   7.912   7.661  0.3502  0.1380 -0.1821
    1W        W24993  27.534   8.897   8.103 -0.1579 -0.1830  0.0933
    1W        W24994   5.178  14.002   2.755 -0.1628  0.3013 -0.1089
    1W        W24995   9.562  13.567  10.020 -0.0760  0.2811  0.0384
    1W        W24996  27.119  25.729   8.783 -0.0004  0.2424  0.3701
    1W        W24997  12.953  15.540   3.009  0.3227  0.2187  0.0725
    1W        W24998   9.731   0.231   8.269 -0.2352 -0.1315  0.1155
    1W        W24999  21.958  19.048   9.996 -0.1864  0.1017 -0.2111
    1W        W25000   4.385  23.648   0.164  0.0870 -0.2084  0.0428
    1W        W25001  22.417   1.887   6.987  0.5242 -0.0850  0.1087
    1W        W25002  10.672  13.572   8.569  0.0212 -0.0405 -0.1446
    1W        W25003  11.372  23.363   1.389  0.2656  0.0358  0.2054
    1W        W25004   4.010  11.439   0.214 -0.0132 -0.2227 -0.1874
    1W        W25005  17.148  24.011   8.224 -0.1458  0.0764  0.1579
    1W        W25006  11.388  15.083   9.070 -0.0071  0.2275  0.0544
    1W        W25007   0.178  15.390   9.075 -0.0771  0.4412  0.0662
    1W        W25008  12.228   6.909   2.682 -0.1091 -0.1447 -0.4675
    1W        W25009   1.718   6.978   9.013 -0.0389 -0.0265 -0.1371
    1W        W25010  13.484  11.860   9.878  0.0568  0.0296  0.1228
    1W        W25011   7.927  25.376   0.832  0.0491  0.3326 -0.2573
    1W        W25012  23.063  11.005   1.451 -0.0716 -0.1504  0.0898
    1W        W25013   5.561  10.831   1.413 -0.0662  0.1012  0.1518
    1W        W25014   9.948  18.062   0.196 -0.0169  0.1899  0.0654
    1W        W25015  23.459  27.769  10.045  0.1594  0.1275  0.0256
    1W        W25016  23.480  16.420   0.981  0.0115  0.1551 -0.1177
    1W        W25017  18.991  18.275   8.054 -0.1427  0.0485 -0.2012
    1W        W25018  15.819  20.521   8.383 -0.1536 -0.1597  0.4483
    1W        W25019  10.270   9.626   8.260  0.1374  0.0650 -0.1009
    1W        W25020   5.391  23.770   2.091 -0.1398 -0.3009  0.1754
    1W        W25021  13.018   1.377   0.730  0.1826 -0.0210  0.2416
    1W        W25022   5.160  21.307   8.414 -0.0105  0.2489 -0.3098
    1W        W25023  14.222  15.185   9.303  0.1704 -0.2835 -0.1155
    1W        W25024  22.776  27.671   1.473  0.0770 -0.2156  0.0941
    1W        W25025  14.552   0.073   7.132  0.0760  0.1409  0.3527
    1W        W25026  17.158  27.415   2.256  0.0655  0.1613  0.2373
    1W        W25027  14.313   7.374   4.037 -0.3857  0.2566 -0.2949
    1W        W25028   3.733   1.609   8.190 -0.1786  0.0229  0.0084
    1W        W25029   6.487  14.903   7.568  0.0816 -0.3122  0.0030
    1W        W25030  13.378  26.045   1.788 -0.3503 -0.1636  0.1396
    1W        W25031  14.072  13.568   0.077 -0.0682 -0.0939 -0.2022
    1W        W25032   2.328  22.540   0.702 -0.3244 -0.1026 -0.2352
    1W        W25033  22.455  26.580   2.245  0.1259  0.1291 -0.0317
    1W        W25034  24.521   8.218   1.073  0.0554  0.0026 -0.0767
    1W        W25035   1.573   9.287   9.347 -0.1992  0.3437 -0.0078
    1W        W25036  15.892   7.075  10.116 -0.0523 -0.3467  0.0366
    1W        W25037  17.056   8.373   7.237  0.0007 -0.2691  0.4644
    1W        W25038   9.633   2.224   7.983  0.1510 -0.0688  0.1631
    1W        W25039  18.519   9.737   2.997 -0.0565  0.1612  0.3040
    1W        W25040  23.582  23.527   9.166  0.0753  0.1703 -0.1145
    1W        W25041   1.047  13.251   1.657  0.0050  0.1867 -0.1437
    1W        W25042   0.193   8.007   7.549 -0.1775 -0.0078  0.0740
    1W        W25043  10.226  26.180   2.266  0.0663  0.2063 -0.2645
    1W        W25044   9.673  24.926   7.619  0.0309 -0.2064  0.1272
    1W        W25045   0.973  13.773   1.490 -0.0574  0.0378 -0.0116
    1W        W25046  22.761  21.329   1.758 -0.1566  0.4486  0.0806
    1W        W25047   4.203  26.675   0.041 -0.1971  0.0542 -0.2672
    1W        W25048  20.644   1.081   0.978  0.0261 -0.1364 -0.1157
    1W        W25049   0.346   7.606   1.980 -0.2731  0.1106  0.0236
    1W        W25050  13.574  19.283   3.540  0.0943 -0.0928 -0.1617
    1W        W25051  16.617  13.715   0.577  0.1466  0.4635  0.0625
    1W        W25052   8.527   9.264   7.448 -0.0228  0.5262 -0.1086
    1W        W25053  23.001   1.987   9.191  0.0123 -0.2167 -0.2581
    1W        W25054   6.870  25.227   7.258  0.3456 -0.0826  0.1707
    1W        W25055   7.538  20.883   0.434 -0.2346 -0.1423  0.0148
    1W        W25056   7.446  10.031   8.130  0.0908  0.0769  0.4917
    1W        W25057  19.181  15.331   1.036  0.2870 -0.1717  0.0965
    1W        W25058   1.507  16.052   0.866 -0.0708 -0.0140 -0.2191
    1W        W25059  18.073  16.935   9.893 -0.0321 -0.0352 -0.1009
    1W        W25060  14.378   1.268   2.722 -0.3136 -0.3411  0.0022
    1W        W25061   8.960   1.029   8.369 -0.3176 -0.2405 -0.2561
    1W        W25062  18.312  11.923   3.031  0.2334 -0.0045 -0.1410
    1W        W25063   4.691  18.082   2.348 -0.0822 -0.1576 -0.3957
    1W        W25064  22.647  12.541   1.618 -0.0652  0.1621 -0.0605
    1W        W25065   7.565  14.760   9.924 -0.2185 -0.2126  0.1529
    1W        W25066  19.100   0.047  10.274 -0.0661  0.0290 -0.2149
    1W        W25067   4.316  10.800   2.096 -0.1155 -0.0340  0.0098
    1W        W25068   5.472  15.747   0.386 -0.0140 -0.2427  0.3131
    1W        W25069   1.357   9.556  10.146 -0.3159 -0.0975 -0.1273
    1W        W25070  24.103   5.668  10.293  0.1862 -0.2110  0.0657
    1W        W25071  11.290  17.145   9.725 -0.1863  0.2239 -0.2523
    1W        W25072  20.105   7.269   1.826  0.0190 -0.0252  0.0342
    1W        W25073  22.703  22.672   2.275 -0.1591  0.2321  0.0425
    1W        W25074   7.264   8.706   7.336 -0.2004  0.0813 -0.0295
    1W        W25075   5.637  13.584   1.008 -0.0540 -0.0731 -0.0042
    1W        W25076  10.934  12.908   4.295 -0.1042 -0.2657 -0.0095
    1W        W25077  27.836  21.912   2.249  0.1391  0.0163 -0.0430
    1W        W25078  26.490   1.076   7.648 -0.0110  0.2071  0.3476
    1W        W25079  15.086   1.798   8.275  0.0294  0.1658 -0.0455
    1W        W25080  23.429  28.078   9.174 -0.1442  0.0466 -0.1334
    1W        W25081  26.976  10.771   1.131  0.0259 -0.0383  0.2621
    1W        W25082  19.009   7.628   7.950  0.0216  0.0919  0.1503
    1W        W25083   9.783  22.460   2.622 -0.0082 -0.0554 -0.1981
    1W        W25084   3.863   2.585   8.736  0.1075  0.0347 -0.0945
    1W        W25085  26.176  18.786   2.298 -0.1773 -0.0946  0.1678
    1W        W25086  13.166   2.867   7.629 -0.0478  0.1066  0.0479
    1W        W25087  13.510  10.161   9.870 -0.1247 -0.1247 -0.1186
    1W        W25088  27.173  15.476   1.563  0.1113 -0.0716  0.0793
    1W        W25089  26.314   3.594   1.901 -0.0540 -0.0831 -0.2224
    1W        W25090  20.981   1.137   3.027  0.0264 -0.0893 -0.3767
    1W        W25091   9.651  25.408   8.439  0.0877 -0.0824 -0.1259
    1W        W25092  14.784   1.058   9.737 -0.0114 -0.4172  0.0931
    1W        W25093  19.144  22.567   2.678  0.2787 -0.1712 -0.4620
    1W        W25094  14.444  11.144   8.939  0.0244 -0.0811  0.4840
    1W        W25095  15.638   0.474   2.374  0.1837  0.0763  0.1004
    1W        W25096  17.167  21.193   2.524 -0.1084  0.0474 -0.1927
    1W        W25097  15.901  24.849   2.790 -0.2042  0.1490 -0.0208
    1W        W25098  22.072  10.547   1.873 -0.1887  0.1072  0.2671
    1W        W25099   7.454  11.582   2.339  0.3170  0.2150 -0.1260
    1W        W25100  21.341   5.988   0.526 -0.0826 -0.0128 -0.1102
    1W        W25101   0.302   3.836   9.709  0.1656 -0.2427  0.3086
    1W        W25102  15.287  27.100   9.255 -0.0903  0.1702 -0.1117
    1W        W25103  21.040   7.461   7.926  0.2263 -0.2108  0.1330
    1W        W25104   2.119   5.318   0.250  0.1357 -0.0287  0.0241
    1W        W25105  26.945  20.235   0.055 -0.0719 -0.1071  0.0116
    1W        W25106  16.005  19.283  10.099  0.1971 -0.1856  0.0218
    1W        W25107   4.771   9.301   7.794 -0.0534  0.0384 -0.0662
    1W        W25108  22.064   7.109   1.133 -0.0052  0.0195  0.1045
    1W        W25109  12.423  28.025   6.906 -0.1031 -0.4588 -0.0291
    1W        W25110  19.390   9.280   0.365  0.1231 -0.0420 -0.1295
    1W        W25111   7.113  17.601   3.438  0.0525 -0.3369 -0.0967
    1W        W25112  22.883  13.083  10.070 -0.1327  0.0362 -0.2314
    1W        W25113  27.835  20.135   2.699  0.3572  0.1574 -0.1751
    1W        W25114   1.918   0.144  10.230  0.3282  0.0947  0.3240
    1W        W25115  11.019  14.427   3.387 -0.0531 -0.0149 -0.1436
    1W        W25116   7.206  20.018  10.231 -0.0115 -0.0468 -0.1555
    1W        W25117   3.910  23.650   6.732  0.0663 -0.0332 -0.1247
    1W        W25118  13.726  14.116   8.297 -0.0450  0.2135  0.0854
    1W        W25119  17.627  19.845   4.097  0.2143 -0.0142  0.1346
    1W        W25120  20.926   3.270   9.587 -0.2397  0.1219 -0.1855
    1W        W25121  24.554   5.067   8.564  0.0571  0.0746  0.0841
    1W        W25122  17.294  17.243   2.778  0.0743  0.1465  0.1785
    1W        W25123   6.771  12.573   9.011  0.2927 -0.0471 -0.0140
    1W        W25124  10.674  12.282   9.107  0.0380 -0.0899  0.1043
    1W        W25125   1.389  16.071   0.366 -0.2730  0.0051  0.0558
    1W        W25126  26.757   2.545   8.961 -0.1317  0.0365  0.1057
    1W        W25127   6.612  14.070   6.589 -0.0744 -0.0676 -0.1156
    1W        W25128   1.628   4.766   8.734 -0.2442  0.0941 -0.0481
    1W        W25129   9.126  19.218   0.192 -0.2478  0.0829  0.1494
    1W        W25130  18.495  27.650   7.198 -0.2327  0.0067 -0.1905
    1W        W25131  10.779  25.433   0.561 -0.3340 -0.1041 -0.0761
    1W        W25132  18.367  17.608   2.032 -0.1864  0.0586  0.1560
    1W        W25133   8.783  15.356   8.810 -0.1008  0.2561 -0.3974
    1W        W25134  21.848  11.185   0.727  0.5141  0.2287  0.0458
    1W        W25135   7.285   3.224   2.217 -0.0758 -0.2184  0.1718
    1W        W25136  25.334  13.565   0.759  0.0536 -0.3497 -0.5900
    1W        W25137  27.132  24.826   2.608  0.2424 -0.1785 -0.1467
    1W        W25138   9.592  24.475   7.879  0.0375  0.0206  0.0346
    1W        W25139  22.844   0.812   8.595  0.0932 -0.3061 -0.0919
    1W        W25140  13.139  15.280   0.780 -0.0437  0.2970  0.3139
    1W        W25141  27.842  25.425   7.469  0.1388  0.2879  0.1926
    1W        W25142   4.691   4.413   7.946 -0.0004  0.0051 -0.0370
    1W        W25143   3.654  17.361   0.814  0.0321 -0.1083 -0.0902
    1W        W25144   8.038  21.205   1.512 -0.1502 -0.2013 -0.0849
    1W        W25145  16.757  14.320   0.877  0.0005 -0.0325  0.1970
    1W        W25146  20.258  13.882   7.804 -0.0057 -0.2568 -0.0420
    1W        W25147   6.584  15.655   0.186  0.0592  0.1332  0.0993
    1W        W25148  14.517  12.850   9.435  0.0223 -0.4949 -0.0516
    1W        W25149  17.906  18.665   1.862 -0.0258  0.1107  0.0794
    1W        W25150  21.008  20.909   7.462 -0.3116  0.3777  0.2761
    1W        W25151  13.776  18.142   0.783 -0.2771 -0.3017 -0.0782
    1W        W25152  13.741  14.772   7.770 -0.0695  0.2792  0.1310
    1W        W25153  24.171   7.414   7.744  0.0971 -0.0271 -0.3431
    1W        W25154  16.591   3.437   9.796 -0.0067 -0.1408 -0.1325
    1W        W25155  10.544  14.533   8.729  0.0532 -0.0378 -0.0442
    1W        W25156   9.109   4.993   1.890  0.0427  0.0349  0.0856
    1W        W25157   3.434   8.584   1.177 -0.0169  0.1639 -0.1439
    1W        W25158  15.378   5.676   3.338 -0.0390  0.1809  0.1347
    1W        W25159   5.184  15.098   8.171  0.1763 -0.0902 -0.0922
    1W        W25160  17.129   4.251   0.845 -0.0313 -0.2623  0.0785
    1W        W25161   7.418   5.416   2.639  0.0100  0.1520 -0.0459
    1W        W25162  21.585   9.204   2.130  0.0147 -0.0705 -0.0911
    1W        W25163  27.890   0.491   8.012  0.1077 -0.0172 -0.0042
    1W        W25164  18.858  20.158  10.339 -0.0404  0.3027 -0.0921
    1W        W25165  25.765   6.397   2.666 -0.0894 -0.0236 -0.1142
    1W        W25166   4.577  18.167   3.589 -0.2170 -0.0374  0.2046
    1W        W25167  20.823   8.569   6.481 -0.3512 -0.1224  0.2852
    1W        W25168  25.646  24.922   8.173 -0.0360 -0.0109  0.3169
    1W        W25169  19.669  18.712   1.008 -0.0897  0.1411 -0.0650
    1W        W25170  12.662  25.502   6.904  0.0815 -0.2216 -0.2630
    1W        W25171  14.300   3.311   3.813 -0.1195 -0.0162  0.1794
    1W        W25172  20.452  20.372   3.436 -0.0135  0.2976 -0.1442
    1W        W25173   6.092  27.291   1.168 -0.0930 -0.2606  0.2220
    1W        W25174   3.248  26.128   2.138 -0.0468 -0.1336 -0.1833
    1W        W25175  27.545  15.068   1.476 -0.0083 -0.0480  0.1323
    1W        W25176  25.534  24.184   1.616 -0.2693  0.1079  0.0355
    1W        W25177  21.997  23.969   1.603 -0.2710 -0.1646  0.1822
    1W        W25178   5.702  22.601   9.418  0.1581 -0.0042 -0.0982
    1W        W25179  16.169  21.752   2.282 -0.2117  0.1395  0.3066
    1W        W25180  27.438  13.258   1.668  0.1391  0.1483  0.1780
    1W        W25181  27.211  27.815   7.757 -0.1526  0.2109  0.0474
    1W        W25182  15.418   2.380   3.170  0.2557 -0.0246  0.1603
    1W        W25183   0.374   1.272   1.055 -0.0427 -0.4864  0.2560
    1W        W25184   4.810   0.215   9.869  0.0901  0.1384 -0.2986
    1W        W25185  22.811  19.088   7.670  0.0837  0.4647  0.0035
    1W        W25186  17.885   3.451   7.497  0.1431 -0.1112  0.0037
    1W        W25187   3.372   7.882  10.053 -0.1064  0.0857  0.1251
    1W        W25188  25.547   2.871   6.221 -0.0739 -0.0402 -0.0249
    1W        W25189  12.908  13.666   7.435  0.1028 -0.0719 -0.0796
    1W        W25190  16.443  23.617  10.229  0.0648 -0.1013 -0.0464
    1W        W25191   7.778   7.138  10.059 -0.0294 -0.2008 -0.0301
    1W        W25192  11.232  22.385   2.670  0.0369 -0.3380 -0.0273
    1W        W25193   3.981  20.892   2.960 -0.3619 -0.0999 -0.1477
    1W        W25194   1.114  21.698   7.673  0.1525  0.1770  0.1588
    1W        W25195   3.911  23.977   0.165  0.1001 -0.0178 -0.2724
    1W        W25196  19.831   2.992   8.491  0.1295  0.1452 -0.0033
    1W        W25197  19.935   8.616   3.252 -0.0260  0.2046 -0.0919
    1W        W25198  25.187  20.303   7.332 -0.1723 -0.0682  0.1210
    1W        W25199  27.683  14.649   7.465  0.1320 -0.2087  0.0271
    1W        W25200   8.232   8.443   7.075  0.0847  0.0096 -0.0264
    1W        W25201  12.275  14.979   4.074  0.0353  0.0531  0.3050
    1W        W25202  25.412  19.947   8.916 -0.1244 -0.0695 -0.1787
    1W        W25203  13.942   0.998   9.193  0.1556  0.0191 -0.1591
    1W        W25204  18.855  11.752   2.180 -0.0873 -0.3927  0.0370
    1W        W25205  13.724  16.690   9.174  0.3562 -0.0457 -0.0964
    1W        W25206  27.542  19.618   0.543  0.0415  0.3307  0.0369
    1W        W25207  23.221  10.298   7.280 -0.0853  0.0313  0.0931
    1W        W25208   8.826  17.350   9.162 -0.0285 -0.0155 -0.1380
    1W        W25209  24.459  14.833   1.376  0.0845 -0.3032  0.2610
    1W        W25210   7.639  22.393   2.336 -0.1130 -0.1952  0.0273
    1W        W25211  25.035  27.379   1.303  0.1999  0.0297  0.1929
    1W        W25212  13.734  27.897   9.637 -0.2373  0.2680  0.1130
    1W        W25213   3.374   9.823   0.876  0.0957  0.1569  0.0146
    1W        W25214   1.896  10.341   9.730 -0.1942 -0.2576 -0.3415
    1W        W25215   1.497  16.339   8.855 -0.3048  0.1532  0.0300
    1W        W25216  17.536  14.240   0.084  0.3021  0.2621  0.0688
    1W        W25217  27.954  18.346   2.140  0.0843  0.2220  0.3670
    1W        W25218   2.255   9.380   8.732 -0.1917 -0.2190  0.2459
    1W        W25219  16.023   8.165   9.502 -0.0845  0.1440 -0.2815
    1W        W25220  13.712   5.607   8.260 -0.2495  0.0325 -0.1748
    1W        W25221   8.683  10.319   7.666 -0.2800 -0.0167  0.2635
    1W        W25222   0.973  22.768   3.145  0.0263  0.1641 -0.0243
    1W        W25223  14.340   4.856   8.177  0.0468 -0.2859  0.1934
    1W        W25224  12.708  12.875   2.319  0.0249  0.0976 -0.0597
    1W        W25225   6.350  10.622   3.153 -0.0980  0.1610  0.0309
    1W        W25226  26.351  24.258   0.367  0.0579  0.0941  0.2455
    1W        W25227  27.265  11.600   0.552 -0.1159 -0.0579 -0.1174
    1W        W25228  16.584   4.290   2.660  0.0212  0.1256  0.1122
    1W        W25229  25.303  19.460   9.141  0.1858  0.0783  0.0109
    1W        W25230  11.017  11.613   2.605  0.2794  0.1197  0.0624
    1W        W25231  10.917   5.524   0.809  0.3126  0.2201 -0.0009
    1W        W25232   5.297  10.571   1.964 -0.0483 -0.0860  0.1997
    1W        W25233  22.352   4.947   2.615 -0.1573 -0.1031  0.1967
    1W        W25234   7.928  25.618   9.287 -0.1919  0.1404  0.1253
    1W        W25235   9.296  22.237   3.018  0.1102  0.0982  0.1709
    1W        W25236   3.451  21.555   9.770  0.2965  0.4707 -0.2003
    1W        W25237  18.777  27.870   9.383  0.2031 -0.3814  0.0854
    1W        W25238  23.501   6.501   7.861  0.0234 -0.3229 -0.1328
    1W        W25239   1.554  15.046   0.819 -0.0521  0.0176 -0.0222
    1W        W25240  24.650  22.193   1.907 -0.1765 -0.1525  0.1441
    1W        W25241   9.411  10.237   9.219 -0.0660 -0.2493 -0.1856
    1W        W25242  13.136  22.497   3.099  0.1693  0.2124 -0.0460
    1W        W25243   4.407   5.234   9.817  0.0089 -0.0971  0.1160
    1W        W25244   9.230  22.940   0.361  0.0792  0.2573  0.3964
    1W        W25245   8.123  27.079   7.455  0.0864  0.0187 -0.0154
    1W        W25246   6.317  20.706   9.125 -0.0061  0.0284 -0.1323
    1W        W25247   1.735  17.175   1.148 -0.0560 -0.2844 -0.1977
    1W        W25248  24.100  23.149   0.924 -0.2795 -0.1095  0.1934
    1W        W25249  27.466  27.660   2.706 -0.0617 -0.2794 -0.3231
    1W        W25250  20.075  10.659   9.418 -0.1249 -0.0683  0.1219
    1W        W25251  22.210  26.114  10.356  0.2132  0.0695  0.1796
    1W        W25252  15.530  13.353   7.996 -0.2722  0.0117  0.0253
    1W        W25253   9.378  11.638   8.546  0.1928  0.1850  0.1043
    1W        W25254   0.335   9.730  10.252  0.1402  0.1538 -0.3668
    1W        W25255   7.321   1.071  10.145 -0.0011 -0.2190  0.0096
    1W        W25256   8.213  19.651   9.430  0.0180  0.3128  0.4271
    1W        W25257  19.814  23.064   1.602 -0.0400  0.3052  0.1596
    1W        W25258  27.452  25.573   2.078 -0.2062  0.1035  0.2074
    1W        W25259   8.309  14.821   8.019  0.0115  0.3467  0.1442
    1W        W25260  24.585   7.393   7.457  0.0584  0.1776  0.1366
    1W        W25261  23.527  19.276   0.983  0.0741  0.1358 -0.1294
    1W        W25262   1.278  24.188   0.090 -0.0032  0.0309 -0.0858
    1W        W25263   5.635   4.506   1.675 -0.0473 -0.1074 -0.1151
    1W        W25264   1.912  27.006   1.464  0.0991 -0.1140 -0.2020
    1W        W25265   9.547  18.913   2.506 -0.0227  0.1152  0.1368
    1W        W25266   0.707  22.470   0.037  0.0315 -0.2284  0.0997
    1W        W25267  20.962  21.372   9.774  0.2991  0.1472 -0.1817
    1W        W25268   4.239  27.276   7.422 -0.1029  0.2767 -0.2236
    1W        W25269  21.667   6.145   1.070  0.0794  0.0860  0.0456
    1W        W25270   7.494  16.650   3.502  0.2137  0.0216  0.0890
    1W        W25271  16.963  19.133   1.131  0.0735 -0.0351  0.1448
    1W        W25272  25.036   5.684  10.226 -0.0057  0.1068  0.0403
    1W        W25273  24.752   9.447   0.819  0.0080  0.3228  0.2540
    1W        W25274  20.614  14.873  10.331  0.1378  0.1412 -0.0069
    1W        W25275   5.043  21.190   2.368  0.2122 -0.4315 -0.1973
    1W        W25276  28.086   9.286   9.043 -0.2761 -0.1615 -0.3646
    1W        W25277  18.713   1.015   2.982 -0.0154  0.0274  0.1083
    1W        W25278   5.575  10.324   7.106  0.1655 -0.0290 -0.1705
    1W        W25279  27.772   1.016   0.692 -0.1005 -0.1199 -0.2160
    1W        W25280  22.993  20.134   2.172  0.2193 -0.1149  0.2108
    1W        W25281   4.110  14.854   0.925 -0.1555  0.0380 -0.1876
    1W        W25282  19.919   4.186   9.331  0.0580 -0.4212  0.0044
    1W        W25283   3.932  20.746   1.590  0.1074  0.3514  0.4767
    1W        W25284  21.922  23.078   3.222  0.1133  0.0695 -0.2504
    1W        W25285  24.440   1.890   7.014  0.1152  0.0068 -0.3910
    1W        W25286  17.198  17.297  10.042 -0.2037  0.2399  0.0304
    1W        W25287   2.750  20.764   7.233 -0.0592  0.1759 -0.1364
    1W        W25288  20.950  25.612   9.858 -0.3464 -0.0314 -0.0833
    1W        W25289   6.143  22.340   9.531  0.0433  0.0393 -0.3578
    1W        W25290  15.438  21.891   1.309  0.1962 -0.2862  0.3211
    1W        W25291  21.377   8.986   0.357 -0.2201 -0.1728  0.0119
    1W        W25292  20.135  12.828   1.209 -0.0986 -0.0383  0.1170
    1W        W25293  27.957   7.872   7.952  0.0621  0.2588 -0.2109
    1W        W25294  27.038  20.746   8.826  0.3493 -0.0506 -0.0472
    1W        W25295  23.712  15.615   9.607  0.5637 -0.2916 -0.0089
    1W        W25296   9.119  24.363   6.995 -0.3371 -0.1575 -0.1994
    1W        W25297  20.509  20.617   2.870  0.1297  0.0011  0.0082
    1W        W25298  12.252   5.979   8.316  0.1939 -0.1097 -0.2753
    1W        W25299  24.883  26.293   8.370  0.1312  0.0888 -0.0256
    1W        W25300  14.967  12.463   0.504  0.2759 -0.0115 -0.1190
    1W        W25301  14.961  20.915   0.418 -0.0451 -0.1055 -0.1601
    1W        W25302   4.016   0.832  10.357  0.4437  0.2700 -0.1907
    1W        W25303   0.120  20.570   2.058 -0.2783 -0.0377 -0.1549
    1W        W25304  21.024  14.867   0.256  0.0548 -0.1320 -0.0517
    1W        W25305  23.302  19.932   1.783 -0.1058 -0.2868  0.1167
    1W        W25306   8.373  24.053   2.531  0.2615 -0.0264  0.0179
    1W        W25307  11.849  23.480   1.329 -0.1070 -0.0143  0.1955
    1W        W25308   2.230  21.543   1.181 -0.2660  0.2468  0.1789
    1W        W25309  16.051   1.831   1.948  0.1521 -0.2538 -0.1240
    1W        W25310  20.867   0.376   7.715 -0.1608  0.1052  0.0062
    1W        W25311  17.397  18.153   3.334  0.2557 -0.4917  0.1148
    1W        W25312  22.642  11.333   1.867 -0.1452  0.0386  0.0370
    1W        W25313   2.055  24.709   0.285  0.1070  0.3452  0.0107
    1W        W25314  20.467   0.050   7.817 -0.1900  0.1193  0.2034
    1W        W25315   3.250   8.217   8.771 -0.3160  0.1752 -0.1139
    1W        W25316  17.323  13.319   0.827 -0.1838  0.2244 -0.0848
    1W        W25317   2.857  27.579   0.025 -0.0793  0.0845  0.1527
    1W        W25318   4.213   3.413  10.238  0.2187  0.3166 -0.0718
    1W        W25319   9.069  15.808   8.996  0.1501  0.0205  0.4560
    1W        W25320  18.965  13.470   0.507 -0.0813 -0.0812 -0.0449
    1W        W25321  12.641   3.684   9.403 -0.3620  0.1363  0.3273
    1W        W25322   8.955  20.734   1.034  0.0343 -0.2877  0.0586
    1W        W25323  11.648   4.602   0.404  0.0793  0.2262  0.2706
    1W        W25324  19.250   6.733   0.883 -0.2171  0.1582 -0.0132
    1W        W25325   4.098   4.219   9.293 -0.0353  0.0846 -0.1135
    1W        W25326  17.797  22.299   3.134  0.3239  0.2532 -0.0186
    1W        W25327   0.272  10.131   8.946  0.3229 -0.1296  0.0709
    1W        W25328   8.837  21.645   2.215 -0.2530  0.0660 -0.2372
    1W        W25329  22.240   8.300   2.372  0.0891 -0.0671  0.1652
    1W        W25330  17.701  20.491   2.407  0.4122  0.3110 -0.3230
    1W        W25331  18.417  21.383   9.595  0.1856 -0.0216  0.0748
    1W        W25332  23.549  14.558   9.833 -0.2479  0.0598  0.1431
    1W        W25333  25.848  20.854   3.100  0.3583 -0.0507  0.0475
    1W        W25334  17.873  11.828   2.085 -0.0804  0.1646  0.0788
    1W        W25335  17.816  10.434   1.797 -0.0585 -0.0131 -0.0852
    1W        W25336   7.701   1.517   3.204 -0.1816 -0.2179 -0.0860
    1W        W25337   5.546   1.258   1.138  0.0098  0.1701 -0.3540
    1W        W25338   5.322   6.787   6.668 -0.0117  0.1724  0.0094
    1W        W25339   2.528   1.540   9.651 -0.0819 -0.0903 -0.3931
    1W        W25340   6.300   4.264   0.083  0.0004  0.0761 -0.3726
    1W        W25341  18.540   2.443   1.030  0.0832 -0.1555  0.1545
    1W        W25342  23.286  27.506   7.580  0.1086 -0.2395  0.0764
    1W        W25343  14.042  25.433   9.959  0.0727  0.2007 -0.0175
    1W        W25344  24.679   3.672   0.066  0.3184 -0.2462 -0.1542
    1W        W25345  10.981   2.723   0.379  0.0311 -0.1182  0.2013
    1W        W25346  21.445  21.512   7.290  0.0133  0.1963 -0.0428
    1W        W25347  23.753  14.496   2.364 -0.1138  0.2237 -0.3749
    1W        W25348  25.363   1.905   0.642  0.3825  0.1200 -0.0768
    1W        W25349   2.855  20.700   1.323 -0.0480 -0.1909 -0.0368
    1W        W25350  18.214  18.931   1.537 -0.0308  0.3072  0.0501
    1W        W25351   8.126  17.642   9.614 -0.2452  0.0319  0.2490
    1W        W25352  17.116   8.614   9.873 -0.2465  0.0336 -0.2289
    1W        W25353   0.669  19.720   3.012  0.0229 -0.1880  0.1243
    1W        W25354  26.734  10.341  10.053 -0.3206 -0.1148  0.1303
    1W        W25355  17.809  14.937   9.445 -0.2579 -0.0188  0.2181
    1W        W25356  17.318   1.493   1.617 -0.0418  0.0102 -0.1736
    1W        W25357   0.230  12.719   3.064  0.2775  0.1834 -0.0257
    1W        W25358  23.771  17.847   9.742  0.3024 -0.1174 -0.0900
    1W        W25359  23.821  17.634   6.990  0.2632 -0.0269  0.2897
    1W        W25360  10.481  21.894   8.668  0.0345  0.0251 -0.5150
    1W        W25361  15.001  10.615   7.406 -0.0611 -0.6408  0.0464
    1W        W25362   2.832   0.338   6.286  0.1598 -0.0758  0.1569
    1W        W25363   0.209  10.749   1.837  0.1248  0.0278  0.1469
    1W        W25364   7.982   9.027   8.639  0.1545  0.1643 -0.1384
    1W        W25365   9.075  14.993   1.955  0.0381 -0.0105 -0.0965
    1W        W25366   2.390   2.900   6.471  0.2237  0.3917  0.1332
    1W        W25367  14.201  27.046   8.659  0.1479 -0.4051 -0.4655
    1W        W25368   7.220  22.755   8.882 -0.1956 -0.0011 -0.1686
    1W        W25369  13.432   9.585   9.646  0.0378 -0.1546  0.2035
    1W        W25370   6.396  17.565   0.275  0.1295  0.1426 -0.1363
    1W        W25371  20.906  20.168   8.917 -0.3364 -0.1830  0.0540
    1W        W25372   1.218  11.681   2.713  0.1105  0.0513 -0.2009
    1W        W25373  26.290   3.218   6.786 -0.0176  0.1079 -0.1170
    1W        W25374  11.543   4.268   2.267  0.0987 -0.0643 -0.0325
    1W        W25375   7.984  10.153   2.905 -0.0068 -0.1624  0.0218
    1W        W25376   0.700   8.001   7.344 -0.4476  0.1914 -0.0045
    1W        W25377   7.869  16.056   7.042 -0.1186 -0.3042 -0.1916
    1W        W25378   9.472  25.406   8.970 -0.1650 -0.1301 -0.0593
    1W        W25379  23.007  26.391   1.106  0.1515  0.2561 -0.0947
    1W        W25380   2.969  23.781   9.697  0.3657 -0.4511 -0.0899
    1W        W25381  21.965  20.093   7.213 -0.2446 -0.0600 -0.2477
    1W        W25382   2.871  23.491   7.641  0.0681 -0.2601 -0.2236
    1W        W25383  21.744   2.113   8.033 -0.1497  0.0056 -0.0005
    1W        W25384   3.511   4.504   6.274 -0.0477  0.0710  0.2867
    1W        W25385   5.485   8.554   9.631  0.0172 -0.2622 -0.0440
    1W        W25386   5.444  11.146   7.677  0.2124 -0.0147  0.1434
    1W        W25387  24.886  25.602  10.275 -0.1241  0.0009  0.0797
    1W        W25388  22.490  27.968   8.174  0.2676  0.3344 -0.1860
    1W        W25389  26.386  17.374   0.180  0.1215 -0.0985 -0.0200
    1W        W25390  15.031   7.119   1.819  0.5546  0.0278 -0.1795
    1W        W25391   2.030   8.309   9.269 -0.0249 -0.1721 -0.1543
    1W        W25392   7.843   5.598   7.497  0.3263 -0.1394 -0.0375
    1W        W25393  14.251  17.522   1.416 -0.1258  0.1582  0.1134
    1W        W25394   9.285  18.185   7.838  0.0698 -0.0354 -0.0999
    1W        W25395  16.355   8.930   2.431 -0.1011  0.3880  0.1103
    1W        W25396  23.648  10.610   7.261  0.3212  0.0426  0.2307
    1W        W25397  12.221  16.285   2.879 -0.0707 -0.0525  0.4175
    1W        W25398   7.557  17.163   7.259  0.1372  0.1809 -0.1452
    1W        W25399  20.494  16.635   1.530 -0.1350 -0.2254  0.2766
    1W        W25400  15.648   8.802   8.777 -0.2630  0.2309  0.0080
    1W        W25401   6.213  15.620   8.212  0.1317 -0.1945 -0.0563
    1W        W25402   2.279   0.754   9.408  0.0633  0.0052 -0.1807
    1W        W25403   5.663  18.774  10.205  0.0955  0.3211 -0.1290
    1W        W25404  23.346  20.434   8.431  0.0726  0.0259  0.0752
    1W        W25405  21.393   5.933   6.504 -0.0406 -0.0882  0.0597
    1W        W25406   9.598  25.594   7.244 -0.0862  0.1756  0.0631
    1W        W25407  22.374  14.672   8.125  0.0699  0.0447  0.1370
    1W        W25408  20.359  10.215   9.339  0.4472 -0.3137 -0.2584
    1W        W25409   6.706  12.817   2.749  0.5628  0.0138 -0.5196
    1W        W25410  27.981  13.241   9.741 -0.0971  0.0583 -0.1257
    1W        W25411  25.881   5.280   1.563  0.0985  0.1667  0.0089
    1W        W25412   7.511  16.105   8.067 -0.1543  0.0807  0.3396
    1W        W25413  19.736  26.670   1.001  0.3578  0.1389 -0.0796
    1W        W25414  16.235   2.628   7.864 -0.2972  0.0010  0.1342
    1W        W25415  20.515  20.993  10.065 -0.3185 -0.0195  0.2732
    1W        W25416  15.786  13.652   0.871 -0.3167  0.0492  0.4083
    1W        W25417   3.879  19.358   8.321 -0.0912  0.0884  0.0981
    1W        W25418   3.480  25.052   0.140 -0.0735 -0.3973  0.0626
    1W        W25419  14.594  28.005   3.742 -0.1243 -0.2012 -0.3615
    1W        W25420   9.661  13.912   9.615 -0.0194  0.0030 -0.1350
    1W        W25421  26.166  22.173   7.395  0.0603 -0.1497  0.0102
    1W        W25422  27.153   1.918   8.622  0.0941 -0.0270  0.1630
    1W        W25423  10.256   3.698   1.479  0.3011  0.0437 -0.0418
    1W        W25424   3.517  12.697   7.283 -0.0081  0.0551 -0.0899
    1W        W25425  23.101  18.862   8.488 -0.3744  0.0381  0.2067
    1W        W25426   8.074  10.194   1.683 -0.3256 -0.2196 -0.1389
    1W        W25427  18.597  16.425  10.129 -0.2926  0.4148 -0.2588
    1W        W25428   0.573  13.211   6.266 -0.0064 -0.4115  0.0734
    1W        W25429  24.176   2.797   1.397  0.2969 -0.4756 -0.3674
    1W        W25430  27.137  27.032   7.606  0.1413  0.1001  0.0561
    1W        W25431   4.043  26.021   0.667  0.0666 -0.2043  0.1793
    1W        W25432  26.405   2.745   0.278  0.1192 -0.1240  0.2555
    1W        W25433  10.335  12.282   8.125 -0.0411 -0.1348 -0.0297
    1W        W25434   1.295  21.806   0.947 -0.0632 -0.0217 -0.0720
    1W        W25435   3.931  11.368   0.804  0.1173 -0.0375  0.1389
    1W        W25436  11.559  23.357  10.064  0.0486  0.1464 -0.1436
    1W        W25437   4.490  12.885   1.907 -0.1535 -0.1151 -0.2384
    1W        W25438  20.237  16.962   7.177  0.0171 -0.2151 -0.2810
    1W        W25439  12.384  26.989   8.822  0.2375 -0.1399  0.0945
    1W        W25440   1.984  16.286   0.858  0.1967 -0.1405  0.1143
    1W        W25441   1.569   6.096   8.919  0.1721  0.3557  0.3111
    1W        W25442  16.987  13.679   0.895 -0.1275 -0.1919  0.2547
    1W        W25443  16.091   7.066   7.989  0.0051  0.1169  0.0511
    1W        W25444   5.288   6.559   9.732 -0.1106  0.2937  0.1933
    1W        W25445   7.726  23.359   0.870 -0.1011  0.0356 -0.2658
    1W        W25446  19.655  24.254   7.315  0.1369  0.3281  0.0455
    1W        W25447   4.391   2.113   9.117  0.1296  0.2790 -0.5280
    1W        W25448  19.563   2.835   9.100 -0.1494 -0.0112 -0.0593
    1W        W25449   4.821  18.235   8.791 -0.1063  0.4189  0.1183
    1W        W25450   4.981  11.676   8.297 -0.1438  0.1527  0.1107
    1W        W25451   0.006  24.399   7.354 -0.0826  0.2266 -0.0176
    1W        W25452  11.774  22.889  10.318  0.0280 -0.2765  0.1712
    1W        W25453  24.866   6.368   6.586  0.0032 -0.0573  0.1594
    1W        W25454   0.159  16.725   2.744 -0.0428  0.0539 -0.2050
    1W        W25455   3.061   7.845   8.203  0.2620 -0.2180  0.0448
    1W        W25456  25.830   7.056   6.958  0.0078 -0.1302 -0.2031
    1W        W25457  27.781  23.953   7.365 -0.1843  0.2420 -0.4670
    1W        W25458  26.664  18.810   9.430 -0.0181 -0.1484  0.0452
    1W        W25459  12.144  16.966   9.066 -0.2647 -0.2373  0.4251
    1W        W25460  20.971   9.460   9.183 -0.1703 -0.0939  0.2291
    1W        W25461  25.888  10.932   8.239  0.0139 -0.0181  0.0450
    1W        W25462  23.057   5.152   0.459  0.1146  0.0617  0.0540
    1W        W25463   3.048  15.266   8.917 -0.2125  0.0152  0.2166
    1W        W25464  24.350   4.531   7.043  0.1461 -0.2696  0.1126
    1W        W25465   5.674  23.822   0.654  0.0811 -0.0420 -0.0065
    1W        W25466  17.725   1.515   7.848 -0.1019  0.2275 -0.1266
    1W        W25467  26.233  27.946   8.714  0.1784  0.1343  0.1711
    1W        W25468  16.732  17.307   2.736 -0.3866  0.1844 -0.1164
    1W        W25469  17.448   0.575   7.344  0.2665  0.1065  0.1351
    1W        W25470  19.735  16.129   3.536  0.2431 -0.2011 -0.1355
    1W        W25471   7.089   4.027   9.185 -0.4261 -0.0232  0.0442
    1W        W25472  19.270  27.151   2.366  0.0014  0.0071  0.2612
    1W        W25473  23.293  27.490   8.097  0.0055  0.1307  0.2982
    1W        W25474  18.388   7.487   3.012 -0.1435  0.0476 -0.1236
    1W        W25475  27.303   5.922   0.504  0.0026  0.1849 -0.0374
    1W        W25476  21.279  20.934   0.990 -0.2214 -0.0906 -0.0477
    1W        W25477   5.366  25.328   0.099  0.1330 -0.0266  0.3666
    1W        W25478   2.153  15.919   3.287  0.1224 -0.0742  0.0613
    1W        W25479   7.587  27.592   8.901 -0.0899  0.0699 -0.0180
    1W        W25480   1.740  27.112   0.004 -0.0630 -0.1548  0.1346
    1W        W25481  21.969  22.604   1.803  0.1358 -0.2972  0.0079
    1W        W25482  28.037  21.068   8.108  0.0637 -0.0280  0.1496
    1W        W25483  21.888  19.893   7.735  0.0264  0.0207  0.1135
    1W        W25484  26.882  17.232   1.115 -0.0820  0.0590  0.0184
    1W        W25485  13.501  20.425  10.099 -0.3260 -0.2109 -0.1229
    1W        W25486   5.477  21.570   1.436  0.0284 -0.2431 -0.0863
    1W        W25487  26.082   4.666   0.536  0.1632  0.0254  0.3974
    1W        W25488   1.119  10.781   0.492 -0.0208 -0.0419 -0.1505
    1W        W25489  23.024   1.541   2.651 -0.0915  0.0492 -0.1279
    1W        W25490  27.767  14.160   7.234 -0.0313 -0.1774  0.0135
    1W        W25491  26.232   1.297   7.295  0.2069 -0.0536  0.3035
    1W        W25492  15.915   7.751   0.666 -0.4177  0.0898  0.0172
    1W        W25493   1.383   4.295   8.521 -0.1443 -0.0674  0.2333
    1W        W25494  13.531   6.934   3.373  0.2064 -0.0690 -0.0301
    1W        W25495   2.205  16.737   9.159 -0.0557  0.4264 -0.0796
    1W        W25496  27.021  10.141   1.147  0.1377 -0.0821 -0.2527
    1W        W25497   3.230   6.602   1.355 -0.1786  0.0302 -0.1169
    1W        W25498  15.845   5.890   9.509  0.0331 -0.1849  0.0813
    1W        W25499  15.452  11.678   0.931 -0.0282  0.1075 -0.2690
    1W        W25500   1.681  12.985   1.885 -0.1068  0.2058 -0.1173
    1W        W25501   4.416   6.796  10.277 -0.0263  0.0273  0.0252
    1W        W25502   8.337  27.678   9.617 -0.0693 -0.3079 -0.1713
    1W        W25503  22.286  12.801   1.912 -0.0972 -0.2058  0.1623
    1W        W25504   4.082   5.114   6.065 -0.0861  0.0635 -0.0861
    1W        W25505  13.489  17.519   7.321  0.0260 -0.1739  0.0992
    1W        W25506  23.952   5.599   3.251 -0.0379 -0.2272  0.0346
    1W        W25507  16.783  21.030  10.264 -0.1974  0.1348 -0.0714
    1W        W25508  19.699   8.403   2.150 -0.0485 -0.0143  0.0538
    1W        W25509   5.782   6.577   1.603  0.3187 -0.1932 -0.0065
    1W        W25510  19.497  21.861   3.844  0.2043 -0.0972 -0.1426
    1W        W25511   6.363  16.538  10.229 -0.2178  0.0705 -0.0393
    1W        W25512  21.544  16.915   7.568  0.1887 -0.0437  0.0078
    1W        W25513  13.343  27.642   9.848 -0.1492  0.1455 -0.1942
    1W        W25514   6.970   4.380   8.694 -0.1813 -0.0234 -0.1336
    1W        W25515   5.690   0.863   2.229 -0.0033  0.1656 -0.0280
    1W        W25516   8.858  15.693   2.337 -0.1316  0.0355  0.1616
    1W        W25517  15.404  12.049   0.592 -0.3529  0.2813  0.1235
    1W        W25518   3.445  19.691   7.165 -0.0921 -0.2339 -0.1224
    1W        W25519   8.488   3.427   2.482 -0.0930  0.0801  0.2127
    1W        W25520  26.822  16.382   2.453  0.0456 -0.1336 -0.3078
    1W        W25521  10.471   5.767   2.947  0.1638 -0.1550  0.0549
    1W        W25522  14.926   8.544   3.014 -0.2870 -0.2944  0.3916
    1W        W25523   9.879   8.885   7.324  0.1309  0.2172 -0.0656
    1W        W25524  18.875   6.986   1.986  0.2256 -0.1498  0.0387
    1W        W25525   7.161   8.445   7.738  0.2023 -0.1599 -0.0000
    1W        W25526   2.940   5.009   6.709  0.2314  0.1799  0.1560
    1W        W25527  27.550  19.854   9.597  0.1118 -0.1163  0.2015
    1W        W25528  20.577  24.635   8.788  0.0646 -0.0694  0.0006
    1W        W25529  24.123  11.047   9.255  0.0511 -0.0975 -0.0313
    1W        W25530  25.336   1.398   7.132 -0.1968  0.2822 -0.0980
    1W        W25531  11.799  10.803   7.915 -0.2801  0.0269  0.0094
    1W        W25532   9.530   2.116   7.187  0.3688 -0.1822 -0.1345
    1W        W25533   4.587  10.341   8.497  0.2111  0.4596  0.0874
    1W        W25534  11.113   9.767   2.402  0.0946 -0.1336 -0.2218
    1W        W25535  15.804  18.901   2.601  0.1963  0.0811  0.2422
    1W        W25536  10.620  16.195   8.746 -0.3465 -0.0183  0.1434
    1W        W25537  27.733  20.336   7.624 -0.3657  0.0300 -0.0514
    1W        W25538   1.734  10.168   9.321 -0.3822 -0.2411  0.1672
    1W        W25539  18.776   6.775   9.358 -0.2518  0.0224  0.0446
    1W        W25540  19.797   9.340   0.031  0.1608 -0.1040  0.3984
    1W        W25541   0.002  24.903   1.241  0.3477  0.3155 -0.2806
    1W        W25542  15.006  22.208   1.377  0.0372 -0.5487 -0.1081
    1W        W25543   8.424   9.185   0.233  0.1691 -0.0659 -0.0849
    1W        W25544   4.285  24.654   0.640  0.0681  0.1439  0.1392
    1W        W25545  16.975  26.688   2.720  0.0732 -0.0901 -0.0037
    1W        W25546   1.479   6.964   6.742  0.1296  0.0878  0.1881
    1W        W25547   8.139  12.777   7.752  0.0100 -0.0012 -0.0515
    1W        W25548   7.586   8.337   8.035 -0.0497 -0.0687  0.1899
    1W        W25549  10.245  20.142   2.962  0.1320 -0.1152 -0.2495
    1W        W25550   2.234  14.237   0.649 -0.0739  0.3089  0.1820
    1W        W25551  11.600  18.449   8.634  0.3219 -0.0119 -0.4557
    1W        W25552  19.182   7.082   1.269 -0.1216 -0.3070 -0.0989
    1W        W25553  21.172   3.736   6.155 -0.0382  0.1484 -0.2935
    1W        W25554  13.799   9.265   2.075 -0.1542  0.2665 -0.1919
    1W        W25555  11.079  11.030  10.230  0.0110  0.2702  0.0767
    1W        W25556  10.925   2.727   8.760  0.2809 -0.1406 -0.4627
    1W        W25557   4.223  15.494   2.581  0.1729 -0.0525 -0.0536
    1W        W25558   0.812   0.763   8.003 -0.4365 -0.1178 -0.1043
    1W        W25559   0.456   1.745   8.598 -0.0820 -0.0261  0.0710
    1W        W25560  18.178  14.467   8.403  0.0160 -0.0120 -0.1330
    1W        W25561   6.439  17.490   9.189 -0.0913  0.0103  0.0900
    1W        W25562  15.608   2.092   8.494  0.1486  0.0116 -0.0075
    1W        W25563  27.648   5.953   1.087  0.0681  0.0683  0.1028
    1W        W25564  21.100   4.234   7.313 -0.0237  0.1317  0.2270
    1W        W25565  11.193   5.380   2.412  0.0019 -0.2519 -0.1614
    1W        W25566   9.290  22.031   8.298 -0.1206  0.0404  0.1075
    1W        W25567  27.007  19.159   1.520 -0.1591  0.2254  0.0701
    1W        W25568  12.347  12.607   3.026  0.0557  0.2987  0.1425
    1W        W25569   6.256  15.342   9.600  0.1138 -0.0242 -0.1128
    1W        W25570   0.216   7.679   7.136 -0.3205  0.0415  0.3744
    1W        W25571   1.833   5.588   9.012  0.1508 -0.1648 -0.0131
    1W        W25572  25.415   9.261   1.123 -0.0253 -0.1123 -0.3441
    1W        W25573   8.684   8.819   0.367  0.1335  0.0501  0.0079
    1W        W25574   0.423  26.777   8.495  0.1680  0.0082 -0.0166
    1W        W25575   7.283  22.903  10.264 -0.1224 -0.0082  0.2380
    1W        W25576  11.691  15.155   0.919 -0.2671  0.1566 -0.0741
    1W        W25577  24.491  16.645   8.666  0.0330  0.1540  0.5029
    1W        W25578   4.717   0.951   9.348  0.3416  0.0194  0.0587
    1W        W25579  11.877   0.320   9.749  0.2112 -0.2393  0.1944
    1W        W25580   0.649  20.975   9.044  0.2016 -0.1926  0.0393
    1W        W25581  24.855   5.727   9.591 -0.0888  0.0902  0.0190
    1W        W25582   8.898  23.347   0.440  0.1527 -0.1540  0.1860
    1W        W25583  13.218  13.042   3.774  0.3375 -0.1791  0.0884
    1W        W25584  23.108  26.030   3.298 -0.1599 -0.0091  0.2250
    1W        W25585  13.483  24.448   3.084 -0.1971 -0.0082  0.2751
    1W        W25586   3.197  21.465   2.858 -0.0025  0.3380  0.2282
    1W        W25587  27.494   8.264   7.924  0.2190  0.2961 -0.1175
    1W        W25588  24.978   6.874   0.317  0.2433 -0.0710  0.3482
    1W        W25589  18.845  10.088   0.506 -0.1687 -0.0186  0.1242
    1W        W25590  11.001  10.567   1.976 -0.1235 -0.1499  0.4014
    1W        W25591  16.410  15.103   7.859  0.1319 -0.0003 -0.0780
    1W        W25592  10.173  25.195   1.696  0.0130  0.0513  0.0240
    1W        W25593  12.247   3.951   1.752  0.0426  0.0487  0.0513
    1W        W25594  21.445   9.525   7.397  0.0894 -0.0280  0.2442
    1W        W25595  17.819  14.681   1.376  0.1749 -0.2072 -0.2313
    1W        W25596  10.158  24.373   0.128  0.0997 -0.4608  0.3578
    1W        W25597  23.114  19.929   0.090  0.0203  0.1929 -0.0007
    1W        W25598   6.580  17.149   1.524  0.1580 -0.5355 -0.1185
    1W        W25599  12.649  26.445   6.862  0.0535  0.3784  0.2521
    1W        W25600  18.144  25.791   8.967 -0.2106 -0.1415 -0.0117
    1W        W25601   4.601  14.699   0.827  0.4381 -0.2231  0.3308
    1W        W25602  17.143  24.578   2.360  0.2879  0.0556  0.4422
    1W        W25603  11.593   5.454   1.346  0.2561 -0.4349  0.1513
    1W        W25604  18.423  21.322   7.397  0.0796  0.2157  0.1789
    1W        W25605  26.333  10.005   8.007 -0.1436 -0.1655  0.2652
    1W        W25606  22.651  20.778   1.733  0.0380  0.1991 -0.3581
    1W        W25607   7.260  17.784   0.046 -0.0968  0.0017  0.0193
    1W        W25608  22.275  20.700   1.460  0.1026 -0.0770  0.1439
    1W        W25609  16.429   7.772   0.665 -0.1505 -0.0069 -0.1737
    1W        W25610   8.470   8.242   1.993 -0.0694 -0.2189 -0.0137
    1W        W25611  20.480   1.354   8.983 -0.0711 -0.1640  0.1540
    1W        W25612  13.864  12.550   2.008 -0.0667 -0.3730 -0.2791
    1W        W25613  19.947  11.177   9.412  0.0178 -0.0976 -0.1653
    1W        W25614   1.275  15.801   2.919  0.2160 -0.1073 -0.0607
    1W        W25615  17.543   4.018   1.038  0.0960  0.0279  0.5005
    1W        W25616  24.978  21.096   9.803  0.1262 -0.0309  0.0469
    1W        W25617  17.454  20.541   8.443  0.1652 -0.0922 -0.2316
    1W        W25618   9.671   7.463   8.737  0.2565 -0.0002 -0.1098
    1W        W25619  18.975  24.946   0.608 -0.1403 -0.1460  0.1231
    1W        W25620  12.174   7.328   9.593 -0.0705  0.0506 -0.0874
    1W        W25621  13.958   1.172   9.680  0.1482  0.0563 -0.1560
    1W        W25622  25.691  27.723   0.542  0.0278  0.0938 -0.0025
    1W        W25623   4.409   6.650   0.606  0.0894 -0.0075  0.1082
    1W        W25624   7.327   5.678   9.583 -0.0174 -0.3692  0.0040
    1W        W25625  18.988  16.142   9.431  0.0446 -0.1563  0.0410
    1W        W25626  17.790   8.571   2.034 -0.0032  0.0298 -0.0566
    1W        W25627   5.367  22.020   7.990  0.3082  0.2417  0.1818
    1W        W25628  13.704  20.222   1.723  0.0236  0.3370 -0.0133
    1W        W25629  16.957  10.129   9.695  0.1361  0.0096  0.0488
    1W        W25630  20.021  16.180   8.223  0.2055 -0.2394 -0.1458
    1W        W25631   4.358   0.077   1.662 -0.2577  0.0481 -0.1753
    1W        W25632   1.843  16.116   8.423 -0.2401  0.2434 -0.3173
    1W        W25633  23.097  11.537   0.098 -0.1869 -0.0505  0.2243
    1W        W25634   8.691  20.323   0.901  0.0337  0.0682 -0.2369
    1W        W25635  26.538  19.719   1.424 -0.0853 -0.1130  0.1632
    1W        W25636  21.880  26.079   9.323  0.0527 -0.0182  0.0950
    1W        W25637  17.178   2.267   3.927  0.1306  0.0654 -0.3520
    1W        W25638  13.477  24.045   8.538 -0.1554 -0.3530 -0.4998
    1W        W25639  24.311  26.877   8.199 -0.2774  0.0434 -0.0605
    1W        W25640   2.693   7.707   1.402  0.0379  0.1162  0.1878
    1W        W25641   5.058  14.455   6.749  0.0495 -0.0855  0.0166
    1W        W25642  19.277   8.143   2.185  0.0805 -0.0290  0.2340
    1W        W25643  27.576   4.239   9.661 -0.1876  0.0357 -0.0003
    1W        W25644  17.835  19.852   1.768  0.0147 -0.3300  0.0559
    1W        W25645  27.830   9.967   2.229  0.1045  0.1476 -0.3198
    1W        W25646  24.141  19.843   9.054 -0.0433  0.2569  0.0741
    1W        W25647  21.216   3.553   8.204  0.1001 -0.4259  0.2361
    1W        W25648  18.171   8.654   8.012 -0.2569  0.2848 -0.0680
    1W        W25649  23.138  19.480   7.760  0.2436  0.3924  0.0882
    1W        W25650   5.886  20.836   8.307  0.0561 -0.1544 -0.4815
    1W        W25651  14.475  20.705   7.743 -0.2345  0.0104  0.1954
    1W        W25652  13.167  22.132   6.476  0.2825  0.3455 -0.0450
    1W        W25653  18.815  26.506   9.215  0.0532 -0.1665  0.1399
    1W        W25654  10.735   5.796  10.030 -0.1837 -0.0245 -0.4217
    1W        W25655   1.161   3.790   1.103 -0.2682  0.0148 -0.4167
    1W        W25656  11.021  15.424   8.958  0.1998  0.0463  0.0027
    1W        W25657  24.612   4.357   9.805  0.1746 -0.1888 -0.1039
    1W        W25658  24.959  12.922   0.124 -0.0209 -0.2197  0.1556
    1W        W25659  20.285  19.612   2.064 -0.0485 -0.1436  0.4294
    1W        W25660  13.981  23.564   7.209  0.0604 -0.1660  0.0156
    1W        W25661  18.057  26.548   9.349  0.1983  0.3056  0.2465
    1W        W25662  23.910  14.019   1.659  0.0126 -0.1770 -0.2375
    1W        W25663  10.783   1.850   1.436 -0.2644  0.2110  0.1843
    1W        W25664  27.551   7.912   0.426  0.1701 -0.0488  0.0257
    1W        W25665   3.130  15.244   1.624  0.3664  0.2068 -0.0937
    1W        W25666  15.550   3.604   8.446 -0.0687 -0.2527 -0.3998
    1W        W25667  18.963  26.443   1.733 -0.0599  0.0506  0.5300
    1W        W25668   2.470  26.548   8.730  0.1685  0.0386  0.0410
    1W        W25669  21.680  14.848   8.853  0.4175 -0.2385 -0.2133
    1W        W25670  24.885  25.821   9.749 -0.0009 -0.1376 -0.4099
    1W        W25671  24.886   9.672  10.141  0.0215  0.1077  0.2158
    1W        W25672  15.218  12.900   1.154 -0.0335  0.0486 -0.0076
    1W        W25673  27.929  24.211   0.160  0.1562  0.0588  0.0164
    1W        W25674  17.108   6.407   6.988 -0.1677 -0.0305  0.2181
    1W        W25675  22.989  27.819   7.873 -0.1502  0.0489  0.0679
    1W        W25676  20.996   8.280   1.748  0.1083  0.0699 -0.2483
    1W        W25677  10.561  13.514  10.016  0.2907 -0.0048 -0.1319
    1W        W25678  13.737   8.545   0.405 -0.1443 -0.0881 -0.1097
    1W        W25679  11.332  17.156   7.797  0.1879 -0.0140  0.2738
    1W        W25680   3.240  13.279   9.998 -0.0614  0.1895 -0.0338
    1W        W25681   4.083  11.868   0.547  0.1059 -0.1105  0.0261
    1W        W25682  16.277   3.179   3.448 -0.1356 -0.0673 -0.0105
    1W        W25683  15.743  10.270   7.799  0.1045  0.2903  0.0565
    1W        W25684  12.859  25.355   8.238 -0.1106 -0.1288 -0.1758
    1W        W25685  14.796   6.741   2.044 -0.1446  0.2081 -0.0283
    1W        W25686  19.504   5.653   1.757  0.0039  0.1867 -0.1453
    1W        W25687  27.962   2.948   5.931  0.1333  0.0516 -0.0458
    1W        W25688  11.463  19.639   9.488  0.0614  0.4048 -0.0340
    1W        W25689  23.993   6.763   6.715  0.1695  0.1411  0.1593
    1W        W25690  11.958   1.454   2.528  0.2373 -0.0189  0.0237
    1W        W25691  23.043   9.228   0.784  0.3914  0.2087 -0.2796
    1W        W25692  23.336  21.550   9.671  0.0574  0.0431  0.0001
    1W        W25693  15.294  11.765   8.380  0.3738  0.0592 -0.1539
    1W        W25694  23.334  13.340   9.854 -0.1006  0.3375 -0.2572
    1W        W25695  18.042  13.348   2.057  0.1360  0.0937  0.3019
    1W        W25696  23.661   1.843   3.478 -0.2752 -0.1253  0.0078
    1W        W25697   7.834   5.364   2.358  0.1069 -0.0328 -0.2019
    1W        W25698  24.090  12.692   9.644 -0.3102  0.1787  0.0475
    1W        W25699   8.654  26.855   0.258 -0.2041  0.2220 -0.0865
    1W        W25700  15.474   7.791   4.018 -0.0875 -0.0503 -0.4370
    1W        W25701  12.721  15.960   9.871 -0.0213 -0.0958 -0.0161
    1W        W25702  27.774  21.391   9.044 -0.0480  0.2383  0.2000
    1W        W25703   2.772   2.134   0.197 -0.1177 -0.1849 -0.2198
    1W        W25704  17.097   9.356   1.183 -0.0342 -0.1989 -0.1449
    1W        W25705  11.276  23.526   9.106 -0.1590  0.2671  0.0914
    1W        W25706  24.739  25.060   8.743 -0.0209 -0.0244  0.0437
    1W        W25707  12.486  17.539   8.119  0.2224  0.0340 -0.1271
    1W        W25708  18.784  22.599   0.118  0.2699 -0.0927  0.0447
    1W        W25709  10.941  13.947   1.369  0.0320 -0.3736 -0.6762
    1W        W25710   7.594  13.996   1.619  0.0592 -0.1341 -0.0784
    1W        W25711  17.835  25.436   8.803 -0.0080 -0.1501 -0.0530
    1W        W25712   9.932  19.678   0.852  0.1290 -0.0360  0.1628
    1W        W25713  19.260  22.972   1.420 -0.2245 -0.1394 -0.2575
    1W        W25714   1.754  15.552   3.070 -0.0786 -0.0955 -0.1492
    1W        W25715  13.079  14.763   8.651  0.0122 -0.0719 -0.0209
    1W        W25716  10.334  12.594   9.555  0.1670  0.0320  0.2485
    1W        W25717  13.422  23.305  10.051 -0.0488  0.2277 -0.1124
    1W        W25718   4.151   6.892   6.595 -0.0389  0.1184  0.1161
    1W        W25719  10.032  11.534   7.442  0.1802  0.1750  0.0182
    1W        W25720  16.813  24.926   9.091 -0.0694 -0.0426 -0.0953
    1W        W25721  22.289  12.987   1.238 -0.1087  0.1614  0.3048
    1W        W25722  12.779  27.476   0.670 -0.3489 -0.0513 -0.0713
    1W        W25723  25.247  17.567   1.949  0.3030 -0.2724 -0.3324
    1W        W25724   6.489   3.167   0.698  0.0915  0.1974 -0.1247
    1W        W25725  11.533  23.678   7.570 -0.1081  0.0850  0.3715
    1W        W25726   1.680  23.523   9.936  0.2495 -0.0932 -0.2057
    1W        W25727  12.810   6.951   2.438 -0.2829  0.0215 -0.1224
    1W        W25728   5.180   5.241   7.633 -0.0527 -0.5801 -0.1077
    1W        W25729   9.948  17.520   9.750 -0.1014 -0.0110 -0.0124
    1W        W25730  22.931  13.382   9.585  0.1229  0.1405 -0.1205
    1W        W25731  11.518  20.226   0.138  0.0848 -0.1719 -0.1639
    1W        W25732  19.197  23.481   0.198  0.0533 -0.0612 -0.1273
    1W        W25733  13.587  10.127   7.778  0.1384 -0.0267  0.0936
    1W        W25734  18.917   4.321   7.917  0.0303  0.0600  0.1286
    1W        W25735  23.154  16.369   1.896 -0.1406 -0.0223 -0.0383
    1W        W25736  27.853  25.709   1.705 -0.2803 -0.2405 -0.1594
    1W        W25737   8.377   9.434   1.479  0.0666  0.3185 -0.0964
    1W        W25738  21.717   4.258   7.172  0.2554 -0.0781 -0.3310
    1W        W25739  11.717  22.583   1.719  0.1359 -0.0354 -0.1874
    1W        W25740  18.931  26.701   0.197  0.1842  0.1337 -0.4114
    1W        W25741   5.434  27.909   9.129  0.0204  0.0037 -0.2144
    1W        W25742   0.993   8.346   9.081 -0.2063  0.0412  0.2794
    1W        W25743   5.686  10.957   6.072  0.1334 -0.1831  0.1832
    1W        W25744  14.011  14.422   8.031  0.2223 -0.1067 -0.0604
    1W        W25745  20.846  13.302   0.126  0.3877 -0.2515  0.1827
    1W        W25746   5.731  21.031   0.989 -0.1727  0.0774 -0.0507
    1W        W25747  16.999   2.567   1.906  0.0007 -0.1099 -0.3149
    1W        W25748   4.128  18.484   1.113 -0.1463 -0.0139 -0.3301
    1W        W25749   3.800   6.188   9.075  0.0154  0.0612  0.0268
    1W        W25750   0.752  15.568  10.034 -0.0767  0.1301  0.1131
    1W        W25751  21.373  24.601  10.243  0.0650  0.0960 -0.0224
    1W        W25752  25.944  27.929   0.119  0.1924  0.0066 -0.1291
    1W        W25753  18.119   2.051   7.914 -0.1482  0.2417  0.2124
    1W        W25754  18.493   4.222   3.221  0.3606  0.1593 -0.1393
    1W        W25755   5.736   7.051   1.451 -0.1813 -0.0555  0.0804
    1W        W25756   0.331  24.781   2.765 -0.3973  0.2084  0.1443
    1W        W25757  26.177  13.991   9.375 -0.0621  0.3283 -0.0357
    1W        W25758  14.933   6.213   1.869 -0.0063 -0.0247 -0.1955
    1W        W25759  14.902  25.246   8.634  0.0019  0.0305 -0.1223
    1W        W25760  13.430   3.177   9.768 -0.0384 -0.0438 -0.0515
    1W        W25761  18.259   6.076   9.548  0.3198  0.0946 -0.1050
    1W        W25762  18.281  23.618   1.072 -0.0242  0.1567 -0.1626
    1W        W25763   3.608   7.497   7.176  0.1399  0.2279 -0.1684
    1W        W25764  16.322  18.978   1.314 -0.1922 -0.0624  0.0695
    1W        W25765  15.112  16.560   8.730  0.1801  0.0277  0.0543
    1W        W25766   4.035  20.864   8.677  0.2467 -0.3353 -0.0764
    1W        W25767   2.544  19.166  10.073 -0.2458 -0.0097 -0.2616
    1W        W25768   3.236  26.441   7.445  0.1956  0.0625  0.2493
    1W        W25769   4.325  17.599   7.587 -0.2319 -0.2378 -0.0435
    1W        W25770  12.646  21.143   8.801 -0.0504 -0.2601 -0.0828
    1W        W25771   6.315   5.389   6.546 -0.2483  0.1758 -0.2838
    1W        W25772  10.613  14.198   1.053  0.0755  0.1119 -0.0846
    1W        W25773  26.835   0.623   7.891 -0.0949  0.3235  0.0880
    1W        W25774  25.116  17.928   3.342  0.0548 -0.0317 -0.2278
    1W        W25775   6.338  27.886   9.712 -0.0108 -0.0256  0.0651
    1W        W25776   3.805  10.670  10.176  0.2649 -0.0587  0.0129
    1W        W25777  13.649   3.108   2.307  0.2095  0.0186 -0.0242
    1W        W25778  21.425  16.980   8.335 -0.1198  0.2836  0.0095
    1W        W25779  11.395   4.648   0.830 -0.2142 -0.0936 -0.2096
    1W        W25780  13.313  16.111   8.396 -0.1978 -0.1874  0.0507
    1W        W25781  16.216   3.905   7.262  0.2165 -0.3219  0.2952
    1W        W25782   1.790  11.273   0.394  0.0575  0.1446 -0.0132
    1W        W25783  17.938   8.334   6.918 -0.1145  0.1543 -0.4036
    1W        W25784  14.610   1.625   7.940 -0.1251  0.2825  0.3278
    1W        W25785  13.591  22.540   3.436  0.1458 -0.0952  0.0178
    1W        W25786  13.646  16.719   1.557 -0.3010 -0.1874 -0.1838
    1W        W25787  15.766   2.259   1.284  0.1773  0.1442 -0.0292
    1W        W25788   6.659   5.716   9.299 -0.0379 -0.0016  0.0216
    1W        W25789   5.527  14.289   9.908 -0.2086  0.3184 -0.0111
    1W        W25790   7.095   8.476   8.241  0.3471  0.0410 -0.0822
    1W        W25791   6.360   8.482   1.496  0.3205  0.1732  0.0488
    1W        W25792  17.165   9.819   3.164 -0.0578  0.1669  0.0476
    1W        W25793  17.981  20.693   8.906 -0.1819  0.1868 -0.4729
    1W        W25794   6.617  26.648   8.060 -0.0695  0.3501  0.1657
    1W        W25795   6.143   3.611   0.846 -0.1244 -0.2793  0.0259
    1W        W25796   7.965  15.919  10.229 -0.1443 -0.1053  0.1852
    1W        W25797   4.043   8.190   9.540  0.3490  0.2400  0.1354
    1W        W25798  23.541  19.288   2.552 -0.1461 -0.1669 -0.2219
    1W        W25799  16.405   4.770   7.316  0.0629  0.0693  0.0989
    1W        W25800  21.147   5.253  10.116  0.2654 -0.0011 -0.1378
    1W        W25801   2.833   1.597   2.162  0.1506 -0.2030 -0.0756
    1W        W25802  18.365  17.778   9.284 -0.0470 -0.2113  0.0717
    1W        W25803  23.034   0.491   0.127  0.1175  0.4038 -0.1187
    1W        W25804  17.455  22.780   0.060  0.0089 -0.3228  0.0246
    1W        W25805   3.070  23.839   7.285  0.0255  0.0085  0.2307
    1W        W25806   9.872  14.339   9.388 -0.1208 -0.5836  0.0438
    1W        W25807  25.789  27.875   1.478  0.1328 -0.0853  0.0374
    1W        W25808   7.325  26.121   9.058 -0.0613  0.0754  0.1129
    1W        W25809  23.164  17.832   1.773  0.1044  0.1200  0.0522
    1W        W25810  12.826   8.623   9.867  0.2305  0.1284  0.1355
    1W        W25811  15.456  18.243   9.225 -0.1991  0.0200 -0.1717
    1W        W25812   8.732  18.266   2.437  0.0754  0.0249 -0.2592
    1W        W25813   6.087  17.062   1.405 -0.1130 -0.1237 -0.1461
    1W        W25814   6.610  11.462   8.744  0.2344 -0.2400 -0.1146
    1W        W25815  21.128   4.247   0.329  0.0474  0.0965 -0.0748
    1W        W25816  19.354   0.656   3.368 -0.0227 -0.0213  0.1285
    1W        W25817   1.949   6.644   1.402 -0.0851 -0.2805  0.2173
    1W        W25818   4.626   6.388   0.982 -0.2848 -0.1384  0.1436
    1W        W25819   8.026  26.272   2.137  0.1574  0.2771  0.4227
    1W        W25820   4.121  17.830   8.858  0.0701 -0.3244 -0.0398
    1W        W25821  15.433   8.918   1.334  0.2845  0.0012 -0.2737
    1W        W25822  22.272   7.261   6.793  0.1336  0.7175  0.1078
    1W        W25823  14.695  24.087   2.633 -0.1192 -0.0284  0.2312
    1W        W25824  25.742  17.426   1.944  0.1018  0.1312  0.2539
    1W        W25825  24.352  15.455   1.745  0.0362  0.0107  0.2266
    1W        W25826  11.638  26.662   1.660 -0.1501  0.1497  0.0579
    1W        W25827  17.863  17.481   2.779  0.0747 -0.0717 -0.2458
    1W        W25828  14.372  24.299  10.238  0.2805  0.1319 -0.2477
    1W        W25829  15.733  11.067   1.286  0.2500 -0.0457  0.1836
    1W        W25830  21.441  23.469   7.583 -0.0958  0.3945  0.0166
    1W        W25831   3.910   7.244   6.911  0.0931  0.3488  0.0563
    1W        W25832  20.688   4.229   6.888  0.0280  0.0264 -0.3650
    1W        W25833  21.199   1.676   7.464  0.0811  0.2418  0.0532
    1W        W25834   8.741  19.886   9.489 -0.0719  0.2492  0.1085
    1W        W25835  21.164  27.401   7.715 -0.0560  0.0564 -0.3106
    1W        W25836  27.863   3.028   7.478  0.0180 -0.3478  0.1651
    1W        W25837  26.586  24.682   0.495  0.0901  0.3257  0.0302
    1W        W25838   3.189   6.910   9.970  0.1606  0.5652 -0.0690
    1W        W25839  18.202  25.689   8.466  0.0852  0.3211  0.0066
    1W        W25840  18.922   3.273   2.517  0.1549  0.3229  0.2054
    1W        W25841   6.869  14.652   2.510  0.1445  0.2144  0.3500
    1W        W25842  20.705  16.287   1.259  0.0713 -0.3375  0.1472
    1W        W25843   8.995   2.085   9.023 -0.2517  0.1618  0.3056
    1W        W25844  16.793   2.596   3.907 -0.0997  0.0045 -0.0366
    1W        W25845   8.059   4.274   6.965  0.1493  0.1107 -0.0435
    1W        W25846   5.765  11.839   8.595  0.0972  0.3664  0.0430
    1W        W25847  20.574  12.210   8.186 -0.0077 -0.2033 -0.0378
    1W        W25848  13.303  12.346  10.045 -0.2543 -0.1326 -0.0704
    1W        W25849  12.031  18.819   1.000 -0.1633 -0.0547  0.0024
    1W        W25850  19.742  22.315   0.402 -0.0379 -0.3765 -0.2405
    1W        W25851   1.937  16.904   8.221  0.1138 -0.2011  0.2191
    1W        W25852   8.340  13.165   9.356  0.1383 -0.1202 -0.2177
    1W        W25853  24.555   7.640   6.848 -0.2884  0.1054 -0.0888
    1W        W25854  12.334  19.271   1.623 -0.1059 -0.1322  0.0187
    1W        W25855  16.187  21.320   7.753 -0.0223  0.3229 -0.0143
    1W        W25856  14.285  21.566   6.543  0.4838  0.1826  0.3223
    1W        W25857  14.530  15.919   7.691 -0.1788  0.5694  0.3150
    1W        W25858   5.330  14.689   9.699 -0.0251  0.0418  0.3162
    1W        W25859  27.619  15.273   2.168 -0.2086  0.1386  0.1824
    1W        W25860  23.157  15.375   7.307 -0.0675 -0.0416 -0.3036
    1W        W25861  15.779   6.431   4.422  0.0358  0.0627  0.0370
    1W        W25862  20.721  25.968   8.617 -0.3350  0.0612 -0.1658
    1W        W25863  14.610  25.200   7.824 -0.1119  0.0827  0.4441
    1W        W25864   2.370  25.740   2.160 -0.0425 -0.1310 -0.0514
    1W        W25865   3.598  21.298   8.401 -0.0841  0.0389  0.1763
    1W        W25866  13.414  23.896   0.101 -0.0161 -0.6380 -0.0003
    1W        W25867  17.616  11.460   8.477 -0.1111  0.3203 -0.1531
    1W        W25868  15.937  22.847  10.258 -0.0058  0.3015 -0.0173
    1W        W25869  19.639  13.488   1.457 -0.4097 -0.0458  0.1215
    1W        W25870   7.381  26.422   9.486 -0.1601  0.1175 -0.0325
    1W        W25871  19.327   0.975   8.190 -0.1352 -0.1856  0.3072
    1W        W25872  27.894  10.513   1.617 -0.1559 -0.2637  0.2548
    1W        W25873  20.510   0.816   0.600  0.1243  0.3896 -0.3027
    1W        W25874  16.476  19.747   8.586 -0.2462 -0.0796  0.0390
    1W        W25875   3.816   1.736   6.535 -0.0331 -0.2240 -0.1407
    1W        W25876   6.747   0.440   2.063  0.2418  0.0545  0.1806
    1W        W25877   5.933  25.845   1.081 -0.0542  0.1824 -0.2495
    1W        W25878  23.548  11.497  10.206  0.2696  0.4077  0.2295
    1W        W25879  17.757  15.052   0.606  0.0728  0.1272  0.1242
    1W        W25880  15.437   7.465   0.020 -0.0324 -0.0395 -0.0900
    1W        W25881  26.418  10.202   9.456  0.0231 -0.0427  0.1795
    1W        W25882   2.995  16.357   8.312 -0.1960  0.1720 -0.0519
    1W        W25883  24.812  20.589   0.780 -0.1191 -0.0508  0.0522
    1W        W25884  14.342   4.840   1.084  0.1460  0.2282  0.1645
    1W        W25885  22.027  19.482   7.992 -0.0807 -0.3705  0.0498
    1W        W25886   2.488  24.655   6.510 -0.2755  0.3256  0.1140
    1W        W25887   1.212   8.257   1.852 -0.1662 -0.0076  0.2736
    1W        W25888  21.798  11.946   9.755 -0.3537  0.1037 -0.1156
    1W        W25889  20.778   2.141   1.795  0.0005 -0.2013  0.2446
    1W        W25890  25.439   9.578  10.084  0.1619 -0.2869  0.1324
    1W        W25891   0.428  23.750   2.397  0.1425 -0.0100 -0.2144
    1W        W25892  27.629  13.866   7.700  0.0136  0.0860 -0.0873
    1W        W25893   1.758  18.172   0.740  0.0235  0.3331 -0.2262
    1W        W25894   4.149  19.578   1.606 -0.0658 -0.0179 -0.2586
    1W        W25895  25.414  14.520   9.960 -0.0476  0.0944  0.0605
    1W        W25896  23.412  20.933   3.715  0.5518  0.0359 -0.2287
    1W        W25897   5.189  21.818   3.593  0.1592  0.0448  0.0383
    1W        W25898  10.534  14.439   3.574  0.1232  0.2109 -0.2294
    1W        W25899  22.517  20.058   7.234 -0.2726  0.0773  0.1286
    1W        W25900  14.753   7.966   8.807 -0.1486  0.1661  0.1892
    1W        W25901  20.290   3.642   7.621  0.1276  0.3173  0.0238
    1W        W25902  14.452  21.977   2.620 -0.0935 -0.0867  0.2410
    1W        W25903   9.416  15.671   2.859 -0.2227  0.0346 -0.0037
    1W        W25904  16.125   8.459   2.653 -0.2048 -0.1683  0.3347
    1W        W25905  14.263  21.852   6.955 -0.0115 -0.2991  0.0594
    1W        W25906  18.172  27.202   3.217 -0.1943  0.1185  0.0417
    1W        W25907   0.644   2.028   0.434  0.1997 -0.0644  0.0560
    1W        W25908  18.988  13.503   8.132  0.0078  0.0342  0.2773
    1W        W25909  13.711  13.786   1.683  0.5639 -0.1711  0.1020
    1W        W25910   0.422  24.390   3.087  0.0087  0.0243  0.0089
    1W        W25911   4.895  25.320   0.492 -0.0401  0.0448  0.0419
    1W        W25912   6.464  22.629   0.122 -0.0673 -0.0644 -0.0172
    1W        W25913   3.160   9.012   1.399  0.0527  0.5128  0.1684
    1W        W25914  19.054   3.110   1.473  0.0248  0.1457  0.0494
    1W        W25915   0.697  15.197   2.348 -0.2168 -0.2547 -0.0373
    1W        W25916  23.111   6.686   7.160  0.0727  0.0464 -0.0878
    1W        W25917   3.889  23.194   8.457  0.2501 -0.1348 -0.0425
    1W        W25918   0.811  24.975  10.004  0.2979 -0.2022 -0.1681
    1W        W25919  12.851  17.000   3.073 -0.0655  0.3003 -0.0668
    1W        W25920   5.563  18.408   0.327  0.1242  0.2609 -0.1516
    1W        W25921  27.780  23.740   1.910 -0.0845  0.0908 -0.1005
    1W        W25922  27.518  13.519   2.738  0.1501 -0.0231  0.1098
    1W        W25923  16.847   1.324   0.276 -0.1852 -0.3434  0.0266
    1W        W25924   5.879  22.722   2.172 -0.1267  0.0675  0.2649
    1W        W25925   7.555  27.177   7.501  0.1347 -0.0299  0.1758
    1W        W25926  26.400  17.749   7.931 -0.1004 -0.2010  0.0334
    1W        W25927   0.242  15.813   2.114  0.2333 -0.1799 -0.0491
    1W        W25928   3.552   5.908   0.170 -0.2320  0.0756  0.1187
    1W        W25929  13.967   7.839   2.280  0.0519 -0.0444  0.1994
    1W        W25930   0.650  26.897   1.945  0.1811  0.0285 -0.2669
    1W        W25931   4.408   2.179   1.028  0.3743  0.2461 -0.1157
    1W        W25932   4.404   1.010   1.616 -0.0176  0.1183  0.2356
    1W        W25933  18.980  11.254   8.196 -0.2575  0.1678  0.1465
    1W        W25934  10.286  26.188   9.788 -0.0679  0.1165 -0.1430
    1W        W25935  10.526  21.484   9.021  0.0076 -0.0688 -0.2636
    1W        W25936   2.797  19.507   1.156 -0.2698 -0.1771  0.0974
    1W        W25937  11.817  17.960   2.959  0.1049  0.0744 -0.0667
    1W        W25938  23.890  22.076   6.364 -0.0394 -0.0781 -0.1764
    1W        W25939   9.520  17.805   9.726  0.1319  0.0413 -0.2080
    1W        W25940  25.551  23.683   1.472 -0.2126  0.1989 -0.0448
    1W        W25941   3.269  23.474   1.525 -0.2949  0.0463  0.0882
    1W        W25942   9.427  23.983   7.872 -0.1259 -0.0509 -0.1077
    1W        W25943   0.282   4.325   0.292  0.2323 -0.2310 -0.2091
    1W        W25944   0.179  19.996   6.866 -0.0088 -0.1105  0.1968
    1W        W25945   0.726  23.795   0.470 -0.0560 -0.0600  0.1588
    1W        W25946  13.215  19.945   8.451 -0.0531  0.2248  0.4744
    1W        W25947   0.097  21.456   1.747 -0.0913 -0.0425  0.3315
    1W        W25948   4.850  18.393   7.710 -0.0535  0.0854 -0.0507
    1W        W25949   1.404   3.706   9.566  0.1033  0.2903 -0.4118
    1W        W25950   3.512   1.909   0.679 -0.1771  0.2315 -0.0209
    1W        W25951   6.070   7.116   9.143  0.0447 -0.0297  0.0807
    1W        W25952  24.910   4.628   7.699 -0.2217 -0.2240  0.0432
    1W        W25953   4.452   9.236   1.578 -0.0048 -0.3074  0.1969
    1W        W25954  16.904  23.622   0.774  0.0108  0.1616  0.0186
    1W        W25955   4.277   6.068  10.192 -0.1592  0.2006  0.0118
    1W        W25956  18.048  15.291   1.853  0.0231  0.0728  0.2963
    1W        W25957  26.206  25.974   8.872  0.1722 -0.3482 -0.0439
    1W        W25958  11.134   2.546   7.715  0.2934 -0.0330  0.2769
    1W        W25959   8.580  21.331   8.062 -0.2263 -0.1560 -0.2352
    1W        W25960   4.012   9.610  10.333 -0.1050  0.3124  0.3570
    1W        W25961  25.272   5.492   9.818 -0.0884 -0.1509 -0.2671
    1W        W25962   3.795  11.153   7.734 -0.1264  0.1751  0.2937
    1W        W25963   2.441   0.061   8.905 -0.0377  0.0964  0.1348
    1W        W25964   3.989   3.177   7.975  0.0915 -0.2161  0.2612
    1W        W25965  19.030  13.177   3.209 -0.0432 -0.2447 -0.2764
    1W        W25966  15.513  20.143   8.450 -0.1105 -0.0479  0.2908
    1W        W25967   6.532  17.885   9.481 -0.4237  0.0786  0.1860
    1W        W25968  12.808  12.838   1.437  0.1773  0.1011 -0.0756
    1W        W25969  24.225   1.544  10.299  0.1726  0.1030 -0.2583
    1W        W25970  17.661  26.778   2.132  0.1528  0.0322 -0.2424
    1W        W25971  23.824   8.852   0.755 -0.2111 -0.1456 -0.0147
    1W        W25972  21.184  27.777   7.290 -0.1442  0.1154 -0.0377
    1W        W25973  25.633  16.276   8.980  0.3403  0.0331  0.3172
    1W        W25974   5.957   3.915   9.436 -0.2702 -0.0413 -0.1031
    1W        W25975  16.042  21.642   8.706 -0.0942  0.0114 -0.0804
    1W        W25976  22.382  19.058   8.289  0.0130 -0.1330  0.2151
    1W        W25977  25.605  23.037   8.936 -0.1898  0.1923  0.2305
    1W        W25978  14.332   0.880   9.959  0.1500 -0.0010  0.1535
    1W        W25979   9.885  24.356   8.701 -0.1129 -0.3073 -0.2023
    1W        W25980   2.701  15.569   1.635  0.0772 -0.1541 -0.3757
    1W        W25981  23.904  12.718   8.257  0.0992 -0.1277 -0.0395
    1W        W25982   3.283  16.369   0.529  0.2276  0.2025 -0.3166
    1W        W25983   7.845   0.963   2.917  0.4459 -0.1171  0.0941
    1W        W25984   6.739  18.634   2.432  0.1827  0.0315  0.0573
    1W        W25985  13.964   2.893   2.779  0.0754 -0.1265 -0.3400
    1W        W25986   2.544   5.386   9.773  0.1716  0.1598  0.0387
    1W        W25987  12.859   9.708   2.329 -0.0624 -0.3188  0.0230
    1W        W25988  18.206   5.265   1.530 -0.1818  0.1241 -0.1177
    1W        W25989  12.022  21.842   8.646  0.1181 -0.3057 -0.0951
    1W        W25990  17.998  22.224   7.602 -0.0751 -0.0123 -0.0042
    1W        W25991  19.647   5.524   9.652  0.1498 -0.1031 -0.0101
    1W        W25992   5.139  25.324  10.007  0.1033 -0.2105 -0.0522
    1W        W25993  28.023  17.753   8.045  0.2983 -0.2186 -0.2628
    1W        W25994  24.351  18.484  10.143 -0.4076 -0.1204 -0.3539
    1W        W25995  23.864  10.470   9.811  0.2616 -0.3028 -0.2788
    1W        W25996   8.323  26.638   3.313  0.1359  0.0108 -0.1182
    1W        W25997  13.628  16.024   7.149  0.1339 -0.1361 -0.4137
    1W        W25998  22.007  17.093   1.244  0.4369 -0.2001  0.0167
    1W        W25999   6.041  15.584   0.437 -0.1734 -0.1038 -0.0914
    1W        W26000  17.414  15.185   0.947 -0.1251 -0.0993  0.0823
    1W        W26001  27.837  27.962   9.692 -0.1617 -0.1379 -0.2349
    1W        W26002   5.304   4.333   2.541 -0.0082  0.0996 -0.1903
    1W        W26003   9.938   2.012   8.668 -0.0018  0.2445 -0.1759
    1W        W26004  15.775   6.121   0.913  0.0896  0.2876  0.4371
    1W        W26005  24.100   6.144   7.976 -0.1097  0.2346 -0.0381
    1W        W26006   2.761   6.881   8.615  0.0259  0.0320 -0.0458
    1W        W26007   2.078   7.871   0.563  0.1344  0.0149  0.0060
    1W        W26008   3.700  18.052   8.701 -0.0386 -0.0366 -0.2056
    1W        W26009   2.350  12.721   0.258 -0.1088  0.5557  0.1661
    1W        W26010  23.260  18.612   0.207 -0.1035  0.0004 -0.1634
    1W        W26011  10.131   4.691   1.464 -0.1242  0.1817  0.3083
    1W        W26012  19.340  14.156   9.935  0.1536  0.1995  0.1338
    1W        W26013  15.617   7.490   8.395 -0.0153 -0.0243  0.1665
    1W        W26014  13.225  22.911   7.735 -0.3769  0.1887  0.0396
    1W        W26015  24.106   8.642   8.008  0.0767  0.0878 -0.2472
    1W        W26016  23.166   4.814   1.197  0.0192  0.0266  0.0783
    1W        W26017  10.205  26.938   0.194 -0.3480  0.1993 -0.0856
    1W        W26018  11.135  19.467   3.136  0.0809  0.1063 -0.0910
    1W        W26019  23.686  27.488   1.826 -0.3230  0.0849  0.0490
    1W        W26020   2.836  20.640   2.754  0.0397 -0.0305  0.2294
    1W        W26021   1.021  11.633   7.589 -0.1761  0.1810  0.0696
    1W        W26022  20.813  13.664  10.054 -0.0981 -0.2916 -0.2373
    1W        W26023   7.221  19.398   2.242  0.2431  0.1861  0.1584
    1W        W26024   2.010   4.402   9.844 -0.2877 -0.2175  0.0920
    1W        W26025  12.452   9.223   3.471 -0.1170  0.0708 -0.1957
    1W        W26026  23.494  14.914   0.895 -0.1007  0.0767  0.1032
    1W        W26027  13.442   0.737   9.862  0.1679  0.1273  0.0906
    1W        W26028   4.099  16.171   2.230  0.2178  0.0647 -0.1086
    1W        W26029  12.928  26.117  10.050 -0.1944  0.1235 -0.2460
    1W        W26030   0.136   0.887   1.904 -0.3539 -0.0971  0.0614
    1W        W26031  10.013   3.909   1.076  0.2007 -0.1991 -0.1662
    1W        W26032  23.026   0.540   7.272  0.0360 -0.1080 -0.1294
    1W        W26033   6.473  21.957   2.574  0.0611  0.0310 -0.2428
    1W        W26034  16.050  23.018   3.260  0.1240  0.0678  0.1151
    1W        W26035  13.191   3.522   2.952 -0.2269  0.1733 -0.0161
    1W        W26036  24.903  19.102   7.818  0.3250 -0.1026 -0.0077
    1W        W26037   0.493   0.341   9.083 -0.1564  0.2376  0.0425
    1W        W26038  21.350  21.697   0.620  0.1500 -0.1357 -0.1832
    1W        W26039   1.118   3.354   9.842  0.1333  0.0640  0.0563
    1W        W26040  27.859  26.555   0.042 -0.1928  0.1756 -0.1653
    1W        W26041  28.102  21.224   9.950 -0.3120 -0.1748 -0.0038
    1W        W26042   0.452   6.450   7.641 -0.1689 -0.0141  0.0638
    1W        W26043  17.849  16.267   1.881 -0.3646 -0.1040 -0.0337
    1W        W26044  18.476  13.108   1.848  0.0903 -0.1584 -0.1429
    1W        W26045   1.141  25.780   8.371  0.1383 -0.1246  0.4195
    1W        W26046  11.296  14.619  10.321 -0.0096  0.1657 -0.2107
    1W        W26047  21.623   9.825   9.498  0.1660  0.0781  0.1367
    1W        W26048  16.372  17.938   9.757  0.0033  0.1552 -0.1365
    1W        W26049   9.210   7.081   3.237 -0.2393 -0.1317  0.0099
    1W        W26050  18.652   6.641  10.182 -0.0302  0.5182  0.0840
    1W        W26051   8.917  26.856   1.250 -0.0041  0.0624  0.0812
    1W        W26052   1.019  12.930   7.483  0.1246 -0.0112 -0.2479
    1W        W26053  20.216  11.375   1.307  0.1742 -0.3368  0.1749
    1W        W26054  12.262   0.117   0.136  0.0986  0.0737  0.0384
    1W        W26055   4.887  20.736   8.256 -0.3792  0.0748  0.0273
    1W        W26056  15.818  11.598   1.256  0.1012  0.0837  0.2873
    1W        W26057  21.831  18.269   8.193  0.1447 -0.3060 -0.4292
    1W        W26058   4.092  17.838   8.008 -0.2508 -0.0221 -0.0322
    1W        W26059   7.558   4.090   9.442 -0.1775 -0.2966  0.2643
    1W        W26060  15.345  12.752   3.947 -0.1048 -0.0455  0.1944
    1W        W26061  13.784   1.799   1.069  0.0845  0.1289  0.0059
    1W        W26062  27.853  17.640   8.775 -0.3246 -0.2515  0.0645
    1W        W26063  26.914  12.389   2.686  0.1354 -0.2074 -0.1471
    1W        W26064   8.959  25.030   2.612 -0.2519  0.0578 -0.2383
    1W        W26065  12.172   4.793   0.379 -0.2003 -0.1739  0.0359
    1W        W26066  26.992  23.562   0.221  0.3220 -0.1673  0.0279
    1W        W26067  13.985  13.082   7.545 -0.1306 -0.0393  0.4119
    1W        W26068  11.633   6.269   2.373  0.0858  0.2054 -0.1236
    1W        W26069   6.447  12.011   8.134  0.0723 -0.0235  0.2899
    1W        W26070  10.931  11.509   9.536 -0.1522 -0.1638 -0.0328
    1W        W26071  16.274  12.470   2.023 -0.0954 -0.2989 -0.1931
    1W        W26072  18.252  10.106   9.695  0.0763  0.2093  0.1578
    1W        W26073  25.305  21.336   9.020  0.4022 -0.2088 -0.0367
    1W        W26074  13.459  26.841   7.289  0.0312 -0.5008 -0.1534
    1W        W26075  21.182   1.176   8.622  0.0038 -0.5229 -0.1463
    1W        W26076  13.972  13.931   9.319 -0.0262 -0.2175 -0.2266
    1W        W26077  11.454  20.767   0.041 -0.0600  0.0055  0.3293
    1W        W26078   9.861  21.003   8.639 -0.0419 -0.1712 -0.1326
    1W        W26079  26.903  10.406   0.157  0.0218 -0.1547 -0.1033
    1W        W26080   9.449   1.023   8.501  0.1822 -0.1849 -0.0260
    1W        W26081  21.230  11.350   2.903 -0.0444 -0.0253  0.1222
    1W        W26082  11.755  24.868   1.673  0.0382 -0.3009 -0.0677
    1W        W26083   2.814  26.884  10.024 -0.2315 -0.1682 -0.1349
    1W        W26084  18.353   1.233   9.245  0.2753  0.0174 -0.0202
    1W        W26085  25.343  20.264   2.071  0.1855  0.2764  0.1793
    1W        W26086  10.178   0.105   0.220 -0.1561 -0.2345  0.3159
    1W        W26087  26.900  15.570   8.137 -0.0073  0.2163  0.0008
    1W        W26088  26.075  18.479   7.633  0.1591  0.0167 -0.1263
    1W        W26089  18.297   2.412   0.091  0.1589 -0.0849  0.2388
    1W        W26090   2.399  16.431   7.233  0.1697  0.1039 -0.0404
    1W        W26091  22.203  20.336   2.341 -0.0713  0.1649 -0.0939
    1W        W26092  12.615   7.751   0.385 -0.0686 -0.0919 -0.0875
    1W        W26093  11.762  21.274   9.124 -0.0582 -0.0103  0.1334
    1W        W26094   5.942  25.112   1.288 -0.0642  0.1332 -0.1697
    1W        W26095  23.260  15.053   0.493 -0.0869  0.2024  0.0873
    1W        W26096   6.148  10.322   2.608  0.0768 -0.1512  0.0073
    1W        W26097  15.924   9.551   2.652 -0.2095 -0.0234  0.0245
    1W        W26098  20.227  25.166   8.261  0.1037 -0.1673 -0.4569
    1W        W26099  26.822  17.754   7.672  0.1737 -0.0842 -0.0203
    1W        W26100  16.155  13.142  10.193 -0.1326  0.2159 -0.0129
    1W        W26101  24.979   1.032   0.274  0.3630  0.1069 -0.4183
    1W        W26102   4.300  11.870   7.947 -0.0033  0.0849  0.0954
    1W        W26103  20.935  10.852   0.498 -0.1837  0.4055  0.1852
    1W        W26104   2.705  28.049   1.612 -0.0797  0.2255 -0.1511
    1W        W26105   5.191  25.881   1.808 -0.0278 -0.1005 -0.2150
    1W        W26106  26.565   7.414   7.027  0.2590 -0.0770 -0.0010
    1W        W26107   1.888  24.328   0.648  0.1884  0.4174 -0.0550
    1W        W26108  19.148   2.184   2.590 -0.3089 -0.0274  0.1873
    1W        W26109  20.727   6.617   0.967 -0.3412 -0.0841 -0.0477
    1W        W26110   9.368   1.473   9.638  0.1677 -0.0937 -0.0580
    1W        W26111   2.174  23.362   6.343 -0.1088  0.2734  0.2040
    1W        W26112   7.633   9.563   1.534 -0.0592 -0.0018  0.1702
    1W        W26113   8.549  27.967   2.201  0.0435  0.3033  0.3702
    1W        W26114   0.477  17.615   2.280 -0.2650 -0.0861 -0.1958
    1W        W26115  12.951   8.184   0.376 -0.0187  0.1529 -0.1025
    1W        W26116  13.299  12.657   3.063  0.0682 -0.2332 -0.1510
    1W        W26117  25.842   0.188   2.338 -0.2279  0.0011  0.0594
    1W        W26118  10.689   5.209   1.634  0.1803 -0.0884 -0.1834
    1W        W26119  13.011  17.515   2.144 -0.1396  0.1284 -0.2188
    1W        W26120  19.058   3.216   8.116  0.2431 -0.2479 -0.0971
    1W        W26121  17.269  22.249   2.371 -0.0190  0.0489  0.1510
    1W        W26122   1.340  20.754   1.092  0.0593  0.4758 -0.0963
    1W        W26123   8.475   5.082   9.275  0.0885 -0.1045  0.2979
    1W        W26124  14.788  26.610   1.218 -0.2780 -0.1262  0.1720
    1W        W26125  12.953  14.994   9.921 -0.0582  0.0477  0.1339
    1W        W26126  13.826   6.387   9.654 -0.0447 -0.2287  0.0277
    1W        W26127  20.510  17.982   1.125  0.0418  0.1028  0.1815
    1W        W26128  19.693  23.631   0.397 -0.1426  0.1028  0.1038
    1W        W26129   7.364   2.412  10.117  0.4584 -0.1967 -0.2688
    1W        W26130   3.802  21.705   3.495  0.0142 -0.2188  0.0229
    1W        W26131   0.375   5.660   8.913  0.1306 -0.0138  0.0479
    1W        W26132  15.211   2.287   9.229  0.0489  0.3439  0.0725
    1W        W26133  26.076  26.614   6.834  0.0917 -0.3857 -0.1492
    1W        W26134   5.498  16.946  10.141  0.1135  0.2257 -0.3051
    1W        W26135  15.914   5.507   8.481  0.4481 -0.1005  0.1870
    1W        W26136   3.202  17.873   2.607 -0.3873  0.2863  0.0287
    1W        W26137   6.364   4.603   2.279  0.1389 -0.0374 -0.3882
    1W        W26138  12.959  25.081   7.831 -0.2974  0.0011  0.1807
    1W        W26139  16.639  26.028   1.016  0.0478 -0.0098  0.1283
    1W        W26140   3.228  14.876   7.170 -0.0811  0.0870  0.0530
    1W        W26141  13.264  20.362   0.759  0.4107 -0.1351  0.1883
    1W        W26142  24.385  23.229   8.663  0.0135 -0.0265 -0.3267
    1W        W26143  17.453   3.781   2.789 -0.0973  0.1906  0.0234
    1W        W26144   6.155  23.129   7.182  0.2133  0.1662 -0.0421
    1W        W26145  15.034  11.165   9.710  0.1526 -0.0786 -0.0378
    1W        W26146  20.444   4.532   1.607  0.2033  0.1520 -0.1839
    1W        W26147  19.971  13.676   9.437  0.1559 -0.1569 -0.0781
    1W        W26148  21.290  15.649   8.619  0.0023  0.4053  0.0460
    1W        W26149  25.513   0.308  10.016 -0.2630  0.1002 -0.4537
    1W        W26150   2.800  15.757   9.214  0.0584  0.0397 -0.0254
    1W        W26151  12.716   5.292   2.136  0.0341 -0.0269  0.0224
    1W        W26152  26.763  11.302   2.558  0.2607 -0.0453 -0.0152
    1W        W26153  23.583   7.447   1.212  0.0976 -0.0904  0.0728
    1W        W26154  17.300  19.904   1.560  0.0709 -0.0752 -0.0807
    1W        W26155  10.054   8.777   0.448  0.2659 -0.1781  0.1006
    1W        W26156   8.892  23.220   1.942 -0.0609 -0.1874 -0.1032
    1W        W26157   6.509  12.418   8.570  0.0114 -0.0275  0.1213
    1W        W26158   0.311  27.632   2.478 -0.3697 -0.0618  0.0653
    1W        W26159  24.106  27.180   9.675  0.3570  0.1099 -0.3462
    1W        W26160  11.487  16.656   8.593  0.1944  0.0059 -0.1583
    1W        W26161   2.222  10.291   9.351  0.1033 -0.1133 -0.1108
    1W        W26162   9.326  22.462   3.483  0.1058  0.1978  0.1455
    1W        W26163   0.982   5.630   8.167 -0.1624 -0.1451  0.3091
    1W        W26164  23.043  23.253   7.288 -0.0475 -0.2062  0.1707
    1W        W26165   7.486   4.414   8.368 -0.1519 -0.0767 -0.0182
    1W        W26166  14.243   8.122   7.836 -0.2671 -0.1391 -0.4116
    1W        W26167  14.616  11.388   7.937 -0.2235 -0.0782 -0.4457
    1W        W26168  19.441  14.546  10.330 -0.0821  0.2319 -0.1867
    1W        W26169   0.508  15.565   1.186 -0.0733  0.4111  0.0075
    1W        W26170   3.646   9.195   0.146  0.1293 -0.0110 -0.0294
    1W        W26171  16.278  13.643   9.160  0.1853 -0.4702  0.0973
    1W        W26172  16.238  16.396   0.766 -0.1085 -0.1459 -0.0735
    1W        W26173   3.556   9.464   9.435  0.3123  0.3473 -0.1589
    1W        W26174  21.693  14.053   9.374  0.0030 -0.1065 -0.3613
    1W        W26175   8.594  27.209   3.211  0.2500  0.1896  0.0357
    1W        W26176  10.385   9.978   1.095  0.0308 -0.3050 -0.2063
    1W        W26177  17.867  23.627   1.799 -0.4687 -0.0110 -0.1014
    1W        W26178   2.544  15.874   2.246 -0.0821 -0.1633 -0.0327
    1W        W26179   4.793   9.931   8.038 -0.1340  0.2010 -0.2133
    1W        W26180  20.523  13.725   7.342 -0.0886  0.0192 -0.3750
    1W        W26181   2.244  16.957   2.884 -0.0797  0.1372  0.1176
    1W        W26182  20.064  20.012   9.933 -0.2819  0.1153  0.2384
    1W        W26183  21.587  14.493   9.643  0.0770  0.4704 -0.1287
    1W        W26184  26.203   6.475   0.185 -0.1860  0.0935  0.1248
    1W        W26185   6.286  11.299   3.122  0.1020 -0.3003 -0.1246
    1W        W26186  18.319  19.664   8.680 -0.4688  0.3959  0.1698
    1W        W26187  14.163   9.060   3.026  0.2214 -0.0360 -0.1046
    1W        W26188  17.531  23.727   2.967 -0.2853  0.2750 -0.1058
    1W        W26189   5.330  13.583   7.876  0.2041  0.0474 -0.1105
    1W        W26190  11.056   8.787   9.401  0.1249  0.1684  0.3400
    1W        W26191  24.365  26.937   0.240  0.0945  0.0827 -0.0185
    1W        W26192   6.183   9.034   2.049  0.0000 -0.0704 -0.1952
    1W        W26193  10.315  18.340   0.565  0.1286  0.0452  0.1192
    1W        W26194  16.181   9.540   3.382  0.1377 -0.0211  0.2902
    1W        W26195  15.728  26.782   1.919 -0.0389 -0.0248  0.0015
    1W        W26196  23.925   9.605   9.833 -0.0729 -0.0897  0.0623
    1W        W26197  18.959  28.093   2.062 -0.0047 -0.2906  0.2358
    1W        W26198   1.585   1.555   0.749  0.0882  0.1678 -0.0288
    1W        W26199  20.768  13.428   8.290 -0.0192  0.2084  0.0987
    1W        W26200  20.750  14.194   3.602  0.0843  0.0603 -0.1092
    1W        W26201  17.917  27.135   2.503  0.0724 -0.3508  0.0460
    1W        W26202  19.115  23.530   7.228  0.1070 -0.0313  0.0768
    1W        W26203  26.078   0.681   1.495 -0.2993 -0.0218 -0.0802
    1W        W26204  15.440   5.036   1.585  0.0866 -0.0253  0.2780
    1W        W26205  17.333  10.636   7.537 -0.0366  0.0149 -0.1670
    1W        W26206   4.076  20.047   0.163  0.0715 -0.0484 -0.2263
    1W        W26207   6.849  22.219   9.121 -0.1251  0.0674  0.2140
    1W        W26208   4.299   6.899   1.769  0.0936 -0.2481 -0.1377
    1W        W26209   3.789  26.026   7.868 -0.0221  0.0952 -0.2305
    1W        W26210  11.574  24.620   2.611  0.0844  0.2254 -0.0107
    1W        W26211  24.665  15.964   9.518 -0.0256 -0.2324 -0.2823
    1W        W26212  17.991  27.257   0.987  0.2039 -0.0504 -0.1320
    1W        W26213   0.764  13.303   0.654 -0.0545  0.2078  0.2390
    1W        W26214   0.275   0.077   8.157 -0.0192  0.2778 -0.0106
    1W        W26215   6.836   6.293   8.393  0.1833 -0.3393  0.0007
    1W        W26216  19.733  24.268   6.778  0.1231 -0.1295  0.0732
    1W        W26217  24.478   4.654   8.007 -0.2458  0.3715  0.1021
    1W        W26218   8.551  23.644   0.017  0.0376 -0.1624 -0.1666
    1W        W26219  25.785  19.564   0.245 -0.1450 -0.3780  0.1700
    1W        W26220  11.250  13.385   3.037  0.1271  0.1741  0.0496
    1W        W26221  22.316  22.238   0.933 -0.1480 -0.4467  0.1012
    1W        W26222  26.713  12.842   2.712 -0.1507 -0.0181  0.3225
    1W        W26223   6.186   8.221   2.699  0.2375 -0.0423  0.0440
    1W        W26224  18.357  20.897   8.505  0.2625 -0.1368  0.0985
    1W        W26225  17.515  12.217   7.636  0.1590 -0.0247  0.2050
    1W        W26226  25.212   9.943   9.838 -0.2949 -0.1368 -0.4325
    1W        W26227  16.416  14.708   8.294  0.3486 -0.1989  0.1303
    1W        W26228  17.830  20.871   8.485 -0.0969 -0.1717  0.1867
    1W        W26229   6.007   4.605   1.308 -0.0590  0.0158 -0.0739
    1W        W26230  24.197   9.517   1.815  0.1688 -0.3106 -0.1101
    1W        W26231   7.329   7.254   8.730 -0.0006  0.0751  0.1241
    1W        W26232   0.946   8.726   7.870  0.0579 -0.2676 -0.0853
    1W        W26233  14.305  19.377   0.151 -0.0513  0.2942  0.0572
    1W        W26234   9.574  20.378   0.314  0.2996  0.0505 -0.3029
    1W        W26235   5.373  22.769   0.838 -0.0755 -0.2026 -0.0660
    1W        W26236   9.808  21.437   9.166 -0.0256  0.0570 -0.0314
    1W        W26237  14.993  26.194   9.288 -0.0899  0.1549 -0.0802
    1W        W26238   6.098  13.257   9.186  0.1776 -0.0322 -0.0614
    1W        W26239  20.065   4.196   8.561 -0.0862 -0.0614  0.0849
    1W        W26240  16.234   2.935   2.483 -0.0584 -0.0291  0.1309
    1W        W26241  18.986  11.458   8.663  0.3732 -0.0650 -0.1183
    1W        W26242  26.465   4.257   3.063  0.0445 -0.1342 -0.0672
    1W        W26243  15.164   9.176   1.003 -0.0705  0.0050  0.1059
    1W        W26244   0.094  21.348   0.646 -0.3322  0.0530  0.0193
    1W        W26245  26.802  19.264   9.143  0.2886 -0.2725 -0.1103
    1W        W26246   6.637  15.393   8.381 -0.3372  0.0508 -0.0066
    1W        W26247   6.040   7.673   0.319  0.0411 -0.0314 -0.2613
    1W        W26248   1.719   8.895   2.178  0.2383  0.4212  0.1137
    1W        W26249  19.262   2.480   3.002  0.3054  0.0037 -0.0180
    1W        W26250   5.129  25.170   7.448  0.1197 -0.3207  0.2339
    1W        W26251  27.131  16.467   7.336  0.1037 -0.3565 -0.0963
    1W        W26252  14.663  19.303   1.306  0.3909  0.1537  0.1106
    1W        W26253   3.348  11.958   7.888 -0.0152 -0.0877 -0.0078
    1W        W26254  18.598  26.831   7.910 -0.0799  0.0397  0.1913
    1W        W26255   2.951  22.558   8.160  0.1531  0.1330  0.0434
    1W        W26256  19.036   2.674   8.096  0.0604 -0.2535 -0.2990
    1W        W26257  20.715   9.589   2.080  0.0423  0.1759  0.0506
    1W        W26258  16.411  13.292   8.450 -0.2513 -0.2043  0.1965
    1W        W26259  18.191  22.288   0.456 -0.1221 -0.0278 -0.0947
    1W        W26260   4.032  21.766   8.001  0.0928 -0.3490  0.0730
    1W        W26261   8.809  26.445  10.096  0.1564  0.3262 -0.1961
    1W        W26262  11.378  13.756   2.752  0.0334  0.0521  0.0232
    1W        W26263  12.078  20.010   9.053  0.4769 -0.0914 -0.0082
    1W        W26264  21.286   5.876   8.216  0.2691 -0.0521  0.0300
    1W        W26265  18.747  19.332   2.250  0.3339 -0.1569  0.0465
    1W        W26266   4.368  25.530   6.790 -0.2057  0.1397  0.1588
    1W        W26267  16.713  19.973   1.368 -0.0802  0.0271 -0.0902
    1W        W26268  10.248   3.470   7.868 -0.2194 -0.0815  0.2334
    1W        W26269   0.827  10.091   0.071  0.0190  0.0722  0.2787
    1W        W26270  22.842  23.579   1.272 -0.1966 -0.1787  0.1188
    1W        W26271   9.862  13.930   8.817 -0.0977  0.1538  0.0223
    1W        W26272   7.617  24.524   8.042 -0.2048 -0.0891  0.0447
    1W        W26273  21.158  14.254   8.704 -0.0488 -0.0564  0.1622
    1W        W26274  21.281  23.537   0.808  0.0564 -0.1275 -0.0981
    1W        W26275  11.122  22.935   0.602 -0.0805  0.0124  0.1288
    1W        W26276   3.438   1.345   2.996 -0.2180  0.2094  0.1226
    1W        W26277   3.570  26.625   9.420  0.0096  0.0878 -0.2519
    1W        W26278   0.714   3.338   7.393  0.0463 -0.0915  0.0716
    1W        W26279   4.290  20.863   9.563 -0.0484  0.1339  0.0279
    1W        W26280  11.688  19.124   9.462 -0.0964 -0.2550 -0.1446
    1W        W26281  19.462  25.283   9.505 -0.0464  0.1514 -0.0862
    1W        W26282  28.080   9.769   7.094 -0.1397 -0.0743 -0.1785
    1W        W26283  24.700  19.328   9.815 -0.1624 -0.1184 -0.0182
    1W        W26284  12.045  10.847   1.764  0.1289  0.0136 -0.2702
    1W        W26285  10.639  16.328   0.706 -0.1752 -0.2830  0.2229
    1W        W26286  12.619  17.083   8.823  0.0454 -0.1104 -0.2066
    1W        W26287  25.458   7.049   8.906  0.3446  0.2726  0.0107
    1W        W26288  14.404  23.512   1.832  0.0285 -0.0298 -0.2296
    1W        W26289  24.979  13.245   0.490 -0.0127 -0.3047  0.0234
    1W        W26290   4.841   7.623   9.420 -0.1508  0.1668 -0.0333
    1W        W26291  19.429   1.925   9.756  0.2082  0.1492  0.1139
    1W        W26292  15.536  12.970   8.741  0.3527  0.1890 -0.1021
    1W        W26293   6.255   6.913  10.127 -0.2076  0.1139  0.0410
    1W        W26294   9.396  10.157   2.011 -0.0686 -0.3418  0.0193
    1W        W26295  14.303  10.201   2.064 -0.3230  0.1448  0.1936
    1W        W26296  27.984   8.287   7.062  0.2818  0.1428  0.1468
    1W        W26297  15.991  19.060   7.776  0.0473  0.0568  0.1295
    1W        W26298  23.961   5.691   7.738  0.2349  0.1897  0.0303
    1W        W26299   1.166  22.118   2.001  0.0472 -0.0791 -0.0054
    1W        W26300  16.888  14.775   3.476 -0.1071  0.1451  0.0183
    1W        W26301   5.450  16.380   2.364 -0.0173 -0.2826 -0.2911
    1W        W26302  25.825  20.178   0.003 -0.2272  0.0294  0.2823
    1W        W26303   2.195   2.250   9.127 -0.0560  0.4303 -0.1165
    1W        W26304  19.348   5.577   9.237  0.2743  0.0139 -0.1871
    1W        W26305  22.231   1.094   7.733  0.2640 -0.0963 -0.0524
    1W        W26306  23.538  23.294   7.393 -0.0532  0.1828  0.0669
    1W        W26307   8.879  20.397   2.639 -0.0293  0.2437  0.2641
    1W        W26308  26.661  15.392   1.508 -0.3909  0.2067  0.0629
    1W        W26309   0.506   2.637   1.101 -0.0384 -0.2636  0.1734
    1W        W26310  26.121  26.791   0.518  0.1081 -0.2092 -0.1383
    1W        W26311  11.744  13.215   3.106 -0.2366  0.3379  0.1021
    1W        W26312  21.362  20.309   2.977  0.0838 -0.0402  0.1059
    1W        W26313   1.044  18.257   2.888 -0.2037  0.0485 -0.2075
    1W        W26314  15.675   8.189   9.179  0.1978 -0.1614  0.5508
    1W        W26315  11.304   4.334   1.839 -0.2560  0.1274 -0.0498
    1W        W26316  12.347  26.360   8.032  0.2375 -0.3928  0.0386
    1W        W26317   3.557  12.757   9.899  0.2121  0.1430  0.0895
    1W        W26318  10.236  20.307   7.950  0.1393 -0.0289  0.1417
    1W        W26319  22.646  24.997   2.452  0.2861 -0.1254 -0.0532
    1W        W26320  14.496   8.719   2.835  0.0428  0.0708  0.2793
    1W        W26321  26.309   2.808   3.652  0.1297 -0.0456 -0.1335
    1W        W26322  17.765  15.944   8.553 -0.3945  0.1759  0.1135
    1W        W26323  17.971  11.889   2.558  0.0039  0.0011 -0.0156
    1W        W26324   8.544   5.708   0.878 -0.1337 -0.1279  0.3870
    1W        W26325   5.611  19.762   3.226 -0.0275  0.0722 -0.0344
    1W        W26326  26.399  21.350   0.653 -0.0094  0.2437  0.1144
    1W        W26327  21.772   9.124   7.450  0.2052 -0.0891  0.0707
    1W        W26328  13.454  26.460   3.165 -0.2711 -0.2489 -0.1125
    1W        W26329  25.775  12.026   1.267  0.0453 -0.2183 -0.0681
    1W        W26330  21.104  24.730   8.418  0.2141 -0.0469 -0.1903
    1W        W26331   6.563  23.111   1.431 -0.0807 -0.0841 -0.2619
    1W        W26332   1.292  15.608   7.449  0.0955  0.1307 -0.0215
    1W        W26333  12.522  11.943   9.217 -0.1778  0.0104  0.0263
    1W        W26334  21.645  24.335   6.904 -0.0232 -0.1974 -0.2494
    1W        W26335  12.147  15.470   7.715 -0.2078  0.0534  0.1531
    1W        W26336  22.922  19.821   8.101 -0.0716 -0.0407  0.0753
    1W        W26337   3.165  18.583   0.869 -0.0759 -0.0031 -0.2265
    1W        W26338  25.515   6.312  10.050 -0.0801 -0.0828  0.0466
    1W        W26339  24.218  17.679   9.629  0.0111  0.0082  0.2145
    1W        W26340  24.463  18.874   0.489  0.1821 -0.0708  0.2111
    1W        W26341   9.797   2.891   7.525 -0.0344  0.1761 -0.1364
    1W        W26342  13.862  23.595   8.038 -0.5413 -0.2481 -0.0532
    1W        W26343   8.095   4.885   2.417 -0.3569  0.2666  0.3419
    1W        W26344  24.171  22.636   1.710  0.1921 -0.0355 -0.0554
    1W        W26345  20.600  14.282   7.946  0.3582  0.0736  0.1375
    1W        W26346  25.073  20.445   8.037  0.0360  0.2556  0.0501
    1W        W26347  26.781  21.017   2.824 -0.0831  0.1326 -0.0294
    1W        W26348  13.175  13.391   8.969  0.0310 -0.0692  0.0947
    1W        W26349  16.254  18.201   2.643 -0.0244 -0.0932 -0.1853
    1W        W26350   5.878  18.806   7.810 -0.4294  0.1133  0.0236
    1W        W26351  13.099   0.640   2.823  0.2175  0.1475  0.0735
    1W        W26352  23.283   8.308   7.842 -0.1935  0.1906  0.0550
    1W        W26353   0.874  15.752   2.185 -0.0868  0.1479 -0.1465
    1W        W26354   2.653  24.450   1.796  0.0027  0.0842  0.1394
    1W        W26355   4.267  10.442   1.084 -0.1715 -0.1613 -0.0871
    1W        W26356   5.242   8.236   8.498 -0.2520 -0.0427 -0.0647
    1W        W26357  14.374  24.737   7.832  0.3280  0.1347 -0.0478
    1W        W26358  11.677  22.918   7.957 -0.0903 -0.3430  0.1682
    1W        W26359  23.627   6.689   9.587 -0.3193 -0.2440 -0.0652
    1W        W26360   5.406   4.953   1.525  0.3217  0.1292  0.1740
    1W        W26361  25.317  24.601   7.496 -0.0613 -0.0139 -0.3367
    1W        W26362  24.469  24.684   1.364 -0.0320  0.0749 -0.1123
    1W        W26363  18.944   2.159   0.761  0.0522  0.0736 -0.2918
    1W        W26364   6.266   9.253   9.324  0.4102 -0.3392  0.1060
    1W        W26365  19.364  23.597   1.735  0.0700 -0.0618 -0.1263
    1W        W26366   4.041   0.306   1.422  0.0623  0.0281  0.0948
    1W        W26367  18.245   8.085   1.921 -0.1442 -0.0573  0.1458
    1W        W26368  25.273  21.819   1.476  0.0465  0.1982  0.1510
    1W        W26369  23.330   1.576   9.127 -0.1769  0.2193 -0.0267
    1W        W26370  15.411  20.616   7.507  0.2700 -0.1471 -0.0340
    1W        W26371  14.669  13.976   2.515  0.1034  0.4530  0.2235
    1W        W26372   7.574   5.215   8.677 -0.1041  0.2105 -0.1557
    1W        W26373  10.644   4.763   8.038 -0.2951 -0.0887  0.1489
    1W        W26374  22.255   4.074   8.034  0.0700 -0.0953  0.0848
    1W        W26375  15.003  12.810   3.129  0.1965 -0.0486  0.1705
    1W        W26376  18.069   7.548   3.964 -0.0857 -0.0175 -0.1562
    1W        W26377  21.958  21.108   2.102 -0.0606  0.1640  0.0712
    1W        W26378   3.165   5.287   7.106 -0.0980 -0.0989  0.1011
    1W        W26379  25.749   8.531   2.263 -0.0734  0.2494 -0.2994
    1W        W26380  22.762  22.940   0.045  0.0478 -0.2835 -0.1500
    1W        W26381  27.045  12.257   7.586 -0.0280  0.1094  0.0739
    1W        W26382  15.400  11.538  10.201  0.0465 -0.0866  0.1256
    1W        W26383  27.576  15.928   8.799  0.1389  0.0069  0.3835
    1W        W26384   6.889  16.967   8.340 -0.0392 -0.1968 -0.0770
    1W        W26385   9.609   3.554   0.070 -0.1543 -0.1134 -0.0584
    1W        W26386   4.533  23.790   9.158 -0.2259  0.0551 -0.2173
    1W        W26387   3.171  26.580  10.235 -0.1774  0.0518  0.0420
    1W        W26388  21.462  14.448   0.839 -0.3147  0.1818 -0.0876
    1W        W26389   7.943  15.025   8.364 -0.0784 -0.2543  0.2026
    1W        W26390  19.554  22.845   9.496 -0.0999 -0.0919 -0.0979
    1W        W26391   6.192  22.187   9.058  0.4594 -0.1061  0.3661
    1W        W26392   2.476  12.624   8.316 -0.2560 -0.3170  0.2920
    1W        W26393  15.813  11.374   8.896 -0.1532 -0.0737 -0.0744
    1W        W26394  22.395  27.495   0.295  0.1027  0.0303  0.0634
    1W        W26395  16.932  17.373   7.658  0.2043 -0.0601  0.2940
    1W        W26396   3.370  11.434   7.973  0.3784  0.1290  0.0607
    1W        W26397   8.028   0.811   6.989 -0.2086  0.2532  0.1309
    1W        W26398  25.230  19.484   7.940 -0.4463  0.3305 -0.3041
    1W        W26399   7.170  15.049   2.686 -0.1120  0.0328 -0.0174
    1W        W26400   6.929   4.670   2.236  0.0753 -0.0524  0.2151
    1W        W26401   6.680   0.384  10.303  0.0399  0.2027 -0.0475
    1W        W26402  12.287  10.162   8.710 -0.0045 -0.2754 -0.0436
    1W        W26403   8.139   2.651   6.922  0.0840 -0.0218  0.1966
    1W        W26404  12.077  14.504   3.132 -0.0004  0.0483 -0.3427
    1W        W26405  25.674  25.455   9.529 -0.2320  0.1262 -0.3566
    1W        W26406  26.065  10.298   7.445  0.0088 -0.3244 -0.0027
    1W        W26407  15.918  28.031   2.926 -0.1040  0.1301 -0.0900
    1W        W26408   8.098  24.895   0.825  0.1022 -0.0423  0.0794
    1W        W26409  13.101  20.863   8.964  0.2711 -0.0880  0.1019
    1W        W26410  25.371  26.258   2.868  0.0145 -0.0693  0.3926
    1W        W26411   1.452  23.180   7.343 -0.0507 -0.2126  0.0526
    1W        W26412  19.142  13.762   9.613  0.3012  0.0483  0.2042
    1W        W26413   2.677  25.408   2.625  0.0735  0.3372  0.2480
    1W        W26414  14.203   7.828   9.201 -0.0025  0.2226  0.2119
    1W        W26415   8.039   5.737   0.863 -0.0109  0.0362 -0.2930
    1W        W26416  13.890   2.783   8.998  0.3204 -0.2662  0.3016
    1W        W26417  14.661  20.156   0.093  0.1212 -0.0772 -0.1470
    1W        W26418  13.656  11.212   9.136  0.0753  0.2417  0.1302
    1W        W26419   4.815  20.111  10.020  0.1431  0.3138 -0.1829
    1W        W26420  26.895   2.839   8.006  0.0463  0.1536 -0.0335
    1W        W26421   6.604  17.379   8.286 -0.1443  0.1239 -0.0250
    1W        W26422   3.785  23.336   7.978  0.0626  0.1881 -0.3119
    1W        W26423   9.697   1.703  10.155 -0.2542  0.3264 -0.0623
    1W        W26424   4.665   1.826   0.569 -0.0245 -0.0189 -0.0329
    1W        W26425  11.063   0.053   2.256 -0.0134 -0.1487 -0.0128
    1W        W26426   4.719  14.216   0.556  0.0232  0.1990 -0.0215
    1W        W26427  20.964   7.992   2.457  0.1707 -0.1131 -0.4072
    1W        W26428   5.802  21.874   1.751 -0.2833 -0.1278 -0.0360
    1W        W26429  11.397  22.640   7.226 -0.3668 -0.0882  0.0165
    1W        W26430  28.040  22.096   9.285 -0.0612  0.1284  0.3574
    1W        W26431  17.793  23.993   7.259  0.1696 -0.0980  0.0070
    1W        W26432  24.864  20.900   1.668 -0.0223  0.0774 -0.3038
    1W        W26433   8.991  19.590   7.939 -0.0042 -0.0096  0.1573
    1W        W26434  24.500   2.756   8.007  0.1312  0.4584  0.2278
    1W        W26435   7.573  16.672   1.696 -0.2136 -0.3478 -0.0928
    1W        W26436   5.873  28.057   6.497 -0.2154 -0.1774  0.0157
    1W        W26437  19.650  12.313   8.352  0.0001 -0.0190  0.0203
    1W        W26438   1.513   3.138   7.579  0.2400  0.0916  0.1193
    1W        W26439  26.231  18.428   1.692 -0.2086  0.0527  0.0673
    1W        W26440   1.100  25.666   7.786 -0.1418 -0.0354 -0.2103
    1W        W26441  20.244   9.150   0.209  0.3494 -0.3032 -0.0064
    1W        W26442   8.496  25.755   9.092 -0.2688  0.1061  0.2304
    1W        W26443  15.857   0.845   3.250  0.0662 -0.1166  0.3517
    1W        W26444   2.050  12.490   1.897 -0.2511  0.0023 -0.0939
    1W        W26445  12.047   9.282   0.623 -0.2143  0.1081  0.0516
    1W        W26446  27.475  15.858   6.925 -0.3200  0.0337  0.0423
    1W        W26447  15.043   7.972   1.835  0.2599 -0.1389  0.0297
    1W        W26448  10.016   6.482   2.930 -0.1670 -0.2089 -0.0591
    1W        W26449  20.247   8.669   7.731 -0.1181  0.0109 -0.0960
    1W        W26450   0.902   1.232   9.477  0.1063 -0.2611 -0.0700
    1W        W26451  17.645   7.743   0.540 -0.0051 -0.0043  0.3704
    1W        W26452  23.947  10.318   3.341 -0.0976 -0.1766  0.0421
    1W        W26453  19.204  25.846   2.432  0.1277 -0.0420 -0.0100
    1W        W26454   3.164   0.706   0.655  0.1375  0.2051  0.1658
    1W        W26455  24.762  19.441   1.125 -0.0018 -0.1441 -0.1941
    1W        W26456  24.119  12.815   1.239 -0.1802 -0.0498  0.3226
    1W        W26457  22.993  12.594  10.211  0.2030  0.0061 -0.4937
    1W        W26458  13.600   5.016   8.959  0.2393  0.2073  0.0727
    1W        W26459  23.708  19.674   8.073  0.3097 -0.2069 -0.0176
    1W        W26460   3.680  26.640  10.318  0.1271  0.0166  0.1376
    1W        W26461  25.278  12.154   1.231  0.1009  0.0086 -0.0020
    1W        W26462  15.836   2.669   2.877  0.0937 -0.1078  0.0044
    1W        W26463   6.991  27.294   1.813 -0.1124  0.3136  0.0776
    1W        W26464  25.024  26.097  10.203  0.0113  0.2652  0.0775
    1W        W26465  16.128  13.407   1.206  0.1274  0.3985  0.0975
    1W        W26466   4.688   3.117   9.968  0.0158  0.1832  0.0460
    1W        W26467  22.348  20.069   9.354  0.1034 -0.0723  0.1804
    1W        W26468   5.865  21.911   2.576 -0.2075 -0.0602  0.0125
    1W        W26469  23.781  14.862   2.779 -0.2194  0.0263  0.0738
    1W        W26470   7.298  11.853   8.162  0.1627 -0.0577  0.1674
    1W        W26471  14.812   9.805   2.429  0.1402  0.2388  0.0940
    1W        W26472  25.866   9.088   7.133 -0.2092  0.0754  0.3699
    1W        W26473  12.792  21.108   7.456 -0.3249 -0.2706 -0.0809
    1W        W26474   9.206  12.490   3.904 -0.3209 -0.1276 -0.4102
    1W        W26475   8.251   1.272   3.146  0.1143 -0.3076 -0.0626
    1W        W26476  24.715   9.378   3.040 -0.1615 -0.0056 -0.1346
    1W        W26477   7.326  18.939   9.612  0.1367  0.0154 -0.1316
    1W        W26478  23.227  11.626   9.301 -0.1652  0.1369  0.0805
    1W        W26479  27.605  23.495   7.971  0.1291 -0.0956  0.2201
    1W        W26480  22.261   8.545   0.014 -0.3266 -0.1111  0.1690
    1W        W26481  15.619  10.770   8.915 -0.0569 -0.1963 -0.0053
    1W        W26482   8.359   0.621   3.095 -0.3961 -0.0515 -0.1094
    1W        W26483  26.775   5.346  10.324  0.0753 -0.2543  0.1559
    1W        W26484   8.602   8.300   8.919 -0.3641  0.0026 -0.1606
    1W        W26485   7.517   9.348   8.714  0.1921  0.1609  0.1101
    1W        W26486   0.485  22.149   1.793  0.1625  0.0653  0.0700
    1W        W26487  26.485   4.860   8.325 -0.0092  0.2199 -0.0251
    1W        W26488  17.051  11.920   8.837 -0.0628 -0.3208  0.1925
    1W        W26489   8.427   2.579   9.065 -0.0964  0.1105  0.3335
    1W        W26490  21.328  17.274  10.094 -0.1615 -0.0538 -0.4504
    1W        W26491  12.421   6.133   2.345  0.2556  0.1093 -0.3256
    1W        W26492  13.856   0.631   1.527  0.1253 -0.1291  0.2276
    1W        W26493   0.555   1.105   1.839 -0.2438 -0.0635 -0.1715
    1W        W26494  26.673  20.161   2.253  0.1648  0.3338 -0.0677
    1W        W26495  18.036  25.135   2.074  0.2569 -0.2958 -0.3865
    1W        W26496   0.843  12.441   9.037  0.3759 -0.1740  0.0719
    1W        W26497  17.336   4.881   8.933 -0.1966  0.0248  0.0827
    1W        W26498   4.454  11.787   0.281 -0.2550  0.1300  0.2166
    1W        W26499  23.598   8.696   7.902  0.3547  0.2451  0.0439
    1W        W26500  23.554  11.878   3.474 -0.2153 -0.2364 -0.1363
    1W        W26501  22.464   5.887   8.758  0.1243  0.2809 -0.1281
    1W        W26502  11.355  25.060   2.535  0.0624 -0.3359  0.2369
    1W        W26503   4.646  20.258   9.058 -0.0783  0.0528 -0.1494
    1W        W26504   1.187   7.199   9.298  0.0408  0.2729  0.0637
    1W        W26505  23.342  24.860   3.143 -0.0194 -0.0401 -0.2058
    1W        W26506   3.681  22.506   8.915  0.3447 -0.0971  0.0478
    1W        W26507   1.687   7.041   0.032 -0.3680 -0.1675  0.2073
    1W        W26508  22.621  22.535   3.322  0.0169  0.2130  0.2227
    1W        W26509   0.818   9.359   9.354 -0.2740  0.0757 -0.0267
    1W        W26510  16.940  21.432   2.892 -0.0354  0.1092 -0.2364
    1W        W26511   3.460  22.962   8.254  0.2018 -0.1791 -0.0472
    1W        W26512   3.688  22.790   9.321 -0.0498 -0.1366 -0.1788
    1W        W26513   5.682  21.027   3.150  0.1732 -0.2705 -0.0501
    1W        W26514  12.536  23.690   1.840  0.4277  0.0075  0.0564
    1W        W26515   3.233   8.993   2.176  0.2872  0.1068  0.2221
    1W        W26516  13.934   0.082   0.253 -0.2973 -0.0601 -0.0286
    1W        W26517  20.998  25.211   7.976 -0.2146 -0.0147 -0.2324
    1W        W26518  14.172  15.381   8.344  0.3941  0.0714  0.1570
    1W        W26519   0.775   9.305   8.709  0.2227  0.2726  0.0547
    1W        W26520  12.074  27.233   8.386 -0.1152  0.1584  0.2895
    1W        W26521  17.861   0.868   3.304  0.0167  0.1362  0.3562
    1W        W26522   8.583  16.853   0.220 -0.1275 -0.0034  0.1544
    1W        W26523  10.635   0.551   6.767 -0.3642  0.2118  0.0448
    1W        W26524   7.602   3.703   8.999 -0.0622 -0.0090 -0.1493
    1W        W26525  10.505   1.051   1.464  0.0145 -0.4048  0.1123
    1W        W26526  17.706  23.412   9.731 -0.3223 -0.0808 -0.0806
    1W        W26527  12.737  13.260   9.208 -0.3236 -0.0052  0.2499
    1W        W26528  17.215  10.980   9.817  0.0880  0.1581 -0.2236
    1W        W26529  15.938   5.004   0.937 -0.0854 -0.1347 -0.1848
    1W        W26530   2.508   0.229   7.241  0.2010  0.1066 -0.2952
    1W        W26531  23.239  26.843   2.173  0.1034 -0.1863  0.0789
    1W        W26532  14.584   6.926   8.106 -0.1589  0.0157  0.0716
    1W        W26533   7.047  24.131   0.897  0.0893  0.1084  0.0304
    1W        W26534   0.321   9.448   9.430 -0.0460  0.0328 -0.1179
    1W        W26535  20.072   9.361   1.636  0.1933 -0.0412  0.1739
    1W        W26536  21.436  14.162   2.391 -0.0240 -0.2098 -0.1147
    1W        W26537   4.668   5.372   8.941 -0.2272 -0.1183 -0.0092
    1W        W26538  11.622  20.321   2.191  0.4950  0.1088 -0.5129
    1W        W26539  18.433  11.359   0.289  0.1438  0.0556 -0.1659
    1W        W26540   8.169  26.721   7.097 -0.5092  0.0615  0.0059
    1W        W26541  27.669   7.511  10.328 -0.2211 -0.0636  0.2110
    1W        W26542  21.459  27.547   0.539  0.0294  0.2707  0.0716
    1W        W26543  24.136  10.564   2.784 -0.0060 -0.0277 -0.0331
    1W        W26544  14.706  27.817   0.493 -0.1147 -0.1947  0.1390
    1W        W26545  13.803   2.046   1.717 -0.2373 -0.1427  0.3598
    1W        W26546  22.805  23.446   0.049 -0.0905  0.1123  0.0125
    1W        W26547   8.225   8.435   2.969 -0.2259 -0.1390  0.0752
    1W        W26548  17.364   5.315   1.325  0.0121  0.3999 -0.2213
    1W        W26549   4.157   9.490   1.940 -0.1318  0.1939 -0.2176
    1W        W26550   6.234  24.477   3.031  0.0153 -0.0653 -0.1109
    1W        W26551  20.217  19.071   2.138  0.0881 -0.2785  0.1433
    1W        W26552   5.208   3.294   8.872 -0.0244 -0.0295 -0.1343
    1W        W26553   4.124   1.710   0.088  0.2488 -0.2912  0.1827
    1W        W26554  10.337  17.373   0.116 -0.0198  0.2903  0.1141
    1W        W26555  14.812  20.636   2.157  0.2634  0.0957 -0.0508
    1W        W26556   8.123  13.958   0.466 -0.2003 -0.2812  0.1282
    1W        W26557  25.172   6.640   1.583 -0.2090  0.1378 -0.1648
    1W        W26558  27.044  14.044   0.103  0.3182  0.0682 -0.2260
    1W        W26559  22.557  26.537   7.788  0.1238  0.0127  0.1721
    1W        W26560  24.310  17.580   9.123 -0.1662  0.1985 -0.1789
    1W        W26561  15.712  17.833   8.792 -0.3975 -0.4055  0.2600
    1W        W26562  26.276  26.904   1.539  0.1408 -0.0728 -0.3407
    1W        W26563   9.654   0.154   2.200  0.4441  0.0288  0.0141
    1W        W26564   7.269   1.600   0.552  0.0145  0.1216  0.1700
    1W        W26565  17.611   9.163   4.225 -0.1413  0.0411  0.0681
    1W        W26566   4.181   2.211   8.712  0.0166 -0.0753 -0.1701
    1W        W26567  12.351  23.472   8.667  0.0250  0.2007  0.2221
    1W        W26568  20.412  19.840  10.290  0.0683  0.0250  0.2481
    1W        W26569  14.557  11.686   2.820 -0.1456 -0.1391  0.0588
    1W        W26570  15.831   2.246   1.820 -0.0021  0.3481 -0.0976
    1W        W26571  23.829  15.781   3.604 -0.0406  0.1386  0.1046
    1W        W26572  12.838  14.139   0.155  0.2416  0.4093  0.2704
    1W        W26573  21.156  18.909   9.620  0.0099 -0.0029 -0.0949
    1W        W26574   0.506  15.696   1.676  0.2645  0.2073  0.3529
    1W        W26575  26.689  10.437   0.884  0.1340  0.3127  0.1928
    1W        W26576  20.529  23.113   9.345 -0.1705 -0.0930  0.1748
    1W        W26577   8.627  26.374   1.165  0.0725  0.1954  0.1104
    1W        W26578  12.704  10.684   1.144 -0.1063 -0.4058  0.1066
    1W        W26579  19.755  14.395   9.923 -0.0065  0.1310 -0.0381
    1W        W26580  22.741   4.625  10.041 -0.3123 -0.1207 -0.0706
    1W        W26581  24.313   6.575  10.138  0.1049 -0.0481  0.0722
    1W        W26582  20.021   1.561   0.321 -0.3843 -0.0029  0.0992
    1W        W26583  19.681   4.923   7.710  0.2565  0.0589 -0.3483
    1W        W26584  15.873  28.115   9.750  0.0037 -0.2893  0.0874
    1W        W26585   4.380   7.482   7.655  0.1139 -0.0861 -0.3193
    1W        W26586   0.206  25.901   1.944 -0.0677 -0.0320 -0.0370
    1W        W26587   7.680  14.334   2.560  0.4167  0.1821 -0.3861
    1W        W26588  14.133   1.040   1.730  0.2719 -0.2116 -0.1365
    1W        W26589  12.356   2.662   0.168  0.1094 -0.0795  0.0565
    1W        W26590  16.212   8.611  10.320 -0.0468 -0.1123  0.0529
    1W        W26591   8.397  17.692   8.334  0.0903 -0.0883 -0.1117
    1W        W26592  27.037  21.132   7.051  0.0145  0.0581  0.1428
    1W        W26593  15.034  20.242   7.562  0.0116  0.0906  0.0704
    1W        W26594  16.560  23.132  10.093 -0.0917  0.3741  0.2195
    1W        W26595  12.322  23.449   3.222  0.3411 -0.3749  0.2800
    1W        W26596  25.617   7.818   2.831 -0.0786  0.2277 -0.0080
    1W        W26597   0.139  17.082   0.879  0.0864  0.0756 -0.3611
    1W        W26598  11.692  27.628   1.617 -0.0045 -0.0791  0.0604
    1W        W26599   8.752   3.253   2.104 -0.0244 -0.1255  0.2100
    1W        W26600  25.944  23.575   9.705  0.0571 -0.3115 -0.0050
    1W        W26601  24.189  26.604   7.782 -0.1860  0.0884 -0.0297
    1W        W26602  18.671  14.879   2.301  0.0946  0.0132 -0.2001
    1W        W26603   5.084   7.760   7.220  0.0157  0.2266 -0.0818
    1W        W26604  24.670  25.017   0.969 -0.0453  0.0050 -0.2436
    1W        W26605  10.704  14.196   3.059 -0.0866  0.3567 -0.0737
    1W        W26606   2.335  22.116   6.218  0.1452  0.3123  0.2820
    1W        W26607  26.238  18.488   1.186 -0.0256 -0.0188  0.0044
    1W        W26608  25.219   1.929   8.582 -0.2792 -0.0924  0.0349
    1W        W26609  11.510  23.052   6.930 -0.1740  0.0693 -0.1038
    1W        W26610  10.426  13.172   3.621 -0.0478 -0.1494  0.1773
    1W        W26611  16.194  11.717   8.611 -0.0570 -0.0888  0.0337
    1W        W26612   3.704   3.825   9.465 -0.1863 -0.0496 -0.0693
    1W        W26613  21.917   9.859   8.883 -0.0095 -0.2284 -0.4043
    1W        W26614  26.989  27.174   9.649  0.0617 -0.0820 -0.0722
    1W        W26615  22.510  17.464   2.634 -0.0763  0.1807  0.1508
    1W        W26616   1.454  24.610   7.205  0.1589  0.1105  0.0892
    1W        W26617  25.729  15.873  10.240  0.0784 -0.0994 -0.0692
    1W        W26618  23.801  27.645   8.835  0.1111 -0.0058 -0.1846
    1W        W26619  11.580  12.702   1.337  0.0442  0.1892 -0.1491
    1W        W26620  10.297  22.319   8.910  0.3090  0.4873  0.1373
    1W        W26621  12.967  18.474   9.059 -0.0613 -0.1946  0.0396
    1W        W26622   1.346   7.167   0.343  0.2495  0.2453 -0.0544
    1W        W26623  16.595  18.339   0.958  0.2866 -0.1194 -0.0145
    1W        W26624   7.223   2.803   0.068 -0.0064 -0.6645  0.0709
    1W        W26625  13.994  10.493   8.383 -0.0053 -0.2594  0.2676
    1W        W26626  23.051  12.519   1.947 -0.1693 -0.3169  0.2990
    1W        W26627  10.185   9.991   0.590 -0.1386 -0.3960  0.0640
    1W        W26628  27.778  22.337  10.001  0.3049  0.1031  0.2595
    1W        W26629  20.462  15.625   8.318  0.0389  0.0862 -0.1184
    1W        W26630  25.796  11.178   8.702  0.2683  0.0489 -0.0495
    1W        W26631   3.341  16.692   8.074 -0.1473  0.1253 -0.3140
    1W        W26632   9.356  12.031  10.110  0.0332 -0.0967  0.1293
    1W        W26633  22.148   4.299   7.429 -0.3687  0.0473  0.1188
    1W        W26634   9.389   5.856   2.348  0.0046 -0.0599  0.0487
    1W        W26635   4.254   5.136   6.605  0.2828  0.0281  0.4032
    1W        W26636  11.839   0.751   1.226 -0.1103  0.3876 -0.0174
    1W        W26637  26.365  10.467   8.393  0.0741  0.0730 -0.0343
    1W        W26638   2.521   8.724   1.219 -0.2762  0.1448  0.4493
    1W        W26639   7.763   9.054   8.078 -0.0846  0.2539  0.0998
    1W        W26640  10.109   7.693   2.007  0.1676  0.0427 -0.1152
    1W        W26641  17.818  23.631   1.270  0.1067  0.1507 -0.1476
    1W        W26642   8.214  10.033   7.597  0.0547  0.2103  0.3708
    1W        W26643  12.029  23.090   7.561 -0.0184 -0.1888 -0.1181
    1W        W26644   3.711   2.788   7.812  0.0894  0.2267 -0.2768
    1W        W26645  25.788  10.416   0.001  0.0052  0.0586  0.1913
    1W        W26646  12.595   9.086   0.405  0.1952 -0.2930  0.2630
    1W        W26647  16.561  22.350   3.746 -0.0760 -0.0269 -0.1756
    1W        W26648  26.561  12.879   8.407 -0.0620  0.1420  0.0991
    1W        W26649  24.153   5.680   8.194  0.1316 -0.1988  0.0872
    1W        W26650  18.818   0.216   0.835  0.1892  0.5215  0.0565
    1W        W26651   5.973  11.915   8.022  0.1766 -0.0350 -0.2490
    1W        W26652  21.854   1.423   2.533  0.0533 -0.3139 -0.2145
    1W        W26653   1.131  18.524   7.029  0.0562  0.1040 -0.0245
    1W        W26654  12.526  11.528   2.119  0.0932 -0.2593  0.0770
    1W        W26655  23.633  24.054   9.447 -0.0181  0.2536 -0.2351
    1W        W26656   8.992  14.839   9.770 -0.0249  0.1127  0.3917
    1W        W26657   9.558   7.485  10.136 -0.0450  0.1161 -0.1757
    1W        W26658  15.641  21.349   2.305 -0.0457  0.3055 -0.0124
    1W        W26659  12.117  20.447   9.731 -0.1067  0.1817  0.0100
    1W        W26660  25.968   6.880   1.876 -0.1453 -0.0767  0.3028
    1W        W26661  15.892  19.707   1.079 -0.1865  0.0672  0.0570
    1W        W26662  24.037   7.952   7.775  0.0603  0.1084 -0.1730
    1W        W26663   1.312  26.524   6.658 -0.1170  0.1700  0.0946
    1W        W26664  27.688   4.754   9.623  0.0826 -0.0414 -0.0518
    1W        W26665  11.681   8.928   8.678  0.1958 -0.1033  0.0009
    1W        W26666  26.738   8.206   7.956  0.2231 -0.0022 -0.1064
    1W        W26667   1.381  18.988   7.700 -0.2034  0.1995 -0.0702
    1W        W26668  13.422  21.759   7.892 -0.3215 -0.0680 -0.0214
    1W        W26669   6.867   8.135   8.477 -0.0499  0.0771  0.1504
    1W        W26670   2.300  20.032   9.344 -0.4447 -0.0241 -0.0516
    1W        W26671  18.055   4.315   2.322 -0.1817 -0.0778  0.1449
    1W        W26672   5.851   0.810   8.234  0.0135 -0.0681  0.0295
    1W        W26673   2.609   0.923   8.011 -0.0553  0.0032 -0.0411
    1W        W26674  27.640   2.119   7.706 -0.1226 -0.0279 -0.1397
    1W        W26675  22.829   2.417   7.812 -0.2183  0.0563  0.0609
    1W        W26676  12.473  18.105   0.079  0.0330 -0.1421 -0.1056
    1W        W26677  11.975  20.991   1.226  0.1823 -0.2521 -0.3176
    1W        W26678   8.983  13.848   3.460 -0.0449  0.0205  0.2676
    1W        W26679  25.200  22.947   2.335 -0.0475 -0.0603  0.0557
    1W        W26680  24.650  16.450  10.331 -0.0103 -0.2464  0.1154
    1W        W26681   4.372  25.121   0.453  0.1151 -0.1476  0.0739
    1W        W26682   6.602   7.251   6.679 -0.3728  0.0308 -0.2229
    1W        W26683   3.143  14.446   6.947 -0.0842  0.1712  0.1154
    1W        W26684   4.707   9.712   7.511 -0.1081 -0.1326 -0.0678
    1W        W26685  14.104   3.538   1.532 -0.0013  0.1519  0.1696
    1W        W26686   2.323  16.155   9.320 -0.2084 -0.3841 -0.1554
    1W        W26687   8.624  12.349   0.508 -0.1621  0.0517 -0.1172
    1W        W26688  22.457   7.240   8.140 -0.0125 -0.1048  0.1283
    1W        W26689  16.355  27.429   1.562  0.1774 -0.1664  0.0419
    1W        W26690   6.285  12.951   1.708  0.0415  0.1331 -0.0561
    1W        W26691   2.455  19.562   8.073 -0.1782 -0.1770 -0.2422
    1W        W26692   5.870   5.734   0.856  0.1631 -0.0109  0.0538
    1W        W26693   5.153  13.733   8.934  0.0198 -0.0982  0.0333
    1W        W26694  26.398  10.888   8.070  0.2335  0.1825 -0.2858
    1W        W26695  22.480   1.220   9.279 -0.0684 -0.1213 -0.2050
    1W        W26696  17.828   3.082   8.421  0.0366  0.1279  0.2858
    1W        W26697  18.741   7.833   0.126 -0.2068 -0.0927  0.2776
    1W        W26698  18.595   3.550   0.161  0.1484 -0.0081 -0.1635
    1W        W26699  27.232  24.479   1.125  0.1771 -0.1482  0.0315
    1W        W26700   3.060  17.181   0.755  0.0496 -0.1858  0.0642
    1W        W26701   4.115  19.006   0.406  0.2562 -0.3777 -0.0944
    1W        W26702   1.068  18.645   7.941 -0.1652  0.1173 -0.0728
    1W        W26703  26.797  15.977   0.210 -0.2055  0.0198 -0.1250
    1W        W26704  14.091  12.373   9.392 -0.2273  0.3850 -0.0406
    1W        W26705  17.416   6.883   2.768 -0.0195  0.0084  0.1023
    1W        W26706  27.028  10.986   9.216  0.1234  0.3088 -0.3426
    1W        W26707  10.631  13.581   0.335 -0.2910 -0.1512 -0.0097
    1W        W26708   9.038  17.855   9.983 -0.0453  0.0906 -0.1004
    1W        W26709  11.865  11.974   3.366  0.2249  0.0765 -0.3194
    1W        W26710  13.043  26.282   8.590  0.0945 -0.0590 -0.0084
    1W        W26711  25.433  10.893   8.456 -0.0819  0.2537 -0.0795
    1W        W26712   4.869  11.489   0.423  0.0378  0.1639 -0.0542
    1W        W26713  18.953   2.138   8.576 -0.1397  0.0228  0.2639
    1W        W26714  19.401  13.744   3.612 -0.0973  0.1614 -0.0294
    1W        W26715  27.834  16.515   0.635 -0.0018  0.0427 -0.2015
    1W        W26716   3.243   2.381   6.280 -0.1076  0.0130 -0.0324
    1W        W26717  16.874   0.128   0.596 -0.1266  0.1935 -0.0971
    1W        W26718  23.621  27.178   9.809  0.0348  0.2133  0.3269
    1W        W26719  26.638   4.831   1.626 -0.1235  0.0197  0.1000
    1W        W26720  12.128  11.125   8.260  0.2029 -0.1278  0.3270
    1W        W26721  18.961   1.244   7.463  0.0401 -0.1420 -0.0207
    1W        W26722   5.086   9.183   2.274  0.0100  0.2186  0.1685
    1W        W26723  13.168  19.993   1.166  0.1390 -0.0546  0.0673
    1W        W26724   1.182  19.210   9.987  0.0779 -0.2775 -0.1037
    1W        W26725   2.524   4.470   1.688  0.2643 -0.1721  0.2485
    1W        W26726   5.981  16.186   2.624  0.0591 -0.2007  0.1762
    1W        W26727   4.761  17.721   1.824 -0.0549  0.0617  0.0598
    1W        W26728  26.878   4.666   6.158 -0.2611  0.0099  0.2387
    1W        W26729   0.824  20.791   9.521 -0.1281 -0.3267 -0.0283
    1W        W26730  15.696  12.076   8.361  0.0793  0.0909 -0.0298
    1W        W26731  11.159  18.146   0.229  0.2812 -0.1358 -0.1326
    1W        W26732   5.003  14.986   1.952 -0.4039 -0.0228  0.1768
    1W        W26733  14.714   1.172   0.338 -0.2965  0.1652  0.0262
    1W        W26734   5.410  23.542   9.718  0.1566  0.1401  0.2132
    1W        W26735  26.163  24.247   7.802  0.3311  0.1960  0.2179
    1W        W26736   6.999   9.406   8.199  0.0691 -0.3028  0.1105
    1W        W26737   1.755   1.258   2.672 -0.2706  0.0802 -0.2435
    1W        W26738  11.361  14.852   8.446  0.0834  0.1675  0.1021
    1W        W26739   9.859   6.419   9.589 -0.1768  0.3030  0.2460
    1W        W26740  17.704  10.445   7.246 -0.1170 -0.2957 -0.2260
    1W        W26741  19.299   4.991   0.178  0.0047 -0.1156 -0.2972
    1W        W26742   0.514   1.067   2.748 -0.1342  0.0012  0.0831
    1W        W26743  24.209   6.303   1.795 -0.4021  0.0237  0.0414
    1W        W26744  22.978   9.141   0.218  0.0563 -0.2509  0.0653
    1W        W26745   0.962  24.258   1.807 -0.0703 -0.0911  0.2408
    1W        W26746  13.528   3.636   1.483 -0.3876 -0.1280  0.1471
    1W        W26747  18.759  26.590   2.556 -0.2432  0.1035  0.0397
    1W        W26748  25.784   2.656   6.675 -0.0680 -0.4180 -0.0236
    1W        W26749   0.840  18.373   7.563 -0.0091 -0.2982  0.0423
    1W        W26750   0.424  22.338   7.797  0.4913  0.0707 -0.1065
    1W        W26751  17.390  17.060   3.402  0.1976 -0.2727 -0.1428
    1W        W26752  22.378   1.107   0.303  0.0282  0.1661 -0.3465
    1W        W26753  13.480  23.429   2.321  0.1239  0.2096  0.0934
    1W        W26754  23.677  27.063   9.332 -0.2020  0.3032 -0.0227
    1W        W26755  18.846  16.393   6.957 -0.4003 -0.1163 -0.1781
    1W        W26756  14.473   1.503   9.820  0.1620  0.0626  0.0598
    1W        W26757   8.376  11.640   7.477 -0.0964 -0.1785 -0.1444
    1W        W26758  13.838  18.819   2.853  0.1001 -0.2031 -0.3112
    1W        W26759  25.931  21.647   0.496  0.0495 -0.4091  0.2210
    1W        W26760  23.419   1.511  10.188  0.0392  0.1797  0.2239
    1W        W26761  23.486  10.211  10.187  0.0968 -0.0979 -0.1349
    1W        W26762  23.277   1.714   3.124  0.1491  0.0342 -0.2445
    1W        W26763  22.852  18.165   2.079 -0.0113  0.1030 -0.0500
    1W        W26764   0.625  15.020   0.745 -0.2493 -0.0872  0.1043
    1W        W26765  24.304  10.170   7.278  0.0564  0.0436 -0.2243
    1W        W26766   0.601  12.952   7.187  0.4770  0.1352 -0.0130
    1W        W26767  16.786  21.126   8.446  0.1186  0.1593  0.0057
    1W        W26768  18.787   9.694   3.467  0.1382  0.1079 -0.3371
    1W        W26769   0.914   7.117   8.473 -0.1452 -0.0146 -0.1756
    1W        W26770   8.223  23.958   2.018  0.1010  0.3987  0.2567
    1W        W26771  19.102  19.616  10.266  0.2849  0.0126  0.3826
    1W        W26772  10.259   9.551   2.917 -0.2251  0.2232 -0.0737
    1W        W26773  20.654  12.009   3.856  0.0245 -0.0218 -0.1253
    1W        W26774   6.526   7.344   2.341  0.2148 -0.4223  0.1194
    1W        W26775   9.950  24.118   2.215 -0.1808 -0.0552 -0.2099
    1W        W26776   2.354   5.013   6.960  0.0986  0.2440 -0.0503
    1W        W26777  25.883  26.029   8.069 -0.0620  0.0377 -0.1460
    1W        W26778  13.135  18.530  10.137  0.0355  0.0468  0.1958
    1W        W26779  20.759   7.147   0.232  0.3691 -0.0921 -0.0386
    1W        W26780   8.746  21.190   3.544 -0.0628 -0.2127 -0.2511
    1W        W26781   0.069  10.847   0.755  0.0654 -0.0174 -0.1563
    1W        W26782  23.644  25.599   0.374 -0.2100  0.2661 -0.0042
    1W        W26783  20.730  10.707   8.196  0.1118  0.2041  0.1739
    1W        W26784  19.818  14.942   1.260  0.2388 -0.0372  0.1311
    1W        W26785   0.102  19.375  10.032 -0.0819 -0.1114  0.2632
    1W        W26786  18.516  14.058   1.790  0.2239 -0.3604 -0.0536
    1W        W26787   9.850  22.702   9.529 -0.2036  0.0074 -0.0041
    1W        W26788  17.340  12.254   9.130  0.1186 -0.2371  0.1781
    1W        W26789  13.366  15.273   3.235  0.0094  0.0218 -0.0887
    1W        W26790  22.001   5.577   0.386 -0.2101 -0.1709 -0.4232
    1W        W26791  20.157   7.842   0.077  0.2369  0.0222  0.3059
    1W        W26792  23.845   0.319   2.005  0.2570 -0.1379  0.0846
    1W        W26793  18.828  15.777   8.835  0.1710 -0.1168 -0.0296
    1W        W26794   7.714  13.342  10.188  0.2223 -0.4262  0.2128
    1W        W26795  26.508  19.520   7.386 -0.2146  0.0230 -0.2943
    1W        W26796   3.350  14.547   9.577  0.3318  0.4423 -0.0422
    1W        W26797  24.782   1.586   8.547  0.3100 -0.0750 -0.2697
    1W        W26798   5.421  26.657   0.399  0.1700  0.2677 -0.0991
    1W        W26799  22.348  20.957   3.474  0.2508  0.2236  0.0333
    1W        W26800  19.414   3.422   2.452  0.0313  0.0448  0.3074
    1W        W26801   9.170  21.169  10.345  0.1175  0.0262 -0.1766
    1W        W26802  26.841   1.265   0.624  0.0550 -0.1757  0.2477
    1W        W26803   1.412   3.505   1.406  0.0164  0.0276  0.0198
    1W        W26804  14.034  21.992   2.004 -0.1031 -0.3369  0.2758
    1W        W26805  20.383  14.740   3.014 -0.0827  0.0258  0.2701
    1W        W26806  11.413   4.535   1.285  0.0682  0.3046 -0.1026
    1W        W26807  16.906  24.024   7.799 -0.0494 -0.2506  0.2432
    1W        W26808  23.916   3.293   1.730  0.2596  0.2317  0.2473
    1W        W26809  14.013  15.981   9.063  0.1099 -0.1835  0.0433
    1W        W26810  26.322  22.617   1.493 -0.4052  0.0999  0.2311
    1W        W26811  17.337   1.912   3.499 -0.0399  0.0672 -0.1545
    1W        W26812  26.687   9.063   9.679  0.4416 -0.3861 -0.1813
    1W        W26813  10.228   5.184   1.369 -0.1416  0.0610 -0.1896
    1W        W26814  25.953   2.856   0.102  0.0079  0.0862  0.0688
    1W        W26815   6.259   0.554   8.963 -0.0313 -0.1045  0.2503
    1W        W26816   5.626   9.016   2.028  0.2747 -0.2116  0.1120
    1W        W26817  23.225  19.384   6.848 -0.4726 -0.2128  0.0079
    1W        W26818  14.225   2.690   0.946  0.0085  0.1017  0.2470
    1W        W26819  23.341  11.568   7.340 -0.1619  0.2980  0.1251
    1W        W26820   4.204   0.861   9.829 -0.2620 -0.1666  0.2525
    1W        W26821   7.545  24.825   9.223 -0.1731 -0.2362 -0.0817
    1W        W26822  16.185  13.890   2.842 -0.1290  0.0033 -0.2793
    1W        W26823   8.321  16.774  10.190 -0.0135 -0.1506  0.3165
    1W        W26824   2.348  28.108   3.118  0.3368 -0.0549 -0.0944
    1W        W26825  14.058  13.471   1.464 -0.1157 -0.0510  0.2218
    1W        W26826  10.352  16.038   9.710  0.0139 -0.2034  0.0199
    1W        W26827   9.921   0.879   0.174  0.1009 -0.1299  0.4682
    1W        W26828   4.485  21.465   9.478 -0.1247 -0.2437  0.1721
    1W        W26829   1.257  27.840   7.127  0.1575 -0.0387 -0.0360
    1W        W26830   8.791   6.018   2.073  0.2521  0.0392 -0.1295
    1W        W26831   9.409   7.030   9.193  0.0804  0.0607 -0.0852
    1W        W26832   8.695  13.332   8.375 -0.0645  0.0695  0.0124
    1W        W26833  15.492  27.625   2.908  0.1667  0.0006 -0.1195
    1W        W26834  16.695   2.203   8.668 -0.2175 -0.0614 -0.0328
    1W        W26835  13.411  23.907   8.105  0.0970  0.4449 -0.0358
    1W        W26836  23.811  20.347   7.806  0.1912  0.2746  0.0089
    1W        W26837  15.176  27.609   0.361  0.3450 -0.1626 -0.0922
    1W        W26838   7.050  12.874   7.362  0.0656  0.0027 -0.2144
    1W        W26839  18.237  27.166   8.890 -0.0703  0.0226 -0.0092
    1W        W26840   6.978  21.368   2.871 -0.3048 -0.0995  0.6682
    1W        W26841  17.611  14.686   3.832  0.3617 -0.0999 -0.1724
    1W        W26842   1.983  23.970   1.114  0.1079  0.0361  0.0375
    1W        W26843  24.731  27.819   1.358 -0.3303 -0.2336  0.1605
    1W        W26844   7.105  21.027   2.054 -0.0817 -0.0587 -0.0542
    1W        W26845  25.953  11.354   9.967 -0.1002 -0.2398 -0.2405
    1W        W26846   9.309  11.758   0.604  0.0189 -0.4030  0.1437
    1W        W26847  11.807   1.967  10.109 -0.0197  0.0458  0.0399
    1W        W26848  27.573  10.154   0.487 -0.1590 -0.2719 -0.6153
    1W        W26849   8.812   6.128   7.802 -0.1381  0.0180  0.1594
    1W        W26850  16.575  22.625   8.837  0.1084  0.0684  0.2337
    1W        W26851  21.507   2.835   2.198  0.5894 -0.4326  0.1541
    1W        W26852   9.916  13.083   7.676 -0.0461 -0.0398  0.0895
    1W        W26853  26.502  16.360   0.105  0.0755 -0.2387  0.3344
    1W        W26854  13.108  18.989   9.823 -0.2674 -0.0378  0.2579
    1W        W26855  16.583  27.714   9.995 -0.0920  0.0233 -0.0167
    1W        W26856   2.287  14.960   0.071  0.2140 -0.3003  0.2165
    1W        W26857  18.818   2.164   8.010 -0.3289  0.3498  0.0860
    1W        W26858  21.612   1.667   7.775  0.0810  0.0987  0.1382
    1W        W26859  17.503  22.242  10.270 -0.1689 -0.2253  0.1280
    1W        W26860  11.995   9.852   8.317 -0.0014 -0.1469 -0.0197
    1W        W26861   9.935   9.261   1.326  0.1611 -0.1375 -0.0032
    1W        W26862  26.817   9.347   1.664 -0.2125  0.2260 -0.1540
    1W        W26863   6.849  11.560   9.651  0.1030 -0.1573  0.1065
    1W        W26864   4.148   1.380   8.401  0.1226  0.1835 -0.2761
    1W        W26865  20.588  24.269   1.662 -0.2086 -0.1865 -0.2442
    1W        W26866  12.996  13.304   1.385 -0.0133  0.1133  0.5055
    1W        W26867  17.172  16.337   0.330 -0.1798 -0.0067 -0.1916
    1W        W26868  11.797  22.977   1.455 -0.2818  0.2659 -0.1197
    1W        W26869  11.014   1.229   7.524 -0.2248 -0.0331 -0.1375
    1W        W26870   1.215   8.213   0.571 -0.2428 -0.1908 -0.0017
    1W        W26871   4.721  14.101   1.047  0.1879 -0.0815  0.2759
    1W        W26872  11.114  10.701   8.501 -0.2056  0.0469 -0.0213
    1W        W26873  24.017   2.844   9.279 -0.1140  0.2731  0.2005
    1W        W26874   8.924  16.202   2.093 -0.1916  0.0539 -0.0943
    1W        W26875  15.918   2.552   8.622 -0.0398  0.2697  0.0252
    1W        W26876  17.028  13.971   0.365  0.0334  0.0315 -0.4558
    1W        W26877  18.637  18.871   9.720  0.1208  0.4388 -0.0524
    1W        W26878  21.584   8.739   0.789 -0.0133  0.0958  0.1461
    1W        W26879  10.327   4.984   8.867  0.0045 -0.0117  0.1047
    1W        W26880  26.016  20.162   7.782 -0.0040 -0.0568 -0.1921
    1W        W26881  10.467  25.781   0.504  0.1072  0.0834 -0.0586
    1W        W26882  24.181   4.643   9.968 -0.1226  0.1309 -0.0865
    1W        W26883  14.406  10.460   0.208  0.1373 -0.0701  0.1714
    1W        W26884  24.218  28.007   9.168  0.2452 -0.1400  0.0923
    1W        W26885   6.006  24.108   1.455 -0.1218  0.1993  0.1219
    1W        W26886  14.966  22.426   1.998 -0.2355 -0.0687 -0.1582
    1W        W26887  21.635   6.853   8.101 -0.1927  0.2136 -0.2134
    1W        W26888  27.282  14.502   8.189 -0.0076  0.0465 -0.0319
    1W        W26889  14.162  15.854   8.438  0.2165 -0.1283  0.2309
    1W        W26890  22.867   5.349   8.366  0.5956 -0.0016 -0.3753
    1W        W26891   3.233  17.970   1.954  0.0814  0.2153  0.1476
    1W        W26892   5.115  16.082   9.960  0.0257 -0.1778  0.3139
    1W        W26893  20.592  28.088   8.314 -0.0739  0.0352 -0.0966
    1W        W26894  18.916  19.237   8.365  0.0031  0.0629  0.1015
    1W        W26895  23.610   7.742   8.309  0.1610  0.0883  0.0554
    1W        W26896   2.767  21.742   1.117  0.0500 -0.1302  0.1597
    1W        W26897  26.685  20.220   1.472  0.2129  0.1027  0.0618
    1W        W26898  10.440  17.872   2.934 -0.2840 -0.1959 -0.0212
    1W        W26899  25.654  16.710   1.507  0.2080 -0.1176 -0.1052
    1W        W26900  13.418  13.789   3.265  0.0859 -0.0220  0.0921
    1W        W26901  13.674  18.025   3.276  0.0161 -0.1160  0.3411
    1W        W26902   1.016  26.177   7.881  0.0006 -0.0892  0.1130
    1W        W26903   3.723   3.122   0.613 -0.0291  0.0170 -0.0370
    1W        W26904  26.789   2.140   2.245  0.0003  0.0159  0.1241
    1W        W26905  23.430   2.686   8.807  0.0795  0.3266 -0.1683
    1W        W26906   0.138  21.431   0.128 -0.2934 -0.2625 -0.1125
    1W        W26907   9.211  16.931   3.375 -0.2459  0.3576  0.1351
    1W        W26908   9.988   5.440   9.726 -0.0709  0.0395 -0.1909
    1W        W26909  23.946  14.260   9.931  0.1810 -0.3083 -0.0683
    1W        W26910  21.039  14.282   2.656  0.3478 -0.2032  0.0741
    1W        W26911  24.426  24.041   0.414  0.0691 -0.0644  0.3448
    1W        W26912  12.420   0.389   1.604 -0.3670  0.2648 -0.2028
    1W        W26913  10.932  19.299   2.121  0.3098  0.0032  0.1653
    1W        W26914   2.629  15.091   8.409  0.1771  0.0389 -0.0166
    1W        W26915  18.272  20.430   7.811  0.1789  0.2132 -0.2844
    1W        W26916  17.266  23.659   7.893 -0.1399  0.0786  0.0499
    1W        W26917   9.208  24.274   2.700  0.1613  0.0218 -0.4854
    1W        W26918   5.861  17.639   3.946  0.1809  0.5279  0.1332
    1W        W26919  27.968  24.119   1.697  0.2515 -0.0099 -0.0372
    1W        W26920  23.494  14.741   9.146 -0.1329  0.0801  0.1313
    1W        W26921  12.757  14.078   0.727 -0.2451 -0.0323 -0.0788
    1W        W26922   7.496   1.006   2.055 -0.1211 -0.0090  0.0313
    1W        W26923   9.881  15.542   2.996 -0.1032 -0.1381  0.1161
    1W        W26924   9.406  20.295   7.815 -0.1956 -0.0739 -0.0608
    1W        W26925   1.121   5.384   7.702 -0.0149  0.0769 -0.4141
    1W        W26926   7.016   2.918   7.519  0.2537  0.0267 -0.1207
    1W        W26927  14.369   1.368   7.624  0.1956  0.0027  0.1594
    1W        W26928   4.746  13.469   0.147  0.0941  0.2261  0.2011
    1W        W26929  14.861   0.871   1.076  0.0026 -0.1417 -0.0286
    1W        W26930   1.879   0.801  10.359 -0.0393  0.2094  0.1914
    1W        W26931   9.609   2.925   9.770 -0.0485 -0.1115  0.1074
    1W        W26932  10.985  22.792   8.718  0.0046  0.3123 -0.0057
    1W        W26933   7.704  11.466   1.505  0.1483  0.0376  0.0011
    1W        W26934  18.501  19.297   8.974 -0.1213 -0.2060  0.0217
    1W        W26935   3.473  22.756   6.520 -0.0420  0.2656 -0.1674
    1W        W26936  22.541   4.032   1.160 -0.1275  0.1896  0.0032
    1W        W26937   4.778  25.437  10.334 -0.0197 -0.2946 -0.1154
    1W        W26938  22.361  18.225  10.293 -0.0861 -0.0589  0.2423
    1W        W26939  12.663  10.722   8.773 -0.0182  0.3410  0.1411
    1W        W26940  10.536  24.239  10.081  0.1594 -0.1390 -0.2660
    1W        W26941  11.387   5.048   0.404 -0.0881 -0.2678 -0.1129
    1W        W26942  18.976   7.590   3.085  0.3428 -0.1168 -0.1023
    1W        W26943   3.398  25.931   7.454  0.3141 -0.0993  0.1680
    1W        W26944   6.043  22.145   3.444 -0.0523 -0.2282  0.3566
    1W        W26945  20.944  26.178   8.182  0.2071  0.2582  0.0652
    1W        W26946   6.503   6.318  10.240 -0.0900 -0.0289  0.3181
    1W        W26947  27.543  24.012   1.456  0.2008  0.1256 -0.0406
    1W        W26948   5.554   4.877   0.064 -0.2886 -0.2353 -0.1724
    1W        W26949  16.603  16.883   3.184  0.4329 -0.2026 -0.1222
    1W        W26950  22.613  15.096   1.874 -0.0181  0.0046  0.0420
    1W        W26951   6.162  16.124   3.613  0.3419  0.1486 -0.1072
    1W        W26952   7.256  11.321   0.110 -0.0103  0.2653 -0.1783
    1W        W26953  25.074   5.989   7.611 -0.0972 -0.0927 -0.0689
    1W        W26954   5.644   6.484   9.401  0.0522 -0.2084  0.1147
    1W        W26955  22.346  18.749   2.165  0.1999  0.1356  0.0380
    1W        W26956   0.973  15.545   9.247 -0.0484  0.3050  0.1324
    1W        W26957  25.491  23.910   0.142  0.0361 -0.0516  0.0717
    1W        W26958   9.860  21.559   7.704  0.0443  0.1280  0.0707
    1W        W26959   0.707   4.890   9.990 -0.1197 -0.1546  0.1142
    1W        W26960   8.846  21.459   9.388 -0.0282 -0.0669  0.1568
    1W        W26961  14.422  15.389   1.332 -0.1998  0.0895 -0.3866
    1W        W26962  16.038   4.618   1.528  0.1365 -0.0967  0.3269
    1W        W26963  17.545   0.766   4.433  0.3371 -0.2585 -0.3855
    1W        W26964  19.417  12.903  10.303  0.0885  0.1139 -0.2091
    1W        W26965   6.359   8.307   3.225  0.0629  0.1341 -0.1871
    1W        W26966   8.415  28.050   8.290 -0.2560 -0.1412  0.1236
    1W        W26967   7.297  22.989   7.986  0.0924  0.2695  0.0609
    1W        W26968   3.684   8.210   7.360 -0.1078  0.0809 -0.3487
    1W        W26969  23.601  20.299   7.374  0.0098 -0.0876  0.0606
    1W        W26970  13.704   9.258   8.562 -0.0262 -0.1989  0.2433
    1W        W26971  19.336  22.599   2.113 -0.2649 -0.1641 -0.1317
    1W        W26972   1.032  12.184   7.808 -0.1388  0.0505 -0.2344
    1W        W26973  10.175   0.507  10.209  0.0543  0.0471  0.2649
    1W        W26974  23.045  25.719   9.046  0.3358  0.1271 -0.2186
    1W        W26975  15.853   0.524   9.616  0.0503  0.1698  0.0901
    1W        W26976   8.395   7.304   2.091 -0.0552 -0.1189 -0.1278
    1W        W26977   7.891  10.262   9.920 -0.1378 -0.1865 -0.2542
    1W        W26978   1.928  18.695   0.744  0.1820  0.3543 -0.0366
    1W        W26979  16.272   6.600   9.120  0.2225 -0.0339 -0.2673
    1W        W26980   9.941  18.204   8.854 -0.2044  0.2647 -0.2993
    1W        W26981  23.624  11.946   0.873 -0.1351  0.1713  0.1452
    1W        W26982  16.164  22.385   0.121 -0.0107 -0.0587  0.3056
    1W        W26983   6.516   9.080   7.280  0.0609  0.0628  0.1438
    1W        W26984  18.389  24.330   2.104  0.4472 -0.1279 -0.4067
    1W        W26985   0.970   5.567  10.160 -0.0333  0.1314 -0.4125
    1W        W26986   4.366  27.421   1.010  0.1846  0.1435 -0.0183
    1W        W26987   7.801  15.759   1.546  0.0490 -0.1118 -0.1987
    1W        W26988  10.464   1.681   2.129 -0.1811  0.2575  0.1276
    1W        W26989  24.722  12.376   8.298 -0.1592 -0.2750  0.1392
    1W        W26990  21.735  23.951   2.938  0.1569 -0.1208 -0.0122
    1W        W26991  27.204  27.392   8.940 -0.3358 -0.1215 -0.2163
    1W        W26992  12.700  11.435   1.597 -0.0245 -0.2909 -0.0879
    1W        W26993  24.378  12.695   0.805 -0.4694 -0.3095 -0.5259
    1W        W26994  20.948   8.099   8.118 -0.1229  0.1845  0.4048
    1W        W26995   0.186   2.556   8.363  0.0815 -0.0704 -0.0202
    1W        W26996  20.161  23.681   8.845  0.2620  0.2912 -0.0242
    1W        W26997   1.763  14.984   9.153 -0.2207 -0.0665 -0.2139
    1W        W26998  26.961  26.676   9.639  0.1035  0.1943 -0.2629
    1W        W26999  27.667  24.907   2.657 -0.0889  0.0969 -0.2401
    1W        W27000   2.040   6.237   9.899 -0.2393  0.2952  0.0007
    1W        W27001  23.199  23.425   2.555  0.0399 -0.0975 -0.1972
    1W        W27002  24.679  25.811   7.560  0.0297 -0.1027 -0.1639
    1W        W27003   1.412  10.429   7.248 -0.2980 -0.2009  0.0845
    1W        W27004   5.292   0.917   8.244  0.0261  0.1709 -0.1183
    1W        W27005   9.238   5.662   1.916  0.1027 -0.0031 -0.1110
    1W        W27006  17.572  24.638   2.645  0.0068 -0.1267  0.0288
    1W        W27007  15.572  27.307   2.009  0.0717  0.1071  0.0967
    1W        W27008   1.464  26.954   6.933  0.0904  0.4920  0.3239
    1W        W27009   5.764  12.327   0.030 -0.1092  0.1865 -0.1455
    1W        W27010   2.648  15.971   8.492  0.1948 -0.0243 -0.0795
    1W        W27011  15.342  12.371   3.666  0.2481  0.0697  0.0730
    1W        W27012  14.207  13.815   1.800  0.2649 -0.1400  0.1503
    1W        W27013   1.114   5.096   0.104  0.1362 -0.0313 -0.0839
    1W        W27014   6.102  21.188   2.136 -0.1193 -0.3554 -0.1549
    1W        W27015   8.441  12.025   3.483 -0.3532 -0.2255 -0.2076
    1W        W27016   7.942  17.804   8.474  0.1797  0.2020 -0.0943
    1W        W27017   0.061  12.056   8.005 -0.2762  0.2153 -0.0539
    1W        W27018  10.142  11.454   7.991 -0.1728 -0.0569 -0.2057
    1W        W27019   5.855  15.166   9.999 -0.1204  0.0289  0.1955
    1W        W27020   5.842   2.329   8.796 -0.0001 -0.1432  0.1103
    1W        W27021  22.524   8.137   1.979 -0.0904 -0.2958  0.2736
    1W        W27022   9.192  23.027   1.591 -0.2981  0.1564 -0.2696
    1W        W27023  21.228   3.184   2.512 -0.0600  0.0521  0.0228
    1W        W27024   5.619  27.695   7.219  0.2387 -0.2282 -0.1837
    1W        W27025  17.323  27.167   3.804  0.0149  0.0751  0.2562
    1W        W27026  11.828  26.222   3.034  0.0309  0.0368 -0.0550
    1W        W27027  12.291   1.934   2.773 -0.0367 -0.3777  0.1500
    1W        W27028  16.471   8.045   8.185  0.1531 -0.0691  0.1608
    1W        W27029  26.248  20.063   9.897 -0.1831 -0.1082  0.1210
    1W        W27030  20.036  11.140   2.375  0.0196 -0.1833  0.1887
    1W        W27031  18.892  17.076   0.482 -0.2575  0.3630 -0.0440
    1W        W27032  24.491  26.983  10.042  0.0396  0.2423 -0.0172
    1W        W27033  26.770   4.497   0.509  0.0107 -0.0418 -0.1621
    1W        W27034   9.342  11.765   2.284 -0.2345  0.0405  0.0555
    1W        W27035   0.685   5.331   9.768  0.2723  0.1822 -0.2741
    1W        W27036  17.032   0.614   8.719  0.0655  0.1221  0.2298
    1W        W27037  18.528  15.353   0.515 -0.3466  0.1361  0.0911
    1W        W27038   5.437  26.734   2.154  0.0801  0.3750 -0.1440
    1W        W27039   1.966  21.198   7.208  0.1659  0.3742  0.1560
    1W        W27040   8.522  15.073   9.964  0.1257 -0.0792  0.1817
    1W        W27041  19.466   2.977   1.809 -0.1167 -0.0367  0.0144
    1W        W27042  23.177  15.232   2.564 -0.3078  0.3057  0.0067
    1W        W27043  24.718  28.096   2.186 -0.0486  0.2750  0.2863
    1W        W27044  15.111  13.835   2.758  0.1492  0.0301 -0.0113
    1W        W27045  21.992  22.131   6.309 -0.2311  0.1604  0.1667
    1W        W27046  28.008  12.249   8.972 -0.0154 -0.0517 -0.1497
    1W        W27047  18.009   4.781   0.909  0.0468  0.5631 -0.1195
    1W        W27048  26.834   1.896   8.242 -0.1028 -0.1613  0.1050
    1W        W27049  25.536  12.937   7.233 -0.2816  0.0145 -0.1122
    1W        W27050  11.497  27.156   8.759  0.0618  0.1056  0.2092
    1W        W27051  26.445   0.910   0.631  0.2291  0.3479  0.3120
    1W        W27052   1.843  23.382   0.425 -0.3554  0.2339 -0.2258
    1W        W27053  26.248   9.736   0.621  0.0837 -0.1450  0.1095
    1W        W27054  10.002  24.978   1.257 -0.0484  0.0239  0.1673
    1W        W27055  19.470  12.422   3.108 -0.0730 -0.0223  0.0646
    1W        W27056  20.633  25.333   1.973  0.2527 -0.2227  0.0062
    1W        W27057   0.147   9.055   2.023  0.0958  0.0163 -0.0596
    1W        W27058   4.806  24.336   7.785  0.3052 -0.0129  0.0312
    1W        W27059  11.830  10.859   8.512 -0.2517 -0.0623 -0.0184
    1W        W27060  20.425  11.547   3.604 -0.0617 -0.1388 -0.3118
    1W        W27061  23.481  18.635   7.717 -0.1434  0.2531  0.3411
    1W        W27062  21.591  12.611   3.220 -0.1569  0.0640  0.1556
    1W        W27063   5.594  16.161   0.708  0.1741  0.0247 -0.1617
    1W        W27064   5.320  10.605   7.432 -0.0299  0.1292 -0.1919
    1W        W27065  20.215   4.795   0.229  0.0177 -0.1824  0.1605
    1W        W27066   1.461   2.997   1.501 -0.0240 -0.1867  0.1055
    1W        W27067   6.820  19.024  10.249  0.1861  0.2956 -0.1706
    1W        W27068  16.939  10.777   1.900  0.0747  0.0971 -0.0810
    1W        W27069  21.852   9.395   2.739  0.1217 -0.0893 -0.0215
    1W        W27070  20.031  27.012   0.359 -0.0002 -0.2798 -0.0802
    1W        W27071  10.767   4.062   9.160 -0.4149  0.0088 -0.1865
    1W        W27072   8.369  16.950   2.817  0.3457  0.2239  0.5176
    1W        W27073  25.873  13.474   8.623 -0.0597  0.0218 -0.0848
    1W        W27074  18.619  21.164   8.881 -0.0355  0.2137  0.3656
    1W        W27075   1.135   2.222   0.535 -0.0131 -0.1390 -0.3451
    1W        W27076   8.461  15.761   2.769 -0.1331  0.2358  0.1064
    1W        W27077  23.891   0.594   7.465  0.0167  0.2682  0.1358
    1W        W27078  11.077  21.276  10.298  0.0927  0.1673  0.1243
    1W        W27079  11.668   6.234   9.310  0.1686  0.0469  0.2201
    1W        W27080   1.598  16.784   1.610  0.2010  0.1278 -0.1626
    1W        W27081   1.722  12.671   8.030 -0.1510  0.0919 -0.0844
    1W        W27082  16.506   7.147   2.640  0.2678  0.1045 -0.0021
    1W        W27083   1.962   1.751  10.075 -0.0756  0.0786  0.2046
    1W        W27084  13.679  24.683   0.109 -0.2128 -0.0946  0.2936
    1W        W27085  15.426  25.161   0.056  0.1766  0.2477  0.2741
    1W        W27086  12.291  22.764   8.630 -0.1272  0.1788  0.0614
    1W        W27087  19.767   1.730   6.933  0.1636 -0.1453  0.0291
    1W        W27088  12.388  13.654   2.933 -0.0513 -0.2102 -0.3323
    1W        W27089   1.567  24.504  10.097 -0.0007 -0.3156  0.1739
    1W        W27090   4.986  27.023   0.493  0.0242 -0.3422 -0.1711
    1W        W27091   7.959   7.016   3.337  0.1017 -0.3655  0.0567
    1W        W27092  22.808   8.150   7.483 -0.0589 -0.1568  0.1549
    1W        W27093  17.462   0.472   1.261 -0.1681  0.1186 -0.1837
    1W        W27094  22.147  22.088   2.713 -0.1626 -0.0142  0.1846
    1W        W27095  21.028   9.367   0.409  0.2451 -0.0155  0.0383
    1W        W27096  14.357   4.938   1.561  0.0511  0.1087  0.1174
    1W        W27097  26.720   6.627   9.098  0.1130  0.0835 -0.0147
    1W        W27098  24.837  11.518   8.734  0.2000 -0.1666 -0.1104
    1W        W27099  12.950  27.029   8.095 -0.2714 -0.2663 -0.1513
    1W        W27100  23.882   3.726   7.559 -0.3654 -0.0347  0.5348
    1W        W27101  18.952  12.774  10.220  0.2332 -0.0551 -0.0088
    1W        W27102   2.813  18.776   1.893  0.0753 -0.0759 -0.0750
    1W        W27103  13.590  24.704   1.879 -0.1337  0.0473 -0.3378
    1W        W27104  11.382   7.067   0.514  0.1594  0.4092  0.1316
    1W        W27105   4.231  12.136   9.704 -0.0232  0.1293  0.1745
    1W        W27106  14.134  27.415  10.157 -0.1028 -0.1961 -0.3149
    1W        W27107  18.887  23.235   1.702 -0.1204 -0.1397  0.1398
    1W        W27108  28.067  22.554   6.244 -0.1750 -0.2446 -0.2289
    1W        W27109  17.862  12.032   1.089  0.1341  0.0601 -0.4542
    1W        W27110  10.882   0.796   1.215  0.0590 -0.3647 -0.0485
    1W        W27111  20.937  15.871   9.388 -0.2149  0.1264 -0.1131
    1W        W27112   3.055  25.277   0.343 -0.0074  0.1448 -0.1762
    1W        W27113   6.446  22.516   8.736 -0.1290  0.0983 -0.0823
    1W        W27114   2.352  13.024   8.853  0.1547  0.3463  0.3578
    1W        W27115  11.808  26.334   1.313  0.0923 -0.0105 -0.0512
    1W        W27116   7.315   2.851   1.853 -0.2731  0.1748 -0.0364
    1W        W27117  27.120   3.568   0.034  0.0582 -0.2035  0.1195
    1W        W27118  22.163   0.696   2.618 -0.0397  0.4317  0.1327
    1W        W27119  22.243  12.253   0.660 -0.0994  0.1248  0.0557
    1W        W27120  21.563  24.423   3.011  0.2949  0.3014 -0.4331
    1W        W27121  22.938  12.073  10.332  0.0046 -0.1904 -0.2154
    1W        W27122  19.597   7.627   0.264 -0.0415 -0.0423 -0.0451
    1W        W27123  19.663   7.719   8.641  0.0746 -0.2097  0.0608
    1W        W27124  23.359   5.373   0.916 -0.2237 -0.1052 -0.1423
    1W        W27125   0.241  18.897   3.022 -0.0304  0.2905 -0.1380
    1W        W27126  16.338  24.278   7.204  0.2613 -0.4032  0.0682
    1W        W27127  20.147  19.169   9.315  0.0106 -0.1351  0.1568
    1W        W27128   3.708   3.007   8.964  0.0415 -0.0143  0.1664
    1W        W27129   9.013  13.839   9.161 -0.0375  0.0850  0.1395
    1W        W27130  14.003  18.515   9.958  0.1705 -0.0688  0.0382
    1W        W27131  14.599  21.856   8.663  0.3124 -0.0845  0.0363
    1W        W27132  10.466   8.643   0.728 -0.0955  0.0158  0.1552
    1W        W27133  15.684  13.872   2.504  0.0949 -0.2454 -0.1012
    1W        W27134  20.241   6.450   3.308 -0.1538 -0.0927  0.0135
    1W        W27135  17.026  24.472   8.555  0.3152  0.0109 -0.2543
    1W        W27136  10.570  11.436   1.069 -0.3270  0.0581  0.0509
    1W        W27137  26.885  18.501  10.198  0.0664 -0.2346 -0.6476
    1W        W27138  17.335   9.149   8.067 -0.0103  0.0840  0.2614
    1W        W27139   4.439  17.696   2.211 -0.0732  0.1180  0.0151
    1W        W27140   6.957  21.844   7.103  0.0784 -0.0423 -0.0928
    1W        W27141   4.439  18.860   0.951 -0.1123 -0.0407 -0.1384
    1W        W27142  14.449   1.387   1.890 -0.0344  0.0212  0.0159
    1W        W27143  22.846   8.620   2.054 -0.0171 -0.0362  0.2301
    1W        W27144  14.204  20.095   1.391  0.1082 -0.3439  0.2428
    1W        W27145   6.142  19.244   1.170 -0.0462  0.2923  0.2568
    1W        W27146  17.568  10.611   0.406  0.0502  0.0920 -0.3668
    1W        W27147   5.800  27.290  10.306  0.1841 -0.0412 -0.2034
    1W        W27148  16.069  13.746   9.610  0.2506  0.1916  0.1483
    1W        W27149   9.688  15.800   0.519  0.0511  0.0282  0.1207
    1W        W27150  12.262   8.260   2.298 -0.2230  0.1610 -0.1954
    1W        W27151   0.831   1.188   8.806 -0.0829 -0.2664 -0.4346
    1W        W27152   3.493   7.360  10.084 -0.2078  0.3959  0.2427
    1W        W27153  16.144   4.089   0.555 -0.0932  0.1946 -0.1206
    1W        W27154  18.303   1.511   9.660 -0.2037  0.1320 -0.1161
    1W        W27155   7.085  23.612   8.037  0.0453 -0.2579 -0.0401
    1W        W27156  11.532  25.737   7.146 -0.0587  0.0806  0.1731
    1W        W27157   0.660  18.787   0.834 -0.3063 -0.1580 -0.3382
    1W        W27158  12.793  17.704   0.001 -0.0924 -0.2396 -0.2320
    1W        W27159   7.026   9.883   8.342 -0.1342  0.1597  0.0911
    1W        W27160   1.753  24.091   9.089  0.1372 -0.4976 -0.1432
    1W        W27161   9.866  25.906   2.638 -0.2396  0.1251 -0.2985
    1W        W27162   7.100   2.347   1.830 -0.1259  0.1277  0.0408
    1W        W27163  22.775  26.869   1.976  0.0990  0.1659 -0.0346
    1W        W27164   9.230   5.352   2.325 -0.2092 -0.1858 -0.1329
    1W        W27165  23.530  15.091   1.651 -0.0755  0.0306  0.0006
    1W        W27166  10.681   0.197   0.435  0.1423 -0.0209 -0.0820
    1W        W27167   7.795  12.038   2.365 -0.0833  0.0177  0.1514
    1W        W27168  10.791  16.184   8.260  0.0205  0.2309 -0.2322
    1W        W27169  27.249   3.016   7.737 -0.0933 -0.0766 -0.2696
    1W        W27170   3.734   5.993   0.649  0.2628 -0.1285  0.1790
    1W        W27171   2.768   2.560   0.523  0.2499  0.3183  0.3525
    1W        W27172  13.365   9.506   8.279  0.1248  0.0216 -0.1703
    1W        W27173  17.242   4.580   7.775  0.0923  0.0481  0.1317
    1W        W27174  12.005   4.879  10.177  0.0223  0.3091 -0.0724
    1W        W27175   0.905  27.428   8.269  0.1422  0.2257 -0.3065
    1W        W27176  13.077   8.309   1.435 -0.3379  0.0524  0.2369
    1W        W27177   2.471   0.684   0.791 -0.4213 -0.2162  0.1416
    1W        W27178   3.839   6.460   6.505 -0.0983 -0.0346  0.0881
    1W        W27179  12.432  20.091   9.412 -0.0811 -0.1519 -0.2167
    1W        W27180  10.154   0.465   7.656 -0.2779  0.0332 -0.0680
    1W        W27181   4.254  20.671   9.071  0.1209  0.1419  0.0575
    1W        W27182  26.561   7.722   0.576  0.1646 -0.1550 -0.4193
    1W        W27183  24.706   2.056   8.690 -0.0146 -0.2144  0.2998
    1W        W27184   1.355   5.703   8.645  0.3919  0.0025 -0.2532
    1W        W27185   3.163  21.551   0.755 -0.1210 -0.2249  0.2225
    1W        W27186   5.527   3.579   7.057 -0.0843 -0.0103  0.1174
    1W        W27187   6.374  18.065   0.419 -0.1396 -0.2013 -0.0690
    1W        W27188  12.215  19.038   7.651 -0.1920 -0.4459 -0.0866
    1W        W27189  26.187   9.770   6.569  0.0518 -0.0672  0.3506
    1W        W27190  21.901   7.415   9.856 -0.0664 -0.0778  0.1473
    1W        W27191  10.857  10.068   3.234  0.2660  0.0748  0.0332
    1W        W27192  13.789   9.322   0.634 -0.1550 -0.0551  0.2225
    1W        W27193  20.217  16.623   3.979 -0.1180 -0.3532  0.0802
    1W        W27194  15.510  17.516   9.821  0.0640 -0.0476 -0.0701
    1W        W27195  23.207   9.690   2.439  0.0943  0.0929  0.1845
    1W        W27196   2.542  23.142   7.424  0.3574  0.1582  0.1276
    1W        W27197  26.222  14.006   9.875 -0.4089 -0.0131  0.2176
    1W        W27198  10.450  17.662   1.719  0.1536  0.1623 -0.1265
    1W        W27199  27.859  20.423   6.222 -0.3354 -0.2327  0.0256
    1W        W27200  14.791  20.714   8.511  0.1290 -0.1344  0.1748
    1W        W27201   8.980  23.359   9.102  0.0660  0.0901  0.3490
    1W        W27202   0.554  20.425   0.461 -0.1504  0.0518  0.0557
    1W        W27203   8.757  20.041   0.412 -0.1631  0.2237  0.1685
    1W        W27204   5.131   9.753   2.234  0.0707 -0.2599 -0.1016
    1W        W27205  22.803   6.986   2.761 -0.0115 -0.2035  0.1503
    1W        W27206   5.708   6.319   0.862 -0.1584  0.2115 -0.1689
    1W        W27207   7.769  18.351   8.103  0.0048 -0.2575 -0.2790
    1W        W27208  20.176  11.591   7.918 -0.4087 -0.1599 -0.0403
    1W        W27209  10.167  23.161   8.197 -0.2965 -0.3949  0.1490
    1W        W27210  20.377   3.619   0.886 -0.2651  0.2461 -0.0932
    1W        W27211  13.244   1.778   1.114 -0.0150 -0.0032 -0.0802
    1W        W27212  16.217   0.964   8.210 -0.0206  0.0132  0.1408
    1W        W27213  27.729  17.317   9.852 -0.0647  0.1180 -0.0695
    1W        W27214  19.063  23.584   9.563  0.0791 -0.0809 -0.1154
    1W        W27215  12.866  10.283   8.641 -0.2257 -0.1712 -0.1957
    1W        W27216  26.391  12.073   0.077 -0.1559 -0.0134  0.1801
    1W        W27217  24.658   9.212  10.113  0.1090 -0.0760  0.0156
    1W        W27218   1.935  13.906   0.890  0.0873 -0.0893  0.0633
    1W        W27219   0.349  25.455   0.004  0.1263  0.2112 -0.1881
    1W        W27220  24.366  18.753   2.936 -0.0575 -0.1774 -0.2672
    1W        W27221  22.686  23.644   3.165 -0.0760 -0.2427  0.2365
    1W        W27222  24.864   1.657   0.916  0.1763  0.1575  0.0022
    1W        W27223  10.990  24.732   2.032 -0.4927 -0.1313  0.0202
    1W        W27224  22.239  26.490   0.248  0.2829 -0.2432 -0.2915
    1W        W27225  12.082  25.331   0.485 -0.0959  0.2804 -0.2083
    1W        W27226   0.073   7.416  10.301  0.1952  0.0568  0.0585
    1W        W27227  23.202  22.549   1.211 -0.2043  0.1322 -0.0985
    1W        W27228  20.742  13.782   7.801 -0.3989  0.0921  0.1854
    1W        W27229   3.853   6.460   5.776  0.0223 -0.2679  0.3646
    1W        W27230   3.122   8.322   1.433 -0.1609 -0.3174  0.0715
    1W        W27231  11.295   1.570   1.098 -0.0938 -0.2368 -0.0411
    1W        W27232  18.141  28.099   3.395  0.0360  0.2964  0.0890
    1W        W27233  14.912   7.669   7.408  0.0296 -0.0993  0.0356
    1W        W27234   0.824   9.384   0.890 -0.3127 -0.2533 -0.0194
    1W        W27235  23.325   5.164   9.680 -0.0770  0.0709 -0.0131
    1W        W27236  19.575  10.280   9.453  0.1976  0.1511  0.5321
    1W        W27237  12.611  14.776   2.735 -0.0073  0.2652 -0.1516
    1W        W27238  26.346   8.202   2.982  0.2082 -0.2281  0.0339
    1W        W27239   9.775   9.856   2.459  0.2212 -0.1169  0.2171
    1W        W27240   2.259  14.980   8.720 -0.0893 -0.0780 -0.0856
    1W        W27241  22.128   5.891   7.050  0.1126  0.0787 -0.0357
    1W        W27242  12.593   9.885   1.946  0.1380 -0.1117 -0.2681
    1W        W27243  27.810  26.950   9.875  0.1904  0.2463 -0.1915
    1W        W27244  25.340  19.458   2.626 -0.0001  0.0987  0.0016
    1W        W27245   9.435  12.518   2.479 -0.1813 -0.0284 -0.1547
    1W        W27246  19.365   9.805   9.929  0.3001  0.0738 -0.3453
    1W        W27247  16.599  19.110   0.737  0.0672 -0.1039  0.2065
    1W        W27248   7.478  18.125   1.756 -0.1552  0.2265  0.0016
    1W        W27249  12.170   0.285   3.566  0.0900  0.1043  0.0165
    1W        W27250   1.952   9.064   7.818  0.0629  0.2793  0.1124
    1W        W27251   9.258  14.786   1.157 -0.1756 -0.2294 -0.0162
    1W        W27252  25.130  21.733   7.674 -0.0055  0.1738 -0.0824
    1W        W27253  13.603   5.895   1.700  0.2904  0.2462  0.2929
    1W        W27254  12.936  27.547   9.585 -0.1413  0.0400  0.0039
    1W        W27255   6.931  11.426   9.131  0.2389 -0.1116 -0.0605
    1W        W27256  27.131  17.791   7.215  0.0567  0.0882  0.1675
    1W        W27257  27.254  26.293   8.807 -0.2065  0.2613 -0.3294
    1W        W27258  15.734  12.773   9.536 -0.0116 -0.2457 -0.0221
    1W        W27259   9.914  22.910   2.797  0.1584 -0.0002 -0.3513
    1W        W27260  20.894   7.457   1.304 -0.1217  0.0451  0.0696
    1W        W27261   6.469  27.246   7.457  0.2274  0.1124  0.0117
    1W        W27262   1.674   1.525   0.225  0.0628 -0.1343  0.0504
    1W        W27263   1.952   7.792   8.857 -0.0893 -0.1751 -0.0231
    1W        W27264   6.508  15.087   3.586 -0.1095 -0.1005  0.1294
    1W        W27265  15.422  13.456   8.928 -0.0006  0.1610 -0.0195
    1W        W27266  19.207  19.565   9.711  0.1155  0.2534 -0.1111
    1W        W27267  19.619  10.770   2.702  0.0969 -0.1144  0.2103
    1W        W27268  26.563  24.348   9.633  0.0119  0.1407  0.0869
    1W        W27269  20.040  10.257  10.316  0.1120 -0.0144 -0.0698
    1W        W27270   8.010   6.427   7.675 -0.1478 -0.2180  0.1315
    1W        W27271   5.281  15.638   7.788  0.0694 -0.1842  0.0980
    1W        W27272   6.099   6.720   9.486 -0.0911 -0.0672  0.1450
    1W        W27273  22.361   7.430   8.618  0.0748 -0.1593  0.2764
    1W        W27274   9.254  21.876   7.387 -0.2117 -0.1892  0.1148
    1W        W27275  26.749  25.967   1.286  0.0384 -0.2384  0.1636
    1W        W27276  24.962   1.000  10.030 -0.2247 -0.1112  0.0543
    1W        W27277  19.509   0.982   0.668 -0.0667  0.0764 -0.4641
    1W        W27278   2.453  19.221   3.071  0.2275  0.0320  0.0746
    1W        W27279  22.181   5.872   6.277 -0.1466  0.3167 -0.4046
    1W        W27280  14.525  27.460   7.846  0.0456 -0.1527  0.0805
    1W        W27281  10.262  19.107   9.024  0.1331  0.1305 -0.0123
    1W        W27282   0.659  15.008  10.038  0.1270 -0.2966  0.0014
    1W        W27283  26.662  15.163   8.390  0.1252 -0.2778  0.2049
    1W        W27284  17.625   4.424   2.588 -0.2499  0.0920 -0.0102
    1W        W27285   7.021  18.970   2.675 -0.0124 -0.2482  0.0794
    1W        W27286   2.961  12.143   2.034 -0.0661  0.2286 -0.0070
    1W        W27287  13.114  19.384   0.702  0.3058  0.3768  0.0620
    1W        W27288   2.661   9.433   0.630 -0.0756 -0.1269 -0.2959
    1W        W27289   7.378  15.007   6.566 -0.2872 -0.3115  0.1350
    1W        W27290   4.588  16.613   3.457  0.2060  0.1750  0.1494
    1W        W27291  26.584   6.298   7.853 -0.2596  0.0732 -0.1175
    1W        W27292  26.578  22.749   9.760 -0.0235  0.3163  0.1082
    1W        W27293   3.415  19.353  10.018  0.0176 -0.0478  0.3898
    1W        W27294   0.868  10.786   8.602  0.1631 -0.1182 -0.0121
    1W        W27295  18.880   5.632   2.642 -0.0468 -0.0200  0.2537
    1W        W27296   6.871  19.247   9.804 -0.1909  0.1614  0.4842
    1W        W27297  13.013  27.737   0.314  0.5336  0.1939  0.1481
    1W        W27298  14.185   0.149   2.111  0.0216  0.2222  0.2448
    1W        W27299  25.631  14.500   6.564 -0.0424  0.0484 -0.1050
    1W        W27300   8.060  22.444   7.881  0.0729  0.3610 -0.1818
    1W        W27301   8.698  25.673   1.475  0.0579  0.0843  0.0133
    1W        W27302   1.027  11.364   2.398 -0.0118  0.1571 -0.0370
    1W        W27303  22.241  10.313   9.035  0.2680 -0.5301  0.4805
    1W        W27304   6.815   3.613   9.221  0.1296  0.3105 -0.0615
    1W        W27305   9.234  24.078   9.277 -0.1720 -0.0778  0.4179
    1W        W27306  22.351  19.686   9.746  0.2031 -0.0674  0.0321
    1W        W27307  13.879  24.308  10.164  0.0189 -0.2875  0.3836
    1W        W27308  20.370  14.518   9.034  0.1742  0.2570  0.3731
    1W        W27309  15.230   0.976   2.344  0.3549  0.0733  0.3256
    1W        W27310   7.545  24.286   6.667  0.1921 -0.0324 -0.0858
    1W        W27311   3.031  21.109   1.659 -0.0736  0.0901  0.4273
    1W        W27312  27.052  18.551   2.041  0.2066 -0.3044  0.4104
    1W        W27313  12.159  19.154   9.133 -0.0415 -0.0926 -0.0503
    1W        W27314   0.371  13.874   9.957 -0.2178 -0.0274 -0.0605
    1W        W27315  23.629  18.982   8.673 -0.1846 -0.1772 -0.1762
    1W        W27316  18.836   9.232   0.234 -0.0335  0.1876 -0.3282
    1W        W27317   3.544   6.903   0.422 -0.0027  0.1697 -0.0516
    1W        W27318  12.795   9.371   1.260 -0.0762 -0.1180  0.0589
    1W        W27319  10.011   5.055   0.420  0.0266 -0.0141 -0.0678
    1W        W27320  10.256  23.635   9.403 -0.1276  0.5418 -0.1466
    1W        W27321  18.030   9.463   9.420 -0.0003 -0.1704 -0.0909
    1W        W27322  27.053  22.463   1.816  0.0305  0.1729 -0.1251
    1W        W27323  12.813   6.946   0.357  0.1941 -0.1665 -0.0487
    1W        W27324   5.691   6.268   9.995 -0.2180 -0.0062  0.0665
    1W        W27325   8.005  21.266   8.674 -0.1960  0.1254  0.0653
    1W        W27326  17.309  24.489   8.021  0.0326  0.1428  0.2404
    1W        W27327  17.922  18.372   2.974 -0.1418 -0.1266 -0.1485
    1W        W27328   0.098  19.229   1.504 -0.1154  0.2134 -0.0329
    1W        W27329  27.925  18.799   0.184 -0.1125  0.0307  0.2514
    1W        W27330   9.100  27.378   8.830 -0.2396  0.1352  0.1135
    1W        W27331  27.317  22.946   1.698 -0.3384 -0.3616  0.0197
    1W        W27332   9.818  21.746   8.178 -0.1133  0.1178  0.2058
    1W        W27333  25.338   9.071   7.062 -0.0636  0.1028  0.0143
    1W        W27334  17.601  18.249   2.595 -0.1823 -0.3084  0.0346
    1W        W27335  21.902  14.546   9.251 -0.1520  0.2670  0.1197
    1W        W27336  24.898   6.070   0.206 -0.0174  0.1154 -0.0724
    1W        W27337   8.408  21.301   0.628 -0.1725  0.1562  0.2302
    1W        W27338   3.204   3.524   9.317 -0.2876  0.0067 -0.1361
    1W        W27339  15.826   4.920   8.197  0.0377 -0.1064 -0.2060
    1W        W27340  24.439  25.640   2.070  0.0315  0.1648 -0.0141
    1W        W27341  26.257   2.989   8.343  0.0643 -0.0336 -0.1043
    1W        W27342  17.346   1.263   9.563  0.0577  0.2447  0.1343
    1W        W27343   8.840   9.542   9.388 -0.1737 -0.1759 -0.0299
    1W        W27344  18.959  10.935   0.641 -0.0042  0.0822  0.1937
    1W        W27345  19.321  21.260   9.786 -0.0099  0.1079 -0.2168
    1W        W27346  24.831  13.560   9.698  0.2305  0.1478 -0.2456
    1W        W27347  19.532  11.943   9.200 -0.2324  0.1153  0.0678
    1W        W27348   3.232  24.824   9.255  0.2323 -0.0589  0.1842
    1W        W27349  15.998  24.608   7.180  0.1989 -0.0039 -0.1100
    1W        W27350  22.259  14.062   2.608  0.0463  0.0163 -0.2503
    1W        W27351  27.170  15.199  10.147  0.0067  0.1859 -0.0092
    1W        W27352   2.952  15.478   9.586 -0.0359  0.0063 -0.1473
    1W        W27353   7.914   7.823  10.099 -0.1971  0.0109 -0.3957
    1W        W27354  22.296   2.336   2.507 -0.1799  0.0165  0.2937
    1W        W27355  20.822   1.675   0.855  0.3781 -0.2084  0.1777
    1W        W27356   7.585  14.265   9.143  0.0794 -0.0693  0.1226
    1W        W27357  20.743  18.615   2.715 -0.0965 -0.0125 -0.1851
    1W        W27358  24.758  15.510   0.256  0.0479 -0.1182  0.1237
    1W        W27359   2.991   3.621   6.501 -0.2483 -0.1420 -0.0340
    1W        W27360  12.790  23.191   0.335  0.1936  0.0933 -0.2201
    1W        W27361  19.927   8.696   7.273  0.2179  0.0845 -0.4553
    1W        W27362   1.524  12.929   8.407 -0.0510 -0.1679 -0.1325
    1W        W27363   7.848  11.232   8.507  0.0216  0.1150 -0.3222
    1W        W27364  22.353  17.431   9.177  0.0916  0.0916 -0.0630
    1W        W27365  19.503  23.431   2.612  0.0921  0.0214 -0.1592
    1W        W27366  13.088   1.939   0.660  0.1702 -0.2282  0.1052
    1W        W27367  16.229  25.784   9.841  0.0811  0.0829 -0.0242
    1W        W27368  19.466  15.029   3.769  0.0312 -0.1707  0.3305
    1W        W27369   8.808  24.570   0.160  0.2560 -0.1917 -0.1257
    1W        W27370  16.778  26.419   6.888 -0.1613  0.1790 -0.1353
    1W        W27371   5.605   3.965   7.888  0.1453  0.0166  0.1267
    1W        W27372  27.574  13.125   0.178  0.0282 -0.1261 -0.1455
    1W        W27373  13.349   5.432   1.308 -0.1167 -0.0885 -0.3590
    1W        W27374   2.798  13.457   7.130  0.1439 -0.1693 -0.1224
    1W        W27375   7.703  20.751   7.689  0.0710 -0.0322 -0.1566
    1W        W27376  19.366   2.276   9.389  0.0979  0.0033 -0.1870
    1W        W27377  18.750  20.321   7.676  0.0250 -0.1612 -0.2534
    1W        W27378  13.026   6.455   2.912  0.2640 -0.2381  0.3455
    1W        W27379   8.351  25.686   1.843  0.2207  0.3124 -0.1793
    1W        W27380  21.870   3.599  10.228  0.0173 -0.0520  0.1480
    1W        W27381   1.118  16.674   3.006  0.1297  0.1869  0.0748
    1W        W27382   9.180  20.767   2.929  0.0204  0.0649  0.1116
    1W        W27383  11.266  15.581   9.376 -0.1521  0.0460 -0.0475
    1W        W27384  22.613  21.760   1.243  0.1444 -0.0330 -0.1072
    1W        W27385  13.380   7.888   2.980  0.0786  0.0970 -0.1085
    1W        W27386  22.936  22.612   7.323  0.1297 -0.0135 -0.3453
    1W        W27387   7.769   8.179   1.376 -0.0747  0.1169  0.1337
    1W        W27388  24.298  13.564   8.117  0.3397 -0.1468 -0.1237
    1W        W27389  14.735  11.318   2.537  0.1795 -0.0862 -0.1057
    1W        W27390  10.185  16.793   2.344 -0.0282  0.1209  0.0285
    1W        W27391  20.409  24.028   9.225  0.0123  0.2749  0.1360
    1W        W27392   1.380   3.960   8.121  0.1466  0.2222 -0.0878
    1W        W27393  24.567   0.320   3.049  0.0285 -0.0214 -0.2144
    1W        W27394  24.090   7.753   0.463  0.1326  0.0327  0.0861
    1W        W27395   1.265  11.170   0.187  0.0557 -0.0733  0.2988
    1W        W27396   0.911   1.215   1.331  0.1922 -0.3671  0.0674
    1W        W27397   2.179   8.319   1.056 -0.1499  0.2348 -0.0899
    1W        W27398  28.117  19.301   8.932  0.1867  0.0852 -0.1038
    1W        W27399  27.388   2.995   7.275 -0.1305 -0.1384  0.0101
    1W        W27400  24.576   8.118   7.079  0.3561 -0.1036 -0.3525
    1W        W27401   6.138   4.601   8.562 -0.0390 -0.1195 -0.4090
    1W        W27402  24.912  24.746   9.547 -0.1582 -0.1880 -0.0042
    1W        W27403   2.626  21.242   1.155  0.2599  0.0759 -0.0061
    1W        W27404  14.699  27.385   8.316 -0.0269  0.3322 -0.1812
    1W        W27405  27.710  12.056   8.589 -0.0472  0.2213  0.0453
    1W        W27406   8.439   1.315   7.170 -0.0277  0.3133 -0.0469
    1W        W27407  14.805  15.373   2.849 -0.2712  0.0295 -0.1361
    1W        W27408  19.082   9.466   7.740 -0.1682  0.0540 -0.1271
    1W        W27409   4.090   9.790   6.838 -0.0689  0.0284  0.0049
    1W        W27410  19.494  10.659   8.719  0.0065  0.0755 -0.0929
    1W        W27411  15.809  16.180   9.122  0.2139 -0.1597  0.1449
    1W        W27412  19.335  15.993   3.840  0.2930 -0.1895  0.4567
    1W        W27413  21.917  15.275   8.121  0.2932 -0.2317 -0.2211
    1W        W27414  13.371   4.196   9.127  0.2151 -0.1317  0.0105
    1W        W27415   6.437  12.921  10.344  0.2477 -0.0346  0.1313
    1W        W27416  19.553  25.657   9.087 -0.4864 -0.1086 -0.1871
    1W        W27417  23.974  25.915   8.009 -0.0944  0.2371  0.2812
    1W        W27418  18.098  25.333   7.440 -0.1531 -0.1933  0.1817
    1W        W27419   0.471  25.344   2.743  0.0205  0.0070  0.1791
    1W        W27420   5.226   0.037   0.477  0.0046 -0.2874  0.1631
    1W        W27421  15.223   9.105   7.365 -0.3434  0.2606  0.2086
    1W        W27422  11.080  13.336   0.699  0.0012 -0.3238 -0.0624
    1W        W27423  21.659   8.828   8.778 -0.0835  0.0600 -0.0789
    1W        W27424  21.406   8.258   2.114 -0.0914 -0.4190  0.0506
    1W        W27425  26.736  20.489   0.843 -0.0588  0.1433  0.0628
    1W        W27426   9.566  18.102   8.292  0.0143 -0.3661 -0.2059
    1W        W27427   5.418   6.688   7.168 -0.2081 -0.1558 -0.3225
    1W        W27428  16.400  11.225   2.432  0.0464  0.1195 -0.0665
    1W        W27429  21.047  20.824   9.634  0.1428 -0.2342 -0.0787
    1W        W27430  19.733  25.434  10.134  0.0361  0.0775  0.0931
    1W        W27431  22.855   0.667   9.068 -0.0243 -0.0015 -0.1315
    1W        W27432   9.387  18.965   8.483  0.3447  0.0701 -0.4019
    1W        W27433  12.620  18.593   0.180  0.0561 -0.0155  0.2668
    1W        W27434  24.855  18.611   6.586 -0.2025 -0.4645 -0.2461
    1W        W27435   5.917   5.529   2.630 -0.0117 -0.2686  0.0885
    1W        W27436  21.962  24.438   1.736  0.0235  0.0180 -0.4803
    1W        W27437   9.137  25.091   1.509  0.0157  0.1849  0.0860
    1W        W27438  22.771   0.133   3.189 -0.2958 -0.0980  0.0044
    1W        W27439  22.996  17.195   8.026 -0.1899  0.1184 -0.2836
    1W        W27440  15.888   6.808   8.952 -0.3160 -0.3656  0.2197
    1W        W27441  19.217  13.706  10.120 -0.0264  0.3402 -0.2491
    1W        W27442  25.021  14.669   8.835  0.3858 -0.0764  0.0424
    1W        W27443   7.223   1.991   1.410  0.0352  0.0015  0.3700
    1W        W27444  14.825  12.012   2.539 -0.0856 -0.0565  0.2413
    1W        W27445   4.191   8.691   1.369 -0.0249 -0.2216  0.1635
    1W        W27446   6.804   9.626   3.091 -0.1711 -0.2269  0.2167
    1W        W27447  15.505   1.848   9.491 -0.2251  0.0823  0.0937
    1W        W27448   6.698  12.573   0.759 -0.1229 -0.2279 -0.0023
    1W        W27449   4.736  14.010   0.100 -0.0587  0.1289 -0.0772
    1W        W27450  18.829  21.224   8.326 -0.2808  0.3061 -0.1354
    1W        W27451   2.388  13.329   1.491 -0.2018 -0.0158 -0.1388
    1W        W27452  11.083  11.557   1.267 -0.1734  0.1780 -0.0011
    1W        W27453  27.020  17.127   6.507  0.0380  0.0717  0.1145
    1W        W27454  20.558  19.507   0.451 -0.0150 -0.1377 -0.0371
    1W        W27455   4.509   4.970   0.992  0.0105  0.2836  0.0895
    1W        W27456  17.092   6.447   7.520 -0.1132  0.1710  0.1653
    1W        W27457  12.685   3.335  10.319 -0.2793  0.0996 -0.3746
    1W        W27458  11.021  15.943   9.092 -0.0317  0.1438  0.0331
    1W        W27459  27.462  20.165   0.488  0.0482 -0.2516  0.1663
    1W        W27460  25.768  24.963   0.347  0.1641  0.0447 -0.0084
    1W        W27461   2.350   6.933   8.356  0.1863 -0.2165  0.1052
    1W        W27462  24.123  16.432   9.098  0.0816  0.3264  0.1703
    1W        W27463  17.877  27.037   9.521  0.1033  0.0552  0.0728
    1W        W27464   7.478  16.103   0.130 -0.1704 -0.1390  0.0354
    1W        W27465  19.704  18.995   9.537 -0.3319  0.1805  0.2756
    1W        W27466  10.981  23.450   1.789 -0.2321 -0.0327  0.3797
    1W        W27467  21.964  24.314   9.297 -0.0119 -0.3547 -0.0601
    1W        W27468  16.187   4.289   8.764  0.1449 -0.0142  0.0156
    1W        W27469   7.499  25.633   7.613 -0.0197  0.1246  0.0973
    1W        W27470  15.099  17.334   7.635 -0.4186 -0.2749  0.2244
    1W        W27471   4.470   2.685   9.991  0.1145  0.0786  0.0792
    1W        W27472  24.843   6.422  10.195 -0.0736 -0.3664 -0.2378
    1W        W27473  17.570  27.082   2.967  0.0192 -0.1566  0.0514
    1W        W27474   1.799  19.574   7.193 -0.0079 -0.0286  0.0709
    1W        W27475  24.868  19.902   7.256 -0.2789 -0.1537  0.1151
    1W        W27476   4.798   4.181   1.708  0.2320 -0.1454 -0.2239
    1W        W27477   1.089   8.203   7.528 -0.2621 -0.0975 -0.0907
    1W        W27478  11.847  16.473   8.984  0.4533 -0.1457 -0.0494
    1W        W27479   7.092   8.798   9.610  0.0219 -0.0200  0.1002
    1W        W27480   9.650  14.396   3.131  0.2534  0.1214  0.3092
    1W        W27481  27.370  23.959   3.324 -0.4568  0.0506 -0.1416
    1W        W27482  24.275  19.056  10.047  0.3483  0.2459  0.0545
    1W        W27483  12.106   6.155   3.580  0.4309  0.0921 -0.0599
    1W        W27484   4.724  13.691   0.608 -0.3336 -0.1253  0.0934
    1W        W27485  13.183  21.328   9.510 -0.0617 -0.0639 -0.0041
    1W        W27486  16.960  26.066   0.012  0.1499  0.0765 -0.2717
    1W        W27487  22.665  12.646   2.282 -0.0505 -0.0497  0.0760
    1W        W27488   7.130   8.544   1.960 -0.2921 -0.3242  0.1764
    1W        W27489   6.501  25.432   9.480 -0.1773 -0.0574 -0.0655
    1W        W27490   8.161  20.280   8.147  0.2030  0.0971  0.1010
    1W        W27491   3.781  25.819  10.030  0.2080  0.2853 -0.1367
    1W        W27492   6.803  16.430   8.289 -0.0111 -0.1047  0.0432
    1W        W27493  12.323   0.023   9.594 -0.0222  0.1511 -0.2536
    1W        W27494  11.460   9.768   8.550 -0.0787  0.0282 -0.0128
    1W        W27495  26.544  14.967   1.246 -0.1523  0.2613 -0.3037
    1W        W27496   9.436   0.988   0.493  0.0923 -0.1652  0.2817
    1W        W27497  12.096  12.249   3.842 -0.0535  0.1204 -0.0116
    1W        W27498  22.482  14.081   9.784 -0.1919 -0.1573  0.1478
    1W        W27499  16.060  12.997   8.613  0.2864 -0.1957 -0.1759
    1W        W27500   9.666   3.092  10.293 -0.1232  0.1639 -0.1237
    1W        W27501   6.994   0.677   7.509  0.4331  0.1115  0.0337
    1W        W27502  12.017  17.010   2.825  0.1920  0.2269  0.1941
    1W        W27503  27.595   2.894   9.613 -0.0255  0.1867  0.2302
    1W        W27504  14.714  21.375   8.582 -0.1685 -0.1619  0.0156
    1W        W27505  21.321   2.988   8.920 -0.0909  0.0594 -0.0979
    1W        W27506  15.970  13.446   8.340  0.0505 -0.0900  0.2996
    1W        W27507  20.414  12.302   0.933  0.1142 -0.3652 -0.1359
    1W        W27508  14.174   1.878   0.034  0.0596  0.0296  0.0664
    1W        W27509   7.474   8.128   1.983 -0.1162  0.1836  0.1118
    1W        W27510   7.851  12.697   3.096 -0.1289  0.0584  0.1488
    1W        W27511  20.784   4.117   3.445  0.1695 -0.1093  0.2927
    1W        W27512  18.555  21.395   2.223  0.1445  0.0117  0.0884
    1W        W27513   4.673  18.017   8.074  0.0996  0.1418 -0.3076
    1W        W27514  16.432  25.692   6.853 -0.3185 -0.1827  0.1415
    1W        W27515  10.142   4.541   2.887  0.1476  0.0001 -0.0523
    1W        W27516  11.089   0.184   8.513 -0.0155 -0.0446  0.1805
    1W        W27517  14.021  26.614   8.860 -0.0628 -0.2236  0.1289
    1W        W27518  22.806  16.495  10.053  0.3661 -0.0224 -0.0642
    1W        W27519  22.524  12.443   9.234  0.4731  0.4385 -0.2284
    1W        W27520   6.793  28.076   9.540 -0.0463 -0.0778 -0.0605
    1W        W27521  16.194  26.481   8.138 -0.1609  0.1086  0.4550
    1W        W27522  20.749   4.043   8.440  0.0961  0.2500  0.1720
    1W        W27523   4.355  17.591   9.551  0.2711  0.1687 -0.1305
    1W        W27524  19.916   1.230   8.139 -0.3370 -0.1254 -0.0769
    1W        W27525   7.723  17.821   2.103 -0.1739 -0.2458  0.2597
    1W        W27526  13.498  26.525   8.890 -0.1386  0.0749  0.2766
    1W        W27527   9.323  20.440  10.199 -0.3472  0.0683  0.1872
    1W        W27528  26.338   5.687   7.087 -0.1614  0.2705 -0.3656
    1W        W27529  13.711  21.157   1.682 -0.0929 -0.1529  0.0870
    1W        W27530  25.746   6.015   8.129  0.0241  0.2323  0.0105
    1W        W27531  26.965  23.073   9.830  0.1557  0.1092  0.1469
    1W        W27532  22.529   4.873   3.105 -0.2834 -0.0103 -0.2183
    1W        W27533  11.515  11.960   0.548 -0.0981 -0.0764  0.0922
    1W        W27534   4.446   1.535   2.344 -0.0030  0.3067  0.1500
    1W        W27535  17.360  25.862   0.159  0.3273 -0.0930  0.0366
    1W        W27536  21.159   9.919   9.326  0.1431  0.0145  0.2814
    1W        W27537  13.492  19.214   9.100  0.0354 -0.5064  0.1361
    1W        W27538   9.692  11.368   8.244  0.0265 -0.2021 -0.1681
    1W        W27539   8.318  23.021   7.118 -0.0469  0.0539  0.2469
    1W        W27540  15.042  24.823   0.477  0.2779 -0.1611  0.2048
    1W        W27541  17.075  21.675   6.774 -0.0656  0.0625  0.0619
    1W        W27542  21.666  13.033   6.836  0.0093  0.1466 -0.0047
    1W        W27543  22.599  20.360   7.829  0.0425  0.1858 -0.1229
    1W        W27544  21.490  21.958   0.109  0.0432  0.0427 -0.0362
    1W        W27545  11.066  21.996   8.285 -0.2919 -0.0433 -0.0716
    1W        W27546  21.332  21.733   2.682 -0.1560 -0.1642 -0.0333
    1W        W27547   9.304  17.177   8.043 -0.2907  0.1777 -0.3814
    1W        W27548   3.374   2.368   7.795 -0.1607 -0.2374 -0.1207
    1W        W27549  21.771   9.562   3.534 -0.1170 -0.0894  0.0523
    1W        W27550  12.530  16.144   2.440 -0.0492 -0.1458 -0.2826
    1W        W27551   1.622  26.939   7.394  0.3568 -0.1896 -0.0538
    1W        W27552  13.589  18.360   8.580 -0.2468 -0.1623 -0.1239
    1W        W27553  25.308   9.805   8.687  0.1712  0.0843 -0.1757
    1W        W27554   1.580  12.871   0.643  0.1491 -0.2029 -0.4550
    1W        W27555  20.670  26.157   1.238 -0.1106  0.1673 -0.1512
    1W        W27556  21.439   8.977   7.800 -0.2426  0.2859 -0.1046
    1W        W27557   7.248  23.253   0.254  0.0351 -0.1692  0.3870
    1W        W27558  15.220   9.769   8.254  0.2479 -0.1372  0.2921
    1W        W27559  14.437  18.687   1.202  0.1965  0.2768 -0.0739
    1W        W27560  22.029   4.747   2.900  0.3577  0.0494 -0.3700
    1W        W27561  13.210   3.394  10.324  0.0165  0.0538 -0.1441
    1W        W27562  19.890  24.122   0.984  0.0477  0.0116 -0.2910
    1W        W27563  26.931  22.794   8.259  0.0067 -0.0092 -0.0512
    1W        W27564   0.125   2.777   7.286 -0.0800  0.0035  0.0342
    1W        W27565  26.914  17.497   2.112  0.0384  0.0088  0.1635
    1W        W27566  12.997   7.199   0.957  0.0689 -0.3699 -0.2201
    1W        W27567  24.896  11.994   0.347  0.3035 -0.0172 -0.0336
    1W        W27568   4.431  22.540   0.274  0.1898  0.2315 -0.0002
    1W        W27569  23.397   6.310   1.974  0.1590  0.1292  0.1453
    1W        W27570  12.272  22.965   2.232  0.1020 -0.5913 -0.2742
    1W        W27571  25.176  12.914   1.444  0.3616 -0.0459  0.0674
    1W        W27572  16.795   4.355   3.105 -0.0344 -0.0174 -0.2546
    1W        W27573   3.515  19.732   0.498  0.1409  0.2199 -0.0154
    1W        W27574  11.530  13.559   0.393 -0.1055 -0.0895  0.1437
    1W        W27575  13.090   1.739   8.193 -0.0268  0.3134 -0.1878
    1W        W27576   4.923  17.062   9.991  0.0789  0.0759 -0.1238
    1W        W27577  16.558  26.077   8.472 -0.2309  0.1145  0.2151
    1W        W27578   4.871   0.648   7.259  0.0683 -0.2861 -0.0603
    1W        W27579   8.843  22.396   2.770 -0.1347  0.2056  0.0234
    1W        W27580   9.916  19.272   8.274  0.2372 -0.3000  0.1194
    1W        W27581  22.480   9.365   8.040 -0.0247 -0.0429  0.2259
    1W        W27582   8.074   6.858   8.983  0.0509  0.0842 -0.1050
    1W        W27583   0.562   8.296   7.764 -0.0572  0.2990  0.2225
    1W        W27584  17.540  17.127   8.947 -0.0240  0.0569 -0.1627
    1W        W27585  26.661  13.380   1.065 -0.0284 -0.3670 -0.0727
    1W        W27586   0.792  22.426   6.527 -0.0421 -0.0723 -0.0900
    1W        W27587  16.724   0.500   9.084 -0.0086  0.0688  0.1210
    1W        W27588   5.450  17.148   8.444  0.1280 -0.0084  0.0485
    1W        W27589  27.062   4.948   8.665  0.2213 -0.2009  0.0058
    1W        W27590  15.126  22.430   9.095 -0.2104 -0.0886 -0.3302
    1W        W27591  27.505  18.417   1.119 -0.0176 -0.0433  0.1469
    1W        W27592  26.113  16.394   6.915  0.2783 -0.3095 -0.0306
    1W        W27593   4.563  10.248  10.146 -0.0070  0.0493 -0.1017
    1W        W27594   3.630  13.531   9.637 -0.2183 -0.2835 -0.1867
    1W        W27595   2.464  23.804   1.226 -0.2003 -0.3813 -0.2026
    1W        W27596   5.851  11.916   9.969 -0.1142  0.2366  0.0271
    1W        W27597  16.958   8.112   8.859  0.0252  0.3437  0.1126
    1W        W27598   2.056  17.440   8.301 -0.2099  0.1832  0.1783
    1W        W27599  23.856   8.402   7.627  0.0367 -0.0609  0.0212
    1W        W27600  16.111  20.390   2.686  0.0234  0.3830  0.0325
    1W        W27601   0.089   1.988   2.206 -0.2492 -0.0406  0.1165
    1W        W27602  11.677  23.953   1.519  0.1965 -0.1671  0.1403
    1W        W27603   0.668   6.458   6.828  0.0465  0.0853 -0.4145
    1W        W27604  13.292  17.450   0.870  0.2176 -0.0916 -0.2753
    1W        W27605  19.262   7.981   0.230  0.2388  0.0298  0.0361
    1W        W27606  23.898  10.985   7.610 -0.0076 -0.2763 -0.2531
    1W        W27607  15.210   1.536   2.307 -0.1869  0.0525  0.2395
    1W        W27608  19.417  20.928   3.703  0.0737 -0.2021 -0.2412
    1W        W27609  20.994  18.507   9.869 -0.1256  0.2548  0.3538
    1W        W27610   0.257  27.806   1.435  0.0262 -0.1557  0.0574
    1W        W27611  24.107   6.629   1.307  0.1734  0.1352  0.0433
    1W        W27612  18.847   6.303   0.120  0.4093  0.2715  0.0817
    1W        W27613  15.581  23.873   7.557  0.0318  0.0256  0.0244
    1W        W27614  14.057   5.241   1.030  0.0197 -0.1549  0.1652
    1W        W27615   5.131  21.265   1.041 -0.0017  0.0616  0.0194
    1W        W27616  18.408  26.178   9.248 -0.0469 -0.1168 -0.0703
    1W        W27617   3.542  27.159   7.977  0.1046  0.2146 -0.1504
    1W        W27618  22.835  17.455   8.943  0.0253 -0.0520 -0.0675
    1W        W27619  24.858  21.352   9.280  0.3115  0.0870 -0.0748
    1W        W27620  15.078  21.564   9.966  0.0768  0.0843 -0.0100
    1W        W27621  10.488   7.381   0.810 -0.0088 -0.2105 -0.1373
    1W        W27622  22.520   8.933   3.198  0.0142  0.0434  0.1021
    1W        W27623  17.047   3.559   2.967  0.0573 -0.2543  0.0761
    1W        W27624  24.028  17.794   7.865 -0.0230  0.1325 -0.1380
    1W        W27625   9.461  10.527   3.056  0.1290  0.0932  0.0250
    1W        W27626  21.609  17.791   7.443 -0.0072 -0.0732 -0.3440
    1W        W27627  19.015  27.633   0.076  0.1177 -0.0094  0.0378
    1W        W27628   0.597  10.359   6.810  0.0009 -0.2156  0.0025
    1W        W27629  16.080  20.116   9.452  0.1563  0.1356  0.1295
    1W        W27630   3.863  24.670   0.915 -0.1297 -0.3835  0.0949
    1W        W27631  21.497   5.547   7.132  0.2658 -0.0511  0.0363
    1W        W27632   0.692   9.474   8.157  0.1046  0.0797  0.0744
    1W        W27633   2.874  18.272   2.683 -0.0529  0.2003  0.2411
    1W        W27634  18.609  11.791   0.086  0.2563  0.0220 -0.3167
    1W        W27635   6.567   4.225   9.937  0.1783  0.3052 -0.1000
    1W        W27636  23.165  12.410   2.892  0.2468 -0.0120  0.3125
    1W        W27637  20.289  15.111   7.578  0.0260 -0.1222  0.0537
    1W        W27638  25.219  20.939   9.393  0.0975  0.2197 -0.4904
    1W        W27639  10.564   2.454   2.184  0.2705 -0.1243  0.1376
    1W        W27640  14.955  23.420   7.477  0.0719 -0.0397  0.0685
    1W        W27641  23.897   6.986   7.607 -0.1556 -0.2029 -0.2580
    1W        W27642   3.051  19.200   8.183  0.0640 -0.1644  0.3096
    1W        W27643  17.658  16.712   8.668  0.2084  0.1620 -0.4656
    1W        W27644   7.330   9.816   9.500  0.0069 -0.1944  0.1954
    1W        W27645   3.624  14.915   0.839  0.2247  0.0248 -0.3268
    1W        W27646   0.672  13.402   1.298  0.1039  0.2039  0.2321
    1W        W27647  10.441  11.492   9.455  0.1207  0.1294 -0.1723
    1W        W27648  23.743  11.455   7.670 -0.1455  0.0993 -0.0205
    1W        W27649   9.533  20.129   1.210  0.1392 -0.2765  0.0537
    1W        W27650  22.064  11.014   9.713  0.0469 -0.0378 -0.1484
    1W        W27651   8.418   5.719   2.257 -0.0450  0.4133  0.2046
    1W        W27652  20.165  19.800   8.314 -0.1826  0.3005  0.2894
    1W        W27653   0.509  25.889   1.512 -0.0749 -0.2263 -0.2857
    1W        W27654  22.660  21.328   0.813 -0.1021 -0.2038  0.1744
    1W        W27655  22.498  12.896   8.779 -0.1185  0.2631 -0.2686
    1W        W27656  10.636   1.604   3.595 -0.1124  0.0627 -0.0714
    1W        W27657  17.329  14.718   8.288 -0.1191 -0.1820 -0.0227
    1W        W27658  17.273   7.284   2.450 -0.0776 -0.0545 -0.2231
    1W        W27659  21.599  24.589   1.400  0.1441  0.3870 -0.1529
    1W        W27660  11.519   1.108   3.438 -0.1130  0.0249 -0.0880
    1W        W27661  11.762  14.269   8.578 -0.0301 -0.0484 -0.0414
    1W        W27662  27.408  19.351   7.012  0.0544  0.0290  0.2778
    1W        W27663   3.533  12.212   1.231 -0.0910  0.0941  0.1197
    1W        W27664  21.553  19.307   0.950  0.0434  0.1912 -0.1476
    1W        W27665  13.496   2.084   3.740 -0.1488 -0.3940 -0.1793
    1W        W27666  24.472   4.677   7.492 -0.0617  0.0741  0.0368
    1W        W27667  15.106  17.462   2.672  0.3355  0.3337  0.2498
    1W        W27668   2.640  10.593   0.594  0.0569  0.2073 -0.4303
    1W        W27669  21.576  21.731   8.300 -0.0314 -0.2683  0.0411
    1W        W27670  15.122  18.253   0.055 -0.1367 -0.1730 -0.1413
    1W        W27671  13.292  11.015   8.358  0.1239  0.0303  0.0041
    1W        W27672   1.823  20.512   1.231 -0.3542 -0.0045 -0.0674
    1W        W27673  13.706  26.364   1.272  0.2581  0.1351  0.0956
    1W        W27674  17.130   4.489   2.689  0.2971 -0.0335 -0.3191
    1W        W27675   2.429  15.919   0.116 -0.0889 -0.0784  0.0344
    1W        W27676  22.612  22.527   8.992  0.2316 -0.0254  0.0092
    1W        W27677   0.435   9.373   1.653  0.3668 -0.0377 -0.1681
    1W        W27678   7.485   7.796   7.297  0.3968 -0.0638 -0.0247
    1W        W27679  13.113  14.806   1.040 -0.0409  0.1058 -0.0839
    1W        W27680  23.325  14.363   8.080  0.1642 -0.3916  0.3568
    1W        W27681  19.662   3.113   7.970  0.2294  0.3616 -0.2827
    1W        W27682  27.064  25.802   0.789 -0.1494  0.3972  0.3040
    1W        W27683  15.225  19.700   7.827  0.1221 -0.1940 -0.1451
    1W        W27684  20.456   7.713   9.922 -0.0337  0.3454  0.2075
    1W        W27685  25.230   8.491   0.905  0.2434  0.0272  0.0510
    1W        W27686   9.083   0.367   8.982 -0.2596 -0.1923  0.1020
    1W        W27687  22.024  15.539   9.101  0.0264 -0.3824 -0.1564
    1W        W27688  19.491   5.513   0.157  0.2621  0.0461  0.2702
    1W        W27689   0.324   7.766  10.034 -0.0644 -0.1043 -0.0483
    1W        W27690   0.393  12.963   9.679  0.2805 -0.1737  0.1408
    1W        W27691  21.147  23.417   8.790 -0.0544  0.0526  0.3064
    1W        W27692  12.130  18.482   1.493 -0.0544 -0.0722 -0.0392
    1W        W27693  23.843  23.905   1.442  0.0661  0.1381  0.1685
    1W        W27694  26.369  11.597   2.297  0.0917  0.0082 -0.4460
    1W        W27695   0.987   9.762   8.515  0.1393  0.4635  0.0655
    1W        W27696  23.226   9.904   0.158 -0.0010  0.1875 -0.1385
    1W        W27697   2.446  19.922   0.927 -0.0229 -0.2562 -0.2077
    1W        W27698   6.322  25.355   0.077  0.0091 -0.1094 -0.2316
    1W        W27699  17.206  25.697   8.076  0.0747 -0.2273  0.0198
    1W        W27700   4.584  22.410   9.375  0.2406 -0.1021 -0.2012
    1W        W27701  27.474  17.055   7.875 -0.2776 -0.2862  0.0127
    1W        W27702  11.117  15.387   2.358 -0.0042  0.1079  0.0948
    1W        W27703  24.783   0.795   7.611 -0.1783 -0.1793  0.0810
    1W        W27704  21.305  16.150   2.442 -0.0316 -0.3337  0.2595
    1W        W27705  23.415   8.767   0.102 -0.0706 -0.0731  0.0717
    1W        W27706   1.219  21.705   6.784  0.0198 -0.1988  0.0877
    1W        W27707  18.714  13.873   1.364 -0.1104 -0.1741 -0.1359
    1W        W27708  18.189  18.963   7.093  0.0415 -0.1181 -0.1436
    1W        W27709  20.614   8.121   7.030 -0.2962 -0.0135  0.3063
    1W        W27710  18.970  22.986   7.997 -0.0078  0.2306  0.0111
    1W        W27711   4.796  20.259   1.023 -0.1757 -0.2498  0.0689
    1W        W27712   1.577  27.062   6.403  0.0242  0.0680 -0.1374
    1W        W27713  25.381  24.664   9.355 -0.1431  0.1296  0.2084
    1W        W27714  26.624  13.762   2.255  0.3576  0.2563  0.0257
    1W        W27715  12.041   4.250   3.034  0.1511  0.2226  0.2708
    1W        W27716  15.701   9.228   7.933 -0.1595  0.1598 -0.0292
    1W        W27717   4.552   4.180   1.299 -0.3334 -0.2604 -0.1169
    1W        W27718  12.533   6.498   3.205  0.0605  0.0668  0.2155
    1W        W27719  27.497   7.272   9.475  0.0085  0.1236 -0.1617
    1W        W27720  27.427  14.810   9.756  0.0031 -0.0380  0.0996
    1W        W27721  15.515  25.223   1.737  0.3371  0.2460  0.2445
    1W        W27722   4.746  12.786   1.371  0.2347  0.1565 -0.1217
    1W        W27723  15.045  21.053   8.247  0.0577 -0.0672 -0.1534
    1W        W27724   3.376  20.938   9.573  0.2157  0.3038  0.0604
    1W        W27725  22.815   3.381   6.679 -0.2065  0.0744  0.2779
    1W        W27726   9.709  16.420   1.701  0.3260  0.1656 -0.1181
    1W        W27727  10.346   4.951   1.904  0.0333  0.2405 -0.0259
    1W        W27728  26.827  20.566   7.284 -0.3528  0.0924  0.3964
    1W        W27729  27.483  25.141   9.372 -0.2697 -0.1853  0.0160
    1W        W27730  13.814   3.190   1.760 -0.0301 -0.2934 -0.1600
    1W        W27731   0.619   7.127   9.419 -0.1945 -0.1493 -0.4697
    1W        W27732  16.060  21.097   0.360  0.0290  0.4609  0.0550
    1W        W27733   4.355   7.487   7.082  0.1245 -0.0662 -0.1622
    1W        W27734  25.399   2.860   9.186  0.2895  0.2025 -0.0761
    1W        W27735  25.249  10.083   1.599 -0.1348 -0.2633  0.1547
    1W        W27736  11.945  27.074   1.799  0.1231  0.0353 -0.1597
    1W        W27737  23.209   4.960   1.672 -0.2255  0.2247 -0.1000
    1W        W27738   5.534   0.207   9.288 -0.2754  0.1236  0.2521
    1W        W27739  15.776  11.053   1.775  0.1260 -0.0143 -0.4343
    1W        W27740  18.953   5.861   8.878  0.1070 -0.1520 -0.1805
    1W        W27741   1.719  24.943   7.491 -0.1547 -0.0821 -0.0540
    1W        W27742   8.750  23.728   0.681 -0.1401  0.0154  0.0263
    1W        W27743  23.789   4.648   2.487  0.1010  0.0657  0.0205
    1W        W27744  21.911  20.228   0.276 -0.0602  0.1099  0.0812
    1W        W27745   1.919   6.499   9.068  0.1747  0.1437 -0.1832
    1W        W27746  24.834   4.704   7.059  0.0683 -0.1010  0.0814
    1W        W27747  13.478  14.662   8.168 -0.1243  0.2136 -0.3638
    1W        W27748  14.281  25.036   9.164 -0.0424 -0.0928  0.1525
    1W        W27749  25.578   9.414   8.849 -0.0097  0.0789  0.1689
    1W        W27750   8.027  17.305   1.957 -0.2021  0.0954  0.0757
    1W        W27751   2.326   3.372   0.265  0.0872  0.5254 -0.1742
    1W        W27752   4.252  20.927   0.189 -0.1060  0.4385  0.0369
    1W        W27753   4.676  10.680   1.135  0.0673 -0.4363  0.2937
    1W        W27754  13.103  17.233   8.620  0.1508  0.6451  0.0912
    1W        W27755  22.256   3.321   8.829 -0.0930  0.0846 -0.1401
    1W        W27756   5.729  13.711  10.041  0.3232  0.1547  0.0832
    1W        W27757  21.450  25.201   3.063 -0.1023  0.0147 -0.1890
    1W        W27758  16.824   8.947   8.387  0.2533  0.0626 -0.0666
    1W        W27759   7.852  18.890   1.120  0.2080 -0.0120  0.2679
    1W        W27760  12.526  19.215   0.947 -0.0530 -0.0317  0.2417
    1W        W27761   2.866  17.322   1.332 -0.2706 -0.0523 -0.2165
    1W        W27762  19.925  17.530   8.693 -0.1147  0.2232 -0.1316
    1W        W27763  22.561   4.853   9.230 -0.1259 -0.0010  0.3731
    1W        W27764  16.225  18.932   8.545 -0.1272  0.2418  0.1958
    1W        W27765  15.656   4.739   1.244 -0.1537  0.0626 -0.0805
    1W        W27766   8.571  10.485   0.443 -0.1801 -0.1250 -0.0132
    1W        W27767   9.078  25.735   7.279 -0.1119 -0.0029  0.1744
    1W        W27768   6.579   3.159   7.349 -0.0245  0.1471  0.1526
    1W        W27769  23.445  17.440   9.571 -0.0194 -0.2085  0.0483
    1W        W27770   3.642  21.310   1.522  0.1042 -0.1407  0.1577
    1W        W27771   0.615  21.857   7.036  0.1619  0.0119  0.0580
    1W        W27772  14.808  16.155   9.091 -0.0345 -0.1370  0.2717
    1W        W27773   4.869  16.415   1.797 -0.0131 -0.0899  0.2061
    1W        W27774  23.234   3.376   0.432 -0.0767 -0.3154  0.1136
    1W        W27775   1.605  11.468  10.325  0.0194 -0.0796  0.0669
    1W        W27776  21.524   7.464   8.482  0.0057 -0.2238  0.0640
    1W        W27777  21.871   2.429   8.991  0.0867  0.3017 -0.2518
    1W        W27778  11.021   6.557   0.732 -0.0019 -0.0499 -0.0888
    1W        W27779  25.536  26.356  10.293  0.1554  0.2601 -0.1423
    1W        W27780   3.786  21.792   8.433  0.1102 -0.2869 -0.3116
    1W        W27781  12.671  11.576   2.941 -0.1292 -0.0348  0.1794
    1W        W27782  21.455  13.016   9.694 -0.0234 -0.3202  0.0133
    1W        W27783  23.293   4.533   0.791  0.0158  0.0921  0.1684
    1W        W27784   2.292   0.163   1.746  0.0027  0.2221 -0.1524
    1W        W27785   2.117   5.313   1.694 -0.0398  0.1350 -0.0928
    1W        W27786  23.469   3.997   1.728 -0.1402  0.3484  0.4376
    1W        W27787   2.398   5.781   0.380 -0.0082 -0.0316  0.1662
    1W        W27788  27.900  24.293   6.244  0.0684  0.4022 -0.1444
    1W        W27789   9.159   3.562   1.008 -0.1075  0.2523  0.1798
    1W        W27790   5.415  22.907   9.094 -0.1222 -0.3280 -0.2600
    1W        W27791   7.441   4.616   9.774  0.2368 -0.0980  0.1240
    1W        W27792  10.213  10.078   7.945  0.1649  0.0984 -0.1227
    1W        W27793  26.572  19.314   7.842  0.1220  0.1115  0.3225
    1W        W27794   8.995  14.352   9.024  0.2017  0.0305  0.0138
    1W        W27795  14.653  26.122   8.961 -0.0596 -0.0485 -0.0408
    1W        W27796  11.720  15.729   4.114  0.1475  0.2106  0.0163
    1W        W27797  23.586   8.643   2.574 -0.0174 -0.0740 -0.0366
    1W        W27798  18.261  13.722   9.091 -0.1938 -0.1045 -0.0551
    1W        W27799  26.619   5.204   8.756 -0.0318 -0.0526  0.1321
    1W        W27800   7.149  27.703   2.027 -0.0415  0.2503 -0.1370
    1W        W27801   8.978  23.710   2.169  0.0226 -0.0583 -0.2388
    1W        W27802  19.897  17.398   7.219 -0.1248 -0.0116 -0.1890
    1W        W27803  11.652  14.037   2.375 -0.0227  0.2296  0.0164
    1W        W27804  11.315  27.215   6.466 -0.0621  0.1628  0.0607
    1W        W27805  19.332   2.541   0.872 -0.2088  0.1125  0.1923
    1W        W27806  20.327  15.152   9.811 -0.0230  0.1842  0.0734
    1W        W27807  15.917   9.828   3.083 -0.0893  0.0414  0.0752
    1W        W27808   4.900   3.466   7.752  0.1357  0.1726 -0.0300
    1W        W27809   1.802  17.612   0.337  0.0869  0.0698  0.0573
    1W        W27810  25.557  10.732   9.554 -0.1256 -0.1222  0.3249
    1W        W27811   5.163   3.161   8.065 -0.0870 -0.0723  0.1815
    1W        W27812   0.538  16.859  10.067  0.0636 -0.3192  0.0499
    1W        W27813  23.081  19.599   2.117 -0.1395 -0.1069 -0.2390
    1W        W27814   0.890   3.033   0.529  0.2295  0.1083  0.1744
    1W        W27815  25.762  25.133   0.912 -0.3309 -0.0293  0.3807
    1W        W27816   3.435  12.165   9.263  0.1043  0.1420 -0.2254
    1W        W27817  21.333   8.436   0.443  0.2616  0.1701 -0.2380
    1W        W27818   6.046  11.648   9.177  0.1411 -0.1258 -0.0703
    1W        W27819   2.373   3.403   9.154 -0.1537 -0.0897  0.0649
    1W        W27820  27.492  14.027   0.493 -0.1808  0.1885  0.0746
    1W        W27821   7.104   9.773   7.863 -0.2074  0.1908 -0.0954
    1W        W27822   6.109   1.075   2.010 -0.0683 -0.1397 -0.1179
    1W        W27823   3.383  15.311   8.006  0.0591 -0.0715 -0.1340
    1W        W27824   6.252  26.125   7.562  0.0015  0.3639  0.0188
    1W        W27825  22.675   5.973   7.721  0.0989  0.3988  0.3319
    1W        W27826   0.354   2.507   2.561 -0.0211  0.0421  0.0084
    1W        W27827  15.789  10.244   6.862 -0.2705 -0.1677  0.2239
    1W        W27828   1.897  15.896   9.427  0.1887  0.4101 -0.3473
    1W        W27829  24.064   3.819   1.642 -0.0562 -0.3413 -0.2658
    1W        W27830   0.859   5.774   8.877 -0.2852 -0.0516 -0.0954
    1W        W27831   9.601  11.834   9.731  0.1394 -0.0002  0.3021
    1W        W27832  12.446  25.738  10.026  0.3102  0.0301  0.4618
    1W        W27833   1.344   5.065   0.563 -0.1640 -0.0579 -0.2142
    1W        W27834  13.361  24.179   6.715  0.0490  0.0385  0.1697
    1W        W27835   2.496   8.491   8.395  0.0083 -0.1387  0.0235
    1W        W27836  13.347   4.169   1.014 -0.0669  0.1592  0.2847
    1W        W27837  17.077   6.986   0.707  0.0084 -0.1325  0.0487
    1W        W27838  15.668  21.860   2.217 -0.0408 -0.3653 -0.1354
    1W        W27839  21.747   3.276   2.538  0.1184  0.1155 -0.1207
    1W        W27840   1.748   6.686   8.155 -0.0490 -0.0434 -0.0964
    1W        W27841  18.146   5.597   9.163 -0.2324  0.3196  0.1991
    1W        W27842   7.302  19.904   2.832  0.0792  0.0288 -0.2162
    1W        W27843   3.322  20.768   2.768  0.0448 -0.1382 -0.3720
    1W        W27844   2.058  19.277   9.847 -0.0872 -0.4137  0.0791
    1W        W27845  16.291   2.379   2.718  0.2580 -0.0834  0.1441
    1W        W27846   7.555   7.050   3.600 -0.2519 -0.1432  0.0016
    1W        W27847  20.272   8.436   2.090  0.1202  0.0119 -0.0799
    1W        W27848   3.934  12.046   9.255  0.2011 -0.1965 -0.3017
    1W        W27849  22.062  13.078   0.768 -0.2415  0.0822  0.1703
    1W        W27850  24.330   7.411   9.597 -0.0786  0.1487 -0.2162
    1W        W27851   0.086   8.764   9.040 -0.1034  0.1439  0.0465
    1W        W27852   3.574   1.557   6.968 -0.1167 -0.2352 -0.0420
    1W        W27853  12.142  17.554   2.801 -0.0415  0.1107  0.1936
    1W        W27854  20.615  16.453   8.392  0.1010 -0.4758  0.0284
    1W        W27855  17.018   3.660   9.588 -0.1290 -0.1144 -0.0961
    1W        W27856   3.720  11.840  10.326 -0.0473  0.1248  0.0859
    1W        W27857  12.239  12.817   2.156  0.1676 -0.0557 -0.0745
    1W        W27858   8.365  26.937   7.917  0.4263 -0.0960 -0.2334
    1W        W27859  12.820   8.631   2.759 -0.1901 -0.0372  0.2444
    1W        W27860  10.472  19.490   7.943 -0.0367 -0.2017 -0.0709
    1W        W27861   8.953  13.201   0.507 -0.3186  0.1769  0.2909
    1W        W27862   2.962  27.417   8.784  0.0513 -0.2726  0.2271
    1W        W27863  26.360   3.703   2.452  0.1487 -0.3376 -0.0794
    1W        W27864  14.344  26.714   2.459 -0.3550 -0.0951  0.2140
    1W        W27865  15.787  11.453   3.381 -0.1414  0.1610 -0.1130
    1W        W27866   9.099  16.705   2.622  0.0521 -0.1084  0.0074
    1W        W27867  14.402  13.212   9.712  0.1574  0.2797 -0.0233
    1W        W27868  20.565   5.667   7.824  0.1317 -0.3028  0.2600
    1W        W27869   0.405   8.167   1.304 -0.0112 -0.0285  0.2253
    1W        W27870   7.428  18.287   9.625 -0.1397 -0.0182 -0.0245
    1W        W27871  16.226  19.287   8.144 -0.0916 -0.0430 -0.0561
    1W        W27872  24.044  17.522   2.757  0.1929  0.0088  0.0290
    1W        W27873   7.225  16.991   7.580  0.3158 -0.2950  0.0458
    1W        W27874  13.008   4.740   8.384 -0.2016  0.0941 -0.0406
    1W        W27875   6.520  21.577   3.057 -0.2239  0.2022  0.0895
    1W        W27876   1.951   7.212   8.164 -0.0517  0.0656 -0.1489
    1W        W27877  22.192  12.939   3.017 -0.0926 -0.1014  0.0336
    1W        W27878  16.339   5.881   1.861  0.0612  0.0622 -0.0181
    1W        W27879   5.794  21.689   8.857  0.1411  0.0356 -0.0372
    1W        W27880  21.114   8.830   0.858  0.1799 -0.1316 -0.0433
    1W        W27881  10.918  20.932   1.968  0.0359 -0.2089  0.4882
    1W        W27882  12.288  24.278   2.738 -0.1604 -0.2918  0.1749
    1W        W27883  19.864  18.509   2.908  0.0197 -0.0418  0.2290
    1W        W27884   6.416  25.846   8.519 -0.1850 -0.0270 -0.0091
    1W        W27885  14.855  28.124   0.831  0.2055 -0.0193  0.1426
    1W        W27886  20.165  20.925   1.488  0.0116  0.2231  0.1073
    1W        W27887  21.882  25.520   0.250  0.2736  0.0961 -0.1371
    1W        W27888  27.005  26.441   1.635 -0.0525  0.0483  0.1637
    1W        W27889  23.998   3.885  10.363  0.1999 -0.0438 -0.2231
    1W        W27890  15.656  10.880   0.427  0.0252  0.0945 -0.0725
    1W        W27891  20.794  26.442   2.567 -0.2240  0.0889 -0.1209
    1W        W27892  25.704   2.446   0.245 -0.0180 -0.0449  0.0343
    1W        W27893   7.525  12.797   7.440 -0.0425 -0.2003 -0.0181
    1W        W27894  24.800  21.513  10.099  0.3425  0.2176  0.0333
    1W        W27895  10.558  22.012   8.224  0.3339 -0.2764  0.0322
    1W        W27896   0.893  26.405   9.048  0.0534  0.3094 -0.1066
    1W        W27897  19.120   8.398   8.990 -0.0506 -0.1031  0.1383
    1W        W27898   0.282   3.824   6.556 -0.1951  0.1684  0.3478
    1W        W27899  17.072  17.598   2.457  0.0472  0.0430 -0.0065
    1W        W27900  13.707  26.485   1.722  0.1442  0.1629 -0.4706
    1W        W27901  25.468  24.635   7.010 -0.0847  0.3053  0.1711
    1W        W27902  26.377   0.049   9.748  0.2902 -0.0233 -0.0169
    1W        W27903  25.643  11.702   2.260 -0.0733 -0.0219  0.0222
    1W        W27904   5.692  17.308   1.598 -0.1897  0.0005  0.0027
    1W        W27905  14.210  15.730   1.612 -0.1684  0.3499 -0.2196
    1W        W27906   7.832  10.418   1.267 -0.2756 -0.0440  0.2327
    1W        W27907  14.133  20.102   1.927 -0.1918  0.0162 -0.1033
    1W        W27908   3.064  19.169   2.533 -0.1693  0.0872  0.1780
    1W        W27909   0.469   5.585   2.402  0.0358  0.0778 -0.0309
    1W        W27910  24.186  24.491   6.430  0.3408 -0.3160 -0.2915
    1W        W27911  16.110  26.164  10.136 -0.1526  0.2003 -0.0183
    1W        W27912  27.197   6.102   7.753  0.0888 -0.2269  0.1958
    1W        W27913   7.203  25.578  10.159  0.0103 -0.0210  0.0153
    1W        W27914  21.823  11.101   2.425 -0.0633 -0.0704 -0.0809
    1W        W27915   7.630  10.442  10.301 -0.0209 -0.0621 -0.3489
    1W        W27916   5.815  22.014   0.238  0.0845 -0.0246  0.0481
    1W        W27917  16.078  13.889   0.472  0.0495 -0.0195  0.0368
    1W        W27918  26.237  14.588   1.492 -0.0519  0.2297 -0.2466
    1W        W27919  16.201   2.068   1.450 -0.0467  0.3400  0.0711
    1W        W27920  27.506  19.338   0.089  0.2395 -0.0233  0.1630
    1W        W27921  17.188  10.411   8.087  0.1727 -0.1247 -0.1241
    1W        W27922  17.432   0.546   8.359  0.2873  0.3445  0.0701
    1W        W27923  17.005  22.058   7.255  0.2340  0.0879  0.1380
    1W        W27924  13.256   3.505   8.675 -0.2394  0.0640 -0.1388
    1W        W27925  18.296   2.723   8.557 -0.0922  0.1279  0.0839
    1W        W27926  22.953  26.814   0.811 -0.0682 -0.2409  0.2346
    1W        W27927  17.270   8.982   0.434  0.3230  0.0201 -0.1605
    1W        W27928   1.358   1.760   6.736 -0.4323 -0.1267  0.2459
    1W        W27929   3.841   7.692   2.150  0.0641  0.2584  0.2618
    1W        W27930   7.467  17.468   9.123  0.0361  0.1103  0.2841
    1W        W27931  24.563   5.517   1.889  0.0470  0.0224  0.2151
    1W        W27932  14.843  26.767   9.935 -0.3027 -0.0564  0.1858
    1W        W27933  25.690  13.928   7.330  0.0601  0.0364 -0.0294
    1W        W27934   7.033  26.796   8.317  0.1615 -0.1858 -0.2804
    1W        W27935  12.820   7.218   8.366 -0.0371  0.0574 -0.1153
    1W        W27936   2.757   7.434   6.633  0.1379  0.1175 -0.2336
    1W        W27937  18.597  13.798   9.481  0.0500  0.0217  0.0762
    1W        W27938   8.937  19.047  10.131 -0.2568  0.2486 -0.2355
    1W        W27939  11.642  27.249   0.034  0.1356 -0.1459 -0.3930
    1W        W27940  25.068   6.060   0.972  0.1485 -0.1285 -0.3524
    1W        W27941  21.243  24.893   7.666  0.1923  0.0370  0.2335
    1W        W27942   9.550  24.066   7.004  0.3077 -0.0403 -0.0735
    1W        W27943   6.487   3.016   1.263  0.0527  0.0333  0.0067
    1W        W27944   4.360   2.656   9.469 -0.0994  0.1629  0.2713
    1W        W27945  18.911  25.801   7.296  0.1094 -0.0912  0.0180
    1W        W27946  11.909   1.726   8.295  0.0695  0.1267 -0.2412
    1W        W27947  27.756  23.057   1.362 -0.4725  0.2111 -0.2927
    1W        W27948  20.876   4.271   9.680 -0.3599 -0.1507 -0.2260
    1W        W27949  23.375  21.905   2.595 -0.0075 -0.1973 -0.1310
    1W        W27950   6.063  27.830   6.876 -0.0452  0.3281  0.0579
    1W        W27951  21.223  13.744   2.520 -0.1403  0.0329 -0.1846
    1W        W27952   3.057   9.232   7.227 -0.0539 -0.0777 -0.1099
    1W        W27953   6.297  22.155   0.405 -0.1199  0.2455  0.1150
    1W        W27954  21.403  10.830   2.565  0.1194  0.1486 -0.3057
    1W        W27955  19.073  26.158   8.981  0.0341 -0.1009 -0.2371
    1W        W27956  11.861   3.511   2.405  0.0964 -0.1255 -0.0703
    1W        W27957  17.441   1.633   9.924 -0.1101 -0.3208 -0.0421
    1W        W27958  26.204  26.692   9.943  0.1445  0.0925  0.0574
    1W        W27959  18.887  21.781   1.297 -0.0519  0.2984  0.1012
    1W        W27960  17.885  21.327   8.280  0.2245  0.0302  0.2030
    1W        W27961  15.886  14.677   9.664  0.0794  0.2101 -0.2824
    1W        W27962  10.498   5.660   2.125 -0.1073 -0.4678 -0.1792
    1W        W27963  11.257  10.229   7.806 -0.2676  0.0213  0.4724
    1W        W27964  11.618   4.458   8.203  0.3059  0.3318 -0.1336
    1W        W27965   8.443  28.047   7.398 -0.1109  0.0937 -0.2435
    1W        W27966  11.404   7.229   8.860 -0.1012 -0.2014  0.3636
    1W        W27967  18.623   3.082   8.419  0.1487 -0.1298  0.0081
    1W        W27968  13.684  14.362   9.021 -0.0607  0.0613  0.0552
    1W        W27969   3.128  25.249   9.729 -0.1248 -0.0460 -0.1190
    1W        W27970  22.024  20.046   0.708 -0.1720 -0.2547  0.3113
    1W        W27971  13.690  22.825   9.894  0.1234 -0.3764 -0.4260
    1W        W27972   0.144  12.299   8.476  0.0631  0.4518  0.0415
    1W        W27973  21.951   9.921   2.684 -0.1724  0.0496  0.0168
    1W        W27974  22.016  21.054   9.632 -0.0090  0.0429  0.0165
    1W        W27975   3.545   1.133   8.305  0.1150 -0.3937 -0.1085
    1W        W27976  11.369  26.585   8.570  0.0375  0.1946  0.3140
    1W        W27977  12.352  25.949   2.415 -0.1838 -0.0410  0.2331
    1W        W27978  27.245   1.419   9.884 -0.1036 -0.0543  0.0345
    1W        W27979  26.106   4.357   1.351 -0.2233 -0.1310  0.0301
    1W        W27980  21.127   1.258   0.833 -0.0809  0.1048 -0.0053
    1W        W27981  23.624  16.964   9.672  0.5555  0.0620 -0.2014
    1W        W27982   8.224  12.186   0.781 -0.0041 -0.0388  0.0941
    1W        W27983  15.942  23.204   2.767 -0.0011  0.0030  0.2097
    1W        W27984  12.702  22.660   0.508  0.0652  0.1815  0.0169
    1W        W27985   2.985   3.436   6.983  0.1505 -0.1096 -0.2922
    1W        W27986   0.318  15.525   6.914 -0.1888  0.3348  0.0246
    1W        W27987  15.114   9.844   2.821  0.0183  0.2040  0.0850
    1W        W27988  14.613  10.191   9.412 -0.3151 -0.0997 -0.2327
    1W        W27989  13.444   6.235   0.689  0.0313  0.0669  0.0742
    1W        W27990  15.866   8.539   2.212  0.2334  0.2010  0.0641
    1W        W27991  11.616  21.654   9.709 -0.1271  0.0032  0.0444
    1W        W27992  27.188  21.028   7.578  0.0077  0.4225 -0.3823
    1W        W27993  20.858   8.768   9.895 -0.0378 -0.3838  0.5006
    1W        W27994   7.859   3.308   0.793  0.3089  0.0015 -0.1751
    1W        W27995   8.920  10.099   9.382  0.3313 -0.1139  0.5541
    1W        W27996  26.924   0.092   6.576 -0.1516  0.2447 -0.1031
    1W        W27997  18.761  13.416   8.671  0.3666 -0.0493  0.0394
    1W        W27998   4.726   2.998   9.421  0.1182 -0.2031 -0.2237
    1W        W27999   6.952  21.812   2.653 -0.1731 -0.0227  0.1830
    1W        W28000   0.446  25.223   0.467 -0.1409 -0.0807 -0.1732
    1W        W28001   9.396   2.088   0.650 -0.0709  0.2538  0.0157
    1W        W28002   7.797  23.242   1.725  0.2838  0.0522 -0.0692
    1W        W28003  21.094  22.700   8.721 -0.0370  0.0825  0.1379
    1W        W28004  12.106   7.811   7.895  0.0303 -0.0168 -0.0701
    1W        W28005  18.032  17.466   8.983  0.1243 -0.1184 -0.0386
    1W        W28006   0.903   7.565   9.340 -0.0768  0.1585  0.0707
    1W        W28007   6.013   9.372   8.429 -0.1080 -0.1715  0.2337
    1W        W28008  12.009   5.317   0.707  0.1206 -0.1033 -0.2509
    1W        W28009   5.559  27.948   0.832  0.0731 -0.4515 -0.1005
    1W        W28010  25.287   2.395   9.390 -0.1990 -0.3402  0.0676
    1W        W28011  19.234   3.039   2.846  0.1054 -0.1635 -0.0547
    1W        W28012  13.727   6.252   1.221  0.1045 -0.0959  0.0982
    1W        W28013  19.255  21.059   8.210  0.5409  0.6230 -0.1583
    1W        W28014   6.449  23.704   2.338 -0.1041  0.1978  0.2902
    1W        W28015  18.875  27.765   8.164  0.3122  0.2133 -0.0827
    1W        W28016   4.208  21.203   9.184  0.3483  0.3314 -0.0744
    1W        W28017  10.365  24.143   9.265  0.0755  0.0626  0.3515
    1W        W28018   2.795   3.826   9.266 -0.0399 -0.0277  0.3001
    1W        W28019  21.179   7.122   8.254 -0.1721  0.1891 -0.4163
    1W        W28020  11.037  10.893   7.260 -0.0925 -0.0288  0.0937
    1W        W28021   9.295  15.947   8.179 -0.1358 -0.0297 -0.0992
    1W        W28022  20.738  22.828  10.355 -0.1034 -0.0352  0.0102
    1W        W28023  24.855  18.358  10.105 -0.0246 -0.1686 -0.2675
    1W        W28024   7.140   7.350   3.132  0.1608 -0.2546 -0.4109
    1W        W28025  16.383   5.215   2.215 -0.2241  0.0295 -0.0704
    1W        W28026  16.117  10.813   1.422 -0.0317 -0.0439  0.0654
    1W        W28027   3.031  19.187   9.185 -0.0508  0.3004  0.1531
    1W        W28028  27.878  15.501   7.015 -0.1171  0.0256 -0.0714
    1W        W28029   5.452  27.278   7.944  0.0473 -0.1321  0.0966
    1W        W28030  21.064  11.345  10.019  0.1716 -0.0908  0.0585
    1W        W28031   6.124   3.257   0.398  0.0074  0.0441  0.0961
    1W        W28032  14.678  12.970   2.656 -0.1620 -0.3797  0.0195
    1W        W28033  23.986  16.538   2.124 -0.0166 -0.2713  0.2927
    1W        W28034  24.852   4.010  10.081 -0.0944 -0.3014  0.0231
    1W        W28035   1.657  25.903   8.502  0.2571 -0.1241  0.0656
    1W        W28036   1.252  26.328   0.502  0.1226  0.1323  0.1950
    1W        W28037  12.730   2.202   1.513 -0.0919  0.0458  0.0525
    1W        W28038   3.468  18.018   1.335  0.0952 -0.1533 -0.0317
    1W        W28039  20.159  10.190   2.131  0.0561 -0.1037  0.2588
    1W        W28040   7.555  10.391   8.582 -0.0467  0.2997  0.1160
    1W        W28041  16.540  24.186   8.848 -0.0970 -0.2327 -0.5151
    1W        W28042   7.192   1.446   0.035 -0.5471 -0.0177 -0.1572
    1W        W28043   4.795  12.621   7.992  0.1469 -0.2309  0.0032
    1W        W28044   5.342  25.845   7.624 -0.0164  0.0604 -0.0209
    1W        W28045  15.836  22.078   8.482  0.0213  0.1605 -0.1165
    1W        W28046  16.231   3.168   8.505 -0.2051  0.1612  0.0578
    1W        W28047  27.600   4.255   0.512  0.1135  0.1260  0.0611
    1W        W28048  27.221  13.894   1.514 -0.4793  0.1245  0.0153
    1W        W28049  17.704   7.307   1.676  0.2362 -0.2069 -0.0922
    1W        W28050  15.882   5.805   8.012  0.1968  0.1369 -0.0689
    1W        W28051  13.863  12.940   3.202 -0.1359 -0.4745  0.0095
    1W        W28052   3.570  16.580   2.312  0.1560 -0.0565  0.1411
    1W        W28053  14.391  23.813   2.224  0.0486 -0.0337  0.2528
    1W        W28054  13.729  10.925   8.606  0.1945  0.2262  0.0468
    1W        W28055   2.854   7.772   9.111 -0.1216 -0.3013  0.0750
    1W        W28056  13.456   1.004   0.692 -0.1400 -0.0170  0.1826
    1W        W28057   2.555   3.586   0.734  0.3450  0.1888  0.1398
    1W        W28058  12.868  23.756   0.990 -0.0666 -0.0082 -0.3824
    1W        W28059   6.111  16.122   1.403  0.0287  0.1694 -0.2464
    1W        W28060  25.156   2.074   1.116 -0.0359 -0.1547 -0.1875
    1W        W28061  20.227  24.118   6.906  0.1393  0.2609 -0.2817
    1W        W28062  23.233   9.678   7.513  0.0518 -0.1752 -0.0311
    1W        W28063   5.117   9.540   2.669  0.0228  0.0164  0.1024
    1W        W28064  14.847  17.067   9.466  0.0895  0.0676 -0.2363
    1W        W28065   8.477  24.369   8.735 -0.0565 -0.3030 -0.0649
    1W        W28066  22.398  20.524   9.050  0.0583 -0.1565  0.0719
    1W        W28067  20.079  16.718   7.823 -0.0429  0.0056  0.2833
    1W        W28068   1.060   7.483   7.609  0.2367 -0.2401  0.1247
    1W        W28069   5.186   0.322   0.046  0.1253  0.1186 -0.1495
    1W        W28070   1.235  10.778   1.035  0.2344 -0.3007  0.0484
    1W        W28071   3.005   6.919   1.715 -0.0969  0.1951 -0.0152
    1W        W28072  21.265  12.579  10.121  0.1358 -0.1747 -0.1805
    1W        W28073  12.167  26.403   3.395 -0.0021 -0.0857  0.0145
    1W        W28074   6.690  15.880   6.992 -0.0876  0.3224  0.1966
    1W        W28075  15.088  19.761   7.380 -0.3010 -0.0182 -0.1154
    1W        W28076  13.996  10.736  10.351  0.0045  0.3498  0.1208
    1W        W28077   2.178  11.568   8.158  0.0701 -0.2034  0.0396
    1W        W28078   8.737   5.770   9.774  0.2215  0.0102  0.1527
    1W        W28079   3.109  11.706   2.294  0.0017  0.3646  0.2286
    1W        W28080  24.189   1.903   7.829  0.0573  0.1384 -0.2548
    1W        W28081  11.393   7.243   1.181  0.3432 -0.1689  0.0406
    1W        W28082   0.532  23.330   6.780  0.1116  0.2886 -0.0729
    1W        W28083  19.546  22.958   8.642  0.0666  0.1119  0.2476
    1W        W28084  12.028  26.932  10.238  0.0984 -0.0010  0.0622
    1W        W28085  27.538  18.510   2.915 -0.2092 -0.3893 -0.2234
    1W        W28086   1.328  13.350   0.423 -0.5067  0.2638  0.4268
    1W        W28087   2.157  22.861   1.180 -0.0524  0.2425  0.2163
    1W        W28088  15.648  26.343   0.896 -0.3372 -0.2589 -0.1102
    1W        W28089   0.781  18.462   0.079  0.2419  0.2873 -0.1725
    1W        W28090  16.598   6.890  10.130  0.0163  0.0961  0.0614
    1W        W28091  24.495   7.130   8.720  0.1838  0.4505 -0.1214
    1W        W28092  25.585   1.456   0.321  0.1527 -0.1096  0.0745
    1W        W28093  24.308  21.225   8.953  0.1942  0.1683  0.0675
    1W        W28094  10.829  20.852   8.440  0.2777  0.1503  0.1576
    1W        W28095   3.097  10.357   0.711 -0.2900 -0.1034  0.2488
    1W        W28096   8.046  22.190   0.759  0.0621 -0.0732  0.0023
    1W        W28097  10.586   7.426   8.231 -0.1796  0.0122  0.0240
    1W        W28098  17.072  26.571   3.252 -0.1802  0.2307  0.0093
    1W        W28099  26.246  10.103   9.907 -0.0284 -0.3001  0.0944
    1W        W28100  13.662  27.558   3.501 -0.1440  0.0460 -0.2111
    1W        W28101  11.659   0.572   9.335 -0.1616 -0.1425  0.0425
    1W        W28102   7.425  27.301   1.987  0.0822  0.2511 -0.0822
    1W        W28103  22.831   1.752   8.518 -0.0398 -0.0693  0.3494
    1W        W28104   6.358  14.015   1.739  0.2775  0.1143  0.1346
    1W        W28105  15.901   2.325   8.125 -0.0298 -0.3318  0.0419
    1W        W28106  23.516  19.767   7.620 -0.1610 -0.0819 -0.0337
    1W        W28107  24.324  11.857   1.787 -0.0491 -0.1197 -0.0222
    1W        W28108   8.638   7.583   0.959  0.0770 -0.0817  0.1713
    1W        W28109   0.843  24.242   0.359 -0.1728  0.2286 -0.2287
    1W        W28110  10.042   9.423   2.143  0.3536  0.1057  0.0349
    1W        W28111  21.049   0.368   8.219  0.1308 -0.0568 -0.0766
    1W        W28112  19.984   0.481  10.092 -0.2035 -0.1548 -0.1715
    1W        W28113  20.525  19.223   1.825  0.1821 -0.1014 -0.0445
    1W        W28114   4.891   4.674   8.317  0.2185  0.1542 -0.2758
    1W        W28115  20.981  21.751  10.218 -0.0900  0.3975 -0.0277
    1W        W28116  17.625  16.109   9.167  0.0411  0.3529 -0.1116
    1W        W28117  19.780  15.769   2.594  0.1364  0.0138 -0.1264
    1W        W28118  11.959  15.481   8.722  0.0641 -0.0868 -0.1236
    1W        W28119  16.767   5.288   2.714 -0.0627 -0.2722  0.2971
    1W        W28120  24.125  27.171   7.627  0.1000 -0.0391 -0.2206
    1W        W28121  14.968   3.497   3.568 -0.0464 -0.1504 -0.1713
    1W        W28122  11.549  17.286   7.306 -0.2632  0.0844  0.1809
    1W        W28123  19.450  11.415   0.149 -0.1976 -0.1581 -0.0585
    1W        W28124  12.660  19.085   9.932 -0.0534 -0.0520 -0.0925
    1W        W28125  23.954  10.850   8.066  0.2722  0.0191 -0.1877
    1W        W28126  21.612  21.404   3.607  0.0354  0.1315  0.1204
    1W        W28127   9.612  27.855   1.315  0.1927  0.0820 -0.0708
    1W        W28128   5.499   2.536   8.471 -0.0874  0.0902  0.3216
    1W        W28129   7.542  17.541   8.666  0.0396  0.0191 -0.0486
    1W        W28130  23.260   1.999   7.127 -0.2595 -0.0357 -0.3357
    1W        W28131  26.116  17.504  10.114 -0.1062 -0.0272 -0.3523
    1W        W28132   1.011  23.288   7.516  0.0198  0.2219  0.1892
    1W        W28133  27.043  13.159   0.106 -0.0182 -0.3083  0.2105
    1W        W28134   3.321   2.604   9.770  0.0727  0.1905 -0.0180
    1W        W28135  18.939  24.247   8.022 -0.0600 -0.0631 -0.1364
    1W        W28136  13.300   6.371   1.587 -0.1688 -0.2592  0.0944
    1W        W28137  16.986   1.799   9.749 -0.2252 -0.3765  0.2485
    1W        W28138   8.693  19.326   2.815  0.3144 -0.2969 -0.3557
    1W        W28139   7.541  14.048   7.685 -0.1365 -0.1289  0.0984
    1W        W28140  23.178  25.076   1.491 -0.2824 -0.1996 -0.0755
    1W        W28141  14.797  16.881   1.477  0.1793  0.1190 -0.1631
    1W        W28142   3.970   9.555   9.126 -0.4449  0.2367 -0.4705
    1W        W28143  14.220  19.227   1.641  0.2621  0.0346 -0.2023
    1W        W28144   2.463  17.096   8.339  0.0694 -0.1994 -0.2095
    1W        W28145   1.468  19.409   8.205 -0.0429 -0.3366  0.0871
    1W        W28146  17.207  21.389   1.859 -0.3945  0.2460  0.0982
    1W        W28147   2.063  16.124   6.851  0.1705  0.2434  0.2470
    1W        W28148  12.239  15.668   1.700  0.1744 -0.0921 -0.1914
    1W        W28149   3.394   2.123   9.902 -0.0970 -0.0955 -0.0544
    1W        W28150   4.251   7.617  10.130  0.1679  0.1001  0.2181
    1W        W28151  17.258  15.162   7.321 -0.2379 -0.1567  0.2098
    1W        W28152   5.328  12.102   7.800  0.0940  0.3119 -0.0734
    1W        W28153  22.383  14.539   9.988  0.2039  0.3674 -0.2004
    1W        W28154  10.270  24.576   9.549  0.4197  0.0119  0.2218
    1W        W28155  19.457   7.359   6.804 -0.4746 -0.2236  0.0654
    1W        W28156   7.177  24.381   9.142 -0.0817  0.0986 -0.0839
    1W        W28157   7.532  27.373   9.907  0.2948 -0.1330 -0.1420
    1W        W28158  19.565   2.454   2.618  0.2043  0.2627 -0.1095
    1W        W28159  14.795  15.187   9.624  0.1243  0.3366 -0.1548
    1W        W28160  22.688  14.420   0.008  0.0403 -0.1288 -0.1924
    1W        W28161  14.713   5.235   1.092  0.4495  0.2221 -0.0473
    1W        W28162   1.113   9.156  10.257 -0.0947  0.0758  0.0742
    1W        W28163  16.544  14.219   2.840 -0.2414 -0.1053  0.1392
    1W        W28164   3.993   4.941   0.784 -0.0811 -0.0250  0.0027
    1W        W28165   6.016  18.391   0.141 -0.1795  0.1655  0.2150
    1W        W28166   6.412  20.025   7.945  0.2380  0.3712  0.0116
    1W        W28167  20.138  14.050   9.742 -0.0938 -0.0018  0.3664
    1W        W28168   6.120   1.789   9.942  0.0790 -0.2027 -0.0177
    1W        W28169  18.684  16.940   9.854  0.0763 -0.0804 -0.0618
    1W        W28170   3.700   6.025   8.130  0.1237 -0.0731 -0.2740
    1W        W28171   9.840  18.523   8.442 -0.2264 -0.0750  0.0356
    1W        W28172  18.971   1.986   9.018  0.1651  0.1128  0.0521
    1W        W28173  25.105  24.188   2.324  0.1251  0.0880  0.1821
    1W        W28174  14.984   2.850   2.251  0.0262 -0.0884  0.0493
    1W        W28175  21.652  12.878   2.113 -0.1199 -0.0283 -0.0159
    1W        W28176  16.054  26.136   9.481  0.2234 -0.2286 -0.0339
    1W        W28177  10.643   9.804  10.035 -0.2925  0.0642  0.1014
    1W        W28178  17.532   5.840   3.004 -0.3500  0.0703  0.2337
    1W        W28179  12.788  15.324   4.024  0.1447 -0.2129  0.1387
    1W        W28180   4.825  24.873   8.593  0.0812  0.1570  0.1861
    1W        W28181   9.500  16.382   1.192  0.0994 -0.0588  0.0882
    1W        W28182   8.646  12.533   7.854 -0.2475 -0.2501 -0.0137
    1W        W28183  23.142   5.873   7.230  0.3680 -0.0825 -0.0810
    1W        W28184  12.000   3.072   9.856  0.2882  0.0330 -0.2910
    1W        W28185  14.497  14.438  10.064 -0.0415  0.1948 -0.1122
    1W        W28186  17.846  18.511   3.448 -0.0060 -0.1918  0.1566
    1W        W28187  18.006   4.857   8.055 -0.0467  0.0059 -0.2404
    1W        W28188  25.578  17.334  10.177  0.0199 -0.0592 -0.1212
    1W        W28189   4.806  11.011   1.878  0.1413  0.1176 -0.1307
    1W        W28190  22.811  19.320   9.784  0.0721 -0.0655 -0.0111
    1W        W28191  12.050  26.996   2.414 -0.1505  0.0084  0.0619
    1W        W28192  10.667  22.192   1.569 -0.3294 -0.2403  0.0363
    1W        W28193  20.979   1.499   2.192 -0.1168 -0.0395  0.0594
    1W        W28194   9.473   6.715   2.033 -0.0663 -0.0447 -0.2005
    1W        W28195  20.215   4.164   0.933 -0.1606 -0.1735  0.1199
    1W        W28196  10.684  15.832   0.358  0.1976  0.1035 -0.1017
    1W        W28197   4.653  17.733   0.388 -0.1434 -0.1495  0.1592
    1W        W28198  19.728  25.302   8.273 -0.1444 -0.1692  0.1695
    1W        W28199   1.688   3.362   0.673  0.0467 -0.0814  0.0135
    1W        W28200  15.886  25.575   7.865  0.1058 -0.3443 -0.1046
    1W        W28201  25.281  23.594   6.749 -0.2002 -0.1594 -0.1339
    1W        W28202   2.134  21.153  10.336 -0.1780 -0.0201 -0.1054
    1W        W28203   3.644  22.541   0.967 -0.4514  0.0039 -0.5431
    1W        W28204  19.331  13.832   9.092  0.0479 -0.0684  0.0347
    1W        W28205   6.631  24.798   9.039  0.0201  0.2267 -0.1638
    1W        W28206  20.421   1.966   1.040 -0.4514  0.0299  0.1906
    1W        W28207  13.533  26.789   6.725  0.0079  0.0863  0.0315
    1W        W28208  25.881   1.428   2.888  0.0964  0.0425 -0.5512
    1W        W28209   8.905  14.925   2.818 -0.3672 -0.1050 -0.0307
    1W        W28210  25.188  28.104   7.199  0.2175  0.1335  0.1256
    1W        W28211   9.802   1.230   0.901  0.1967 -0.1004  0.2088
    1W        W28212  18.989  14.442   8.267 -0.0628 -0.3724 -0.1796
    1W        W28213   6.231  12.461   8.076  0.1975 -0.0721 -0.1721
    1W        W28214  18.348  23.701  10.305 -0.0584 -0.0863  0.0818
    1W        W28215  22.647  13.608  10.027  0.0615  0.2430  0.0004
    1W        W28216   8.286   2.319   7.954  0.1402  0.4773  0.0000
    1W        W28217  18.098  14.317   1.698 -0.1634  0.4290  0.2458
    1W        W28218  13.736  23.308   1.874  0.2539 -0.1897 -0.0310
    1W        W28219  24.514  13.434   2.059 -0.3190 -0.1251 -0.0860
    1W        W28220   4.317  13.435   0.741 -0.2294 -0.0137  0.1132
    1W        W28221   3.624  16.862   7.582 -0.0317  0.0497  0.0365
    1W        W28222  11.613  18.226   0.367  0.1786  0.0059  0.2073
    1W        W28223  20.948   7.362   1.849  0.0851 -0.3496  0.0920
    1W        W28224  26.626  18.070  10.070 -0.1791  0.1394 -0.0583
    1W        W28225  23.589  18.791   8.208 -0.3405  0.0215 -0.2847
    1W        W28226  15.296   1.312   3.322 -0.1146 -0.2308 -0.1038
    1W        W28227  17.613  23.236   8.160 -0.2597 -0.0644  0.1940
    1W        W28228  25.103   5.000   8.813  0.2136 -0.2487 -0.0579
    1W        W28229  16.066  27.272   2.814 -0.1808  0.0334 -0.0976
    1W        W28230  22.446  16.791   2.976  0.0696 -0.2366 -0.0874
    1W        W28231   9.324  18.298   3.480  0.3904 -0.2540  0.0805
    1W        W28232   6.108  13.794   1.091  0.0108  0.1115 -0.2719
    1W        W28233  26.119  16.233   2.307 -0.1077 -0.0623  0.3724
    1W        W28234  26.413  15.858   0.632 -0.1212 -0.2126 -0.0398
    1W        W28235  17.176   0.165   7.570  0.0266  0.4518  0.0252
    1W        W28236  16.358  15.312   3.702 -0.0848 -0.1156 -0.0745
    1W        W28237  16.558  28.101   0.997  0.2876 -0.1354 -0.0951
    1W        W28238   0.108  15.680   6.390  0.0176  0.1424  0.1200
    1W        W28239  27.201  22.024   2.009 -0.2705 -0.1107 -0.0825
    1W        W28240  20.180   2.899   8.057  0.0139  0.0152  0.2144
    1W        W28241  22.214   1.698   1.565  0.3260 -0.1682 -0.0491
    1W        W28242  21.975  17.752   9.651  0.3073 -0.2451 -0.2381
    1W        W28243  12.352  21.297  10.079 -0.2281 -0.1262 -0.0410
    1W        W28244  17.300  11.148   3.787  0.0267 -0.1104 -0.1232
    1W        W28245   3.238  10.253   7.051  0.0031  0.5573 -0.0786
    1W        W28246   6.144  21.288   3.060  0.2467  0.2344 -0.1085
    1W        W28247   1.707  13.417   2.141 -0.0272  0.2337  0.0051
    1W        W28248  12.784  24.268   8.747  0.2592  0.3213 -0.2682
    1W        W28249  16.853   2.640   8.453  0.0069 -0.0014  0.0467
    1W        W28250  16.273   4.845   7.940  0.1700 -0.0798 -0.0053
    1W        W28251  13.072  10.161   2.978 -0.0658 -0.0638  0.3357
    1W        W28252  21.162  20.005   2.567  0.3128 -0.0947 -0.4161
    1W        W28253   8.914  11.559   2.355 -0.1282  0.0953 -0.3325
    1W        W28254  15.293  24.794   2.019  0.0913 -0.2875 -0.2584
    1W        W28255  15.284   0.569   1.681  0.0747  0.1401  0.2449
    1W        W28256   0.836  19.975   0.438 -0.1662 -0.0366  0.1424
    1W        W28257  27.140  12.708   2.979  0.0066  0.1551  0.1665
    1W        W28258   7.496  18.668   0.800  0.1780 -0.1024 -0.0546
    1W        W28259  15.153   2.665   9.549  0.1229 -0.2218  0.1045
    1W        W28260   3.821  13.037   7.424  0.1908  0.1711  0.2870
    1W        W28261   4.239  12.397   1.885  0.0214 -0.0298  0.0164
    1W        W28262   4.039  25.903   9.618  0.1028 -0.3140 -0.2633
    1W        W28263   9.261  16.160   1.690 -0.2012 -0.0980  0.1628
    1W        W28264  11.733   5.756   0.885 -0.0258  0.0814  0.0874
    1W        W28265   1.259  18.326   0.067 -0.0894  0.0778 -0.0755
    1W        W28266  24.028   3.909   9.039  0.1909  0.1465  0.1382
    1W        W28267   5.758  20.817   2.172 -0.2082 -0.1412  0.1126
    1W        W28268   6.086   0.607   7.136 -0.0196  0.4399  0.3418
    1W        W28269  22.255  18.522   8.317  0.3834  0.0530  0.0743
    1W        W28270  15.571   7.725   7.937 -0.0729 -0.2005  0.1419
    1W        W28271  10.055  17.407   3.078  0.4863  0.1888  0.0975
    1W        W28272  10.197  13.416   1.840  0.0617 -0.1095 -0.1214
    1W        W28273  20.987  27.803   2.711 -0.0218 -0.0493 -0.1158
    1W        W28274   7.921  18.538   9.459 -0.2698  0.1356  0.0167
    1W        W28275  20.415   5.782   9.996  0.0490 -0.2543 -0.1208
    1W        W28276  13.806   5.125   9.493  0.0272  0.2377 -0.0618
    1W        W28277   8.143  27.841   7.757 -0.0663  0.0749  0.1395
    1W        W28278  14.778   8.543   1.777  0.1594 -0.2106  0.0365
    1W        W28279  20.958  18.310   1.881  0.1279 -0.1698 -0.0350
    1W        W28280  18.808   8.746   0.361 -0.1489 -0.2032  0.1725
    1W        W28281  25.319  16.045   0.825  0.0939  0.0309  0.2311
    1W        W28282  14.247   3.430   8.489 -0.1417  0.0222  0.1318
    1W        W28283  20.691  13.833   6.856  0.0713  0.2697  0.0311
    1W        W28284  19.728  14.387   8.117  0.1411 -0.0528 -0.0546
    1W        W28285  22.806   0.122   3.656 -0.0189  0.2656 -0.0861
    1W        W28286  24.005   4.393   8.701  0.1925 -0.2297  0.0040
    1W        W28287   1.760   4.292   8.131  0.0627  0.1387  0.2424
    1W        W28288   3.169  11.102   1.375 -0.3454  0.2374 -0.1705
    1W        W28289  14.303  20.575  10.303 -0.2934  0.2623  0.0699
    1W        W28290  18.475   5.141   7.897 -0.1001 -0.3074  0.0718
    1W        W28291   7.381  23.468   9.518  0.0026 -0.0431  0.0116
    1W        W28292  18.713  18.436   2.309  0.0296 -0.0792  0.2164
    1W        W28293  12.170   8.651  10.228 -0.0125  0.2514 -0.0369
    1W        W28294  23.969  20.138   8.692  0.0678 -0.4571  0.2235
    1W        W28295   2.615  16.395   6.779  0.0627  0.2140 -0.3149
    1W        W28296  25.101  14.249   8.563  0.0558  0.1274 -0.0597
    1W        W28297   8.609  17.606   0.964  0.0299 -0.0663 -0.1620
    1W        W28298  23.939   7.065   9.549 -0.0195 -0.2675  0.5653
    1W        W28299  22.660   1.320   7.436 -0.1026 -0.0796 -0.4437
    1W        W28300  23.669  14.720   1.318  0.1942 -0.1722 -0.4644
    1W        W28301  16.386   9.799   2.310  0.4139 -0.2893 -0.0859
    1W        W28302   8.911  25.037   0.122  0.0632  0.3673 -0.1229
    1W        W28303  20.407   6.966   7.691 -0.0448  0.1624  0.1179
    1W        W28304  12.698  24.557   2.494 -0.1955  0.2221  0.0477
    1W        W28305  23.673  12.212   2.566 -0.1929 -0.1965 -0.0077
    1W        W28306  13.724  18.754  10.320  0.1165 -0.3554 -0.1903
    1W        W28307  16.004   0.879   2.725  0.1137 -0.3205  0.3046
    1W        W28308   8.724   7.967   2.686 -0.1618 -0.0780  0.2104
    1W        W28309  16.185   3.178   9.045  0.2155 -0.0024 -0.1114
    1W        W28310  19.918  24.526   7.672 -0.0366 -0.3312  0.0601
    1W        W28311  17.856   9.186   7.827 -0.2368 -0.0431 -0.0464
    1W        W28312  19.950   6.788   7.334 -0.0793 -0.4861  0.0016
    1W        W28313  17.074   3.980   7.032 -0.0296 -0.1194  0.1490
    1W        W28314  28.033  15.048   2.372  0.0459  0.2424  0.0457
    1W        W28315  27.226  24.210   8.925 -0.0566 -0.2804  0.1021
    1W        W28316  25.762   7.143   8.513  0.3320 -0.1296 -0.4002
    1W        W28317   6.653   8.401   2.761  0.0456 -0.0287  0.3691
    1W        W28318  13.602  27.080   0.120  0.0796 -0.0104  0.0409
    1W        W28319  12.965  10.682   2.970 -0.1458 -0.2173  0.1850
    1W        W28320  26.333   8.171  10.035  0.0673 -0.0361  0.0576
    1W        W28321  21.952  10.744   2.785  0.1103  0.0520  0.1698
    1W        W28322   5.944   4.574   0.378 -0.1327  0.0435  0.0663
    1W        W28323  14.657   5.121   3.170 -0.0325 -0.2468  0.0023
    1W        W28324  23.296  23.421   0.804  0.3255  0.0019 -0.0925
    1W        W28325  26.219  13.316   7.740 -0.1065 -0.3384 -0.0693
    1W        W28326  19.163  17.620   1.160  0.1286  0.1157  0.3247
    1W        W28327   7.627   9.999   1.921  0.2041  0.1071  0.1213
    1W        W28328  22.151   3.661   8.392  0.0724 -0.3654  0.0146
    1W        W28329  24.438  22.338   0.365  0.3814 -0.0928  0.0755
    1W        W28330  26.660   7.060   1.501 -0.0439 -0.3112 -0.0104
    1W        W28331  26.019   5.571   9.425  0.3699  0.1695 -0.2526
    1W        W28332  10.578  27.422   8.728  0.1154  0.1649 -0.1359
    1W        W28333   0.323  10.437   8.106 -0.1438  0.3203 -0.0104
    1W        W28334  15.153  10.693   2.627  0.0077 -0.2449 -0.2098
    1W        W28335   2.109  17.211   0.383 -0.1861  0.1583 -0.0793
    1W        W28336  15.618   6.011   1.382  0.1817 -0.1012 -0.1205
    1W        W28337  27.789  17.641   2.015 -0.1132 -0.0010 -0.3278
    1W        W28338   4.262  16.242   1.730 -0.0993  0.4300  0.4082
    1W        W28339  15.694   7.116   0.276  0.1613 -0.0639  0.1046
    1W        W28340  26.441  13.544   6.188 -0.2879 -0.1030 -0.2836
    1W        W28341   7.657  18.510   8.714  0.0116 -0.0154  0.2447
    1W        W28342  14.085   9.260   1.052  0.0964  0.0969 -0.2254
    1W        W28343  25.126  18.988   8.992  0.1718 -0.2911 -0.0360
    1W        W28344  26.698  21.373  10.171 -0.1273  0.2251 -0.0115
    1W        W28345  21.165  14.855   8.185 -0.3157 -0.0092 -0.1571
    1W        W28346   0.802   1.877  10.359  0.0970 -0.0007 -0.3877
    1W        W28347  28.084   8.788   2.873 -0.1273 -0.0195  0.0154
    1W        W28348   8.979  18.913   1.649 -0.0611  0.3804  0.0150
    1W        W28349   6.459   2.040   9.494  0.0460  0.1462  0.0545
    1W        W28350  20.160  18.212   9.493 -0.0403 -0.0013  0.1931
    1W        W28351  10.107   1.649   0.183  0.1676  0.2194  0.2232
    1W        W28352   5.489  25.881   2.324 -0.1718 -0.2292 -0.1132
    1W        W28353  17.923  19.007   2.429 -0.0106 -0.0625  0.0820
    1W        W28354  11.304   1.948  10.362  0.2434 -0.0965  0.2415
    1W        W28355  16.171  14.768   0.357  0.2816  0.2270 -0.1899
    1W        W28356  11.020  20.782   3.081  0.1718  0.1461  0.3739
    1W        W28357   3.237   9.495  10.165 -0.0776 -0.0241  0.3403
    1W        W28358  15.793  23.961   1.452 -0.2551 -0.0964  0.4102
    1W        W28359  26.170  24.668   7.574 -0.0002  0.0236  0.0248
    1W        W28360  25.343  25.981   1.162 -0.3749 -0.2901  0.2167
    1W        W28361  11.876   1.560   9.198 -0.0301 -0.1446  0.3042
    1W        W28362  14.900   1.793   0.947  0.2724 -0.3785  0.1822
    1W        W28363  20.005   0.962   0.756 -0.4432 -0.0652 -0.0271
    1W        W28364   4.486  13.981   8.185 -0.5796 -0.2188  0.1043
    1W        W28365   7.622   6.872   2.245 -0.1204 -0.0077  0.0047
    1W        W28366  17.572   1.973   2.424  0.1594 -0.0959  0.1329
    1W        W28367  15.008  26.133   8.564  0.3250  0.0478  0.0609
    1W        W28368  21.025   0.846   8.201  0.1923 -0.0937 -0.1457
    1W        W28369  20.655  23.426   9.680  0.2272  0.1356 -0.0856
    1W        W28370  14.808  24.606   2.019 -0.3267 -0.0190 -0.0980
    1W        W28371   4.332   5.073   7.817 -0.0332 -0.1726  0.0596
    1W        W28372   8.234  13.396   3.593  0.2050 -0.3375 -0.1310
    1W        W28373  25.103   2.169   8.992  0.1641  0.3306 -0.0865
    1W        W28374  27.062  27.673   9.624 -0.2410 -0.0778  0.3581
    1W        W28375  24.126   9.845   1.282  0.0194 -0.2368 -0.2245
    1W        W28376  11.940  14.597   2.169 -0.2110  0.0400 -0.3523
    1W        W28377   6.751   7.737  10.139 -0.2985  0.0539  0.0543
    1W        W28378   6.868  10.944   0.114 -0.1071  0.0340 -0.0367
    1W        W28379  24.270   2.459   1.058  0.1813 -0.3520  0.1068
    1W        W28380  19.235   5.854   2.932 -0.2285  0.0790 -0.1640
    1W        W28381  19.752  11.848   8.495 -0.1929 -0.2352 -0.1275
    1W        W28382  22.151   3.003   9.808  0.1168  0.2184 -0.0321
    1W        W28383   7.221   6.222   2.118  0.1242 -0.2677  0.0551
    1W        W28384  13.901  26.585   7.442  0.0529  0.2889 -0.1323
    1W        W28385   8.473  10.687   3.402 -0.0442  0.1156  0.1515
    1W        W28386  20.342  18.225   2.672  0.1755  0.1353 -0.3068
    1W        W28387  15.506  26.620   7.025  0.1844 -0.0752  0.1788
    1W        W28388  26.655  10.775   2.491 -0.2261 -0.2152 -0.1114
    1W        W28389  20.412  24.457   0.182  0.1917  0.1174  0.0929
    1W        W28390  17.915   5.277   1.092 -0.3867 -0.1380 -0.1449
    1W        W28391   8.843   5.837   8.507 -0.0598  0.2288  0.0862
    1W        W28392  22.169   8.988   8.393 -0.1275 -0.2602  0.0322
    1W        W28393   9.950  24.591   8.244  0.0490  0.0208  0.0998
    1W        W28394  11.071  15.831   8.603  0.0031 -0.1369  0.0310
    1W        W28395  11.841  26.884   0.330  0.0829 -0.1158 -0.1875
    1W        W28396  27.834  23.138   9.607  0.2131  0.0752 -0.0825
    1W        W28397  10.649  22.624   9.906  0.0498  0.0485  0.0136
    1W        W28398  12.283  14.013  10.347 -0.0847 -0.3501  0.0303
    1W        W28399  18.854  11.780   9.992  0.1125  0.1883 -0.2853
    1W        W28400   5.933  27.780   9.308 -0.1986  0.0368  0.3774
    1W        W28401   3.966   1.273  10.158 -0.0261  0.1347 -0.1141
    1W        W28402  16.101   6.069   8.353  0.3351  0.2490 -0.0220
    1W        W28403   2.945  10.796   0.968 -0.0033  0.0483 -0.0219
    1W        W28404  26.712  26.892  10.032 -0.2752 -0.1583 -0.1263
    1W        W28405  24.391  19.434   2.423  0.1185  0.1446 -0.1386
    1W        W28406   3.018  17.663   9.032  0.0080 -0.1098  0.3721
    1W        W28407  25.990  24.063   1.220  0.1071  0.0563 -0.0460
    1W        W28408   1.578   3.290   0.198 -0.1162  0.2644  0.1214
    1W        W28409  23.689   3.599   9.129 -0.0834 -0.0913 -0.0100
    1W        W28410   7.916  24.727   8.896  0.2188 -0.0704  0.0266
    1W        W28411   0.498  11.070   1.648 -0.0960 -0.0101 -0.1090
    1W        W28412  10.990  20.393   8.420 -0.1826 -0.2334  0.2654
    1W        W28413   9.442  23.559   9.207 -0.2174  0.1990 -0.0305
    1W        W28414  21.215  24.565   9.782  0.1531  0.0501  0.2424
    1W        W28415   7.246  15.923   9.413  0.0024 -0.2063  0.2379
    1W        W28416  11.736  15.838  10.047 -0.0254  0.2485  0.2021
    1W        W28417   7.709   9.368   2.657  0.0164  0.0081 -0.2075
    1W        W28418   0.519  26.316   8.776 -0.2907  0.1263  0.4462
    1W        W28419  11.961  24.369   1.827 -0.0006 -0.3477 -0.4165
    1W        W28420  28.023  12.937   0.180  0.0585  0.2049 -0.0828
    1W        W28421  19.179  10.593   2.752  0.1043  0.1028 -0.1433
    1W        W28422   3.496  15.247   1.238 -0.2454 -0.0299  0.0820
    1W        W28423  18.648  15.113   1.064 -0.1218 -0.0928  0.1322
    1W        W28424  17.175  22.113   8.380  0.0978  0.3573  0.3545
    1W        W28425   3.654  18.570   1.505 -0.0807 -0.4209  0.2328
    1W        W28426   6.436  13.580   2.632 -0.0285  0.4553 -0.0936
    1W        W28427  11.837  24.849   2.225  0.2081  0.0304 -0.0804
    1W        W28428   8.713  14.632  10.219 -0.0838  0.1452  0.2077
    1W        W28429  20.823  23.665   1.967 -0.0182  0.1181  0.0880
    1W        W28430   5.115  11.539   7.794  0.0943  0.1422 -0.0236
    1W        W28431  22.706  10.218   8.052 -0.0949 -0.0713 -0.2290
    1W        W28432  19.495  22.990   2.416 -0.1061 -0.1336  0.1100
    1W        W28433  24.905  23.898   0.183 -0.0365 -0.0929  0.0674
    1W        W28434   0.467  14.678   8.474  0.0186  0.0813 -0.2914
    1W        W28435  19.471   8.125   9.320 -0.2950 -0.2922 -0.0734
    1W        W28436  27.598   0.593   0.459  0.1449  0.0931 -0.1620
    1W        W28437  14.055   1.964   9.242  0.2453  0.0833 -0.1107
    1W        W28438  13.453  27.431   8.923  0.0238  0.1265  0.2450
    1W        W28439  11.170   0.620   0.423 -0.0472  0.2223 -0.1444
    1W        W28440   3.724  24.088  10.108  0.2696 -0.0255  0.2754
    1W        W28441  12.021  19.420   2.018  0.2387 -0.3229 -0.0643
    1W        W28442   2.627  13.180   7.957  0.1366 -0.6019 -0.2281
    1W        W28443  13.609   6.033   2.840  0.1604 -0.1497 -0.0406
    1W        W28444   0.058   2.338   7.499  0.1588 -0.2292  0.0085
    1W        W28445  11.013  27.860   0.417  0.1522  0.0540  0.0221
    1W        W28446   2.693  13.733   9.462  0.1828  0.0932 -0.0069
    1W        W28447   4.520  27.260   1.451  0.1901  0.1886  0.0724
    1W        W28448  20.326   5.307   0.321  0.0385  0.1049  0.0847
    1W        W28449  16.451  13.825   7.204  0.3326  0.0712 -0.0998
    1W        W28450  23.096   7.109   0.428 -0.2218  0.0489  0.1268
    1W        W28451  20.616  13.265   2.978  0.5699 -0.3292 -0.1463
    1W        W28452   5.528  20.025   8.108  0.4104 -0.0246 -0.2713
    1W        W28453  24.130   3.840   8.542 -0.0590 -0.0373  0.1138
    1W        W28454  10.791   2.313   2.599  0.1364 -0.2157 -0.0674
    1W        W28455  20.918   2.086   7.430 -0.0387 -0.1079  0.0707
    1W        W28456  14.266  27.107   2.126  0.1136  0.0490  0.1648
    1W        W28457   4.361   2.141   0.396 -0.0666 -0.0482  0.2886
    1W        W28458   0.575  16.156   2.221  0.6103  0.0324 -0.2406
    1W        W28459  18.188   5.760   2.392  0.2921  0.1073 -0.0133
    1W        W28460  24.112   6.603   0.736 -0.0497 -0.0385  0.0764
    1W        W28461   3.763  18.590   3.244 -0.4707 -0.0101 -0.2472
    1W        W28462  18.377  19.979   9.494 -0.0006  0.2320  0.1402
    1W        W28463  16.505  19.013   6.866  0.2184 -0.2847 -0.0329
    1W        W28464   0.646  12.507   1.193  0.1155  0.1556  0.0937
    1W        W28465   8.133   7.037   0.504 -0.0361  0.1039  0.0541
    1W        W28466  24.833  15.586   8.163 -0.1261  0.1191  0.3220
    1W        W28467   5.858  22.242   2.201  0.0023 -0.1799 -0.3248
    1W        W28468  19.338  17.513   0.679 -0.1330 -0.2012  0.0029
    1W        W28469   1.065  24.774   9.084 -0.0271  0.0329 -0.1164
    1W        W28470  13.576  19.499   0.946 -0.0117  0.2458 -0.2648
    1W        W28471   8.945  18.909   0.581 -0.1377  0.1050 -0.1169
    1W        W28472   1.074  10.470   6.811 -0.2185  0.2531 -0.1478
    1W        W28473  16.645   7.725  10.118 -0.1154 -0.0607  0.2346
    1W        W28474  17.907  23.144   1.653 -0.3821 -0.1214 -0.2127
    1W        W28475  10.223  21.333   0.828 -0.0948  0.3545 -0.0615
    1W        W28476   6.258  27.580  10.195  0.2114 -0.1061 -0.1199
    1W        W28477  28.076   6.568   1.658 -0.1646  0.0029  0.0232
    1W        W28478  11.626  12.406   8.527 -0.1006  0.0145  0.4515
    1W        W28479   4.150  18.705   2.155 -0.0147 -0.1237  0.1779
    1W        W28480   1.400  20.500   1.514 -0.0279  0.0469 -0.3424
    1W        W28481  26.535   5.063   6.286 -0.0392  0.2155  0.1668
    1W        W28482  15.966  12.187   8.916 -0.0530 -0.0694  0.2982
    1W        W28483   1.168   8.207   8.059 -0.0490 -0.1494  0.0163
    1W        W28484  26.512   8.754   0.586 -0.2557 -0.1930  0.0472
    1W        W28485   8.891  23.095   7.602 -0.0011  0.3275  0.0076
    1W        W28486  22.705  14.009   8.290 -0.0531  0.0131  0.1423
    1W        W28487   6.476  21.679  10.196  0.2210 -0.0654  0.2706
    1W        W28488   1.908   9.020   6.586 -0.0433  0.2094 -0.0741
    1W        W28489  20.516  16.580   7.440 -0.3545  0.1680 -0.0948
    1W        W28490  15.098   7.506   7.928 -0.0747 -0.0591 -0.0525
    1W        W28491   9.544   2.097   3.172 -0.1839 -0.3697 -0.0079
    1W        W28492   0.460  13.729   7.142  0.1965 -0.0982  0.3148
    1W        W28493  24.846   5.762   1.592 -0.1573  0.0788  0.2065
    1W        W28494  11.272   1.475  10.280  0.1031  0.0443 -0.2057
    1W        W28495  16.558  17.323   0.807  0.2042  0.2051  0.1121
    1W        W28496  26.650  14.737   2.237  0.1986 -0.2103  0.0435
    1W        W28497   1.707  21.067   1.422  0.0565  0.5729 -0.1541
    1W        W28498  16.956  11.394  10.068  0.0377 -0.2878  0.0540
    1W        W28499   5.911  22.623   8.882 -0.2803  0.0182  0.0300
    1W        W28500  26.679  11.905   7.246 -0.2377 -0.0069  0.0347
    1W        W28501  14.037  24.101   9.227  0.1947  0.2935  0.0595
    1W        W28502  22.681   3.875   1.985  0.1789  0.3109  0.0748
    1W        W28503  20.842   4.808   1.383 -0.1001 -0.3113  0.1292
    1W        W28504  21.147   0.936   1.214  0.1672 -0.3831 -0.0308
    1W        W28505   4.293   9.462   7.489  0.1787  0.1226  0.0191
    1W        W28506  21.995  20.034   1.972  0.1283 -0.1864  0.1279
    1W        W28507  15.919  18.489   8.402 -0.1145 -0.2739 -0.0507
    1W        W28508  11.834  15.770   1.331 -0.2273  0.1529 -0.1991
    1W        W28509  20.559   8.027   7.727 -0.0101  0.3880 -0.0676
    1W        W28510   2.179   2.558   9.599  0.0249  0.0114  0.0973
    1W        W28511   3.713   3.274   0.039 -0.0673 -0.4971  0.0195
    1W        W28512  20.300  19.483   3.407  0.2723  0.1789 -0.1246
    1W        W28513   8.533  12.582   2.391 -0.3757 -0.2130  0.3250
    1W        W28514  21.546   4.314   9.969 -0.0814  0.0563 -0.1275
    1W        W28515   0.711  27.015   0.170  0.0548 -0.2044 -0.0449
    1W        W28516  10.267   3.086   0.594 -0.0696  0.1917  0.0549
    1W        W28517  15.401  18.688   8.330  0.1528  0.2626  0.3097
    1W        W28518  24.185  17.075   2.843 -0.2336 -0.0717  0.0233
    1W        W28519  16.785  17.776  10.007  0.2975  0.0933  0.0461
    1W        W28520  14.413   3.641   2.779 -0.1548  0.0146 -0.1168
    1W        W28521  10.930   9.513   0.831 -0.0742  0.0545 -0.0858
    1W        W28522   0.174  11.802   2.784  0.1367 -0.1067 -0.2817
    1W        W28523  24.138   3.607   2.562  0.0943  0.0693  0.3544
    1W        W28524   0.925  26.716   8.549 -0.0092  0.0583 -0.0014
    1W        W28525   2.670   7.192   9.097 -0.1291 -0.2225 -0.1385
    1W        W28526  27.136   4.250   1.467 -0.1276 -0.1127 -0.1072
    1W        W28527  10.368   2.030   1.220 -0.0619 -0.1604  0.1003
    1W        W28528  21.906  19.736   0.257  0.0333  0.1951  0.1366
    1W        W28529   8.814  16.354   0.064  0.1039 -0.0971 -0.0395
    1W        W28530  11.750   0.794   8.095 -0.1907  0.0715  0.0783
    1W        W28531  21.416  16.250   0.252  0.2172 -0.2809 -0.1242
    1W        W28532   2.005  12.195   8.309  0.1274  0.0687  0.1569
    1W        W28533  25.174   9.167   9.974 -0.1531  0.0837 -0.0771
    1W        W28534  10.021   5.979   2.991 -0.2815 -0.0185  0.2851
    1W        W28535  13.896  12.303   3.145 -0.0246 -0.2478 -0.1685
    1W        W28536  15.422   5.635   2.820  0.1102 -0.1123 -0.1292
    1W        W28537  17.913   4.865   1.398 -0.1615 -0.0617 -0.1094
    1W        W28538   6.491  16.280   0.751  0.2289  0.0647 -0.1801
    1W        W28539  20.142  15.322   1.580  0.1335 -0.1419  0.0122
    1W        W28540   5.047   6.265   9.361 -0.2563  0.2404 -0.1514
    1W        W28541   8.128  14.301   0.875 -0.0855  0.1992  0.2814
    1W        W28542  24.972   2.854   6.967 -0.0338  0.0718 -0.2210
    1W        W28543  16.013  14.329   2.582  0.0775  0.1995  0.1542
    1W        W28544   6.117   8.672   7.133  0.2635 -0.1797  0.1453
    1W        W28545   6.739  25.804   0.228 -0.2063  0.0284 -0.0245
    1W        W28546  18.321  18.787   4.144  0.2858  0.0754  0.2931
    1W        W28547  21.995  10.352   8.628  0.0204  0.0454 -0.0408
    1W        W28548  14.696  24.172   6.788 -0.2252  0.2546 -0.3818
    1W        W28549  10.291  25.304   2.471  0.0060 -0.0467 -0.0778
    1W        W28550  17.924  23.427   0.639  0.0542 -0.2273  0.1169
    1W        W28551  20.752  24.278   2.624 -0.3173  0.1629 -0.3943
    1W        W28552   2.888  10.284   3.259  0.2646 -0.0124  0.0157
    1W        W28553   9.450   0.102   9.938  0.0552 -0.0686 -0.2847
    1W        W28554  23.689  22.201   2.990 -0.0701  0.1166  0.1241
    1W        W28555   7.962  15.007   9.752 -0.0645  0.3898  0.0183
    1W        W28556  13.419  18.697   2.635 -0.1194  0.1171 -0.1437
    1W        W28557  26.356   9.580   1.762 -0.3537  0.0461  0.1586
    1W        W28558  25.850  25.269   6.489 -0.0293 -0.1021 -0.0042
    1W        W28559  12.062   6.790  10.188 -0.0492  0.1958 -0.0062
    1W        W28560  27.476   1.575   2.775 -0.1483 -0.1723 -0.0630
    1W        W28561   9.330  15.866   1.317 -0.1849 -0.2192 -0.1075
    1W        W28562  22.871  10.775  10.073 -0.1280 -0.0430  0.2326
    1W        W28563   1.303  19.778   7.933  0.1252 -0.0819 -0.1485
    1W        W28564  19.740   2.706   7.637  0.2182 -0.1096 -0.1438
    1W        W28565  11.624  17.409   2.953  0.1177 -0.1654 -0.0281
    1W        W28566   0.216  20.650   8.899  0.1481  0.1959  0.0884
    1W        W28567  22.403   6.967   9.374  0.1045 -0.1511 -0.1109
    1W        W28568   7.237  20.724   8.916  0.1147  0.2274  0.1669
    1W        W28569  15.989   3.286   9.539  0.1100  0.2843  0.3075
    1W        W28570   3.128  18.946   7.129 -0.1558  0.0800  0.1311
    1W        W28571  26.710  18.153   7.321 -0.2137  0.1354 -0.2166
    1W        W28572  16.532   3.546   7.055  0.2825 -0.1155 -0.0986
    1W        W28573  15.427  21.136   7.344 -0.2265 -0.1147 -0.1981
    1W        W28574  14.489  19.154   8.596  0.2249 -0.2922 -0.2111
    1W        W28575   4.899   6.135   0.607 -0.1174  0.0083 -0.0153
    1W        W28576  27.508  20.940   8.761 -0.0635 -0.3304 -0.4209
    1W        W28577  11.250  21.917   9.547 -0.1371  0.1939 -0.1378
    1W        W28578  26.428  25.573   6.701  0.1986  0.1519 -0.0214
    1W        W28579   4.662  18.976   2.359 -0.0865  0.0719 -0.2739
    1W        W28580  13.287  22.014   7.377  0.1183  0.3631 -0.4245
    1W        W28581  21.175  24.756   9.094 -0.0008  0.2241  0.2755
    1W        W28582  20.314   9.296   2.123 -0.1182  0.2238 -0.1117
    1W        W28583   3.845  14.388   9.465 -0.0040  0.2832  0.3883
    1W        W28584   1.113   6.120   8.532 -0.0254 -0.0041 -0.1217
    1W        W28585  24.243  27.172   1.604  0.2675 -0.0409 -0.0106
    1W        W28586   6.601   1.241   9.094  0.0597 -0.1172 -0.2447
    1W        W28587   1.283  23.532   2.131  0.1645 -0.0251  0.0135
    1W        W28588  17.432  22.021   7.878  0.1213 -0.0524 -0.0278
    1W        W28589  25.924   9.776   1.977  0.2465 -0.2037  0.3108
    1W        W28590  26.328  17.339   8.162 -0.1393  0.0284 -0.0313
    1W        W28591  15.568   5.940   2.236 -0.2445  0.0217 -0.1108
    1W        W28592  13.758  26.012   9.632  0.0833 -0.1648  0.2104
    1W        W28593  12.233  13.541   3.805  0.1055  0.1853  0.2009
    1W        W28594   2.152   1.697   0.210  0.0624 -0.0659 -0.1042
    1W        W28595  21.750  24.817   3.263 -0.2541 -0.4634  0.2343
    1W        W28596  13.906  22.470   9.381 -0.0962 -0.1644 -0.1334
    1W        W28597  23.503  13.764  10.056  0.0154  0.0568  0.2216
    1W        W28598   8.957  22.882   2.516 -0.0876  0.2056  0.2509
    1W        W28599  26.948  23.593   2.370  0.0998 -0.0409 -0.3365
    1W        W28600   4.255  16.413   9.013  0.1743 -0.0577 -0.1264
    1W        W28601  22.373  23.164   6.901 -0.0529  0.1216 -0.1386
    1W        W28602  27.552   0.934   6.529  0.1795  0.0490 -0.0708
    1W        W28603   5.516   0.619   9.546  0.3752 -0.3564 -0.2102
    1W        W28604  23.006  14.811   1.646  0.0392  0.0223  0.1716
    1W        W28605  19.731  11.185   1.259 -0.1604  0.0401  0.2563
    1W        W28606  21.234   6.674   2.211  0.0508  0.1259  0.1462
    1W        W28607   1.299  13.036   2.157 -0.2460  0.1876 -0.2550
    1W        W28608  17.440  13.671   7.459 -0.0384 -0.0194 -0.0422
    1W        W28609  24.831  12.891   9.640  0.1552 -0.3351 -0.3113
    1W        W28610  23.360  25.042   8.693 -0.1292 -0.1141  0.2651
    1W        W28611  11.782  24.030   0.748 -0.1029 -0.0884 -0.0206
    1W        W28612  14.097  24.321   7.770 -0.0662  0.1104  0.0146
    1W        W28613   4.674  19.119   9.742 -0.1350  0.3364  0.0101
    1W        W28614  24.556  15.551  10.072  0.0929  0.4237  0.2465
    1W        W28615  25.459   8.083   1.514 -0.2800 -0.0767  0.0193
    1W        W28616  21.691   8.728   1.958 -0.1906  0.0372 -0.1889
    1W        W28617  16.192   6.148   2.252  0.1229 -0.1603  0.0800
    1W        W28618   7.991  15.328   1.428 -0.0190  0.2004 -0.0141
    1W        W28619   9.473  21.535   8.579  0.0726  0.2860  0.0542
    1W        W28620  16.593   8.872   0.724  0.0895 -0.2184 -0.0149
    1W        W28621   3.646  11.601   8.587 -0.0125  0.2651  0.0645
    1W        W28622  22.971  22.246   2.532  0.0404 -0.1978 -0.0814
    1W        W28623  23.160   9.136   1.613  0.0166  0.0045  0.2411
    1W        W28624  20.532   5.005   1.677  0.2103 -0.1450  0.1746
    1W        W28625  18.232  23.320   9.975 -0.0964 -0.1644 -0.1509
    1W        W28626   6.201  18.711   2.263 -0.1935  0.1509  0.1828
    1W        W28627  20.523  14.781   2.066 -0.1219 -0.0364  0.0514
    1W        W28628   8.868  21.891   9.548 -0.0938 -0.2909  0.0488
    1W        W28629  19.564  27.990   1.422  0.0145  0.0796 -0.1742
    1W        W28630   2.818   3.407   0.180  0.0514  0.1257 -0.0226
    1W        W28631  17.973  27.421   7.419 -0.0600 -0.1018 -0.2426
    1W        W28632  25.001   7.803   6.929  0.1717 -0.1989  0.1521
    1W        W28633  19.725  12.181   2.254 -0.1870 -0.0556  0.1783
    1W        W28634  14.376  23.909   6.349  0.0110  0.0948  0.1559
    1W        W28635   0.840   6.955   7.568 -0.3819 -0.0834  0.0215
    1W        W28636  19.782  22.329   2.049  0.0252  0.3662 -0.3033
    1W        W28637   6.038   4.198   1.009  0.0261 -0.2853 -0.0130
    1W        W28638   8.529   0.995   8.642  0.0953 -0.0258  0.2674
    1W        W28639  13.254   6.085   3.184 -0.1730  0.0552  0.1793
    1W        W28640  20.403  17.694  10.322  0.0261 -0.1338  0.1748
    1W        W28641  19.266   5.088   8.011 -0.1830 -0.0697  0.0922
    1W        W28642  16.110  26.068   8.711 -0.0374 -0.0884  0.0508
    1W        W28643   4.579  18.293   0.522 -0.1394 -0.1771  0.1026
    1W        W28644   8.039  19.353   0.924 -0.3460  0.0734 -0.0539
    1W        W28645   0.748   7.770   6.845  0.0210 -0.0661 -0.1524
    1W        W28646  26.069   7.504   1.450 -0.0844 -0.1301 -0.0010
    1W        W28647  26.647  17.038   8.443 -0.0501 -0.1783  0.0924
    1W        W28648   6.395  18.350   9.647 -0.0729  0.2176 -0.0078
    1W        W28649  18.693  22.388   2.305 -0.0297  0.1367  0.0036
    1W        W28650   7.462  14.470   7.484  0.3212  0.0560  0.0956
    1W        W28651  19.784  17.175   0.567  0.0331 -0.1959  0.0277
    1W        W28652  17.019   5.421   7.549 -0.1013  0.0493  0.2113
    1W        W28653  16.099   6.090   0.102 -0.0507 -0.0182 -0.1147
    1W        W28654  17.042   6.599   2.132 -0.2491 -0.2766  0.1999
    1W        W28655  18.876  24.625   1.417 -0.3533 -0.1562  0.0294
    1W        W28656   6.380  26.686   1.596  0.0874 -0.0560 -0.0684
    1W        W28657   2.726   6.299   9.361 -0.0240  0.0206  0.0845
    1W        W28658   4.179  11.258   9.164 -0.0511 -0.1686  0.0721
    1W        W28659  21.602  25.625   1.654  0.0217  0.0656 -0.2653
    1W        W28660  16.333  21.552   9.660  0.3010  0.3966  0.0965
    1W        W28661   1.160   4.883   7.793  0.2136  0.0754 -0.1648
    1W        W28662  23.388  23.913   2.718  0.0820  0.1745 -0.0924
    1W        W28663   0.431   1.217   9.171 -0.0651 -0.0862 -0.0332
    1W        W28664  20.637  13.364   1.754  0.0059 -0.0284 -0.0953
    1W        W28665   8.324  20.414   2.796 -0.1782  0.1396  0.1303
    1W        W28666   2.308   2.470   8.612 -0.1480 -0.1186 -0.1193
    1W        W28667  15.048  16.616   9.233  0.1710 -0.3164 -0.0748
    1W        W28668  21.459  12.612   7.058 -0.1141  0.1007  0.0220
    1W        W28669  19.899  11.551   9.026  0.1041  0.1108 -0.0581
    1W        W28670   5.620  25.836   8.862  0.3646 -0.2746 -0.1042
    1W        W28671  13.818  19.603   9.193 -0.2086  0.1489  0.1089
    1W        W28672   2.419  17.736   9.728  0.0800  0.3120  0.0464
    1W        W28673  13.529   2.198   1.310  0.0710 -0.1854  0.2130
    1W        W28674  13.052   2.468   8.233 -0.3918  0.4633  0.0502
    1W        W28675  18.033  11.591   8.707  0.2061  0.2343 -0.1232
    1W        W28676  19.784  27.550   8.069 -0.0187 -0.0792  0.1618
    1W        W28677   1.876  12.191   0.597 -0.1289 -0.2447  0.0798
    1W        W28678  18.304   8.865   2.484 -0.0268  0.2589 -0.0361
    1W        W28679  21.633  24.357   8.390  0.1807  0.0522 -0.0964
    1W        W28680  13.645   1.698   3.465  0.2607 -0.1995  0.3792
    1W        W28681  25.011   2.102   7.736 -0.2891  0.0452  0.3420
    1W        W28682  15.500   6.480   8.825  0.1973 -0.0838  0.0755
    1W        W28683  21.991   1.307   0.075  0.2919 -0.0953 -0.0036
    1W        W28684  16.258   5.808   7.157  0.2721 -0.0871 -0.3301
    1W        W28685  22.209  16.192   6.797 -0.3076 -0.2218  0.1937
    1W        W28686  27.289  23.321   6.941  0.3194  0.1234 -0.2501
    1W        W28687  13.137   6.638   0.583  0.0959 -0.1520  0.1447
    1W        W28688  21.307  23.080   3.495  0.2212 -0.0966  0.3122
    1W        W28689  14.017  10.877   9.827 -0.3487  0.0460 -0.0936
    1W        W28690  19.759  19.837   0.582  0.0464 -0.0693  0.1232
    1W        W28691  14.214  20.618   7.262  0.1129  0.1924  0.1431
    1W        W28692   9.074  19.350   1.249 -0.2286  0.0135 -0.0577
    1W        W28693  19.798  22.798   2.060 -0.1246 -0.0430 -0.0267
    1W        W28694  25.871   2.844   9.976 -0.0552  0.2716  0.0519
    1W        W28695  26.009   5.045   8.141  0.0578 -0.2292  0.0272
    1W        W28696  27.789  22.829   0.894 -0.1986  0.1442  0.1982
    1W        W28697  12.819  17.425   9.108 -0.2075  0.1092 -0.1157
    1W        W28698  17.736  23.946   8.834 -0.1082 -0.0262 -0.2893
    1W        W28699  23.205  17.332   2.780  0.1777  0.0936 -0.1579
    1W        W28700  21.729  17.611   0.712  0.0376 -0.5047  0.0718
    1W        W28701  23.863  25.192   8.687 -0.1192  0.1491 -0.0555
    1W        W28702  16.308  12.980   1.094  0.3076  0.1367  0.0671
    1W        W28703   2.435  10.422   9.825  0.1702 -0.1289 -0.0917
    1W        W28704  14.389  20.232   6.780  0.0593 -0.0975  0.1203
    1W        W28705  13.404  22.306   7.973 -0.0685 -0.0145  0.1960
    1W        W28706  14.747  16.218   2.379 -0.1062  0.3147  0.1000
    1W        W28707   9.634  21.896   0.255 -0.1050 -0.0801 -0.1366
    1W        W28708  27.365  11.905   2.708  0.0198  0.2756  0.1612
    1W        W28709   5.477   0.306   1.602  0.0033  0.3518  0.2794
    1W        W28710  10.116  25.775   0.968 -0.1248  0.1026 -0.0193
    1W        W28711   2.468   5.550   8.218  0.2035 -0.2323  0.2484
    1W        W28712  27.894   9.128  10.096 -0.1662  0.0166  0.0372
    1W        W28713  12.471  17.746   7.672  0.1433  0.3121 -0.1164
    1W        W28714  24.296   0.935   7.875  0.1440  0.1974  0.4022
    1W        W28715  20.919  25.011   0.946 -0.0147  0.3611  0.1141
    1W        W28716  20.562  13.307   7.879 -0.0554  0.1025 -0.1753
    1W        W28717  10.083   3.052   9.975  0.2581  0.0286 -0.1015
    1W        W28718  21.370   4.814  10.011 -0.1025 -0.1170 -0.0710
    1W        W28719  22.461  25.579   7.915  0.1855 -0.2067 -0.2002
    1W        W28720   5.197  16.098   7.960  0.1760 -0.0106  0.2388
    1W        W28721  24.181  21.436   7.476  0.0240 -0.1962 -0.2923
    1W        W28722  15.428   8.316   2.096 -0.1859 -0.0866  0.0290
    1W        W28723  21.231   3.678   2.213  0.0292 -0.0077  0.1059
    1W        W28724  10.882  11.149   8.601 -0.2980  0.4622 -0.1129
    1W        W28725  15.523  12.527   3.090  0.1016 -0.0280 -0.0938
    1W        W28726  16.627   3.833  10.065 -0.1401 -0.1411  0.0497
    1W        W28727  23.654   3.009   1.386 -0.3254  0.1470 -0.1774
    1W        W28728  11.640   5.009   8.953  0.0149 -0.2283  0.0332
    1W        W28729  19.274  10.422   9.086 -0.0866  0.1356 -0.5792
    1W        W28730   5.692  21.827   8.375 -0.0550  0.1716  0.2056
    1W        W28731   1.233  17.119   9.226 -0.0207  0.2468 -0.0282
    1W        W28732   0.739  10.083   2.332  0.1254  0.0330  0.0442
    1W        W28733   1.813  21.020   0.323  0.0951 -0.2209  0.1085
    1W        W28734   0.491  24.090   0.769 -0.0636 -0.0844 -0.0213
    1W        W28735   7.180   3.449   8.891  0.1887 -0.1146  0.0413
    1W        W28736   2.584   4.629   8.384 -0.0636 -0.0008 -0.1311
    1W        W28737  14.301   8.149   8.847  0.0884  0.3561  0.0865
    1W        W28738   5.609  12.126   0.901  0.1587  0.3522  0.0752
    1W        W28739  14.862  25.509   7.417  0.1276  0.2767  0.0454
    1W        W28740  20.145  17.480   1.032 -0.1825  0.1286  0.1953
    1W        W28741   2.613  15.530   8.180 -0.2256  0.0725  0.0402
    1W        W28742   0.329  12.511   7.321  0.0120 -0.1128 -0.4178
    1W        W28743   0.045   3.145   7.036 -0.2708  0.2419 -0.0376
    1W        W28744  25.564  18.363  10.204 -0.0465 -0.0409 -0.0721
    1W        W28745  11.425   9.453   2.701 -0.0265 -0.0346 -0.3184
    1W        W28746  27.507  10.122   1.889 -0.0173  0.0852  0.0515
    1W        W28747   4.938   6.562   1.326  0.2001 -0.2051 -0.1026
    1W        W28748  26.908   5.944   8.142  0.2900  0.1074  0.6221
    1W        W28749  22.989   2.930   2.263 -0.3409  0.0711  0.4186
    1W        W28750   7.835  13.183   7.814  0.1830  0.0758 -0.2952
    1W        W28751  19.732  25.453   1.849  0.0479  0.0162 -0.0448
    1W        W28752  24.089  10.778   0.350 -0.1254  0.1347 -0.2935
    1W        W28753  11.381  20.684   0.513 -0.1299 -0.0561 -0.1155
    1W        W28754   8.369  10.020   9.459  0.1035  0.0048  0.0552
    1W        W28755  22.540  13.428   6.980 -0.0373  0.0412 -0.3222
    1W        W28756  10.890  21.547   9.373  0.0622 -0.2634 -0.0861
    1W        W28757  20.589   3.599   0.351  0.0712 -0.0911 -0.5431
    1W        W28758   7.915   2.365  10.258  0.2606 -0.2582 -0.1961
    1W        W28759  25.888  12.076   8.295 -0.1511 -0.2093 -0.0141
    1W        W28760   0.083  12.065   6.598  0.1305  0.0513 -0.1481
    1W        W28761   3.340  26.208   1.572  0.1047  0.0518  0.1261
    1W        W28762  18.003  11.003   3.307 -0.0496 -0.0783 -0.1019
    1W        W28763   6.517   5.180   0.364 -0.2144  0.1716  0.1943
    1W        W28764   4.153  21.109   7.236  0.0845 -0.1259  0.4833
    1W        W28765  13.664  23.585   7.608  0.1277 -0.1038 -0.0922
    1W        W28766  17.893  24.943   8.885  0.3581  0.0509  0.1754
    1W        W28767   4.782  19.496   2.799 -0.1671 -0.0047 -0.1897
    1W        W28768  17.025  27.122   7.599  0.0017  0.0063  0.4720
    1W        W28769  23.233  24.143   1.981 -0.0466 -0.1437  0.1505
    1W        W28770  22.608   8.537   9.964 -0.1521 -0.1750 -0.0523
    1W        W28771   3.694  13.833   7.248  0.1693 -0.0112  0.3473
    1W        W28772   2.499  19.724   8.588 -0.0625 -0.0794  0.3317
    1W        W28773  19.561  10.974   7.538 -0.1497 -0.2805  0.0584
    1W        W28774  10.862  18.449   8.794 -0.0025 -0.0119 -0.2763
    1W        W28775  15.117  15.828   7.628  0.1362  0.0587 -0.0742
    1W        W28776  18.475  26.790   3.189  0.2173 -0.3634 -0.0040
    1W        W28777   2.043   9.962   8.927  0.2688 -0.0313  0.0563
    1W        W28778  21.003   6.781   0.523 -0.0087  0.2117 -0.1310
    1W        W28779  17.112  13.152   9.438 -0.2204  0.2006  0.0368
    1W        W28780  13.712   6.594   3.671  0.1846 -0.1540 -0.0554
    1W        W28781  10.579  11.283   2.927  0.1417  0.2328  0.0189
    1W        W28782   2.092  27.614   6.446 -0.0069  0.0282 -0.1433
    1W        W28783   3.989   6.414   8.411 -0.0455  0.1674 -0.1360
    1W        W28784   0.350  15.896   9.854  0.0866  0.0502  0.2257
    1W        W28785  19.408   8.508   3.180  0.0703  0.1300  0.1623
    1W        W28786  19.596  12.204   7.859  0.0844 -0.2442  0.1344
    1W        W28787   7.629   6.735   9.792  0.1492 -0.1873 -0.1795
    1W        W28788  19.602  15.546   8.129 -0.0195  0.0370 -0.0977
    1W        W28789  26.770  15.575   9.328  0.1394 -0.2824  0.3663
    1W        W28790  21.248  14.569   1.388 -0.2146 -0.0721 -0.1502
    1W        W28791   8.854  28.123   7.184  0.0645  0.1554  0.0369
    1W        W28792  12.874   3.606   7.497  0.2818 -0.0606 -0.3287
    1W        W28793  21.615  18.612   2.666  0.2967  0.0917 -0.2275
    1W        W28794   9.674  17.773  10.271 -0.0084 -0.1391 -0.1428
    1W        W28795  24.900  24.960   1.497 -0.0473  0.3009 -0.1131
    1W        W28796  19.392   6.173   9.167 -0.1323  0.1378 -0.1376
    1W        W28797   7.479  27.024  10.272 -0.0318  0.3484 -0.0394
    1W        W28798   1.799  17.626   2.537 -0.0368 -0.2697 -0.2343
    1W        W28799  10.428   3.682   9.346 -0.3088  0.1713  0.2640
    1W        W28800  15.365  17.057   9.485 -0.1829  0.2155 -0.0374
    1W        W28801  10.166   9.128   1.760  0.0446 -0.0651 -0.1115
    1W        W28802  26.719   7.885   9.389 -0.0131  0.2830 -0.0832
    1W        W28803   0.402  24.232   2.618  0.0559 -0.2162  0.0180
    1W        W28804  20.963  25.564   8.404  0.2383 -0.3134 -0.1924
    1W        W28805  17.845   7.689  10.131 -0.1205  0.1690  0.1135
    1W        W28806   8.249  19.078   1.336  0.0661  0.0255 -0.0363
    1W        W28807   1.027   2.525   8.653  0.0246  0.2418  0.1095
    1W        W28808  20.270  26.331   6.973 -0.0501  0.1636 -0.1457
    1W        W28809  10.813  24.931   0.565  0.1782 -0.1732  0.2243
    1W        W28810  21.103  11.064   8.285  0.0835  0.0825  0.1916
    1W        W28811   9.493  10.897   8.219  0.3393 -0.2962  0.0043
    1W        W28812   0.597   3.477   0.743  0.0083  0.0412 -0.2098
    1W        W28813  23.448   3.455   1.562 -0.2093  0.2455 -0.0041
    1W        W28814  22.602  15.349   0.111 -0.1165  0.1738 -0.1798
    1W        W28815  18.462  11.554   2.469  0.1986 -0.1537 -0.1491
    1W        W28816  23.765   8.865   8.340  0.3534  0.0633 -0.0591
    1W        W28817   5.718   6.940   6.304  0.0205  0.0201 -0.2291
    1W        W28818  16.194   1.624   7.654 -0.1454  0.0449  0.0595
    1W        W28819   2.160   7.447   9.699 -0.0161  0.4553  0.0843
    1W        W28820  20.405  17.326   3.352 -0.2954  0.0572  0.0955
    1W        W28821  14.893   8.862   1.400  0.2740 -0.1685  0.0139
    1W        W28822   5.103  26.972   7.191  0.0002 -0.1728 -0.2815
    1W        W28823   5.138  22.051   0.601  0.1593  0.0108 -0.0136
    1W        W28824  10.243  15.436   1.030 -0.0346  0.1139  0.0097
    1W        W28825   1.866  16.821   2.083  0.3608  0.0640  0.0285
    1W        W28826  16.394   1.375   8.855 -0.0975  0.1198  0.0948
    1W        W28827   5.423   1.325   7.040 -0.1229 -0.0715 -0.2781
    1W        W28828  18.676   3.603   9.444  0.4427 -0.0600 -0.0383
    1W        W28829  16.143   7.688   9.188 -0.0727  0.0085 -0.2390
    1W        W28830  14.238  17.302   7.860 -0.1805 -0.3204  0.0267
    1W        W28831  12.407  14.670   8.590 -0.2327  0.1327  0.2288
    1W        W28832  16.421  11.721   4.193 -0.0131 -0.0631  0.0944
    1W        W28833   1.937   0.383   8.357  0.1728  0.0403  0.0690
    1W        W28834   4.280   4.741   9.894  0.2823  0.0121 -0.1631
    1W        W28835   0.636  26.194   2.032  0.0341 -0.0656 -0.0093
    1W        W28836  26.053  12.022   2.168  0.0509  0.0656  0.0295
    1W        W28837  26.015  19.165   0.286 -0.0620 -0.2414  0.0265
    1W        W28838   8.337  17.176   9.302 -0.1582  0.1183  0.0945
    1W        W28839   9.340   7.693   7.960  0.3281  0.1451  0.1328
    1W        W28840   3.775  22.302  10.024  0.0968  0.1524 -0.0325
    1W        W28841   0.703  10.982   9.391  0.0646 -0.2326 -0.1105
    1W        W28842  23.018  25.729   0.082  0.0810  0.1925  0.0003
    1W        W28843   3.694   7.482   1.158  0.1962  0.1087  0.3342
    1W        W28844   1.245   7.247   1.838  0.3190  0.0496  0.0591
    1W        W28845  18.267   5.415   3.344  0.1618  0.0872 -0.0708
    1W        W28846   3.200  22.890   9.532  0.0327 -0.3138 -0.0997
    1W        W28847  13.257  17.451   7.806  0.0309  0.2428 -0.3537
    1W        W28848  26.573  12.137   7.674  0.1655  0.0802 -0.1881
    1W        W28849   3.053  10.808   9.428  0.1721 -0.0084  0.3959
    1W        W28850  10.916   8.366   0.669  0.3945 -0.1557  0.2174
    1W        W28851  23.256   1.345   0.323  0.0510  0.3583  0.0864
    1W        W28852   4.902  12.511   1.820 -0.3464  0.0906 -0.2572
    1W        W28853  26.263   9.834   7.530 -0.0864 -0.0433  0.3587
    1W        W28854   5.779   4.560   7.503  0.1544  0.1016  0.1161
    1W        W28855  24.300  14.454   8.352  0.0099 -0.0625  0.0244
    1W        W28856   5.152  27.712   7.421 -0.1328  0.0348  0.2283
    1W        W28857   9.811  26.781  10.198  0.2173 -0.0044  0.0228
    1W        W28858  27.788  20.567   2.319  0.1103  0.1254 -0.0417
    1W        W28859  19.883  19.294   0.712 -0.0146 -0.0182 -0.0984
    1W        W28860  25.611  22.166  10.014  0.2259  0.1305  0.1617
    1W        W28861  27.826   8.868   0.167  0.0628  0.0086 -0.3556
    1W        W28862  22.788  14.056   9.379 -0.3589  0.0753 -0.1164
    1W        W28863  27.506   2.136  10.104 -0.1624  0.1467 -0.1054
    1W        W28864  12.985  27.564   9.020 -0.0615  0.0688 -0.2194
    1W        W28865  26.374  24.383   0.874  0.0055 -0.0130  0.1914
    1W        W28866  24.015  12.322   0.812  0.0465  0.3564 -0.4156
    1W        W28867   6.146   1.636   2.884 -0.4536 -0.2956  0.1880
    1W        W28868  19.829  17.782   0.717  0.1560  0.1312  0.0310
    1W        W28869  20.030  16.996   1.405  0.1740 -0.2325 -0.1342
    1W        W28870   6.901   2.095  10.014 -0.2057  0.1473 -0.4593
    1W        W28871  13.128  11.324   0.487 -0.3623 -0.2022 -0.2014
    1W        W28872  10.979   4.672   0.510  0.1123 -0.1401 -0.1352
    1W        W28873  10.457  16.986   0.505 -0.2480  0.1558 -0.5409
    1W        W28874   6.451  10.867   1.027  0.0075  0.4525 -0.0971
    1W        W28875   9.880   2.213   1.001 -0.2463 -0.0939  0.0544
    1W        W28876   3.573  11.771   2.198  0.1152 -0.1122  0.1513
    1W        W28877  12.317  27.198   2.900  0.1838 -0.0990 -0.0824
    1W        W28878  26.554   0.575   2.947 -0.1905 -0.0083  0.1157
    1W        W28879  20.788  20.062   1.338  0.2230 -0.0870 -0.0495
    1W        W28880  11.343  17.979   2.773 -0.0902  0.1794 -0.0276
    1W        W28881   8.761  23.204   1.438  0.0228  0.0676  0.1796
    1W        W28882  24.070  19.115   2.647 -0.4391  0.1290 -0.0131
    1W        W28883  17.890  16.545   0.951  0.1050 -0.2157 -0.0828
    1W        W28884  18.297  20.940   7.007 -0.1058  0.2236 -0.2005
    1W        W28885  21.575  26.957   8.611 -0.1178 -0.0408  0.1140
    1W        W28886  10.752  15.602   9.412  0.2239 -0.0487 -0.1360
    1W        W28887  26.824  10.022   9.674  0.0628  0.0751  0.0659
    1W        W28888  20.126   2.799  10.010  0.0692  0.1132  0.4101
    1W        W28889   8.703  17.638   1.501 -0.1802 -0.0435 -0.1166
    1W        W28890  20.387  20.873   8.190 -0.1737  0.0998 -0.1865
    1W        W28891  12.360  16.327   1.954  0.6280  0.1592 -0.0671
    1W        W28892   9.324  21.406   2.311 -0.1014 -0.3358 -0.0790
    1W        W28893   0.142   8.846   6.917  0.0543 -0.1198  0.1281
    1W        W28894  20.708   3.555   8.416 -0.2623  0.1810  0.3135
    1W        W28895  13.490  14.412   0.907  0.2626 -0.2253  0.1248
    1W        W28896  18.152  21.661  10.094 -0.0323 -0.0114 -0.2623
    1W        W28897  15.989  17.711   0.164 -0.3173  0.0971 -0.0366
    1W        W28898  13.585  15.197   9.070  0.0029  0.0691 -0.0467
    1W        W28899  19.801   5.259   2.669 -0.2580  0.2135  0.2250
    1W        W28900  16.689  25.596   9.822 -0.1657  0.1382  0.1332
    1W        W28901   1.379   9.042   7.898  0.0717 -0.0484  0.2373
    1W        W28902  22.384  24.062   7.361  0.1493 -0.1890 -0.1096
    1W        W28903   3.156   8.207   7.187  0.2587  0.0718 -0.0262
    1W        W28904  18.190  27.429   9.530  0.3480  0.0154 -0.0642
    1W        W28905   4.674  24.344   0.742 -0.2071  0.0112 -0.0921
    1W        W28906  16.354  13.804   8.320  0.3459  0.0143  0.1388
    1W        W28907   7.852  19.133   7.620  0.3044  0.1040  0.2208
    1W        W28908   4.997  23.847   7.875 -0.1651  0.3459 -0.1318
    1W        W28909  27.780  23.467   7.236  0.0579  0.2866 -0.1133
    1W        W28910  17.674  25.883   8.077  0.0085  0.1215 -0.0209
    1W        W28911  13.704  13.111   4.210 -0.2719 -0.0857 -0.0527
    1W        W28912  25.889   3.274   8.130  0.1209  0.1438 -0.0317
    1W        W28913  15.963  19.597   2.805 -0.2635 -0.0418  0.2576
    1W        W28914  18.300  10.441   1.606  0.1873 -0.0198  0.0147
    1W        W28915  17.123   7.664   2.206  0.1117 -0.2014 -0.1818
    1W        W28916  25.366   5.890   0.276 -0.4419 -0.1664 -0.0019
    1W        W28917   5.995  27.424   7.164  0.0019 -0.2191 -0.2509
    1W        W28918   3.027   3.657   2.103 -0.2285 -0.1775  0.3056
    1W        W28919   1.520  14.755   7.721 -0.0471 -0.1529 -0.3164
    1W        W28920  18.065   3.308  10.362  0.0063 -0.3722 -0.0476
    1W        W28921   4.218   4.609   8.037 -0.0904  0.0362 -0.2098
    1W        W28922  24.579  15.156   7.613  0.0498 -0.0501 -0.0636
    1W        W28923  24.901  14.661   0.351 -0.2419 -0.0392  0.1795
    1W        W28924  27.985   2.313   8.009 -0.0296 -0.0398  0.2612
    1W        W28925  21.672  16.818   3.496  0.1057  0.1359 -0.0759
    1W        W28926  22.400  11.876   9.826  0.1279  0.1738  0.3002
    1W        W28927   2.157  21.222   0.752  0.0981  0.2471 -0.2426
    1W        W28928  23.201  22.288   8.818  0.1615 -0.1377  0.2437
    1W        W28929  18.345  16.725   1.115 -0.3179 -0.0696  0.0215
    1W        W28930  27.659   9.601   6.919 -0.1020 -0.0874 -0.3598
    1W        W28931  13.444   1.019   2.661 -0.0561  0.1615 -0.0947
    1W        W28932   1.528   5.900   1.022 -0.0577 -0.0064  0.4049
    1W        W28933  14.006  16.655   0.683  0.2006 -0.2945 -0.1485
    1W        W28934  25.402  27.506   7.887  0.1496 -0.0236 -0.0187
    1W        W28935  16.918   6.355   9.042  0.2856 -0.1811 -0.0259
    1W        W28936  24.049  13.008   2.295 -0.0292  0.1156  0.1018
    1W        W28937  20.268  14.484   9.877 -0.2510 -0.0647  0.0485
    1W        W28938   2.243   2.049   1.008 -0.0609 -0.0589 -0.0966
    1W        W28939   1.675   0.380   7.678  0.0755 -0.0817 -0.1872
    1W        W28940  11.159   4.790   9.851  0.1742  0.1161 -0.0413
    1W        W28941  20.659   9.145   8.919  0.2844  0.1618  0.0050
    1W        W28942   8.151   7.417   7.239  0.2604  0.1603 -0.1102
    1W        W28943  24.163  22.750   7.046 -0.0893  0.1766  0.2501
    1W        W28944  24.501  21.281   2.892 -0.2855 -0.2403 -0.0353
    1W        W28945  15.941  11.754  10.147 -0.0653  0.1600 -0.3790
    1W        W28946  26.286  19.960   7.317 -0.4395  0.0881  0.4015
    1W        W28947  11.130  10.965   3.577 -0.0262  0.0607  0.0805
    1W        W28948  14.107   2.293   2.006  0.0988  0.0700  0.1230
    1W        W28949   6.033  26.652   9.967  0.0800  0.0885 -0.2249
    1W        W28950  26.830  26.688   0.194  0.1114 -0.0496 -0.0596
    1W        W28951   1.145  22.590  10.114 -0.0019  0.0097 -0.1693
    1W        W28952  10.309  22.959   7.749  0.0066  0.0075 -0.0875
    1W        W28953  24.572  11.744   0.592  0.4416 -0.3583 -0.3375
    1W        W28954  10.170  19.767   2.314  0.4958 -0.0962 -0.0998
    1W        W28955  11.657  16.255   7.943  0.0537 -0.0026  0.1349
    1W        W28956  19.248  25.345   9.997  0.0623 -0.1339 -0.1895
    1W        W28957  21.204  16.639   3.638  0.4174  0.0349  0.2148
    1W        W28958  10.692  27.185   1.186  0.1605 -0.1171  0.0744
    1W        W28959   6.923   4.936   0.158  0.0957 -0.2875 -0.3543
    1W        W28960   2.645   4.076   7.664 -0.0915 -0.1501 -0.1071
    1W        W28961   7.569   9.117  10.216  0.0491 -0.4942 -0.1262
    1W        W28962  14.148  14.224   3.381  0.1458 -0.2097  0.1006
    1W        W28963  24.507   1.067   1.390  0.0415 -0.1308  0.1596
    1W        W28964   5.591   7.869   0.110  0.0487 -0.4613  0.1853
    1W        W28965   0.307  12.859   6.527 -0.1621  0.1139 -0.0246
    1W        W28966  21.913  14.084   2.167  0.0448 -0.0216  0.1355
    1W        W28967  25.265  21.545   6.671  0.3673 -0.0628  0.1402
    1W        W28968   4.541  24.113   9.680  0.0518 -0.0844 -0.1819
    1W        W28969   6.169  20.740   0.675  0.0751 -0.0047 -0.6558
    1W        W28970  10.485  27.826   9.361  0.1695 -0.1853  0.0318
    1W        W28971  25.776  11.703  10.271 -0.0114 -0.0618  0.3807
    1W        W28972  14.967  19.300   7.575 -0.0473  0.2284 -0.2117
    1W        W28973   6.646  16.281   1.321  0.2106  0.0446  0.1224
    1W        W28974  14.546  23.070   9.096  0.0267  0.2044 -0.0573
    1W        W28975  14.735  24.514   0.212  0.3412  0.0666  0.1141
    1W        W28976  22.390  12.536   7.383  0.1031  0.0366  0.0724
    1W        W28977   9.554  10.702   9.297 -0.0410  0.3206  0.1711
    1W        W28978  23.842  17.378   8.949 -0.1856  0.0249  0.0601
    1W        W28979  14.488   1.927   9.448  0.0116 -0.0932 -0.0431
    1W        W28980   3.042   2.169   8.574  0.0522 -0.1338  0.1116
    1W        W28981  16.847  26.585   0.344  0.1796  0.0521  0.0284
    1W        W28982  20.986  19.910   0.479  0.2115 -0.1474 -0.2076
    1W        W28983   6.682  27.467   8.713 -0.0303 -0.2352  0.0911
    1W        W28984   7.187  21.776   8.470  0.0412  0.1037  0.3041
    1W        W28985  21.159  21.973   8.120  0.0303  0.2670 -0.0770
    1W        W28986  18.715   9.370  10.078  0.0308  0.3032  0.3123
    1W        W28987  18.317  12.191   1.884 -0.0507  0.0741  0.0504
    1W        W28988  10.355  18.303   9.488  0.1600 -0.0113 -0.0957
    1W        W28989   6.832  11.834   2.552 -0.3030  0.5646  0.0575
    1W        W28990  19.306  17.028   0.757 -0.1754 -0.2566  0.0292
    1W        W28991  18.191   6.655   6.715 -0.1201  0.0304 -0.1072
    1W        W28992  15.538  14.631   1.265  0.1191  0.1960  0.0721
    1W        W28993  15.177   7.164   2.735 -0.0723 -0.1136 -0.1810
    1W        W28994  19.797  11.225  10.199  0.3731 -0.1704  0.1425
    1W        W28995  21.766   8.239   8.432  0.0632 -0.3497  0.0952
    1W        W28996  22.391  26.037   9.389  0.3185  0.1724  0.0559
    1W        W28997  24.618  22.135   9.165 -0.0677 -0.1508 -0.0242
    1W        W28998   3.609  16.307   6.957 -0.1676 -0.1331  0.2141
    1W        W28999   9.319  15.234   9.556  0.1352 -0.0791 -0.0270
    1W        W29000  13.876  16.445   2.508  0.2381  0.1504 -0.0830
    1W        W29001   8.916  15.502   2.795  0.1602  0.1229 -0.0854
    1W        W29002   7.575  16.198   8.612  0.0629  0.1872  0.1997
    1W        W29003   1.172  18.495   1.702  0.1232  0.3643 -0.1321
    1W        W29004   8.813   9.382   8.795 -0.2272 -0.2883 -0.0271
    1W        W29005  22.155   4.185   8.554  0.1325 -0.1224 -0.0492
    1W        W29006   1.688  23.096   8.743  0.0268 -0.0112 -0.2312
    1W        W29007  20.730   8.953   1.222 -0.0888  0.1742 -0.1280
    1W        W29008  22.604   3.303   8.380 -0.1402 -0.2736 -0.0032
    1W        W29009  26.479  16.127   1.909  0.0981 -0.2398 -0.0834
    1W        W29010  11.635   4.419   3.313  0.2436 -0.0842  0.1447
    1W        W29011  19.350   9.679   8.687  0.1622 -0.0837  0.0886
    1W        W29012  20.767   6.761   8.421 -0.5205  0.0288  0.1498
    1W        W29013   5.150  14.128   0.350 -0.0173 -0.1168  0.1130
    1W        W29014  12.927  14.414  10.086  0.0837  0.0672  0.0837
    1W        W29015   7.807   5.929   7.934 -0.3779  0.1406 -0.4195
    1W        W29016  20.714  23.458   2.950 -0.0624 -0.2907 -0.0637
    1W        W29017  15.276  19.689   9.007 -0.1549 -0.1652  0.3301
    1W        W29018  19.700  11.739   8.012  0.0385  0.0346 -0.3214
    1W        W29019  17.802  26.800   8.135 -0.2218  0.1353  0.1376
    1W        W29020  12.119  16.018   8.742  0.3106 -0.2154  0.2285
    1W        W29021  12.028  13.999   3.156 -0.1140 -0.0522 -0.2346
    1W        W29022   7.758  21.822   9.724  0.2440  0.0699  0.3641
    1W        W29023  24.463  28.035   2.660 -0.1292 -0.2250  0.2206
    1W        W29024  25.123  26.567   7.682 -0.2515 -0.1575 -0.0454
    1W        W29025  19.543   5.205  10.137  0.3048  0.2059 -0.3558
    1W        W29026   5.000  27.626   7.906 -0.0706  0.5162 -0.0655
    1W        W29027  17.354   8.534   2.924 -0.0266  0.0306 -0.2093
    1W        W29028  25.132   4.674   0.890  0.1863 -0.0380 -0.1325
    1W        W29029   9.650   9.177   1.797  0.0988  0.0243  0.0291
    1W        W29030  15.354  23.438   9.613  0.0322 -0.1213 -0.0136
    1W        W29031   9.860  23.409   9.014 -0.0336  0.0821  0.1562
    1W        W29032   3.547  15.656   7.224 -0.0827  0.2327  0.2797
    1W        W29033  23.936  17.245   9.397 -0.5110  0.3581  0.2794
    1W        W29034  11.638  25.389   2.276  0.2373 -0.3555  0.0732
    1W        W29035  27.435   5.881  10.143  0.0077  0.0919  0.1551
    1W        W29036  26.224  27.868   3.396 -0.1394 -0.1586 -0.0462
    1W        W29037  23.777  19.207  10.119  0.2289  0.0520 -0.2181
    1W        W29038   0.439   3.487   2.769 -0.1684  0.2061  0.1069
    1W        W29039   4.097   1.764   8.897 -0.0643 -0.0297 -0.1879
    1W        W29040  20.606  13.069   2.318  0.0057 -0.0240 -0.0032
    1W        W29041   4.874   7.575   7.759  0.3442 -0.0445  0.2108
    1W        W29042   7.785  12.965   0.153 -0.3351  0.0657 -0.2443
    1W        W29043   6.994   1.221   8.724 -0.0268 -0.3697  0.0610
    1W        W29044   4.897  12.053   0.187  0.1573 -0.0384  0.0939
    1W        W29045  17.751  15.335   2.638 -0.4084  0.0834 -0.0390
    1W        W29046  15.197   2.788   4.205 -0.0106  0.2104  0.0003
    1W        W29047  17.952   1.708   1.011 -0.2483  0.1563 -0.3198
    1W        W29048   8.922  15.563   9.675 -0.0766 -0.1214 -0.1057
    1W        W29049  18.331  13.589   2.684  0.1792  0.1570 -0.0410
    1W        W29050   7.754  16.347   1.359  0.4126 -0.0264 -0.4439
    1W        W29051  10.986  26.161   7.646  0.3746 -0.1572  0.0322
    1W        W29052   6.545   1.317   7.402 -0.0406  0.0452  0.0540
    1W        W29053  11.330  22.921   1.105 -0.0242  0.1404 -0.1555
    1W        W29054   6.986  20.661   1.737 -0.1695  0.0656 -0.0122
    1W        W29055  15.499  26.720   2.717 -0.1014 -0.3220  0.2635
    1W        W29056   5.727  25.848   0.103  0.2788 -0.1559  0.0335
    1W        W29057  11.856   2.074   2.531  0.0114 -0.1790  0.2495
    1W        W29058  16.041   5.042   9.366 -0.0552  0.0483 -0.1466
    1W        W29059  27.213   4.929   2.673 -0.0908  0.0778 -0.2185
    1W        W29060   9.012  23.217   8.571 -0.1262  0.0142  0.3256
    1W        W29061   1.144  14.330   6.849  0.1101  0.3465  0.0791
    1W        W29062  14.081   9.292   8.220 -0.1764  0.2056  0.2614
    1W        W29063  27.713   3.819   1.952  0.2771 -0.1859  0.1318
    1W        W29064  12.102   3.222  10.338 -0.0489 -0.4154  0.0234
    1W        W29065  13.905   2.842   0.138 -0.1436  0.1129  0.0011
    1W        W29066  23.077  12.306   3.598  0.1556 -0.1052  0.3125
    1W        W29067  16.610  10.037  10.166  0.1764 -0.5656  0.0806
    1W        W29068  23.565   6.776   1.135 -0.2450  0.0264 -0.0579
    1W        W29069  27.966  19.412   0.834  0.2814  0.0204 -0.2894
    1W        W29070  27.589  16.231   1.044  0.0651  0.0149 -0.3078
    1W        W29071  25.713  23.391   6.927 -0.1290 -0.0402 -0.0456
    1W        W29072  12.239   1.463   9.632  0.1259 -0.4894 -0.3420
    1W        W29073   0.474  24.309   9.502  0.2216 -0.0535  0.0934
    1W        W29074  24.648   8.656   7.301 -0.2769 -0.0291  0.2796
    1W        W29075  15.487   9.414   2.019  0.1689  0.1994  0.3965
    1W        W29076  15.782  11.341   9.371  0.2587 -0.1879 -0.1466
    1W        W29077  13.528  11.422   8.651 -0.0728 -0.0194  0.1642
    1W        W29078   8.680  25.169   9.318  0.3568  0.0823 -0.3391
    1W        W29079  21.010  20.480   1.023 -0.0015 -0.1770 -0.0169
    1W        W29080   6.085  27.762   0.990  0.0389  0.1200 -0.0840
    1W        W29081  14.301  12.129   8.482 -0.0817 -0.0341 -0.0036
    1W        W29082  13.667   4.021   8.149 -0.2131  0.2381 -0.1246
    1W        W29083  11.220  22.769   3.060  0.0938  0.2134  0.1050
    1W        W29084   5.623  13.181   9.353 -0.2893 -0.0702  0.0659
    1W        W29085  22.295   6.752   0.204  0.0805 -0.2523 -0.0589
    1W        W29086  10.477   5.053   0.235  0.0636 -0.1078 -0.1074
    1W        W29087   9.436  10.099   2.802 -0.0495  0.2885 -0.1586
    1W        W29088   7.927  14.435   7.196  0.1172  0.1700 -0.1014
    1W        W29089  22.657   5.699   6.336 -0.1069 -0.1622  0.0379
    1W        W29090  22.117  24.742   2.378 -0.3551 -0.2021  0.0501
    1W        W29091   9.585   4.385   9.647  0.2120  0.6009 -0.2217
    1W        W29092  20.802   6.815   1.961 -0.3054 -0.3015 -0.0089
    1W        W29093  17.227   7.948   9.562 -0.0939  0.2648  0.1998
    1W        W29094   7.048   8.224   3.664 -0.0377  0.3408 -0.5479
    1W        W29095   7.973  15.875   8.631 -0.1441 -0.0727  0.0536
    1W        W29096  13.568  26.825   0.731  0.0436 -0.0181  0.0335
    1W        W29097  11.060  11.125   2.946 -0.3383 -0.0146 -0.1950
    1W        W29098   2.504   4.548   9.987  0.3451 -0.2015  0.0578
    1W        W29099  20.308  22.582   9.026  0.0975 -0.2067 -0.1030
    1W        W29100   4.494  15.960   9.098  0.2061  0.1283  0.1472
    1W        W29101  18.396  21.497   6.919  0.0513  0.1124  0.3160
    1W        W29102  13.452  26.353   7.608  0.0309 -0.0644  0.0250
    1W        W29103  23.346  12.883  10.049 -0.1129  0.1567  0.1713
    1W        W29104  25.037   9.013   7.993 -0.0130  0.1030 -0.0465
    1W        W29105  18.868   3.011   7.444  0.1768  0.2222 -0.0722
    1W        W29106   4.880   5.774   6.220 -0.0811  0.0317 -0.0940
    1W        W29107  25.654  21.163   9.482 -0.0187 -0.2490 -0.0317
    1W        W29108  18.137  16.177   2.759 -0.0742 -0.2493 -0.0798
    1W        W29109  23.350  13.694   6.865 -0.2788  0.2801  0.3314
    1W        W29110   0.839  10.247   9.423 -0.2612 -0.0004 -0.3400
    1W        W29111  12.143   9.563   9.936  0.2290 -0.1043 -0.0922
    1W        W29112  19.311  16.303   1.840  0.0809 -0.0621  0.1129
    1W        W29113   1.586   2.178   6.661 -0.0368  0.0482 -0.2179
    1W        W29114  11.827   7.116   1.001  0.1235  0.0606 -0.1065
    1W        W29115   5.585   7.274   8.491 -0.1182  0.0469  0.1008
    1W        W29116  25.351  19.626   8.448 -0.1137 -0.0523  0.0830
    1W        W29117  17.300  12.335   0.745 -0.0991 -0.2227  0.2212
    1W        W29118  22.791  23.731   9.146 -0.0830  0.2456  0.1907
    1W        W29119  11.972  24.849   0.401 -0.3497 -0.1057  0.0869
    1W        W29120   9.124   1.572  10.157  0.2344  0.0402  0.0946
    1W        W29121   9.575  12.377   0.592  0.0208  0.2285  0.1304
    1W        W29122   6.694  25.585   8.862  0.0421  0.0935  0.2303
    1W        W29123  16.601  20.980   7.947 -0.0580 -0.0180 -0.3417
    1W        W29124  24.520   1.073   9.363  0.0707 -0.1944  0.0689
    1W        W29125   6.724  25.065   9.811 -0.2160  0.1207 -0.0803
    1W        W29126  16.678   8.608   1.134  0.1766  0.0680  0.0511
    1W        W29127  23.703  10.821   9.531 -0.2276 -0.0140  0.0268
    1W        W29128   5.199  20.405   2.015 -0.3219 -0.0868  0.0213
    1W        W29129   2.597   8.950   0.724 -0.0167 -0.2187  0.1126
    1W        W29130  23.563   2.731   1.004 -0.2976 -0.1059 -0.3488
    1W        W29131  19.718  19.031   8.530 -0.1424  0.0172  0.0219
    1W        W29132   1.167  18.116   2.019 -0.0295 -0.0984 -0.0497
    1W        W29133  22.496  15.796   9.556 -0.2119 -0.2711 -0.0819
    1W        W29134  28.034  25.761  10.357 -0.0484 -0.1102 -0.1260
    1W        W29135   7.554  23.935   7.196  0.0329 -0.1258  0.0387
    1W        W29136   3.123  23.002   6.825 -0.1900 -0.2234 -0.0041
    1W        W29137  26.291   4.740   7.316  0.0246 -0.2912 -0.1030
    1W        W29138  19.900  18.701   9.067  0.1105  0.0010  0.0122
    1W        W29139  23.053   2.440   0.816 -0.0434  0.1359  0.1622
    1W        W29140  23.730  28.058   0.593 -0.1286 -0.2929  0.5388
    1W        W29141  17.274   5.824   7.784  0.0621  0.2696 -0.0716
    1W        W29142   9.742   0.154  10.354  0.2160  0.1812 -0.0109
    1W        W29143  27.739  11.515   0.597  0.1157 -0.0930 -0.0244
    1W        W29144  24.024  13.816   8.570 -0.0908 -0.1545  0.2363
    1W        W29145   2.292  17.251   7.852 -0.0761 -0.0651  0.0819
    1W        W29146  16.784  16.073   0.970 -0.1961  0.1019  0.1550
    1W        W29147   9.400  14.933   0.730  0.0699  0.0100  0.1280
    1W        W29148   5.307  18.273   2.942  0.2870 -0.1688 -0.1375
    1W        W29149   7.890   8.703   7.763 -0.1059 -0.0411  0.3960
    1W        W29150  19.581  19.731   9.979  0.0672 -0.1772 -0.0420
    1W        W29151  19.115  10.698   3.891  0.1252 -0.0254 -0.0231
    1W        W29152  12.487   9.412   2.129  0.0471 -0.3626 -0.0463
    1W        W29153   2.654  10.213   7.846  0.4017  0.1083 -0.0542
    1W        W29154  10.390   1.555   1.606 -0.0988  0.0669 -0.1829
    1W        W29155  20.176  15.172   8.028  0.0914 -0.0290 -0.0746
    1W        W29156  19.333   5.084   2.321  0.1720  0.0233 -0.1070
    1W        W29157  12.720   1.052   2.928  0.0073 -0.1349  0.0368
    1W        W29158  11.135  13.044   8.002 -0.1020  0.0158  0.0992
    1W        W29159   1.203  28.074   1.128 -0.1891  0.1426  0.1544
    1W        W29160  12.253   2.086   8.385 -0.2663 -0.1997 -0.0843
    1W        W29161   7.718  21.848   9.113 -0.0227 -0.0775 -0.1854
    1W        W29162   5.175   6.458   0.849  0.1261 -0.0623 -0.0596
    1W        W29163  20.289   7.318   0.289  0.1304  0.0059  0.2541
    1W        W29164   2.944  12.645   2.153  0.1011 -0.1765 -0.1655
    1W        W29165   7.904  16.403   8.152 -0.1577 -0.0880 -0.0683
    1W        W29166   1.807   8.312   0.666 -0.0797 -0.0573 -0.0742
    1W        W29167  25.612  11.270   3.389  0.0868  0.0904  0.2575
    1W        W29168  11.028  22.983   1.940  0.1858  0.0334 -0.0501
    1W        W29169  26.963   8.394   0.106  0.0205  0.0081  0.2183
    1W        W29170  16.085  27.239   1.960 -0.1028 -0.1047 -0.0417
    1W        W29171  26.175   8.011   0.508 -0.0407 -0.4524  0.2267
    1W        W29172  21.982  25.931   3.081  0.2147 -0.2056  0.1840
    1W        W29173  21.015  14.586   0.679  0.1722  0.1148  0.2663
    1W        W29174  19.618  23.065   1.041 -0.2292  0.1059  0.2990
    1W        W29175  22.046  21.445   7.459  0.2721  0.0781  0.3467
    1W        W29176   3.700  18.194   1.825  0.1230  0.2565 -0.1374
    1W        W29177  24.405  12.159   2.159  0.0172 -0.0515 -0.1071
    1W        W29178  26.792   1.466   7.894 -0.0062  0.0512  0.1850
    1W        W29179  16.499   9.713   7.905  0.0183  0.0191 -0.1463
    1W        W29180   1.395   2.928   0.487  0.0125  0.1026 -0.2011
    1W        W29181  15.132  10.169   8.691 -0.1836  0.0940  0.1727
    1W        W29182  19.688  14.103   2.230 -0.1876  0.1101 -0.0474
    1W        W29183   0.416  13.333   8.860  0.0072  0.1186  0.1929
    1W        W29184  23.983  26.831   3.361 -0.0281  0.0161  0.1946
    1W        W29185  19.466  14.773   7.928 -0.1214 -0.1501 -0.1411
    1W        W29186  20.487   0.945  10.120  0.0851  0.1252 -0.0902
    1W        W29187  25.262  27.685   0.857 -0.0093  0.0782  0.0013
    1W        W29188  22.381   4.566   8.809  0.0967 -0.1335  0.0018
    1W        W29189  26.676   9.629   6.442 -0.0595  0.1806  0.1304
    1W        W29190   8.510  11.604   9.768 -0.1697  0.2043 -0.1119
    1W        W29191  25.298   7.539   1.886  0.0658  0.1694 -0.2586
    1W        W29192  21.990  28.092  10.177  0.1556  0.2166  0.0598
    1W        W29193  11.764  17.327   0.366 -0.2470 -0.0288  0.0807
    1W        W29194   7.353   3.244   7.624  0.0325 -0.1422 -0.1565
    1W        W29195  26.446  20.417   7.506 -0.0712  0.2206 -0.0841
    1W        W29196  27.207   6.270   0.911  0.0706  0.2403 -0.0611
    1W        W29197  10.751   3.850   9.681  0.1125  0.0051 -0.0489
    1W        W29198   6.024   8.094   6.727 -0.3255  0.0649  0.1184
    1W        W29199  25.828   2.760   9.474  0.0677  0.2981  0.1835
    1W        W29200   9.003  27.957  10.301  0.1618 -0.0548 -0.1188
    1W        W29201  13.531   7.974   1.231 -0.0910 -0.1298  0.1874
    1W        W29202  18.983  21.413   2.656 -0.1350 -0.3856  0.1749
    1W        W29203  25.471  24.055   1.007  0.1827  0.0949 -0.3564
    1W        W29204  22.394   2.600   2.946 -0.3535  0.0110 -0.0461
    1W        W29205   6.154   8.186   1.167 -0.1967  0.2039 -0.3252
    1W        W29206  20.173  24.639   0.772 -0.2536 -0.1152  0.0092
    1W        W29207  16.196  12.103   2.483 -0.2317 -0.1579 -0.4417
    1W        W29208  15.660  11.856   0.179  0.0817 -0.2855  0.2671
    1W        W29209   5.818   8.027   7.677  0.3332  0.1299 -0.0465
    1W        W29210  23.667   7.922   8.881  0.1552 -0.0812  0.0928
    1W        W29211   0.892  21.227  10.340 -0.1314  0.1427  0.0955
    1W        W29212  14.623  18.269   2.433 -0.0024  0.3809  0.1415
    1W        W29213   4.345   2.861   6.923 -0.0529 -0.2994 -0.2062
    1W        W29214   3.279   0.291   8.561  0.2492  0.0436  0.2111
    1W        W29215  12.211  20.801   2.836 -0.0265  0.2677 -0.1840
    1W        W29216   3.491  20.795   1.296 -0.0433  0.0069 -0.0210
    1W        W29217  18.859   6.675   8.350  0.0555  0.0728  0.2058
    1W        W29218  27.276  11.791   0.100  0.5427 -0.0750 -0.1281
    1W        W29219   1.524   6.055   0.521 -0.0551 -0.3544  0.0817
    1W        W29220  17.331   3.567   1.502 -0.1447  0.2617  0.0339
    1W        W29221   2.236  24.121   7.410 -0.2034  0.3728 -0.1431
    1W        W29222  21.764  27.839   9.825 -0.0345  0.2838 -0.1588
    1W        W29223  20.349   5.936   7.339  0.0250  0.2203  0.2257
    1W        W29224   5.296   1.692   0.996 -0.4647  0.0523  0.2942
    1W        W29225   1.535  23.418   1.693  0.2165 -0.0210 -0.0298
    1W        W29226  23.570   5.842   1.087  0.1921 -0.3892  0.2458
    1W        W29227  21.036   2.280   0.015 -0.2246 -0.1356  0.0602
    1W        W29228  12.118  17.537   1.333  0.0656  0.1871  0.1304
    1W        W29229  26.779   1.172   1.812 -0.1220  0.0474  0.2155
    1W        W29230   4.900  10.007   0.835 -0.2924  0.0265  0.0132
    1W        W29231  21.746  25.839   9.754  0.1157 -0.0586  0.0449
    1W        W29232   1.896  11.117   7.876 -0.1832 -0.1560  0.0360
    1W        W29233   1.578   8.037   2.079  0.2482  0.1121 -0.2659
    1W        W29234  15.985   0.055   2.420  0.1523  0.0817  0.3354
    1W        W29235  26.628  11.367   6.523 -0.0095  0.1013  0.0656
    1W        W29236  26.856  16.035   9.472 -0.0508  0.3234  0.3096
    1W        W29237   5.664   9.196   6.173  0.2855 -0.3543 -0.1092
    1W        W29238  21.048  18.401   3.288 -0.0602 -0.0126  0.3048
    1W        W29239   7.223  18.600   9.267 -0.0668 -0.0187  0.1902
    1W        W29240  26.756  23.147   7.335 -0.2802  0.1894 -0.0159
    1W        W29241   3.154  21.053   7.234  0.0680 -0.0428 -0.0217
    1W        W29242  24.128  24.079   8.172 -0.0306 -0.2108 -0.2830
    1W        W29243   1.321  11.196   9.921 -0.1871  0.2041 -0.4056
    1W        W29244  21.586  12.693   7.529 -0.2349  0.0798  0.0021
    1W        W29245  25.249  10.699   7.685  0.2014  0.2029 -0.0985
    1W        W29246  17.928  11.968   8.420 -0.0845 -0.2729 -0.2293
    1W        W29247  13.184   9.005   8.234  0.1545  0.4020 -0.0537
    1W        W29248  19.262  11.267   1.466  0.0767 -0.2687  0.0008
    1W        W29249  22.511  21.784   1.802  0.0790  0.2311  0.0123
    1W        W29250   6.633  10.540   7.112 -0.1649 -0.0845 -0.0628
    1W        W29251  16.998  11.745   2.205 -0.0571 -0.1057 -0.2396
    1W        W29252   0.293  19.692   8.743 -0.0626 -0.0297  0.0765
    1W        W29253  21.129  25.620   3.116 -0.0548 -0.3132 -0.0134
    1W        W29254  10.599  17.825   9.352 -0.0159 -0.2978  0.2142
    1W        W29255   5.761  24.210  10.038  0.2079 -0.1737  0.3840
    1W        W29256  21.003   9.337   8.572 -0.1010 -0.2590  0.0717
    1W        W29257  27.901  23.682   1.394  0.0787  0.1382  0.2800
    1W        W29258   2.411   4.052   0.761  0.2675  0.2895  0.0553
    1W        W29259  18.830  17.551   0.766 -0.2952 -0.1550 -0.0120
    1W        W29260   9.357  26.329   2.604 -0.0846 -0.1046 -0.0448
    1W        W29261  10.352  23.924   9.768 -0.4108  0.0751 -0.1153
    1W        W29262   7.233   4.503   9.173  0.1919 -0.1151 -0.0938
    1W        W29263  19.924   7.333   8.992 -0.0743 -0.0499  0.0103
    1W        W29264  27.170   3.728   0.902 -0.1912  0.0266 -0.0047
    1W        W29265  23.354  13.728   9.345 -0.1261  0.1029  0.1735
    1W        W29266  20.693  19.375   2.969 -0.1028  0.1663  0.1696
    1W        W29267  12.767  26.023   2.664  0.2527  0.0547 -0.6029
    1W        W29268   8.348  26.707  10.178 -0.3442  0.0366  0.1307
    1W        W29269  22.108  18.068   8.545 -0.0296 -0.1934 -0.2162
    1W        W29270  15.264   1.465   2.809 -0.0139 -0.3922  0.0547
    1W        W29271  13.987   3.173   0.475  0.1111 -0.0774  0.2963
    1W        W29272  27.925  16.277   0.143  0.4968  0.2418  0.2680
    1W        W29273  14.069   8.933   8.559 -0.2552 -0.1185  0.0775
    1W        W29274  12.683   3.452   8.801 -0.0789 -0.5391  0.0654
    1W        W29275  12.789   0.218   0.274  0.1670  0.1597 -0.2033
    1W        W29276  12.541   8.240   0.704  0.1881 -0.0663  0.0271
    1W        W29277  13.497  10.143   9.336  0.1753  0.0487  0.1811
    1W        W29278   2.498  11.704   8.559  0.1688 -0.1493 -0.3162
    1W        W29279  21.097  27.529   0.911 -0.0403  0.0107  0.0889
    1W        W29280  24.931  10.091   8.374 -0.0281  0.1213 -0.0774
    1W        W29281  16.750  25.504   1.861 -0.1235 -0.1264 -0.1283
    1W        W29282  13.164   3.154   1.803  0.2330 -0.1775  0.2558
    1W        W29283  17.213   1.484   0.556  0.1055  0.3898 -0.0225
    1W        W29284  16.670   5.351   3.242  0.2068  0.2312  0.0511
    1W        W29285  17.761   1.600   2.740  0.2455 -0.1607 -0.0127
    1W        W29286  20.953   1.207  10.341  0.1357  0.2976  0.1801
    1W        W29287   0.481  13.840   8.465 -0.2514 -0.2561 -0.0049
    1W        W29288  27.312  12.823  10.249 -0.0592 -0.0327  0.1114
    1W        W29289  26.018   5.910   9.932 -0.0638 -0.0302  0.1521
    1W        W29290  11.671   8.185   8.615  0.0260  0.0709 -0.0725
    1W        W29291  21.140  12.958   0.913 -0.0665  0.2864 -0.0390
    1W        W29292   6.871   7.490   2.709 -0.0293  0.1668 -0.0504
    1W        W29293  19.637   9.882   1.220  0.1559  0.2074  0.0095
    1W        W29294  11.994   8.010   1.897  0.1234  0.3972  0.1272
    1W        W29295  25.081  27.077   8.038 -0.2719 -0.2789 -0.1274
    1W        W29296  14.070   0.524  10.202  0.1935 -0.3075 -0.2491
    1W        W29297  22.912  13.393   1.071 -0.1819 -0.3454  0.0972
    1W        W29298   7.813  19.311   1.448  0.0074 -0.1473 -0.1395
    1W        W29299   1.640  10.695   0.373 -0.0674  0.0137 -0.2471
    1W        W29300  25.776   7.885   1.125 -0.0750  0.2030  0.0215
    1W        W29301   5.797  25.017   0.259 -0.0792  0.4572 -0.0789
    1W        W29302   0.400   1.506   7.480 -0.2462 -0.2940  0.0767
    1W        W29303   5.168   8.852   2.753 -0.2274 -0.0876 -0.0428
    1W        W29304   4.290  27.237   0.102  0.0256 -0.0023 -0.0035
    1W        W29305  10.223  25.935  10.242  0.0705 -0.0490  0.0848
    1W        W29306  19.167  15.789   7.953 -0.0069  0.1505 -0.2919
    1W        W29307  23.605  14.322   8.825  0.0013  0.2255  0.0932
    1W        W29308   9.854   5.922   1.704 -0.0847 -0.0317 -0.0143
    1W        W29309   4.319  24.378   8.046  0.2259  0.2098 -0.0605
    1W        W29310  21.672   4.483   0.943 -0.1974 -0.2847 -0.1092
    1W        W29311  17.988  24.160   1.891  0.0231 -0.0934  0.0957
    1W        W29312  17.976   1.911  10.353  0.1644  0.1964  0.0004
    1W        W29313  20.506  22.854   0.422 -0.0870 -0.2289 -0.1922
    1W        W29314  23.511  24.674   7.733 -0.1171  0.0552 -0.2408
    1W        W29315  21.526  23.727   1.650  0.2364  0.2823  0.2183
    1W        W29316   1.940  21.887   8.438  0.0839 -0.1496 -0.0551
    1W        W29317  25.793  21.685   2.268  0.0089  0.1541 -0.0863
    1W        W29318  18.517   9.686   8.510  0.0503 -0.0129  0.0313
    1W        W29319  12.703  13.071   1.851 -0.4155 -0.2246  0.3279
    1W        W29320   2.009  21.046   9.015 -0.0855  0.2798  0.0155
    1W        W29321  15.030   1.788   7.783 -0.2309  0.1740 -0.1880
    1W        W29322   8.586  19.411   4.067  0.2653 -0.3415 -0.3298
    1W        W29323   0.157  18.996   7.796  0.0294  0.0894 -0.0735
    1W        W29324  25.523  21.392   7.079  0.0987 -0.1704  0.0287
    1W        W29325  23.456  11.336   9.696 -0.1424  0.0657  0.0969
    1W        W29326  10.053   2.024   8.125 -0.2489 -0.2110  0.2244
    1W        W29327  19.629  14.551   1.594 -0.2171 -0.0437  0.1499
    1W        W29328  13.852  15.382   2.332  0.0403 -0.2007  0.0372
    1W        W29329  17.926   1.593  10.009  0.3213  0.2777 -0.3378
    1W        W29330  13.903   9.723   0.391  0.0106 -0.3124  0.1614
    1W        W29331   2.997  24.683   8.468  0.0495  0.0432 -0.0364
    1W        W29332  14.802  22.681   8.817  0.1979  0.1498 -0.2266
    1W        W29333  20.188  26.316   7.834 -0.3362 -0.0030 -0.0242
    1W        W29334  10.024  13.257  10.083  0.4462  0.1474 -0.0946
    1W        W29335  14.660  24.408   7.421  0.0445 -0.0837 -0.2007
    1W        W29336  16.138   0.709  10.075  0.0741 -0.0919  0.0321
    1W        W29337  10.387   0.848   8.519  0.2436 -0.1492 -0.0073
    1W        W29338  15.695  17.273   3.372  0.1684 -0.0921  0.0259
    1W        W29339  18.425   6.641   2.997 -0.2267 -0.2437 -0.1012
    1W        W29340   0.156  22.879   9.529  0.0007  0.1015  0.2564
    1W        W29341  12.254  16.803   1.879  0.0819 -0.3404  0.1633
    1W        W29342   4.332  27.860   9.103  0.2419 -0.1793 -0.0767
    1W        W29343  16.350   2.703   8.343 -0.1100  0.4849 -0.1581
    1W        W29344   2.968   0.295   0.436 -0.1328  0.0871  0.2535
    1W        W29345  15.284  23.482   0.200 -0.1998 -0.1432 -0.1255
    1W        W29346  24.585  25.823   8.113 -0.0075 -0.2913  0.0324
    1W        W29347  20.894   3.844   9.915  0.0037 -0.1647 -0.3032
    1W        W29348   1.205  24.903   7.518 -0.1165  0.0554  0.2207
    1W        W29349   2.396  16.237   0.597  0.1563  0.1917  0.0918
    1W        W29350   1.139  16.551   7.267  0.1228 -0.1125 -0.0830
    1W        W29351   2.724  19.043   6.246  0.1438 -0.1422  0.1287
    1W        W29352  23.333  19.212   9.772 -0.2111 -0.3253  0.0190
    1W        W29353  13.699  23.789   9.991 -0.5785 -0.1052 -0.1342
    1W        W29354  15.597  22.944   7.924  0.1022 -0.0586  0.0007
    1W        W29355  20.091  12.600   8.169 -0.0992  0.2780  0.1127
    1W        W29356  27.561  11.910   9.109  0.1042  0.1403 -0.2049
    1W        W29357   1.510   8.378   6.425  0.0351  0.0591 -0.0162
    1W        W29358  14.558  20.332   7.464 -0.0426  0.0155  0.0341
    1W        W29359  21.539  12.931   2.857 -0.1098 -0.0589  0.1743
    1W        W29360  24.204  27.444   0.171  0.2777 -0.0225 -0.1375
    1W        W29361   5.005  19.396   7.802 -0.1287  0.0277 -0.1011
    1W        W29362   4.166  19.923   7.693 -0.3537  0.2159 -0.1846
    1W        W29363   6.296  19.082   0.719 -0.1154  0.0008  0.2695
    1W        W29364  23.946  19.979   7.395  0.0379 -0.1523  0.1700
    1W        W29365  19.104   1.587   7.057 -0.2005 -0.0815 -0.0761
    1W        W29366   0.087  22.895   2.256 -0.0258 -0.0140 -0.1474
    1W        W29367   3.887  26.028   2.260  0.0106 -0.2851  0.0092
    1W        W29368  20.225  27.601   9.538 -0.1683  0.2031 -0.0328
    1W        W29369   5.778  14.464   8.230  0.1241 -0.1431  0.1914
    1W        W29370   4.788  20.867   3.907  0.0352  0.0404 -0.4990
    1W        W29371  27.093   2.181  10.339  0.1218  0.1583 -0.0391
    1W        W29372  27.694   9.770   8.922 -0.1018 -0.2173 -0.2720
    1W        W29373   8.364   9.851   2.670 -0.2582 -0.2347 -0.0229
    1W        W29374   4.460   9.052   9.798 -0.1368 -0.3442 -0.1929
    1W        W29375  25.026   0.494   0.350 -0.0081 -0.1150  0.0859
    1W        W29376   3.287   1.933   1.875 -0.0180 -0.0719 -0.0805
    1W        W29377  18.879   9.393   1.596 -0.2546 -0.2759  0.2186
    1W        W29378  26.055  17.420   0.983 -0.1931  0.2425  0.1926
    1W        W29379   2.790   4.317   9.196  0.0172  0.0721  0.1167
    1W        W29380  19.889  20.144   8.611 -0.0951  0.3964 -0.3660
    1W        W29381   1.746  16.927   9.072 -0.0517 -0.0196  0.1445
    1W        W29382  26.487  18.881   8.976  0.0299  0.0350 -0.0485
    1W        W29383  25.756   2.883   8.440  0.1562 -0.1096 -0.0459
    1W        W29384   8.175  22.057   8.151  0.2786 -0.0841  0.1648
    1W        W29385   9.127  27.412  10.291  0.2450 -0.0471  0.0409
    1W        W29386  15.332   3.595   9.433  0.0875 -0.0473  0.2005
    1W        W29387   8.138  12.344   8.033 -0.0843  0.1854  0.0842
    1W        W29388   0.337  26.867   9.553 -0.1472 -0.1577 -0.4078
    1W        W29389  17.226  19.911   0.430 -0.0500 -0.0767 -0.0473
    1W        W29390   6.501   7.556   0.182 -0.6850  0.0599  0.0296
    1W        W29391  11.105  25.708   3.161  0.0652  0.0546 -0.2326
    1W        W29392  26.881  22.108   6.582 -0.0021  0.0681  0.1468
    1W        W29393  14.555  14.059   3.039 -0.0057  0.2800 -0.1241
    1W        W29394  17.105  18.257   0.716 -0.2422  0.0480 -0.2372
    1W        W29395  25.412  19.648   2.154 -0.2497 -0.2387  0.0175
    1W        W29396   4.554   7.832   9.040 -0.1370  0.0398  0.0845
    1W        W29397  21.429  18.733   3.128  0.0826 -0.1473  0.1266
    1W        W29398  19.816   8.951   8.128  0.0147  0.0314  0.1148
    1W        W29399  13.655  27.520   2.314  0.0914 -0.0422  0.0112
    1W        W29400   8.466  20.176   2.308  0.2290 -0.1017 -0.1552
    1W        W29401  18.346  22.978   1.579  0.0381  0.3415  0.0607
    1W        W29402  18.593  24.108   1.164  0.1330 -0.2163  0.1474
    1W        W29403   3.117  25.782   1.813 -0.0340 -0.1628 -0.3696
    1W        W29404  26.590   0.224   8.797 -0.0533 -0.2738  0.2089
    1W        W29405  16.858   2.833   0.173  0.0235  0.1754  0.3191
    1W        W29406   1.643  17.451   9.090  0.3005 -0.1796 -0.1718
    1W        W29407  27.416  10.641   0.793 -0.1248 -0.1559 -0.3527
    1W        W29408  15.527  12.413   8.738 -0.0472 -0.2902 -0.0361
    1W        W29409   4.738  15.654   8.781  0.2787 -0.0989  0.2458
    1W        W29410  11.248  16.824   3.509 -0.0393  0.1023 -0.1248
    1W        W29411  25.864   0.197   6.725  0.1436 -0.1478  0.1896
    1W        W29412   7.080   5.144  10.023 -0.2184  0.1533 -0.2146
    1W        W29413  22.871   7.328   2.399 -0.2180  0.0756 -0.0042
    1W        W29414  17.393   6.275   2.457  0.0351 -0.1993 -0.0065
    1W        W29415  13.134  11.967  10.310 -0.1714 -0.3286 -0.1263
    1W        W29416  23.232  27.218   0.803  0.0468  0.0896 -0.3909
    1W        W29417  21.640   5.982   6.905 -0.0700  0.0930 -0.0823
    1W        W29418  24.170   8.248   1.410 -0.0013  0.0982 -0.2410
    1W        W29419  15.280  15.952   2.275 -0.0898 -0.2646 -0.0380
    1W        W29420  17.895   8.281   8.279  0.0751  0.0522 -0.1329
    1W        W29421  22.794  14.796   7.822 -0.0067 -0.0512  0.1706
    1W        W29422  21.333   3.497   9.896  0.2645  0.1286 -0.0251
    1W        W29423  21.485   6.593  10.078 -0.1543 -0.3777 -0.2825
    1W        W29424   5.601   7.841   0.613 -0.1435  0.0906  0.1138
    1W        W29425   6.257  25.482   1.958 -0.0566  0.4209 -0.1649
    1W        W29426   6.852   1.488   6.439  0.1960 -0.1658 -0.2949
    1W        W29427  13.257  12.016   9.327  0.1550 -0.2477  0.2104
    1W        W29428  18.885   3.683   8.089 -0.1323  0.0168 -0.0191
    1W        W29429   4.363   3.927   1.649  0.0481 -0.1333 -0.0507
    1W        W29430  28.059  18.503   9.082 -0.2621  0.0265  0.2733
    1W        W29431  20.933  10.118   3.515  0.2662  0.1778 -0.2245
    1W        W29432   4.333  26.677   2.262  0.1493  0.0423 -0.0529
    1W        W29433  23.024  23.620   8.451 -0.0033 -0.0575 -0.1146
    1W        W29434  27.779   0.418   9.536 -0.0033  0.0437  0.0146
    1W        W29435  13.194  18.065   2.099  0.3342 -0.3863 -0.0614
    1W        W29436  25.290  12.877   9.148  0.5610 -0.0150 -0.1337
    1W        W29437  11.903  23.496   9.707  0.0790  0.2604 -0.0550
    1W        W29438   9.419   7.160   2.830 -0.2411  0.0822  0.1213
    1W        W29439   7.246  26.061   7.643  0.1919 -0.2580  0.3883
    1W        W29440  22.741  16.402   1.024  0.0064 -0.0317 -0.5087
    1W        W29441  23.058  24.313   2.670 -0.0268 -0.1335 -0.0863
    1W        W29442  13.285  17.422   0.402  0.1438 -0.1103 -0.0885
    1W        W29443   6.611   5.850   2.363 -0.0406  0.0298  0.2344
    1W        W29444  18.603  25.674   1.323  0.0227 -0.1722 -0.0082
    1W        W29445  16.457   2.126   9.949  0.0454  0.3325 -0.1087
    1W        W29446   8.958  24.806   8.431  0.3057 -0.1481  0.0964
    1W        W29447  16.293  26.013   7.554  0.1143  0.0228 -0.0549
    1W        W29448  22.082   9.507   2.361  0.2240 -0.0552 -0.2052
    1W        W29449   2.520   2.952   0.576 -0.1068  0.3358 -0.4063
    1W        W29450  19.769  23.884   1.883 -0.4246 -0.0812  0.2504
    1W        W29451   1.554  10.848   7.567 -0.0491  0.1542 -0.0407
    1W        W29452  13.589  20.855   8.258 -0.1816  0.0738  0.0576
    1W        W29453  16.972  21.806   1.353  0.0239 -0.1994  0.0176
    1W        W29454  14.945  22.283   0.850  0.2862 -0.1915  0.1621
    1W        W29455   5.262   8.527  10.040 -0.2449  0.0356  0.0431
    1W        W29456   6.208  17.417   3.052  0.3003  0.0644 -0.0441
    1W        W29457  20.104  18.517   0.275  0.2536 -0.3689  0.0548
    1W        W29458  10.171  10.383   2.261 -0.0845 -0.4656 -0.0463
    1W        W29459  11.345  24.499   9.301  0.1825 -0.0298  0.0028
    1W        W29460   6.456  15.768   1.221  0.0934  0.1440  0.1916
    1W        W29461   5.146   1.803   6.790 -0.0498 -0.1283 -0.0729
    1W        W29462  19.667  18.047   2.943  0.0079 -0.0859 -0.2183
    1W        W29463   1.423  21.729   2.379  0.0578 -0.1382  0.0537
    1W        W29464   3.236   1.541   9.069  0.1407 -0.2950  0.2064
    1W        W29465  12.869  14.074   3.541 -0.0047  0.1638 -0.0558
    1W        W29466  24.588  22.893   1.912 -0.1505  0.0241  0.3038
    1W        W29467  21.285   8.432   2.692 -0.0825  0.1796  0.4977
    1W        W29468   2.228  26.025   9.140  0.1007  0.3050 -0.1085
    1W        W29469  20.866  18.430   9.243 -0.1802  0.1615 -0.1362
    1W        W29470  15.935   1.400   9.534  0.1837  0.3889  0.1522
    1W        W29471   6.145   8.853   8.326  0.0334 -0.0747  0.0260
    1W        W29472  21.153   0.798   7.674  0.1252  0.0122 -0.1900
    1W        W29473  10.739   4.190   0.733  0.3118  0.1046  0.0280
    1W        W29474  11.648  13.587   9.781 -0.1118  0.0093  0.3544
    1W        W29475  18.707  18.826   1.489 -0.4017 -0.2479 -0.2038
    1W        W29476  27.394  12.881   8.655  0.1324 -0.3223  0.1837
    1W        W29477  21.060  10.524   8.771 -0.0117  0.0395 -0.0594
    1W        W29478   0.111  18.626   6.974 -0.1164  0.1252 -0.1077
    1W        W29479  11.872   7.321   2.677  0.1579  0.3591 -0.0808
    1W        W29480   4.897  18.179   1.890  0.1084 -0.1380 -0.2188
    1W        W29481   1.053  27.995   1.700  0.4175  0.0498 -0.0698
    1W        W29482  13.372   6.359  10.102  0.0005  0.1050  0.0971
    1W        W29483  16.275  11.186   9.314 -0.0819  0.0937 -0.0791
    1W        W29484  20.250   8.980   6.604 -0.0865 -0.1594  0.1275
    1W        W29485   2.763  14.773   7.513  0.2936  0.1438 -0.0018
    1W        W29486   6.671  26.760   7.471  0.0129  0.0510  0.1292
    1W        W29487  11.442  11.859   9.324  0.3642 -0.0698 -0.0495
    1W        W29488  18.028  13.862   1.901 -0.1068  0.1569  0.4314
    1W        W29489  24.173  12.001   2.573 -0.0914  0.2683  0.1146
    1W        W29490  22.895   7.566   9.379  0.0844  0.0340 -0.0670
    1W        W29491  14.800   6.351   2.921  0.1454 -0.2699 -0.2774
    1W        W29492  12.795  24.955   0.955 -0.1546  0.0164 -0.0715
    1W        W29493   5.906  27.283   2.901  0.4981 -0.0588  0.0649
    1W        W29494   9.734  20.197   0.748  0.0708  0.0342 -0.0071
    1W        W29495   2.847  12.981  10.134 -0.0905  0.1223  0.1659
    1W        W29496   3.683  17.110   2.572  0.1613  0.1576 -0.3624
    1W        W29497  12.553  17.340   1.542 -0.2613  0.1930  0.0105
    1W        W29498   0.258   1.716   0.548 -0.0552  0.0790 -0.2183
    1W        W29499  26.257   1.082   9.884 -0.3194 -0.1227 -0.2271
    1W        W29500  16.484  20.709   8.413 -0.1076 -0.1600 -0.2994
    1W        W29501  25.777   0.565   7.073  0.1846  0.1272 -0.1459
    1W        W29502  19.593  13.437  10.252 -0.0859 -0.0544  0.0687
    1W        W29503  26.422  26.571   9.546  0.0472 -0.1190  0.0316
    1W        W29504  15.468  17.683   3.243  0.2891 -0.0982  0.1541
    1W        W29505  23.201   2.754   0.287  0.1016 -0.0353  0.2863
    1W        W29506  24.904   5.357   2.662 -0.0687  0.0775  0.1588
    1W        W29507  10.415  14.672   2.037  0.0310 -0.0499 -0.1660
    1W        W29508  24.691  22.952   7.799 -0.0901  0.2664  0.1631
    1W        W29509   1.160  20.706   2.248 -0.1698  0.0561 -0.0221
    1W        W29510  27.462  22.891   9.118 -0.0390  0.0685 -0.1851
    1W        W29511  26.262  20.340   2.536 -0.0043 -0.0452  0.1521
    1W        W29512  23.676   1.594   1.093 -0.0518 -0.0589  0.1986
    1W        W29513  12.883  11.634   8.350  0.2043 -0.0221  0.1795
    1W        W29514  11.482  11.792   3.544 -0.1699  0.0719  0.0247
    1W        W29515   4.156   2.439   7.070  0.0713 -0.2156  0.2130
    1W        W29516  17.492  16.658   2.809  0.0743  0.1319  0.1087
    1W        W29517  17.542  11.908   0.725 -0.1573 -0.2407 -0.0887
    1W        W29518  13.803   3.997   2.128 -0.0234 -0.0895  0.3865
    1W        W29519   3.174   0.766   9.889  0.0872  0.0644  0.2816
    1W        W29520  10.140   5.439   2.965 -0.0903 -0.1196  0.2576
    1W        W29521  23.950  21.781   1.266 -0.0660  0.2390  0.2552
    1W        W29522   6.428   3.864   1.730 -0.1943 -0.0163  0.0193
    1W        W29523  17.919  26.354   8.822 -0.1179  0.2396  0.0659
    1W        W29524  26.314  17.453   6.633  0.1305  0.0529 -0.2631
    1W        W29525  16.513   9.202   8.111 -0.2655  0.1273 -0.1467
    1W        W29526   3.430  25.516  10.322 -0.0876 -0.4065  0.2476
    1W        W29527  18.539   1.220   1.553  0.1393  0.0371 -0.3085
    1W        W29528   8.615   2.353   0.530  0.1436 -0.0624  0.0078
    1W        W29529  18.105   4.030   9.944 -0.1050 -0.2259  0.1482
    1W        W29530   6.747  22.153   2.966 -0.1264  0.1956 -0.0356
    1W        W29531  24.052  15.089   1.547 -0.1178  0.1772  0.2781
    1W        W29532  24.674  20.582   7.302 -0.0582  0.1231 -0.1126
    1W        W29533  11.535  13.243   2.644 -0.0628 -0.2381  0.0839
    1W        W29534   5.461   3.717   1.711  0.2854 -0.1887 -0.0942
    1W        W29535   9.485  19.228   9.905 -0.2833  0.1261 -0.1786
    1W        W29536   5.660   5.176   7.479 -0.2762  0.2672  0.0605
    1W        W29537   1.773  10.525   8.924  0.1623  0.0126  0.0492
    1W        W29538  20.241  20.256   7.383  0.1224  0.2229 -0.3264
    1W        W29539   5.537  18.005   2.540 -0.0594  0.2936  0.0815
    1W        W29540   3.517   9.474   8.115  0.4319  0.1551  0.1652
    1W        W29541  23.228   6.873   9.933 -0.0831 -0.1975 -0.1809
    1W        W29542  28.074   2.093  10.099  0.2166  0.0149 -0.2520
    1W        W29543   4.260   3.359   8.814 -0.2716 -0.0101  0.3327
    1W        W29544  26.176  10.933   8.931  0.3067 -0.0301 -0.1504
    1W        W29545  23.573  24.418   7.314  0.1469 -0.2429  0.0280
    1W        W29546  10.463  18.288   9.028 -0.1734  0.0892 -0.0108
    1W        W29547  25.569  19.395  10.171  0.0586 -0.2914 -0.1972
    1W        W29548   6.804  19.953   3.005  0.4216 -0.0534 -0.1786
    1W        W29549  14.778  22.074   9.164 -0.2963  0.0952 -0.0177
    1W        W29550  10.908   6.313   9.906  0.1629  0.1129 -0.0231
    1W        W29551   0.268  13.420   9.911 -0.0436  0.1000 -0.2290
    1W        W29552  25.058  19.900   0.228 -0.1642  0.2159  0.0480
    1W        W29553   9.341   8.218   8.129  0.0803  0.2619  0.0601
    1W        W29554   0.460  21.584   2.022 -0.2194 -0.1675 -0.1415
    1W        W29555  26.845   1.250   1.334  0.1628 -0.0283 -0.0163
    1W        W29556   6.042  18.240   0.710  0.1569 -0.2672  0.1164
    1W        W29557   7.315  26.922   7.176  0.1319  0.0850 -0.0110
    1W        W29558  14.667  21.404   2.621 -0.5345 -0.0480 -0.3128
    1W        W29559   0.769  19.823   8.624  0.1675  0.5183  0.0211
    1W        W29560  24.442   3.541   6.987  0.1427 -0.2920  0.0632
    1W        W29561  16.440  14.351   3.686  0.1734 -0.1764 -0.0604
    1W        W29562  13.164  17.930   2.977 -0.0845 -0.1756  0.0436
    1W        W29563   8.719   8.343   3.017 -0.0556 -0.0314 -0.1179
    1W        W29564  13.515  21.433   3.497 -0.2979 -0.0680  0.1356
    1W        W29565  16.141   0.476   8.272 -0.0552  0.1881 -0.0235
    1W        W29566   7.537   5.760   2.260 -0.0635  0.2914  0.3142
    1W        W29567  21.769   3.797   1.815  0.1325  0.1309  0.2858
    1W        W29568   0.276   1.778   1.241 -0.0686  0.1209 -0.0639
    1W        W29569   0.865  21.013   1.238 -0.0356 -0.0537  0.2238
    1W        W29570  14.499  23.122   2.302 -0.2028  0.0717  0.0219
    1W        W29571   6.618   2.595   7.385 -0.0919  0.0656  0.1102
    1W        W29572  17.173  25.400   2.145  0.2758 -0.3031  0.2526
    1W        W29573  22.420  21.663   9.702  0.2965 -0.0184  0.0373
    1W        W29574   9.830   4.154  10.054 -0.1562  0.0874  0.0290
    1W        W29575  16.842  24.624   9.703  0.1644  0.0651 -0.1436
    1W        W29576   4.401  10.440   2.544  0.1170 -0.0005  0.0233
    1W        W29577  20.952  12.901   9.621  0.1096  0.1037  0.1336
    1W        W29578   1.641  18.578   1.796  0.1003 -0.2431  0.1461
    1W        W29579  16.366   5.285   8.499 -0.0929 -0.2415 -0.0892
    1W        W29580   6.052   1.180   1.042  0.1641  0.0693 -0.1429
    1W        W29581   0.212  22.096   1.167 -0.3968 -0.2111  0.2013
    1W        W29582  16.262  12.013   1.165 -0.0183  0.5302  0.1508
    1W        W29583  15.287  19.060   9.643  0.2346  0.1271 -0.0704
    1W        W29584   0.916  24.368   0.825 -0.2340 -0.1649  0.0908
    1W        W29585  18.161   6.719  10.268  0.0651 -0.0324 -0.1296
    1W        W29586   7.010  17.623   8.530 -0.2069  0.0611  0.0369
    1W        W29587  17.133   5.417   7.051 -0.3578  0.1917 -0.0538
    1W        W29588   1.910   4.159   0.359 -0.2369 -0.3534 -0.1329
    1W        W29589   7.126   1.551   9.858  0.3504 -0.0569 -0.1929
    1W        W29590   6.437   8.068   9.343  0.2729 -0.1559  0.0232
    1W        W29591  11.356   6.373   1.544 -0.0092  0.2565  0.2053
    1W        W29592  10.308   9.392   9.071 -0.2447  0.2368  0.0680
    1W        W29593  11.303  11.313   9.198  0.1305  0.1544  0.1416
    1W        W29594  25.274   3.533   1.659  0.1041 -0.4223 -0.0595
    1W        W29595  16.656  10.364   9.256 -0.1906  0.0990  0.0496
    1W        W29596  10.975  17.797   1.475 -0.2490  0.2925 -0.0150
    1W        W29597   0.524  20.750   1.493 -0.3479 -0.1588  0.1127
    1W        W29598   1.176  26.985   8.979  0.0244  0.2060 -0.0276
    1W        W29599   1.072   7.185   8.004  0.2160 -0.0925  0.3817
    1W        W29600  17.791  12.601   2.736 -0.5895  0.1169 -0.1258
    1W        W29601  17.646  12.529   3.263 -0.1501 -0.0388  0.1113
    1W        W29602   2.474  20.931   2.453 -0.1785  0.3518  0.2051
    1W        W29603  10.307  23.475   8.867 -0.1220  0.0263 -0.0251
    1W        W29604   5.999  12.987   3.251  0.1480 -0.1451 -0.2341
    1W        W29605  12.854  15.991   8.683  0.0048 -0.0979 -0.1996
    1W        W29606  23.631  15.147   8.872 -0.2807 -0.1959  0.2458
    1W        W29607   5.734  24.250   2.991 -0.2509 -0.4585 -0.1191
    1W        W29608   1.482   9.992   7.830  0.1115 -0.0829  0.1310
    1W        W29609   9.389   4.282   7.275  0.0334  0.1683 -0.0771
    1W        W29610   8.740  19.707   8.365  0.1910 -0.2639  0.2692
    1W        W29611   9.164  25.010   9.209  0.1561 -0.0891 -0.2983
    1W        W29612  15.263  12.787   0.115 -0.0062 -0.1325  0.0373
    1W        W29613  13.389   7.348   1.856 -0.2370 -0.1742  0.1745
    1W        W29614  25.764   3.411   0.863  0.3186 -0.0766  0.0755
    1W        W29615  27.588   7.145   9.974  0.0016 -0.1459  0.0610
    1W        W29616  22.707  25.088   0.788  0.0628  0.3566  0.3546
    1W        W29617  17.877  23.508   8.542  0.0284 -0.0449  0.4702
    1W        W29618  23.028  12.298   2.385 -0.0192  0.0151  0.1566
    1W        W29619   6.852  20.225   0.595 -0.0888 -0.2582 -0.3839
    1W        W29620   2.986  12.509   8.441 -0.2232  0.6710 -0.2811
    1W        W29621  20.555  15.349   2.004 -0.3130 -0.2055  0.1305
    1W        W29622   7.728   0.166   0.215 -0.1058 -0.0641  0.0196
    1W        W29623  25.093  21.027   0.707  0.0071  0.1046 -0.1846
    1W        W29624   9.427  27.271   0.695  0.0214 -0.1983  0.0814
    1W        W29625  15.596   8.000   0.367 -0.1777  0.2192 -0.3802
    1W        W29626  20.816   0.777   0.204  0.2308 -0.3394  0.1394
    1W        W29627  16.631  25.906   9.454  0.3316 -0.0940  0.0078
    1W        W29628  26.188   1.110   1.849 -0.1536 -0.1656 -0.3417
    1W        W29629  26.576  15.832   8.400 -0.3933  0.0142  0.0627
    1W        W29630  17.682   9.474  10.045  0.1912 -0.2172 -0.3346
    1W        W29631  21.756  15.907   8.663 -0.4182  0.0998 -0.4698
    1W        W29632  11.089   6.452   8.279 -0.2619  0.0314 -0.1209
    1W        W29633  12.767   2.637   3.218 -0.2464 -0.0676  0.0456
    1W        W29634  24.343  18.325   3.222 -0.1571  0.2170  0.1250
    1W        W29635  27.244   8.489   1.428 -0.1224 -0.0079 -0.1684
    1W        W29636  24.487   4.783   3.272 -0.3544  0.3213  0.1086
    1W        W29637  27.733  10.962   7.760  0.1026  0.2027  0.4364
    1W        W29638   1.955   9.052   9.671  0.0931 -0.2264  0.2841
    1W        W29639  19.448   7.176   3.717 -0.3425  0.0738  0.0388
    1W        W29640  12.820  10.129   9.475 -0.0754 -0.0312 -0.1437
    1W        W29641  10.062  22.023   0.512 -0.2673 -0.0454  0.2397
    1W        W29642  20.459  21.407   8.027 -0.2190 -0.0073  0.2751
    1W        W29643  16.838  22.003   2.399  0.0117  0.0295  0.1747
    1W        W29644  11.920  27.980   1.205  0.0581 -0.0803 -0.0932
    1W        W29645   4.058  19.778   2.662 -0.1396 -0.0253  0.2875
    1W        W29646  23.023   5.897   8.813 -0.0029  0.2356  0.4236
    1W        W29647   5.319   7.524   3.089 -0.3590  0.1283  0.0273
    1W        W29648  24.813  24.734   8.371  0.1742 -0.2478 -0.2509
    1W        W29649  17.872  17.978   3.556  0.0558  0.1788 -0.1518
    1W        W29650  19.026   7.627   6.697  0.1644  0.2747 -0.1189
    1W        W29651  10.842   2.148   7.455  0.0207  0.0001 -0.0976
    1W        W29652  25.217   2.928   7.391  0.0172  0.0162  0.2880
    1W        W29653  20.229  18.225   1.838 -0.0228  0.1258 -0.0307
    1W        W29654  11.184   4.559   3.555 -0.0725 -0.0719  0.1143
    1W        W29655  20.954   4.656   7.011 -0.2091  0.1383 -0.0860
    1W        W29656   9.911  26.156   0.740  0.0287 -0.0507  0.1969
    1W        W29657  11.500  11.106   3.280 -0.0143  0.2774  0.0140
    1W        W29658  26.150   1.242   2.410 -0.2217  0.2764 -0.1128
    1W        W29659  11.875   8.499   2.569  0.3632 -0.3167 -0.0106
    1W        W29660   8.569   6.284   9.826 -0.1367 -0.1905 -0.1233
    1W        W29661  12.215  27.336   3.393 -0.1832  0.0341  0.1982
    1W        W29662  24.243  18.534   1.896 -0.2961  0.1623  0.3427
    1W        W29663  13.808   8.763   4.162 -0.1227  0.2250 -0.3660
    1W        W29664   9.304  26.514   1.361 -0.2537  0.0699  0.0802
    1W        W29665  16.259   1.125   3.141  0.2286 -0.0233  0.1775
    1W        W29666   3.597  18.439   8.079 -0.2049 -0.0834 -0.2066
    1W        W29667  21.216   3.762   7.698 -0.2421 -0.0942  0.0198
    1W        W29668  23.806   7.611   0.010  0.1414  0.1160  0.1508
    1W        W29669  16.035   3.128   4.035  0.0038 -0.4581  0.4211
    1W        W29670   3.076  17.324   2.663  0.2208 -0.3240 -0.1919
    1W        W29671   9.621  15.267   8.691  0.1143  0.0447 -0.4972
    1W        W29672  20.277   7.837   7.255  0.0051 -0.0004  0.1598
    1W        W29673   0.865   4.329   8.487  0.1741  0.1358 -0.2315
    1W        W29674   1.260  23.499   7.966 -0.0520 -0.2419  0.0921
    1W        W29675  24.444  24.861   7.766 -0.1704 -0.0927  0.1806
    1W        W29676  14.812  10.291   4.302 -0.4102 -0.3438 -0.0781
    1W        W29677  24.144   7.306   7.276 -0.1917  0.3721 -0.0362
    1W        W29678  13.037   3.791   8.992 -0.0817 -0.0219  0.0453
    1W        W29679  13.166   7.805   3.788 -0.0393  0.0351 -0.2099
    1W        W29680  19.784   2.674   1.089 -0.0726  0.1237  0.1558
    1W        W29681  17.416  21.496   2.984  0.0570 -0.0594  0.2152
    1W        W29682  19.163   3.059   8.850 -0.0381  0.0308 -0.1313
    1W        W29683  24.936  22.496   0.262 -0.0930  0.3255 -0.4299
    1W        W29684   8.173  11.556  10.127 -0.0286 -0.1482  0.0112
    1W        W29685  15.679   5.807   0.022 -0.0311  0.1650  0.0271
    1W        W29686  23.581   3.579   2.002  0.1597  0.0182  0.0704
    1W        W29687   7.733   7.221   9.038 -0.0752 -0.2098 -0.0670
    1W        W29688  13.901   1.025   1.238  0.1039 -0.0421  0.3596
    1W        W29689  16.116   3.361   1.213  0.3441  0.1300  0.2597
    1W        W29690  27.156  23.797   9.170 -0.0436 -0.1370 -0.0582
    1W        W29691   8.146  20.557   9.176  0.1054  0.0452  0.2131
    1W        W29692   7.599  15.864   8.944 -0.0399  0.1190 -0.2035
    1W        W29693   7.930  18.737   8.388 -0.2600 -0.3436 -0.2021
    1W        W29694   8.450   9.134   8.549  0.2249  0.0411 -0.2439
    1W        W29695  27.978  13.010   1.459 -0.0039  0.4147  0.1252
    1W        W29696  10.590  24.648   0.115  0.1699  0.0199  0.5695
    1W        W29697  23.999  13.607   2.496  0.3521  0.0675 -0.0939
    1W        W29698   7.153   4.172   1.945 -0.2127  0.0540 -0.1596
    1W        W29699  13.615  10.074   8.379  0.1923  0.0864  0.1956
    1W        W29700  13.462  20.064   2.665 -0.0774 -0.0328  0.1794
    1W        W29701  13.821  14.692   1.776  0.0135 -0.3054 -0.1387
    1W        W29702  25.352  12.027   7.599  0.1445  0.0722 -0.2029
    1W        W29703  22.049  24.373   8.769 -0.6222  0.1861  0.0750
    1W        W29704  25.790   3.842   8.918  0.0096 -0.3604 -0.1116
    1W        W29705  25.494  16.491   8.525 -0.0579  0.0515  0.1114
    1W        W29706   8.442   2.585   9.999  0.0141 -0.1597  0.0818
    1W        W29707   4.073  15.322   8.703  0.1591 -0.0433  0.5078
    1W        W29708  26.651  15.111   9.206  0.0366 -0.1898  0.1045
    1W        W29709  17.666  11.115   0.226  0.1144 -0.2285 -0.0314
    1W        W29710  23.227  19.918   8.467  0.4550  0.1559  0.0540
    1W        W29711  18.000  11.471   1.164 -0.0848 -0.0214  0.0626
    1W        W29712  15.929  17.392   8.767  0.0791  0.5354 -0.3139
    1W        W29713  20.931  11.329   0.294  0.0232 -0.0047  0.3686
    1W        W29714  10.496  10.044   7.525  0.0694  0.2767  0.1263
    1W        W29715   1.901  26.230   8.212  0.2004  0.1938 -0.0266
    1W        W29716  11.716   5.247   2.355  0.0890  0.2780 -0.1677
    1W        W29717   3.891  21.225   9.634  0.1283 -0.1511  0.2146
    1W        W29718  12.780   4.791   2.665 -0.1852 -0.2139  0.0528
    1W        W29719  16.155   1.535   1.451 -0.1475 -0.0970  0.2880
    1W        W29720  19.100  15.060   3.034  0.1857 -0.1212  0.1240
    1W        W29721  16.450  23.529   7.033 -0.2510 -0.0346  0.0985
    1W        W29722  13.839   7.743   9.921 -0.3354  0.0924 -0.0636
    1W        W29723  12.296   2.567   3.230  0.2730 -0.0278  0.0279
    1W        W29724  19.402  24.791   3.340  0.2446  0.0332  0.2467
    1W        W29725  16.299   8.284   2.229  0.1553 -0.1612  0.1258
    1W        W29726  14.618  19.457   9.048 -0.3285 -0.2156 -0.0184
    1W        W29727  14.107  22.640   3.568 -0.3025 -0.1572  0.0667
    1W        W29728   2.768  26.047   2.084 -0.2427  0.2451 -0.2290
    1W        W29729  16.853  24.928   7.743 -0.0101  0.2105 -0.0745
    1W        W29730  20.921   4.505   1.738  0.1528  0.2561 -0.0806
    1W        W29731  22.172   4.385   1.146  0.0981 -0.2337  0.1214
    1W        W29732   2.479  22.679   8.816  0.0340 -0.0662 -0.1727
    1W        W29733  20.061  21.448   1.629  0.0728  0.0292  0.1405
    1W        W29734   0.426  18.968   7.376 -0.0712  0.2815 -0.4081
    1W        W29735  16.088  17.278   7.900  0.3964  0.0319 -0.1733
    1W        W29736  16.424   2.183   3.581 -0.0832 -0.2292  0.0515
    1W        W29737  16.669   2.315  10.344 -0.5157  0.1503 -0.1820
    1W        W29738   3.866   2.025   7.856  0.3024 -0.1506  0.2515
    1W        W29739  12.503  25.055   9.967 -0.4807  0.1383 -0.0582
    1W        W29740  23.958  25.502   2.116 -0.1075  0.1956 -0.2016
    1W        W29741  22.405   9.817   8.214 -0.1291 -0.0892 -0.3207
    1W        W29742   1.773   8.198   1.303 -0.1387 -0.3066  0.1181
    1W        W29743  26.331  15.673   1.781  0.0289  0.4179  0.4431
    1W        W29744  18.232  15.001   1.462 -0.0910 -0.0744 -0.1501
    1W        W29745   8.733  15.645   8.307 -0.0857  0.0804  0.0146
    1W        W29746   8.910  19.965   7.016 -0.0716  0.0336 -0.0583
    1W        W29747  20.663  12.813   1.122 -0.0523  0.2682  0.2485
    1W        W29748  10.608  26.515   7.587  0.1235  0.3431 -0.0052
    1W        W29749   9.427  10.578   3.622 -0.0030  0.1619  0.0256
    1W        W29750  19.636  15.390   0.010  0.1107 -0.1217  0.0159
    1W        W29751  17.112   4.395   8.960 -0.2352 -0.0081  0.2210
    1W        W29752  12.481  18.965   2.673  0.1646  0.2324  0.2694
    1W        W29753  15.846  25.809   8.341 -0.3212 -0.1445 -0.2809
    1W        W29754  20.456  20.114   1.812 -0.0560  0.0852 -0.1825
    1W        W29755  11.092   1.163   9.166 -0.0619 -0.0825  0.1559
    1W        W29756  26.804   0.878   1.005  0.2089 -0.1648  0.0431
    1W        W29757  23.426   3.909  10.232  0.0173 -0.2588 -0.0959
    1W        W29758  11.845  19.048   0.086 -0.1997 -0.1480  0.2238
    1W        W29759   5.992  12.634   1.379 -0.1523 -0.1738 -0.1881
    1W        W29760   7.237  10.385   0.649  0.2771 -0.1776 -0.1847
    1W        W29761   8.600   4.350   8.529  0.2189 -0.0446  0.1946
    1W        W29762  27.516  14.971   6.593 -0.1152  0.0526  0.0593
    1W        W29763   4.088  27.142   0.580  0.0109 -0.3327  0.2041
    1W        W29764   1.586   2.446   0.801  0.3564  0.1762 -0.2937
    1W        W29765  23.375  11.312   6.350 -0.1765  0.0143  0.1225
    1W        W29766   0.673   1.742   0.826  0.0465  0.0084  0.0642
    1W        W29767   8.016   1.796   2.461 -0.0987  0.1972 -0.0413
    1W        W29768  26.815  15.564   1.956  0.1891 -0.3046  0.0530
    1W        W29769   0.229   3.273   7.498  0.1176 -0.3862 -0.1546
    1W        W29770  15.921   5.129   8.838 -0.4380 -0.0725  0.0839
    1W        W29771  21.481  15.668   8.112  0.1132  0.0768  0.2489
    1W        W29772  19.262   1.449   0.936  0.2086 -0.0952 -0.1420
    1W        W29773  26.126   2.604   2.117 -0.1243 -0.0242  0.0311
    1W        W29774  11.069  10.097   8.335 -0.1961  0.3412 -0.2363
    1W        W29775  15.976   3.753   2.124  0.0455 -0.1082 -0.2372
    1W        W29776  23.648  26.705   7.180 -0.2540  0.1605  0.1824
    1W        W29777  21.018  23.693   0.344  0.1007  0.1226  0.1165
    1W        W29778  22.666  15.828   3.211  0.0450 -0.0796  0.2236
    1W        W29779   6.899   8.532   6.631 -0.1161 -0.0075  0.3007
    1W        W29780   4.078  16.317  10.356 -0.0105  0.1356 -0.0960
    1W        W29781   7.299  18.789  10.182  0.3370 -0.1058 -0.0634
    1W        W29782   3.139   7.816   9.592 -0.1117 -0.2162 -0.1021
    1W        W29783   2.006   9.889   7.854  0.0013 -0.1846  0.1626
    1W        W29784   3.853  19.382  10.249 -0.0860 -0.0290  0.0483
    1W        W29785   8.731  11.791   0.485  0.2840  0.0358  0.0745
    1W        W29786   4.994   5.793   6.982  0.0357 -0.2449  0.0964
    1W        W29787   0.434  25.154   7.767 -0.1785  0.0281  0.2142
    1W        W29788   8.186  16.939   8.807 -0.2124 -0.1228 -0.2302
    1W        W29789  18.342   5.689   1.043  0.1059 -0.1647 -0.3268
    1W        W29790   1.142  16.200   2.119 -0.1442 -0.0212  0.0435
    1W        W29791  14.620   9.854   3.566 -0.1607 -0.0893  0.0973
    1W        W29792   3.617  10.212   0.772 -0.0929 -0.0406  0.2741
    1W        W29793   0.088  22.505   0.952 -0.2128  0.1175 -0.0873
    1W        W29794   7.382  19.701   1.917  0.1691 -0.1568  0.2518
    1W        W29795  12.336  15.263   0.106 -0.4017  0.1939  0.3380
    1W        W29796   4.520  13.900   8.784  0.1641  0.0378 -0.0220
    1W        W29797   9.141  25.231   0.564  0.1375 -0.0494  0.1500
    1W        W29798  22.843   8.534   3.004  0.2563 -0.1271  0.0444
    1W        W29799   5.794  18.498   2.545 -0.2646  0.2617 -0.1276
    1W        W29800   6.833  19.862   8.777 -0.1077 -0.1805  0.1776
    1W        W29801  27.548   5.439   1.314 -0.3801 -0.1764 -0.1560
    1W        W29802   2.357  20.167   9.881 -0.0740 -0.0542 -0.2129
    1W        W29803   0.255  13.299   0.511  0.1715 -0.2207 -0.1274
    1W        W29804   8.106   1.849   1.841  0.0485 -0.0166  0.1321
    1W        W29805  21.981   7.514   1.949  0.2138  0.1909 -0.1021
    1W        W29806  23.008   8.724   9.150  0.0503 -0.3120  0.1604
    1W        W29807  28.088  24.280   0.703 -0.1432  0.0504 -0.1948
    1W        W29808  13.273  14.557   2.866  0.0358 -0.1596 -0.0468
    1W        W29809   8.430  26.735   1.494 -0.0105 -0.1258 -0.1859
    1W        W29810   5.618  12.486   0.544 -0.0468  0.2407  0.1468
    1W        W29811  24.997  15.004   7.853 -0.2405  0.0500 -0.0341
    1W        W29812   8.933  26.117   7.636  0.4271 -0.0490 -0.1163
    1W        W29813  27.320  18.003   7.622 -0.3899 -0.1187  0.0662
    1W        W29814  16.270  21.157   8.423 -0.2186 -0.1781  0.1060
    1W        W29815  26.728   6.319   2.402 -0.2862  0.0360 -0.2813
    1W        W29816  14.458   4.158   2.971  0.2738  0.2025  0.2797
    1W        W29817  19.342  23.460   1.252  0.1360 -0.1893  0.0275
    1W        W29818  10.846  19.799   1.436 -0.0825 -0.1618  0.0420
    1W        W29819   2.691   2.387   1.134  0.1072  0.0157  0.0610
    1W        W29820   6.354  13.954   2.967  0.3601  0.0197 -0.0063
    1W        W29821  22.748  19.175   3.018  0.2351  0.0049  0.3554
    1W        W29822   0.238  19.005  10.306  0.1298  0.1104  0.0950
    1W        W29823  10.390  27.490   6.582  0.1190 -0.4301 -0.0931
    1W        W29824  26.078  19.630   7.584 -0.1671  0.0720  0.1040
    1W        W29825   0.969  21.509   2.728  0.0551  0.1518 -0.2471
    1W        W29826   2.057  16.797  10.357 -0.0197 -0.4973  0.1550
    1W        W29827  11.616  27.769   9.109  0.3714  0.0991 -0.0607
    1W        W29828  25.270   7.960   0.948 -0.0568 -0.2476  0.1311
    1W        W29829  19.486  19.165   0.951  0.0809 -0.1067 -0.0001
    1W        W29830  15.702   6.568   7.415  0.2100 -0.1786  0.0560
    1W        W29831  13.008  27.576   7.723  0.0630 -0.0370  0.1331
    1W        W29832   5.112  27.927   6.916 -0.1456  0.3256 -0.0049
    1W        W29833  21.775   8.533   0.241  0.0747 -0.0753  0.0409
    1W        W29834   2.614   3.091  10.142  0.1072  0.0676 -0.0570
    1W        W29835  17.350   6.187   1.985 -0.0105 -0.3828 -0.0247
    1W        W29836   8.557  19.930   8.951  0.0204 -0.1356 -0.1285
    1W        W29837  20.852  17.478   8.543 -0.1265 -0.0376  0.1486
    1W        W29838   4.295   9.187   2.926  0.0144  0.4117  0.2469
    1W        W29839  18.834  13.735   2.539 -0.0202  0.0866 -0.2028
    1W        W29840  14.851  25.953   2.608  0.0416  0.1909  0.2442
    1W        W29841   7.446   4.693   8.750 -0.0052 -0.2692 -0.2822
    1W        W29842  21.004  19.395   8.088  0.1602  0.1189  0.3647
    1W        W29843  20.477  18.181  10.293  0.2348  0.5300  0.0108
    1W        W29844   4.913  24.525   9.016  0.1930  0.1028 -0.0929
    1W        W29845   9.740  23.008   9.900  0.1110  0.2689  0.0063
    1W        W29846   9.551   8.769  10.176  0.2584 -0.1579  0.1983
    1W        W29847  23.325  17.630   8.972 -0.2258 -0.2530 -0.1537
    1W        W29848  14.906   8.375  10.089 -0.2476 -0.1887  0.2230
    1W        W29849   0.517   3.823  10.251  0.0102  0.6459 -0.1251
    1W        W29850  13.428  24.737   7.720  0.2125  0.1096 -0.0013
    1W        W29851   2.405  14.411   2.045  0.0337  0.0348  0.2000
    1W        W29852  16.588  19.339   9.382  0.2402 -0.2061 -0.1085
    1W        W29853  20.727  10.458  10.110 -0.1761  0.1009  0.0717
    1W        W29854   3.272  17.640   8.524 -0.2000 -0.0245  0.2671
    1W        W29855   6.967  23.736   0.039 -0.0817  0.3567 -0.0399
    1W        W29856   1.863   2.345   7.145 -0.0560  0.0962  0.2335
    1W        W29857  27.026  24.454   0.612 -0.2144  0.1140 -0.0323
    1W        W29858  21.659  17.853   8.437 -0.0769 -0.1476 -0.1621
    1W        W29859  18.289   7.208   2.253 -0.2450  0.2097 -0.1635
    1W        W29860   5.414   7.741   8.546 -0.2625 -0.0214  0.2813
    1W        W29861   6.908   0.110   8.011 -0.0985  0.1156  0.0329
    1W        W29862  14.815  24.151   1.432  0.1117 -0.0010  0.0176
    1W        W29863   5.876  17.521   8.298 -0.2553 -0.0614  0.0970
    1W        W29864  19.438  24.014   7.968  0.1568 -0.2411 -0.2198
    1W        W29865   4.233   0.023  10.169  0.0002  0.1510  0.3144
    1W        W29866   1.469  13.556   1.629  0.0510 -0.0116 -0.0031
    1W        W29867  18.212  14.761   0.057 -0.3161 -0.0034 -0.0166
    1W        W29868   7.568   8.546   1.688  0.0080  0.2068  0.0828
    1W        W29869   8.438   2.311   1.215 -0.0465 -0.0504 -0.1009
    1W        W29870   7.045  26.711   7.765 -0.1228  0.0801  0.0765
    1W        W29871   1.732  11.254   7.287  0.0078  0.1948 -0.1884
    1W        W29872   5.089  14.756   2.489  0.1396 -0.0171 -0.1029
    1W        W29873  26.490  11.635   7.599  0.1373  0.1722  0.0438
    1W        W29874   9.391  11.336   1.984 -0.0066 -0.1602 -0.0195
    1W        W29875  19.019   6.715   1.540  0.2027  0.0548 -0.0385
    1W        W29876  27.261  15.755   9.259 -0.0170  0.2658  0.1127
    1W        W29877   7.490  21.871   2.334  0.0781 -0.2959  0.1482
    1W        W29878  14.601   4.406   1.539  0.2657  0.2246 -0.1517
    1W        W29879   0.258  24.479   1.050  0.0689  0.0715 -0.0314
    1W        W29880  15.973  27.243   9.646  0.2619  0.1919 -0.0847
    1W        W29881  17.104  21.188   3.390  0.3322  0.0107 -0.2292
    1W        W29882   5.994  25.605   2.449 -0.0310  0.3647 -0.0586
    1W        W29883  21.536   2.934   6.609  0.0025  0.1078 -0.1505
    1W        W29884  16.936  13.185  10.335 -0.0108  0.0157  0.1478
    1W        W29885  24.309  20.352   2.247 -0.1615  0.1084  0.0365
    1W        W29886  17.311  17.751  10.133  0.0378 -0.2357 -0.2851
    1W        W29887  10.131   7.595   8.410  0.1236  0.0545 -0.0812
    1W        W29888  14.352  27.550   0.813  0.1013 -0.4845  0.2818
    1W        W29889  19.911  24.868   8.035  0.0441  0.1774  0.0039
    1W        W29890  12.609  20.044   8.902  0.0614  0.3528  0.1445
    1W        W29891   6.750   4.157   2.969 -0.1936 -0.2700 -0.1208
    1W        W29892  26.661   6.065   6.393  0.2473 -0.2038 -0.2808
    1W        W29893   8.569  13.034   1.269 -0.2968 -0.1233  0.2313
    1W        W29894   1.824   9.680   0.202  0.0079  0.1580 -0.5043
    1W        W29895  20.844   5.106   8.794  0.0804 -0.1158 -0.1404
    1W        W29896  15.661  14.963   2.676 -0.3208  0.1936  0.1306
    1W        W29897   1.159  25.469   7.176 -0.0872  0.1089 -0.0121
    1W        W29898  17.449   8.236   8.025  0.0618 -0.1887  0.2562
    1W        W29899   8.332  19.220   9.607 -0.1861  0.1293  0.2726
    1W        W29900  21.718  23.389   9.384 -0.0332  0.1338  0.0589
    1W        W29901  15.671  23.016   8.535  0.1171  0.0327  0.1354
    1W        W29902  18.068  25.336   0.676 -0.0456  0.4174 -0.0881
    1W        W29903   3.892   9.723   7.268 -0.2055  0.0185  0.1453
    1W        W29904  21.542  27.354   8.268  0.1750 -0.3569 -0.0133
    1W        W29905  10.742  18.954   8.773 -0.2909 -0.3129  0.0391
    1W        W29906   0.584  12.946   9.180 -0.0964  0.1146  0.2932
    1W        W29907   3.195  11.931  10.145 -0.0375 -0.0368  0.2819
    1W        W29908  24.718  17.761   1.421 -0.2074  0.2089  0.4701
    1W        W29909  11.726  15.253   1.538  0.1305 -0.0569  0.0999
    1W        W29910   2.505   5.006   8.754  0.0238  0.1321  0.0221
    1W        W29911  21.288  13.048   2.440 -0.3057  0.2861 -0.0625
    1W        W29912   2.385  26.457   2.174  0.0505  0.2056  0.0580
    1W        W29913   3.728   2.659   9.430 -0.0374 -0.1091 -0.0012
    1W        W29914   5.507   1.541   9.749  0.2293  0.2273  0.1126
    1W        W29915  21.400  14.898   0.563 -0.0737  0.3409  0.2085
    1W        W29916  27.392   0.183   9.021  0.1703 -0.2916  0.1123
    1W        W29917  20.430  15.052   3.580  0.1442  0.0215 -0.1286
    1W        W29918  14.556  12.949   3.214  0.0375 -0.3888 -0.0071
    1W        W29919  20.423  12.093   7.747  0.1259  0.3112  0.0473
    1W        W29920   3.091   1.826   7.741 -0.2234  0.1141 -0.2160
    1W        W29921  15.232   1.359   9.412 -0.1010  0.1623 -0.3291
    1W        W29922   2.001  12.269   9.823  0.0722  0.1760 -0.0627
    1W        W29923   5.245   0.200   1.104 -0.1281 -0.0801 -0.1871
    1W        W29924  21.976   9.402   8.195 -0.2142  0.1804 -0.1408
    1W        W29925  22.794  23.254   9.422 -0.1898  0.0586  0.4248
    1W        W29926   1.300  18.965   8.304  0.2298  0.1424  0.0443
    1W        W29927  13.076  24.789   7.378 -0.0414  0.1268 -0.1620
    1W        W29928  25.204  18.637  10.316 -0.2008 -0.2956  0.2680
    1W        W29929   2.836   6.267   7.842 -0.0238 -0.1890  0.0170
    1W        W29930  14.618  16.807   2.005  0.0740  0.0045  0.1393
    1W        W29931   3.455  25.665   8.655  0.2585  0.0624 -0.1352
    1W        W29932  16.177  18.653   7.587 -0.1286  0.2190 -0.1152
    1W        W29933   3.882   6.705   8.852  0.0142 -0.1270  0.0242
    1W        W29934  12.509  16.784   9.423  0.0453 -0.2499 -0.0256
    1W        W29935  24.120  24.738   1.006 -0.0157  0.2212 -0.0568
    1W        W29936  13.122  10.097   7.486  0.0580  0.0979  0.0396
    1W        W29937   0.442   1.838   9.975 -0.1917 -0.0938  0.1305
    1W        W29938   2.112  19.115   2.613 -0.2498 -0.4604  0.0578
    1W        W29939  27.731  22.969   7.061 -0.0074  0.0945  0.0589
    1W        W29940   0.119  11.439   3.191 -0.0077 -0.3165 -0.4911
    1W        W29941  15.256   9.705   8.784 -0.1579 -0.2207  0.1530
    1W        W29942  20.859  11.497   8.418  0.2170 -0.1017 -0.0279
    1W        W29943  21.127   0.234   2.808 -0.0879  0.1203 -0.2993
    1W        W29944  21.609  27.015   6.957 -0.0112 -0.0178 -0.0920
    1W        W29945   6.852   3.505   7.603 -0.2028 -0.0936 -0.2836
    1W        W29946   8.337  12.516   3.323 -0.1224  0.2625  0.0330
    1W        W29947   9.011  15.921   0.301  0.0264 -0.4559 -0.2449
    1W        W29948   8.984   8.681   1.444  0.4018  0.0257  0.2011
    1W        W29949  25.564  26.245   0.602  0.2488 -0.0610  0.2450
    1W        W29950   0.077   1.867   9.630 -0.0178  0.2149  0.1209
    1W        W29951   9.793   0.653   7.897 -0.1161 -0.3419 -0.0745
    1W        W29952  24.576  12.237   0.664  0.1962  0.2691 -0.0098
    1W        W29953   5.490  10.062   1.957  0.3032  0.2013  0.0437
    1W        W29954  20.161   3.872   2.059 -0.0031 -0.2116 -0.3139
    1W        W29955  16.298   3.897   8.985 -0.4288  0.2209 -0.2597
    1W        W29956  11.492   4.095   7.889 -0.0119 -0.0106  0.0989
    1W        W29957  21.704   1.760   0.123 -0.3312 -0.0003  0.2910
    1W        W29958  26.604  27.310   0.036 -0.3409 -0.0605  0.1013
    1W        W29959   0.791   0.672   9.880 -0.0239 -0.0387  0.1263
    1W        W29960   7.722  16.262   9.975 -0.5087 -0.0568 -0.1121
    1W        W29961   2.777   7.314   7.378 -0.1208 -0.3263 -0.4639
    1W        W29962   5.302   0.472   9.942 -0.1845  0.3310 -0.1785
    1W        W29963   9.771  27.220   9.144 -0.1217 -0.0911 -0.0048
    1W        W29964  12.369  20.901   9.645 -0.1559  0.1863 -0.3214
    1W        W29965  26.513  25.911   1.681  0.0724  0.0129  0.0655
    1W        W29966  22.927   0.743   1.753  0.0487  0.0251  0.1250
    1W        W29967  11.125   9.343   7.268 -0.1818  0.0518  0.1485
    1W        W29968   4.619  16.180   2.203 -0.1938  0.0843  0.0071
    1W        W29969  20.719   7.097   8.058  0.1859 -0.2943 -0.1091
    1W        W29970   9.585   6.362   0.201 -0.0343 -0.1218  0.0158
    1W        W29971  11.643  27.001   1.027  0.1144 -0.1194 -0.1347
    1W        W29972   4.686   1.929   7.486  0.1929  0.0303 -0.1237
    1W        W29973   2.587  24.778   8.008 -0.0159  0.2876  0.0881
    1W        W29974  24.302  26.117   7.693 -0.0730 -0.2492  0.0883
    1W        W29975  14.333  22.163   7.553  0.0857 -0.3134 -0.0698
    1W        W29976  23.556  18.017   8.890 -0.4181 -0.3669  0.3003
    1W        W29977  26.388  17.453   2.017 -0.0243  0.0364 -0.0330
    1W        W29978   4.621  12.521   2.714 -0.0388 -0.0099  0.2095
    1W        W29979  24.713   4.438   9.213 -0.2385 -0.2256 -0.2232
    1W        W29980  16.977  15.821   2.738 -0.0272 -0.2649 -0.3514
    1W        W29981   5.317  10.839   8.778  0.2770  0.0424 -0.2363
    1W        W29982  10.427   9.022   1.321  0.0325 -0.3017 -0.1153
    1W        W29983  15.235  15.848  10.317  0.0975  0.1124 -0.0778
    1W        W29984  19.145   3.146   3.351  0.2356  0.3435 -0.1839
    1W        W29985  19.266   6.270   8.668  0.3533 -0.0869  0.3641
    1W        W29986  10.796  25.804   8.707  0.2294  0.1176 -0.1960
    1W        W29987  14.425   6.668   2.728  0.4005 -0.0232 -0.0553
    1W        W29988   6.355  12.342   1.257  0.0139  0.0585  0.1012
    1W        W29989  17.960  13.034   2.487 -0.0210  0.1030  0.2423
    1W        W29990   0.040  15.980  10.218  0.2922  0.1750  0.0057
    1W        W29991   3.339  14.820   1.862  0.1033  0.4048 -0.0511
    1W        W29992   8.820  24.686   8.972 -0.0856 -0.6493 -0.1398
    1W        W29993  26.719   9.996   1.976  0.0284  0.0540  0.0105
    1W        W29994   2.922   2.942   9.744  0.0141 -0.1178  0.1852
    1W        W29995  22.075   6.536   1.896 -0.0104 -0.0372 -0.1282
    1W        W29996  27.346   6.166   7.054  0.1453 -0.0833  0.0340
    1W        W29997  16.152  11.806   3.463 -0.3374  0.3917 -0.0169
    1W        W29998   8.302   7.768   9.766  0.1298  0.0768 -0.0746
    1W        W29999  16.061  27.588   0.716  0.0057  0.0437 -0.1843
    1W        W30000   0.050  15.728   7.920 -0.0828 -0.2747 -0.0126
    1W        W30001   0.163   0.666   9.326  0.1137 -0.3502  0.0699
    1W        W30002  18.263  15.327   2.733 -0.4385 -0.0406  0.1405
    1W        W30003   3.246  21.898   2.141 -0.1347  0.1301 -0.3076
    1W        W30004  21.130  14.780  10.139  0.4549  0.0424 -0.4246
    1W        W30005  18.858   2.637   2.754 -0.1682 -0.1978  0.2727
    1W        W30006  22.663  10.683   3.511  0.0409 -0.0968  0.0007
    1W        W30007  17.868   0.219   9.552 -0.2307 -0.0872  0.0713
    1W        W30008  19.527  23.915   2.855 -0.0929  0.0256 -0.0569
    1W        W30009  18.762  24.606  10.249  0.0105  0.1569 -0.1073
    1W        W30010  24.750  17.129   2.127 -0.1888  0.0065  0.1093
    1W        W30011  23.670  26.324   9.527  0.2198 -0.1989  0.0815
    1W        W30012  22.341   8.018   2.820  0.1295  0.1310  0.0596
    1W        W30013   4.422   4.656   7.549 -0.4016  0.0817  0.1841
    1W        W30014  21.302   4.989   1.592 -0.3427 -0.1604 -0.0302
    1W        W30015   5.844  10.277   8.088 -0.0252  0.0865 -0.0787
    1W        W30016   3.577  23.590   7.136 -0.1585  0.1049  0.0918
    1W        W30017  13.852  21.064   8.603 -0.0859 -0.2152 -0.1499
    1W        W30018  24.999  10.682   2.172 -0.1970  0.2388  0.0555
    1W        W30019  13.237  24.394   0.300 -0.1401 -0.0105  0.1426
    1W        W30020  15.356   6.772   9.197 -0.1763  0.0952 -0.3217
    1W        W30021  18.274  17.044   2.901 -0.0282  0.1621  0.0563
    1W        W30022  13.520   7.392   7.517 -0.0204  0.0317  0.2708
    1W        W30023  24.228  14.391   2.021 -0.2580 -0.2038  0.0123
    1W        W30024  10.577  15.127   8.920  0.0638  0.2583  0.2419
    1W        W30025  10.426  11.197   1.479 -0.0142 -0.2305 -0.0212
    1W        W30026  19.262  12.404   0.647  0.2748  0.1582  0.1382
    1W        W30027  19.416   3.602   8.131 -0.0716 -0.0152  0.1123
    1W        W30028  18.720  16.536   7.770 -0.3144 -0.3208 -0.0311
    1W        W30029   3.262  22.399   9.322 -0.0109  0.0177  0.0708
    1W        W30030  27.957  16.366   1.467 -0.0007 -0.1280  0.4129
    1W        W30031  11.976  18.079  10.362  0.1730  0.1151 -0.4366
    1W        W30032  25.180   3.986   1.824  0.0781 -0.4335  0.3381
    1W        W30033  24.499  27.673   7.722 -0.0317 -0.0185 -0.1059
    1W        W30034  22.137   7.676   9.517 -0.0318  0.0665  0.1372
    1W        W30035   1.571  10.489   0.881 -0.0706  0.0558 -0.1895
    1W        W30036  27.207   8.789   6.771 -0.0963 -0.0610  0.1331
    1W        W30037   7.466  23.167   8.448  0.0822 -0.0396 -0.0620
    1W        W30038  19.860  10.378   9.046 -0.2597  0.1157 -0.0001
    1W        W30039   2.038  10.022   0.800 -0.1963  0.1066 -0.0330
    1W        W30040   4.002  21.042   2.473 -0.0580 -0.0969 -0.0505
    1W        W30041  15.327  22.942   7.480 -0.0675  0.2293 -0.1262
    1W        W30042   9.437  19.210   7.956 -0.1730  0.1719 -0.1832
    1W        W30043   6.642   8.327   6.074  0.1169  0.1713 -0.1780
    1W        W30044  22.366  11.261   3.038  0.3162  0.2678 -0.0370
    1W        W30045  12.795  26.530   0.065 -0.2550 -0.1269  0.1741
    1W        W30046  17.584  12.707   9.779  0.3935 -0.1232 -0.0070
    1W        W30047  25.113   9.801   0.439  0.1901  0.2322  0.0641
    1W        W30048  14.719  23.380   7.900  0.1594 -0.3587  0.1711
    1W        W30049  23.247   5.407   7.114 -0.1004 -0.3156  0.1626
    1W        W30050  26.097  25.210   7.529 -0.1741  0.0467  0.1551
    1W        W30051  15.419  22.542   9.947  0.1917 -0.2723 -0.1643
    1W        W30052  18.436  15.355   2.257  0.3386 -0.1346 -0.1932
    1W        W30053  24.711  14.001   9.441 -0.0433 -0.0997 -0.0176
    1W        W30054   3.485  19.880   9.840 -0.2095  0.0263  0.1486
    1W        W30055   8.452  27.197   1.038  0.1552  0.0917  0.3673
    1W        W30056  18.719   9.425   8.091 -0.0049  0.2441 -0.0294
    1W        W30057   9.599  21.002   9.028 -0.0345 -0.0875 -0.0174
    1W        W30058  11.101   0.177  10.333  0.2544 -0.0023  0.0138
    1W        W30059  21.037  26.977   1.384  0.2524  0.2294 -0.1776
    1W        W30060   0.030  20.031   7.649  0.1725  0.0433 -0.1755
    1W        W30061  26.328  18.766   2.815 -0.3751  0.0190 -0.3780
    1W        W30062  23.326   1.211   0.839  0.0076  0.0034  0.0800
    1W        W30063   7.530   9.501   8.060  0.1849 -0.0341 -0.0396
    1W        W30064  27.385  27.662   0.056  0.1420  0.0250 -0.1805
    1W        W30065  24.065   5.134   8.065 -0.0392 -0.2397 -0.1484
    1W        W30066  27.659   7.075   8.919 -0.1936 -0.0428 -0.2865
    1W        W30067  20.755  17.625   2.938 -0.3956  0.2419 -0.0273
    1W        W30068  18.451   0.508   4.035  0.0704 -0.2070  0.0731
    1W        W30069  24.355  12.615   8.048  0.2360 -0.0941  0.2361
    1W        W30070  18.021   3.257   9.218  0.1709  0.3456  0.3311
    1W        W30071  16.671  12.654   2.354 -0.0343  0.0418  0.1690
    1W        W30072   9.494  13.978   3.856 -0.0171  0.0219 -0.0094
    1W        W30073   7.826  19.765   1.212 -0.1375 -0.4140 -0.3464
    1W        W30074  19.172  12.131   8.167 -0.1345 -0.0470 -0.2101
    1W        W30075   6.178   2.218   1.568 -0.2699 -0.1317  0.0334
    1W        W30076  20.633   2.848   7.908  0.3311  0.1167  0.0340
    1W        W30077  25.724  28.118   7.144  0.3791 -0.2243  0.2474
    1W        W30078  10.779  22.627   1.734 -0.3345  0.1054  0.4027
    1W        W30079  18.837   6.093   9.480  0.0607  0.2368 -0.0948
    1W        W30080   5.524  25.351   9.013  0.2036 -0.1381 -0.0635
    1W        W30081  27.238  10.020   8.184 -0.1624 -0.1733 -0.0074
    1W        W30082   6.937  15.328   0.460  0.3103 -0.1226 -0.1502
    1W        W30083  11.488   2.765   7.455  0.1158  0.0243  0.0568
    1W        W30084   4.403  22.445   1.190 -0.0881  0.0306  0.0361
    1W        W30085  21.476   4.499   0.058 -0.0439  0.3025  0.1605
    1W        W30086  27.319  10.853   8.286  0.0214 -0.1366  0.1006
    1W        W30087  26.407  25.557   3.080 -0.0680 -0.2010  0.3319
    1W        W30088  24.732  27.547   9.804  0.0784 -0.1174 -0.0429
    1W        W30089   1.414  12.431   0.408 -0.1483 -0.1394 -0.2419
    1W        W30090   2.556  12.669   7.787  0.0746  0.2043  0.2433
    1W        W30091  20.202  25.966   8.663  0.2934 -0.0551 -0.1037
    1W        W30092  18.946  16.591   0.319  0.0965 -0.0203  0.0408
    1W        W30093   2.297  16.392   2.776  0.0737 -0.0550 -0.3233
    1W        W30094  10.253  27.949   7.519  0.2281  0.1429  0.2200
    1W        W30095   4.321  18.491   2.579 -0.0987 -0.3465 -0.1130
    1W        W30096   1.385   7.339  10.069  0.1153 -0.2535  0.3020
    1W        W30097  22.408  23.299   1.983 -0.0524 -0.0354  0.4887
    1W        W30098   9.973  24.093   7.905 -0.2372 -0.0537  0.0388
    1W        W30099   0.222  15.706   8.467  0.1815  0.0459 -0.1007
    1W        W30100  26.224  13.848   8.811 -0.0301 -0.1967 -0.2098
    1W        W30101  25.368   6.784   7.905  0.0943  0.1654  0.1038
    1W        W30102  11.540  23.722   8.308 -0.0217  0.2218 -0.0390
    1W        W30103  21.092  15.022   9.197  0.1989  0.0955 -0.1602
    1W        W30104  21.620  14.988   9.343 -0.1117  0.1487  0.0028
    1W        W30105  23.335  12.907   7.554 -0.1603 -0.1101  0.5330
    1W        W30106  23.453  19.793   0.924 -0.1797 -0.1827 -0.2336
    1W        W30107  16.761   7.362   9.693  0.1889 -0.1949  0.0685
    1W        W30108  25.566   7.548   1.480 -0.0146 -0.0546 -0.1449
    1W        W30109  11.430  21.753   1.500  0.2024  0.0348  0.2232
    1W        W30110  16.068  24.172   7.609  0.4406  0.3180 -0.2304
    1W        W30111   7.328   5.202   0.200 -0.2203  0.0630  0.3222
    1W        W30112   0.551  16.144   7.746  0.0389 -0.0706 -0.0057
    1W        W30113  27.779  15.709   6.148  0.0474 -0.2100 -0.1780
    1W        W30114  18.466  12.461   9.442 -0.0900  0.0092  0.0388
    1W        W30115  19.538  24.303   2.109 -0.0318 -0.0915  0.1359
    1W        W30116  25.976  18.107  10.281  0.1778  0.3567 -0.0779
    1W        W30117  16.589  16.616   7.878  0.2229 -0.0282 -0.2237
    1W        W30118  15.898   1.778   8.201  0.0201 -0.0899  0.1106
    1W        W30119  27.484  18.906   1.504  0.1871 -0.0835  0.2109
    1W        W30120   2.703  19.717   7.461 -0.2222 -0.1147  0.1436
    1W        W30121   8.800  25.422   8.196  0.1603 -0.1587  0.1518
    1W        W30122  19.935  11.639   2.360  0.0314 -0.1681  0.0114
    1W        W30123  25.815  27.739   2.431  0.1382  0.2787 -0.0233
    1W        W30124  13.691  25.949   8.095 -0.1743 -0.1970 -0.2315
    1W        W30125   1.064   2.249   6.598 -0.1529 -0.0139  0.1292
    1W        W30126  17.958  20.057   7.969  0.2365 -0.0055 -0.2140
    1W        W30127   9.146  19.806   1.422 -0.1840  0.1421 -0.0744
    1W        W30128  11.292  24.587   7.893  0.2280 -0.0448 -0.1396
    1W        W30129  15.076  17.159   9.882  0.1138 -0.1432 -0.1501
    1W        W30130  21.504   6.726   8.594  0.1846  0.1159 -0.0804
    1W        W30131   1.761  14.385   9.283 -0.1425 -0.0982  0.0640
    1W        W30132  18.339   6.589   0.354 -0.3664  0.0603 -0.2274
    1W        W30133  22.003  23.854   2.517 -0.1746  0.0146 -0.0837
    1W        W30134  20.403  26.955   8.549  0.4657  0.2238 -0.1459
    1W        W30135  23.333  25.048   9.306 -0.0232 -0.0782  0.1467
    1W        W30136  16.683  21.441   9.258  0.2088 -0.0799 -0.1574
    1W        W30137  14.448  13.290   1.712 -0.0514  0.2244 -0.0139
    1W        W30138  12.565  27.340   8.150  0.0111 -0.0837 -0.0152
    1W        W30139  15.260  25.652   0.312  0.0215 -0.0589 -0.0186
    1W        W30140   6.493  16.607   2.468 -0.1996 -0.0708 -0.0719
    1W        W30141  19.835  15.479   3.004 -0.0376  0.1329  0.1146
    1W        W30142  14.893  27.350   3.434  0.2105 -0.0317 -0.2381
    1W        W30143  21.233  14.723   1.854 -0.1411  0.0199  0.1305
    1W        W30144  26.579  27.242   7.983 -0.0064 -0.4645  0.3830
    1W        W30145  17.345  12.070   1.251 -0.1831 -0.3923  0.2728
    1W        W30146  22.327  27.958   1.552 -0.1186 -0.1201 -0.3363
    1W        W30147   5.981  16.759   9.921 -0.2051  0.1139  0.0197
    1W        W30148  14.103  21.897   8.673 -0.0081  0.2392 -0.0285
    1W        W30149   3.037  19.959   7.215  0.0555  0.2388  0.1200
    1W        W30150   4.192  22.045   7.558  0.3395 -0.1063  0.1859
    1W        W30151   8.129   6.695   3.702  0.1098 -0.0086  0.2591
    1W        W30152  28.028  22.228   7.873  0.0126 -0.0066 -0.0427
    1W        W30153   1.133  26.078   1.978  0.2201  0.2569  0.2276
    1W        W30154  20.461  22.598   9.553  0.0606 -0.2530 -0.4471
    1W        W30155   4.286  24.220   9.083 -0.1134 -0.3183 -0.1278
    1W        W30156   3.086   2.783   7.969  0.1400  0.3354  0.0180
    1W        W30157  23.788   5.961   8.592 -0.2880 -0.0043  0.1184
    1W        W30158  17.735   7.649   9.612  0.1915 -0.1039 -0.1753
    1W        W30159  12.313  10.101   3.521 -0.2925 -0.3186  0.0923
    1W        W30160  10.874   9.639   7.756 -0.1096  0.2087 -0.0508
    1W        W30161   5.115   8.940   3.514  0.1598 -0.0127 -0.0483
    1W        W30162  25.558  14.354   1.772  0.0360 -0.0071  0.2230
    1W        W30163  16.248   5.610   3.186 -0.1471 -0.0542  0.1349
    1W        W30164   4.406   6.818   1.116 -0.1716  0.1479  0.1908
    1W        W30165  21.210  18.384   2.819  0.0789 -0.1575  0.4822
    1W        W30166  13.563  10.828   1.453  0.0556 -0.0088  0.2305
    1W        W30167  17.338  21.405   9.770  0.0482 -0.0269 -0.0010
    1W        W30168  19.050  25.892   9.892  0.1523  0.2099 -0.0976
    1W        W30169  16.947  25.098   9.529 -0.0365 -0.1806 -0.1260
    1W        W30170  16.195  28.016   9.296  0.1272 -0.0825  0.1389
    1W        W30171   7.361   4.952   9.135  0.3273 -0.1122 -0.1705
    1W        W30172  11.646  25.159   0.196  0.0155 -0.2518 -0.0067
    1W        W30173  10.207  15.461   2.663 -0.4502  0.1194 -0.0655
    1W        W30174  24.116  20.058   8.211 -0.0592  0.0350 -0.1050
    1W        W30175  11.717   2.632   2.976  0.3012 -0.0987  0.0576
    1W        W30176   5.825   1.443   6.609  0.1413  0.0003  0.1537
    1W        W30177  24.970   9.342   8.786  0.0131  0.2107  0.0819
    1W        W30178  26.787  14.077   8.185  0.0090  0.2155  0.2393
    1W        W30179  23.684   9.746   0.177  0.0399  0.0727  0.2168
    1W        W30180  22.367  23.319   2.980 -0.0993 -0.1743 -0.1911
    1W        W30181  22.238   3.622   3.330  0.1492  0.0089 -0.1787
    1W        W30182   7.742   4.662   1.571 -0.0335 -0.0099  0.0127
    1W        W30183   7.828  26.845   7.841  0.2941 -0.0517  0.2741
    1W        W30184  23.826  11.918   1.993  0.2490 -0.1312 -0.0738
    1W        W30185  11.331  20.702   7.354  0.4198  0.0267 -0.0732
    1W        W30186  18.043  27.871   9.904  0.0549  0.0811  0.0091
    1W        W30187  10.487  27.714   7.939 -0.2311 -0.0341  0.0330
    1W        W30188   1.669   2.670   7.924 -0.1718  0.0703 -0.4277
    1W        W30189  22.634  10.674   0.681 -0.4744 -0.1126  0.4356
    1W        W30190  10.529  27.916   2.007  0.1203  0.3849  0.0159
    1W        W30191   8.071  10.222   2.199 -0.2348 -0.0509  0.2523
    1W        W30192   6.079   2.472   9.501  0.0418 -0.0019 -0.0091
    1W        W30193   3.200  23.827   9.280 -0.0868  0.3609  0.1589
    1W        W30194  16.752  20.340   7.162 -0.1738  0.2818  0.1410
    1W        W30195  14.756   1.579   2.995 -0.3858 -0.0378 -0.1039
    1W        W30196   7.648  26.264   9.913 -0.1203  0.1515 -0.0349
    1W        W30197  16.089  19.637   2.108 -0.0768 -0.3438 -0.1914
    1W        W30198  19.414   1.368  10.004 -0.2974 -0.3001  0.0688
    1W        W30199  25.612  16.374   7.097 -0.1722 -0.2660  0.0958
    1W        W30200   9.920  22.796   2.270  0.1364  0.0348  0.2678
    1W        W30201  16.057  24.401   1.946  0.2972  0.1879  0.0812
    1W        W30202  11.626  10.839  10.291  0.1507  0.0355 -0.3058
    1W        W30203   6.142  25.600   1.443  0.2586  0.1313  0.2546
    1W        W30204  16.445   2.693   8.837 -0.1075  0.1729  0.0079
    1W        W30205   7.067   5.641   2.195 -0.0579 -0.0072  0.0282
    1W        W30206   5.721   6.948   1.954 -0.0871 -0.0894 -0.1013
    1W        W30207   9.146  18.724   7.693  0.1168 -0.1827 -0.3063
    1W        W30208   8.937  11.371   2.817  0.0892 -0.2914  0.0380
    1W        W30209   7.681  16.593   0.412 -0.1570 -0.1414  0.0160
    1W        W30210  25.544   4.776   2.163  0.2724 -0.0314  0.0867
    1W        W30211  20.074   0.714   1.669  0.1454 -0.2927  0.0386
    1W        W30212   2.511  10.216   8.975 -0.1847  0.1626  0.0600
    1W        W30213   6.226   6.470   9.889 -0.0270 -0.1497 -0.2840
    1W        W30214  14.792   9.824   8.539 -0.0803 -0.1739  0.1616
    1W        W30215   3.618  24.967   7.601 -0.0814  0.2360 -0.2581
    1W        W30216  13.602  13.130   9.025  0.2195  0.3595  0.1309
    1W        W30217   7.676  20.534   8.140 -0.0507  0.0587 -0.1336
    1W        W30218  14.216  13.291   0.947  0.1902  0.0426  0.0475
    1W        W30219   3.967   9.277   8.135 -0.0702 -0.1301 -0.0760
    1W        W30220  27.815  21.778   1.294  0.3439  0.0883  0.2552
    1W        W30221   7.349  12.040   1.049  0.0971 -0.0204 -0.1986
    1W        W30222   4.968  24.052   1.049  0.2696  0.0556  0.0754
    1W        W30223   6.835  19.579   7.579 -0.1385 -0.0718  0.1983
    1W        W30224   7.026   7.461   8.382 -0.0958 -0.2202 -0.0557
    1W        W30225  26.756   9.504   2.202  0.0190 -0.1663 -0.0933
    1W        W30226  12.593  22.497   8.907  0.0895  0.1817  0.1015
    1W        W30227  10.913  24.282   9.132  0.0310 -0.0331  0.1354
    1W        W30228  25.172  16.173   8.724  0.1923 -0.1121 -0.0640
    1W        W30229  11.223  27.496   8.266 -0.0138  0.0324  0.3669
    1W        W30230  23.468  21.616   7.359 -0.0170  0.3333 -0.0003
    1W        W30231  10.079   3.306   0.094 -0.0653  0.2450  0.0075
    1W        W30232  24.534  15.621   0.739 -0.0302 -0.0502  0.0145
    1W        W30233  15.146  15.549   2.501 -0.1018 -0.1238 -0.0763
    1W        W30234  10.671  11.603   0.424 -0.2198 -0.0075  0.0877
    1W        W30235   1.356  14.098   1.624 -0.2213  0.1147  0.0411
    1W        W30236   8.881  20.952   9.481 -0.0702  0.1110 -0.0079
    1W        W30237   6.296  16.989   1.915  0.0433 -0.2780 -0.3588
    1W        W30238  17.283  23.683   9.789 -0.0248 -0.0626  0.1494
    1W        W30239  24.984  26.403   2.574 -0.0103 -0.2639 -0.1700
    1W        W30240   3.690  24.830   8.961 -0.2595  0.1741  0.1537
    1W        W30241  14.817   0.753   0.589 -0.1588 -0.0586  0.1112
    1W        W30242   8.753  12.557   1.342 -0.0841 -0.2233  0.1150
    1W        W30243  19.857  23.689   8.090  0.0962 -0.1406  0.3396
    1W        W30244  17.041  18.916   7.639 -0.0381  0.2025 -0.0378
    1W        W30245  13.511  27.058   3.320  0.2478  0.0677  0.4366
    1W        W30246  21.373   8.938   9.826  0.1498  0.0279  0.2798
    1W        W30247  13.655   1.743   9.667 -0.1274 -0.2804  0.4397
    1W        W30248  10.105  22.126   8.408  0.1350 -0.2889  0.2573
    1W        W30249  22.708   5.772   1.503 -0.0601 -0.3823  0.2910
    1W        W30250   0.386  24.826   9.892  0.2501 -0.1710 -0.0810
    1W        W30251  25.153   7.223   7.559 -0.0506 -0.0140  0.0515
    1W        W30252  22.915   6.897   1.542 -0.1736 -0.1278  0.0512
    1W        W30253  18.895   3.459   8.580 -0.1635 -0.0831  0.0256
    1W        W30254  24.293  17.451   8.674  0.3716  0.0136 -0.2144
    1W        W30255   0.226   1.397   9.986  0.1541 -0.1344 -0.1884
    1W        W30256  14.035   1.989   3.673  0.1582  0.0159 -0.2306
    1W        W30257  10.563   7.184   2.920 -0.1218  0.3398 -0.0791
    1W        W30258  15.966  11.784   9.654  0.3989 -0.4045 -0.0540
    1W        W30259   4.890  15.144   0.504 -0.1156 -0.1343  0.0890
    1W        W30260   1.653   5.204   8.479  0.1288 -0.3097  0.2236
    1W        W30261  11.241  25.400   7.485 -0.2102 -0.0668 -0.0335
    1W        W30262  22.954   2.049   7.507 -0.0386  0.0013  0.2807
    1W        W30263  13.638   5.968   9.461  0.1276 -0.3031  0.2653
    1W        W30264   8.745  25.789   8.610 -0.1413 -0.0414 -0.0071
    1W        W30265  16.990   6.614  10.296 -0.2237 -0.1298 -0.0400
    1W        W30266  12.174   4.282   0.501 -0.1000  0.0518 -0.1767
    1W        W30267  22.450   4.498   2.174 -0.2522  0.0831 -0.0153
    1W        W30268   0.564  27.502   1.648  0.1736  0.2268  0.0318
    1W        W30269  13.216  23.824   9.941 -0.1889  0.3321  0.0078
    1W        W30270  10.408   0.206   6.482 -0.0390 -0.2136 -0.2227
    1W        W30271   1.469  22.595   0.778  0.2110 -0.1872  0.3043
    1W        W30272   1.435  28.097   9.389  0.2523  0.0104 -0.0321
    1W        W30273  27.041  16.036   8.097 -0.0693  0.0051  0.2063
    1W        W30274  22.123   0.149   0.605  0.0413 -0.0085 -0.0821
    1W        W30275  16.088  18.179   8.770  0.0486 -0.1642 -0.1314
    1W        W30276  10.928  19.811   9.519  0.1491  0.2460  0.0276
    1W        W30277   0.413  27.425   7.398  0.1308 -0.1247  0.1634
    1W        W30278  10.971   3.693   0.858 -0.1100 -0.0645 -0.2924
    1W        W30279  14.021   4.988  10.206  0.1362  0.4571  0.0925
    1W        W30280   1.831  19.593   1.451 -0.1735 -0.1552  0.0201
    1W        W30281   6.921  16.580   9.379  0.2256 -0.0062  0.3271
    1W        W30282  12.009  16.530   1.555  0.1688 -0.5116  0.0525
    1W        W30283  17.165   9.079   9.566 -0.3122  0.1696  0.2281
    1W        W30284  22.596   1.220   8.630  0.1514 -0.3030  0.1039
    1W        W30285  15.435  14.418   3.698  0.0206  0.3283 -0.0900
    1W        W30286  11.135   6.245   3.097  0.3611 -0.0637 -0.0477
    1W        W30287  20.091  17.082  10.172  0.1025 -0.1913  0.2012
    1W        W30288  20.363  19.405   9.728  0.0218  0.2951 -0.2280
    1W        W30289  14.172   1.443   8.063 -0.0351 -0.2092 -0.1002
    1W        W30290  15.120  11.609   2.329 -0.1949 -0.1357 -0.0728
    1W        W30291   1.000   1.469   7.007 -0.1468 -0.1740 -0.0356
    1W        W30292   6.045  19.569   9.905 -0.1278 -0.0364  0.1029
    1W        W30293  24.920   8.135  10.085  0.1708 -0.1148  0.0066
    1W        W30294  17.077  14.724   0.841 -0.2821  0.2444 -0.1875
    1W        W30295   3.788  20.301   1.181 -0.2568  0.1042  0.2978
    1W        W30296  27.327   4.827   8.250  0.1899 -0.0080  0.2778
    1W        W30297  15.190  14.994   2.968 -0.0375 -0.4294 -0.3574
    1W        W30298  22.356   6.791   0.738  0.1481 -0.2092 -0.2047
    1W        W30299  23.819  16.320   7.660  0.0737 -0.1018 -0.4254
    1W        W30300   1.286  11.585   7.139 -0.2792 -0.0161  0.3444
    1W        W30301  16.445   6.252   8.818  0.0678  0.0237 -0.0898
    1W        W30302  10.820  10.975   7.771  0.1794 -0.2836  0.0262
    1W        W30303  27.446  27.457   7.549 -0.0912 -0.1355  0.0124
    1W        W30304  17.895  17.853   9.432 -0.3757 -0.1867  0.0022
    1W        W30305  25.907   7.956   9.436  0.0903  0.1231 -0.1958
    1W        W30306  23.839  20.499   2.657 -0.3718  0.0718 -0.0544
    1W        W30307  24.540  13.262   7.318 -0.2945 -0.1436  0.2576
    1W        W30308   8.556   3.033  10.251  0.1438 -0.1945  0.1216
    1W        W30309   9.858  10.488   1.310 -0.0203  0.1623  0.0708
    1W        W30310   6.089   9.538   2.365 -0.0025  0.1386 -0.1246
    1W        W30311  12.483   2.924   2.871  0.0322 -0.0416 -0.2969
    1W        W30312  10.534  20.230   8.332  0.0462 -0.1152  0.3041
    1W        W30313  12.797  14.342   8.593  0.0221  0.0119 -0.0603
    1W        W30314   8.839   7.703   1.397  0.3402 -0.0848 -0.0086
    1W        W30315  14.192  27.613   2.341 -0.3769  0.0186 -0.2840
    1W        W30316   5.015   0.857   7.789  0.0244  0.2231  0.0115
    1W        W30317  18.293  13.041   7.513  0.1725  0.1137 -0.2533
    1W        W30318   3.542  10.958   2.706  0.3927  0.1509  0.1247
    1W        W30319  20.101  13.185   1.584 -0.2190  0.4720  0.1985
    1W        W30320  13.235  13.503   2.837  0.1575 -0.0933 -0.3266
    1W        W30321  17.607  12.451   0.329 -0.3643  0.0954 -0.1022
    1W        W30322   9.146  23.950  10.185  0.2987 -0.1559  0.1237
    1W        W30323  19.720  25.165   0.420  0.1098  0.1338 -0.1731
    1W        W30324  22.913   1.926   2.921 -0.3155  0.2925 -0.0939
    1W        W30325   6.994  23.414   2.366  0.1418  0.0370 -0.0744
    1W        W30326  17.602  17.349   9.808 -0.0600 -0.2225  0.1813
    1W        W30327  12.008  17.784   9.934 -0.3596  0.0024 -0.1517
    1W        W30328   5.894  19.662   1.238 -0.1900 -0.1025  0.1355
    1W        W30329  19.723  12.256   8.857  0.0438  0.0445 -0.0520
    1W        W30330  12.573  21.443   3.078  0.0045 -0.1051 -0.0132
    1W        W30331   0.650  12.922   8.691  0.0103  0.0126 -0.0733
    1W        W30332  13.088  26.138   3.596 -0.2046  0.0609 -0.0243
    1W        W30333   7.785  10.246   3.697  0.2671 -0.1234  0.1126
    1W        W30334  21.133  11.753   7.172 -0.0519  0.0471 -0.1701
    1W        W30335   2.950  27.952   6.339  0.0895  0.1943 -0.1705
    1W        W30336   5.585   8.807   8.147 -0.0009 -0.2782 -0.0154
    1W        W30337  17.553  24.253   0.088 -0.3122  0.1290  0.0614
    1W        W30338  22.734   3.331   8.891  0.0345 -0.1765 -0.2990
    1W        W30339  14.685   7.009   8.689 -0.0462 -0.0967 -0.1908
    1W        W30340  16.565  21.049   8.928  0.0772 -0.0458  0.0290
    1W        W30341   7.933  18.084   1.391 -0.1546 -0.3831  0.2652
    1W        W30342  26.321  13.661   7.320  0.1350 -0.1235  0.2707
    1W        W30343  17.974   0.246   0.881 -0.3732  0.0907 -0.3552
    1W        W30344  23.296  25.684   8.082  0.0737  0.3704 -0.0834
    1W        W30345   6.487  11.255   0.022 -0.0076  0.1276  0.0700
    1W        W30346  16.307  12.233   0.578  0.1819  0.1201 -0.2217
    1W        W30347   8.438  23.075   2.314  0.0248  0.0357  0.3708
    1W        W30348  16.126   2.572   1.543  0.2551 -0.0536 -0.2577
    1W        W30349  24.071  21.539   9.792  0.2128  0.2400  0.1175
    1W        W30350  21.555   0.051   6.800 -0.2457 -0.0680  0.1827
    1W        W30351  23.256  15.900   2.114  0.3448  0.0211 -0.0257
    1W        W30352   4.951  24.963   8.081  0.3445  0.0601  0.1381
    1W        W30353   6.983   0.897   1.942 -0.2626 -0.0222 -0.1324
    1W        W30354  15.838  21.388   3.444 -0.0162  0.0216 -0.1318
    1W        W30355  13.450   1.406   2.997 -0.2034  0.0664  0.2079
    1W        W30356  13.831   1.409   7.681  0.0269 -0.0448  0.1687
    1W        W30357   3.726  16.277   9.489 -0.4005  0.0464 -0.1180
    1W        W30358  12.209   5.314   3.113 -0.0877  0.2742  0.2697
    1W        W30359  13.966  18.878   8.921 -0.0061 -0.0215  0.0345
    1W        W30360  27.527   6.229   9.352  0.2801 -0.3079  0.0461
    1W        W30361  24.890   0.478   1.836 -0.0917  0.0291 -0.2788
    1W        W30362  26.060  25.985   1.765  0.0459 -0.1796  0.0683
    1W        W30363   1.368  19.234   0.247 -0.1033 -0.2601 -0.0281
    1W        W30364  10.349   3.388   8.412  0.2500 -0.3127  0.2414
    1W        W30365  25.274  16.696   1.935  0.3499 -0.0389 -0.2275
    1W        W30366  11.890   2.766  10.264 -0.2094  0.1064 -0.0368
    1W        W30367   7.335  17.336   9.990 -0.0481 -0.1784 -0.2461
    1W        W30368  13.194   4.814   0.141  0.1144  0.1322 -0.1560
    1W        W30369  21.938  11.876   1.949  0.0453 -0.1789 -0.0525
    1W        W30370  21.779   2.247   7.479 -0.0228 -0.6149 -0.3234
    1W        W30371  18.543   2.921   2.535  0.1181  0.0234  0.0286
    1W        W30372  17.955  15.668   1.405 -0.0820 -0.1082  0.0176
    1W        W30373  19.932   8.337   8.102 -0.0428 -0.2293  0.3225
    1W        W30374  20.504  23.908   0.143 -0.2144  0.1181 -0.0440
    1W        W30375   9.358   2.932   2.623 -0.0690 -0.1254 -0.2776
    1W        W30376  23.009  13.062   8.783  0.2223 -0.0326  0.0492
    1W        W30377  14.560  11.305   9.377  0.0466  0.2752  0.0644
    1W        W30378  12.335  15.717   3.655  0.1394 -0.2087  0.5059
    1W        W30379   9.527  23.213   2.874  0.2000  0.0935 -0.2493
    1W        W30380  15.039  22.210   2.771 -0.2979 -0.1537 -0.2091
    1W        W30381  22.930   7.640   7.104  0.3291 -0.3601 -0.0130
    1W        W30382   1.012  15.853   7.067 -0.1053 -0.2936 -0.1964
    1W        W30383  11.886  22.474   8.935  0.4426 -0.3754  0.2842
    1W        W30384  11.356  25.869   9.735  0.2041 -0.1915  0.2723
    1W        W30385   6.168  26.133   8.908  0.4626 -0.3660  0.1007
    1W        W30386  18.968  27.693   0.726  0.0306  0.1075 -0.0539
    1W        W30387  15.216   3.095   3.810 -0.0348  0.0694 -0.1733
    1W        W30388  22.226   1.131   8.214 -0.1177 -0.0167  0.1944
    1W        W30389  25.163   0.892   2.450 -0.0388  0.0661  0.1686
    1W        W30390   4.862  10.781   8.338  0.0505  0.2479  0.3210
    1W        W30391  25.388   4.935   9.878  0.2576 -0.2375  0.2693
    1W        W30392   7.894   5.000   1.984  0.3865  0.1368  0.2048
    1W        W30393  21.346   8.336   0.984  0.0541  0.3689  0.2640
    1W        W30394   8.261  19.323   3.646 -0.1065 -0.0333 -0.0915
    1W        W30395   2.960  19.241   2.047  0.0440  0.1571 -0.1999
    1W        W30396  18.781  26.051   2.619 -0.3112  0.0609 -0.4863
    1W        W30397  18.329  24.603   8.575  0.0384  0.1414 -0.1591
    1W        W30398  17.115  21.755  10.072  0.2246  0.0484  0.1082
    1W        W30399  25.172   0.184   0.994  0.1079 -0.0260  0.0137
    1W        W30400  11.849   5.799   9.176  0.0534  0.1369  0.1113
    1W        W30401  21.294   2.818   0.806  0.2930  0.1629 -0.0762
    1W        W30402  13.651  25.943   2.510  0.1506  0.0373  0.0937
    1W        W30403   5.571  27.245   7.387  0.1283  0.0603  0.4654
    1W        W30404  15.155  21.262   8.689 -0.1080 -0.2263  0.0534
    1W        W30405  24.027   9.691   7.280  0.0518 -0.1202 -0.2370
    1W        W30406   5.862  17.779   3.093 -0.1236 -0.3988  0.0534
    1W        W30407  16.623   9.128   1.274  0.0378 -0.0243 -0.1312
    1W        W30408   3.557   9.811  10.338  0.2717  0.1401  0.1370
    1W        W30409  27.849  21.353   7.710 -0.1344 -0.0778 -0.0096
    1W        W30410  19.082  21.774   0.247 -0.0219  0.1091  0.1186
    1W        W30411  24.634  16.942   8.004 -0.4731 -0.2283 -0.1025
    1W        W30412   1.013  16.530   2.496  0.0568 -0.0420  0.0260
    1W        W30413  27.735  26.414   2.299 -0.0701  0.0079  0.0147
    1W        W30414  23.148  14.577   1.214  0.0692  0.3840  0.3286
    1W        W30415  12.700   4.147   9.111 -0.0604  0.3463 -0.0385
    1W        W30416  18.553  13.611   7.947 -0.3005  0.1058 -0.0038
    1W        W30417  19.549   0.756   1.750  0.2548 -0.2195  0.2220
    1W        W30418   2.114  23.822   9.937  0.1563 -0.2053  0.0684
    1W        W30419  23.481   3.036   9.296  0.0351  0.0700 -0.0959
    1W        W30420   8.983  21.982   3.366 -0.0495 -0.2638 -0.1674
    1W        W30421  15.628  13.492   2.123 -0.1448  0.1473 -0.0107
    1W        W30422   2.086  27.734   8.866  0.5256  0.0468  0.1280
    1W        W30423  16.016  21.804   1.822  0.1185  0.1156 -0.2066
    1W        W30424  10.294  20.379   9.558 -0.2158 -0.0338  0.0787
    1W        W30425  15.692   9.730   7.984 -0.0821 -0.0576  0.1016
    1W        W30426  25.561  11.549   6.790  0.1704 -0.1431  0.0384
    1W        W30427   7.788   8.665   3.082 -0.2336 -0.3033 -0.0658
    1W        W30428  16.221  22.512   1.756  0.0962  0.1237  0.3041
    1W        W30429   7.292  24.784   2.501  0.0207 -0.2646  0.0104
    1W        W30430   9.425  20.815   7.938 -0.1239  0.1266 -0.1549
    1W        W30431  10.839  23.235   0.229 -0.0540  0.1570  0.0966
    1W        W30432  20.170  11.646   7.267 -0.1699 -0.0871  0.1685
    1W        W30433  18.264  20.090   1.607 -0.2781 -0.0605  0.0765
    1W        W30434  22.618  11.676   3.266  0.0661 -0.1774 -0.0021
    1W        W30435  17.848  11.467   0.641  0.0703 -0.0021  0.2071
    1W        W30436   7.965  22.280   9.247  0.3253  0.2287  0.0548
    1W        W30437  23.239  26.173   9.425  0.1275  0.0472  0.0195
    1W        W30438   9.649  17.146   3.227  0.0889 -0.2262  0.2316
    1W        W30439  19.620  23.958  10.285 -0.2720 -0.1341 -0.2039
    1W        W30440  12.524  16.225   3.706 -0.0307  0.0255  0.0275
    1W        W30441  12.095  14.546   0.196 -0.0552  0.2166  0.1302
    1W        W30442  25.321  17.542   8.898  0.2049  0.0152 -0.1757
    1W        W30443   6.683   9.354   9.067  0.0481 -0.0959  0.1695
    1W        W30444   8.056  15.542   1.954  0.1161  0.2416  0.1994
    1W        W30445   3.587  22.788   9.830  0.0345 -0.0599  0.0044
    1W        W30446  12.679  24.892   0.024  0.2156  0.2025 -0.1867
    1W        W30447  20.612   8.590   1.712 -0.2097 -0.3034  0.0128
    1W        W30448  14.692  21.099   2.208 -0.2235  0.1566 -0.1607
    1W        W30449   1.003  19.091   1.696  0.2299  0.1564 -0.0435
    1W        W30450  10.647  10.540   2.337  0.1573  0.0391  0.0252
    1W        W30451  15.390  13.762   8.468 -0.0889  0.2503  0.1722
    1W        W30452  20.050  16.464   9.139 -0.0383  0.0505 -0.3698
    1W        W30453  15.030   9.148   0.286 -0.0788  0.1873  0.0314
    1W        W30454   7.691   1.460   0.153  0.0587 -0.1394 -0.1455
    1W        W30455  15.860  20.786   1.995  0.2150  0.1019  0.0804
    1W        W30456  17.627  15.199   1.435  0.0282 -0.3024 -0.1503
    1W        W30457   7.465  17.336   2.989  0.0236 -0.1446  0.0617
    1W        W30458   9.843   4.532   0.645  0.0607  0.1678 -0.1845
    1W        W30459  14.005   4.478   2.792  0.1437  0.1657 -0.1333
    1W        W30460   3.435   4.841   6.653 -0.0617  0.2317 -0.1193
    1W        W30461  17.877  21.350   7.681  0.2419  0.2143  0.0197
    1W        W30462  14.299  21.287   7.740 -0.2964  0.0564  0.0898
    1W        W30463  27.893  15.215   1.144  0.2366  0.0202 -0.3811
    1W        W30464   6.533  21.900   9.383 -0.1317  0.0374  0.1059
    1W        W30465  22.250  27.002   9.074 -0.1224  0.1153 -0.0565
    1W        W30466  16.641  27.604   1.990  0.0696  0.2875 -0.0324
    1W        W30467   5.278   2.382   9.829  0.1857  0.2806 -0.1804
    1W        W30468   2.269  26.495   8.093 -0.0710  0.0613  0.1834
    1W        W30469  13.503   9.148   9.968 -0.1821 -0.1563 -0.0717
    1W        W30470  18.691  18.861   2.004 -0.3967  0.1894 -0.1146
    1W        W30471  19.995  26.890   1.394  0.0253  0.0037  0.0112
    1W        W30472  18.259  23.048   3.438  0.2168 -0.1803  0.1798
    1W        W30473   1.844  25.656   2.277 -0.1360 -0.1031 -0.1054
    1W        W30474  11.104  25.802   0.773 -0.1416 -0.1424 -0.1322
    1W        W30475  12.181   8.216   7.485  0.1276  0.0450  0.0407
    1W        W30476  16.916  15.332   0.144  0.1258  0.1144  0.0930
    1W        W30477  16.319   9.031   9.121 -0.1846  0.0248 -0.0775
    1W        W30478   3.506  22.070   9.110 -0.1159 -0.1289 -0.0864
    1W        W30479  25.193  13.206   9.543 -0.0969 -0.1934  0.0207
    1W        W30480  25.334  22.606   8.907  0.2467 -0.2283 -0.1480
    1W        W30481   7.867  21.347   9.212  0.2218  0.1943 -0.2350
    1W        W30482  12.177  20.902   8.495  0.4177  0.0480  0.1078
    1W        W30483   2.589  12.708   9.747 -0.2264  0.1585  0.1487
    1W        W30484  26.303   7.807   9.669 -0.0045  0.1782  0.2322
    1W        W30485  11.764  25.248   0.922 -0.1540 -0.3132  0.2865
    1W        W30486   9.162   6.629   0.373  0.0099 -0.2159 -0.2113
    1W        W30487  10.930  11.852   9.152 -0.0861  0.0953  0.0173
    1W        W30488  17.615  23.196   2.180  0.1761 -0.1711 -0.0230
    1W        W30489   3.445   5.550   9.557  0.0989  0.0330  0.1108
    1W        W30490  23.052  19.952   1.375 -0.0081  0.0038 -0.5035
    1W        W30491  24.483   8.245   6.257 -0.0791 -0.1815  0.1466
    1W        W30492  26.043   3.852   9.321 -0.0741  0.2515 -0.0339
    1W        W30493  17.623   5.297   8.949  0.0469  0.1353 -0.0207
    1W        W30494  23.775  18.632   3.877 -0.1201 -0.0445  0.1542
    1W        W30495   7.342  18.145   3.372  0.2041  0.0533 -0.1299
    1W        W30496  24.392  26.286   8.662  0.3914 -0.2665 -0.1035
    1W        W30497  23.095  12.154   7.717  0.2008  0.2098  0.2091
    1W        W30498  10.678  11.860   0.862 -0.0453  0.3782 -0.4234
    1W        W30499   1.333   0.902   8.252  0.2862  0.0214  0.1813
    1W        W30500  26.844  24.428   2.451 -0.0560  0.1162 -0.2852
    1W        W30501  16.365  12.338   1.531 -0.2763 -0.1338  0.1036
    1W        W30502  11.321   1.705   2.093  0.0650  0.0277  0.1162
    1W        W30503  24.799  13.468   7.695  0.1454  0.1025  0.0126
    1W        W30504   8.600   6.947   9.905  0.0138  0.4279  0.0392
    1W        W30505  17.089  27.702   1.862  0.1406 -0.1918  0.1907
    1W        W30506  27.365  20.569   8.431 -0.1625 -0.1512 -0.0343
    1W        W30507  16.923   1.904   3.103  0.1486 -0.0682  0.1945
    1W        W30508   6.426   4.185   2.554 -0.4636  0.2367  0.0171
    1W        W30509  17.654  22.845   2.972  0.1253 -0.1105  0.1246
    1W        W30510   5.319  22.543   2.934 -0.0485  0.0205 -0.0523
    1W        W30511   8.669  13.860   2.237  0.2757 -0.4426 -0.0146
    1W        W30512  24.360   7.493   2.206  0.0584  0.1164  0.2348
    1W        W30513  24.833   2.439   0.942 -0.1946 -0.1577 -0.0947
    1W        W30514  24.726  12.836   1.690  0.0707 -0.2528 -0.1778
    1W        W30515  20.979  25.964  10.222  0.0268  0.0565  0.0173
    1W        W30516  21.790  26.163   8.253 -0.0633 -0.2665 -0.1722
    1W        W30517  23.948  23.897   0.491  0.2727 -0.0787  0.0256
    1W        W30518  14.493  15.856   2.932 -0.1117  0.2896  0.0472
    1W        W30519   6.867  22.275   2.462  0.0283 -0.0994  0.2909
    1W        W30520  10.076   2.933   2.141 -0.2843  0.0926  0.1063
    1W        W30521  19.832  28.108  10.020 -0.0048  0.0221 -0.3449
    1W        W30522   0.951  12.035   8.279 -0.0491  0.1085 -0.2639
    1W        W30523  11.521  12.404   3.221 -0.2610 -0.1760  0.2165
    1W        W30524   9.952  24.089   3.165  0.1539 -0.4503 -0.2996
    1W        W30525   0.729  19.449   7.571  0.3833  0.1337 -0.1337
    1W        W30526  26.463  15.059   6.255 -0.0997 -0.1591  0.0298
    1W        W30527   0.368  15.405   7.725 -0.0267  0.2546 -0.3569
    1W        W30528   5.818  17.258   2.172  0.0308  0.0755  0.2984
    1W        W30529   9.869  15.928   2.567  0.1089 -0.0109  0.0265
    1W        W30530  21.923   5.265   1.351  0.1856 -0.1052  0.4681
    1W        W30531   2.995   8.654   1.911  0.3793  0.0470  0.0714
    1W        W30532   6.950   3.087   9.494  0.4613  0.1432  0.0329
    1W        W30533   0.342  27.216   8.186 -0.1432 -0.1885 -0.2710
    1W        W30534   9.581  27.184   8.630 -0.1100 -0.2519  0.1597
    1W        W30535  27.929  16.061   9.708 -0.0517  0.0148  0.1692
    1W        W30536  26.668   9.635   0.239  0.0257 -0.2494 -0.1199
    1W        W30537   9.167  10.062   0.614  0.3676 -0.1434 -0.1809
    1W        W30538  12.458  20.012   7.998  0.2707  0.0464 -0.1365
    1W        W30539  17.525   1.879   0.228  0.1098  0.2482 -0.0976
    1W        W30540   0.673  16.013   6.777  0.6865 -0.1192  0.2663
    1W        W30541   0.726  12.466   8.391  0.2028 -0.1319  0.1718
    1W        W30542   6.827  17.352   3.002  0.2034  0.2902  0.0282
    1W        W30543  16.586  17.788   9.266 -0.2164  0.0562 -0.1081
    1W        W30544   1.786  11.938   9.418  0.1664 -0.0615  0.0858
    1W        W30545   4.673  22.849   9.670 -0.0500 -0.3858  0.1444
    1W        W30546  15.695   8.307   8.670  0.4346 -0.0384 -0.1349
    1W        W30547  26.553   3.282   7.566 -0.0575  0.1526 -0.0024
    1W        W30548   2.395  24.199   0.812  0.0674 -0.2864  0.1805
    1W        W30549   6.662   5.378   8.887 -0.3717  0.3792  0.0485
    1W        W30550  11.087  21.443   7.948 -0.0067  0.0727 -0.2491
    1W        W30551   5.060  18.186   8.323  0.1310  0.0442  0.1138
    1W        W30552  17.571  25.616   0.678 -0.2419 -0.0714 -0.0893
    1W        W30553  26.348  20.053   1.061  0.1555  0.3732 -0.0279
    1W        W30554  25.244  16.598   6.616 -0.4795  0.2304  0.0071
    1W        W30555   8.713  18.043   7.965  0.1527 -0.4082  0.4486
    1W        W30556  23.539   6.506   2.545  0.0423  0.0099  0.1230
    1W        W30557   8.133   1.259   8.833 -0.1043 -0.1892 -0.0271
    1W        W30558  10.208  24.199   8.348  0.1711  0.1971 -0.3996
    1W        W30559   6.106  10.112   3.119 -0.2413 -0.2015  0.1178
    1W        W30560   1.432   1.136   1.053  0.4167 -0.0128 -0.1025
    1W        W30561  25.664  26.919   8.506 -0.3382  0.2280  0.2579
    1W        W30562  23.764   1.430   7.847 -0.2479 -0.0073 -0.0143
    1W        W30563  15.082  16.416   3.256 -0.0354  0.2683 -0.1524
    1W        W30564   2.136   6.090   7.052  0.1235 -0.2129  0.0756
    1W        W30565  13.913   7.801   0.973  0.2564  0.0879 -0.1090
    1W        W30566   6.560  23.728  10.171  0.2326 -0.0361  0.0069
    1W        W30567   2.130  15.822   9.930 -0.0516 -0.2411  0.1923
    1W        W30568  10.392  13.048   9.842 -0.2590  0.2726 -0.0533
    1W        W30569  15.387  22.491   1.263  0.0963  0.3574  0.3880
    1W        W30570   9.868  10.952   3.790 -0.3921  0.0630  0.0385
    1W        W30571   8.100   4.386   1.750 -0.4814  0.1013 -0.0382
    1W        W30572  10.657   9.222   7.544 -0.0992 -0.0507  0.0086
    1W        W30573  21.279   7.647   1.527  0.0898  0.0034 -0.0361
    1W        W30574   2.093  12.431   3.389  0.0820 -0.2626  0.0312
    1W        W30575  15.653  11.854   9.221  0.0282 -0.3109 -0.1859
    1W        W30576  11.980   2.330   0.078  0.1829 -0.0354 -0.1917
    1W        W30577   6.730   2.735   8.772 -0.1552 -0.2764 -0.1458
    1W        W30578   6.829  20.996   9.052 -0.1943 -0.0797  0.0058
    1W        W30579   7.203   4.493   1.530  0.2381  0.2038  0.2517
    1W        W30580   7.112  27.458   9.020 -0.0786  0.1639 -0.1267
    1W        W30581   3.434   2.344   8.820 -0.1063 -0.0226 -0.3656
    1W        W30582  21.150   4.815   9.111  0.1437  0.0822 -0.0703
    1W        W30583   4.977   8.753   7.240 -0.2855  0.0310 -0.0920
    1W        W30584   6.577  19.821   0.651 -0.4739  0.0695 -0.1505
    1W        W30585   8.904   2.796   9.934 -0.2638  0.1053  0.0649
    1W        W30586  21.569  26.943   2.230 -0.0453  0.2758 -0.2690
    1W        W30587  25.374  21.967   9.525  0.1928  0.3071 -0.5216
    1W        W30588  27.574  12.345   7.626 -0.2329  0.0630  0.0087
    1W        W30589   4.880   2.090   8.003  0.0079 -0.0147  0.0409
    1W        W30590  23.712  16.209   3.755 -0.2085 -0.0234  0.2038
    1W        W30591  27.334   3.387   0.408 -0.2271  0.0278  0.1121
    1W        W30592  26.935  15.173   6.792 -0.1970 -0.1367 -0.2541
    1W        W30593  12.592  22.251   7.529  0.0799  0.2107  0.0367
    1W        W30594   0.416  23.071   9.170  0.0931  0.1382  0.1442
    1W        W30595  21.772  14.321   1.283  0.1908 -0.0900  0.0395
    1W        W30596  20.642  10.941   9.912  0.2169  0.0019  0.2634
    1W        W30597  27.622  21.824   9.249  0.1497 -0.0250  0.1709
    1W        W30598  16.389   0.450   9.481 -0.0369 -0.3392  0.0358
    1W        W30599   3.260  12.332   8.835  0.0890 -0.2412  0.1160
    1W        W30600   8.767  22.072   2.404  0.0042  0.2394 -0.0892
    1W        W30601   1.965  14.288   8.480 -0.0132 -0.0797  0.0356
    1W        W30602   2.074  25.855   1.585 -0.0999 -0.1640 -0.0942
    1W        W30603  14.469  15.576   9.879 -0.0643 -0.0215  0.0180
    1W        W30604   6.076  15.303   9.141 -0.0534 -0.0907 -0.2514
    1W        W30605   9.850  12.756   0.444 -0.0967  0.0109  0.1292
    1W        W30606   1.179  26.820   7.474 -0.1091 -0.0204 -0.1953
    1W        W30607  16.243  26.240   2.646  0.0714 -0.1555 -0.2192
    1W        W30608   0.046  21.812   6.883 -0.0960 -0.0481 -0.4532
    1W        W30609   8.437  16.684   0.862  0.3353  0.0407 -0.4158
    1W        W30610  20.276  22.773   1.640 -0.1242 -0.0272  0.1623
    1W        W30611  10.673  10.358   9.949  0.1108 -0.0299 -0.2186
    1W        W30612   2.512  21.247   7.258 -0.1599 -0.0405 -0.0913
    1W        W30613  13.555   8.093  10.102  0.2321 -0.3732  0.0721
    1W        W30614   6.603   1.728   9.916  0.1367  0.1779 -0.0419
    1W        W30615  11.658   1.356   2.077 -0.2390  0.0249  0.0195
    1W        W30616  27.013   3.998   8.614  0.0655 -0.0739  0.2750
    1W        W30617  24.331  11.992   0.185  0.0733  0.0652 -0.1334
    1W        W30618  11.885   0.134   9.129 -0.0384 -0.0070 -0.4605
    1W        W30619  12.638  18.489   2.758 -0.3549 -0.0768  0.4913
    1W        W30620  17.825  16.267   1.367 -0.0017  0.3723 -0.2122
    1W        W30621  22.329   1.476   6.677 -0.0811  0.0053 -0.2154
    1W        W30622  14.261  20.548   2.109  0.1783  0.3960  0.1340
    1W        W30623  10.373  18.338   3.191  0.0073  0.1382 -0.0548
    1W        W30624  19.242   0.966   2.986 -0.1100 -0.1299 -0.1724
    1W        W30625   1.279  14.644   0.460 -0.1542 -0.5301 -0.0903
    1W        W30626  10.559   2.864   9.767 -0.0626  0.2080  0.1364
    1W        W30627  16.728   2.885   8.028  0.5133  0.4025  0.0828
    1W        W30628  19.746  15.014   0.309  0.3412 -0.0879 -0.0727
    1W        W30629  26.025  20.897   0.693  0.0774 -0.1061  0.1202
    1W        W30630  27.951  20.087   2.118 -0.0541 -0.1207 -0.0043
    1W        W30631  27.088   7.533   9.403  0.1969 -0.0426 -0.0653
    1W        W30632  27.610   6.768   6.011 -0.0348  0.2550  0.2312
    1W        W30633   3.202  23.834  10.101  0.3139 -0.1248  0.1108
    1W        W30634   4.918  13.852   2.316 -0.1208 -0.2223  0.0160
    1W        W30635   6.467   7.617   8.488 -0.2814 -0.0952 -0.0692
    1W        W30636  21.917   3.503   1.370 -0.0951 -0.0009  0.1776
    1W        W30637  12.422  15.621   8.662 -0.0170 -0.2334  0.3645
    1W        W30638  22.289  13.452   0.435 -0.2168 -0.2219  0.3247
    1W        W30639  24.988  14.849   1.302 -0.0725  0.2041 -0.3904
    1W        W30640  18.278  22.688   2.284 -0.1330  0.1129  0.2445
    1W        W30641  12.115  20.939   8.985  0.2385  0.0604  0.0318
    1W        W30642   0.943   6.792   9.214  0.4415 -0.0734  0.5213
    1W        W30643  16.340  16.441   3.030 -0.0312  0.0931  0.3016
    1W        W30644  22.772  25.808   8.243  0.0048  0.0761  0.0879
    1W        W30645   0.501  22.823  10.050 -0.4015  0.3601 -0.1392
    1W        W30646  14.305  27.342   3.669  0.2248 -0.1444  0.2302
    1W        W30647  10.661   3.250   9.294 -0.1153  0.0267 -0.0259
    1W        W30648  25.355  11.334   0.907 -0.1653  0.1362 -0.3482
    1W        W30649  12.652   0.597  10.317  0.2467 -0.0516 -0.2495
    1W        W30650  21.641  19.863   8.180  0.2263 -0.2155  0.0486
    1W        W30651  12.302  19.985   9.872  0.0779  0.0734  0.2777
    1W        W30652  22.429  21.442  10.311 -0.0081 -0.0808 -0.0255
    1W        W30653  17.048  21.251   8.008  0.1644  0.2310 -0.0295
    1W        W30654  24.588   5.796   8.416 -0.0935  0.0388  0.2225
    1W        W30655   8.279  14.986   6.982 -0.1647 -0.0171  0.1181
    1W        W30656   7.333   6.680   8.727  0.0291  0.2881  0.1111
    1W        W30657   5.608   9.728   1.452 -0.0534 -0.0502  0.0110
    1W        W30658   0.413  16.084   0.837 -0.0565  0.1776 -0.1593
    1W        W30659  12.466   7.702  10.217 -0.0880  0.1874  0.1371
    1W        W30660  24.807  12.436   2.030 -0.2855 -0.1047  0.2513
    1W        W30661   7.391  24.024   1.422 -0.0457 -0.0300  0.1561
    1W        W30662  18.522  14.370   9.777  0.3897 -0.4978  0.0290
    1W        W30663   6.040  15.184   7.417 -0.1264  0.2151 -0.2307
    1W        W30664   8.093  24.569   7.922  0.0205 -0.0861 -0.2381
    1W        W30665  26.773   6.648   2.795  0.1120 -0.0184 -0.1181
    1W        W30666  18.219  20.254   1.012 -0.2502 -0.3326  0.1270
    1W        W30667  21.370  18.142  10.013  0.1552 -0.1579  0.1051
    1W        W30668  26.593  11.750   9.051 -0.1572  0.1326  0.1493
    1W        W30669  15.014  19.007   2.951  0.2620  0.0021  0.0354
    1W        W30670   0.611   7.578   8.563  0.0634 -0.0354  0.0294
    1W        W30671   1.203  25.103   1.995 -0.5089  0.3209 -0.1290
    1W        W30672  26.624  12.080   9.920 -0.3284  0.1201 -0.0454
    1W        W30673  21.870  27.830   0.435 -0.0809 -0.1986  0.0896
    1W        W30674   4.610   5.374   2.065  0.1854  0.1966  0.0234
    1W        W30675  11.921  23.411   0.042 -0.1129  0.0434  0.3437
    1W        W30676  15.442  20.657   1.610 -0.3710  0.0625 -0.1283
    1W        W30677   6.549  21.960   8.656  0.2248  0.5354 -0.2990
    1W        W30678   4.951  25.660   0.867  0.0868  0.1842 -0.1067
    1W        W30679  24.555  14.729   7.297 -0.1098 -0.2816 -0.3959
    1W        W30680   9.867   0.741   1.227 -0.1680 -0.2155 -0.1255
    1W        W30681   4.042   4.177   6.060 -0.3111  0.0758 -0.0505
    1W        W30682  15.911  18.713   1.598  0.0121 -0.1066 -0.1759
    1W        W30683   9.374  18.794  10.064  0.0907  0.1992 -0.1234
    1W        W30684  10.906  15.510   1.614 -0.3634  0.4039  0.1608
    1W        W30685   2.245  18.899   6.425  0.2363  0.2367 -0.1514
    1W        W30686  17.336   9.551   7.130 -0.1549  0.2149 -0.1474
    1W        W30687  23.990   0.237   9.413  0.0611 -0.0165 -0.4376
    1W        W30688   2.474   7.386   1.126 -0.3281 -0.1061  0.1627
    1W        W30689  21.440  16.440   7.440 -0.4190  0.0472 -0.2840
    1W        W30690   5.310  12.820   2.574 -0.1295 -0.1204  0.0771
    1W        W30691   9.265  24.897  10.160  0.0535  0.1304  0.1554
    1W        W30692  17.696   4.980   8.491  0.0761 -0.0776 -0.1813
    1W        W30693  11.562  21.940  10.090  0.1454 -0.1581 -0.0650
    1W        W30694   5.007  15.092   7.382 -0.0676  0.0256 -0.1266
    1W        W30695   8.484   2.190   2.064 -0.0125  0.2059 -0.4241
    1W        W30696  15.691   9.557   3.459 -0.1133  0.1468  0.2546
    1W        W30697  25.667  22.093   0.203  0.1059 -0.0378  0.0646
    1W        W30698  22.218   1.458   7.163  0.1813  0.1204 -0.2523
    1W        W30699  24.222  26.947   1.129 -0.0319 -0.2616 -0.0528
    1W        W30700   3.980   8.360   6.153 -0.4095 -0.3891 -0.1797
    1W        W30701  13.595  20.119   8.974 -0.1120  0.0515 -0.3011
    1W        W30702  19.916   3.845   1.153  0.1832  0.0995  0.1810
    1W        W30703  15.598  21.921   0.451 -0.0225 -0.1006  0.1960
    1W        W30704   4.675  15.961   1.622 -0.3046 -0.0130 -0.2909
    1W        W30705  12.174   2.077   1.743 -0.2615 -0.2876 -0.0816
    1W        W30706  24.832   4.533  10.293  0.0003 -0.1353 -0.1090
    1W        W30707   0.089  12.391   0.471 -0.1444 -0.1470  0.3548
    1W        W30708   3.099  10.872   0.524 -0.0168 -0.1429 -0.0876
    1W        W30709   5.611  17.703   2.077 -0.0055  0.0205 -0.5232
    1W        W30710  17.929   7.098   7.432  0.0337 -0.1674 -0.1172
    1W        W30711  16.252   3.657   3.299 -0.3192 -0.4944  0.1413
    1W        W30712  10.675  25.499   8.156  0.2086 -0.1104  0.0822
    1W        W30713  10.303  10.606   9.666 -0.0117  0.3814 -0.2190
    1W        W30714  13.333   6.003   1.216  0.0909 -0.2201 -0.2332
    1W        W30715  10.392   0.404   9.480  0.1520  0.1515 -0.0374
    1W        W30716  25.957  19.061  10.189  0.0898  0.5346  0.2514
    1W        W30717  23.177  18.969   7.981  0.1259  0.3855  0.0801
    1W        W30718  24.706  10.909   7.825 -0.0541  0.1825  0.2272
    1W        W30719  15.929  23.555   7.159 -0.0881 -0.3845  0.3205
    1W        W30720  19.875  13.280   9.807  0.3244 -0.1252 -0.0785
    1W        W30721  13.408   6.434   9.292 -0.0065 -0.0518 -0.0558
    1W        W30722   9.895  20.498   1.159  0.1393 -0.0306 -0.0543
    1W        W30723  21.465   8.367   1.627 -0.1746 -0.0197  0.1336
    1W        W30724  16.191  20.865   7.451 -0.1352 -0.1218  0.5012
    1W        W30725  19.830   6.533   6.848 -0.0584 -0.0199 -0.0490
    1W        W30726   3.967  25.487   0.671 -0.3109 -0.3630 -0.1079
    1W        W30727  19.119  15.467   8.365  0.1652  0.3203  0.0672
    1W        W30728  17.865   1.060   4.020  0.0344  0.0666  0.0945
    1W        W30729  10.550  15.863   7.901 -0.0943 -0.1884 -0.0905
    1W        W30730  21.255   0.393   3.306 -0.0239  0.2801  0.1243
    1W        W30731  18.913  17.122   8.375 -0.1234  0.0052  0.1043
    1W        W30732  17.360  13.125   0.310  0.3520  0.0468  0.3599
    1W        W30733  27.935   9.199   7.827 -0.0920  0.1594 -0.1434
    1W        W30734  21.469   6.103   1.530  0.0237  0.1799 -0.0503
    1W        W30735  10.907   2.825   2.840  0.2718 -0.1854  0.1257
    1W        W30736  22.312  25.600   2.954 -0.2956  0.0904  0.1916
    1W        W30737  20.099  27.211   8.884  0.1907  0.0711 -0.0352
    1W        W30738  19.847   5.825   7.460 -0.1188 -0.3510 -0.0414
    1W        W30739   0.523   8.151   2.692  0.1688 -0.3432  0.0258
    1W        W30740   4.972  15.586   0.751  0.3254  0.3833  0.0745
    1W        W30741  13.679  14.195   3.139  0.0767  0.0677  0.0822
    1W        W30742  20.743  24.823   1.924 -0.0775  0.1307 -0.0766
    1W        W30743  13.969   8.611   3.168  0.0751  0.3666  0.3385
    1W        W30744   8.094  20.782   7.975 -0.1694 -0.0081 -0.1116
    1W        W30745  14.721  11.908   2.021  0.0702 -0.1365  0.0618
    1W        W30746   4.360   5.196   0.497  0.0350  0.0714  0.0640
    1W        W30747  12.371  14.343   2.395 -0.0068 -0.0543 -0.4031
    1W        W30748  24.249  24.164   1.759  0.0037 -0.3044 -0.0389
    1W        W30749   9.051  10.621   1.159 -0.1313 -0.0248  0.0652
    1W        W30750   1.242  15.959   1.306 -0.0936  0.2451 -0.0072
    1W        W30751  19.281  21.589   2.199 -0.1817  0.1895 -0.1258
    1W        W30752   2.082  25.474   9.909  0.1757  0.0982  0.0900
    1W        W30753  22.107  14.295   1.655  0.0175  0.0750 -0.2139
    1W        W30754  10.924   1.420   3.253 -0.1271 -0.0138 -0.0451
    1W        W30755  17.094  19.630   0.030  0.1513 -0.1960  0.1814
    1W        W30756   2.510  22.555   7.965  0.3024 -0.0013  0.3500
    1W        W30757  19.097  17.086   9.057 -0.1111 -0.2671 -0.1570
    1W        W30758   3.280   9.585   0.312  0.2360 -0.0094 -0.0089
    1W        W30759   0.669  26.025   9.781 -0.1507 -0.0674  0.1719
    1W        W30760   0.886  20.167   8.141  0.3010  0.2828  0.4254
    1W        W30761  16.923  27.352   1.421 -0.4987 -0.1956 -0.4484
    1W        W30762  15.546  10.759   2.151 -0.0255  0.3790  0.0191
    1W        W30763   2.233  11.207   7.371 -0.0179  0.0962 -0.1349
    1W        W30764  14.293  19.783   0.469 -0.2081 -0.0361  0.3387
    1W        W30765   2.088  15.132   6.572  0.0364 -0.2505 -0.2509
    1W        W30766   9.572  26.503   0.183 -0.1649  0.0939 -0.0764
    1W        W30767   8.897   0.238   7.888 -0.3680  0.1323  0.1263
    1W        W30768  23.740  26.341   7.748 -0.0760  0.3094  0.1818
    1W        W30769  11.991   0.034   3.068 -0.1290  0.1538  0.2593
    1W        W30770  14.478   0.537   8.004 -0.0577  0.1707  0.0025
    1W        W30771  20.841   8.626   0.437  0.1452 -0.1141 -0.1294
    1W        W30772   5.707  15.553   7.492  0.0268  0.0132  0.0813
    1W        W30773  22.249  19.037   7.751 -0.0886 -0.1620 -0.2971
    1W        W30774  14.359   4.808   2.848 -0.0026  0.1813 -0.1543
    1W        W30775  21.785  22.309  10.278  0.1577 -0.2879  0.0138
    1W        W30776  15.533   6.371   1.825  0.1044 -0.0800 -0.0180
    1W        W30777  18.682  14.768   0.277 -0.0490 -0.0478  0.1085
    1W        W30778  20.309  13.213  10.347 -0.0831 -0.1076  0.1950
    1W        W30779  12.360  26.227   2.000 -0.0986  0.1893 -0.1149
    1W        W30780   4.898   1.242   2.424 -0.0296 -0.0271  0.3979
    1W        W30781  14.583  15.340   1.854  0.1104 -0.0613  0.1294
    1W        W30782  22.896  21.811   8.053  0.2762 -0.2377  0.3301
    1W        W30783   2.306  17.404   2.396 -0.1729  0.1968 -0.2021
    1W        W30784   7.156  14.493   9.954  0.3604 -0.2198 -0.0637
    1W        W30785  25.170  11.833   0.774  0.1786  0.0261  0.0714
    1W        W30786   6.069   2.015   0.099 -0.5717  0.0562  0.1236
    1W        W30787  14.849  18.672   2.627  0.2717 -0.1933  0.2040
    1W        W30788  19.654   8.951   1.754  0.0938 -0.3288  0.0677
    1W        W30789   9.726  17.135   9.449  0.1387 -0.0451 -0.1379
    1W        W30790  26.885   0.268   9.195 -0.0254  0.1194 -0.0432
    1W        W30791  12.120  18.454   8.286  0.1267  0.3587  0.1523
    1W        W30792  20.063   7.960   2.065 -0.0335 -0.0596  0.0485
    1W        W30793  23.469  11.193   9.208  0.0274  0.0105  0.0106
    1W        W30794  26.495  20.452   6.980 -0.1252 -0.0822  0.1871
    1W        W30795   2.095  17.594   8.775  0.3181  0.0415  0.2978
    1W        W30796  18.821   8.610   8.180  0.1667  0.1321 -0.0011
    1W        W30797  24.204   4.323   9.235 -0.3728 -0.1359  0.1495
    1W        W30798  20.578   4.685   7.750  0.2356  0.1009 -0.2064
    1W        W30799  17.000  15.144   0.630  0.0765  0.0621  0.1774
    1W        W30800  11.322  28.100   6.754 -0.0967  0.0255 -0.3023
    1W        W30801  24.136  27.530   8.028 -0.3837  0.2919  0.0983
    1W        W30802   4.795  11.429   7.413 -0.1395 -0.1755 -0.0248
    1W        W30803   3.468  14.324  10.107 -0.0275 -0.3310  0.0381
    1W        W30804  11.437  14.396   2.096 -0.0907 -0.0192  0.0424
    1W        W30805  16.152  24.951   1.185  0.0268  0.3424 -0.1448
    1W        W30806   1.203  12.487   8.214  0.4078 -0.0605 -0.0566
    1W        W30807   6.997   5.695   7.519  0.0124 -0.1114 -0.0247
    1W        W30808  15.758  19.045   0.657 -0.1965  0.1450  0.0350
    1W        W30809   6.037   3.921   2.728  0.2760  0.0188 -0.0000
    1W        W30810  14.456  14.882   8.020  0.0534  0.0704  0.1406
    1W        W30811  15.779   6.371   2.261 -0.0822  0.0430  0.1454
    1W        W30812   9.792   9.670   2.900  0.3102 -0.2375  0.0823
    1W        W30813   1.383  14.056   6.158 -0.0634 -0.3027 -0.1127
    1W        W30814  22.957   7.026   2.028  0.2014 -0.1520  0.0349
    1W        W30815  16.377  22.131   2.555 -0.1529 -0.2564  0.2422
    1W        W30816  16.843   6.692   8.158  0.0012  0.1075  0.1926
    1W        W30817  12.538   9.743   9.650 -0.0598  0.1610  0.1085
    1W        W30818  10.921  22.854   7.299  0.0515  0.2713  0.0764
    1W        W30819   1.159   2.616   1.824  0.2676 -0.1972  0.0632
    1W        W30820   0.528  16.720   0.237 -0.1850 -0.4256  0.2094
    1W        W30821  23.742   6.644   1.684 -0.2813 -0.3659  0.0325
    1W        W30822  13.954  17.347   2.304  0.0643  0.3246 -0.2711
    1W        W30823  23.240  19.785   2.647  0.0596 -0.2690  0.1183
    1W        W30824  27.057  26.040   9.347  0.0496 -0.2442 -0.1401
    1W        W30825  11.690  18.036   7.647 -0.2548 -0.1285 -0.1044
    1W        W30826   8.353   3.045   6.727  0.3034  0.0697 -0.2417
    1W        W30827  17.408  24.061   7.661  0.0358 -0.0548  0.0288
    1W        W30828  27.661   3.429   1.057  0.1204 -0.0877  0.0523
    1W        W30829   4.204  24.636   7.485 -0.3050 -0.0297 -0.1176
    1W        W30830  19.012   5.037   1.940  0.1260  0.0692  0.3016
    1W        W30831  21.528  10.221   9.079 -0.2256  0.2623 -0.1158
    1W        W30832  18.972  12.080   3.775  0.0229  0.1851 -0.1893
    1W        W30833  20.321  27.518   1.577  0.3053  0.1501 -0.1752
    1W        W30834  11.593  11.437   0.392  0.0743 -0.0234  0.0537
    1W        W30835   9.775  22.517  10.011 -0.3825  0.4085 -0.3065
    1W        W30836  21.230  15.882  10.288  0.0206  0.2535 -0.0021
    1W        W30837  27.656  15.566   1.631  0.1935  0.1973  0.2224
    1W        W30838  24.263  24.282   1.256  0.0913 -0.0335  0.1052
    1W        W30839  18.657   1.974   1.140  0.1868 -0.1450 -0.0003
    1W        W30840  19.281  19.348   1.461 -0.0426 -0.0294  0.0713
    1W        W30841  18.698  10.643   9.097  0.1267  0.0567 -0.1136
    1W        W30842  14.990  21.273   1.859  0.1363 -0.1305  0.1822
    1W        W30843  24.530   1.516   6.558  0.0432  0.0852 -0.0053
    1W        W30844  14.316  11.919   2.390  0.0130  0.1053 -0.1894
    1W        W30845  12.083  19.413   1.203 -0.1777  0.0222  0.0725
    1W        W30846  18.488  25.079   0.644  0.1761  0.3208 -0.1700
    1W        W30847   3.432  17.488   2.308  0.1174  0.0286 -0.2666
    1W        W30848  14.793  14.814   0.197 -0.0959  0.0753 -0.0329
    1W        W30849  18.618   2.051   3.739  0.1434 -0.1589 -0.2100
    1W        W30850   7.382  25.677   1.941 -0.1277  0.0674 -0.2768
    1W        W30851  27.089  22.469   6.197  0.2600  0.2338 -0.1438
    1W        W30852  22.805  24.746   9.314  0.1346  0.1598 -0.1252
    1W        W30853  14.260  10.129   8.639  0.3704 -0.1428  0.2361
    1W        W30854   4.484  15.355   0.827 -0.1259 -0.0914  0.4781
    1W        W30855   4.068  21.565   7.515 -0.0381  0.2274 -0.1508
    1W        W30856   4.924   8.664   2.109  0.0468 -0.0951 -0.1408
    1W        W30857   0.647  19.508   6.104  0.0911  0.0108  0.3849
    1W        W30858  11.242  13.318   8.944  0.0157  0.1770  0.2079
    1W        W30859  20.512  12.630  10.297  0.0206  0.0516  0.0091
    1W        W30860   7.292  19.317  10.094  0.1025 -0.1773 -0.3993
    1W        W30861  12.577  11.049   2.357  0.3389 -0.1493  0.1440
    1W        W30862   4.371  15.456   1.602 -0.0584  0.1262  0.2457
    1W        W30863  12.804   2.728  10.345 -0.2291  0.1969 -0.1583
    1W        W30864  20.592  10.527   2.704  0.0295  0.1940  0.1600
    1W        W30865   3.988   8.712   9.531 -0.1166  0.2024 -0.0926
    1W        W30866   2.838  13.555   8.417 -0.1274  0.1705 -0.0296
    1W        W30867   9.325   0.554   2.427 -0.2544 -0.0329 -0.0539
    1W        W30868  22.798  26.147   9.145 -0.2974  0.0611 -0.0647
    1W        W30869  12.621  11.137   0.332  0.5280  0.2055 -0.0190
    1W        W30870  21.672   0.889   1.780 -0.2010 -0.0568 -0.1025
    1W        W30871  22.476  10.687   9.643  0.1197  0.1670 -0.1760
    1W        W30872   1.837  17.578   7.683  0.2191  0.1555  0.1869
    1W        W30873  23.757  16.724   1.273  0.1381  0.1642  0.1027
    1W        W30874   7.274  24.441   3.375 -0.2021  0.2153 -0.1665
    1W        W30875   9.912   3.891   9.539 -0.1202 -0.5579  0.1910
    1W        W30876   1.444  22.042   7.017  0.3383  0.1823  0.0751
    1W        W30877   7.256  22.378   3.203  0.0963 -0.0667 -0.0823
    1W        W30878   9.701   5.096   1.182  0.1232 -0.1269  0.0636
    1W        W30879   6.744  15.394   1.021  0.3525  0.0064 -0.0086
    1W        W30880  24.063   3.289   8.990 -0.1834 -0.1824 -0.0294
    1W        W30881  22.405   9.566   2.801  0.2247  0.0825 -0.2352
    1W        W30882  12.463  24.870   1.321  0.0012  0.4060  0.0890
    1W        W30883  15.371   4.339   7.318 -0.0680  0.0103 -0.0441
    1W        W30884  18.880   0.727   7.889 -0.1437 -0.0505  0.4373
    1W        W30885  23.776   2.472   7.274 -0.0082  0.2821 -0.3919
    1W        W30886  23.756   1.955   1.460  0.0901  0.1182  0.2293
    1W        W30887  20.502  10.640   0.719 -0.1551  0.0526 -0.0352
    1W        W30888  23.045  26.295   0.531  0.1922  0.1191  0.0390
    1W        W30889  13.145  19.336   9.411  0.0703 -0.1491 -0.1251
    1W        W30890   1.506  14.169   0.304  0.1249  0.1066 -0.0959
    1W        W30891  25.358  12.655   0.456  0.1083  0.0048 -0.3836
    1W        W30892   1.226   1.528   2.558 -0.2852  0.0390 -0.0871
    1W        W30893  27.935  19.320   7.914 -0.2583 -0.1250  0.0062
    1W        W30894   1.874   8.653   7.433  0.0109 -0.1991  0.0107
    1W        W30895  15.048   2.091   2.990  0.2450 -0.2989  0.1658
    1W        W30896  22.319  10.233   6.767 -0.0563  0.1019  0.1737
    1W        W30897  24.014   3.513   9.995  0.0070 -0.0446 -0.0645
    1W        W30898   6.084  16.276   9.832 -0.0637  0.3868 -0.0490
    1W        W30899  22.607  27.965   9.293 -0.5409  0.0067  0.1895
    1W        W30900  26.158  27.516   1.334  0.0121 -0.0725  0.1367
    1W        W30901  21.489  15.067   1.370  0.1187  0.1247  0.0556
    1W        W30902  17.886  10.232   9.034 -0.1062 -0.0058 -0.0632
    1W        W30903  17.968   9.253   2.319 -0.0064 -0.0443 -0.0618
    1W        W30904   8.100  20.193   3.185 -0.0818 -0.2612 -0.0783
    1W        W30905  17.920  24.422   8.849 -0.1523  0.0059  0.0476
    1W        W30906   1.818   8.709   1.166 -0.2957 -0.0498  0.1527
    1W        W30907  16.471  13.767   1.064  0.0302 -0.2081  0.3231
    1W        W30908   7.586   5.031   8.196  0.0102  0.0173 -0.0089
    1W        W30909  20.146  22.563   0.727 -0.1326 -0.0357  0.1048
    1W        W30910   3.696  12.314   2.974  0.1197 -0.0382 -0.1231
    1W        W30911  14.177  25.747   3.667  0.0285 -0.0148  0.1194
    1W        W30912  15.635  17.931   1.947 -0.2039  0.2258 -0.1113
    1W        W30913   3.210  10.877   2.296  0.2994 -0.3674 -0.2132
    1W        W30914  11.481  16.149   1.845  0.0123  0.0334  0.2272
    1W        W30915  24.275   0.005   9.734 -0.3041  0.0624 -0.2838
    1W        W30916   5.180   2.704   9.499  0.1171 -0.3114 -0.0616
    1W        W30917   0.601  19.163   1.303  0.0425 -0.0703  0.0095
    1W        W30918   7.545  13.516   1.481  0.0964 -0.0704 -0.0770
    1W        W30919  12.770   6.808   9.819 -0.0596 -0.0149  0.1067
    1W        W30920  24.402  12.505   6.719  0.2404 -0.1294 -0.0781
    1W        W30921  11.020   9.401   3.956 -0.2016  0.2640  0.0256
    1W        W30922  19.802  25.775   2.210 -0.0533 -0.0884  0.2040
    1W        W30923  19.796   4.825   2.987 -0.0778 -0.2011 -0.0230
    1W        W30924  13.866   7.400   8.575 -0.4770 -0.1301 -0.0827
    1W        W30925  11.056  24.924   9.581  0.0750  0.0511 -0.2044
    1W        W30926  24.027  10.041   2.747  0.1851 -0.0772 -0.2896
    1W        W30927  10.702  25.789   9.210  0.0009  0.2177  0.1573
    1W        W30928   1.064  12.617   0.903 -0.3699 -0.0923  0.2179
    1W        W30929  27.479  27.917   0.883  0.1349 -0.2439 -0.1619
    1W        W30930   1.407  26.680   8.623 -0.3401 -0.2338  0.2978
    1W        W30931   0.318  15.361  10.217 -0.0903 -0.3193 -0.1630
    1W        W30932  10.649  26.900   2.025 -0.2793  0.1371  0.0736
    1W        W30933  12.164   0.291   1.116 -0.3286 -0.2541  0.0255
    1W        W30934  27.215  14.853   2.342 -0.3061  0.0652  0.0734
    1W        W30935  19.510   4.568   0.540  0.0257 -0.0489  0.1633
    1W        W30936   2.762  24.988   8.908 -0.3326 -0.3273 -0.1546
    1W        W30937   6.248  18.452   2.894 -0.1343  0.1701  0.3216
    1W        W30938  17.055  11.900   7.911  0.0381 -0.2029  0.2526
    1W        W30939   4.969  25.893   8.106 -0.0292 -0.0519 -0.1818
    1W        W30940  20.656  24.738   0.539  0.1643  0.2151 -0.0892
    1W        W30941   9.012   8.090   7.767  0.1722  0.0219  0.0429
    1W        W30942   2.776  20.188   7.568  0.1819  0.0955  0.1542
    1W        W30943  14.143   1.967   1.383 -0.2852 -0.4080  0.0331
    1W        W30944  26.728   2.295   2.733  0.1134 -0.0800 -0.2921
    1W        W30945  19.330  21.506   7.413  0.2807  0.0586 -0.0364
    1W        W30946   4.489  27.592  10.093  0.0305  0.0773 -0.0912
    1W        W30947   4.676   5.911   7.964  0.1003  0.2288  0.0128
    1W        W30948  19.851   6.828   8.363  0.0574 -0.3159 -0.0221
    1W        W30949   0.719  25.404   6.592 -0.4490 -0.2677 -0.2432
    1W        W30950  19.168   7.522  10.329 -0.4142 -0.0354  0.2370
    1W        W30951   9.259  26.067   1.768  0.3799  0.0353 -0.1679
    1W        W30952   5.089  21.304   9.341  0.4605 -0.0993 -0.0420
    1W        W30953  15.896  13.535   8.810 -0.5035 -0.3874  0.0366
    1W        W30954  14.307  24.360   7.059  0.1082 -0.2495 -0.0676
    1W        W30955  24.053  23.867   9.755 -0.0479 -0.1111 -0.0445
    1W        W30956  17.519  19.739   9.398  0.2096 -0.0369  0.2434
    1W        W30957  25.249  18.456   9.154 -0.0077 -0.0724 -0.0965
    1W        W30958  19.200   9.988   0.904  0.0395  0.1233  0.2603
    1W        W30959   3.220   1.286   8.669  0.0767 -0.2964 -0.0341
    1W        W30960  22.229  22.655   3.063  0.0043  0.2047  0.0657
    1W        W30961   8.153  15.688   8.149  0.0993 -0.2047  0.0710
    1W        W30962   7.820   2.325   7.707  0.2755 -0.3951  0.0393
    1W        W30963   8.038  17.025   0.402 -0.1106  0.0436  0.0760
    1W        W30964  13.982  23.591   1.510  0.2651  0.1601  0.3419
    1W        W30965   2.221  22.434   9.227  0.1379  0.0690  0.0738
    1W        W30966   1.008  20.136   9.797 -0.1740  0.0566  0.2477
    1W        W30967  14.836   6.957   2.984  0.0368 -0.0478 -0.2058
    1W        W30968  22.950  22.069   9.215  0.1565  0.0608  0.2826
    1W        W30969   1.035  24.591  10.267  0.1075 -0.0209  0.2343
    1W        W30970   1.383   5.526   0.134 -0.0879  0.0656  0.0297
    1W        W30971  21.871   0.335   8.377 -0.1918 -0.0792  0.0256
    1W        W30972  27.693  22.937   2.410  0.2256 -0.0725 -0.4224
    1W        W30973   0.590  23.575   1.843 -0.1479 -0.1195  0.2689
    1W        W30974  14.043  26.772   6.907 -0.0894 -0.0373  0.2179
    1W        W30975   4.939   9.182   0.592 -0.2239 -0.2658 -0.1727
    1W        W30976  26.091  22.037  10.277 -0.1020 -0.0891 -0.1233
    1W        W30977  21.358  11.551   8.242 -0.2625  0.1043 -0.0304
    1W        W30978  23.951  10.064   9.095 -0.0798 -0.2008 -0.2913
    1W        W30979  21.660  28.119   2.135 -0.2528  0.0417  0.3332
    1W        W30980   7.390  23.722   8.549  0.0031  0.2627  0.2908
    1W        W30981  17.714  11.461   9.238 -0.0723  0.0024  0.0160
    1W        W30982  16.152  24.654   8.377 -0.2110 -0.0088  0.0224
    1W        W30983   3.322  23.581   7.654 -0.1616 -0.0315  0.1283
    1W        W30984   1.519  16.783   7.376  0.1420 -0.1214 -0.1661
    1W        W30985   5.459   1.080   0.091  0.0427  0.1109 -0.0973
    1W        W30986  17.288   6.979   0.121 -0.2096  0.3646 -0.0055
    1W        W30987   8.100   9.435   2.937 -0.0071 -0.1484 -0.0797
    1W        W30988  11.248  16.482   8.089 -0.2154  0.1661  0.1830
    1W        W30989  23.727  27.129   8.765 -0.0683  0.1662  0.1194
    1W        W30990   4.016  22.038   3.022  0.0798  0.3511 -0.0961
    1W        W30991  10.238   5.699   3.400 -0.0168  0.1101  0.0846
    1W        W30992  27.841   0.222   2.333 -0.0109 -0.2277  0.2340
    1W        W30993   6.211   1.678   7.536 -0.0053 -0.1151 -0.0450
    1W        W30994  20.340  13.358   9.515  0.2296  0.0079 -0.0150
    1W        W30995  11.859  23.967   7.723  0.1752  0.2117  0.3566
    1W        W30996  23.188  11.866   0.456 -0.3292  0.2742  0.0838
    1W        W30997   1.505   5.305   6.220 -0.2009 -0.1404  0.2161
    1W        W30998  23.243   6.208   8.413  0.0842  0.2425 -0.1421
    1W        W30999  12.808  11.633   0.277  0.1721 -0.2193  0.2314
    1W        W31000   1.510  25.175   7.108 -0.0418  0.1554 -0.0824
    1W        W31001   3.393  10.038   0.386  0.0776  0.1714  0.0317
    1W        W31002  20.526  23.943  10.006  0.1225  0.2059  0.2537
    1W        W31003   9.373  14.544   8.123  0.0863 -0.0971 -0.0117
    1W        W31004  24.974  18.693   0.430 -0.0024  0.1347 -0.2225
    1W        W31005   6.452   9.100   8.750  0.1387 -0.0964 -0.1955
    1W        W31006   1.448  16.091   6.211 -0.0042 -0.2701 -0.0286
    1W        W31007  12.455   2.849   9.486 -0.0242  0.1803  0.1280
    1W        W31008  11.809  26.457   8.908  0.0389 -0.2445  0.3461
    1W        W31009   1.215   0.821   9.588 -0.0205 -0.3843  0.0146
    1W        W31010  12.860   7.979  10.302 -0.0186 -0.0690  0.3426
    1W        W31011   5.673  27.474   0.741 -0.1756  0.1001  0.2419
    1W        W31012  16.546  18.417   8.413  0.2323  0.1385 -0.0423
    1W        W31013  15.415  16.842   8.985 -0.0419 -0.1219  0.0117
    1W        W31014   9.800  14.096   0.341  0.0203 -0.2053 -0.2049
    1W        W31015   2.916   2.251   8.065 -0.1002 -0.0319  0.0218
    1W        W31016  28.047  24.549   2.507 -0.0693  0.1693  0.0353
    1W        W31017  10.232  24.094   0.799  0.1638  0.0945  0.1270
    1W        W31018  22.880  21.455   9.607  0.2399  0.0791  0.0206
    1W        W31019   2.809   1.089  10.039  0.1104 -0.1966 -0.1607
    1W        W31020  23.749  26.004   7.128 -0.1161 -0.1187 -0.1539
    1W        W31021  10.400  20.722   7.274  0.0928 -0.2293 -0.0496
    1W        W31022  11.438  18.591   2.096 -0.3188  0.3172 -0.0633
    1W        W31023  17.735   1.312   8.508  0.1264  0.1741  0.0573
    1W        W31024  20.423   4.356   8.192 -0.1281 -0.4391 -0.1233
    1W        W31025  21.897  21.575   0.459  0.2766  0.2261 -0.0595
    1W        W31026  24.118   7.680   8.157  0.0863 -0.0225 -0.1070
    1W        W31027   3.886   8.352   1.191 -0.2151 -0.0228 -0.2354
    1W        W31028  27.415  18.257   6.665  0.0435  0.0473  0.0875
    1W        W31029   4.494  12.227   8.254 -0.0552  0.1346 -0.1050
    1W        W31030  14.657   5.157   2.621  0.0049  0.3834  0.0132
    1W        W31031  11.114  12.462   1.315 -0.1459 -0.0054 -0.2278
    1W        W31032   3.232  27.095   8.424 -0.4098  0.2529  0.2730
    1W        W31033   7.293  22.691   8.361  0.1734  0.2372  0.0022
    1W        W31034  13.405  27.884   8.324  0.0743 -0.1232  0.1513
    1W        W31035  26.976  14.895   8.137  0.0907 -0.0825  0.1049
    1W        W31036  19.065  26.751   2.083 -0.0448 -0.1412  0.1229
    1W        W31037   3.857  25.988   1.760 -0.1244 -0.3305 -0.2659
    1W        W31038   7.965   0.287   1.338  0.0172  0.2170  0.0272
    1W        W31039   7.662   1.910   1.097  0.2920  0.1559  0.1231
    1W        W31040  14.331   1.469   0.497  0.0849 -0.1044 -0.3951
    1W        W31041  13.168   3.404   2.371  0.0261  0.1443  0.1641
    1W        W31042  16.050  16.673   1.631  0.1901  0.1878  0.0710
    1W        W31043  23.893  10.301   1.136 -0.1005 -0.1018 -0.0172
    1W        W31044   5.462  10.861   8.131 -0.1087  0.1613  0.1171
    1W        W31045  17.054   1.545   2.812  0.2053  0.1464  0.1647
    1W        W31046  20.819  18.019   2.627 -0.1934  0.1696 -0.2226
    1W        W31047  16.453  11.647   9.610 -0.1186  0.1834 -0.1146
    1W        W31048   0.221  17.529   1.070 -0.1691 -0.0194 -0.1684
    1W        W31049  15.195  25.833   9.724 -0.3687 -0.3362  0.1462
    1W        W31050   3.407  21.594   0.053 -0.0050  0.1797  0.2222
    1W        W31051  21.105   1.186   2.555 -0.0036  0.0429 -0.0952
    1W        W31052  20.966  21.295   1.167  0.0002 -0.2502  0.1951
    1W        W31053   6.893  21.431  10.135 -0.0055 -0.0428 -0.0410
    1W        W31054  11.287  16.535   2.562  0.1371 -0.2728  0.3911
    1W        W31055  21.318   5.269   2.061 -0.2655 -0.0527  0.0987
    1W        W31056  23.368   0.980  10.343  0.0251 -0.2086  0.1349
    1W        W31057   0.349  12.108   8.897  0.0118 -0.0693 -0.0020
    1W        W31058   6.703  16.674   0.605 -0.2375  0.1626  0.0790
    1W        W31059   4.494   7.277   0.134  0.0158 -0.0576  0.3713
    1W        W31060   6.915   6.818   8.445  0.2282 -0.1185 -0.0166
    1W        W31061   8.545  16.163   0.591 -0.1872 -0.0393 -0.5440
    1W        W31062   0.648  23.832   9.623  0.3071 -0.2146 -0.1292
    1W        W31063   9.875  22.403   0.813 -0.0872 -0.1354  0.1413
    1W        W31064  20.065   1.240   1.699 -0.0255 -0.2529 -0.0033
    1W        W31065  11.295  27.637   8.745 -0.0710 -0.0117  0.0343
    1W        W31066  26.773   7.056   2.012  0.0043 -0.1354  0.1494
    1W        W31067  14.584  16.790   0.839 -0.2208 -0.1967 -0.0319
    1W        W31068   6.781   3.909   8.880 -0.2393 -0.0575  0.2002
    1W        W31069   5.592   8.675   0.770  0.2019 -0.2425  0.0900
    1W        W31070  24.382  22.546   2.180  0.4655 -0.0651 -0.0311
    1W        W31071   5.480  19.055   9.111 -0.2800 -0.0852 -0.0566
    1W        W31072   0.631  10.390   7.664  0.1169  0.0482  0.0073
    1W        W31073  13.753  13.966   3.647 -0.0890  0.0368 -0.0201
    1W        W31074   4.950  13.222   7.733 -0.1830 -0.0859  0.3188
    1W        W31075  20.601  13.888   8.278 -0.0454  0.2512  0.1958
    1W        W31076  26.881   9.942   8.738 -0.0825  0.2585 -0.0412
    1W        W31077  20.211   6.878  10.278 -0.0368  0.2099 -0.2999
    1W        W31078  24.700   9.010   0.526 -0.2312 -0.1971 -0.0288
    1W        W31079  12.709   1.870   0.165  0.0819 -0.0914 -0.3765
    1W        W31080   3.980  13.965   8.349 -0.3861 -0.3416  0.3588
    1W        W31081  24.451   0.084   1.162  0.1911  0.4454  0.2187
    1W        W31082  23.545  15.065  10.006 -0.3764  0.2869  0.0645
    1W        W31083   4.089   0.272   0.237 -0.0306  0.1224  0.0513
    1W        W31084   1.697  14.366   2.046 -0.4938  0.1752  0.0665
    1W        W31085   1.757   5.467   7.154  0.5716  0.0665 -0.1058
    1W        W31086   0.574   7.965   2.212 -0.3766 -0.1134  0.2722
    1W        W31087  15.121   6.333   0.211 -0.0699  0.2532 -0.0087
    1W        W31088   2.610   8.564   6.488 -0.0508 -0.0223 -0.1826
    1W        W31089  21.428  11.271   0.032  0.0191  0.4020 -0.2197
    1W        W31090  21.977  21.521   1.761 -0.0966 -0.1541 -0.0100
    1W        W31091  26.378  11.471   9.780  0.0489  0.2863 -0.3426
    1W        W31092  19.460  26.201   1.116  0.2037  0.1566  0.1098
    1W        W31093  10.739  13.008   0.546  0.3394  0.0984  0.0437
    1W        W31094   1.708  25.564   0.896  0.0049  0.1965 -0.1364
    1W        W31095  18.781  25.505   2.523 -0.0371  0.0852 -0.3154
    1W        W31096  13.767   0.667   8.762 -0.1951 -0.1151 -0.0333
    1W        W31097  16.744   3.448   7.814 -0.2303  0.2199 -0.2497
    1W        W31098  23.820  13.109   0.349 -0.2829  0.0706  0.0756
    1W        W31099   8.068  13.079   7.351  0.0205  0.3536 -0.1233
    1W        W31100  20.519   6.297   9.696  0.0638 -0.1528 -0.0471
    1W        W31101  15.493  14.288   8.330 -0.0165  0.1272  0.0052
    1W        W31102  20.500   5.535   1.679 -0.1502 -0.2496 -0.0650
    1W        W31103  22.235  14.049   9.288  0.0468  0.0865  0.3687
    1W        W31104   0.790  27.752   2.093  0.1436 -0.1050 -0.1399
    1W        W31105   3.453  27.729   1.123 -0.0757  0.0232 -0.1121
    1W        W31106   5.916   4.394   2.528 -0.0576  0.3801  0.1023
    1W        W31107  21.237  16.836   2.412  0.1106 -0.0797 -0.0132
    1W        W31108  18.214  27.690   3.914 -0.4335 -0.0051 -0.0527
    1W        W31109  10.490  11.764   1.425 -0.1192 -0.1175  0.0877
    1W        W31110  15.842  23.677   1.905  0.1238 -0.0007 -0.0470
    1W        W31111   2.496  18.275   2.240 -0.1385 -0.0156  0.2246
    1W        W31112   0.850   2.057   6.026  0.0578  0.1033  0.1821
    1W        W31113  12.377   0.338   3.154  0.0997  0.1533 -0.0186
    1W        W31114  25.164  25.376   9.767 -0.2243  0.1042 -0.0438
    1W        W31115   2.991   5.875   1.132 -0.1730 -0.2242  0.3462
    1W        W31116   8.726  22.034   0.100 -0.1764  0.2315  0.0013
    1W        W31117  24.140   6.768   7.207  0.2106  0.1464 -0.1758
    1W        W31118  17.651   2.655   8.153 -0.0800  0.2126 -0.0973
    1W        W31119   1.936  10.748   9.456  0.1827  0.2704 -0.1725
    1W        W31120  11.931  28.008   7.971 -0.0639  0.2896 -0.5453
    1W        W31121  26.529  19.867   1.898 -0.0563  0.1913 -0.2783
    1W        W31122  20.386  23.549   2.358  0.1274 -0.0509  0.0649
    1W        W31123   3.515   8.435   6.849  0.0596 -0.0870 -0.1352
    1W        W31124   2.871  20.649   1.893 -0.3576  0.1009  0.0581
    1W        W31125   2.548  17.489   0.350  0.3125 -0.0048 -0.0317
    1W        W31126  15.952   7.856   1.335  0.1557  0.1991 -0.1974
    1W        W31127   1.089  16.396   0.649  0.3509 -0.0660  0.1798
    1W        W31128   1.901  19.756   2.472 -0.1788 -0.2032 -0.1272
    1W        W31129  24.882  21.223   6.896  0.3375 -0.2705  0.2039
    1W        W31130  23.735  18.692   1.856  0.0486  0.1671 -0.0396
    1W        W31131   5.892  11.460   7.922 -0.1845 -0.0272  0.0200
    1W        W31132  19.884  21.043   3.535 -0.2061 -0.0927 -0.0523
    1W        W31133  26.464  18.203   7.765 -0.0292 -0.4260  0.5163
    1W        W31134  20.193  14.195   8.239 -0.0033 -0.0007  0.0946
    1W        W31135  21.707  22.045   9.773 -0.4261  0.1665  0.0637
    1W        W31136   7.196   6.633   2.462 -0.1240 -0.1378 -0.2763
    1W        W31137  16.772  21.473   2.293 -0.1398  0.0070 -0.1141
    1W        W31138   9.092  12.772  10.339 -0.0239  0.1112  0.0626
    1W        W31139   1.093   5.619   9.680  0.0345  0.2481  0.1241
    1W        W31140  10.572   3.204   2.956 -0.1132  0.1612 -0.2439
    1W        W31141  27.455   4.165   1.039 -0.0355 -0.3013  0.1047
    1W        W31142  18.068  19.714   0.215 -0.1568 -0.1735  0.0468
    1W        W31143  15.539   4.420   1.634  0.0168  0.0485  0.1109
    1W        W31144  24.699   0.754   2.766 -0.1088 -0.0474 -0.2420
    1W        W31145  16.423   7.799   9.664 -0.1540  0.2322  0.0359
    1W        W31146  12.666  18.542   3.739  0.0318  0.2425  0.0964
    1W        W31147   4.704  12.985   0.382 -0.0385 -0.0293 -0.0516
    1W        W31148  13.852  20.902   9.558  0.2660  0.0332 -0.2683
    1W        W31149   0.171   9.719   0.702  0.2461  0.1066 -0.2199
    1W        W31150  14.527  17.178   1.186  0.1629 -0.2830  0.0145
    1W        W31151   5.254   8.777   7.671 -0.0974  0.1217  0.3214
    1W        W31152  23.049  25.566   1.676  0.0953 -0.2179 -0.1029
    1W        W31153  19.129  17.645   3.673  0.0375 -0.1287 -0.0372
    1W        W31154  19.785  12.439   1.219  0.0200 -0.1511  0.2182
    1W        W31155   3.131  27.187  10.253  0.1975 -0.2484 -0.0118
    1W        W31156  17.384  19.327  10.145 -0.0642  0.2693  0.3336
    1W        W31157  22.344  15.221   6.765 -0.1497 -0.0362 -0.3828
    1W        W31158  22.365  19.469   0.218 -0.5223 -0.4180 -0.1463
    1W        W31159  14.010   0.486   9.154 -0.1993  0.2634  0.0612
    1W        W31160  24.981   0.417   7.922 -0.1590 -0.0868  0.2725
    1W        W31161   3.524  26.025   9.580  0.0248 -0.0837 -0.0590
    1W        W31162  27.523  21.232   7.302  0.0623 -0.1328 -0.2680
    1W        W31163  18.161  23.425   8.124 -0.0945 -0.1210  0.3117
    1W        W31164  27.988  16.485   9.416  0.0497  0.1865  0.0865
    1W        W31165  25.257  22.470   2.521  0.1869  0.3712  0.0520
    1W        W31166  13.583  20.479   7.371  0.2686  0.3843 -0.1508
    1W        W31167  14.901  23.718   2.922 -0.1120 -0.1317  0.2535
    1W        W31168  26.241  19.640   0.346 -0.0947 -0.0352  0.0736
    1W        W31169   3.076  20.252   2.545 -0.2342  0.0370  0.0722
    1W        W31170   9.418  12.394   0.143 -0.0344  0.3058 -0.1657
    1W        W31171  16.291   8.950   7.618 -0.2595  0.3286  0.0411
    1W        W31172  21.662  18.795   9.602 -0.0647 -0.0889  0.2597
    1W        W31173   3.229  21.091   0.242  0.0009 -0.0393 -0.0546
    1W        W31174   5.670  18.725   8.777  0.5450  0.1403  0.1168
    1W        W31175  27.601  27.839   7.168 -0.2962 -0.0037  0.0716
    1W        W31176  22.858  11.678   2.437  0.2173  0.0394  0.2854
    1W        W31177   8.629  18.111   0.700  0.0629 -0.3363 -0.1077
    1W        W31178  15.794   3.099   1.479  0.0881  0.0006  0.2896
    1W        W31179  26.567  23.506   1.119 -0.0602 -0.1588 -0.2929
    1W        W31180   6.123  26.106   2.441  0.3079  0.3721 -0.0477
    1W        W31181   5.300   3.130   6.839 -0.0069  0.4906  0.0458
    1W        W31182  14.642  17.253   2.890 -0.1625  0.0507  0.0344
    1W        W31183  27.856   1.029   7.271 -0.0720 -0.3199  0.1362
    1W        W31184  13.640  17.805   7.751  0.3539 -0.1104 -0.2820
    1W        W31185  27.593  17.482   1.514  0.0553 -0.2464  0.1097
    1W        W31186  19.449   0.168   3.247  0.0362 -0.1298  0.0688
    1W        W31187   0.461   8.397   1.774  0.0881  0.3419 -0.0899
    1W        W31188  14.158  19.219   9.322 -0.2912  0.0747 -0.1215
    1W        W31189   9.555  17.440   2.444  0.2798  0.1078 -0.1752
    1W        W31190  12.146   2.656   2.629  0.1443 -0.0565 -0.1562
    1W        W31191  22.022  10.885   3.316 -0.2133 -0.1937  0.0634
    1W        W31192  18.918  19.485   8.801  0.0500  0.2478 -0.0582
    1W        W31193   4.769  24.480   8.241  0.0372  0.0025  0.0107
    1W        W31194  24.268  26.294   2.584  0.1365 -0.1119 -0.0021
    1W        W31195   2.634  25.544   9.952  0.0630 -0.1818  0.1050
    1W        W31196   5.618   9.139   7.633 -0.0708  0.0011 -0.1967
    1W        W31197   1.021   8.019   8.499  0.1835 -0.1782 -0.1762
    1W        W31198  14.513   5.010  10.133 -0.0760  0.0824  0.2726
    1W        W31199  27.390  24.796   0.787  0.1680  0.3433  0.2557
    1W        W31200  25.518  13.863   7.793 -0.0158 -0.1730 -0.0104
    1W        W31201   1.073   6.190   9.047 -0.1010  0.0006  0.1336
    1W        W31202   4.740   7.236   7.383  0.0766 -0.1163 -0.0871
    1W        W31203  11.152  24.012   8.744  0.0329  0.1664 -0.0765
    1W        W31204  24.815  17.652   6.824  0.1939  0.1229  0.0102
    1W        W31205  24.375  10.883   7.440  0.0943  0.0169  0.0784
    1W        W31206  21.653  22.929   2.130  0.1944  0.1631  0.1455
    1W        W31207   7.711  17.065   8.838  0.1569  0.2616 -0.0440
    1W        W31208  15.030  13.511   9.214 -0.0535 -0.0372  0.2358
    1W        W31209   9.161  19.368   1.783 -0.2957 -0.2706  0.1503
    1W        W31210   9.036  17.540   1.831  0.0672 -0.0567  0.1300
    1W        W31211  11.216  14.274   2.633 -0.2336  0.1038 -0.0524
    1W        W31212   8.441   1.680   2.169  0.1409  0.0357 -0.2245
    1W        W31213   8.451   8.619   8.572  0.0394  0.1969  0.1839
    1W        W31214   3.524  16.807   9.516  0.1300 -0.2745 -0.1926
    1W        W31215  24.450  26.555   7.008 -0.0772  0.1593 -0.2162
    1W        W31216   8.222   1.442   1.597 -0.2112  0.0622 -0.1571
    1W        W31217  27.181   6.116   2.203 -0.1042 -0.1245  0.1533
    1W        W31218   8.284  14.800   2.491 -0.1854 -0.1575 -0.3939
    1W        W31219  15.299  25.746   9.195 -0.0629  0.1650  0.0452
    1W        W31220  27.196   7.437   7.507 -0.0661 -0.0416 -0.1282
    1W        W31221  22.746  10.263   1.026  0.1921  0.1696  0.1710
    1W        W31222  26.059  22.388   9.931 -0.3492 -0.1578  0.2098
    1W        W31223  27.764   7.288   1.186  0.2148  0.3831 -0.0817
    1W        W31224  24.777   4.572   0.542  0.0065  0.1808  0.1750
    1W        W31225  19.197   1.811   8.093 -0.1664  0.0179  0.0732
    1W        W31226  25.759   7.473   9.803  0.2652 -0.1318  0.1154
    1W        W31227  18.053  17.726   2.352 -0.0357  0.0497 -0.1551
    1W        W31228  15.378  14.657   0.810  0.0155  0.0059 -0.1999
    1W        W31229   5.159  14.275   2.243  0.0284 -0.1087 -0.2425
    1W        W31230  23.707  21.066   9.771 -0.0038  0.2269  0.3774
    1W        W31231  22.005  21.592   3.261  0.1749  0.0469 -0.0065
    1W        W31232  24.758  21.197   7.392 -0.0890 -0.0462  0.0968
    1W        W31233   0.536   0.001   1.750  0.3085 -0.0521 -0.0342
    1W        W31234  16.332   7.302   1.906  0.1011  0.0172 -0.0355
    1W        W31235  21.315  22.284  10.036  0.1844  0.0713 -0.2535
    1W        W31236   0.705   2.333   1.482  0.1418  0.0288  0.0137
    1W        W31237  13.013  15.497   7.769  0.1285 -0.2536 -0.3229
    1W        W31238  23.370   7.153   9.489 -0.0832  0.3156  0.0835
    1W        W31239   2.364   6.583   6.219  0.2510 -0.1649 -0.0527
    1W        W31240  10.942   5.809   8.780  0.0070 -0.1634  0.0774
    1W        W31241  19.152  11.809   0.086  0.2126 -0.1266 -0.1025
    1W        W31242  23.490   3.864   3.029  0.2474 -0.0401  0.3294
    1W        W31243  18.697  25.069   1.642 -0.0007 -0.0556  0.3288
    1W        W31244   2.425   5.359   0.675 -0.0479 -0.2405  0.2675
    1W        W31245   0.841  21.347   6.705  0.1350  0.0936 -0.0196
    1W        W31246   9.824  24.706   1.610 -0.0642 -0.3898  0.0865
    1W        W31247  11.608  10.855   1.528 -0.0164 -0.0500  0.2521
    1W        W31248  27.073  17.369   1.603 -0.0941 -0.1248 -0.1046
    1W        W31249   6.427  22.417   3.274 -0.0840  0.2461 -0.1327
    1W        W31250  19.953   5.222   0.037 -0.0266  0.0055 -0.5384
    1W        W31251  18.621  19.856   9.040 -0.0223 -0.1462  0.0660
    1W        W31252  10.999   5.407   3.931  0.1472  0.0994  0.2400
    1W        W31253   9.394  19.780   0.825  0.1752  0.0554  0.1714
    1W        W31254  15.024  27.371   2.928  0.4470  0.2159  0.0042
    1W        W31255  22.340   8.535   2.881  0.0371 -0.3082 -0.2781
    1W        W31256   9.848   4.459   1.136 -0.4298  0.3549 -0.1964
    1W        W31257   8.222  10.849   0.629  0.2200  0.0517  0.2880
    1W        W31258  27.709  20.218   1.306  0.2072  0.1543  0.0069
    1W        W31259  10.590  13.909   8.205  0.3108 -0.0620 -0.1020
    1W        W31260  18.341  23.629   0.433  0.1802  0.1875  0.0250
    1W        W31261  21.214   2.593   8.623 -0.0218  0.1735 -0.3638
    1W        W31262  16.354   6.910   7.499 -0.0932  0.0109 -0.0141
    1W        W31263   3.184  10.040   2.285 -0.2469  0.3097  0.3336
    1W        W31264  15.298  13.754   1.051  0.1947 -0.0355  0.1420
    1W        W31265  25.883  14.408   7.225 -0.0058 -0.1642  0.2586
    1W        W31266   0.969   2.435   7.302 -0.0438  0.1239  0.1361
    1W        W31267   2.732  12.605   8.840 -0.2283  0.3543 -0.1355
    1W        W31268  23.922  16.586   2.965 -0.0671 -0.0265  0.2099
    1W        W31269  13.301  26.468   0.972  0.1796 -0.1321 -0.3574
    1W        W31270  16.918   6.000   1.869  0.2629 -0.2025  0.2329
    1W        W31271   4.088   9.886   8.760  0.1172  0.0731 -0.0013
    1W        W31272  26.293   6.598   1.397  0.1020  0.1222  0.1984
    1W        W31273   3.836  23.702   7.647  0.1022 -0.2226 -0.0420
    1W        W31274   4.728   6.972   7.845 -0.2102 -0.0235 -0.0841
    1W        W31275   1.400  28.025   9.897 -0.0289 -0.2343  0.4318
    1W        W31276   7.998  21.183   2.101 -0.1454  0.2234 -0.0423
    1W        W31277  12.178   9.683   0.928 -0.2929 -0.1329 -0.2824
    1W        W31278  14.177  27.654   9.703  0.0757  0.0573  0.0355
    1W        W31279  24.384   9.823   2.462  0.0821  0.0823 -0.1273
    1W        W31280  11.210   0.759   2.563 -0.1627 -0.2566  0.0711
    1W        W31281  10.108   6.296   9.080 -0.0731 -0.2869  0.1475
    1W        W31282  13.255  26.784   2.745  0.0051  0.0193 -0.2880
    1W        W31283  16.687  14.248  10.301 -0.3991  0.2358 -0.1855
    1W        W31284   7.784   7.343   8.545  0.0246  0.1864  0.0476
    1W        W31285  20.577  22.360   0.511  0.2292 -0.2731 -0.0116
    1W        W31286   8.946  20.297   1.339  0.0217  0.2849  0.0933
    1W        W31287   5.978   8.661   1.145  0.1652  0.2208 -0.1643
    1W        W31288   8.006   8.575   2.555  0.0198 -0.1276  0.0937
    1W        W31289   5.995  25.076   8.810 -0.1792 -0.0273 -0.2573
    1W        W31290  26.504   0.859   1.535  0.0581 -0.2012  0.2563
    1W        W31291  23.038  15.305   1.727 -0.1627 -0.1062 -0.1285
    1W        W31292   0.151  21.470   7.239 -0.0930 -0.0821  0.1657
    1W        W31293   9.941  16.959   7.953 -0.0437 -0.0163 -0.3049
    1W        W31294  17.754  26.267   2.145  0.2040 -0.0471  0.2345
    1W        W31295  22.184  12.571   0.165  0.3198 -0.0078  0.0790
    1W        W31296   8.465  22.605   2.481  0.2235  0.0457 -0.1462
    1W        W31297  11.831  15.246   9.182  0.1259  0.4792  0.1555
    1W        W31298   6.756   9.022   2.644  0.1587  0.0262  0.0360
    1W        W31299  14.548  24.053   9.241  0.2411 -0.1478  0.0317
    1W        W31300  23.250  15.298   8.504  0.0992  0.0338  0.2530
    1W        W31301  20.307  20.888   9.567  0.0490  0.1183  0.2130
    1W        W31302   9.063  27.393   7.764 -0.0209  0.0287  0.0509
    1W        W31303   3.297   5.355   6.641 -0.2534  0.0007 -0.0490
    1W        W31304  21.716   4.441   8.153 -0.0053  0.1192 -0.0610
    1W        W31305   0.648   9.439   6.654 -0.1940 -0.1162 -0.1538
    1W        W31306   7.683   0.768   1.201  0.0769  0.0936  0.3105
    1W        W31307  23.069  10.431   0.066 -0.1234  0.0476 -0.0054
    1W        W31308   4.465  16.543   7.905  0.1742 -0.0318 -0.2016
    1W        W31309  23.524  21.982   9.054 -0.0837 -0.1062  0.0225
    1W        W31310   1.172  12.830   9.979  0.0115  0.0786 -0.0891
    1W        W31311  22.614  24.913   9.872  0.4528  0.0617  0.1557
    1W        W31312  22.509  24.627   2.050  0.1470  0.3245  0.0721
    1W        W31313   4.813  15.546   6.934 -0.0154 -0.2066  0.2805
    1W        W31314  12.275   8.613   7.988  0.1191  0.0733 -0.4973
    1W        W31315   4.455  10.520   7.466 -0.1249 -0.2286  0.1644
    1W        W31316   6.214  27.248   8.654  0.2225  0.3406 -0.1334
    1W        W31317   5.008  11.077   7.949 -0.1046 -0.2785  0.0315
    1W        W31318  24.634   3.412   0.539 -0.1652 -0.2989  0.2259
    1W        W31319   3.922  23.213   9.948  0.2001 -0.0155  0.0451
    1W        W31320   2.821  26.837   6.839  0.1390  0.0221 -0.2081
    1W        W31321   7.505   4.553   7.904 -0.1027 -0.0128  0.2638
    1W        W31322   5.943   5.696   9.810  0.2437  0.2198  0.2303
    1W        W31323  26.168   8.185   7.589  0.1079 -0.0453  0.2071
    1W        W31324   9.935  22.317   9.258  0.1684  0.0522 -0.0471
    1W        W31325  14.405   9.727   8.939  0.2777  0.0257  0.2408
    1W        W31326  20.344  25.368   9.189  0.0171  0.0802 -0.0961
    1W        W31327  17.965   1.766   2.209 -0.2195 -0.4146  0.1466
    1W        W31328  14.520   2.212   9.921  0.0163 -0.1488  0.1116
    1W        W31329  16.040   0.892   9.130 -0.1381 -0.2759 -0.0883
    1W        W31330   3.402  27.518   7.177  0.1625 -0.0189 -0.0535
    1W        W31331  26.240   7.371   8.740  0.3223  0.1235 -0.0179
    1W        W31332   4.153  23.422   8.973 -0.0323  0.2446 -0.0459
    1W        W31333   2.990   7.578  10.068 -0.0610 -0.1666 -0.0865
    1W        W31334   5.030   2.939   8.495  0.1113 -0.1356  0.0093
    1W        W31335   2.259  10.494   1.460  0.2472  0.0318  0.0071
    1W        W31336   7.240   0.620  10.311 -0.1713 -0.0053  0.0313
    1W        W31337  21.152   6.207   8.568  0.1484  0.0621 -0.0397
    1W        W31338  13.387  24.923   3.154  0.0306  0.1716 -0.1360
    1W        W31339   2.018  26.447   1.419  0.0083 -0.0317 -0.2062
    1W        W31340  15.523  22.081   2.790  0.4118 -0.3257 -0.2086
    1W        W31341  14.062  28.039   3.147 -0.1483 -0.1009  0.0727
    1W        W31342  25.460   0.789   9.267 -0.0289 -0.1828  0.0898
    1W        W31343  14.119  12.963   9.108 -0.0937 -0.3288 -0.0827
    1W        W31344   4.853  14.666   1.267 -0.0039  0.2586 -0.2000
    1W        W31345   4.998  10.605   7.795  0.2764 -0.1889 -0.0091
    1W        W31346  25.501  25.446   1.903  0.1037  0.0879  0.3330
    1W        W31347  27.584   2.957   6.275  0.0921 -0.3922  0.0612
    1W        W31348  23.640   6.718   8.934  0.1073  0.2493  0.1737
    1W        W31349   6.093   3.726   7.969  0.0053 -0.0564 -0.0088
    1W        W31350   8.122   6.082  10.340  0.0413 -0.3976  0.1216
    1W        W31351   0.033  27.069   0.627  0.0119  0.1547 -0.1174
    1W        W31352  15.939  21.812   9.919 -0.2468  0.0506 -0.2722
    1W        W31353  10.863  25.715   9.647  0.1747  0.2066 -0.1399
    1W        W31354  22.501   6.949   7.633 -0.1728 -0.1306 -0.1404
    1W        W31355  16.414   0.636   8.674  0.3022  0.0466  0.2049
    1W        W31356   7.132  19.735   0.650 -0.2283  0.0628  0.3180
    1W        W31357   2.812  24.022   1.541 -0.0265  0.0999 -0.0133
    1W        W31358   6.894  18.000   3.164 -0.0082 -0.1024  0.1251
    1W        W31359  23.399  12.845   0.468 -0.2868  0.1755 -0.0105
    1W        W31360  10.792  19.033   7.947 -0.2386 -0.1471  0.2212
    1W        W31361   9.492  11.380   1.496 -0.1401 -0.1375  0.1345
    1W        W31362  12.692   3.189   9.219  0.0442 -0.1237 -0.0463
    1W        W31363   4.839   9.560   1.803  0.4535  0.0335  0.2070
    1W        W31364  16.278  15.784   1.692  0.1189 -0.0993  0.1525
    1W        W31365  17.744  19.622   3.300  0.1207  0.0561  0.4378
    1W        W31366  11.536   2.047   8.990  0.2610  0.1532  0.0411
    1W        W31367  20.681  21.859   6.764 -0.1922 -0.2991  0.0453
    1W        W31368   2.663  22.880   0.981  0.0647 -0.0200  0.2893
    1W        W31369  17.152  10.585   2.482 -0.1636 -0.0608 -0.0812
    1W        W31370  11.474   1.643   2.649 -0.0005  0.0191 -0.3405
    1W        W31371   0.297  18.456   0.159  0.0376  0.1634 -0.1800
    1W        W31372   6.141  12.551   0.841 -0.0780 -0.2206  0.0885
    1W        W31373   7.009  27.557  10.308  0.1338  0.1227 -0.0049
    1W        W31374  19.933   7.965   1.004 -0.1149 -0.0058  0.1140
    1W        W31375  19.279  27.160  10.273 -0.3273  0.2779 -0.0192
    1W        W31376  17.141  27.970   3.371 -0.1378 -0.0604 -0.0747
    1W        W31377  22.032  12.276  10.140 -0.1651 -0.3131 -0.1515
    1W        W31378   1.878   6.099   1.282  0.0621  0.2375 -0.1880
    1W        W31379   6.085  15.206   0.107 -0.2819 -0.0009  0.0223
    1W        W31380  19.168  23.985   2.026 -0.4276 -0.0013 -0.2247
    1W        W31381   7.978  26.515   1.660  0.2096 -0.2613  0.1354
    1W        W31382  21.892   4.140  10.298  0.0507 -0.1208 -0.1831
    1W        W31383  19.732   0.819   7.912 -0.0708 -0.0385  0.0129
    1W        W31384   7.024  20.589   2.239  0.0503 -0.1635  0.0150
    1W        W31385  15.741   7.647   3.227 -0.1173  0.4531 -0.0706
    1W        W31386   4.804   7.771   1.853  0.0730 -0.1010 -0.1154
    1W        W31387  27.558  22.354   7.923  0.1332 -0.0267  0.2747
    1W        W31388   0.372   2.672   8.855  0.1813  0.0505 -0.1960
    1W        W31389  25.938   0.035   9.073  0.1893 -0.2279  0.0957
    1W        W31390  18.161  26.006   8.018  0.1061  0.2668 -0.2037
    1W        W31391  12.888   4.133   2.057  0.0488 -0.3106 -0.1975
    1W        W31392  16.638   0.832   0.073  0.0884 -0.1235 -0.1286
    1W        W31393  27.146   9.770   1.799  0.3179 -0.5001 -0.4356
    1W        W31394  18.099  17.538   0.582 -0.1363 -0.2040  0.0040
    1W        W31395  13.169   2.134   0.031 -0.0306 -0.2823  0.2123
    1W        W31396   1.978   3.036   0.436  0.4995 -0.0006  0.1800
    1W        W31397  26.995  20.403   9.925  0.4166  0.1101 -0.1274
    1W        W31398  17.968   0.610   4.134  0.0111  0.0837 -0.1275
    1W        W31399  24.227  16.247   9.545 -0.2710  0.2603  0.1952
    1W        W31400   7.847  22.957   7.350  0.0890 -0.0826  0.0887
    1W        W31401   2.745  24.705   0.579  0.1380 -0.1560 -0.2320
    1W        W31402  13.588   7.729   8.357  0.3464 -0.0545 -0.1568
    1W        W31403  13.520   3.732  10.032  0.2822 -0.0805 -0.2577
    1W        W31404  21.645  17.671  10.022 -0.0624 -0.2775  0.1763
    1W        W31405  23.804  17.212   0.891  0.3260  0.3258 -0.2343
    1W        W31406   5.127   9.677   0.154 -0.1016  0.0042 -0.1563
    1W        W31407  10.745  11.343   3.739 -0.1803 -0.0455 -0.0658
    1W        W31408  25.326  20.591   1.668 -0.0984  0.0585 -0.1444
    1W        W31409   6.997   9.141   7.360  0.2439  0.3018  0.0097
    1W        W31410  21.136  13.692   8.034  0.0264  0.1694  0.1024
    1W        W31411  15.356  20.010   2.529 -0.0477  0.4075  0.1886
    1W        W31412  14.794   8.022   9.620 -0.1943  0.0868  0.1513
    1W        W31413   1.006  20.386   0.775  0.0404  0.2149 -0.0691
    1W        W31414   5.002  18.038   0.783 -0.0513 -0.1536 -0.3051
    1W        W31415  10.408  12.355   2.336  0.1414 -0.1171  0.2725
    1W        W31416   9.831  20.033   7.800 -0.0098  0.0353  0.2691
    1W        W31417   5.133  18.112   9.121 -0.2495  0.1592  0.0140
    1W        W31418   5.786  10.349   0.330  0.0899 -0.0708 -0.0867
    1W        W31419  17.438   5.621   1.713  0.0123 -0.0758 -0.1798
    1W        W31420   5.209  21.589   3.115 -0.1434  0.1516 -0.1952
    1W        W31421  14.086  10.362   1.171  0.0758  0.0939 -0.1979
    1W        W31422  21.569   7.800   7.275 -0.1247 -0.4362 -0.0925
    1W        W31423  14.035  14.098   1.385  0.0828 -0.1222  0.2093
    1W        W31424   0.609  10.072   9.884 -0.0033 -0.0856 -0.2956
    1W        W31425   9.387  22.698   0.781 -0.1811 -0.1370 -0.0195
    1W        W31426  13.560  27.348   1.862  0.0473  0.0453  0.0624
    1W        W31427  25.830   6.452   7.753  0.0859  0.0426  0.0385
    1W        W31428   2.076  26.736   1.847  0.2041  0.1516  0.0396
    1W        W31429   2.027   1.758   0.691 -0.0922  0.1609  0.1902
    1W        W31430   5.743  18.881   1.247  0.0388 -0.0040 -0.1731
    1W        W31431   8.721   9.111   0.714  0.2148  0.0695 -0.0860
    1W        W31432   3.588  21.072   7.538 -0.0449 -0.0520  0.2685
    1W        W31433  18.408   9.411   2.504  0.4998 -0.1117  0.3632
    1W        W31434  25.681   3.587   7.785 -0.3099  0.1237  0.1151
    1W        W31435  21.145  18.938   2.736 -0.0174 -0.2435  0.1963
    1W        W31436   0.453  17.172   6.856 -0.1679  0.1189 -0.2015
    1W        W31437  11.432  27.481  10.053  0.0583  0.1115  0.0291
    1W        W31438  23.660   5.917   2.051 -0.3062 -0.3255  0.0230
    1W        W31439   3.182  14.662  10.355 -0.5949  0.0761 -0.0114
    1W        W31440  23.739  12.753   1.546 -0.4189  0.1049  0.0407
    1W        W31441   8.055  20.521   0.047 -0.3178  0.0532  0.0679
    1W        W31442   7.584  27.051   8.884  0.2914  0.0067 -0.1095
    1W        W31443  24.191  14.911   2.352 -0.1109 -0.1328 -0.0202
    1W        W31444  15.615   2.780   1.837  0.0765  0.2303  0.0518
    1W        W31445  17.301   7.181   1.916 -0.2039 -0.1186  0.1705
    1W        W31446   9.856   3.181   7.911  0.0195  0.1835  0.0350
    1W        W31447   4.400   7.816   9.523  0.1128 -0.0313  0.0442
    1W        W31448  17.886   9.332   3.415 -0.4756  0.0833 -0.0744
    1W        W31449  11.473   3.041   8.415 -0.0728  0.0936  0.3983
    1W        W31450  25.320  11.096   6.799  0.2101 -0.1010  0.2098
    1W        W31451  26.328  16.370   0.573  0.0658 -0.0765  0.0449
    1W        W31452  18.276   9.253   0.064  0.3745  0.4703  0.0980
    1W        W31453  21.505  17.432   1.484 -0.1647 -0.3439 -0.0579
    1W        W31454   9.636   1.461   8.563 -0.4536 -0.3693  0.1651
    1W        W31455   4.058  19.592   0.319 -0.1217 -0.2829  0.0534
    1W        W31456  12.480  13.636   8.285  0.3490 -0.1796 -0.1969
    1W        W31457  17.578  18.274   3.854 -0.0581  0.0465  0.2413
    1W        W31458  10.575   7.711   2.889 -0.1152  0.3041 -0.0994
    1W        W31459  24.249  13.904   9.174  0.0015  0.0413  0.0782
    1W        W31460  26.081   8.533   0.487 -0.0081  0.1084  0.1652
    1W        W31461   1.600   5.651   9.789  0.0407  0.2650  0.1033
    1W        W31462  27.321   6.142   8.266 -0.0034  0.0852 -0.0206
    1W        W31463  12.517   0.475   9.274 -0.0636 -0.3908 -0.2422
    1W        W31464   6.027  15.968   0.887  0.1600  0.1174 -0.2029
    1W        W31465   3.632   1.917   9.003  0.2612  0.2041 -0.2683
    1W        W31466   3.936   8.872   8.472 -0.1159  0.2687 -0.2162
    1W        W31467   9.463  26.850   9.862 -0.1731  0.3565 -0.1142
    1W        W31468  13.662  11.579   0.603  0.0487  0.4757  0.1766
    1W        W31469  23.533  18.219   1.891 -0.0331 -0.3547  0.3201
    1W        W31470  25.614  10.664   6.690 -0.1247 -0.1141  0.2321
    1W        W31471  21.517  26.644   0.859 -0.0028  0.4597  0.1372
    1W        W31472  12.311  15.342   6.989 -0.1560  0.3271  0.1769
    1W        W31473   0.092  10.906   2.373 -0.0058  0.0387 -0.0577
    1W        W31474   9.403   5.861   1.498 -0.0414 -0.1412 -0.2309
    1W        W31475  20.604   0.100   6.807  0.0673 -0.2017 -0.0146
    1W        W31476  13.956  13.004   8.629 -0.0709  0.1296 -0.0522
    1W        W31477   4.704  11.040   1.415 -0.0030  0.0952 -0.1343
    1W        W31478  12.937   1.113  10.263  0.0800 -0.2300  0.0631
    1W        W31479  18.206  25.455  10.256  0.0772 -0.2452  0.2182
    1W        W31480  19.516  22.196  10.189  0.0405  0.0493 -0.2335
    1W        W31481  26.165  11.496   8.930 -0.0717 -0.0222 -0.0901
    1W        W31482   6.181  25.654   8.916 -0.1805 -0.2712  0.0660
    1W        W31483  23.865  22.843   9.723  0.2071  0.1072  0.2774
    1W        W31484  20.573   7.100   1.215  0.1629 -0.1973 -0.2043
    1W        W31485  16.378   0.013   0.448  0.0465 -0.1512  0.0375
    1W        W31486  21.929   6.565   8.518 -0.0326 -0.0500 -0.0538
    1W        W31487  26.276  26.246   8.410  0.1021 -0.0363  0.0481
    1W        W31488  13.497  22.771   0.478 -0.0362 -0.1059 -0.0717
    1W        W31489  18.562  16.054   9.157 -0.0924 -0.4092  0.1810
    1W        W31490  15.351   1.958   1.176  0.1244  0.0931 -0.1915
    1W        W31491   0.799  11.543   8.200  0.0477 -0.1428 -0.1482
    1W        W31492  19.627  24.805   0.857  0.0329 -0.0140  0.1711
    1W        W31493   3.309  14.886   2.398 -0.0774 -0.4162  0.3009
    1W        W31494   7.942   2.018   8.174 -0.1879  0.1075  0.1695
    1W        W31495  15.566  25.219   7.799  0.1071  0.1377 -0.0168
    1W        W31496  16.804  10.462  10.010  0.0856 -0.1340  0.0674
    1W        W31497  14.727  11.658   9.075 -0.0267 -0.1440  0.3156
    1W        W31498   3.065   6.163   6.826  0.1620 -0.1370  0.1291
    1W        W31499  13.755   3.226   8.727 -0.2230  0.3297  0.2865
    1W        W31500   6.026  19.812   3.517  0.1336  0.2977  0.1940
    1W        W31501   3.007   1.206   8.189  0.1407 -0.1293 -0.0352
    1W        W31502   7.334   8.406   9.142 -0.0352 -0.0389  0.3085
    1W        W31503  12.690  21.721   1.126 -0.0825 -0.0825 -0.0202
    1W        W31504  16.017  21.593   0.495 -0.5546 -0.1897 -0.0956
    1W        W31505  11.565  17.101   8.792 -0.0820 -0.1432  0.1946
    1W        W31506  12.648   4.193   0.404 -0.3153 -0.1115 -0.0167
    1W        W31507   6.916  12.954  10.288 -0.2021 -0.2199  0.1570
    1W        W31508  24.637  20.859   0.318 -0.1412 -0.1220 -0.0014
    1W        W31509  10.186  19.836   8.108 -0.1628  0.0897 -0.0295
    1W        W31510  20.801  24.068   7.962  0.0311 -0.0014 -0.1720
    1W        W31511  27.078  15.958   2.439 -0.0587  0.1243  0.3901
    1W        W31512  19.743  27.459   8.621  0.0248  0.4267  0.0139
    1W        W31513   3.231   0.708   8.189  0.3902  0.3321  0.2228
    1W        W31514   5.105   3.943   7.192  0.1216 -0.0977  0.0040
    1W        W31515  13.637  13.432   2.539  0.0841 -0.2321 -0.2424
    1W        W31516  12.214  26.592   1.707  0.2874 -0.1318 -0.0212
    1W        W31517  24.405  13.477   6.860  0.2366 -0.0131 -0.1106
    1W        W31518  24.419  20.940   1.365  0.1862 -0.1015  0.2516
    1W        W31519  17.425   5.842   8.653  0.0734  0.3286 -0.1358
    1W        W31520  18.065  16.918   8.929 -0.1309  0.0689 -0.3702
    1W        W31521   5.097  12.170   8.257 -0.2887 -0.2665 -0.1410
    1W        W31522  19.680  21.276   7.799 -0.0853 -0.0453  0.3371
    1W        W31523  22.198  15.701   8.034 -0.0685 -0.0890 -0.1552
    1W        W31524   4.383   9.904   7.198 -0.0912  0.2159 -0.1384
    1W        W31525   3.756  28.020   1.489  0.0880  0.0731 -0.5100
    1W        W31526  20.706  13.869   1.327  0.1661 -0.4132 -0.0110
    1W        W31527   1.691   3.930   6.758 -0.1191  0.0583  0.1895
    1W        W31528   0.952  18.358   9.913 -0.0843  0.0915  0.0674
    1W        W31529  18.728  13.440   2.958  0.1931  0.2087  0.2191
    1W        W31530  22.020  10.827   8.804 -0.1210 -0.0531  0.2546
    1W        W31531  22.245   1.736   0.130 -0.0702 -0.0357  0.0271
    1W        W31532  22.334   7.440   7.701 -0.0527 -0.1126 -0.0280
    1W        W31533   3.211  17.797   7.509  0.0228 -0.1843  0.3663
    1W        W31534  22.757  14.893   0.380  0.1789 -0.1594 -0.1834
    1W        W31535  17.065  24.826   1.934  0.0234 -0.1228  0.2429
    1W        W31536   2.817  18.681   7.514 -0.0528 -0.0232  0.0618
    1W        W31537   9.279  24.323   0.363 -0.1416  0.0254 -0.2338
    1W        W31538  23.962  25.898   2.545 -0.2890 -0.0913  0.0627
    1W        W31539   1.187   5.159   8.175  0.1744  0.0729 -0.1098
    1W        W31540  10.627  22.829   0.453  0.1754 -0.2451 -0.1059
    1W        W31541  20.246  13.676   1.585  0.0674 -0.1774 -0.2239
    1W        W31542  12.343   9.029   9.831 -0.0232 -0.1547  0.0029
    1W        W31543  23.332  17.053   1.597  0.0191 -0.2092 -0.0973
    1W        W31544  22.393  25.061   1.117 -0.2399  0.0620  0.4054
    1W        W31545  12.632  11.902  10.161 -0.0725 -0.1028 -0.4252
    1W        W31546   2.659   8.657   2.861 -0.0984  0.0295  0.0790
    1W        W31547  20.658   6.963   6.624 -0.1071  0.3825 -0.1800
    1W        W31548  21.869   3.228   0.341 -0.2139 -0.2838 -0.1011
    1W        W31549  21.059  12.953   1.988  0.0802 -0.1477  0.0656
    1W        W31550  21.069   6.794  10.290 -0.0915 -0.1846 -0.0450
    1W        W31551  27.513   8.449   0.319 -0.1686 -0.0977 -0.1575
    1W        W31552   3.038  22.797   3.246  0.3074 -0.1588 -0.2528
    1W        W31553   1.962   5.099   8.891  0.1524 -0.1427  0.1448
    1W        W31554  16.478  27.189   0.713  0.3081 -0.1855 -0.3825
    1W        W31555   9.770   0.154   6.660 -0.0486 -0.1216  0.3299
    1W        W31556   3.676   7.055   9.713 -0.0504 -0.1757  0.4058
    1W        W31557   7.244   3.355   1.691 -0.2233  0.1189 -0.1221
    1W        W31558  17.477  18.223   6.754 -0.0306  0.1537 -0.0923
    1W        W31559  21.793  27.711   1.773 -0.1058 -0.0564  0.1545
    1W        W31560  21.214  10.648   9.978 -0.3904  0.2775  0.1098
    1W        W31561  21.654  13.503   2.307 -0.0251  0.0906 -0.0026
    1W        W31562  22.981  13.935   7.637  0.0294  0.2356  0.1980
    1W        W31563  26.047  22.299   3.044  0.0436 -0.2698  0.1485
    1W        W31564   6.085  21.567   8.505 -0.0257  0.1942 -0.0271
    1W        W31565   2.423  13.947   2.248  0.1380  0.3373  0.1439
    1W        W31566   1.976  20.699   8.569 -0.2822 -0.0840 -0.0042
    1W        W31567  14.010   1.426   0.954 -0.3288 -0.2110 -0.1591
    1W        W31568   7.509   0.194   7.986  0.0943 -0.1210 -0.0575
    1W        W31569  15.972   2.786   9.567  0.1677 -0.0866 -0.2695
    1W        W31570  19.773   7.812   7.348  0.0560  0.1303 -0.2186
    1W        W31571  24.551  15.201   8.104  0.1763 -0.0286  0.1056
    1W        W31572   0.791   1.524   2.767 -0.1659  0.1008 -0.1422
    1W        W31573  12.670   0.665   0.525 -0.4006  0.1536  0.3635
    1W        W31574  17.649  18.350   7.212 -0.3236  0.1080 -0.2151
    1W        W31575   3.509   4.797   8.672  0.2258 -0.2029 -0.1882
    1W        W31576  26.351  15.291   2.593  0.0066 -0.1026  0.1228
    1W        W31577   7.356  12.900   8.965  0.1275  0.2685  0.1077
    1W        W31578   9.423   1.899   2.278 -0.0532  0.1039 -0.0039
    1W        W31579   8.171   9.145   7.782  0.3427 -0.0672 -0.0870
    1W        W31580  16.382   3.325   2.150  0.1554 -0.1813 -0.1810
    1W        W31581  21.977  24.266   1.210 -0.0630  0.0583 -0.3003
    1W        W31582   6.352  19.981   1.497  0.0598 -0.2044  0.1711
    1W        W31583   5.185  11.765   8.737 -0.0562  0.3717 -0.1865
    1W        W31584  24.725   9.983   0.718 -0.2713  0.1834  0.1513
    1W        W31585   8.451   7.775   1.803  0.4676 -0.0462  0.2831
    1W        W31586  21.547   7.003   2.633  0.1908 -0.0585  0.2464
    1W        W31587   3.185  26.132   7.898 -0.1455  0.0622  0.1717
    1W        W31588   4.666  14.037   3.023 -0.0337 -0.0463 -0.1852
    1W        W31589  10.711  24.714   1.090 -0.1189 -0.0431 -0.0494
    1W        W31590  27.863  14.534   9.752 -0.5502 -0.1771  0.4624
    1W        W31591   7.593   9.854   8.555  0.4509 -0.1084  0.1011
    1W        W31592   0.940   6.990   6.191 -0.0786 -0.0993 -0.0560
    1W        W31593   0.444   9.125   9.045  0.0194 -0.0860  0.0669
    1W        W31594   9.352  24.804   0.301  0.1243 -0.2364  0.0607
    1W        W31595  21.808   8.475   2.450  0.2596 -0.0281  0.0100
    1W        W31596  14.752   4.617   3.770  0.1487 -0.3279  0.0079
    1W        W31597  10.241  26.249   2.783 -0.0464  0.0698  0.1204
    1W        W31598   1.766   7.549   7.060  0.1797 -0.1233 -0.1765
    1W        W31599  22.758  18.463   0.092 -0.0037 -0.1079 -0.1685
    1W        W31600  18.545   7.428   0.431 -0.1306 -0.0323 -0.3702
    1W        W31601  24.748  14.070   8.912 -0.1516  0.0582  0.0623
    1W        W31602   0.646  16.235   0.455 -0.0003 -0.1466  0.5074
    1W        W31603  17.191   5.609   2.643 -0.1230 -0.0078 -0.3627
    1W        W31604  15.361  23.986   0.036 -0.1224 -0.3038 -0.4913
    1W        W31605  12.442  15.752   2.857  0.1994 -0.0590 -0.0686
    1W        W31606   7.023  25.735   9.224 -0.1329  0.0415  0.1277
    1W        W31607  17.525   6.899   0.924  0.1335  0.3097 -0.1053
    1W        W31608  17.496  22.969   9.811  0.0732 -0.0288 -0.0476
    1W        W31609  18.529   1.519   7.345  0.1917 -0.0409 -0.0599
    1W        W31610  13.366  27.271   0.839 -0.0984 -0.0921 -0.3606
    1W        W31611  14.194  25.265   2.406  0.1181 -0.1126 -0.0022
    1W        W31612  24.964  26.107   9.267 -0.0329 -0.0521  0.0405
    1W        W31613   9.907  16.905   2.857 -0.2663  0.0350 -0.1552
    1W        W31614   9.880  25.407   9.406 -0.0811  0.0886 -0.2195
    1W        W31615  15.566  19.340   0.991 -0.3033 -0.1609 -0.1287
    1W        W31616   3.646  24.507   7.317 -0.1034 -0.2251 -0.0460
    1W        W31617  10.876  20.997   9.292  0.0985 -0.0450  0.2146
    1W        W31618  23.003  10.160   2.301  0.2034  0.1322 -0.1608
    1W        W31619   0.754  10.698   1.234  0.0748  0.1585 -0.2745
    1W        W31620   5.252   3.410   1.412  0.0520  0.2381 -0.1427
    1W        W31621  18.272  14.036   1.283  0.1831  0.0089 -0.0663
    1W        W31622  15.219   1.957   8.756  0.1627 -0.1650  0.1384
    1W        W31623  21.559   3.195   0.994  0.0184  0.0653  0.2075
    1W        W31624  24.166  23.864   2.183  0.3865 -0.0022  0.1796
    1W        W31625  23.494  25.460   8.956  0.1209 -0.1657 -0.0922
    1W        W31626   2.799  18.327  10.311  0.4000 -0.0680  0.2722
    1W        W31627   6.300   7.951  10.262 -0.0503 -0.1836  0.0897
    1W        W31628   5.395   6.641   1.234  0.1499 -0.0799  0.2806
    1W        W31629  23.691  22.151   2.214  0.2891 -0.0081 -0.1336
    1W        W31630  17.435  18.881   0.097  0.2925  0.2494 -0.0477
    1W        W31631  10.226   0.853   1.787 -0.1007  0.3055 -0.1449
    1W        W31632  21.818   3.370   9.760  0.0099  0.0317  0.1458
    1W        W31633   2.855   3.108   6.567  0.3450  0.0802 -0.0929
    1W        W31634  13.349   3.924   2.296  0.0165  0.0809 -0.0106
    1W        W31635  24.056  20.252  10.357  0.3098  0.1373  0.1112
    1W        W31636   4.768   2.593   8.682 -0.3855 -0.2035 -0.0367
    1W        W31637  13.957  17.643   9.754  0.4009  0.1130  0.0963
    1W        W31638  18.909   9.113   8.456  0.1628  0.0069 -0.1797
    1W        W31639   3.605  18.550   8.606  0.0839 -0.1212  0.1405
    1W        W31640  16.944   4.475   9.778  0.3291  0.1657  0.2117
    1W        W31641  17.339  23.255  10.210  0.0596 -0.0624 -0.1668
    1W        W31642   0.448  26.607   6.918 -0.0741  0.0131 -0.0148
    1W        W31643  17.890  23.853   0.223  0.0237 -0.2048 -0.0049
    1W        W31644  27.006   4.057   0.557  0.0537 -0.0651 -0.2780
    1W        W31645  17.012   7.530   3.280  0.2292  0.1376  0.0500
    1W        W31646  14.456   7.162   9.840 -0.0257 -0.2855 -0.0611
    1W        W31647  15.213   8.382   6.883  0.1028  0.0282  0.0702
    1W        W31648  27.049  12.185   6.588 -0.0337 -0.0198  0.2264
    1W        W31649  22.557  20.237   1.278  0.2098  0.1738 -0.1998
    1W        W31650  12.388  18.467   4.136  0.2562 -0.2356 -0.2835
    1W        W31651  19.714   4.662   0.100  0.1120  0.3619  0.4096
    1W        W31652   9.326  15.156   2.910  0.1274  0.2229  0.1677
    1W        W31653   1.345  22.077   7.936  0.3215  0.1005  0.0783
    1W        W31654  17.536   2.859   3.041  0.2814 -0.1319 -0.0999
    1W        W31655   6.425  10.348   6.720 -0.1168  0.2810  0.1601
    1W        W31656   5.121  11.081  10.129  0.1672  0.1614  0.0762
    1W        W31657  10.720  26.232   9.513  0.2371 -0.1510  0.1292
    1W        W31658   6.559  17.569   3.378 -0.1514  0.0938  0.1063
    1W        W31659  16.101  15.593   9.770 -0.0524 -0.0834 -0.1826
    1W        W31660   4.796  11.961   7.948 -0.2151  0.1543  0.1396
    1W        W31661   1.202   4.125   9.450 -0.1598  0.0356  0.2642
    1W        W31662  17.776   9.966   9.593 -0.0597  0.3046  0.2757
    1W        W31663   5.254  23.684   7.092 -0.1349 -0.0280  0.2919
    1W        W31664  10.656   7.777   1.155 -0.3507  0.2204 -0.1287
    1W        W31665   9.519  14.842   8.525 -0.2435  0.1094 -0.0702
    1W        W31666   0.667  25.450   3.154  0.0125  0.2722 -0.3280
    1W        W31667  18.637  13.097   0.725  0.0053  0.1189  0.0469
    1W        W31668   0.023  22.206   8.751  0.0269  0.0447  0.0981
    1W        W31669  16.079  15.500   1.161 -0.0274  0.4202  0.3006
    1W        W31670  11.153  11.636   3.910  0.0773  0.1964 -0.0006
    1W        W31671  17.868   4.855   9.236 -0.0375  0.0303 -0.0408
    1W        W31672  22.421  17.244   7.263  0.0760 -0.0666  0.0826
    1W        W31673  20.387  17.558   1.461 -0.2310 -0.2325 -0.4372
    1W        W31674  12.157  23.735  10.091  0.1384  0.1511  0.3521
    1W        W31675  19.396  12.240   9.554  0.3717 -0.1897  0.1976
    1W        W31676   7.488   1.318   8.126 -0.1714 -0.0227  0.0934
    1W        W31677  18.093  10.389   2.238 -0.0746  0.0431 -0.0170
    1W        W31678   7.134  20.803   0.199  0.0598 -0.4626  0.3555
    1W        W31679  20.869   5.958   9.649  0.1993 -0.3714  0.1908
    1W        W31680  14.165  26.161   8.130 -0.0988  0.0641 -0.1205
    1W        W31681  24.891   1.238   9.009 -0.0589  0.1298  0.0003
    1W        W31682  15.520  15.650   1.960 -0.0151  0.1505  0.2604
    1W        W31683   9.390   3.745   2.355  0.2197 -0.0705 -0.1173
    1W        W31684  26.778  23.999   8.826 -0.2441  0.1098 -0.0966
    1W        W31685   9.727   0.588  10.050  0.2418  0.1897 -0.0236
    1W        W31686  11.030  17.873  10.140  0.0172 -0.2027 -0.1321
    1W        W31687   9.833  13.152   1.302 -0.1440  0.2113  0.0443
    1W        W31688  13.783   2.724   0.624 -0.0081 -0.2850 -0.1641
    1W        W31689   5.783   6.152   7.668 -0.0058  0.1127  0.0637
    1W        W31690   8.168  10.815   1.149  0.1476  0.0670  0.0992
    1W        W31691   6.558  11.744   9.260 -0.2495  0.0509 -0.1206
    1W        W31692  25.857   0.779   8.709 -0.0130  0.2310  0.6356
    1W        W31693   5.310  17.263   8.891  0.0307  0.1611  0.2223
    1W        W31694   2.528  27.278  10.124  0.3300  0.0728 -0.1481
    1W        W31695  20.506  15.520  10.157  0.0971  0.1597 -0.1025
    1W        W31696   5.785   0.665   9.061  0.2610  0.0551  0.0328
    1W        W31697   8.478  20.369   7.777 -0.0745 -0.0689 -0.1208
    1W        W31698   5.828  13.575   8.914 -0.1035 -0.2261  0.1954
    1W        W31699   8.492  12.660   0.890 -0.1266 -0.1922 -0.0019
    1W        W31700  26.716  18.270   1.655 -0.2860  0.0034 -0.2030
    1W        W31701  15.035   3.369   0.763 -0.0534  0.1687 -0.1113
    1W        W31702  21.895  15.378   2.370 -0.1703  0.1701  0.0703
    1W        W31703   4.940  22.497   0.677 -0.0903  0.3097 -0.2763
    1W        W31704  17.255  27.791   9.398 -0.0420  0.0754 -0.3100
    1W        W31705   6.871  18.178   2.660  0.0903 -0.1288 -0.1343
    1W        W31706  26.342  19.029   1.037  0.1146 -0.1252  0.2352
    1W        W31707  24.557   6.552   8.170 -0.3590  0.3227  0.1512
    1W        W31708  22.587  11.212   0.025 -0.0789  0.3405 -0.0933
    1W        W31709  24.608  10.829   9.965 -0.2471 -0.2140 -0.0845
    1W        W31710  26.930  19.240   2.557  0.2275 -0.2006 -0.0644
    1W        W31711   5.890   0.496   9.911  0.0691 -0.1251 -0.0025
    1W        W31712   7.323  20.491   9.378  0.1253 -0.4023  0.0447
    1W        W31713  20.520  25.808   9.152 -0.1064 -0.1110  0.2982
    1W        W31714  15.489   2.685   1.363  0.2355  0.2087 -0.1772
    1W        W31715  10.325   1.837  10.127 -0.1020 -0.0286  0.1276
    1W        W31716  13.367   6.866   1.740 -0.0241  0.2242  0.4126
    1W        W31717  20.073   3.503   9.347 -0.1170  0.0230 -0.1103
    1W        W31718   6.596  12.113   6.850 -0.0721 -0.0773 -0.0866
    1W        W31719  27.113  13.614   0.680  0.2096  0.1131 -0.3242
    1W        W31720   8.042  22.427   2.691  0.2224  0.0090  0.0208
    1W        W31721  27.811   0.643   3.103 -0.3345  0.2062  0.1100
    1W        W31722  23.479  17.031   8.056  0.2742  0.2503 -0.3859
    1W        W31723   9.525  16.901   2.515  0.0091 -0.1345  0.1546
    1W        W31724  28.127  10.230  10.078  0.1929 -0.0527 -0.0090
    1W        W31725  15.856  19.589   0.572  0.4508 -0.2951 -0.0522
    1W        W31726  26.748   0.979  10.053 -0.1465 -0.0314  0.0709
    1W        W31727  21.300  23.031   0.858 -0.0603  0.1152 -0.0420
    1W        W31728   8.469  18.274   9.018 -0.2090  0.1972  0.0584
    1W        W31729   0.730   4.605   0.261  0.0257 -0.0718 -0.0528
    1W        W31730   0.898   3.650   9.469 -0.1014  0.0991  0.0255
    1W        W31731  27.999   3.994   0.180  0.0127  0.1538 -0.1422
    1W        W31732  17.139   4.054   8.495  0.2172  0.0223 -0.3382
    1W        W31733  22.058  14.345   9.693 -0.0583 -0.1579  0.1122
    1W        W31734  20.147  17.101   9.469  0.1528  0.0433 -0.0714
    1W        W31735  13.963  15.174   1.192 -0.1480 -0.3242  0.2890
    1W        W31736  13.488  20.490   7.858 -0.1800  0.1416  0.1288
    1W        W31737  21.215  25.168   8.643 -0.0638  0.3090 -0.1902
    1W        W31738  13.730  18.924   8.069  0.3375 -0.0509 -0.0393
    1W        W31739  24.707   4.374   1.961 -0.0033 -0.2168  0.0385
    1W        W31740  16.128  11.259   1.016 -0.0847 -0.0101 -0.0714
    1W        W31741   2.491  15.188   0.480 -0.0615  0.1653 -0.3688
    1W        W31742  10.088  20.300   7.446 -0.1466 -0.0601  0.0373
    1W        W31743   9.921  13.238   2.699  0.2845  0.4560  0.2358
    1W        W31744   7.192   7.430   0.829 -0.1392 -0.1376  0.0413
    1W        W31745  17.350  11.802  10.043 -0.3400 -0.0696  0.1719
    1W        W31746  17.514  28.068   1.153 -0.0758  0.1157 -0.0031
    1W        W31747   2.787   6.720   8.078 -0.1300  0.0549 -0.1329
    1W        W31748  27.919  14.370   0.316  0.1975  0.0427 -0.1866
    1W        W31749  23.434  26.526   1.885  0.2614 -0.0893  0.0900
    1W        W31750  11.997  14.727   8.910  0.1193 -0.1697 -0.1899
    1W        W31751  19.349  25.871   0.697  0.2571  0.2428 -0.0464
    1W        W31752  17.051  17.069   8.158 -0.0758  0.0026 -0.5670
    1W        W31753   6.668   2.046   1.456 -0.2853  0.2823  0.0017
    1W        W31754   0.305  17.805   6.346 -0.2416 -0.1290  0.1733
    1W        W31755  21.626   5.962   7.883 -0.0054  0.4495 -0.1777
    1W        W31756   5.444  12.351   9.960  0.0627 -0.1170  0.1202
    1W        W31757  26.041   8.712   8.241  0.0040  0.2088 -0.0019
    1W        W31758  25.919  18.393   6.851 -0.0070 -0.0173 -0.2649
    1W        W31759  16.276  10.609   0.542 -0.0968  0.0890 -0.1235
    1W        W31760  26.570  20.216   8.783 -0.0297  0.0679  0.3043
    1W        W31761  26.587   2.430   7.726  0.1050 -0.0867 -0.0687
    1W        W31762   6.720   6.206   2.718 -0.1174  0.5152 -0.0212
    1W        W31763   4.322   0.567   1.883 -0.0311 -0.1180 -0.1800
    1W        W31764  23.668  19.120   1.458  0.0957 -0.3048  0.0497
    1W        W31765  16.283   5.664   7.685 -0.0022  0.1828 -0.1049
    1W        W31766  24.617  16.103   2.412 -0.0400 -0.2890  0.1240
    1W        W31767  12.063  25.232   1.318  0.0740 -0.1159 -0.1213
    1W        W31768  11.858  23.469   2.236  0.2314  0.0347 -0.0094
    1W        W31769  11.803  17.716   2.064 -0.2909  0.1284  0.1114
    1W        W31770  23.787   0.584   2.422  0.1484  0.0894 -0.0860
    1W        W31771   6.295  11.949   8.865  0.0059 -0.5393  0.1741
    1W        W31772  20.719  19.900   2.793  0.1950 -0.2421 -0.0241
    1W        W31773  28.126   6.386   6.904 -0.1902  0.1126  0.0511
    1W        W31774  27.193  26.156   1.237 -0.0323  0.0536  0.0210
    1W        W31775  14.866  10.979   8.522  0.0876 -0.0090 -0.1953
    1W        W31776  19.046  10.510   0.891 -0.0644  0.0595  0.1419
    1W        W31777  10.216   3.911   1.890 -0.1560  0.0116  0.2625
    1W        W31778  14.950  19.231   9.321 -0.0885 -0.1420 -0.2717
    1W        W31779  14.764   2.071   8.083  0.1067 -0.1418 -0.1275
    1W        W31780  21.950  28.085   3.766  0.0887  0.0708 -0.0012
    1W        W31781  13.210  25.826   9.676  0.0545  0.0101  0.0551
    1W        W31782  22.387   5.611   0.656  0.1503  0.1197  0.1862
    1W        W31783  26.202  14.077   7.078  0.0024  0.1395  0.0691
    1W        W31784   9.312  22.402   9.855  0.0913  0.2270  0.0336
    1W        W31785  17.343  19.361   1.549  0.4964 -0.3514 -0.4031
    1W        W31786  18.397   5.790   8.513  0.0641 -0.1123  0.2195
    1W        W31787  23.572  18.277  10.185 -0.1064 -0.0416  0.1092
    1W        W31788  25.082  22.339   1.639 -0.3247  0.0945  0.1351
    1W        W31789  15.282   2.707   3.551  0.0956  0.0171  0.0987
    1W        W31790  19.521   9.927   9.108 -0.1721 -0.0061 -0.1565
    1W        W31791  15.380  27.311   8.833 -0.1346 -0.0354  0.4109
    1W        W31792  20.580  16.843   9.988  0.2304 -0.1279  0.0051
    1W        W31793  22.409  11.710   2.189  0.1961  0.0478 -0.0869
    1W        W31794  13.896  13.619   8.890 -0.1999 -0.0578 -0.0078
    1W        W31795   2.880   6.340   8.596  0.1829  0.0592  0.0926
    1W        W31796   1.270   1.178   1.709  0.0788  0.0104  0.2482
    1W        W31797  17.398  20.690   7.468 -0.2770 -0.1259  0.2863
    1W        W31798   5.311   2.585   1.235 -0.3936  0.1259 -0.1030
    1W        W31799  21.005  16.735   7.587  0.2021  0.0608  0.1608
    1W        W31800  24.203   4.168   9.776  0.1074  0.3026 -0.1541
    1W        W31801   4.809   7.038  10.133 -0.3401 -0.0582 -0.1115
    1W        W31802  26.320  27.621   2.327  0.1045  0.2864 -0.1456
    1W        W31803  27.218   4.425   0.166  0.0543 -0.2043 -0.0400
    1W        W31804  26.014  20.503   7.298  0.0583  0.1116 -0.2701
    1W        W31805  11.012  26.829   7.677  0.1798 -0.1813 -0.0111
    1W        W31806   7.920  27.612   9.226 -0.2014 -0.3049  0.0751
    1W        W31807  11.688   8.560   3.502  0.1500  0.0758  0.0609
    1W        W31808   5.861  18.736   0.794 -0.1433  0.0972  0.1982
    1W        W31809   2.011  12.683  10.249  0.2088 -0.0911 -0.2133
    1W        W31810  10.906  15.717   3.333 -0.2987 -0.0855 -0.1992
    1W        W31811   8.823  14.850   2.352  0.2678 -0.2659 -0.1132
    1W        W31812   3.780   8.344   9.119 -0.0063  0.0687  0.3046
    1W        W31813  18.380  21.748   0.188  0.2811 -0.1683 -0.1115
    1W        W31814  20.891   8.277   0.746  0.2333  0.0761 -0.1906
    1W        W31815   8.153  11.186   2.933  0.0941 -0.2354 -0.1115
    1W        W31816  17.089   6.636   9.474  0.1212  0.0792 -0.0630
    1W        W31817  17.094   1.538   1.118  0.2938 -0.0500 -0.1138
    1W        W31818  19.477   8.872   2.209  0.1296 -0.0992 -0.2008
    1W        W31819  12.622   1.001   7.878 -0.2422 -0.2690  0.0035
    1W        W31820  22.344   7.180   6.325  0.2472 -0.2071 -0.0053
    1W        W31821  11.308  12.032   8.795 -0.0796  0.3156  0.1653
    1W        W31822  25.576   1.429   1.727  0.0244 -0.0743 -0.0038
    1W        W31823   2.628  15.012   1.748 -0.1935 -0.0709 -0.4250
    1W        W31824   3.693   7.977   6.949  0.2043 -0.2633  0.2042
    1W        W31825   2.351   0.523   8.661 -0.0160 -0.0763 -0.3895
    1W        W31826   0.327  10.451   2.305 -0.4232 -0.1042  0.1018
    1W        W31827   7.331   7.521   7.991 -0.0042  0.1422  0.0775
    1W        W31828   0.343  18.151   2.433 -0.2008  0.1957  0.1666
    1W        W31829  12.977   4.416   8.785  0.1073  0.0030 -0.0581
    1W        W31830  16.352  24.494   0.989 -0.0684  0.2642  0.1438
    1W        W31831   6.175  15.035   2.711  0.1665  0.0721  0.2503
    1W        W31832   6.205  20.517   1.137  0.0669  0.0472 -0.3559
    1W        W31833   2.449   7.486   0.642  0.0360  0.2488 -0.1855
    1W        W31834  14.886  10.918   1.191 -0.1029 -0.0426 -0.1247
    1W        W31835  12.779  18.266   7.751  0.0138  0.2164  0.1072
    1W        W31836   9.597  19.850   1.674 -0.2016  0.3604 -0.2487
    1W        W31837  20.748  11.500   8.946 -0.0571  0.0732  0.1150
    1W        W31838   1.755  20.939   0.868  0.1808 -0.1727 -0.1233
    1W        W31839  22.776  26.303   9.635 -0.1280  0.0807 -0.2597
    1W        W31840  13.402   3.956   2.827 -0.2703 -0.0530 -0.2602
    1W        W31841  13.234  21.039   1.800 -0.2005  0.4927 -0.4090
    1W        W31842  24.270  24.820   8.420  0.3349 -0.0060  0.0876
    1W        W31843  15.152  26.877   1.701  0.0399  0.1596  0.1606
    1W        W31844   0.128  10.676   8.829  0.1952 -0.2944  0.1161
    1W        W31845  19.701  27.337   2.217  0.0934 -0.1015 -0.2058
    1W        W31846  24.306   6.937   6.328  0.2160  0.2435 -0.0844
    1W        W31847  22.261  14.977   0.207 -0.0717  0.0550 -0.1507
    1W        W31848  16.615  20.950   9.463 -0.4911  0.2294 -0.1134
    1W        W31849  17.204  21.272  10.242  0.0571 -0.1820  0.0155
    1W        W31850  13.564  19.222   9.689 -0.5050  0.4332 -0.1959
    1W        W31851  27.358  23.848   7.713  0.0142 -0.1779  0.2883
    1W        W31852  18.055   4.338   0.048 -0.0175  0.3101  0.0296
    1W        W31853   6.119  20.007   2.448 -0.1503 -0.0148  0.0996
    1W        W31854  22.623  13.994   7.235 -0.0369 -0.2132 -0.0271
    1W        W31855  14.329   6.670   9.540 -0.0555  0.2368  0.0887
    1W        W31856   8.654   9.486   1.889  0.1106 -0.2640  0.2147
    1W        W31857  11.736   1.284   8.105  0.2402  0.1308  0.0929
    1W        W31858  18.515   5.433  10.215  0.3666  0.1278 -0.0992
    1W        W31859   6.977  14.437   7.275  0.0671  0.0925 -0.2860
    1W        W31860   5.313  12.450   0.099 -0.0185  0.0474 -0.1313
    1W        W31861  25.684  22.823   2.801 -0.1961  0.1836 -0.0193
    1W        W31862  23.978   0.868   8.625 -0.2485 -0.0659 -0.4560
    1W        W31863  14.881  25.395   0.098 -0.0417  0.0987  0.0811
    1W        W31864  16.131  12.955   2.101 -0.1147  0.4267  0.0722
    1W        W31865   7.312   6.642   8.259 -0.2622  0.0956  0.1811
    1W        W31866  21.264  11.823   1.148  0.2350 -0.2086 -0.0811
    1W        W31867   9.303  25.570   8.107 -0.3791 -0.0130  0.0382
    1W        W31868   0.328   8.391   7.297 -0.1733 -0.1236  0.2514
    1W        W31869   4.147  11.340   8.125  0.1525  0.0973  0.4454
    1W        W31870  25.046  14.781   7.286  0.0846  0.0344 -0.1437
    1W        W31871   4.022   1.086   7.593 -0.0540  0.1761 -0.0194
    1W        W31872  10.366  10.420   1.324  0.0842 -0.0252 -0.2476
    1W        W31873  22.190  17.257   9.657  0.3429 -0.2842 -0.1700
    1W        W31874  14.632  17.932   1.971 -0.1331  0.2149 -0.1426
    1W        W31875  15.586   2.004  10.176  0.0924  0.1655  0.0019
    1W        W31876  20.726  26.142   7.705 -0.3774 -0.4246  0.1270
    1W        W31877   4.531  16.300   6.676  0.0832 -0.0794 -0.0500
    1W        W31878   4.494   0.764   0.637  0.0372 -0.1738  0.0926
    1W        W31879  21.598  11.703   7.414  0.1179  0.0855 -0.1811
    1W        W31880  13.079  23.142   2.567 -0.1250  0.2287  0.0904
    1W        W31881  18.658   6.902   2.449 -0.4763 -0.0001 -0.1552
    1W        W31882   3.501  17.919   0.725 -0.1429  0.3971  0.0384
    1W        W31883   9.758   8.404   9.288  0.1087  0.0056 -0.0678
    1W        W31884  26.050  20.247   8.539  0.0214  0.1806 -0.0563
    1W        W31885  18.814  13.962   9.995  0.1796  0.0131  0.0833
    1W        W31886  28.000  25.608   8.431  0.0349 -0.2533  0.0087
    1W        W31887  19.834  20.995   9.506  0.2721 -0.1502  0.2371
    1W        W31888  23.049   9.857   8.245 -0.2382 -0.0416  0.1530
    1W        W31889   0.243  25.852   8.710 -0.0299 -0.2794 -0.2451
    1W        W31890  11.715   3.439   0.483  0.3240  0.3130 -0.0202
    1W        W31891   1.345  17.943   0.947 -0.0707  0.2784 -0.1459
    1W        W31892  13.600   8.331   1.549  0.0103  0.2134 -0.0008
    1W        W31893   1.911  19.962   7.579  0.1562 -0.2148  0.1742
    1W        W31894  24.597  11.667   7.855  0.2646  0.2933 -0.0265
    1W        W31895  19.710  12.630   2.117  0.0646  0.4064  0.1011
    1W        W31896  23.060  24.475   7.440 -0.2152  0.0971 -0.0945
    1W        W31897   6.857  14.042   0.410  0.0115 -0.0203  0.0899
    1W        W31898   5.912  12.131   7.067 -0.0875  0.1429 -0.0416
    1W        W31899   8.107   0.700   9.578  0.2448  0.1343  0.0205
    1W        W31900   1.836  11.014   1.712  0.1325  0.0044 -0.1226
    1W        W31901   0.641   0.006   6.044  0.3367  0.0489 -0.2701
    1W        W31902  20.315  11.093   0.955 -0.3550 -0.1571  0.0130
    1W        W31903   6.936   7.062   7.907 -0.0392 -0.1169 -0.1559
    1W        W31904  25.581  23.290   2.552 -0.4810  0.2595 -0.2408
    1W        W31905   8.242   8.957   3.184  0.0790  0.2477 -0.0523
    1W        W31906  24.587  15.030   9.886  0.2284  0.1921 -0.0041
    1W        W31907  24.586   5.786   2.338  0.1162  0.1731  0.1419
    1W        W31908  22.897   9.382   8.357  0.0584  0.1071  0.1994
    1W        W31909  19.518   6.365   2.780 -0.2166  0.1250 -0.1652
    1W        W31910  17.739   2.643   1.596  0.1127  0.1513 -0.0173
    1W        W31911  26.087  18.568  10.086 -0.0944 -0.0787 -0.3613
    1W        W31912  14.142  17.819   1.010  0.1014 -0.0959 -0.1645
    1W        W31913  17.470  19.282   9.643  0.2856  0.1955 -0.2898
    1W        W31914   1.196  26.114   8.722 -0.2133 -0.1030  0.2788
    1W        W31915   0.900  13.371   9.074  0.0909 -0.0940  0.1679
    1W        W31916  26.246   8.405   8.664 -0.1656  0.0404  0.1796
    1W        W31917  15.780  26.771   1.211  0.3245  0.1365 -0.0437
    1W        W31918  27.191  24.048   2.416 -0.2476  0.2800  0.0132
    1W        W31919   2.536   8.218   1.458 -0.0965  0.0641  0.1356
    1W        W31920   6.137  24.177   2.215 -0.0348  0.2973  0.2503
    1W        W31921  27.120   9.997   7.698 -0.0411  0.1414  0.0512
    1W        W31922  27.565  10.344   8.363 -0.3074  0.2496  0.0833
    1W        W31923  20.636   5.412   6.883 -0.0525 -0.0061  0.0882
    1W        W31924  22.300  10.464   1.373 -0.1237 -0.0759 -0.1528
    1W        W31925   7.279   2.483   7.288 -0.0680  0.1441  0.0625
    1W        W31926  14.628  23.232   0.206  0.1016  0.3883  0.1325
    1W        W31927  14.090  25.634   8.328 -0.0637 -0.2019  0.0772
    1W        W31928   5.266  22.030   6.697 -0.0352 -0.1273 -0.0119
    1W        W31929  13.144   2.935   2.265  0.1904 -0.2114  0.3452
    1W        W31930  24.211   1.409   2.083 -0.1877  0.0295 -0.4092
    1W        W31931   5.309  22.650   7.366 -0.2572  0.2625 -0.0108
    1W        W31932  17.640  12.242   8.121 -0.1812  0.2370  0.2838
    1W        W31933   4.189  17.952   0.406 -0.0898 -0.2772 -0.0052
    1W        W31934  19.079   1.068   8.573  0.1351  0.0151 -0.2303
    1W        W31935  13.122  13.425   9.977 -0.1391 -0.0187  0.0244
    1W        W31936  13.063  13.798   9.491  0.2510  0.1819  0.1471
    1W        W31937   9.278  12.596   1.507  0.3130 -0.1306  0.2128
    1W        W31938   4.149   8.083   7.020 -0.0854 -0.2102  0.1217
    1W        W31939  27.740  26.497   9.799 -0.0618 -0.0759  0.0184
    1W        W31940  27.018   6.952   1.186  0.2792  0.0724 -0.1431
    1W        W31941  26.493  19.251   1.496  0.0563  0.1479 -0.2810
    1W        W31942  23.944  11.514   1.602  0.0990 -0.3204 -0.1743
    1W        W31943   0.315  25.199   6.195 -0.0633 -0.0636  0.1666
    1W        W31944  20.001  17.877   1.343  0.1741 -0.1035 -0.4053
    1W        W31945  13.684  27.787   1.580 -0.2421  0.0502 -0.2048
    1W        W31946  19.421  15.452   0.559  0.0241  0.1852  0.1936
    1W        W31947  17.195  20.796   1.658  0.0718 -0.2198  0.1500
    1W        W31948  23.447  27.539   9.232  0.2499 -0.1696  0.0558
    1W        W31949  22.371  13.937   3.424 -0.2194  0.0014  0.1044
    1W        W31950   7.173   1.636   7.697  0.0016 -0.0526  0.0946
    1W        W31951   3.509  18.917  10.277  0.1614  0.0752  0.3157
    1W        W31952  20.285  26.656   3.326 -0.2564 -0.1208 -0.3443
    1W        W31953  25.930  13.556   9.128  0.1058 -0.1449 -0.0866
    1W        W31954  21.597  10.897   1.068 -0.1186 -0.0733  0.0210
    1W        W31955   2.500  18.675   0.030  0.0140 -0.3942 -0.0922
    1W        W31956  10.489  11.008   8.887  0.2112  0.1489  0.3825
    1W        W31957  16.795  13.984   9.852 -0.0778  0.1470  0.2264
    1W        W31958   4.489  25.525   0.867 -0.1471 -0.3542 -0.2068
    1W        W31959  11.403  17.594   9.964  0.3663  0.3612  0.0448
    1W        W31960   0.348  18.500   7.591  0.2870 -0.2548  0.0677
    1W        W31961   1.407   1.315   9.549 -0.0723  0.1557  0.1211
    1W        W31962   4.552  19.970   2.683  0.0467  0.0923 -0.0797
    1W        W31963  17.297  10.437   1.760 -0.1080 -0.2022 -0.0748
    1W        W31964   8.785  17.171   0.613  0.0026  0.1571 -0.0683
    1W        W31965  22.958   9.781   8.801  0.0109  0.0540  0.0332
    1W        W31966   0.906   1.370   2.235  0.0660 -0.1277 -0.5328
    1W        W31967  23.370  13.922   1.791  0.1088  0.1264  0.0429
    1W        W31968   0.887   1.814   1.319  0.0709  0.1581 -0.2964
    1W        W31969  14.397   2.689   9.012  0.0085  0.0011  0.0069
    1W        W31970   6.784  19.969   8.295  0.1680 -0.0188  0.3540
    1W        W31971  24.370  27.451   7.289  0.1573 -0.1954 -0.2541
    1W        W31972   8.055  25.651   8.811  0.1356  0.3310 -0.0754
    1W        W31973  22.632   6.772   8.150 -0.0142  0.3010  0.0464
    1W        W31974  22.538   5.367   2.275  0.0133  0.0161 -0.0417
    1W        W31975  26.456  27.641   9.728  0.1026  0.2534  0.1543
    1W        W31976  13.259  18.989   7.878 -0.1346 -0.1508 -0.1973
    1W        W31977   6.107   4.461   6.710  0.3383  0.1333  0.0107
    1W        W31978  26.281   7.395   9.925 -0.0974 -0.2813 -0.2887
    1W        W31979   4.679   7.489   9.947 -0.2579 -0.2284  0.0316
    1W        W31980   6.516  26.487   6.763  0.0677 -0.1121 -0.0385
    1W        W31981   7.061   8.366   3.094  0.3774  0.1847 -0.0033
    1W        W31982   8.200  19.057   8.690 -0.1346  0.0484  0.0089
    1W        W31983   6.970  23.724   3.277 -0.0218  0.1519  0.4584
    1W        W31984   8.041  15.544   9.878  0.0438 -0.3118 -0.1691
    1W        W31985  21.633  20.660   9.727 -0.1332 -0.0016  0.1465
    1W        W31986   3.531  23.977   7.928 -0.2167  0.0502 -0.2078
    1W        W31987   0.891   2.852   2.288  0.0561 -0.1639 -0.0920
    1W        W31988  19.225   5.987   0.310  0.0145 -0.1643 -0.0585
    1W        W31989  16.185   9.763   9.937 -0.1181 -0.1912 -0.1107
    1W        W31990  22.664   4.875   0.274  0.0476 -0.3739  0.0717
    1W        W31991  21.256  26.387  10.189 -0.1170 -0.1756  0.0240
    1W        W31992   3.272   2.945   9.204  0.2036  0.2342  0.1203
    1W        W31993   6.345  17.419   1.139 -0.3343 -0.2705 -0.1087
    1W        W31994  25.146  24.498   1.150  0.0393  0.1642 -0.0275
    1W        W31995  23.662   3.600   0.834  0.1876  0.1742 -0.3542
    1W        W31996   3.310  13.681   1.824 -0.0659  0.0545  0.1290
    1W        W31997   4.543   8.818   7.069  0.2500  0.0355 -0.0337
    1W        W31998  26.986  14.673   9.355  0.1106 -0.0493 -0.1252
    1W        W31999   9.833  27.936   2.487 -0.3934  0.1137 -0.0292
    1W        W32000  19.611  14.717   2.407 -0.0701  0.1666  0.0688
    1W        W32001  19.018  15.178   0.595  0.0907  0.4733 -0.0114
    1W        W32002  17.856  25.242   8.327  0.0147  0.0449 -0.3857
    1W        W32003   0.325  27.264   2.196  0.1327  0.2735 -0.1080
    1W        W32004   3.575  19.600   2.594 -0.0159  0.1650 -0.2547
    1W        W32005  22.842  21.126  10.212 -0.2244 -0.0241  0.0204
    1W        W32006  17.629   3.331   2.884 -0.2275 -0.2365 -0.0832
    1W        W32007  16.750   8.637   6.899 -0.1975  0.0039 -0.0387
    1W        W32008   3.669   7.397   2.970 -0.3225 -0.1775  0.0840
    1W        W32009  23.672  11.367   2.024  0.2507  0.0415 -0.2556
    1W        W32010  25.419  11.871   1.723  0.3192  0.2232  0.2075
    1W        W32011   0.200   3.684   8.980 -0.1934 -0.1614 -0.2558
    1W        W32012  21.368  23.395   2.081 -0.1909 -0.1160  0.0660
    1W        W32013   0.055  10.226   0.684 -0.0174 -0.1823  0.0485
    1W        W32014  18.957  10.949   1.146 -0.0590 -0.1512  0.0889
    1W        W32015  18.975  18.566   0.373 -0.1731  0.1651  0.0836
    1W        W32016  26.314  27.479   6.422  0.1917  0.1202 -0.0268
    1W        W32017  13.080   9.879   9.822  0.1198 -0.0917 -0.0399
    1W        W32018  27.140  20.394   1.243  0.2426  0.1318 -0.1280
    1W        W32019   8.153  13.349   1.192  0.0097  0.0748 -0.3525
    1W        W32020  25.799  25.854   9.131  0.0605 -0.1161  0.0256
    1W        W32021   2.813   9.851   1.139 -0.1420 -0.0138 -0.0278
    1W        W32022  17.680   7.296   7.829  0.0629 -0.1685  0.1815
    1W        W32023   2.177  20.380   7.363  0.0628 -0.0548  0.1942
    1W        W32024  14.304  19.920   9.726  0.0062  0.0262 -0.1524
    1W        W32025   0.318   5.366   9.407  0.1641  0.0336  0.1231
    1W        W32026   2.841   1.198   1.653  0.2527 -0.0168 -0.0119
    1W        W32027  15.875   6.938   8.462 -0.1514 -0.3523  0.3360
    1W        W32028   3.675  27.435   1.814 -0.3406 -0.0834 -0.3667
    1W        W32029  16.250  19.328   3.500  0.0605 -0.0715 -0.1181
    1W        W32030  25.717  27.511   1.061 -0.0305  0.0232 -0.0545
    1W        W32031  12.923   5.649   1.211 -0.4961 -0.1967 -0.2969
    1W        W32032  15.210  21.570   6.922 -0.1941 -0.2116  0.3159
    1W        W32033   8.528  18.080   2.915  0.0004 -0.0365 -0.1355
    1W        W32034  19.761  13.916   7.949 -0.0627  0.1739 -0.1186
    1W        W32035  25.436   6.163   2.354  0.0816 -0.0229  0.0848
    1W        W32036  26.908  11.807   7.823 -0.1552  0.0688 -0.1288
    1W        W32037  22.056   0.637   1.016  0.2862  0.4024 -0.0829
    1W        W32038   0.614  18.905   0.356  0.2979  0.2381 -0.1026
    1W        W32039   0.583   9.840   1.921 -0.0250 -0.1171  0.2790
    1W        W32040  23.360   7.773   9.657  0.1649 -0.0575 -0.1219
    1W        W32041  10.776  11.421   1.690  0.0698 -0.1012 -0.1117
    1W        W32042   6.348  16.107   2.926 -0.0162  0.0403 -0.2164
    1W        W32043  13.260  13.378   4.141 -0.0872 -0.0773 -0.1329
    1W        W32044   0.130   5.950   6.324 -0.0107 -0.0618 -0.0705
    1W        W32045  17.414  27.067   9.274 -0.4498 -0.1773 -0.0008
    1W        W32046  27.755  11.745   2.050  0.0150 -0.1396  0.1445
    1W        W32047  17.289  26.383   1.314  0.0795 -0.1964 -0.2252
    1W        W32048   8.473  17.202   8.292 -0.2195 -0.0549  0.2042
    1W        W32049   0.616  11.346   7.685 -0.0150 -0.0900  0.1036
    1W        W32050  19.002  14.406   0.273 -0.1111 -0.1449 -0.1649
    1W        W32051   3.422  10.422   2.516  0.2078  0.2267  0.2540
    1W        W32052   4.979  22.810   1.663 -0.1557  0.0114  0.1350
    1W        W32053  27.315  23.855  10.190 -0.1078 -0.0534  0.1553
    1W        W32054   1.439  16.046   9.281  0.5187 -0.1818  0.1635
    1W        W32055  27.760  19.853   0.057 -0.0716 -0.2474 -0.1176
    1W        W32056   5.165  23.251   8.876 -0.1370  0.0133  0.0198
    1W        W32057  18.739   0.271   2.406 -0.0486 -0.3393  0.0014
    1W        W32058  22.364   5.478   1.661 -0.2640 -0.2998  0.0772
    1W        W32059  17.948  27.111   1.454 -0.1110 -0.1699  0.0210
    1W        W32060  15.564   0.615   1.119  0.0735  0.0660  0.0916
    1W        W32061   0.272  20.932   7.228 -0.0380 -0.0717  0.2212
    1W        W32062   1.819  22.662   1.941  0.0276 -0.0657 -0.0705
    1W        W32063  15.390  10.729   1.527 -0.0644  0.1009  0.4476
    1W        W32064   0.469   5.496   8.088 -0.1419 -0.1006  0.1519
    1W        W32065   0.355  21.294   9.603 -0.0128 -0.1567 -0.0481
    1W        W32066   4.789   2.423   9.691 -0.0474 -0.4697  0.0289
    1W        W32067  18.820  18.829   0.882  0.0277 -0.2863  0.1501
    1W        W32068  10.400   0.896   0.086 -0.0714  0.2174  0.0599
    1W        W32069  14.994  18.269   1.896  0.1486  0.0530 -0.0760
    1W        W32070  10.187  23.665   2.361  0.1100  0.0566 -0.0506
    1W        W32071  20.719  24.790   2.774  0.0144 -0.0050  0.2600
    1W        W32072  24.228   4.182   7.400 -0.1415 -0.0687 -0.2467
    1W        W32073   7.727   5.203   1.550  0.1501  0.0755  0.0931
    1W        W32074   4.137  27.745   1.672  0.1453  0.0351 -0.0460
    1W        W32075   0.258  15.350   0.476  0.0745  0.0434 -0.2738
    1W        W32076  14.858  12.979   8.483  0.0520 -0.1020  0.0267
    1W        W32077   1.657  23.152   2.123  0.0917 -0.1704 -0.1779
    1W        W32078   1.169   0.329   9.667  0.0126  0.1827  0.0932
    1W        W32079  26.257  10.422   8.874  0.1844 -0.0327 -0.2238
    1W        W32080  13.194   7.264   8.716  0.1192 -0.0838 -0.1439
    1W        W32081  21.007  18.590   2.326  0.0212 -0.2031  0.1935
    1W        W32082  19.242  17.276   0.222  0.1021 -0.2938  0.1107
    1W        W32083  14.895  12.582   0.994  0.0400 -0.3586  0.0017
    1W        W32084  22.013   6.605   9.407  0.0402 -0.0589  0.0831
    1W        W32085  27.303   5.519   6.269  0.4153 -0.1414  0.0439
    1W        W32086   4.079   7.961   8.252  0.2992  0.1057  0.0033
    1W        W32087  20.570  11.432   7.532  0.0138 -0.0091 -0.1394
    1W        W32088   2.461  14.218   8.108  0.1774 -0.0689 -0.1221
    1W        W32089   6.309   6.459   7.009 -0.0106  0.2969  0.0230
    1W        W32090  17.666  16.569   3.360 -0.4773 -0.2176  0.1083
    1W        W32091  23.881   5.577   0.843 -0.1783 -0.2271  0.1994
    1W        W32092   3.084  10.232   9.834 -0.0890  0.3051 -0.2516
    1W        W32093  13.016   4.512   0.682 -0.0001  0.0277  0.0227
    1W        W32094  25.138  25.108   9.342  0.0782  0.1126  0.1501
    1W        W32095  25.168   1.136   9.579 -0.0746  0.0898  0.4119
    1W        W32096  20.683  15.515   0.758 -0.1593 -0.0932 -0.1475
    1W        W32097  10.540  24.206   0.400 -0.3138 -0.0067 -0.0522
    1W        W32098   0.428  13.710   8.023  0.0145  0.1763  0.0465
    1W        W32099  20.857   4.627   2.355 -0.0963 -0.1846 -0.0383
    1W        W32100  23.126   3.320   7.631  0.0637 -0.0254  0.1941
    1W        W32101  17.816  11.113   8.866 -0.1617  0.0814  0.0758
    1W        W32102  25.024  16.927   8.321 -0.2612  0.1756 -0.1342
    1W        W32103   7.293  11.368   8.301  0.1510 -0.1841  0.0321
    1W        W32104  12.700   3.383   0.458  0.2870 -0.3634 -0.4148
    1W        W32105  26.805   8.191  10.042  0.0058 -0.1567 -0.3297
    1W        W32106  20.582  19.858   3.262 -0.1030 -0.0928  0.2407
    1W        W32107  21.060  22.235   7.302  0.1257 -0.3151  0.0147
    1W        W32108   0.606   6.837  10.222  0.1392  0.0016  0.0255
    1W        W32109   8.248  10.383   7.952  0.2690 -0.0973  0.1574
    1W        W32110  20.645  28.080   2.903 -0.1540  0.1996  0.1092
    1W        W32111   7.306   0.511   2.045  0.1010  0.0327 -0.2384
    1W        W32112  26.771   7.042   7.957 -0.1173  0.2367  0.0040
    1W        W32113  15.189   4.940   1.079 -0.0641 -0.0379 -0.0400
    1W        W32114  18.675   2.943   7.887 -0.2237  0.0724  0.1080
    1W        W32115  19.883   7.707   6.802  0.0936 -0.0907 -0.1189
    1W        W32116  13.902   7.840   8.817 -0.2908 -0.3792  0.2448
    1W        W32117   3.026   8.388   6.690  0.2975  0.1072  0.0444
    1W        W32118  20.104  21.292   9.886  0.0147  0.3400 -0.1404
    1W        W32119  12.134  27.149   9.751 -0.1083  0.1018  0.0915
    1W        W32120  10.784  27.720   8.358  0.3025  0.0550  0.0798
    1W        W32121  26.504  27.020   6.979  0.2093  0.0932 -0.1904
    1W        W32122  26.549  17.324   7.642  0.1624  0.0579  0.0451
    1W        W32123   3.604  25.157   9.986 -0.1945 -0.1398 -0.0372
    1W        W32124   5.031  19.132   9.285  0.3602 -0.0138  0.1615
    1W        W32125  14.446  11.199   1.173  0.1540  0.0711 -0.0289
    1W        W32126  19.700   3.226   9.508 -0.0558 -0.3749  0.3544
    1W        W32127  13.108  19.365   8.640 -0.1422  0.1672  0.1136
    1W        W32128   7.363  13.155   1.044  0.1051  0.1645  0.0122
    1W        W32129   8.352  22.539   8.957  0.0696 -0.0365  0.0844
    1W        W32130  19.785  25.697   0.368  0.1230  0.1246  0.0689
    1W        W32131  23.528  27.460   0.526 -0.0700  0.2288  0.0924
    1W        W32132  10.967   8.220   1.160 -0.0809 -0.0169  0.2996
    1W        W32133  22.906  24.649   8.720 -0.3327  0.0176  0.0619
    1W        W32134  26.684  18.831   1.768 -0.1021  0.0967 -0.0898
    1W        W32135   6.805  25.530   2.489 -0.1196  0.1859  0.0350
    1W        W32136   2.142  12.148   1.019 -0.0558 -0.2051 -0.2697
    1W        W32137   8.414   1.806   8.051 -0.0655  0.0744  0.1268
    1W        W32138   9.321  15.482   0.929 -0.1572  0.1111 -0.1608
    1W        W32139  27.731  11.994  10.106 -0.2547  0.1157  0.0099
    1W        W32140  24.966   6.532   7.703 -0.2666 -0.1817  0.0758
    1W        W32141  17.259  16.457   9.911  0.2506  0.0452 -0.1772
    1W        W32142  18.036   1.048   0.327 -0.0396  0.1321 -0.1777
    1W        W32143  17.242   8.525   7.646  0.3010  0.2265  0.5300
    1W        W32144  16.565  22.926   7.945  0.0725 -0.3076  0.2242
    1W        W32145  13.390   3.684   1.010 -0.2912  0.0941  0.0946
    1W        W32146  19.498  25.201   8.744 -0.1753  0.1425  0.0120
    1W        W32147   2.574   5.949   8.544  0.0041 -0.1157  0.0543
    1W        W32148   1.518  10.889   7.031  0.0072  0.2452  0.1064
    1W        W32149   2.457  11.226   2.496 -0.0272 -0.2357  0.1474
    1W        W32150  13.908  27.734   0.671 -0.1164 -0.4380  0.2035
    1W        W32151  16.813  15.652   8.085  0.2876  0.1744 -0.3184
    1W        W32152  16.913   8.432   1.649  0.0262 -0.2304 -0.2185
    1W        W32153   4.535  18.505   1.377  0.1313  0.1272  0.3068
    1W        W32154  23.666  20.996   8.945 -0.2351  0.0713 -0.1748
    1W        W32155   5.033  18.472   7.215 -0.0932 -0.0729 -0.1118
    1W        W32156  19.291  19.673   7.107 -0.2090 -0.1829  0.3278
    1W        W32157   2.040  18.321   0.110 -0.1261 -0.2095  0.0479
    1W        W32158  23.657   8.153   2.417 -0.2874 -0.0468  0.0506
    1W        W32159   9.350   2.973   0.808 -0.1182  0.4186 -0.1611
    1W        W32160  18.676  24.191   8.434 -0.1496  0.1926 -0.2069
    1W        W32161  18.579  10.204   8.334 -0.1310  0.2617 -0.2591
    1W        W32162  26.241  15.636   1.263 -0.1933  0.0904 -0.0345
    1W        W32163  25.793   4.345   1.859  0.0605  0.0980  0.0740
    1W        W32164   9.520  19.436   2.573 -0.1340  0.0532 -0.0805
    1W        W32165  11.176  12.891   0.955  0.0914 -0.1142 -0.1617
    1W        W32166   0.847  10.580   8.127 -0.0886 -0.0170 -0.4477
    1W        W32167  27.995  16.462   8.328 -0.2998  0.1800 -0.6493
    1W        W32168   5.907  16.592   2.299  0.2862 -0.2845 -0.0233
    1W        W32169  17.331  16.191   3.120 -0.0038 -0.0220  0.0967
    1W        W32170  18.261  24.807   1.778 -0.0306  0.3828 -0.1458
    1W        W32171  20.836  11.825   9.822 -0.1970 -0.2286 -0.3811
    1W        W32172  25.169   5.133   7.648  0.0542 -0.1628  0.1222
    1W        W32173   8.107   3.693   9.021  0.1730 -0.2213  0.0710
    1W        W32174   2.439   7.875   0.931  0.3474 -0.0056  0.2904
    1W        W32175   6.027   9.134   7.413 -0.1906 -0.1131  0.0334
    1W        W32176   5.085  15.994   3.064  0.2597 -0.0666  0.0031
    1W        W32177  17.076  11.907   0.518 -0.0449  0.1674 -0.2646
    1W        W32178  25.508  20.271   7.941  0.0861  0.2321  0.0919
    1W        W32179  24.238   8.674   1.140 -0.0308 -0.2198 -0.1210
    1W        W32180  20.722  15.171   3.131  0.1316  0.0886 -0.0773
    1W        W32181   8.037  11.679   8.822  0.1488 -0.4648 -0.1345
    1W        W32182   9.887   6.318   8.123  0.0878  0.1228 -0.0975
    1W        W32183   0.991  16.719   7.997 -0.2447  0.2880 -0.3128
    1W        W32184  11.191  21.177   0.815  0.2335 -0.0258  0.0510
    1W        W32185  11.232   5.959   9.904  0.0726 -0.2103 -0.0032
    1W        W32186  24.417  22.838   1.205  0.0516  0.2408  0.0638
    1W        W32187  13.456  27.833   3.130  0.0403 -0.2862  0.3074
    1W        W32188  10.605   8.393   9.978 -0.1060  0.3339 -0.1895
    1W        W32189   0.482  12.597   2.348 -0.1696 -0.1701 -0.0449
    1W        W32190  13.737   5.906   0.839 -0.1236 -0.0115  0.3641
    1W        W32191   3.770  13.096   8.723  0.1968 -0.0445  0.2634
    1W        W32192  18.895   6.826   7.511  0.2264  0.2409  0.1760
    1W        W32193  16.295  11.698   0.749  0.1216 -0.3416 -0.1174
    1W        W32194  23.369   7.007   7.829  0.1157 -0.0414 -0.0300
    1W        W32195   2.488  22.913   3.175 -0.2300 -0.0330  0.1071
    1W        W32196   8.056  12.524   2.357 -0.0420  0.0286  0.0279
    1W        W32197   1.982  11.734   3.655  0.0598  0.1503  0.1094
    1W        W32198   2.138   6.032   8.303  0.3746  0.2547  0.1397
    1W        W32199   1.670  12.721   7.054 -0.1795  0.0631 -0.0192
    1W        W32200  12.354   3.069   8.331 -0.4208 -0.0619 -0.0212
    1W        W32201  17.642  27.681   2.528 -0.4247  0.2900 -0.0329
    1W        W32202  11.643  26.159   6.743 -0.0124 -0.1127  0.1804
    1W        W32203  17.262   4.994   0.118  0.4108 -0.1659 -0.1207
    1W        W32204  11.121   8.815   8.643 -0.0981 -0.1613  0.1229
    1W        W32205   3.997  20.422   3.174  0.2004  0.1359 -0.5704
    1W        W32206   8.746   0.719   1.989 -0.0499  0.1320  0.0609
    1W        W32207  18.446  13.191   2.326 -0.0531 -0.0126 -0.0353
    1W        W32208   9.160  23.950   0.688  0.0699  0.0199  0.1717
    1W        W32209  18.066  23.943   6.830 -0.1239 -0.1989 -0.1506
    1W        W32210  10.988   7.369   2.634  0.1568  0.1123  0.2167
    1W        W32211  17.737  27.809   9.227  0.1645  0.0961 -0.3676
    1W        W32212   8.848   5.237   8.363 -0.1536 -0.0060 -0.1623
    1W        W32213  25.506   0.997   9.879 -0.0197 -0.2075 -0.1930
    1W        W32214  23.384  21.936  10.157  0.2941 -0.1519 -0.1267
    1W        W32215  11.419   8.848   9.741 -0.0251 -0.0584 -0.2884
    1W        W32216  27.147  27.738   0.520 -0.1861 -0.1251 -0.1367
    1W        W32217   7.862  16.786   0.811 -0.1399  0.0638 -0.3919
    1W        W32218  14.646  19.851   7.638 -0.1019 -0.1412 -0.2730
    1W        W32219   9.786  16.257   9.324 -0.0988 -0.2282  0.4416
    1W        W32220  14.175   3.803   3.187  0.1060  0.2878 -0.1034
    1W        W32221  23.232   4.747  10.036 -0.4109 -0.2101 -0.0685
    1W        W32222   6.485   4.811   1.335  0.0239  0.2421 -0.0200
    1W        W32223  18.579  11.401   2.962  0.1510  0.0289 -0.1425
    1W        W32224   7.970  22.966   7.908  0.0937  0.2547 -0.0543
    1W        W32225   5.877   3.412   7.414  0.2344  0.1668 -0.0055
    1W        W32226   1.866  16.279  10.324 -0.0643  0.1062 -0.1160
    1W        W32227  12.919  20.202   7.953 -0.1810 -0.0020 -0.0084
    1W        W32228  15.393   8.784   7.713 -0.0616  0.1554 -0.1661
    1W        W32229  18.313  14.668   9.390  0.0011 -0.2202  0.3566
    1W        W32230   8.609  15.160   8.346  0.1885  0.2980  0.3553
    1W        W32231  11.939  26.605   0.857 -0.1371 -0.2245  0.0182
    1W        W32232  18.516   5.940   7.133 -0.1412  0.0496 -0.1782
    1W        W32233  21.085   3.396   7.324  0.0803 -0.4961  0.1642
    1W        W32234  21.123   7.774   2.051 -0.2417 -0.0211  0.2608
    1W        W32235  22.217   9.155   8.935 -0.2464 -0.0904  0.1512
    1W        W32236  10.560  14.372   1.512 -0.0678 -0.2325 -0.1603
    1W        W32237   4.588  19.367   1.561 -0.0939 -0.1434 -0.1388
    1W        W32238  12.245   1.775   0.204 -0.0522 -0.0280  0.0679
    1W        W32239  26.961   2.421   6.718 -0.1461 -0.2917 -0.3139
    1W        W32240   3.259  27.996   0.085  0.0030 -0.0022  0.1305
    1W        W32241  24.269   7.835   1.753 -0.1865  0.1249  0.1854
    1W        W32242  27.186  21.856   9.476 -0.0618 -0.0723  0.0689
    1W        W32243  11.954  11.624   8.045 -0.2741  0.0803 -0.0185
    1W        W32244  26.923  12.496   1.087  0.1622  0.1115 -0.1519
    1W        W32245  22.555   3.762   7.121  0.0726 -0.0032 -0.2698
    1W        W32246  10.972  21.739   1.700  0.0621 -0.2948 -0.0280
    1W        W32247  24.175  17.170   9.819 -0.2231 -0.4181 -0.0839
    1W        W32248  25.462   3.570   2.179  0.3556 -0.0451  0.0101
    1W        W32249   6.529  21.113   9.856  0.0507 -0.3464 -0.0554
    1W        W32250   5.916   9.944   7.246  0.2849 -0.4060 -0.0978
    1W        W32251  13.502   2.154   7.534  0.0421 -0.2876 -0.0165
    1W        W32252  16.998  12.405   8.764  0.2184 -0.3969  0.0094
    1W        W32253  14.030  13.656   7.376  0.0913 -0.0745 -0.1876
    1W        W32254  27.834  14.081   0.886  0.1757  0.3236 -0.0524
    1W        W32255   1.600   8.033   9.160 -0.2566 -0.1010  0.0728
    1W        W32256   6.746  22.713   9.076 -0.1909 -0.2606 -0.0920
    1W        W32257  26.516   0.444   8.257 -0.0957 -0.0781  0.2677
    1W        W32258   3.196  10.599   1.399 -0.3653 -0.0738 -0.0034
    1W        W32259  19.525  17.614   8.364 -0.2397  0.2247 -0.0001
    1W        W32260  13.054  25.871   8.185  0.0486 -0.2121 -0.1161
    1W        W32261   8.023  10.949   2.470 -0.0715 -0.1724 -0.0213
    1W        W32262  19.475  14.390   9.021  0.1538 -0.0931  0.0027
    1W        W32263  21.938   9.923   8.380 -0.1662 -0.2522  0.0082
    1W        W32264  23.260  10.217   8.629  0.0662 -0.2941  0.1048
    1W        W32265  25.249   4.976   1.815 -0.0227  0.0305 -0.0743
    1W        W32266  24.276  13.862   2.012  0.0251 -0.5841  0.1684
    1W        W32267  18.727  21.667   8.024 -0.1882  0.0686 -0.4639
    1W        W32268  23.978  10.090   7.714 -0.1023 -0.0852  0.1809
    1W        W32269  18.009   7.135   8.563 -0.0344 -0.0964 -0.0186
    1W        W32270   3.095  25.959   8.410 -0.2931 -0.3158 -0.1595
    1W        W32271   5.662   3.484   7.914 -0.0038 -0.2307 -0.0217
    1W        W32272  19.975  15.437   0.409  0.3824  0.0561 -0.0392
    1W        W32273   1.298  22.126   9.064  0.0569 -0.1540  0.0264
    1W        W32274  18.215  24.415   6.644 -0.2376 -0.3255  0.0289
    1W        W32275   3.991   6.035   7.022 -0.0961 -0.3089  0.1644
    1W        W32276   2.599  13.033   7.443 -0.1967 -0.0821 -0.1537
    1W        W32277  17.971  21.196   1.239  0.0630 -0.0887  0.2119
    1W        W32278  12.705  11.584   8.843 -0.2542  0.0619  0.0847
    1W        W32279  22.125   5.569   9.316  0.0323 -0.1322  0.2349
    1W        W32280   4.178   1.107   0.878 -0.0131 -0.1660  0.0882
    1W        W32281   7.842  19.312   2.231 -0.1196 -0.1375  0.1613
    1W        W32282   6.158  13.373   1.862  0.2464  0.1123 -0.3196
    1W        W32283   0.258  16.236   1.799 -0.4194 -0.2017 -0.1207
    1W        W32284  23.380   7.955   2.059  0.1023 -0.2423  0.0723
    1W        W32285  23.141  20.922   1.672  0.0109  0.0166 -0.1912
    1W        W32286  26.070  22.133   6.897 -0.1023  0.0657 -0.1935
    1W        W32287   4.243  19.009   7.015 -0.0661  0.1094  0.0398
    1W        W32288  25.316  15.573   8.395 -0.1038 -0.0915  0.1539
    1W        W32289   9.961  12.280   9.639  0.1275  0.0355  0.1137
    1W        W32290   2.622  21.930   2.921  0.0111 -0.1638  0.0958
    1W        W32291  12.757   4.702   7.877 -0.0040  0.3522 -0.0177
    1W        W32292   4.163  16.668   3.768 -0.1600  0.3524  0.0390
    1W        W32293  19.128   3.826   9.458 -0.1831  0.0765 -0.2582
    1W        W32294  18.543  20.647   8.881  0.1696 -0.0862 -0.0411
    1W        W32295  25.047  10.836   8.176  0.1426 -0.2582  0.1260
    1W        W32296   5.852  12.613   7.176 -0.1128  0.1755 -0.1945
    1W        W32297  15.385  15.465   2.997 -0.4232 -0.2716 -0.0387
    1W        W32298   3.805  17.635   0.423 -0.0411  0.1070 -0.1431
    1W        W32299  15.380  14.546   7.115 -0.0613 -0.0071  0.1941
    1W        W32300  25.692  20.134   7.366 -0.1549  0.1196 -0.1323
    1W        W32301  19.375   6.121  10.174 -0.0685 -0.1288 -0.0170
    1W        W32302  24.737  15.209   7.057 -0.1303 -0.0481 -0.2417
    1W        W32303  16.299  20.009   1.024  0.2757 -0.0650 -0.0846
    1W        W32304  14.349   3.237   0.808 -0.0010 -0.0173 -0.0860
    1W        W32305  24.227  12.121   8.030 -0.0748  0.1349 -0.2091
    1W        W32306  18.854   0.761   2.278 -0.1755 -0.2275 -0.4723
    1W        W32307   0.743  15.999   1.256  0.2799  0.1416  0.3177
    1W        W32308  15.895  21.308   9.700 -0.4115  0.2141  0.2224
    1W        W32309  22.780  14.319   0.878  0.4862 -0.2781  0.0341
    1W        W32310   9.791  25.102   2.992 -0.0445  0.1429  0.0654
    1W        W32311   9.494  14.430   8.920 -0.2517  0.0751 -0.0100
    1W        W32312  23.946   8.607   3.137 -0.1032  0.0194  0.3270
    1W        W32313   1.340   2.151   6.186 -0.0898 -0.2370  0.1871
    1W        W32314   3.105  22.064   1.645  0.1593  0.1102  0.3787
    1W        W32315  17.131  17.592   8.053 -0.3242  0.0761 -0.0846
    1W        W32316   2.467   3.137   1.235  0.1092  0.1378  0.0691
    1W        W32317  15.330  13.370   2.501  0.1185  0.2685  0.0459
    1W        W32318  26.610   7.392   9.512 -0.6651  0.0063  0.2730
    1W        W32319  22.146  15.756   1.095  0.2056  0.1518 -0.1796
    1W        W32320  17.308  11.821   9.339 -0.0356  0.2208 -0.1407
    1W        W32321  24.910  25.583   0.463  0.0912  0.1395 -0.1074
    1W        W32322  25.592   3.879   7.310 -0.3963  0.2048 -0.1673
    1W        W32323   2.755  15.205   1.278  0.1078 -0.1808 -0.3739
    1W        W32324  24.380   1.916   2.032  0.1383 -0.2321  0.0010
    1W        W32325  27.624  16.461  10.137  0.1437  0.0781  0.0818
    1W        W32326  16.369  19.702   0.562 -0.0797  0.0824  0.0800
    1W        W32327  18.654  27.949   2.797  0.1878 -0.5718  0.1036
    1W        W32328  15.220  18.453   2.316 -0.1663 -0.1338 -0.2197
    1W        W32329  27.846  15.467   8.328 -0.1339  0.0436 -0.4108
    1W        W32330  12.578   8.738   9.449 -0.0408 -0.0111 -0.0314
    1W        W32331  23.683  12.463   9.893 -0.1840 -0.0805 -0.0968
    1W        W32332  14.571  17.987   3.383  0.2601 -0.0688 -0.4088
    1W        W32333  21.969  27.339   0.416  0.0706 -0.2145 -0.3198
    1W        W32334   1.775   5.792   6.767  0.1813 -0.2595 -0.0728
    1W        W32335  10.896  17.765   1.970  0.0570  0.0342  0.2858
    1W        W32336   8.375   3.345   0.695  0.2638  0.0271 -0.3158
    1W        W32337   7.041  21.442   2.311 -0.0913 -0.0084  0.1216
    1W        W32338  22.423  25.176   3.307  0.2789  0.1692  0.2314
    1W        W32339   1.136  23.366   0.342  0.1147  0.2164  0.2224
    1W        W32340   8.993  11.373   3.384 -0.1491  0.2299  0.1421
    1W        W32341   5.654   6.971   9.406  0.2326  0.0122 -0.0327
    1W        W32342  24.131   9.524   2.815 -0.0340 -0.1207 -0.0103
    1W        W32343   6.030  22.175   7.267  0.0778 -0.1803 -0.1561
    1W        W32344  14.053   5.783   0.407 -0.0395 -0.0325  0.2562
    1W        W32345   3.414  26.426   9.839 -0.0897 -0.1747 -0.2794
    1W        W32346   7.726  19.573   9.297  0.1524  0.0466 -0.0885
    1W        W32347   5.719  20.690   9.750 -0.0776  0.0563  0.2499
    1W        W32348  18.493  11.369   8.346 -0.1726  0.1118  0.2684
    1W        W32349  26.938   5.318   9.680 -0.0639  0.1684  0.2568
    1W        W32350  10.666   4.664   1.524  0.1372 -0.0733 -0.0835
    1W        W32351   6.339  23.604   1.405 -0.0827 -0.2388 -0.3085
    1W        W32352   5.471  24.327   1.287  0.2690  0.4696 -0.0232
    1W        W32353  24.998  24.706   0.728  0.2410  0.1892 -0.0264
    1W        W32354   5.259   4.174   0.307 -0.2376  0.2772  0.0341
    1W        W32355  10.148   7.255   8.811 -0.0470  0.0139 -0.0676
    1W        W32356  26.336  27.993   0.377 -0.1830  0.1422  0.0409
    1W        W32357  12.855  12.125   9.772  0.0030  0.1707  0.1631
    1W        W32358  20.179  26.322   9.951 -0.0963 -0.1558  0.0704
    1W        W32359  11.845   6.926   8.337 -0.0865  0.2196  0.0463
    1W        W32360  24.836  15.597   1.471 -0.1152  0.1791 -0.0886
    1W        W32361   0.541  23.152   7.268  0.3020  0.1131 -0.2895
    1W        W32362   3.377  26.622   7.855  0.1669 -0.1892 -0.0699
    1W        W32363  10.297  10.421   9.007  0.0308 -0.1538  0.3977
    1W        W32364   9.742   3.509   9.977  0.2414  0.2237  0.0560
    1W        W32365   7.002  13.733   7.730 -0.1347  0.2674  0.0777
    1W        W32366  17.830  20.268   8.671 -0.0122  0.1007 -0.3218
    1W        W32367  25.922   6.596   9.323  0.1877 -0.0723  0.1154
    1W        W32368  16.465  21.263   2.872 -0.1724  0.0181  0.1920
    1W        W32369  25.479  16.233   9.927  0.2825  0.1062  0.2171
    1W        W32370  10.528  24.462   8.060  0.0884 -0.0799  0.0064
    1W        W32371   9.140   8.803   7.889  0.1329 -0.0398 -0.0633
    1W        W32372  23.309   0.928   2.547  0.2239  0.1818  0.3034
    1W        W32373   6.085  25.365   0.893  0.2428  0.0391  0.2202
    1W        W32374   0.198  16.480   0.554  0.0957  0.3759 -0.1130
    1W        W32375  15.404  16.688   0.022  0.0890  0.3706 -0.1401
    1W        W32376  26.197  13.477   2.320 -0.1502 -0.0311  0.4002
    1W        W32377   5.835   5.228   9.548 -0.0482 -0.1328 -0.1743
    1W        W32378   3.104  20.691   8.722  0.1903 -0.0602  0.0588
    1W        W32379  10.854  21.939   7.068  0.0338 -0.0541  0.0303
    1W        W32380  11.370   8.475   0.992  0.0448 -0.3502 -0.0783
    1W        W32381  26.420  23.398   9.740 -0.0516  0.2637  0.2215
    1W        W32382  11.643   4.995   9.714 -0.1523 -0.3780  0.1709
    1W        W32383   6.106   9.549   0.737 -0.0815  0.0832 -0.1640
    1W        W32384  20.161  23.969   1.392 -0.1814  0.0936  0.2046
    1W        W32385   1.795   4.434   6.892 -0.0281 -0.0394  0.3990
    1W        W32386  23.362  11.665   1.771 -0.0294  0.0880  0.0449
    1W        W32387  13.221   5.317   0.356 -0.2080  0.0937 -0.2788
    1W        W32388  20.317  27.990   9.877 -0.3271 -0.4590  0.1473
    1W        W32389   3.457   3.926   1.409 -0.2349 -0.2037  0.1261
    1W        W32390   8.213   9.550   9.380  0.2744 -0.1978  0.4572
    1W        W32391   5.613   1.374   2.015 -0.0001  0.4641  0.1310
    1W        W32392  27.421  26.865   9.633  0.1232 -0.2495  0.0842
    1W        W32393  19.015   3.806   0.272 -0.0868  0.0185  0.1136
    1W        W32394   5.213  17.460   3.312  0.3617 -0.1217 -0.2309
    1W        W32395  17.480  21.511   8.007  0.0292  0.0855 -0.1461
    1W        W32396  22.532  11.283   7.591  0.2035  0.0396 -0.0265
    1W        W32397  15.249  16.886   3.531  0.0181  0.1778 -0.2464
    1W        W32398  22.277  23.550  10.105  0.0828  0.0855  0.0588
    1W        W32399   0.002   3.864   8.547  0.0193 -0.1482 -0.2086
    1W        W32400   8.523   3.537   8.260 -0.0798 -0.1864  0.0725
    1W        W32401  18.159  26.101   2.482 -0.0516 -0.1288 -0.3469
    1W        W32402  24.374  27.601   1.820 -0.0568 -0.0350  0.1371
    1W        W32403  22.836  19.009   8.958  0.1614 -0.0093 -0.0572
    1W        W32404   0.572  13.648   2.249  0.1803  0.0184  0.2736
    1W        W32405  26.920   8.414   1.861  0.0467  0.2021 -0.2623
    1W        W32406  12.350  12.219   9.598 -0.1055  0.2139  0.1764
    1W        W32407   8.431  19.773   1.829  0.1481 -0.1233  0.1981
    1W        W32408  11.783  20.160   1.716 -0.0763 -0.1792  0.3441
    1W        W32409  26.117  21.123   1.562 -0.3068 -0.1110  0.1583
    1W        W32410   7.133   9.192   2.918  0.2542 -0.2453 -0.1709
    1W        W32411  22.764   9.454   1.703 -0.0905  0.0071 -0.0237
    1W        W32412   9.353  23.506   1.914  0.1304  0.0261  0.4471
    1W        W32413  17.140   3.516   8.623 -0.0283 -0.1322  0.1271
    1W        W32414  17.717   5.233  10.325 -0.1787  0.0784  0.1868
    1W        W32415  12.812  26.401   8.139 -0.0752 -0.2941  0.0740
    1W        W32416   9.348   5.366   0.926 -0.1693 -0.1320 -0.0370
    1W        W32417   8.155   7.517   0.828  0.4332 -0.3138  0.2700
    1W        W32418  12.149   8.820   2.326  0.0532  0.1762 -0.0262
    1W        W32419  15.282  12.687   8.298  0.0083  0.0254 -0.1029
    1W        W32420   9.286  20.216   1.743  0.1313  0.0369 -0.2615
    1W        W32421  16.017  11.935   1.626  0.3537  0.2583  0.0885
    1W        W32422  26.481   5.283   9.381 -0.2273 -0.1684 -0.2464
    1W        W32423   5.218  22.818   9.603 -0.1392 -0.0504 -0.1252
    1W        W32424   6.959  22.712   9.884  0.0411  0.2951  0.2880
    1W        W32425   3.565   0.700   8.644 -0.2326  0.2075  0.1632
    1W        W32426  26.895   0.742   2.509  0.0718  0.3189 -0.0621
    1W        W32427   0.224   4.835   1.014  0.0964 -0.0963  0.1740
    1W        W32428   1.170   8.238   0.060 -0.3070 -0.0240  0.0884
    1W        W32429   8.786  16.781  10.020 -0.0669  0.0692  0.0341
    1W        W32430  15.527  27.814   8.108  0.1199 -0.2410 -0.1912
    1W        W32431   3.894   0.609   6.560  0.2294 -0.1256 -0.0332
    1W        W32432  12.677  12.930   0.484 -0.0344  0.2583  0.2009
    1W        W32433   7.714  14.845   7.426 -0.0916  0.1043 -0.0926
    1W        W32434   7.893   1.021   2.340 -0.4021  0.2508  0.4611
    1W        W32435   6.345   3.615   7.233  0.2728 -0.1276  0.1405
    1W        W32436   0.168   4.455   1.754 -0.2873 -0.0091 -0.3675
    1W        W32437   7.411   6.510   0.920  0.1315 -0.0423 -0.2273
    1W        W32438   3.038  12.288   1.269  0.2107  0.1422  0.6250
    1W        W32439   4.550  12.632   9.691 -0.0456  0.2879 -0.0418
    1W        W32440  16.280  10.614   3.099 -0.0495 -0.0328 -0.1004
    1W        W32441   9.160  13.804   2.469  0.2088  0.0300  0.1287
    1W        W32442  14.239  25.082   0.654  0.0791 -0.0827 -0.1465
    1W        W32443  19.750  21.653   1.931  0.0057  0.0260  0.0189
    1W        W32444  19.497  12.126   0.931  0.0936 -0.2180 -0.0493
    1W        W32445   3.518  12.793   1.400 -0.0968 -0.0494  0.0370
    1W        W32446  22.798  15.605  10.109 -0.0480  0.0463  0.0710
    1W        W32447   5.709   9.385   8.051  0.1407  0.1804 -0.2072
    1W        W32448  12.924  21.583  10.027 -0.0667 -0.0935  0.1382
    1W        W32449  24.809  22.028   7.321  0.0732  0.0175  0.0100
    1W        W32450  16.075  21.585   8.199 -0.0218 -0.1116  0.1256
    1W        W32451   5.991  22.870   0.814  0.1742  0.1079 -0.1508
    1W        W32452  21.679  18.861   0.137 -0.1407  0.1539 -0.1598
    1W        W32453  20.711  11.771   2.576 -0.1901 -0.2349  0.1747
    1W        W32454   5.473  20.506  10.155  0.1912 -0.1906 -0.3594
    1W        W32455   9.243  16.283   9.174 -0.3288  0.0065  0.0879
    1W        W32456  16.082  15.193   2.490 -0.0523  0.2408  0.2482
    1W        W32457   8.098  18.117   9.258 -0.0099  0.1013  0.0541
    1W        W32458   6.264  23.334   8.416 -0.1792  0.0950  0.0199
    1W        W32459   8.552  16.486   8.750  0.2586 -0.2759  0.1912
    1W        W32460   3.748  27.951   1.986 -0.2052 -0.1785 -0.3857
    1W        W32461   0.257   5.917   7.659  0.0723 -0.1465 -0.0524
    1W        W32462   6.720  20.046  10.087  0.2180 -0.0653 -0.0462
    1W        W32463   8.872  25.575   0.079  0.2427 -0.1966  0.1647
    1W        W32464   8.158  24.251   9.077  0.0030  0.4220 -0.1656
    1W        W32465   1.277  27.981   8.501 -0.0116 -0.0941  0.3945
    1W        W32466   8.517   6.326   9.111 -0.1357 -0.0232  0.1732
    1W        W32467  27.466  16.285   8.165  0.2403  0.1099 -0.2177
    1W        W32468  18.557  25.812   9.986 -0.1498 -0.2389  0.1342
    1W        W32469   5.107   7.827   6.740  0.0660  0.2208  0.1642
    1W        W32470  13.233  21.073   0.325  0.1685 -0.1317 -0.0892
    1W        W32471  10.931  17.785   2.473  0.1057 -0.2912  0.0885
    1W        W32472  28.063  16.907   8.197 -0.1309 -0.0830 -0.1306
    1W        W32473  19.482  11.476   1.853 -0.1009 -0.1423 -0.0019
    1W        W32474  27.963  27.520   2.758  0.2268 -0.1382  0.1844
    1W        W32475  18.434  19.784   3.451 -0.0933 -0.0597  0.1040
    1W        W32476   6.484  19.367   0.205  0.2581 -0.0926 -0.0071
    1W        W32477  21.847  27.017   7.390 -0.1786 -0.2361  0.1124
    1W        W32478  15.586   4.984   9.816 -0.0373 -0.1016 -0.0157
    1W        W32479  21.640   7.765   9.286 -0.0275  0.0576 -0.3021
    1W        W32480  17.258  17.286   0.219 -0.2020  0.0104  0.1890
    1W        W32481   0.819   9.518   7.222 -0.1570 -0.3088  0.3764
    1W        W32482  27.504   4.945   1.427  0.1362 -0.0887  0.0245
    1W        W32483   6.579  15.840   7.738 -0.3629  0.2178 -0.4477
    1W        W32484  22.997  14.520   9.302 -0.0537 -0.0643 -0.4800
    1W        W32485  11.471  20.678   1.001  0.2046 -0.1210 -0.0537
    1W        W32486  23.209  22.746   8.213  0.1714  0.3963  0.1220
    1W        W32487   6.627   4.306   0.560 -0.0081 -0.0788  0.2015
    1W        W32488   6.600  26.614   9.638 -0.0129 -0.4838  0.1853
    1W        W32489   9.855  21.445   0.468 -0.0372  0.1280  0.0601
    1W        W32490  21.762   4.581   7.607 -0.0790  0.2237 -0.2908
    1W        W32491  11.234   8.680   2.489 -0.1429 -0.0538  0.2998
    1W        W32492  17.597   8.074   0.104  0.1456 -0.1044 -0.0670
    1W        W32493  10.520   7.457   0.042 -0.1054 -0.0760  0.1194
    1W        W32494  14.869   0.480   7.722  0.2479 -0.2798  0.1716
    1W        W32495   3.474   8.109   8.218 -0.0125  0.0909  0.3314
    1W        W32496  18.944  27.000   2.752 -0.2335  0.0209  0.2697
    1W        W32497   4.305   3.449   8.291  0.1569 -0.1474  0.0781
    1W        W32498  14.705  20.230   7.977  0.0480  0.2679 -0.1475
    1W        W32499  14.737   0.281   2.129 -0.0029 -0.1060  0.2675
    1W        W32500   5.689   0.273   0.320  0.1678  0.1446 -0.2744
    1W        W32501   2.277   4.067   9.331 -0.1925  0.2874 -0.0242
    1W        W32502   4.241   0.620   1.057  0.1339 -0.0947 -0.1721
    1W        W32503  16.520   5.841   0.053  0.1185  0.0839  0.3037
    1W        W32504   7.949  10.791   8.708  0.1333  0.0846  0.0210
    1W        W32505   4.491   6.784   8.783  0.1549  0.3005 -0.1203
    1W        W32506   0.543  15.745   7.334  0.1366  0.1425 -0.1526
    1W        W32507   4.073   0.968   6.112 -0.0269  0.0630  0.0060
    1W        W32508  25.336  24.138   6.714  0.0090 -0.0598 -0.0487
    1W        W32509  19.275  18.999   1.808 -0.1683 -0.0124  0.4475
    1W        W32510   3.982   6.327   9.710 -0.0970  0.0907  0.0617
    1W        W32511   0.305  24.280  10.011 -0.1194  0.0460 -0.3593
    1W        W32512  18.410  20.404   9.925  0.2368 -0.0038  0.1838
    1W        W32513  23.195  21.590   9.153  0.2171 -0.0161  0.0348
    1W        W32514  16.970  12.957   2.740 -0.4049  0.0714 -0.2013
    1W        W32515  26.053   7.010   1.345  0.0614  0.1211 -0.0808
    1W        W32516  24.263  10.283   2.357  0.0083 -0.1524  0.3361
    1W        W32517   7.832   9.839   7.852  0.0770 -0.0132  0.0032
    1W        W32518  16.303   3.755   0.949  0.0096 -0.1730  0.1257
    1W        W32519   0.630  28.053   7.799 -0.1750 -0.0663 -0.3696
    1W        W32520   3.262  14.773   7.725  0.0942 -0.3567 -0.2224
    1W        W32521  12.272  17.653   2.315  0.1568  0.0596 -0.0878
    1W        W32522  21.020  18.368   0.490  0.0869  0.1933  0.2133
    1W        W32523  17.905  15.407   8.228 -0.1263  0.0721  0.0094
    1W        W32524   3.132  26.528   1.246 -0.1034 -0.1884 -0.1522
    1W        W32525  23.980  24.771   7.540 -0.0385  0.1869  0.0568
    1W        W32526  20.086  13.076   8.060 -0.0354 -0.1109 -0.0797
    1W        W32527  25.274   8.652   2.139  0.0919 -0.1746  0.1054
    1W        W32528  10.858  12.415   4.055 -0.2563 -0.1046  0.3672
    1W        W32529  21.114  14.100   7.686  0.0535  0.2595  0.2519
    1W        W32530   1.604  10.698   2.083  0.1086 -0.4299 -0.0818
    1W        W32531  19.390  15.506   3.800  0.0925 -0.0236 -0.0173
    1W        W32532  14.682  27.557   3.910 -0.2303  0.1289 -0.1827
    1W        W32533   4.691  26.253   9.198 -0.2944 -0.0758  0.1603
    1W        W32534  10.590  22.995   8.449  0.1194 -0.1098 -0.0488
    1W        W32535   2.085  12.946   8.334  0.0183 -0.1314 -0.1548
    1W        W32536  18.307   5.526   9.669 -0.1147  0.0333 -0.3357
    1W        W32537  21.820  10.775  10.157  0.0114  0.5596  0.0353
    1W        W32538   4.976  15.477   9.859  0.0441 -0.1684  0.0535
    1W        W32539  12.020  26.732   8.056 -0.1362 -0.0872 -0.0817
    1W        W32540  21.332  27.473   3.335 -0.1247 -0.1212  0.0360
    1W        W32541  20.106  24.873   0.380  0.0074  0.0180  0.3755
    1W        W32542   2.061   0.217   9.594  0.1769  0.2601 -0.2761
    1W        W32543   6.054  17.450  10.197  0.0686  0.1614 -0.0370
    1W        W32544   4.409  25.845   7.177 -0.3711  0.0464 -0.1213
    1W        W32545   9.986   9.944   7.529  0.0315 -0.1014 -0.0151
    1W        W32546  21.189   4.062   8.243 -0.3677 -0.1404 -0.1333
    1W        W32547   1.852  11.868   7.861 -0.2838 -0.0314 -0.0289
    1W        W32548   4.136  15.653   9.078  0.2145  0.0079 -0.1960
    1W        W32549   1.941  25.148   9.050  0.2287  0.0153  0.0471
    1W        W32550  17.588  25.958   1.214 -0.1685 -0.2377  0.0913
    1W        W32551   2.111   6.665   0.236 -0.1733 -0.1041 -0.0521
    1W        W32552  10.330   6.837   2.568  0.0142 -0.1264  0.1880
    1W        W32553  11.360  19.725   0.911 -0.3152  0.2611 -0.1586
    1W        W32554  20.023  23.882   2.311 -0.0006 -0.0562  0.2889
    1W        W32555  28.099  11.647   8.325  0.1933  0.2526  0.1609
    1W        W32556  11.974  18.846   2.598 -0.0041  0.2563 -0.0833
    1W        W32557  10.408  16.277   7.727 -0.2182 -0.3171  0.1248
    1W        W32558   9.686  16.451  10.172  0.1219 -0.0260  0.1452
    1W        W32559   4.537  27.011   2.593  0.2132  0.4070 -0.0394
    1W        W32560   9.998  26.601   1.992  0.0707 -0.1703  0.1960
    1W        W32561  21.557  27.554   2.306 -0.3501  0.1944  0.0418
    1W        W32562  15.425   0.169   2.028 -0.0261 -0.1734  0.0543
    1W        W32563  11.753  20.367   7.427  0.1430  0.0436  0.1504
    1W        W32564  22.664  27.598   9.699  0.1612 -0.1058 -0.2068
    1W        W32565   2.653  24.507   1.098  0.3828 -0.2021  0.1505
    1W        W32566   2.432  16.490   1.059  0.3196 -0.2481 -0.0453
    1W        W32567  14.378  18.914  10.183 -0.0263  0.0792 -0.1927
    1W        W32568  25.035  11.087   7.425 -0.1684  0.0582 -0.4435
    1W        W32569  15.916  17.142   9.970  0.1438  0.0451 -0.1608
    1W        W32570   9.366   7.039   0.123 -0.0979  0.0257 -0.2541
    1W        W32571  23.585  12.291   3.083  0.2101 -0.0759 -0.0129
    1W        W32572  17.073  26.217   2.836 -0.2468 -0.0027 -0.1124
    1W        W32573   7.573  17.716   3.260 -0.0713 -0.0413 -0.3303
    1W        W32574  27.291  10.265  10.158  0.2899 -0.0203 -0.1921
    1W        W32575  12.207  15.417   9.601  0.0931  0.0057 -0.1917
    1W        W32576   4.821   6.180   1.666  0.1147  0.1084  0.1056
    1W        W32577  20.083  14.516   2.217 -0.3555 -0.1001  0.0544
    1W        W32578  26.007   3.105   7.633 -0.3837 -0.5070  0.0316
    1W        W32579   4.610  13.357   1.490  0.1036  0.1331 -0.2590
    1W        W32580  19.381  27.685   8.317  0.0726  0.0795 -0.0864
    1W        W32581  19.157   4.321   9.528 -0.1438 -0.1088  0.0216
    1W        W32582  23.337  14.271   7.629  0.2887  0.2049  0.1263
    1W        W32583   6.047  11.362   1.855 -0.1494  0.1387  0.0079
    1W        W32584  14.479  13.631   1.289  0.0188  0.0144 -0.2129
    1W        W32585   0.607  14.668   9.680  0.0900  0.2929 -0.1392
    1W        W32586  13.208  23.424   3.762 -0.0947  0.1882  0.0538
    1W        W32587   5.515   0.972   9.909 -0.2270  0.1148  0.0145
    1W        W32588  18.601  19.561   8.164  0.0132  0.1311 -0.1273
    1W        W32589  20.843  12.211   1.136 -0.1457  0.2319 -0.0154
    1W        W32590   5.326  10.385   0.068  0.0768 -0.1989  0.1601
    1W        W32591  19.577  13.334   7.287  0.1878  0.2135 -0.2277
    1W        W32592  20.959  14.354   2.065  0.1050  0.0056  0.0762
    1W        W32593  10.606   9.092   0.863  0.1249 -0.0776  0.3415
    1W        W32594  23.072  22.114   0.160 -0.2043 -0.0089 -0.0798
    1W        W32595  19.014  22.706   9.674  0.1500  0.1098  0.0945
    1W        W32596  26.421  22.187   8.449  0.0713  0.0238  0.3989
    1W        W32597  20.775   8.906   7.032 -0.0417 -0.1745 -0.2660
    1W        W32598  14.361  18.210   0.736  0.2899  0.2850 -0.0813
    1W        W32599   3.699  10.363   1.246  0.1757 -0.0221 -0.0601
    1W        W32600  26.627  26.530   1.291  0.0435  0.1434  0.0212
    1W        W32601   1.018  14.544   9.401  0.0837 -0.0140 -0.0183
    1W        W32602   5.688  26.723  10.332  0.0677  0.1159 -0.1807
    1W        W32603  25.836  26.569   2.793  0.0070  0.2937  0.1645
    1W        W32604  11.183   4.364   8.971 -0.3816 -0.0543  0.0676
    1W        W32605   9.922  11.094   1.304 -0.1011 -0.0069  0.1403
    1W        W32606  24.747   0.713   2.269  0.2525  0.3098 -0.3440
    1W        W32607   0.390  21.968   9.006  0.0636 -0.1457  0.2369
    1W        W32608  19.387  24.718   2.386 -0.3468 -0.1902 -0.2942
    1W        W32609   0.483  23.610   7.681  0.0934  0.0845 -0.3647
    1W        W32610  26.512   8.278   0.754 -0.1290  0.3654  0.0763
    1W        W32611   4.014  24.930   1.396  0.1901  0.2292 -0.1454
    1W        W32612   4.833  17.864   1.375 -0.1017 -0.1177  0.0379
    1W        W32613  24.255  25.847   8.468  0.3583 -0.0678 -0.0767
    1W        W32614   9.008   0.917   2.453 -0.0857 -0.0881 -0.0552
    1W        W32615   2.480  25.455   0.034 -0.0759 -0.2038  0.1523
    1W        W32616  13.383  23.592   2.776 -0.2534 -0.2513  0.1425
    1W        W32617   9.050  20.474   9.597 -0.1857  0.1910 -0.2064
    1W        W32618  21.259  23.737   9.203 -0.3600 -0.0485 -0.1605
    1W        W32619  17.285  11.764   7.490  0.0229 -0.4244  0.1272
    1W        W32620  22.443  23.690   1.616  0.0432  0.0273 -0.1315
    1W        W32621   1.478  23.901   1.253  0.3480 -0.0486  0.2386
    1W        W32622   8.248  11.809   9.360  0.1858  0.1084  0.0735
    1W        W32623  15.512  14.081   2.917  0.0219 -0.2452 -0.3417
    1W        W32624  15.369  27.270   2.550  0.0528  0.2344  0.3639
    1W        W32625  18.015  20.775   1.582  0.2219 -0.0378  0.1070
    1W        W32626  22.193  15.204   1.172 -0.1464 -0.1680  0.0854
    1W        W32627  13.378  21.181   8.699 -0.0477 -0.1197 -0.3242
    1W        W32628   6.473  13.345   8.379  0.0686  0.0476  0.2254
    1W        W32629  17.084  12.940   1.604 -0.2588 -0.1493 -0.0645
    1W        W32630   7.125  14.983   8.085  0.1402  0.0704  0.0783
    1W        W32631   2.876  12.759   2.984  0.1588 -0.0569 -0.2096
    1W        W32632   4.223  14.206   1.848  0.0097  0.1955  0.2491
    1W        W32633  26.875  11.717   1.578 -0.0847 -0.1720  0.0009
    1W        W32634  18.688  23.407   7.491 -0.0143  0.2385 -0.0414
    1W        W32635  20.525  21.453   9.037 -0.0281 -0.0429 -0.5167
    1W        W32636   6.822   3.883   7.218  0.1577  0.1522  0.2710
    1W        W32637  20.036  27.659   2.410  0.0620  0.0714  0.0261
    1W        W32638  13.213   5.595   2.233 -0.4071 -0.3645  0.3386
    1W        W32639  10.298  13.991   0.207  0.2018 -0.2248  0.0507
    1W        W32640  15.800  23.207   7.522 -0.2739  0.1297  0.0301
    1W        W32641   2.334  21.956   0.864 -0.0276  0.1753 -0.2651
    1W        W32642  24.916  27.405   7.608  0.1870  0.1838  0.3697
    1W        W32643   4.273  13.507   8.430  0.4095  0.0111 -0.0146
    1W        W32644  10.039   2.589   9.894 -0.1184  0.2391 -0.0461
    1W        W32645  20.444  11.979   6.833 -0.1501  0.2329  0.0446
    1W        W32646  22.860  27.202   8.260 -0.0180 -0.2695 -0.2488
    1W        W32647  27.515  27.210   2.969  0.3616 -0.0944 -0.3200
    1W        W32648  27.071  20.782   9.446 -0.0198 -0.1891 -0.2781
    1W        W32649  23.469  26.167   2.347  0.0249 -0.0346  0.0768
    1W        W32650  19.091   1.182   0.471  0.2743 -0.0722  0.0993
    1W        W32651  27.419  18.185   2.085  0.1653 -0.1258  0.3365
    1W        W32652  21.409   7.160   9.487 -0.1206  0.1404 -0.0505
    1W        W32653  22.302  27.002   1.962 -0.0116 -0.1470  0.2012
    1W        W32654  15.906  26.088   7.901  0.0054  0.3134  0.0824
    1W        W32655  11.988   6.438   2.651  0.0171  0.0411  0.0698
    1W        W32656  12.903  18.847   0.943  0.2394 -0.1986 -0.1463
    1W        W32657   1.250  15.052   9.400 -0.2211  0.1920  0.0413
    1W        W32658  18.677   1.239   8.808  0.1426  0.1851 -0.1539
    1W        W32659  20.919  14.501   9.059  0.2710  0.0129 -0.0415
    1W        W32660  23.564  24.224   8.029  0.0929 -0.0734 -0.2005
    1W        W32661  21.798   6.107   1.957 -0.2780 -0.0394  0.0993
    1W        W32662   3.051   9.412   6.742 -0.0967  0.1322 -0.0761
    1W        W32663  12.858  10.995   0.746 -0.0192  0.1945 -0.0231
    1W        W32664  20.128  16.326   1.829 -0.0866  0.0954 -0.1338
    1W        W32665  22.967   8.775   0.535  0.0669  0.3649 -0.0972
    1W        W32666  17.541  22.005   0.562 -0.2795 -0.2311 -0.2092
    1W        W32667  20.700   1.641   6.753 -0.0400 -0.3165  0.3393
    1W        W32668  14.849  25.304   0.605 -0.1004 -0.0640 -0.2472
    1W        W32669  13.846   1.127   8.335  0.1189  0.0401  0.0330
    1W        W32670  27.755  10.477  10.295  0.2614 -0.2180 -0.1853
    1W        W32671  10.363  22.249   3.785  0.0192  0.0455 -0.2466
    1W        W32672  21.202   8.402   9.931  0.2715  0.4432  0.2687
    1W        W32673  26.693  23.652   2.789 -0.1917 -0.0621  0.0656
    1W        W32674   5.245   7.084   1.147 -0.1721 -0.0789 -0.3119
    1W        W32675   3.796  12.026   7.657 -0.0370  0.0720 -0.1498
    1W        W32676  28.073   2.824   9.767  0.1901  0.0410 -0.0305
    1W        W32677  10.583  27.584   7.497 -0.3912  0.1244  0.2241
    1W        W32678   1.541   5.303   1.060  0.2285  0.1467 -0.2211
    1W        W32679  16.302  16.469   8.468  0.3967  0.0503  0.0011
    1W        W32680  18.131   1.215   3.643  0.1511 -0.0928 -0.2550
    1W        W32681   7.670  22.081   8.063  0.0362  0.0624  0.1356
    1W        W32682  17.233   7.468   9.636  0.1374  0.1500 -0.3370
    1W        W32683   3.676  19.236   0.379  0.2160  0.1248  0.0427
    1W        W32684   9.682  13.294   9.598 -0.1154  0.2195 -0.0718
    1W        W32685  16.336   8.291   1.733  0.2306  0.1361  0.0046
    1W        W32686  23.465   5.565   7.587  0.3608  0.1256  0.3095
    1W        W32687  21.480  19.340   8.249 -0.2058  0.2751 -0.0947
    1W        W32688  22.033   0.542   1.638  0.0922  0.2336 -0.3197
    1W        W32689  19.270  12.587   8.439  0.0140 -0.0876  0.1714
    1W        W32690   2.614  15.545   8.721  0.0751  0.3060  0.0165
    1W        W32691  25.151  12.950  10.026  0.1952 -0.1703 -0.1566
    1W        W32692  19.993  10.120   0.494  0.3454  0.2564  0.2289
    1W        W32693  14.086   0.266   2.647  0.0621 -0.1900 -0.3025
    1W        W32694  17.315  21.069   8.535 -0.3905  0.3568 -0.0708
    1W        W32695  20.112   9.884   8.183 -0.2232 -0.0115 -0.0798
    1W        W32696  22.466   4.525   7.777  0.0841 -0.0356 -0.3555
    1W        W32697  26.302  13.282   0.604  0.0094  0.0514 -0.0261
    1W        W32698   1.123  27.459   8.747 -0.4358 -0.1496 -0.0678
    1W        W32699  19.306   0.900   9.691  0.2895 -0.0537 -0.0956
    1W        W32700   3.810  14.150   0.128  0.1066  0.1567 -0.0812
    1W        W32701  26.695  15.492  10.129  0.2444 -0.0945  0.0762
    1W        W32702  16.959  22.773   9.192 -0.1957  0.0454 -0.0796
    1W        W32703  16.113   8.598   9.258 -0.0730  0.2509  0.0067
    1W        W32704  25.100   2.426   9.871 -0.0150 -0.4364 -0.0229
    1W        W32705  24.429   3.336   9.379  0.0564 -0.0474  0.3005
    1W        W32706  25.351  15.188   1.459 -0.0470 -0.0710 -0.0245
    1W        W32707  22.284  10.745   8.318  0.1122  0.0003 -0.0744
    1W        W32708  17.066   4.100   1.393  0.3241 -0.1645 -0.0904
    1W        W32709   1.707   9.137   8.311  0.2069 -0.0987 -0.1167
    1W        W32710  26.470   9.607   9.945  0.3801  0.1694 -0.1108
    1W        W32711  23.518  15.299   2.865  0.2317 -0.1276 -0.0810
    1W        W32712  18.747   8.634   9.278  0.2024 -0.5649 -0.0946
    1W        W32713  22.412   5.599   7.384  0.3506 -0.0527 -0.1075
    1W        W32714   1.831   3.387   1.122  0.0282  0.1885 -0.4634
    1W        W32715   9.285   1.623   1.622 -0.0102 -0.0611 -0.3340
    1W        W32716  25.619  28.009   1.024 -0.3184 -0.1156  0.1765
    1W        W32717   2.599  17.328   2.770 -0.2135 -0.2579 -0.0013
    1W        W32718   5.343   5.469   9.723 -0.1785 -0.1399  0.1498
    1W        W32719  18.601   9.401   7.313 -0.2593 -0.2519  0.5121
    1W        W32720  16.521  11.695   8.110 -0.4508 -0.0138  0.2855
    1W        W32721  13.192   6.158   2.098 -0.0528  0.0478  0.1268
    1W        W32722  13.529   6.490   8.726  0.2102 -0.0494 -0.0647
    1W        W32723  15.910  21.292   1.862 -0.3057  0.1453  0.2000
    1W        W32724  11.983  23.154   8.842 -0.2805 -0.2611 -0.1642
    1W        W32725   4.366   6.150   0.652  0.0309 -0.2402 -0.2662
    1W        W32726  20.502  10.505   3.374 -0.2669  0.0043  0.0202
    1W        W32727  26.758   8.623   2.305  0.1034  0.2391 -0.2067
    1W        W32728  26.049   6.333   8.514 -0.5198  0.1179 -0.1803
    1W        W32729  19.774  10.352   8.321  0.3734 -0.2835 -0.1039
    1W        W32730  17.649  18.511   9.931  0.0452 -0.0956 -0.1074
    1W        W32731  27.618  17.311   6.393  0.0376  0.0911 -0.0935
    1W        W32732   0.457   9.778   8.456  0.5696 -0.1190  0.1236
    1W        W32733   0.440   3.367   6.661  0.0555 -0.0959  0.0732
    1W        W32734  12.315  25.830   0.388 -0.1650 -0.4761 -0.1403
    1W        W32735  28.082   4.206   6.524  0.0796 -0.0451  0.4433
    1W        W32736   2.559   6.239   6.826  0.1492 -0.0858  0.1007
    1W        W32737  23.236  24.013   7.721 -0.1173 -0.0068  0.0242
    1W        W32738  23.384  10.941   8.490  0.1265 -0.3452 -0.0378
    1W        W32739   2.842   4.150   8.261  0.0422 -0.1480  0.2045
    1W        W32740  22.166   7.256   0.585  0.2346 -0.0192  0.0217
    1W        W32741  23.741  22.215   6.892 -0.3264  0.1908  0.2884
    1W        W32742  26.649  21.855  10.314 -0.1783  0.0235 -0.0701
    1W        W32743   8.607  25.925   7.987  0.0806 -0.3366 -0.1735
    1W        W32744  24.654  26.199   3.734 -0.1062  0.2184  0.0719
    1W        W32745   2.525  13.009   1.110  0.1281  0.0221  0.1157
    1W        W32746   4.556   2.185   6.198 -0.1676 -0.0287 -0.3421
    1W        W32747   9.314  18.375   1.212  0.2623 -0.1937  0.0559
    1W        W32748  23.227  23.667   9.473 -0.1720 -0.1897 -0.2391
    1W        W32749  22.450  22.443   7.626 -0.0455 -0.0952  0.0159
    1W        W32750  21.035  13.451   1.122 -0.1075 -0.1160 -0.2721
    1W        W32751  24.763  27.842   7.313  0.0727 -0.1600  0.1164
    1W        W32752   8.607   0.396   0.291 -0.0728 -0.2822  0.0892
    1W        W32753  10.201  14.542   9.653 -0.1978 -0.1361  0.1507
    1W        W32754   5.828  14.698   7.359 -0.1430 -0.0966 -0.0601
    1W        W32755   8.889  16.073   7.949  0.0696  0.0267  0.1082
    1W        W32756   4.046  13.830   6.831 -0.0141 -0.1815  0.0155
    1W        W32757   8.428  15.331   1.674 -0.1147 -0.0241  0.0305
    1W        W32758   6.465  19.363  10.041 -0.1845  0.4252  0.0310
    1W        W32759   9.655   8.269   9.746 -0.0787  0.0169  0.0386
    1W        W32760  13.144  28.050  10.222 -0.2300  0.0892  0.3577
    1W        W32761  22.838  24.808   1.200 -0.1906 -0.0730 -0.2483
    1W        W32762   7.447   0.986   0.220 -0.1277 -0.0391 -0.4017
    1W        W32763   1.683  15.091   9.710  0.2230  0.3198 -0.0317
    1W        W32764  17.403  18.646   0.637 -0.0800 -0.0440  0.1150
    1W        W32765   4.180  14.678   7.827 -0.2449 -0.0530 -0.3249
    1W        W32766  26.534   0.969   9.470  0.1205 -0.6363  0.1263
    1W        W32767  19.248  21.437   0.610  0.2179 -0.0235 -0.1910
    1W        W32768   1.352  23.973   7.801 -0.0263  0.0829  0.1702
    1W        W32769  23.917  18.223   1.598  0.0644  0.4468 -0.0504
    1W        W32770  28.117   3.353   6.199  0.0138  0.0043 -0.1786
    1W        W32771  11.343  13.184   3.959 -0.1592  0.0134  0.0695
    1W        W32772  20.095  27.109   9.401 -0.0137  0.0346  0.1293
    1W        W32773  16.058  15.274   9.341  0.1344 -0.1111 -0.2104
    1W        W32774  19.162   4.537   7.445 -0.0740  0.2194 -0.0257
    1W        W32775  11.323  20.363   3.149 -0.3089  0.1060  0.0253
    1W        W32776   5.704   4.940   9.101 -0.1770  0.2904  0.2661
    1W        W32777   7.822   4.608  10.314  0.2021  0.5138  0.0625
    1W        W32778  10.939  10.681   0.497 -0.1534  0.0669 -0.0955
    1W        W32779   0.662  25.492   7.450  0.2639  0.1511 -0.2068
    1W        W32780  14.979   0.093   1.716  0.3619  0.4211 -0.1053
    1W        W32781   9.404  16.127   8.631 -0.0710 -0.0310 -0.1933
    1W        W32782  22.947   2.589   8.613  0.0716 -0.0168  0.0457
    1W        W32783   4.159  17.396   0.823 -0.0032 -0.1240 -0.0549
    1W        W32784  27.818  20.542   1.827  0.0792 -0.2553 -0.0225
    1W        W32785  16.612  17.571   8.010  0.0500 -0.1293  0.2824
    1W        W32786  22.528  23.148   1.396 -0.2178  0.2382  0.0280
    1W        W32787  14.434   6.056   2.708 -0.2148 -0.1344  0.2348
    1W        W32788   3.319   5.362   8.648 -0.1170 -0.1404  0.0354
    1W        W32789   4.253  19.771   8.207  0.0221 -0.1062  0.3333
    1W        W32790  17.515  15.334   9.651  0.1906 -0.0365  0.2727
    1W        W32791  26.171  13.133   9.041  0.2619  0.0017 -0.2535
    1W        W32792  14.574  20.938   0.086 -0.2381 -0.0461  0.3360
    1W        W32793  12.445  23.055   1.264  0.1317  0.1751 -0.1713
    1W        W32794   0.431  13.572   0.915  0.0772  0.0629 -0.0507
    1W        W32795  12.572   4.579   7.337 -0.0944 -0.3610  0.0117
    1W        W32796  23.898   1.303   8.316  0.1398 -0.0621 -0.1547
    1W        W32797  22.270   7.610   1.285  0.1573 -0.0426  0.0125
    1W        W32798   6.676   8.402  10.279  0.0831 -0.1111 -0.3965
    1W        W32799   9.126  22.680   1.212 -0.2871 -0.2082  0.0408
    1W        W32800   0.770   4.275  10.183  0.1292  0.2304  0.1753
    1W        W32801   0.505  14.641   9.186 -0.2630  0.1300 -0.2572
    1W        W32802   4.152  10.038   9.263  0.2375 -0.2086  0.0695
    1W        W32803  10.422  12.106   9.979 -0.0207 -0.1169 -0.0966
    1W        W32804  17.220   4.774   0.604  0.4767 -0.1935 -0.0480
    1W        W32805  26.612   7.293   7.522  0.1339 -0.1370 -0.2299
    1W        W32806   5.596  18.545   8.274 -0.0429 -0.1145  0.0960
    1W        W32807  13.608  20.900  10.346  0.0899  0.2230  0.1439
    1W        W32808  24.364  15.640   8.384  0.1253  0.2914 -0.1992
    1W        W32809  20.934  12.095   7.740 -0.1692  0.4039 -0.0243
    1W        W32810  17.628  15.766   7.614 -0.1218 -0.1384 -0.1247
    1W        W32811   1.111  17.604   2.302 -0.1460  0.0347 -0.1651
    1W        W32812  25.636   2.354   1.431 -0.0252  0.3266  0.0596
    1W        W32813   1.429   6.801   0.662  0.1234  0.1617  0.1246
    1W        W32814  19.002  19.275   1.042 -0.0185  0.0404 -0.0832
    1W        W32815  22.616   8.475   1.612 -0.2743  0.1652 -0.1656
    1W        W32816  21.887   5.601   0.932 -0.1581  0.1145  0.0001
    1W        W32817  11.501  11.740   0.995 -0.2065  0.0815  0.1308
    1W        W32818  15.253   6.158   8.102 -0.1011  0.2457 -0.0848
    1W        W32819   2.475   9.948   8.297  0.1152 -0.1438 -0.1326
    1W        W32820  24.091  23.134   1.572 -0.2044 -0.1745 -0.0279
    1W        W32821  14.070  19.580   2.637  0.1304 -0.1805 -0.1781
    1W        W32822  16.675   7.093   3.657 -0.1236 -0.1085 -0.1373
    1W        W32823  27.475   5.940   2.586  0.1460  0.0982  0.2083
    1W        W32824  26.183   4.940   1.437  0.3353  0.1716  0.1615
    1W        W32825  16.813  18.181   7.029  0.3100  0.4372  0.1738
    1W        W32826   5.304  15.334   2.245 -0.1118  0.1283  0.2197
    1W        W32827   1.061  12.902   9.130 -0.6692  0.0531  0.2343
    1W        W32828  21.178   1.037   9.900  0.0693 -0.1223  0.0152
    1W        W32829  11.724   4.212   0.762 -0.0917 -0.0052  0.2668
    1W        W32830  26.494   5.461   2.174  0.0172  0.1006 -0.0058
    1W        W32831  18.361  22.222  10.307 -0.2082 -0.0083  0.1972
    1W        W32832   4.887  19.066   0.790  0.0538  0.1769  0.0385
    1W        W32833  11.963   7.756   8.409 -0.0458  0.1792 -0.0793
    1W        W32834  14.787  15.604   0.029 -0.0328  0.2024 -0.1030
    1W        W32835  14.732  23.831   3.381  0.0167  0.5530 -0.0734
    1W        W32836  16.402   6.559   0.217  0.1373  0.0582 -0.3422
    1W        W32837  18.524   6.628   1.546 -0.1574 -0.0630  0.0916
    1W        W32838  25.970   2.689   7.920 -0.0267 -0.0412 -0.2021
    1W        W32839  25.063   3.954   7.516  0.0175  0.0803 -0.1288
    1W        W32840  26.625  27.147   3.042 -0.1825 -0.1639  0.3250
    1W        W32841  10.053  12.378   0.784  0.3319  0.2496 -0.1967
    1W        W32842   5.636  19.934   9.676  0.2801 -0.1147 -0.3587
    1W        W32843   9.202   5.885   8.950 -0.0745  0.2691  0.0084
    1W        W32844  14.996   6.667   3.392  0.1996  0.1703 -0.3194
    1W        W32845  14.232  22.792   2.606 -0.4689 -0.3182  0.2235
    1W        W32846  10.414  25.352   0.944  0.0187 -0.2495  0.1234
    1W        W32847   5.099  14.501  10.361 -0.0096  0.0106  0.0535
    1W        W32848  26.352  18.019   1.356 -0.0437  0.0790  0.0633
    1W        W32849   2.238   8.860   9.266  0.1142 -0.1324  0.1261
    1W        W32850  27.790  17.541   9.259  0.0118  0.2474  0.1341
    1W        W32851  22.980  18.003   8.974  0.0909  0.2646  0.0539
    1W        W32852  24.151  23.241   2.102  0.0417  0.0312  0.3086
    1W        W32853   3.520  20.440   1.637  0.2406 -0.0232 -0.0034
    1W        W32854   1.884  16.647   8.612  0.0189  0.1169  0.1113
    1W        W32855  24.514  11.149   2.339 -0.0853  0.2629  0.1014
    1W        W32856   0.752  25.646   9.457 -0.1594  0.0432 -0.1053
    1W        W32857   6.204   5.851   6.493 -0.2852 -0.0893  0.2858
    1W        W32858   2.656  10.671   7.613 -0.1223 -0.3018  0.2833
    1W        W32859   8.030   2.700   6.440 -0.3665  0.2070  0.0976
    1W        W32860  10.687  16.360   1.273 -0.0771 -0.0025 -0.0334
    1W        W32861  25.598  12.206  10.334 -0.1907  0.1226  0.0135
    1W        W32862  10.616  16.511   0.219  0.0493  0.0526  0.2013
    1W        W32863  25.444  25.947   9.942 -0.0552  0.0058 -0.2954
    1W        W32864   5.551  13.116   8.432  0.1729  0.1062  0.1643
    1W        W32865  23.737  23.351   1.201 -0.1270 -0.3513 -0.0665
    1W        W32866   3.273  15.838   0.456 -0.1987  0.1927  0.2433
    1W        W32867   1.415  11.990  10.049  0.2628 -0.1635 -0.0979
    1W        W32868  16.821   0.653   0.548 -0.1615  0.0802  0.0493
    1W        W32869  12.232   3.263   1.391 -0.4283 -0.1021 -0.0124
    1W        W32870   2.954  25.310  10.240 -0.1858 -0.3127  0.1960
    1W        W32871  26.778   0.968   0.214  0.1189  0.1727 -0.0282
    1W        W32872  21.322  19.574   0.309  0.0233 -0.1199  0.6300
    1W        W32873   8.280   0.109   8.938  0.1049  0.1107  0.2440
    1W        W32874   4.666  22.653   2.110  0.0353  0.0695  0.2011
    1W        W32875  20.279  21.996   9.627  0.3865 -0.0466  0.1434
    1W        W32876   0.007  20.275   0.173 -0.0657  0.1604 -0.0295
    1W        W32877  16.145   8.692   8.682 -0.0691 -0.1274  0.5129
    1W        W32878  13.664   5.310   0.599 -0.2452 -0.1994  0.0830
    1W        W32879  26.707   2.493   7.184 -0.2789  0.0662 -0.5104
    1W        W32880  17.656   1.405   1.248  0.0030 -0.2330 -0.0277
    1W        W32881  18.726  23.972   2.287  0.3506  0.3112 -0.1288
    1W        W32882  22.547  10.620   8.750  0.5056 -0.1114  0.0203
    1W        W32883  18.556  13.294   9.133  0.3762  0.2309 -0.2008
    1W        W32884   1.979   1.182   2.107  0.2563 -0.0391 -0.0610
    1W        W32885  26.555  16.257   8.132  0.0348  0.1767 -0.0467
    1W        W32886  11.026  25.135   7.924  0.1048 -0.0708  0.0008
    1W        W32887   0.399  12.576   8.904  0.1569 -0.0482  0.0449
    1W        W32888  11.342  19.853   3.293 -0.1095  0.2742 -0.0144
    1W        W32889   9.985  13.173   8.699 -0.1672 -0.0836 -0.0129
    1W        W32890  16.357   6.104   7.881  0.1545 -0.2692 -0.0396
    1W        W32891   0.644  27.688   8.815 -0.0617 -0.0612  0.0444
    1W        W32892   0.128  15.893   9.376 -0.2279  0.0977  0.4686
    1W        W32893   3.030  20.802   2.306 -0.1552  0.0528  0.1906
    1W        W32894  19.064  20.158   1.133  0.1734  0.1349  0.1696
    1W        W32895  15.130  24.383  10.143 -0.1312  0.0274 -0.0602
    1W        W32896  10.048  19.291   7.365 -0.0076 -0.1634  0.1029
    1W        W32897  24.314  21.407   6.944  0.1213  0.1052  0.2349
    1W        W32898  19.525  18.132   1.029  0.1209  0.0627 -0.0768
    1W        W32899   9.096  27.105   8.370 -0.0076 -0.1712  0.2678
    1W        W32900   0.239  23.841   1.485  0.0374  0.2541 -0.0478
    1W        W32901  20.216  23.727   0.536  0.1025  0.3208  0.0018
    1W        W32902  27.652  19.151   8.776 -0.1357  0.0612 -0.1157
    1W        W32903  18.383  16.770   3.890  0.0068 -0.1979  0.2923
    1W        W32904  13.929   3.402   3.461  0.2453 -0.1872 -0.0863
    1W        W32905  26.426   9.141  10.164  0.2772 -0.0150 -0.0540
    1W        W32906  19.170  16.878   8.005 -0.2315 -0.1154 -0.1985
    1W        W32907  18.843   4.825   7.864  0.4316 -0.3627  0.1253
    1W        W32908   9.788   6.292   2.104  0.0288  0.0156 -0.3899
    1W        W32909  11.019  13.437   2.557  0.1044  0.0216  0.0392
    1W        W32910   7.432   8.494   0.504 -0.0096 -0.1358  0.0322
    1W        W32911  26.334   6.565   6.900  0.2545 -0.1013  0.0793
    1W        W32912  14.351  23.969   7.356 -0.3350  0.1697  0.2834
    1W        W32913  16.850  14.634   1.335  0.0680  0.2260 -0.1046
    1W        W32914  10.658   3.393   1.248 -0.1476 -0.1157 -0.3019
    1W        W32915   1.667  15.113   2.207  0.1465  0.2357  0.2398
    1W        W32916  18.526   4.435   2.652 -0.1288 -0.2962  0.4402
    1W        W32917  11.419   5.358   0.843  0.0356  0.0318  0.3192
    1W        W32918   9.166  19.058   9.399  0.1582 -0.0290  0.1440
    1W        W32919   9.913  25.126   2.153  0.1415 -0.1971 -0.0330
    1W        W32920  14.010   0.054   7.470  0.1441 -0.1661  0.0922
    1W        W32921   1.216  23.287   8.959  0.0408  0.2865  0.2256
    1W        W32922  15.113   5.380   2.496  0.1076 -0.2311  0.0471
    1W        W32923   6.930  13.038   9.185  0.3018  0.1798 -0.1865
    1W        W32924  26.300  10.503  10.272  0.2746  0.1012  0.1640
    1W        W32925   3.284  24.898   2.403  0.1538 -0.0875 -0.0645
    1W        W32926   3.235   2.792   7.485  0.1635 -0.1208  0.0434
    1W        W32927   5.332  24.385   9.317  0.1447  0.1092  0.0843
    1W        W32928  27.983  23.734   3.173 -0.0630 -0.0761  0.2970
    1W        W32929  21.346  12.187   9.786  0.1031 -0.1358 -0.1307
    1W        W32930   4.643   3.948   9.488  0.1845  0.2348  0.0096
    1W        W32931  23.467   2.335   0.476 -0.1335  0.0103 -0.2027
    1W        W32932  22.566  27.759   8.724 -0.2752 -0.0986  0.1320
    1W        W32933  26.271   6.434   7.535 -0.0699 -0.2058 -0.1100
    1W        W32934  20.186  13.874   0.609 -0.0411  0.3930 -0.0102
    1W        W32935  24.915  24.533   7.202  0.0196 -0.1607  0.2095
    1W        W32936   8.016   8.677   1.920  0.1030  0.1596 -0.0860
    1W        W32937  26.766  19.753   6.469 -0.2884  0.1636 -0.1737
    1W        W32938  18.270  22.640   0.815 -0.3471 -0.3163  0.0152
    1W        W32939   4.942  26.931   8.300  0.2418  0.3729  0.1384
    1W        W32940  14.303   0.420   3.914  0.2392 -0.0573  0.0766
    1W        W32941  26.373   2.071   9.055  0.3015  0.2477  0.2120
    1W        W32942  18.643   5.023   1.612  0.0536  0.0264  0.2486
    1W        W32943  14.183  19.332   0.735 -0.1909  0.3838  0.1699
    1W        W32944   9.349  21.023   8.460  0.1429  0.1923  0.1099
    1W        W32945  23.677  22.108   7.518 -0.2477 -0.4369 -0.0096
    1W        W32946  18.468  17.858   8.722  0.0447  0.0935  0.0220
    1W        W32947  10.502  13.415   9.503  0.1578 -0.1321 -0.1838
    1W        W32948   5.674   7.458   6.352  0.0076 -0.4613  0.1882
    1W        W32949  25.296  15.097   8.991  0.1251  0.1921  0.0521
    1W        W32950  24.617   8.521   9.654  0.2066  0.3824  0.0314
    1W        W32951  20.496  17.143   1.265  0.2304  0.2284  0.0900
    1W        W32952  18.162  18.064   0.056 -0.0218  0.2069 -0.0439
    1W        W32953  13.772  21.326   2.257  0.2570  0.2375  0.0793
    1W        W32954  16.137  23.857   6.804  0.2579 -0.0671 -0.1811
    1W        W32955  18.098  15.887   8.962 -0.1001  0.0511 -0.1377
    1W        W32956   7.641  24.223   9.203 -0.4363 -0.2181  0.0799
    1W        W32957  25.874   8.226   7.197  0.3003  0.0215  0.1017
    1W        W32958   0.829   6.767   9.772  0.1191  0.3097 -0.0135
    1W        W32959  17.913  13.520   8.291 -0.1547 -0.1750  0.1013
    1W        W32960   0.004   4.537   7.040 -0.1190 -0.2363  0.0950
    1W        W32961   0.394   2.391   7.917  0.3389 -0.0653  0.0690
    1W        W32962  14.588   7.513   8.244  0.2111  0.0301 -0.0858
    1W        W32963  12.430  11.996   8.616  0.1405  0.1788 -0.1766
    1W        W32964   1.565  18.582   7.976 -0.3601 -0.0438 -0.1121
    1W        W32965  11.769  21.914   7.495  0.0129 -0.1743  0.2795
    1W        W32966  20.176  23.691   9.720  0.0007  0.1784 -0.2993
    1W        W32967  27.440  20.781   2.038  0.2270 -0.1092 -0.1295
    1W        W32968  21.133  23.779   1.183  0.2843  0.0572 -0.1376
    1W        W32969   7.864   5.740   1.399  0.1155  0.1113  0.1812
    1W        W32970   2.911  16.999  10.183 -0.0062  0.2775 -0.0666
    1W        W32971   1.018   7.267   9.758 -0.0290 -0.1048 -0.0029
    1W        W32972  23.078  21.093   2.790  0.0336 -0.1824 -0.1277
    1W        W32973  14.430   8.581  10.222 -0.0503  0.1024  0.1547
    1W        W32974   3.211  24.182   7.650 -0.2188 -0.0991  0.0679
    1W        W32975   7.078  13.375   7.303 -0.0496 -0.1623  0.2098
    1W        W32976  10.269  13.400   1.293  0.1204  0.0149  0.1045
    1W        W32977  24.852   1.388   1.316  0.1755  0.4745  0.0589
    1W        W32978  10.696   1.026  10.112 -0.0323  0.0226 -0.2677
    1W        W32979  23.210   3.636   8.481 -0.4360  0.2094  0.2662
    1W        W32980  27.003  24.042   9.827  0.0940  0.3955  0.0851
    1W        W32981  26.531  26.157   0.860  0.1428 -0.0256  0.0785
    1W        W32982  11.808   3.552   9.717  0.4404 -0.2075 -0.1183
    1W        W32983  14.364  13.810   0.513 -0.1635  0.0756 -0.0960
    1W        W32984  17.144  17.640   9.653  0.0643  0.1724  0.0294
    1W        W32985  22.437   7.745   1.752 -0.0546  0.0380  0.0246
    1W        W32986  18.166  17.532   3.253  0.0929 -0.2052 -0.2273
    1W        W32987   9.011  12.675   0.439  0.1216 -0.0090 -0.0204
    1W        W32988  16.685   7.983   2.105  0.1495 -0.3120  0.0848
    1W        W32989  19.022   5.440   0.299  0.1144  0.1087 -0.0874
    1W        W32990  23.008   4.021   9.445 -0.2067  0.0791 -0.5043
    1W        W32991  17.956  22.692   1.294  0.2333  0.0438 -0.0947
    1W        W32992   6.294  11.425   2.599 -0.0741 -0.3080 -0.0742
    1W        W32993  23.877  25.276   9.176  0.1749 -0.1341  0.0815
    1W        W32994  25.205  13.870   8.197  0.0658 -0.0872 -0.0017
    1W        W32995  10.586  18.595   1.139 -0.2966 -0.0876  0.1375
    1W        W32996  14.537   0.786   3.539  0.0728  0.0547  0.2535
    1W        W32997   8.985   6.533   2.132 -0.2052  0.1663  0.2581
    1W        W32998   5.409  14.710   8.028 -0.1697  0.3207  0.0570
    1W        W32999   9.269  11.032   9.731 -0.2295  0.1975  0.1343
    1W        W33000  14.306  20.296   0.377  0.1653  0.1441  0.3181
    1W        W33001   8.648  18.992   0.209 -0.0396 -0.2092 -0.1444
    1W        W33002  25.376   3.102   1.805  0.0746  0.0138 -0.1697
    1W        W33003   4.019  25.977   8.620  0.5397  0.1759 -0.1516
    1W        W33004   2.636   0.809   1.267  0.2644  0.1049 -0.4419
    1W        W33005   8.554  22.814   8.051 -0.0846 -0.0577 -0.2144
    1W        W33006   8.971   7.142   7.596 -0.0655 -0.0520 -0.0286
    1W        W33007   3.644  27.154   9.381 -0.1214  0.0064 -0.1698
    1W        W33008  18.395   2.605   3.029 -0.0812  0.1431 -0.0265
    1W        W33009  20.135  20.205   3.897 -0.0704  0.0738 -0.0972
    1W        W33010   6.984  19.281   1.774 -0.5575 -0.0021  0.1188
    1W        W33011  13.941  16.163   2.058 -0.0442 -0.2477 -0.1392
    1W        W33012  21.311  10.384   2.257 -0.1340  0.1045  0.0020
    1W        W33013   8.742   5.732   9.226  0.1392 -0.1603 -0.2125
    1W        W33014   8.270  15.482   2.396 -0.0026  0.0094  0.1475
    1W        W33015  23.971  22.393   3.372  0.1608  0.2564 -0.1413
    1W        W33016  18.545  16.632   2.973  0.1184  0.1734 -0.1251
    1W        W33017  11.479   3.287  10.016 -0.0990  0.1247 -0.1958
    1W        W33018   6.427  17.084   3.437 -0.1614  0.0037 -0.1120
    1W        W33019   3.638  21.339   0.976 -0.3036 -0.3319 -0.0277
    1W        W33020  18.538  17.013   8.076  0.0513 -0.0391 -0.0894
    1W        W33021   6.145  17.560   9.692  0.1269 -0.0907  0.4333
    1W        W33022  14.758  23.848   7.712  0.2833 -0.0951  0.0617
    1W        W33023   9.617   6.474   8.499  0.0730 -0.1443 -0.0112
    1W        W33024  24.334  12.456   6.213 -0.0543  0.0732 -0.0099
    1W        W33025  19.603   0.497   9.699  0.1005 -0.2246 -0.1373
    1W        W33026  22.907   7.127  10.276  0.0518  0.0376  0.3131
    1W        W33027  12.774   5.468  10.351 -0.1000  0.0797 -0.0969
    1W        W33028  21.186   9.023   6.684 -0.0840 -0.0184  0.0714
    1W        W33029  13.601  13.860   2.778 -0.2271  0.1442  0.2271
    1W        W33030  24.034  21.525   1.662 -0.1006 -0.1558  0.0411
    1W        W33031  16.019  26.542   0.055 -0.1441 -0.0491 -0.0710
    1W        W33032  14.615  13.272   9.112  0.2574  0.1808  0.1479
    1W        W33033  22.509   7.392   9.712  0.1213  0.4092  0.0024
    1W        W33034   8.745   8.022   9.872 -0.2159  0.0784 -0.0072
    1W        W33035  23.058  14.150   1.497 -0.0268 -0.3058 -0.0167
    1W        W33036  16.999   6.490   1.613 -0.2116  0.1739  0.0973
    1W        W33037  14.502  22.944   3.009  0.1221  0.0516  0.0197
    1W        W33038   5.769  18.143  10.119 -0.1057  0.2232 -0.0133
    1W        W33039  12.980  24.685   9.038  0.1532 -0.1137  0.0408
    1W        W33040  27.915  20.712   9.079  0.1827  0.0121  0.0189
    1W        W33041  21.305  27.926   9.640  0.1264 -0.1870 -0.4237
    1W        W33042   3.962  10.220   7.356 -0.1454  0.1671 -0.0427
    1W        W33043  22.343  12.227   2.006  0.0658  0.0602  0.1746
    1W        W33044   6.834   2.250   2.401 -0.1177  0.0572  0.4760
    1W        W33045  13.294  19.164   6.796 -0.1203 -0.0609  0.0098
    1W        W33046  23.719  14.004   7.770 -0.2834  0.0694  0.0593
    1W        W33047  16.819  17.837   0.822  0.2277  0.0589 -0.1488
    1W        W33048  25.474  19.830  10.294  0.2078 -0.0728 -0.2034
    1W        W33049  11.639  25.793   8.948  0.2816 -0.3134 -0.1583
    1W        W33050  16.859  19.526   0.475 -0.2515  0.0628  0.0832
    1W        W33051  22.881  20.281   8.712 -0.1060  0.1051 -0.0924
    1W        W33052   4.999  25.998   3.156 -0.1590 -0.1749 -0.0946
    1W        W33053  22.669   2.294   3.294 -0.0365  0.1008  0.3278
    1W        W33054  12.103  21.596   7.798  0.0878  0.1048  0.0208
    1W        W33055  26.781   4.929   7.433 -0.0571 -0.4125 -0.0307
    1W        W33056  24.207   9.421   0.210  0.4504  0.1227  0.1884
    1W        W33057  20.698  24.509   0.967 -0.0631  0.0397 -0.0825
    1W        W33058  24.119  24.339   0.646 -0.2074 -0.0450 -0.1300
    1W        W33059  20.749  13.817   0.808  0.1849  0.4768 -0.0538
    1W        W33060  23.609  27.892   1.406  0.1116 -0.1078 -0.2671
    1W        W33061   6.269  21.916   7.625 -0.2159  0.1232  0.0748
    1W        W33062   9.687  10.347   2.372  0.2603  0.0965  0.0093
    1W        W33063   0.062  21.983   0.294 -0.1521 -0.0237  0.2425
    1W        W33064  11.923  17.562   3.350 -0.2718  0.1389  0.0339
    1W        W33065   8.918  12.919   0.934 -0.0099 -0.2670  0.1102
    1W        W33066  23.957  14.689   8.956  0.0412 -0.0569  0.0588
    1W        W33067   4.674  16.815   1.493  0.3011  0.1068 -0.1571
    1W        W33068  15.790   8.069   3.702  0.0750  0.1969  0.0789
    1W        W33069  26.295   7.309   2.717 -0.1487  0.3044 -0.0430
    1W        W33070  13.897   3.942   2.686 -0.0955  0.1155  0.0031
    1W        W33071   3.715   0.211   8.819  0.0393 -0.0753 -0.0202
    1W        W33072   4.153   1.336   2.009 -0.0389 -0.0615 -0.2153
    1W        W33073   5.655  14.038   2.370 -0.0286  0.2943  0.2511
    1W        W33074   7.153  15.002   9.756 -0.2322  0.0539  0.1006
    1W        W33075  13.668  17.741   2.877 -0.3039  0.2699 -0.2879
    1W        W33076  22.606   5.558   7.978 -0.1322  0.2060 -0.1260
    1W        W33077  18.351  21.550   8.435 -0.0864 -0.0432  0.0725
    1W        W33078  15.905  21.825   0.070  0.1877  0.4365 -0.1207
    1W        W33079  23.609  27.278  10.275  0.3756 -0.0995  0.2377
    1W        W33080  25.855   5.316   9.007  0.2390  0.2987  0.0739
    1W        W33081  10.873   8.850   0.481 -0.1957 -0.0645  0.2212
    1W        W33082  21.446  23.057   8.522 -0.1566  0.3287 -0.0093
    1W        W33083   8.711  13.739   8.691  0.3965 -0.0609 -0.1018
    1W        W33084   4.524  13.819   7.669 -0.0805 -0.2213  0.1811
    1W        W33085   3.640   7.719   1.690 -0.0164  0.0935  0.2116
    1W        W33086   4.770  11.335   0.923  0.5485  0.0784 -0.0968
    1W        W33087  23.881   3.272   9.554  0.1960 -0.3101  0.4807
    1W        W33088   4.907   1.460   0.797  0.0449 -0.0596  0.0086
    1W        W33089   0.795  17.918   3.179  0.0430  0.1419  0.0919
    1W        W33090  27.785  15.424   6.535 -0.1845  0.0368 -0.2785
    1W        W33091  18.817  21.332   1.542 -0.0766  0.1780 -0.3010
    1W        W33092   1.261  23.859   8.331 -0.0680  0.0963  0.2763
    1W        W33093  23.108  27.879   9.489 -0.2089  0.4206 -0.1882
    1W        W33094  27.374  17.211   1.016 -0.0462  0.0649  0.4682
    1W        W33095  14.516  16.704  10.363 -0.2570  0.1145  0.2727
    1W        W33096  26.627  27.407   1.558  0.2107  0.4306  0.0356
    1W        W33097   9.614  26.455   6.929  0.0387  0.2938  0.0180
    1W        W33098  15.349  24.486   9.350 -0.0657  0.1303 -0.0643
    1W        W33099   1.902  22.415   0.911 -0.1254  0.2851 -0.0326
    1W        W33100   5.037  12.412   9.518 -0.1948 -0.1490 -0.0641
    1W        W33101   0.011   3.312   1.950 -0.1233  0.2660 -0.1603
    1W        W33102   6.077   7.154   8.519 -0.3025 -0.0557  0.0398
    1W        W33103  20.594  18.576   0.244  0.2914  0.0984  0.1939
    1W        W33104   9.057  19.518   3.164  0.2357 -0.2670  0.0236
    1W        W33105  14.789   3.420   9.626 -0.2312 -0.0222  0.2454
    1W        W33106  16.188   1.941  10.300 -0.1433  0.0818  0.0971
    1W        W33107  14.066  12.830   9.691  0.1416 -0.2372 -0.2321
    1W        W33108  25.801  19.219   9.715 -0.1689 -0.1399  0.2018
    1W        W33109  18.841   7.138   8.124 -0.3740 -0.0283  0.2481
    1W        W33110  24.417  10.355   9.833 -0.2006  0.0590 -0.0670
    1W        W33111   2.264  11.272   8.704 -0.0615 -0.1435  0.2137
    1W        W33112   8.441  17.347   8.789 -0.4838  0.0763 -0.0376
    1W        W33113  21.505  16.202   1.908  0.2408 -0.1588 -0.0158
    1W        W33114  19.408   1.494   8.350 -0.0151  0.1308 -0.3496
    1W        W33115  26.790   6.528   7.068  0.1454  0.1025  0.2369
    1W        W33116   1.091  24.529   6.285  0.2220 -0.4000 -0.0455
    1W        W33117  22.067   4.282   0.433 -0.1117  0.0624 -0.0817
    1W        W33118   2.946  12.022   8.527 -0.0190 -0.0264  0.0284
    1W        W33119  12.237   8.184   2.792  0.2348  0.1051 -0.1777
    1W        W33120  10.552  12.291   0.155  0.0691  0.2675  0.0335
    1W        W33121  27.851  22.769   8.097 -0.2097  0.0747  0.2635
    1W        W33122   4.079  18.547   7.372  0.2243 -0.2669 -0.2511
    1W        W33123   0.791  27.646   7.101  0.2199  0.4007  0.0147
    1W        W33124  10.880   5.594   9.284  0.0440 -0.1301  0.0925
    1W        W33125   9.824   9.409   9.196  0.0111  0.0156  0.0786
    1W        W33126  23.460  11.079   7.336  0.0035  0.1741  0.1465
    1W        W33127  12.454  12.377   2.323 -0.2969 -0.2204 -0.0003
    1W        W33128   6.301  24.477   0.562 -0.1618 -0.1779 -0.0650
    1W        W33129  17.883   6.907   9.930 -0.0632 -0.0745 -0.0275
    1W        W33130  10.108  27.987   8.340 -0.1006 -0.1028  0.3889
    1W        W33131   9.070   1.493   8.667  0.1960  0.0778 -0.0624
    1W        W33132  18.846  18.368   1.822  0.2203 -0.0511 -0.1319
    1W        W33133   1.119  18.854   0.165  0.1948  0.1836 -0.2475
    1W        W33134   7.307   3.406   1.138  0.2199 -0.1202 -0.1220
    1W        W33135  17.885   6.573   3.439  0.0728  0.4094 -0.0325
    1W        W33136  10.023  24.261   1.512  0.0342 -0.2372  0.2452
    1W        W33137  12.253  19.960   8.586  0.1981 -0.0391 -0.3427
    1W        W33138   0.242  25.527   8.146 -0.0223 -0.1131 -0.0566
    1W        W33139  23.806  15.762   7.802 -0.0960  0.0114  0.3704
    1W        W33140  25.261  20.297   8.525  0.1203 -0.2513 -0.1091
    1W        W33141  13.806  16.409   3.707 -0.1010  0.0579  0.1614
    1W        W33142  17.474   5.707   0.032  0.0184 -0.0638 -0.4059
    1W        W33143   1.236   4.878   6.171 -0.2045  0.0998  0.1986
    1W        W33144  16.083  11.353   2.003  0.0784  0.1149  0.0724
    1W        W33145  26.761   8.723   1.531  0.2945 -0.0683  0.0425
    1W        W33146  20.544  25.650   0.207  0.2092 -0.2350  0.1252
    1W        W33147  16.835  16.980   0.462 -0.0903 -0.1932 -0.2042
    1W        W33148  23.552   4.062   9.365  0.1171 -0.0747 -0.1180
    1W        W33149  25.146  20.865   7.146  0.1469 -0.1484  0.0685
    1W        W33150  17.122  19.159   0.627 -0.3591  0.1730  0.3051
    1W        W33151  22.927  20.306   9.736  0.0184 -0.0500  0.2088
    1W        W33152   8.719  12.817   3.296  0.3069 -0.0523 -0.1893
    1W        W33153   2.628  16.923   8.874 -0.1269 -0.1184 -0.0960
    1W        W33154  13.177  17.795   2.519 -0.0875 -0.1165  0.1956
    1W        W33155  12.161   4.916   8.735  0.1720 -0.1314 -0.0914
    1W        W33156  17.766  27.913  10.332 -0.1698 -0.1725  0.1430
    1W        W33157   4.182  25.675  10.263 -0.1499 -0.3911 -0.0073
    1W        W33158  25.800  22.607   0.518  0.2901  0.1075  0.0554
    1W        W33159  23.876   6.503  10.335  0.0361  0.1341 -0.5647
    1W        W33160  26.455  24.819   9.387  0.4212 -0.0407 -0.4862
    1W        W33161   2.827  18.521   7.029 -0.0941 -0.1067 -0.1780
    1W        W33162  17.355  26.391   0.293 -0.2273 -0.2505  0.2855
    1W        W33163  28.127   0.867   8.383  0.1467  0.0396 -0.1430
    1W        W33164  25.578   2.890   2.242 -0.1369 -0.1399 -0.1126
    1W        W33165  17.382  25.455   1.156 -0.1450 -0.2155 -0.1129
    1W        W33166  23.531   5.237   8.499 -0.0261  0.0003 -0.1493
    1W        W33167  26.397   4.156   2.200  0.4577  0.0586 -0.2212
    1W        W33168  23.160  23.528   7.677  0.1101  0.0912 -0.1726
    1W        W33169  14.228   8.727   0.914  0.1482  0.0822  0.2246
    1W        W33170   3.304   4.417   1.349  0.0181 -0.2594 -0.0088
    1W        W33171  14.191  25.105   8.166  0.2915 -0.0734 -0.1009
    1W        W33172   3.351   3.199   1.013 -0.1376  0.3774 -0.0720
    1W        W33173  24.833  25.921   1.169 -0.0984 -0.0841  0.0407
    1W        W33174  20.667  12.580   7.890  0.1481  0.0662  0.1569
    1W        W33175   5.867  25.248   1.747 -0.1979  0.1620 -0.1853
    1W        W33176   1.256   1.982   0.963  0.4555 -0.0782  0.0108
    1W        W33177  12.680   6.223   9.317 -0.1354 -0.3051 -0.1698
    1W        W33178  28.089   5.774   8.646  0.0910 -0.2486 -0.0924
    1W        W33179   7.672  13.529   9.746  0.0339  0.0991  0.0195
    1W        W33180  22.248  21.021   0.996 -0.1066 -0.3422  0.2915
    1W        W33181   6.544   1.214   1.709  0.0059  0.1235 -0.3330
    1W        W33182   7.446   0.367   8.956 -0.0638 -0.3189  0.2794
    1W        W33183  28.093  27.344   1.516 -0.1998  0.0966  0.1769
    1W        W33184  15.917  15.147   9.799  0.1830 -0.0010 -0.1969
    1W        W33185  18.733   5.081   9.700 -0.1011  0.2953  0.2151
    1W        W33186   4.130  10.938   0.428 -0.2702 -0.1198 -0.0422
    1W        W33187  26.039  12.000   9.990 -0.0578  0.1708  0.1450
    1W        W33188   7.223   6.153   8.634  0.1620 -0.0844 -0.1205
    1W        W33189  18.037   5.725   7.280  0.0526 -0.3333 -0.0534
    1W        W33190  15.358  11.606   9.710  0.0826 -0.1354  0.1527
    1W        W33191   5.126  15.143   2.832 -0.2273  0.0441  0.0170
    1W        W33192  16.499   0.782   2.892 -0.2667 -0.2347  0.1238
    1W        W33193   4.391  23.225   8.577 -0.2645  0.0323  0.3596
    1W        W33194   4.606  11.677   2.343 -0.0943  0.2120 -0.1762
    1W        W33195  11.505  15.603   8.925 -0.0947  0.0191 -0.2248
    1W        W33196  25.813  10.240   1.740  0.2465  0.0621  0.1528
    1W        W33197  18.092  25.518   7.963 -0.2388  0.1983 -0.1140
    1W        W33198  22.151  16.547   2.621  0.0300  0.0791 -0.0421
    1W        W33199  19.627  26.054   3.208  0.0333 -0.2474 -0.2118
    1W        W33200   0.762  10.213   2.808 -0.2754 -0.0967 -0.0931
    1W        W33201   8.583  13.064   2.276  0.0134 -0.1600 -0.0880
    1W        W33202  11.112  10.204   0.539 -0.5601  0.1021  0.0467
    1W        W33203  13.580   9.663  10.108  0.1838 -0.1951  0.0678
    1W        W33204  25.427   0.586   2.068 -0.0380  0.4307  0.1507
    1W        W33205  21.180   6.955   7.804  0.3099 -0.1265 -0.2839
    1W        W33206  21.713   8.760   8.246  0.2180 -0.1458  0.1268
    1W        W33207   7.532  18.495   7.178 -0.0740 -0.0512 -0.0035
    1W        W33208  26.670   3.641   0.974  0.2483 -0.0501 -0.2322
    1W        W33209  23.514  16.689   1.841  0.0713  0.1368  0.1122
    1W        W33210   6.830   9.651   2.048  0.1809 -0.1513 -0.2319
    1W        W33211  16.581   1.100   8.516  0.0958 -0.1682 -0.1044
    1W        W33212   2.332   2.717   1.001  0.1401  0.1911  0.1593
    1W        W33213   6.628  22.456   9.524 -0.1698  0.0470 -0.0214
    1W        W33214   8.405   5.331   2.569  0.1118  0.0965 -0.0726
    1W        W33215   3.146  19.494   9.563  0.1383  0.0046  0.2059
    1W        W33216   6.797   4.145   1.565  0.0470  0.0226 -0.1020
    1W        W33217   0.561  16.222   7.203  0.1418  0.2967  0.1336
    1W        W33218   4.597  21.281   0.027  0.0749  0.1760 -0.0864
    1W        W33219   0.945  17.460   7.386  0.0155 -0.1666 -0.0662
    1W        W33220  12.233   6.138   9.068  0.0381 -0.0086  0.2702
    1W        W33221   5.780  16.464   3.309  0.0414 -0.1868  0.0309
    1W        W33222  18.337  14.514   0.990  0.4030 -0.0027  0.2225
    1W        W33223  14.470   8.252   9.310 -0.0555  0.0823  0.3466
    1W        W33224   7.895  11.809   7.592  0.0051  0.1453  0.1087
    1W        W33225   9.886  27.320   1.790 -0.0394 -0.0540 -0.0527
    1W        W33226  23.440   7.518   7.071 -0.1552 -0.1419 -0.2059
    1W        W33227  10.638   0.477  10.350 -0.0365  0.0870 -0.0557
    1W        W33228  12.440   2.862  10.070  0.1618  0.1133  0.1174
    1W        W33229  12.569   8.983  10.303  0.1960  0.1032  0.2608
    1W        W33230   3.452  23.736   2.220  0.0091  0.1150  0.1511
    1W        W33231   6.343  10.435   0.715 -0.0708  0.0443 -0.0069
    1W        W33232  27.667  14.068   8.160  0.2665 -0.1765 -0.1829
    1W        W33233  25.561  18.480   7.711 -0.1830  0.1813  0.0657
    1W        W33234  17.919   1.435   3.240  0.1629 -0.0905  0.2318
    1W        W33235   9.663  14.619   2.703 -0.1766 -0.0477  0.0538
    1W        W33236   4.580  19.630   7.915  0.1718  0.1948 -0.0403
    1W        W33237  15.066  25.850   2.154 -0.0026 -0.0248 -0.0846
    1W        W33238   9.425  11.409   3.021 -0.0762 -0.0932 -0.1411
    1W        W33239  24.736  22.683   2.616  0.1543 -0.2334 -0.2164
    1W        W33240  25.757  22.216   7.803 -0.1187 -0.0206  0.0346
    1W        W33241  16.425   9.116   8.650  0.4622  0.3561 -0.1181
    1W        W33242   5.248  13.530   9.407 -0.0986  0.0472  0.0706
    1W        W33243   7.150  10.678   9.768 -0.1542  0.2001 -0.1913
    1W        W33244  11.636  11.176   1.967 -0.1192 -0.0264 -0.0608
    1W        W33245  25.966  21.167   2.642  0.1369 -0.0168 -0.1647
    1W        W33246  20.755  17.620   3.510 -0.0652  0.3955  0.0282
    1W        W33247  21.004  26.765   2.941  0.2554  0.2195 -0.2717
    1W        W33248   2.660   5.407   6.790  0.1741 -0.0254 -0.1826
    1W        W33249  19.294   9.020   9.908  0.0512 -0.1281 -0.3665
    1W        W33250  18.495   3.096  10.149  0.1481  0.0658 -0.1393
    1W        W33251  23.438  10.289   0.393  0.0012 -0.1904 -0.2206
    1W        W33252  22.614  26.052   0.839 -0.0018  0.1930  0.1292
    1W        W33253   1.616  10.031  10.025 -0.1980  0.1609 -0.0139
    1W        W33254  13.188   5.985   2.578  0.3520 -0.1903  0.2166
    1W        W33255  22.082  14.407   0.880  0.1053  0.2030  0.3442
    1W        W33256  20.957   5.635   8.779  0.2894 -0.3733  0.0546
    1W        W33257  13.955  24.191   0.270 -0.0410 -0.0335  0.4862
    1W        W33258  19.357  27.587   8.895 -0.1461 -0.0741  0.0766
    1W        W33259  22.570   8.040   0.082  0.0194 -0.1325 -0.1362
    1W        W33260  13.228  23.860   2.350 -0.0311 -0.2374 -0.0330
    1W        W33261   9.473  21.081   3.757  0.1449  0.1576  0.0329
    1W        W33262  24.452  25.540   1.086 -0.1745 -0.4557 -0.0488
    1W        W33263   5.129  23.611  10.203 -0.0703  0.3070 -0.1088
    1W        W33264  26.604   5.653   8.400  0.0469  0.0948  0.0023
    1W        W33265   6.030  23.701   1.080 -0.6765 -0.1998 -0.2090
    1W        W33266  11.056  21.170   9.747  0.2181 -0.2612 -0.1400
    1W        W33267  10.176  11.517   0.821  0.1565  0.0897 -0.1128
    1W        W33268  11.038  20.801  10.122  0.2858  0.0047  0.1928
    1W        W33269  24.685  16.225   8.984  0.1794 -0.0050  0.3522
    1W        W33270  25.885  18.039   2.814 -0.2338 -0.4712  0.2723
    1W        W33271   9.162  13.742  10.224 -0.0148 -0.0071 -0.1037
    1W        W33272  18.935   3.943   8.829 -0.0611 -0.0786  0.1534
    1W        W33273  12.881  10.749   2.087  0.2029  0.0537  0.0158
    1W        W33274  10.983  10.555   3.303  0.1611 -0.1434  0.0519
    1W        W33275   2.457  16.593   0.199  0.0315  0.0244 -0.1999
    1W        W33276   7.109  26.414   1.366 -0.0113  0.1450  0.2667
    1W        W33277   9.457  27.263   9.534 -0.3974  0.2321 -0.0648
    1W        W33278   4.270  13.399   1.870  0.2153 -0.0224 -0.0348
    1W        W33279  27.691   6.292   6.699 -0.1706  0.2552 -0.0912
    1W        W33280  15.166  21.763   8.470  0.1524  0.4157 -0.0010
    1W        W33281   2.912  17.335   8.191  0.0869  0.0851 -0.0931
    1W        W33282  18.278   7.517   0.865  0.0142 -0.5574 -0.2066
    1W        W33283   2.381  13.032   9.430  0.0606  0.1222  0.0617
    1W        W33284  19.586  26.423   0.579 -0.1489  0.1781 -0.3306
    1W        W33285  24.526   6.720   9.355  0.4303 -0.0212 -0.3062
    1W        W33286  20.922  10.954  10.325  0.2430 -0.2933  0.1004
    1W        W33287  23.956  27.451   1.110 -0.0046  0.2887 -0.0702
    1W        W33288  12.403   3.897   3.285  0.3275 -0.3448 -0.1033
    1W        W33289  23.660  26.570   9.118  0.0709  0.0221 -0.1301
    1W        W33290   3.162  24.705   7.527 -0.1289  0.2451  0.1338
    1W        W33291   6.089  26.922   9.560 -0.2084  0.0148 -0.3718
    1W        W33292   7.838  13.442   2.476  0.0719  0.0737 -0.2747
    1W        W33293  14.053  23.285   8.822 -0.1734  0.2184  0.0041
    1W        W33294   6.182  25.815   0.209  0.2012 -0.2108  0.2959
    1W        W33295   1.554  21.768   9.856  0.0745 -0.2093  0.2080
    1W        W33296  19.247  15.128   2.265 -0.1318 -0.1164  0.0624
    1W        W33297   6.641  22.270   7.754 -0.1143 -0.2242  0.2364
    1W        W33298   3.848   3.297   2.324 -0.1241  0.0782  0.2870
    1W        W33299   6.246   5.871   1.219 -0.2073  0.3205 -0.0152
    1W        W33300  20.432  16.868   3.089  0.2347 -0.1045  0.2967
    1W        W33301   9.200  23.974   1.738 -0.2564 -0.1243  0.0812
    1W        W33302  10.687   8.243   2.665 -0.2100  0.1135  0.0136
    1W        W33303  16.163  20.772  10.339 -0.2123 -0.0629  0.2957
    1W        W33304  13.417  10.561   8.267  0.2279  0.0696  0.0984
    1W        W33305   5.216  18.368   2.210 -0.2657 -0.1935 -0.0510
    1W        W33306  22.180  25.708   9.057  0.0159  0.0826  0.1698
    1W        W33307   8.636  12.093   8.156  0.0684 -0.0075  0.0591
    1W        W33308  25.193  20.799   0.305  0.1696 -0.0410 -0.1255
    1W        W33309  21.603   4.930   9.288 -0.1354  0.0955  0.2261
    1W        W33310  26.273  20.729   8.488  0.0813 -0.1963  0.2675
    1W        W33311  17.456  18.358   7.662 -0.0542 -0.0392  0.0029
    1W        W33312   6.244   1.975   8.712 -0.0943  0.0008  0.1090
    1W        W33313   4.798  19.512   9.455  0.1370 -0.0606  0.4028
    1W        W33314  16.985  11.748   1.573 -0.2338 -0.0502 -0.1055
    1W        W33315  21.128  16.260   9.582 -0.4072 -0.3240  0.0159
    1W        W33316   1.725   3.215   9.792 -0.2243 -0.1841  0.1596
    1W        W33317   8.016  27.524  10.033  0.4433  0.0282 -0.1882
    1W        W33318  24.394   8.948   0.113 -0.1647 -0.0649  0.0466
    1W        W33319  25.706   7.284   0.156 -0.0571  0.1051  0.1303
    1W        W33320  11.647  21.494   3.000  0.1497 -0.3738 -0.1384
    1W        W33321   1.794  22.997   0.826 -0.0387 -0.0481  0.0715
    1W        W33322  22.302  11.837   9.318  0.1362  0.0550  0.2274
    1W        W33323  16.432   3.002   9.645 -0.1215  0.2765 -0.2455
    1W        W33324  15.214  24.866   9.029  0.1769 -0.0382 -0.1648
    1W        W33325   1.172  14.300   2.160  0.2833  0.0409  0.0482
    1W        W33326   2.247  12.093   7.559  0.0654  0.0167  0.1634
    1W        W33327  10.112  13.079   9.357  0.1100  0.2060  0.3236
    1W        W33328   9.335   6.572   3.386 -0.0347 -0.0256 -0.0184
    1W        W33329  24.382  25.516   3.834  0.2493 -0.1236 -0.2869
    1W        W33330  22.325   9.514   1.444 -0.1053  0.4147  0.1223
    1W        W33331  25.839  15.702   0.334 -0.1138 -0.0578  0.2084
    1W        W33332  13.261  23.079   9.661  0.1296 -0.0405  0.3238
    1W        W33333  20.617  10.076   2.320  0.1013  0.1612  0.0417
    1W        W33334  10.425  24.404   8.861 -0.2027  0.2546 -0.2407
    1W        W33335   2.256  12.574   2.364  0.0534  0.0630 -0.2738
    1W        W33336  21.321  15.837   9.768 -0.0570  0.0870 -0.0429
    1W        W33337  10.721  14.048   0.521 -0.0838  0.0747  0.2495
    1W        W33338   6.991  20.714   0.683 -0.0027  0.2639  0.1603
    1W        W33339  26.386  11.429   2.954  0.2122  0.0866 -0.1932
    1W        W33340  25.481   0.530   2.612  0.2838 -0.2000 -0.2880
    1W        W33341  14.021  25.015   9.599 -0.1215 -0.2391 -0.0991
    1W        W33342   5.966  25.112   2.231  0.0588 -0.1600 -0.0309
    1W        W33343   4.040  14.560   2.648  0.0241  0.1542 -0.2603
    1W        W33344  10.117  23.400   2.857 -0.3715 -0.2800  0.1303
    1W        W33345   7.611  16.645  10.279 -0.0381 -0.1158 -0.0360
    1W        W33346   2.775  21.079   7.631  0.1090 -0.0109 -0.0223
    1W        W33347  25.771  15.355   8.164  0.0445 -0.2193  0.1521
    1W        W33348   9.038  27.611   2.173  0.0158 -0.1575 -0.1315
    1W        W33349  23.470   8.775   9.979 -0.0225  0.0695 -0.1302
    1W        W33350   1.643  28.076   0.312  0.0481  0.0552 -0.1467
    1W        W33351  17.342   1.027   4.037  0.0636  0.1352  0.2814
    1W        W33352   3.843   9.285   7.617 -0.0837  0.0600  0.1827
    1W        W33353   4.479  17.871   8.574  0.3301  0.0541  0.2768
    1W        W33354   5.640   2.986   1.326 -0.0168  0.0607 -0.1196
    1W        W33355  22.220  26.907   0.487  0.2453 -0.1149  0.1293
    1W        W33356   2.676  18.003   7.384 -0.0257 -0.2165 -0.0101
    1W        W33357   0.960   3.365   1.381  0.0466  0.0565 -0.2688
    1W        W33358   3.077   2.050   9.064 -0.0619 -0.1729 -0.0007
    1W        W33359   6.366   6.464   1.788  0.4766  0.0167 -0.0572
    1W        W33360  25.012   8.936   0.926 -0.1367 -0.2854 -0.1443
    1W        W33361  10.712  20.578   9.319 -0.0052 -0.0677 -0.0345
    1W        W33362   0.560  25.268   7.059 -0.1821 -0.0838  0.3688
    1W        W33363  23.077  21.024   0.942 -0.0204  0.0725 -0.2007
    1W        W33364  22.757  18.646   1.333 -0.1494  0.3026 -0.1633
    1W        W33365  17.514   0.896   2.088  0.0383  0.2453  0.0693
    1W        W33366   8.983   5.811   1.122  0.0708  0.0288 -0.4688
    1W        W33367  23.505  19.212   1.954  0.1451  0.0579  0.1342
    1W        W33368  11.468   8.209   2.636 -0.0094  0.1473  0.1340
    1W        W33369  26.549  23.455   1.639  0.0613 -0.1345  0.1265
    1W        W33370   3.215  27.700  10.070  0.0060  0.3560 -0.1340
    1W        W33371  24.402  20.461   0.442 -0.0883  0.1859  0.1213
    1W        W33372  18.134  12.715   9.823 -0.1291  0.0663  0.0228
    1W        W33373  22.082  25.915   7.594 -0.1623  0.0666 -0.1663
    1W        W33374   8.577  11.491   0.046 -0.2936  0.0430  0.1149
    1W        W33375   4.599  10.421   7.998  0.1192 -0.1159 -0.2248
    1W        W33376  17.499  12.712   8.116  0.2265 -0.0570 -0.2738
    1W        W33377   3.836  21.349   8.818  0.2393 -0.1400  0.0776
    1W        W33378   8.517  14.375   2.393 -0.2741 -0.0736  0.0470
    1W        W33379   1.394  16.857   2.553  0.1872  0.2057 -0.1351
    1W        W33380   5.936  24.795   0.820  0.0621 -0.0421 -0.0693
    1W        W33381   2.274  17.774   7.976  0.0851 -0.0885 -0.1100
    1W        W33382   3.009  19.108   7.620 -0.2300  0.0200 -0.0449
    1W        W33383   4.921  26.129   7.087 -0.2647 -0.0565  0.1685
    1W        W33384   3.635  26.754   8.305  0.2746 -0.0667 -0.2048
    1W        W33385  28.027  26.695   1.509 -0.3783  0.1100  0.0578
    1W        W33386   6.906  18.013   0.324 -0.1151 -0.1225  0.1686
    1W        W33387  25.991  18.954   9.216  0.2801 -0.0547 -0.2054
    1W        W33388   8.715  10.210   8.892  0.5351 -0.1593  0.0203
    1W        W33389   3.883  10.473   1.770  0.4071 -0.3317 -0.0718
    1W        W33390   2.806  25.418   8.651 -0.0966  0.0689 -0.0815
    1W        W33391  18.649  20.363   8.174  0.2680  0.1320  0.0548
    1W        W33392   1.379  14.144   7.316 -0.1233 -0.1705 -0.1488
    1W        W33393  24.193  21.625   9.302  0.0662  0.0874 -0.0404
    1W        W33394  26.543  20.667   8.931 -0.0975 -0.1020  0.0437
    1W        W33395  21.191   2.938   1.268 -0.0672  0.2518 -0.1515
    1W        W33396  24.667  17.940   0.532 -0.4283  0.0629  0.2305
    1W        W33397   0.930  23.717   8.720  0.0573  0.0031  0.1219
    1W        W33398  26.015  25.697   2.246  0.0692  0.0895 -0.0289
    1W        W33399  11.758   7.912   2.371 -0.2599 -0.2365  0.2395
    1W        W33400   1.739  17.865   3.047  0.0818 -0.2229  0.1038
    1W        W33401   3.828   5.379   9.267  0.0354 -0.2898  0.1212
    1W        W33402  12.567   1.305   1.656  0.0582 -0.1941  0.0326
    1W        W33403  28.046  16.119   0.854  0.1548 -0.0709 -0.0522
    1W        W33404   0.901  13.193   0.182  0.0763  0.5219 -0.2189
    1W        W33405   5.626  11.546   9.440  0.0889 -0.3615  0.0939
    1W        W33406  24.522  27.731   0.480  0.1154 -0.3403 -0.0938
    1W        W33407   1.546  19.761   0.820  0.0491  0.2260  0.2338
    1W        W33408   2.532  16.637   8.467  0.0287 -0.2299 -0.3291
    1W        W33409   3.056  23.117   2.461 -0.0205 -0.0974 -0.1903
    1W        W33410  28.052   4.061   0.667 -0.1708  0.1847  0.0953
    1W        W33411  10.531   4.743   0.673 -0.1506 -0.4617  0.0099
    1W        W33412  17.638   0.952   8.191  0.3686  0.2324 -0.2332
    1W        W33413   9.973  14.658   8.291  0.3763  0.0432 -0.3421
    1W        W33414  26.497   7.782  10.281 -0.0423  0.1389 -0.0239
    1W        W33415  17.298  10.454   9.873  0.0769 -0.2616 -0.2889
    1W        W33416  21.925  22.160   0.375 -0.3015  0.2458 -0.1254
    1W        W33417  26.603  10.567   1.951 -0.1765 -0.2246  0.0128
    1W        W33418   8.985   7.365   2.310  0.0612  0.3546  0.3971
    1W        W33419   3.389  26.760   8.744 -0.1516 -0.0801 -0.0783
    1W        W33420   1.829  23.189   9.289  0.1430 -0.1076 -0.1046
    1W        W33421   4.104   8.440   7.733  0.1072  0.1086 -0.3655
    1W        W33422  17.476   0.568   1.747 -0.0426  0.0075  0.0741
    1W        W33423  12.974  23.456   9.731  0.1835  0.0948  0.0388
    1W        W33424   1.911  22.340   9.764  0.0023 -0.1825  0.3785
    1W        W33425  14.162  23.219   2.800  0.0507 -0.3824 -0.1280
    1W        W33426  26.332  19.374   9.218 -0.0536  0.0997 -0.0552
    1W        W33427  11.667  23.873   9.919  0.1000 -0.1604 -0.0932
    1W        W33428   0.800   1.426   8.344 -0.1378  0.0520 -0.0712
    1W        W33429   5.428  10.501   6.666 -0.2496  0.0920  0.0078
    1W        W33430  23.275  12.693   9.052 -0.0257 -0.1626  0.0016
    1W        W33431  21.623  19.138   2.844 -0.2017  0.0751 -0.0357
    1W        W33432   8.512  22.381   9.447 -0.0515  0.0794  0.0636
    1W        W33433  16.399  20.128   3.017  0.0272 -0.1069 -0.1228
    1W        W33434  22.791   9.685   2.225 -0.0838  0.0553 -0.1174
    1W        W33435  26.659   3.999   6.870 -0.1933  0.0112 -0.1335
    1W        W33436   3.404  14.390   2.143  0.1053 -0.0853 -0.1893
    1W        W33437  20.191  24.811   2.797 -0.0725 -0.0704 -0.1986
    1W        W33438   2.404   9.783   9.253 -0.0134 -0.3970  0.1702
    1W        W33439   2.187   9.048   2.097  0.1172 -0.0522 -0.3372
    1W        W33440   7.255  12.542   1.499 -0.0208  0.0652  0.1902
    1W        W33441  17.641   8.002   9.261  0.0070 -0.0149 -0.0513
    1W        W33442   6.207   4.131   2.091 -0.1357  0.2029 -0.1422
    1W        W33443  12.463  22.026   7.955 -0.1070 -0.0010 -0.1514
    1W        W33444  12.714   3.269   2.165  0.3457  0.0005  0.0490
    1W        W33445  14.821  26.925   7.488  0.3736  0.0987  0.3206
    1W        W33446  25.187   7.373   0.365 -0.0011  0.2048 -0.0343
    1W        W33447  26.307   8.659   7.796 -0.1041 -0.1168  0.1496
    1W        W33448  27.020   4.925   0.134  0.0528  0.2109 -0.2320
    1W        W33449  23.801  24.823   9.049  0.1237  0.0505 -0.1885
    1W        W33450  20.075   9.158   7.606 -0.0297  0.3086 -0.2683
    1W        W33451   9.645  25.801  10.353  0.2398 -0.2413  0.0200
    1W        W33452   4.615  21.928   1.886  0.0473 -0.2096 -0.0712
    1W        W33453  20.112  26.624   8.235  0.0904 -0.1237 -0.1268
    1W        W33454   9.523  26.781   9.356 -0.3768  0.0809 -0.0213
    1W        W33455  18.429  24.244   8.922 -0.1636  0.3669 -0.0562
    1W        W33456  22.020  27.054   9.730 -0.1243  0.3742  0.0203
    1W        W33457  10.366   8.404   8.104  0.0993  0.2105  0.0787
    1W        W33458   5.333  18.768   3.131  0.0348  0.1811  0.1336
    1W        W33459   7.405  11.456   9.402  0.0038 -0.1138  0.0320
    1W        W33460  26.501  22.221   9.891 -0.1141 -0.1385  0.1383
    1W        W33461  27.955   9.622  10.076 -0.0726 -0.0498 -0.1378
    1W        W33462   7.120   6.932   0.657  0.0639  0.1048 -0.0027
    1W        W33463  12.416  19.848  10.349  0.2858 -0.0184 -0.0353
    1W        W33464  19.134  25.617   8.657 -0.2423  0.1240 -0.2565
    1W        W33465  19.643  21.900   7.647 -0.1105  0.0998 -0.1347
    1W        W33466   1.664  10.727   2.613 -0.0904  0.1220  0.2800
    1W        W33467  27.211   5.843   1.272  0.0524  0.2684 -0.1514
    1W        W33468   8.299  22.284  10.288 -0.2359  0.0678  0.0466
    1W        W33469  19.425  21.012   2.629 -0.0627 -0.0984  0.0843
    1W        W33470  19.314  14.297   2.521 -0.0999  0.2683  0.2455
    1W        W33471  26.084  10.668   7.073  0.1780 -0.0897 -0.2485
    1W        W33472  27.446  20.267   7.154  0.2004  0.0534  0.0840
    1W        W33473   2.287   3.954   7.398  0.2143  0.0481  0.0627
    1W        W33474  26.761  20.055   7.200  0.3312 -0.1083  0.0645
    1W        W33475   7.598   9.473   0.207 -0.2701  0.1344  0.0533
    1W        W33476  23.440   9.909   2.054 -0.0407  0.2184  0.0191
    1W        W33477   4.074  15.285   9.465 -0.0548 -0.0787  0.0102
    1W        W33478   2.839   8.938   7.687  0.3094 -0.4112  0.1200
    1W        W33479  19.209   1.821   0.483 -0.0455 -0.0439  0.1470
    1W        W33480   7.485  14.768   8.411 -0.1490 -0.2551 -0.0637
    1W        W33481  19.244   9.420   8.222  0.0208  0.0956 -0.0554
    1W        W33482   5.734   0.415   6.664 -0.4492 -0.1464  0.0339
    1W        W33483   1.760  21.958   9.266 -0.0645  0.0454 -0.0150
    1W        W33484  25.221   9.542   9.186 -0.2102 -0.5854 -0.2977
    1W        W33485  13.984   7.273   2.558 -0.0018 -0.0690  0.1079
    1W        W33486  26.072  17.541   1.479  0.1622  0.1420 -0.0813
    1W        W33487   0.120  12.576   6.841  0.0962  0.1664  0.2637
    1W        W33488   2.256   3.327   2.129  0.1713 -0.2021  0.1821
    1W        W33489  22.157   0.860  10.213  0.0614  0.0777 -0.1942
    1W        W33490   7.382  24.233   1.921 -0.0939  0.1573 -0.3132
    1W        W33491  26.117  12.853   8.068 -0.1496 -0.0439  0.5728
    1W        W33492   5.086  18.861   2.133 -0.0683 -0.0546 -0.1012
    1W        W33493  27.242   7.955   9.051 -0.2495 -0.1233  0.1284
    1W        W33494  28.063   6.229   9.450 -0.0200 -0.3100  0.1290
    1W        W33495  24.578   3.840   9.337 -0.1531  0.3655  0.1519
    1W        W33496   9.677  27.871   3.832  0.0454 -0.0421 -0.0067
    1W        W33497  13.393   1.679   7.625  0.2345 -0.0753 -0.1210
    1W        W33498  13.759   9.654   8.041 -0.0904  0.0420 -0.0266
    1W        W33499  22.887  17.131   1.367  0.1812  0.1857  0.3315
    1W        W33500  26.882  23.551   7.039  0.1843 -0.2399  0.0198
    1W        W33501   7.621   5.798   8.735  0.0424  0.0358  0.1240
    1W        W33502   2.973  17.218   0.274 -0.4697 -0.0912  0.1248
    1W        W33503   8.105   9.174   2.021  0.0361  0.2426 -0.1401
    1W        W33504   1.373  25.681   1.296 -0.0989  0.1131 -0.0142
    1W        W33505  28.042   7.877   1.245  0.1244  0.0797 -0.0775
    1W        W33506  12.167  15.877   4.422 -0.1377 -0.2670  0.1126
    1W        W33507   3.848  24.349   8.331  0.1740  0.0589  0.1574
    1W        W33508  18.152  23.097   2.986  0.3924  0.2845 -0.3189
    1W        W33509  16.916  23.432   1.700  0.0211  0.3006  0.3059
    1W        W33510   0.623   2.695   7.536 -0.2540 -0.3552 -0.2131
    1W        W33511  15.201  11.697   1.323 -0.2611  0.0069 -0.2571
    1W        W33512  13.379   3.628   8.172  0.3392 -0.0373 -0.1307
    1W        W33513  24.668   3.369   1.063  0.0306 -0.1581  0.3236
    1W        W33514  11.356   0.107   0.377  0.1415 -0.1171 -0.3837
    1W        W33515  10.071  10.414   0.878  0.0614 -0.0717  0.0457
    1W        W33516   8.950  27.225   0.852 -0.1033 -0.0577  0.0253
    1W        W33517  13.122   0.919   7.872 -0.0032 -0.1623  0.2422
    1W        W33518   1.502  20.891   1.913  0.0568  0.0308  0.3798
    1W        W33519  12.057  18.675   8.726  0.1844 -0.0364  0.1402
    1W        W33520  12.788  22.189   2.554  0.0345  0.0351  0.0364
    1W        W33521  14.593   7.698   7.785 -0.2847 -0.0212  0.1672
    1W        W33522  12.691   6.911   2.951  0.1854 -0.1450  0.0301
    1W        W33523   6.330   8.646   0.805 -0.0418 -0.0995  0.0049
    1W        W33524  15.086   3.890   3.812 -0.1012 -0.2880 -0.4740
    1W        W33525  16.570  19.891   9.562  0.1024 -0.0432 -0.0731
    1W        W33526  18.861  26.465   3.034 -0.0347  0.2491 -0.3939
    1W        W33527   9.323  25.350  10.350 -0.0345  0.1411 -0.0557
    1W        W33528  25.949  21.213   2.093 -0.1081  0.2095 -0.3303
    1W        W33529   1.412   7.325   0.867  0.1800  0.2638  0.1452
    1W        W33530  10.946  16.869   9.930  0.0982 -0.0808  0.0344
    1W        W33531   2.818   2.834   0.977  0.6154  0.0005 -0.0806
    1W        W33532   5.390  23.638   8.684 -0.2810 -0.2643 -0.1053
    1W        W33533  16.122  10.840   8.889 -0.1317 -0.0923 -0.0037
    1W        W33534  23.906  15.968   9.275 -0.1581 -0.2651  0.1722
    1W        W33535   0.505  24.052   1.905 -0.2037  0.1426  0.1731
    1W        W33536   2.302  21.142   9.876  0.1319  0.1204  0.2136
    1W        W33537  24.873  24.756   3.581  0.3219  0.0902  0.2050
    1W        W33538   9.911   6.793   9.247  0.2118  0.0510 -0.1501
    1W        W33539  13.940  22.061   0.063 -0.3511 -0.1111  0.2601
    1W        W33540  11.209   6.869   1.548 -0.2557  0.0221  0.0953
    1W        W33541  19.908  11.831   1.917  0.4432 -0.1228 -0.0368
    1W        W33542  22.349  12.442   1.121 -0.0444  0.3390  0.1123
    1W        W33543   2.333  12.215   9.439  0.2015 -0.1854 -0.2500
    1W        W33544   8.088  18.281   8.611 -0.0713  0.2980 -0.1001
    1W        W33545  27.379  16.481   8.641  0.0897  0.1708 -0.0334
    1W        W33546  21.980  26.588   9.537 -0.1116  0.0872  0.0475
    1W        W33547   6.062  21.464   2.586 -0.0322  0.0304 -0.2943
    1W        W33548   1.749  21.473   1.105  0.0407 -0.0310  0.1290
    1W        W33549   8.101  16.468   2.272 -0.2586 -0.1504 -0.0065
    1W        W33550  20.481  10.953   2.476 -0.0218 -0.1965  0.1368
    1W        W33551  17.789   8.865   0.386  0.0959 -0.1196  0.1041
    1W        W33552  20.036  24.060   3.624 -0.2097  0.2709  0.0711
    1W        W33553  21.951  11.275   1.292  0.2871  0.0768  0.3332
    1W        W33554   9.781   6.517   1.665 -0.1031 -0.2074  0.0930
    1W        W33555  17.785  17.811   0.265  0.0797 -0.0378 -0.1093
    1W        W33556   1.732   0.648   9.425 -0.1259  0.0254  0.2223
    1W        W33557  18.301  21.589   1.249 -0.1143 -0.4720 -0.1554
    1W        W33558  12.679  19.103   3.688 -0.2244 -0.1532  0.4295
    1W        W33559  21.651   7.441   2.864 -0.0948  0.1626 -0.0455
    1W        W33560   1.768  21.608   0.089 -0.2823  0.1000 -0.1562
    1W        W33561   3.806   4.452   1.478 -0.0185  0.0960 -0.0070
    1W        W33562   0.803   6.591   2.219 -0.2825  0.0160  0.2498
    1W        W33563  19.445  27.731   1.865  0.1035  0.1634  0.0174
    1W        W33564  19.407  10.167   8.644  0.1757  0.0654  0.4001
    1W        W33565  17.826   5.790   1.967  0.0820 -0.0012  0.3835
    1W        W33566  14.448  25.517   0.349  0.0798 -0.0247 -0.1515
    1W        W33567   1.425   6.557   8.566 -0.2170 -0.0002  0.0277
    1W        W33568  10.441   8.522   1.280  0.0575  0.1482 -0.0070
    1W        W33569  27.243  18.850   1.081 -0.0448 -0.2494 -0.1272
    1W        W33570  14.490  16.136   8.249 -0.0472 -0.0289  0.0463
    1W        W33571  10.042  10.857   9.125  0.0255 -0.2211 -0.3254
    1W        W33572   3.440  12.581   6.763 -0.2378  0.0358  0.0728
    1W        W33573  22.851   9.321   7.472 -0.1508  0.1253  0.0970
    1W        W33574  17.565   0.749   9.483  0.0360  0.0227 -0.2224
    1W        W33575   4.524   9.914   9.659  0.2445  0.1171 -0.1867
    1W        W33576   2.172  19.356   8.480 -0.0078 -0.0105 -0.0651
    1W        W33577  11.900  13.395   9.392 -0.0700  0.1099 -0.1678
    1W        W33578   7.256  14.120   2.986  0.3389  0.2614  0.0187
    1W        W33579  17.017   8.900   1.416 -0.0466 -0.0983  0.1740
    1W        W33580  18.953  24.611   2.317 -0.1079  0.0289 -0.2678
    1W        W33581  19.995  27.639   9.961 -0.0716  0.0280 -0.2330
    1W        W33582  16.637  12.109   7.841  0.1963  0.0346 -0.1831
    1W        W33583  20.639  11.902   7.304  0.1778  0.0275 -0.1273
    1W        W33584  19.360   8.061   0.685 -0.1416 -0.1177 -0.1405
    1W        W33585   9.599   5.526   0.547 -0.1602  0.1406  0.1556
    1W        W33586  14.934  23.875   0.568 -0.0249 -0.1731 -0.2916
    1W        W33587  19.151   9.766   1.337 -0.0913  0.2351  0.1526
    1W        W33588  17.908   3.925   2.611  0.4038 -0.2463  0.1283
    1W        W33589  23.664  25.684   1.788  0.0426 -0.4001 -0.0742
    1W        W33590  22.199  25.304   1.492 -0.1487 -0.2868 -0.1909
    1W        W33591  23.199  24.055   3.155  0.0712 -0.0437  0.2398
    1W        W33592   4.607  13.006   2.746 -0.2057 -0.0185 -0.0275
    1W        W33593  20.373   4.593   9.767  0.2651 -0.0643  0.1658
    1W        W33594  18.080  13.052   8.012  0.1263  0.0764  0.2310
    1W        W33595  20.874   2.402   2.336 -0.0605  0.1211  0.0614
    1W        W33596  20.377   0.116   0.915  0.3236  0.0248 -0.4139
    1W        W33597  11.289   7.680   2.400 -0.1682 -0.0206  0.3268
    1W        W33598   8.052   2.253   8.585 -0.2875  0.1751 -0.1113
    1W        W33599   0.281   6.435   2.116 -0.1280  0.0528  0.1114
    1W        W33600   4.366   2.671   1.933  0.1226  0.0999  0.3105
    1W        W33601  16.501  17.077   7.697  0.0482  0.2565 -0.1147
    1W        W33602   8.555   0.297   1.901 -0.0012 -0.1685  0.1727
    1W        W33603  10.617   5.044   4.080 -0.1128  0.5443 -0.0477
    1W        W33604  12.873  18.388   0.651 -0.1198  0.0089 -0.1169
    1W        W33605   3.446  22.884   1.732  0.0467 -0.0609  0.0940
    1W        W33606  24.949  13.262   1.661  0.1497 -0.2550  0.0323
    1W        W33607  16.027  14.069   8.965  0.2719 -0.0576 -0.0794
    1W        W33608   9.756  12.120   8.876  0.3158  0.0357 -0.4899
    1W        W33609  15.872   5.939   2.628  0.0326  0.4134  0.0566
    1W        W33610  21.954  23.764   7.701 -0.0117 -0.0683 -0.4155
    1W        W33611   3.161  11.231   2.675  0.1813 -0.2497  0.2955
    1W        W33612  13.801  26.510   7.912 -0.1648  0.1999  0.0186
    1W        W33613  25.498  25.745   7.707 -0.0636  0.2905 -0.1941
    1W        W33614  21.045  24.461   1.801  0.2675 -0.0702  0.1479
    1W        W33615   7.468  25.175   7.779  0.0360  0.0206 -0.2137
    1W        W33616   0.162   2.326   1.373 -0.1406  0.1348 -0.1369
    1W        W33617  15.821  26.746   7.391 -0.1389 -0.0335  0.3816
    1W        W33618  10.850  17.361  10.015 -0.0662  0.0144  0.2683
    1W        W33619  18.074  18.154   9.844 -0.0540  0.1448 -0.1206
    1W        W33620  15.298   4.921   8.032  0.0194  0.0274  0.1624
    1W        W33621   4.708  24.398   2.372 -0.1359  0.0718  0.0727
    1W        W33622  18.907   8.641   9.880 -0.1809 -0.1830  0.0318
    1W        W33623   3.355  13.444   8.582 -0.2864 -0.1740  0.2770
    1W        W33624  13.327  20.526   0.247  0.0078 -0.0089 -0.1711
    1W        W33625   2.787  23.140  10.332  0.1587  0.0824 -0.0513
    1W        W33626  26.948  23.645   1.418  0.0726  0.0955 -0.2248
    1W        W33627  27.328   4.854   7.088  0.2557 -0.0232  0.0831
    1W        W33628  10.634  12.699   3.361  0.0116 -0.0917 -0.1864
    1W        W33629   7.895  25.341   9.757  0.1465 -0.0849 -0.1706
    1W        W33630   7.894   0.323   9.844 -0.1424 -0.0596  0.0658
    1W        W33631   5.937   7.597   6.805 -0.1108  0.0141 -0.3492
    1W        W33632  21.122   4.569   8.120  0.0751  0.2418 -0.2229
    1W        W33633  17.728  20.781   0.520 -0.0334 -0.0219 -0.0161
    1W        W33634   8.385  27.524   6.539 -0.0475  0.0298 -0.2407
    1W        W33635  13.709   8.227   2.595 -0.0515 -0.0159  0.0556
    1W        W33636  19.852  11.199   0.743 -0.1033 -0.0425 -0.0285
    1W        W33637  15.012   5.577   0.644 -0.1816  0.1381 -0.0577
    1W        W33638  25.145  14.231   2.052 -0.1589 -0.2482  0.0052
    1W        W33639  11.635  10.111   1.814 -0.3214  0.0947  0.1262
    1W        W33640   3.784  16.004   0.365 -0.0211  0.0327 -0.1378
    1W        W33641   5.569   1.128   8.953 -0.2184 -0.0996  0.0469
    1W        W33642  11.191   2.882   3.235 -0.4551  0.3337  0.1061
    1W        W33643  15.175   9.438   9.266  0.1810  0.1559 -0.2245
    1W        W33644  25.605  18.180   8.888 -0.0131  0.0402  0.1244
    1W        W33645  17.758  24.670   9.293 -0.2079  0.1062  0.0518
    1W        W33646  11.257   9.953  10.070  0.0113 -0.1335  0.2892
    1W        W33647  20.175  27.167   9.878 -0.2104  0.0278 -0.2612
    1W        W33648  27.678   4.635   0.939  0.2122  0.1944 -0.3035
    1W        W33649   6.229  19.838   8.419 -0.0874 -0.0145  0.1022
    1W        W33650   3.835  14.568   7.504 -0.1186 -0.1660 -0.1563
    1W        W33651  16.170  26.464   7.602 -0.3261  0.2031 -0.1031
    1W        W33652  22.604  18.188   1.499 -0.1602  0.4643 -0.2249
    1W        W33653  25.946  22.488   8.280  0.1692  0.4544 -0.1644
    1W        W33654  15.572  12.037   1.347 -0.0769  0.0346  0.0774
    1W        W33655  14.901   2.594  10.002  0.1701 -0.4372  0.1583
    1W        W33656  13.513  23.820   1.706 -0.0560 -0.1119  0.0588
    1W        W33657  19.244   7.382   8.352 -0.0129  0.0106  0.0441
    1W        W33658  11.756  13.232   8.962  0.1244  0.1286 -0.1660
    1W        W33659   3.553   8.525   8.558 -0.1609 -0.4403  0.1977
    1W        W33660  13.583  10.304   1.518  0.1082  0.2656 -0.0719
    1W        W33661  16.044  23.296   8.681 -0.0481  0.2356 -0.0474
    1W        W33662  19.924  24.968   2.381  0.3465  0.1424 -0.1842
    1W        W33663   0.127  13.324   7.851  0.1323 -0.2164 -0.3158
    1W        W33664  10.302   3.354   9.669 -0.1107 -0.0304  0.1216
    1W        W33665  10.373   1.495   7.796  0.0338  0.0598  0.1502
    1W        W33666  18.117  19.574   8.105  0.3292  0.2511 -0.4339
    1W        W33667   2.365  12.127   1.978 -0.1864 -0.1051 -0.0828
    1W        W33668  21.907   7.231   9.397 -0.2647 -0.0935 -0.1725
    1W        W33669  24.457   9.480   9.700 -0.3129  0.1753 -0.0241
    1W        W33670  25.201   0.624   8.344  0.1402 -0.0477 -0.2138
    1W        W33671   7.117  26.616   0.469 -0.0602  0.1960  0.3660
    1W        W33672  23.033   7.901   7.959  0.4059 -0.2567 -0.6205
    1W        W33673  12.843  27.613  10.097 -0.1139  0.1156 -0.1003
    1W        W33674  15.199   8.042   7.751 -0.0705  0.1307  0.0756
    1W        W33675   7.221   6.528   6.892  0.0830 -0.1175 -0.1060
    1W        W33676   5.482  25.180   7.808  0.3292 -0.1479 -0.1297
    1W        W33677   9.538  20.926   2.442 -0.0747 -0.0356 -0.2842
    1W        W33678  16.662  17.885   2.545  0.0637  0.0210  0.4320
    1W        W33679  14.274  16.024   2.500 -0.0748  0.0608  0.5026
    1W        W33680  23.789  14.768   1.951 -0.0330 -0.2194  0.0359
    1W        W33681  19.716  13.494   2.359  0.3560 -0.5074  0.1177
    1W        W33682   2.243  12.629   7.388  0.0796  0.2269  0.0029
    1W        W33683  14.745   3.191   0.393  0.0041 -0.1404 -0.1271
    1W        W33684  27.341  20.337   1.720  0.2568 -0.2606  0.1246
    1W        W33685  25.498   7.952   9.750  0.1450 -0.1314  0.0893
    1W        W33686   2.972   2.360   6.884 -0.1320  0.1749 -0.3149
    1W        W33687   0.607   8.084   9.373 -0.1838 -0.1184  0.0011
    1W        W33688   6.100  14.698  10.335  0.2390 -0.1283 -0.0258
    1W        W33689   1.986   2.313  10.010  0.2062 -0.2567  0.0197
    1W        W33690  20.321  17.836   0.701 -0.1066  0.1786  0.0086
    1W        W33691   5.541  16.757   9.507  0.0238 -0.0429  0.0220
    1W        W33692   4.913  14.025   1.844 -0.1744  0.0274 -0.0608
    1W        W33693  26.513  23.145  10.161 -0.1252  0.2303  0.0178
    1W        W33694  21.700   8.946   2.741  0.1716  0.0252 -0.0180
    1W        W33695  27.051   7.513   1.989  0.2370 -0.2624  0.3114
    1W        W33696   5.449   2.046   8.533  0.0162  0.0625  0.1326
    1W        W33697  14.885  15.172   1.461 -0.1548 -0.0622 -0.0477
    1W        W33698  14.390   3.966   1.482 -0.0047  0.0844 -0.1086
    1W        W33699  24.818  12.478   1.029 -0.0328  0.1500 -0.0066
    1W        W33700  17.438   8.339   8.515 -0.0345  0.2790  0.0825
    1W        W33701  17.526  11.376   7.166 -0.1307 -0.2078 -0.0788
    1W        W33702  10.318   6.228   9.764  0.0545  0.0924 -0.1209
    1W        W33703  23.802  20.137   9.931 -0.0127 -0.0517  0.0289
    1W        W33704  18.750   6.240   3.044  0.3566 -0.2113 -0.0095
    1W        W33705  12.193  19.395  10.132  0.2283  0.3180 -0.0100
    1W        W33706   7.694  25.227   8.901 -0.2339 -0.2314 -0.1980
    1W        W33707  24.114  17.731   0.232  0.1885  0.1424 -0.0773
    1W        W33708   0.416  24.162   7.896  0.0808  0.1083  0.2394
    1W        W33709  19.453   7.860   6.486 -0.0763 -0.0607  0.0072
    1W        W33710   1.166  19.645   0.494  0.2822  0.2014  0.2353
    1W        W33711   0.335   2.922  10.023  0.1924 -0.0308  0.0717
    1W        W33712  26.946   2.443   0.951 -0.0806  0.1632  0.0184
    1W        W33713  24.119  21.015   8.449  0.0556  0.2098  0.1110
    1W        W33714   2.846  11.331   9.524  0.2385 -0.0611 -0.3340
    1W        W33715   5.949  12.824  10.175  0.0066 -0.1636  0.0354
    1W        W33716  26.166  26.712   8.545  0.0884  0.0503  0.0483
    1W        W33717   6.278  22.972   8.826 -0.1180 -0.1807  0.0308
    1W        W33718   0.511   2.046   6.630 -0.2304  0.3756  0.1077
    1W        W33719   2.240   0.995   2.562  0.1049 -0.1523 -0.1933
    1W        W33720   6.365  19.079   8.910 -0.1261  0.0880 -0.3043
    1W        W33721  20.181  27.298   7.794 -0.1813  0.2763  0.0895
    1W        W33722   8.163   7.736   2.249  0.2154  0.0731 -0.0967
    1W        W33723   1.972  25.434   1.308  0.0901  0.0647  0.0154
    1W        W33724   3.711  12.501   9.039 -0.1195 -0.0845  0.0566
    1W        W33725  23.645   5.091   7.711  0.2713  0.1209  0.3222
    1W        W33726  12.396  18.568   7.891 -0.0976 -0.0828 -0.2306
    1W        W33727  17.314   8.132   0.675  0.2754  0.3824 -0.0780
    1W        W33728  15.967  24.228   8.165 -0.0558 -0.0778  0.3228
    1W        W33729   1.898   0.673   2.229  0.1341  0.2867  0.1851
    1W        W33730   4.221   5.045   9.285  0.0787  0.0454  0.0021
    1W        W33731  24.191   2.624   7.567 -0.0730 -0.2487  0.0494
    1W        W33732  13.536  25.036   9.281 -0.2075  0.0910  0.0894
    1W        W33733   5.537  14.008   8.147  0.0971 -0.2418 -0.1068
    1W        W33734  24.407  26.486   9.208 -0.1513  0.0698 -0.3134
    1W        W33735   4.114   1.220   9.005  0.2756  0.0076  0.0867
    1W        W33736   0.277  17.646   9.948  0.0670 -0.2316  0.1048
    1W        W33737   7.667  16.916   9.832  0.0433 -0.0703  0.4128
    1W        W33738  17.372  27.527   9.022 -0.1581 -0.1629 -0.0817
    1W        W33739  23.516  11.245   1.577 -0.4138 -0.1642  0.2815
    1W        W33740  24.021  18.246   9.879  0.3814  0.2456  0.1408
    1W        W33741  23.179  12.374   0.256 -0.0999 -0.0267 -0.1095
    1W        W33742   3.774  10.537   9.247 -0.0188  0.2560  0.2072
    1W        W33743  14.453   8.378   3.299  0.0720 -0.0953  0.1672
    1W        W33744  10.441   5.535   8.994 -0.2541 -0.2241 -0.2458
    1W        W33745   0.182   2.602   6.736 -0.1237  0.1028  0.0917
    1W        W33746  25.180  12.337   0.148  0.0309 -0.0755 -0.2122
    1W        W33747  21.720   9.311   9.913 -0.0857  0.0883 -0.0313
    1W        W33748  12.853   8.485  10.335 -0.0574  0.1740 -0.0153
    1W        W33749  20.672   7.909   8.547 -0.5549 -0.1512  0.1358
    1W        W33750   8.193  18.759   9.916 -0.0156  0.0939 -0.1261
    1W        W33751  23.331  18.849   9.035 -0.2317 -0.0026  0.2259
    1W        W33752  11.693   0.739   9.970  0.0504 -0.0078 -0.1102
    1W        W33753  14.553  10.940   9.693  0.1341  0.0378  0.0908
    1W        W33754   5.265  10.621   9.863  0.0014 -0.4121  0.0368
    1W        W33755  10.937   4.221   1.447  0.0919 -0.0734 -0.1120
    1W        W33756   3.803   2.041   0.310 -0.1140 -0.1333 -0.0814
    1W        W33757  15.614  18.707   2.190  0.0579  0.1915 -0.1088
    1W        W33758  14.944   7.910   8.311  0.0787  0.0628  0.1386
    1W        W33759  16.683  21.327   1.132  0.1446  0.0224  0.1296
    1W        W33760  24.633  16.522   9.739  0.2251  0.1667 -0.0137
    1W        W33761  19.291  24.024   0.360  0.1655 -0.0785  0.3740
    1W        W33762  20.588  18.187   2.193  0.2270  0.3850  0.0704
    1W        W33763   5.205  11.088   2.141 -0.2400  0.1029 -0.2712
    1W        W33764  26.524  25.997   9.292  0.2133 -0.1884  0.1729
    1W        W33765   7.138   8.703   2.561 -0.2407  0.0897 -0.1520
    1W        W33766  26.155   1.967   9.526 -0.1537 -0.0230  0.2518
    1W        W33767   8.475   3.441   0.189 -0.1462  0.1054 -0.0406
    1W        W33768  15.853  11.222   2.436 -0.1079  0.0673 -0.0776
    1W        W33769  16.533   7.929   2.603  0.1617  0.0615  0.0194
    1W        W33770   1.100  25.231   1.521 -0.0485 -0.3277  0.0200
    1W        W33771   7.387  11.189   9.828 -0.0774 -0.2893  0.0105
    1W        W33772   1.845  14.674   8.777 -0.2807  0.1205 -0.0154
    1W        W33773  17.259   5.713   3.724 -0.1309 -0.0452  0.1330
    1W        W33774  12.415  18.810   1.275  0.0479 -0.0659 -0.2883
    1W        W33775  22.729  11.628  10.136  0.1291 -0.0609 -0.0362
    1W        W33776  14.497  24.507   1.184  0.4701 -0.0673  0.1410
    1W        W33777   4.225   5.661   0.608  0.1444  0.0685 -0.2388
    1W        W33778  17.685  14.326   8.217 -0.4082 -0.1194 -0.0440
    1W        W33779  19.803  18.517   9.655 -0.0565 -0.0945 -0.2263
    1W        W33780   9.697   5.022   9.773 -0.2649 -0.0113 -0.1688
    1W        W33781   3.781  17.738   7.607  0.1993  0.1545 -0.3647
    1W        W33782  24.892  16.426   0.949 -0.0183  0.0531 -0.1613
    1W        W33783  11.176  12.649   3.457 -0.2274 -0.0802 -0.4751
    1W        W33784   5.602  11.329   2.049  0.0958  0.0193 -0.1703
    1W        W33785   0.750   7.993   1.664  0.1637 -0.1046  0.1575
    1W        W33786  26.443   8.973   1.120 -0.1465  0.0554  0.0392
    1W        W33787  19.101   0.154   2.894  0.0829 -0.0398  0.3398
    1W        W33788   7.008  21.967   2.091 -0.0981 -0.2247 -0.0009
    1W        W33789  27.856  15.792   1.159 -0.2306 -0.2253  0.0271
    1W        W33790  10.971  11.017   9.490 -0.1752  0.0215  0.0795
    1W        W33791  18.365  17.969   0.489 -0.1613  0.0304 -0.2303
    1W        W33792   7.344  19.263   7.837 -0.0009  0.1357 -0.0878
    1W        W33793  11.171  21.592   9.949  0.1493  0.0707 -0.1768
    1W        W33794  15.748   7.597   7.038 -0.0693  0.1322  0.1475
    1W        W33795  19.100  26.866   7.982  0.3193  0.0073 -0.2691
    1W        W33796  23.477  21.446   6.718 -0.0929  0.1044 -0.0656
    1W        W33797   0.857  21.596   1.135  0.0371  0.1151 -0.2449
    1W        W33798   1.939  13.348   8.943 -0.0810  0.1900  0.2109
    1W        W33799   9.976  18.810   7.215  0.1761  0.0233 -0.1297
    1W        W33800   3.669   2.855   8.355 -0.0938  0.0030 -0.2998
    1W        W33801   4.100  24.906   2.319  0.0608 -0.3127  0.0766
    1W        W33802  17.035  11.276   1.761  0.1603  0.1062 -0.1280
    1W        W33803   2.097  15.678   7.151  0.1142  0.1855 -0.0428
    1W        W33804   1.283  22.817   7.626 -0.0436  0.1661 -0.1458
    1W        W33805  11.566  27.286   0.597 -0.0733  0.3202 -0.0494
    1W        W33806   1.265   1.713   1.963 -0.1648  0.0842 -0.3122
    1W        W33807   2.725  10.340   1.146  0.3239  0.0229  0.0882
    1W        W33808   8.547   1.692   1.067 -0.1489 -0.4194 -0.4417
    1W        W33809  26.826  11.764  10.319  0.0560  0.0208  0.2037
    1W        W33810  14.962  17.633   3.148  0.2066  0.1225  0.1776
    1W        W33811  12.810  20.023   9.754 -0.0715  0.2555 -0.1557
    1W        W33812   3.505   9.018   8.398  0.1572 -0.1708 -0.0408
    1W        W33813  21.815   5.321   9.022  0.0386 -0.2556  0.3651
    1W        W33814  20.946   1.391   7.154 -0.1179 -0.2196  0.1558
    1W        W33815   7.052  12.376   2.619 -0.0920 -0.0711 -0.0412
    1W        W33816  17.136  25.900   2.420 -0.0304  0.0188  0.1953
    1W        W33817   7.974  28.001  10.189 -0.3609  0.3630  0.2767
    1W        W33818   7.105  12.329  10.319  0.0599  0.0690 -0.3025
    1W        W33819  14.219  23.684   8.998  0.0612 -0.2382  0.0972
    1W        W33820  26.002  12.610   7.006  0.0439 -0.0752 -0.0811
    1W        W33821   0.776   2.706   9.159 -0.1163  0.1620  0.0668
    1W        W33822  22.121   5.643   2.165  0.0237  0.1887  0.1357
    1W        W33823  22.817  25.131   8.502  0.0047  0.0302 -0.0174
    1W        W33824   7.751   3.597   0.346  0.0274 -0.0869 -0.1296
    1W        W33825   9.743  10.964   2.991 -0.2486  0.0499  0.4033
    1W        W33826  11.799   1.641   9.743 -0.0114 -0.0920  0.0512
    1W        W33827   0.519   6.206   0.824 -0.1096 -0.2607 -0.4183
    1W        W33828   8.594  10.685   0.945  0.0865 -0.0645  0.1866
    1W        W33829   2.356  23.376   0.237  0.0038  0.0062 -0.0811
    1W        W33830  27.934  13.625   8.069 -0.1706 -0.0020 -0.4107
    1W        W33831   8.179  10.903   8.287  0.2324 -0.3443 -0.3253
    1W        W33832  21.457   6.553   0.802  0.0505  0.1956 -0.1554
    1W        W33833  22.116   6.933   8.995 -0.4274  0.5086 -0.0906
    1W        W33834  16.041   9.673   1.727  0.0116  0.1095  0.0621
    1W        W33835   9.872   2.784   1.677  0.1210 -0.1251 -0.1591
    1W        W33836   2.212  16.356   8.817  0.1128 -0.0684 -0.0335
    1W        W33837   6.354  26.293   1.956  0.3134  0.3441 -0.0355
    1W        W33838  21.728   0.786   7.532  0.0623 -0.0323 -0.2803
    1W        W33839  24.390   5.562   2.733 -0.2329  0.1052  0.1265
    1W        W33840  23.113  10.754   7.087  0.2051  0.1632  0.0541
    1W        W33841   2.679  19.700   6.917 -0.0974 -0.1659  0.0070
    1W        W33842  26.148  15.564   2.242 -0.0356 -0.2440 -0.3580
    1W        W33843  17.083   0.851  10.289  0.0132 -0.0847 -0.0607
    1W        W33844  10.054  26.392   8.868 -0.3168  0.4663  0.0767
    1W        W33845  23.364  12.338   1.639  0.0207  0.0732  0.1924
    1W        W33846   5.199   4.419   7.935  0.1636  0.1723 -0.1096
    1W        W33847  18.683  14.533   1.891 -0.0046  0.0776  0.1498
    1W        W33848  25.520   2.444   7.814  0.2108 -0.2860  0.1339
    1W        W33849   0.166  23.513   7.076  0.2838 -0.3561  0.2155
    1W        W33850   5.167  16.897   1.743  0.4730 -0.2229 -0.0319
    1W        W33851  18.425  15.912  10.199 -0.2046 -0.1615  0.2685
    1W        W33852  27.907  26.718   9.400 -0.1430 -0.1938 -0.0551
    1W        W33853   8.096  23.405   8.809 -0.0783 -0.0383  0.1282
    1W        W33854   0.821  22.285   9.176  0.3708 -0.0974 -0.0642
    1W        W33855  24.450   9.604   8.125  0.2397  0.2743  0.1512
    1W        W33856   9.358  19.599  10.278 -0.0815 -0.0232  0.0592
    1W        W33857  11.582  25.300   1.367 -0.2307  0.1050 -0.2431
    1W        W33858  21.363   9.276   0.831  0.1009 -0.3258  0.0852
    1W        W33859  25.751  18.972   2.480  0.0209 -0.2435 -0.2271
    1W        W33860  18.558  17.181   0.942 -0.1505 -0.1087  0.1724
    1W        W33861   0.037   3.610  10.218 -0.2049  0.2495  0.2400
    1W        W33862  10.719  23.776   9.278  0.0359  0.0538 -0.1039
    1W        W33863   2.206  17.910   0.345 -0.0724 -0.2263 -0.0147
    1W        W33864   2.980   9.912   7.474  0.1467 -0.1949 -0.1482
    1W        W33865  22.349  27.007   7.371 -0.2799  0.0273  0.1419
    1W        W33866  24.635   5.599   0.223  0.1612 -0.0371 -0.2678
    1W        W33867   2.907  14.335   7.709  0.0785  0.0698 -0.0332
    1W        W33868   4.281  10.341   6.979 -0.0862 -0.0387  0.0886
    1W        W33869  11.553  28.079   8.736  0.2805  0.0558  0.1219
    1W        W33870  24.821   1.248   2.726 -0.1773 -0.1359  0.1645
    1W        W33871   6.169  16.542   2.854 -0.0745  0.0039 -0.0727
    1W        W33872  11.919   8.423   1.016  0.0442  0.0883  0.0161
    1W        W33873  15.884  23.381   9.617  0.1203  0.0998 -0.0023
    1W        W33874  27.663   6.058   2.036 -0.1395 -0.1720  0.2689
    1W        W33875  13.503  22.459   0.076 -0.1334  0.0274 -0.2897
    1W        W33876  12.426  11.670   8.227  0.1391  0.2497 -0.0320
    1W        W33877   9.444  11.468   7.357 -0.2468 -0.1872  0.0164
    1W        W33878  18.731  15.550   9.890  0.3476  0.1617  0.0182
    1W        W33879  22.373   8.389   9.028 -0.0787 -0.0231  0.2842
    1W        W33880  13.052  19.471   9.938  0.1861 -0.2417 -0.0204
    1W        W33881   3.243  22.364   0.586 -0.0499  0.0120  0.3286
    1W        W33882   4.025  22.761  10.116 -0.3377 -0.1526 -0.3678
    1W        W33883  23.303  21.763   0.388 -0.0802 -0.1651 -0.2336
    1W        W33884   7.565   8.676   0.062 -0.0551  0.1617 -0.0085
    1W        W33885  12.895  24.212   0.800  0.3400 -0.1747  0.0273
    1W        W33886  19.165   4.915   0.631  0.3171 -0.1338 -0.0306
    1W        W33887   5.533  13.960   1.313  0.1589  0.2274 -0.3816
    1W        W33888  12.715  23.303   9.306 -0.1669  0.2319  0.0151
    1W        W33889  11.050   3.009   9.516  0.0449 -0.1724 -0.0061
    1W        W33890  12.778  19.343   7.448 -0.0267 -0.0326  0.2458
    1W        W33891   2.761  27.569   1.631 -0.0375 -0.1350 -0.0940
    1W        W33892  14.170   0.172   3.495 -0.2216 -0.1086  0.2371
    1W        W33893   1.445  10.063   6.764  0.1951 -0.2169 -0.4764
    1W        W33894  19.165  16.018   0.970  0.0062  0.1340  0.0237
    1W        W33895   3.934  26.516   0.435  0.0152 -0.0341 -0.0303
    1W        W33896  18.540  11.209   9.726  0.2193 -0.1395 -0.1943
    1W        W33897   1.274  20.281   7.746 -0.1179  0.1306 -0.0342
    1W        W33898  15.142   8.905   8.120 -0.0726  0.2412 -0.0399
    1W        W33899   0.448  23.132   1.999 -0.2254  0.0695 -0.0190
    1W        W33900   1.139  13.690   3.134 -0.0358 -0.1005 -0.4099
    1W        W33901  25.741   2.163   8.773  0.4538  0.1038  0.2119
    1W        W33902  25.974  16.172   0.230 -0.2158 -0.0643  0.0832
    1W        W33903   4.900  18.502   3.279 -0.0306 -0.2005 -0.0450
    1W        W33904   4.240  24.108  10.143 -0.1604  0.1679 -0.3144
    1W        W33905  23.077  13.513   9.016 -0.1065 -0.1619  0.2447
    1W        W33906   3.285   4.101   0.901  0.0773 -0.2275 -0.0230
    1W        W33907   0.004  10.331   0.224 -0.0172  0.1810  0.4668
    1W        W33908   0.233  11.883   1.816  0.1536 -0.0934  0.0004
    1W        W33909   7.182  27.913   9.944  0.1288  0.2807  0.1547
    1W        W33910  25.520  12.562   1.430  0.0553  0.0575 -0.1885
    1W        W33911  16.502  20.411   9.419 -0.2723  0.0129 -0.0985
    1W        W33912   8.448  23.578   2.235 -0.1366  0.1369  0.1471
    1W        W33913  22.563  25.356  10.184 -0.1714 -0.1519 -0.1486
    1W        W33914  20.967   6.044   2.714 -0.1998 -0.0037 -0.0441
    1W        W33915  20.711  14.267   7.367 -0.4422 -0.0635 -0.1537
    1W        W33916   5.148   1.884   9.807  0.1348  0.1854 -0.2883
    1W        W33917   8.958   8.495   1.908 -0.0444 -0.0417 -0.0582
    1W        W33918   2.806  27.216   7.234 -0.3166  0.0386 -0.1548
    1W        W33919  25.951  17.205   9.388 -0.0387  0.2325  0.2283
    1W        W33920  11.897  27.697   0.034 -0.0950  0.2688  0.2031
    1W        W33921  26.892  17.407   8.625  0.0289 -0.1570 -0.1004
    1W        W33922   9.563   6.349   2.966  0.1540  0.0677  0.2621
    1W        W33923  15.441   4.723   2.865  0.1440  0.0298 -0.0321
    1W        W33924   4.909  19.006   8.801  0.1518  0.1845  0.0823
    1W        W33925  15.288  21.036   7.824  0.0705 -0.0762 -0.0092
    1W        W33926  25.281   2.155   8.136 -0.4546  0.0502 -0.0118
    1W        W33927   9.458  23.056   9.384 -0.0117  0.0389  0.0961
    1W        W33928  27.246   3.425   2.733  0.1641 -0.0299  0.5708
    1W        W33929  23.572  19.810  10.303  0.0604 -0.1288 -0.1285
    1W        W33930  20.118   9.997   1.364  0.2930 -0.1326  0.3958
    1W        W33931   7.610   6.086   0.029 -0.0200 -0.0864  0.2549
    1W        W33932  24.009  18.753   0.600 -0.1505 -0.0076 -0.3709
    1W        W33933   5.111  26.109   1.325  0.1777 -0.2357 -0.4420
    1W        W33934   4.668  20.935   2.633  0.1607  0.1547 -0.1872
    1W        W33935  19.705   6.491   9.391  0.0891 -0.4778  0.0763
    1W        W33936  26.403  12.372   2.659 -0.1637  0.0790  0.1870
    1W        W33937  23.109   8.769   2.474 -0.3270 -0.0436  0.1662
    1W        W33938  20.151   5.771   0.023 -0.4530  0.0357  0.3130
    1W        W33939   6.771   3.669   0.628  0.0838 -0.0368  0.0368
    1W        W33940   9.801   0.532   2.514 -0.0776  0.0134 -0.2215
    1W        W33941  27.179  14.902   0.208  0.0879 -0.2328 -0.1380
    1W        W33942  19.879  11.726   2.934  0.3170  0.0105  0.0026
    1W        W33943  13.630   0.493   2.738 -0.2841 -0.1418  0.0816
    1W        W33944   3.118  13.260   0.106 -0.0252 -0.2094  0.0635
    1W        W33945   2.267  19.768   1.832 -0.1757 -0.0850 -0.0265
    1W        W33946  11.078  18.411  10.146 -0.2247 -0.2478  0.0341
    1W        W33947  12.569   4.942   3.122 -0.2510 -0.0071 -0.3209
    1W        W33948  10.066  24.568   2.033 -0.0733  0.1533 -0.0934
    1W        W33949  20.874   2.598   1.032 -0.0764  0.0829  0.0452
    1W        W33950  15.459   1.624   9.024  0.1698  0.2666 -0.2957
    1W        W33951  14.393   1.168   1.144  0.2158 -0.1872 -0.3891
    1W        W33952   4.960  21.412   0.514 -0.0362 -0.0228  0.1225
    1W        W33953  12.424  18.762   1.755 -0.1916 -0.0826  0.0745
    1W        W33954   1.426  19.542   6.414  0.1027  0.3292  0.3541
    1W        W33955  22.924   9.381   1.272  0.1553 -0.1894  0.0813
    1W        W33956  13.537  11.597   3.911 -0.1027 -0.4407  0.3923
    1W        W33957   5.022  16.681   7.847 -0.0406 -0.0712  0.0154
    1W        W33958  26.981  20.255   9.110  0.2734  0.0953  0.2530
    1W        W33959   8.671  22.632   0.888  0.1125  0.0126 -0.0965
    1W        W33960   6.919  13.310   2.709  0.0184  0.3327  0.1109
    1W        W33961  22.310   2.417   8.709  0.3353  0.3249  0.3317
    1W        W33962  22.063  20.634   1.978  0.3302  0.0917 -0.0954
    1W        W33963  25.487  14.641   9.126  0.0942 -0.0933  0.0806
    1W        W33964  26.220  26.593   1.007 -0.1869 -0.0399  0.0558
    1W        W33965  15.033   0.628   8.188  0.2221  0.0430 -0.1852
    1W        W33966  27.523  15.304   0.189  0.0107  0.0883 -0.0309
    1W        W33967  25.923   7.884  10.011  0.0153  0.1044 -0.0553
    1W        W33968   1.043  12.589   3.224 -0.0047  0.1274  0.4280
    1W        W33969  13.705  16.161   9.459 -0.0787 -0.0827  0.1113
    1W        W33970  27.447  26.755   2.618 -0.0353 -0.0638  0.4140
    1W        W33971  25.545  11.215   0.052 -0.0341 -0.0011  0.1431
    1W        W33972  26.810  17.930   3.012 -0.0333  0.0674  0.2682
    1W        W33973   5.632   2.717   9.679 -0.1246 -0.3070 -0.0920
    1W        W33974  18.283  18.111   2.128  0.0188 -0.0922 -0.2112
    1W        W33975   7.816  23.697   6.805 -0.1640  0.0129 -0.0964
    1W        W33976  15.379  27.659  10.250  0.1595 -0.0099  0.1460
    1W        W33977   1.672  17.265   8.020 -0.0928 -0.0177  0.0238
    1W        W33978   0.691   0.313   2.218  0.0796 -0.1444 -0.1686
    1W        W33979  20.614  18.712   2.002  0.0578 -0.0783 -0.3644
    1W        W33980   5.384  27.228   8.423  0.3165  0.0312 -0.1805
    1W        W33981   1.904  15.937   6.398 -0.1717 -0.0223 -0.0809
    1W        W33982  11.613  13.775   3.203  0.1059  0.0333  0.0047
    1W        W33983   0.595  24.586   8.249 -0.0149 -0.2392 -0.3391
    1W        W33984   2.686  16.450   2.282  0.2279 -0.0094 -0.1871
    1W        W33985  23.300  24.588   0.819  0.1822 -0.0349 -0.1669
    1W        W33986  23.726  23.397   0.626 -0.2846 -0.1929  0.4927
    1W        W33987   6.494  27.167   1.775 -0.2345 -0.0826 -0.3819
    1W        W33988  26.066  10.856   9.638 -0.0375 -0.0684  0.4357
    1W        W33989   8.126  25.059   2.892  0.1700 -0.1912 -0.0323
    1W        W33990  26.638  25.366   7.604 -0.0588 -0.0031 -0.1249
    1W        W33991   8.225  22.079   1.593  0.3294 -0.0817  0.1176
    1W        W33992  15.580   7.152   8.019 -0.0159 -0.1907 -0.2157
    1W        W33993  17.204   7.599   0.820  0.1972  0.0438 -0.0930
    1W        W33994  17.129   3.036   1.747  0.1117 -0.0542 -0.3230
    1W        W33995   4.583  23.867   1.536  0.2026  0.2214 -0.3155
    1W        W33996  24.171  14.246   8.839  0.0877 -0.0644 -0.1272
    1W        W33997   7.813  12.322   2.765 -0.1832 -0.1163 -0.1779
    1W        W33998  13.411  14.740   9.791 -0.3240 -0.0823 -0.0793
    1W        W33999  18.544   4.310   8.736 -0.0789 -0.0588  0.3448
    1W        W34000  26.289   9.221   7.429  0.0960  0.4668 -0.1424
    1W        W34001  23.789  17.796   2.073  0.2646 -0.0493  0.1147
    1W        W34002   3.723   8.391   9.917  0.2145  0.0793  0.0225
    1W        W34003  11.497  26.477   2.143  0.0810 -0.0552 -0.0728
    1W        W34004   7.337  13.211   0.074  0.0905 -0.2587  0.0254
    1W        W34005  21.729  16.555   2.192 -0.0008 -0.1372 -0.0325
    1W        W34006  16.667   0.157   8.696 -0.2450 -0.1308 -0.0550
    1W        W34007  24.667  26.737   3.375  0.1125 -0.2764  0.0301
    1W        W34008   5.738  12.812   8.956  0.0690  0.0268  0.1310
    1W        W34009  22.699   8.416   9.382  0.0269 -0.3347 -0.3015
    1W        W34010   3.377  16.957  10.251  0.1939 -0.2563 -0.1692
    1W        W34011  28.020   7.705   0.296 -0.0971 -0.1098  0.2558
    1W        W34012  18.516  24.553   9.630  0.2195 -0.1425  0.0096
    1W        W34013  22.510  17.085   8.805  0.0343  0.0348 -0.1961
    1W        W34014  25.295   8.971   8.958  0.2580  0.2582 -0.1405
    1W        W34015  15.400   9.983   9.193 -0.2541  0.0748  0.0938
    1W        W34016  24.905  19.122   0.779  0.0230  0.1478 -0.1096
    1W        W34017  24.230   0.034   2.163  0.2715  0.0992 -0.1499
    1W        W34018   1.638  19.544   9.647 -0.0019  0.2364  0.0347
    1W        W34019   3.120  17.867   6.453 -0.1293 -0.1117  0.2365
    1W        W34020   7.901  21.035   0.124  0.1076  0.1584 -0.3283
    1W        W34021   4.152  14.768   0.032  0.0917 -0.1109 -0.0937
    1W        W34022   9.865  15.360   9.742  0.1711 -0.2904 -0.1438
    1W        W34023  26.998   0.379   8.329 -0.0005  0.0388  0.0540
    1W        W34024  19.148   3.452   7.709  0.3601  0.1439  0.0272
    1W        W34025  20.042  20.572   8.762  0.0392 -0.2619  0.1782
    1W        W34026   3.769  18.098   2.372  0.0158  0.3883  0.0445
    1W        W34027  11.237   5.449   8.986 -0.2584  0.1653 -0.1831
    1W        W34028  21.350   2.117   7.707  0.1203  0.1882 -0.1700
    1W        W34029  14.160   0.253   1.184 -0.2994 -0.1137 -0.1376
    1W        W34030  20.434   8.517   7.285  0.0555  0.0825  0.0642
    1W        W34031  10.126   2.598   1.291 -0.1138 -0.0500  0.0547
    1W        W34032  27.508  16.939   6.773 -0.1745  0.0155  0.0172
    1W        W34033  20.277   0.688   3.064 -0.0069 -0.1096  0.1065
    1W        W34034   1.851  21.027   9.541 -0.1996 -0.0535 -0.0919
    1W        W34035  27.074  10.751   2.173  0.2163  0.1180 -0.2842
    1W        W34036   8.818   2.514   1.451  0.1202  0.1983  0.1107
    1W        W34037  11.551  19.748   1.452  0.1175 -0.0137  0.1413
    1W        W34038  20.132  14.806   9.493  0.0032 -0.0455 -0.2143
    1W        W34039  10.172  27.665   7.091 -0.1788 -0.3739  0.1959
    1W        W34040  12.866  22.457   1.725 -0.3438 -0.0566 -0.0444
    1W        W34041  25.154   9.046   1.824  0.3536  0.2453  0.4451
    1W        W34042   0.946  17.982   8.953  0.1250  0.3870  0.1580
    1W        W34043  22.212  18.197   1.192 -0.0928  0.1683 -0.4741
    1W        W34044   2.603  20.016   8.149  0.4524  0.0793 -0.0181
    1W        W34045  16.921  26.891   8.271  0.0637 -0.0526  0.0121
    1W        W34046   0.170  14.148   7.270  0.1279 -0.0067  0.1818
    1W        W34047  21.725  22.714   9.930  0.2105  0.0015 -0.0375
    1W        W34048  28.038   2.144   9.265 -0.2301  0.0994  0.2573
    1W        W34049  11.603  15.560   0.633  0.1568 -0.2791  0.0345
    1W        W34050   4.209  22.994   1.831 -0.0827 -0.1393 -0.0500
    1W        W34051  11.177  13.130   3.506 -0.3157  0.0944  0.0130
    1W        W34052  14.133  22.273   0.811  0.0008  0.0998 -0.0623
    1W        W34053  16.169  17.566  10.117 -0.1531 -0.2316  0.0040
    1W        W34054  10.140  12.777   2.672 -0.2080  0.2427 -0.2740
    1W        W34055  12.952  18.981  10.317 -0.2622  0.0838 -0.2343
    1W        W34056  27.696   8.378   1.300 -0.3126  0.0448  0.1727
    1W        W34057  26.921   4.546   9.020 -0.0186 -0.6333 -0.2047
    1W        W34058  13.957  20.701  10.002  0.4490  0.1883  0.1483
    1W        W34059  11.936  24.179   7.257 -0.2291  0.0038  0.0700
    1W        W34060  19.391  15.612   7.506 -0.1984 -0.0837 -0.2016
    1W        W34061  25.689  16.265   9.484 -0.0439 -0.0534  0.0620
    1W        W34062  14.191  16.960   2.599 -0.4464  0.4470 -0.2261
    1W        W34063   5.627   2.499   1.629 -0.0426  0.1316 -0.0041
    1W        W34064  14.812  11.385   1.983  0.0650 -0.0162 -0.0792
    1W        W34065  15.281  22.816   7.011 -0.1087 -0.1959  0.0775
    1W        W34066  15.812  12.643   1.807  0.0330  0.1371  0.2116
    1W        W34067  23.771   1.084   2.196  0.2449 -0.0454 -0.1125
    1W        W34068   5.164  25.848  10.314  0.2813 -0.0921  0.0344
    1W        W34069   6.409   5.404   2.602 -0.0271  0.1035  0.0354
    1W        W34070  25.450  11.523   0.441  0.0765  0.0605 -0.1359
    1W        W34071   0.577   5.787   0.541 -0.1401 -0.0191 -0.5234
    1W        W34072  18.984  22.757   1.792 -0.1441 -0.0686  0.4448
    1W        W34073   5.761  26.382   2.253  0.2588 -0.1144  0.2408
    1W        W34074  13.608  19.990   7.489 -0.1118 -0.2148  0.1802
    1W        W34075  18.166  19.324   3.360  0.1907  0.2460 -0.1993
    1W        W34076  22.325  23.974   9.044 -0.1999  0.2692 -0.1505
    1W        W34077  20.217  11.731  10.204  0.3479  0.0338  0.1098
    1W        W34078  25.659   6.268   9.035  0.3254  0.0049  0.0407
    1W        W34079   9.615  19.387   3.288 -0.1442 -0.1398  0.1131
    1W        W34080   9.738  12.560   8.805 -0.2769  0.3403  0.2753
    1W        W34081  22.684  11.574   8.001 -0.0710 -0.2183 -0.3526
    1W        W34082   5.896  23.058   8.138  0.1202  0.1737  0.0154
    1W        W34083  18.371  27.488   1.183 -0.2629 -0.1578  0.0408
    1W        W34084   4.020  12.535   1.340  0.3247  0.1448 -0.1559
    1W        W34085  27.522  16.077   1.709 -0.1672  0.0134  0.5652
    1W        W34086  19.728  20.347   9.060  0.0328 -0.1575 -0.0869
    1W        W34087  16.817   9.732   1.081  0.1850  0.2721  0.0577
    1W        W34088   0.784  12.983   1.036 -0.4102 -0.0780 -0.0652
    1W        W34089  26.279   7.709   7.635 -0.3785 -0.1622 -0.1634
    1W        W34090  13.631  17.944   9.971  0.1247  0.4646  0.1660
    1W        W34091  27.454  12.442   2.721  0.0576 -0.0687 -0.4765
    1W        W34092  23.395  10.272   0.993  0.1951 -0.1899  0.1863
    1W        W34093   0.416  17.791   8.091 -0.4024 -0.0161 -0.0728
    1W        W34094  17.184  24.716   0.613  0.0266 -0.4000 -0.1777
    1W        W34095  16.507   3.967   0.145 -0.0767 -0.0148  0.1846
    1W        W34096   6.555   4.942   8.600 -0.1550 -0.0728  0.0886
    1W        W34097   8.320  13.237   7.965 -0.2315 -0.0153  0.3078
    1W        W34098  16.946   9.507   8.038 -0.0841 -0.0313 -0.1765
    1W        W34099  24.266   1.510   9.628  0.1387 -0.1432  0.3066
    1W        W34100   3.627  21.147   6.521 -0.1103 -0.0389  0.0441
    1W        W34101   8.085  23.434   7.372  0.0954  0.0429 -0.3734
    1W        W34102  16.969  10.680   9.480  0.2716 -0.1188 -0.3280
    1W        W34103  20.763   2.584   8.262  0.0990 -0.0732 -0.0069
    1W        W34104  26.069   1.302   6.824 -0.1427  0.0555  0.1278
    1W        W34105  19.698   2.752   3.034 -0.1811 -0.0092  0.0037
    1W        W34106   8.537  26.368   7.338 -0.0281 -0.1404  0.3168
    1W        W34107  24.180  16.915   3.334 -0.1303  0.0216  0.1913
    1W        W34108  11.469   2.769   0.394 -0.1848  0.1151 -0.0307
    1W        W34109  11.944  26.822   8.599  0.1532  0.0250  0.0038
    1W        W34110  11.307  23.381   7.932 -0.4036 -0.0645  0.0526
    1W        W34111  22.219  23.751   0.567 -0.1293 -0.0499  0.1379
    1W        W34112   1.879  23.582   9.000 -0.1602 -0.2546 -0.1755
    1W        W34113   0.771  10.339   0.463 -0.2768 -0.4436 -0.2734
    1W        W34114   7.092   3.919   0.989 -0.0682 -0.2983 -0.0645
    1W        W34115  19.242  23.218   8.991 -0.1791  0.0355 -0.1275
    1W        W34116  19.705   2.581   0.493 -0.1227  0.0536  0.0140
    1W        W34117   1.790  20.672   6.127 -0.1536 -0.1940  0.2574
    1W        W34118   3.900  19.558   0.756  0.0994 -0.1081 -0.0632
    1W        W34119  26.078  19.842   8.193 -0.0136 -0.0580  0.1464
    1W        W34120   5.689  17.379   3.232 -0.0066  0.0753  0.0102
    1W        W34121  13.871  22.447   8.388 -0.1411  0.0102 -0.0949
    1W        W34122  27.442   1.608   7.800 -0.1866  0.0901 -0.0788
    1W        W34123   0.113  26.823   7.176  0.1612 -0.3736  0.1644
    1W        W34124   0.715  13.372   8.384 -0.3610  0.0518  0.0752
    1W        W34125  27.086  10.258   0.632  0.0335 -0.0487 -0.2252
    1W        W34126   6.585  12.004   1.580  0.1281  0.2379  0.0166
    1W        W34127   7.927  27.968   7.255 -0.0527  0.2530  0.1240
    1W        W34128  24.696  17.801   7.288  0.0256 -0.1977 -0.0743
    1W        W34129   3.480   4.177   0.473  0.0791 -0.2474 -0.0667
    1W        W34130  26.410  12.338   0.951 -0.0067 -0.2447  0.0409
    1W        W34131  18.492  25.472   0.918 -0.0313  0.2055 -0.4732
    1W        W34132  18.123   5.634   0.062  0.4532  0.0967 -0.1816
    1W        W34133  20.190  25.398   1.326  0.0208  0.0719  0.2174
    1W        W34134   3.020  18.293   1.445 -0.0315 -0.1637  0.2257
    1W        W34135  24.783  16.484   0.476  0.1577 -0.3778  0.1882
    1W        W34136   4.138  18.474   1.701  0.0823  0.2101 -0.3111
    1W        W34137  20.229  15.724   9.792 -0.3888 -0.2590  0.1956
    1W        W34138  12.848  14.196   4.437 -0.1427 -0.1559 -0.1197
    1W        W34139   4.698  25.049   0.848  0.1620  0.0547 -0.3279
    1W        W34140   4.666   9.687   0.594  0.2259 -0.3209 -0.1866
    1W        W34141   6.198   7.779   3.185  0.0406 -0.1945 -0.1099
    1W        W34142  24.324  21.838   7.235 -0.0900  0.1679 -0.1444
    1W        W34143  25.135  17.978   3.859 -0.2329  0.1956  0.1614
    1W        W34144  14.088  20.132   8.869  0.0897 -0.0202  0.4287
    1W        W34145  25.900  27.214   1.652  0.1180 -0.0172  0.1903
    1W        W34146   9.061  26.895  10.294  0.1598  0.1555  0.4965
    1W        W34147  25.052  14.468   0.859  0.0716 -0.4346  0.0758
    1W        W34148  21.623   6.612   6.298  0.1645  0.0454  0.1560
    1W        W34149  14.949   4.616   0.522  0.3706  0.0831  0.2362
    1W        W34150  18.150  13.087   1.411  0.1721  0.0386  0.1565
    1W        W34151   2.466  19.277   8.950 -0.0570 -0.1420  0.0186
    1W        W34152   0.267  19.597   1.134  0.3484  0.0507  0.2485
    1W        W34153  25.510   1.490   7.613 -0.1198 -0.3108  0.1360
    1W        W34154  25.372  20.710  10.116 -0.0088  0.1567  0.4168
    1W        W34155   4.018  23.614   0.519 -0.0201  0.2658 -0.0083
    1W        W34156  19.408   6.538   1.307  0.0569 -0.2680 -0.2194
    1W        W34157  21.556   0.286   8.732 -0.0830 -0.1235  0.0839
    1W        W34158  17.161  13.989  10.226  0.0863 -0.1433  0.1029
    1W        W34159  13.115   0.116   7.919 -0.0045 -0.3132  0.1830
    1W        W34160  18.175   7.526   3.476  0.1981 -0.0474  0.1259
    1W        W34161   6.107   5.629   7.877 -0.0831 -0.0416  0.0130
    1W        W34162   2.408   8.897   8.733  0.1196 -0.2113 -0.0338
    1W        W34163   2.179  14.668   9.133  0.3132  0.1263 -0.0215
    1W        W34164   2.560   9.245   7.333  0.1983  0.2367  0.0248
    1W        W34165  11.857   9.834   3.612 -0.0768 -0.1181 -0.1898
    1W        W34166  24.976   4.646   9.653 -0.0246 -0.0154  0.2752
    1W        W34167  16.179  10.535   7.802 -0.2316  0.1829 -0.0952
    1W        W34168  10.018  26.170   8.317 -0.1081 -0.2845 -0.1274
    1W        W34169  16.304  13.805   0.052  0.2058  0.1317  0.2386
    1W        W34170   0.021  17.518   2.446  0.0024  0.0777 -0.0423
    1W        W34171  15.603   1.212   2.582  0.1856  0.0400 -0.1288
    1W        W34172  19.793   3.913   0.650  0.1313 -0.0691 -0.1620
    1W        W34173  17.695  21.087  10.155 -0.0072 -0.0772  0.2162
    1W        W34174  27.472  22.589   0.615  0.0894 -0.1397  0.2550
    1W        W34175   7.114  25.157   1.074  0.1090 -0.3597 -0.0749
    1W        W34176   1.752  17.262   7.120 -0.1138 -0.0870  0.2427
    1W        W34177   1.250   1.162   0.518 -0.1205  0.1411  0.0137
    1W        W34178   8.984   4.905   8.904 -0.2505 -0.0085 -0.3975
    1W        W34179   0.456  22.297   6.999 -0.1516  0.1681 -0.3285
    1W        W34180   2.434  15.318   6.926 -0.2141 -0.3237 -0.2009
    1W        W34181  27.746  27.429   8.902  0.2086 -0.1069  0.0895
    1W        W34182   8.538   9.716   3.166  0.0392  0.0547 -0.2407
    1W        W34183  21.098  22.110   2.424  0.0852  0.3084 -0.3667
    1W        W34184  16.443  25.654   8.737 -0.0380  0.0019 -0.0357
    1W        W34185  22.960   9.572   9.761  0.1968  0.2180  0.4985
    1W        W34186  24.007   2.373   9.866 -0.0617 -0.0094 -0.1612
    1W        W34187   2.658   0.024   0.907 -0.2370  0.0452  0.3663
    1W        W34188  24.281  12.475   8.527  0.0562  0.1332  0.2280
    1W        W34189  16.577  11.462   2.013 -0.3195  0.1325  0.0557
    1W        W34190   8.187  26.151   3.144  0.0884 -0.2395  0.2886
    1W        W34191  12.108  11.269   2.269  0.2611  0.2583  0.3586
    1W        W34192  24.958   3.980   9.031  0.0795 -0.3002  0.1734
    1W        W34193  26.041  11.388   0.180  0.3137 -0.1555 -0.0677
    1W        W34194  24.221  15.874   3.244 -0.0061  0.0184  0.1948
    1W        W34195  16.875  25.567   1.285  0.1320  0.1482 -0.0253
    1W        W34196  12.342   1.853   9.999  0.4143 -0.2565  0.0954
    1W        W34197  23.133  13.767   2.239 -0.1730 -0.0999 -0.0075
    1W        W34198  15.560  19.068   8.699  0.0539  0.1962  0.0758
    1W        W34199   7.408   8.526   1.142  0.2422 -0.2571 -0.1286
    1W        W34200  24.820  22.263   9.640 -0.1419 -0.2508  0.0595
    1W        W34201   7.998  19.812   8.119 -0.0181  0.0224  0.1710
    1W        W34202  11.344  25.005   0.716 -0.1039 -0.0131  0.0518
    1W        W34203  18.831   6.694   3.273  0.2823  0.1759 -0.1315
    1W        W34204  17.390  16.321   8.263  0.0832 -0.1092  0.0246
    1W        W34205  21.305  24.381   0.450  0.1204 -0.0183 -0.0357
    1W        W34206  17.699   3.162   7.906  0.2251  0.0553 -0.0097
    1W        W34207  28.020   5.878   6.750 -0.1633  0.2389  0.1621
    1W        W34208  24.227   7.295   1.715 -0.0622 -0.4569  0.0795
    1W        W34209  11.184  26.401   0.167 -0.0780  0.0881  0.3699
    1W        W34210  24.861   3.140   9.595  0.0673 -0.1728 -0.2506
    1W        W34211  25.277   5.545   1.703  0.0310  0.0012 -0.1395
    1W        W34212  11.349   2.274   0.509 -0.1786  0.2192  0.3776
    1W        W34213   1.617  14.375   6.974 -0.0227  0.1697  0.2246
    1W        W34214  25.569   4.712   0.516  0.1228 -0.3090 -0.3874
    1W        W34215  25.173  10.181   8.948 -0.2103  0.0267 -0.1750
    1W        W34216   5.320  17.300   2.059  0.0252 -0.3832  0.1147
    1W        W34217  25.334  17.917   9.247 -0.0726 -0.1363  0.2109
    1W        W34218  23.285   9.079   8.384 -0.3015  0.1011 -0.0765
    1W        W34219   9.279   1.444   7.662 -0.2084  0.0501 -0.2897
    1W        W34220   0.940   8.908   9.175 -0.0404  0.0106 -0.3050
    1W        W34221   4.153   5.330   1.036  0.0281 -0.0899 -0.3641
    1W        W34222  17.885  19.846   8.438 -0.4025  0.1452  0.2558
    1W        W34223  13.519  20.645   8.793  0.0455 -0.2294 -0.0163
    1W        W34224   0.263  14.334   9.752  0.2260 -0.5144  0.0461
    1W        W34225  13.480  16.347   3.293  0.0253  0.1849 -0.1373
    1W        W34226   7.643  24.955   0.949 -0.2411  0.1334 -0.0256
    1W        W34227  22.832   0.418   1.253 -0.0498  0.1978  0.0273
    1W        W34228  22.019  21.835   8.496 -0.1029 -0.3810 -0.2385
    1W        W34229  24.715  21.761   9.556  0.0702  0.0256 -0.0028
    1W        W34230   8.832   5.308   9.530 -0.0552  0.0806  0.0892
    1W        W34231  10.277   6.928   8.398  0.1569 -0.0112  0.4015
    1W        W34232  17.432   7.089   7.479 -0.2525  0.0194 -0.0139
    1W        W34233  10.557   2.708   0.680 -0.2239 -0.0099  0.3773
    1W        W34234  25.438   6.346   9.599  0.5508  0.0585  0.4706
    1W        W34235  25.353   0.960   8.770  0.0518 -0.1437  0.3757
    1W        W34236   4.104   7.617   0.363  0.1477  0.0644 -0.0506
    1W        W34237   8.491   7.014   0.890  0.1468 -0.3597 -0.2677
    1W        W34238  16.281  11.437  10.091 -0.0034  0.4154  0.1212
    1W        W34239  10.478   0.112   7.894 -0.5330  0.1903  0.3859
    1W        W34240  14.593   0.441   0.940 -0.0071 -0.4571  0.2328
    1W        W34241  20.682  16.717   1.032  0.1084  0.1424 -0.2862
    1W        W34242   9.617  14.288   8.472  0.1118 -0.0931 -0.3475
    1W        W34243  22.025  13.535   7.582 -0.0067 -0.2600 -0.0709
    1W        W34244  26.035  21.329   0.977 -0.2357  0.1692 -0.0898
    1W        W34245  15.578  17.071   0.350 -0.0248  0.0348 -0.1941
    1W        W34246  27.330  26.491   2.054 -0.3700 -0.4124  0.2461
    1W        W34247  24.255   6.787   1.769  0.1029  0.0718  0.0499
    1W        W34248  12.732   7.604   8.793 -0.1414 -0.2094  0.1170
    1W        W34249   0.562  21.931   2.354  0.2794 -0.1864  0.0355
    1W        W34250  20.580  25.666   1.527  0.0060 -0.0277  0.1922
    1W        W34251  20.237  21.363   9.437  0.0036 -0.1451 -0.1290
    1W        W34252   3.408   9.243   1.787  0.2079 -0.2160  0.0859
    1W        W34253   6.475  20.351   2.664  0.2295 -0.2089  0.0094
    1W        W34254  21.873  15.492   1.547 -0.4108 -0.0989 -0.1474
    1W        W34255  18.726  25.985   1.766 -0.1459  0.1081 -0.2388
    1W        W34256  26.222  11.669   8.491 -0.2032  0.2601  0.2560
    1W        W34257   4.025   8.551   7.135 -0.0061 -0.1087 -0.1960
    1W        W34258  11.891   4.579   1.464  0.1089  0.2659  0.0190
    1W        W34259  15.893   2.327   0.042 -0.2474 -0.1410 -0.2963
    1W        W34260  21.405   5.338   8.065 -0.2634  0.0343 -0.0823
    1W        W34261  15.311  21.643   1.985  0.2197 -0.1050 -0.0445
    1W        W34262   3.676  16.819   0.937 -0.1237 -0.2163  0.2667
    1W        W34263   1.190   2.138   8.982  0.4160 -0.0962  0.3235
    1W        W34264  21.840  12.536   8.524  0.0384  0.2326 -0.1240
    1W        W34265  17.333  19.546   7.466  0.0230  0.1593 -0.2433
    1W        W34266  22.493  16.090   3.684 -0.3218  0.2455 -0.0102
    1W        W34267  25.068  19.599   6.907 -0.2522  0.1508  0.0644
    1W        W34268  14.876   5.249   9.689 -0.0354  0.0386  0.1010
    1W        W34269  16.666  22.408   0.298 -0.3793 -0.2314 -0.1404
    1W        W34270  21.790  20.159   9.882 -0.1416 -0.2861  0.0278
    1W        W34271   2.714  19.978   2.646  0.3502  0.0244 -0.1358
    1W        W34272   3.703  27.628   8.087  0.1793  0.0896 -0.0135
    1W        W34273  19.474  18.600   2.488 -0.2264 -0.1205 -0.2276
    1W        W34274   2.791   5.966   8.974 -0.1112  0.1416  0.2696
    1W        W34275  14.785  23.189   9.518  0.1109  0.0270 -0.2343
    1W        W34276   0.320  18.407   1.913  0.2770 -0.0576 -0.0844
    1W        W34277   8.325   7.259   8.900 -0.0407 -0.0172  0.1069
    1W        W34278  16.692  16.344   0.515  0.0156 -0.0424  0.0807
    1W        W34279   7.813  27.788   9.664 -0.4005  0.0606  0.1149
    1W        W34280   1.809  23.020   6.931  0.0833 -0.1593  0.2022
    1W        W34281  25.887   6.536   7.158  0.1598 -0.3082  0.0594
    1W        W34282   2.329   6.505   8.008 -0.0637  0.0631  0.2348
    1W        W34283   6.543  16.824   3.900  0.2861 -0.2108  0.0125
    1W        W34284  22.660   1.175   6.964  0.2253  0.1595  0.0072
    1W        W34285   3.266   4.597   0.184 -0.0976  0.1793  0.0055
    1W        W34286  20.232  26.661   1.930 -0.3464 -0.2138  0.0189
    1W        W34287   5.564  11.450   9.991  0.0747 -0.1137 -0.1854
    1W        W34288   1.791   6.623   6.963  0.1715  0.3545  0.0088
    1W        W34289  11.862  19.577   0.074 -0.2216 -0.3822  0.0543
    1W        W34290  13.374   7.180   1.342 -0.0239 -0.1039 -0.0983
    1W        W34291   1.164   7.515   8.683 -0.0905  0.2031 -0.0204
    1W        W34292   9.896  17.287  10.282  0.1200  0.1406 -0.2768
    1W        W34293  25.242  16.939   1.261  0.0864 -0.2980 -0.1928
    1W        W34294   6.120  10.045  10.167  0.1871 -0.0873 -0.0353
    1W        W34295   3.602  13.087   6.980  0.2527  0.2185 -0.0282
    1W        W34296   7.330   7.405   2.540 -0.0719 -0.0297  0.1870
    1W        W34297   5.968  23.173   2.379 -0.1069  0.5088  0.2768
    1W        W34298  14.783   4.683   1.051 -0.1022  0.4132 -0.0224
    1W        W34299  24.478  25.717   2.545  0.2636  0.0523 -0.0706
    1W        W34300  14.394   5.852   8.557 -0.0711  0.0510 -0.0419
    1W        W34301   6.665  18.911   0.368 -0.1336  0.0241 -0.1950
    1W        W34302  15.241   5.601   9.874 -0.1133  0.1658  0.1424
    1W        W34303  26.313   0.750   8.953 -0.0194  0.1595 -0.1720
    1W        W34304  21.828   5.770   7.416  0.1807 -0.2243  0.1180
    1W        W34305   0.371  25.352   2.251 -0.0310  0.2164  0.0657
    1W        W34306   7.186   5.962   2.633 -0.1624  0.1848 -0.1403
    1W        W34307  17.525  12.141   2.645  0.0695 -0.0739  0.0860
    1W        W34308   8.996  26.086   1.263 -0.4325 -0.1738 -0.0795
    1W        W34309   6.467  15.063   1.851 -0.2288  0.1716  0.0206
    1W        W34310  27.370  12.411   8.444  0.3362  0.1861 -0.2644
    1W        W34311  24.456  25.480   9.077 -0.1990 -0.1155  0.1580
    1W        W34312   6.132  15.154   8.248  0.0212  0.2824  0.2388
    1W        W34313  19.448  22.532   1.649  0.2868 -0.0542 -0.1861
    1W        W34314  23.661  18.115   0.908 -0.3907 -0.1663  0.0386
    1W        W34315   5.263  18.757   1.160  0.0113  0.1696  0.0112
    1W        W34316  12.720  26.043   7.806  0.0396 -0.2103 -0.0256
    1W        W34317  17.026  15.443   9.672 -0.1139 -0.1835  0.0736
    1W        W34318  21.856  20.942   3.466  0.1108 -0.3925  0.0440
    1W        W34319  14.829   8.038   7.016  0.1582  0.1974  0.0117
    1W        W34320  27.959  16.109   2.017 -0.0764  0.0473  0.0052
    1W        W34321  24.867   5.139  10.317 -0.1315 -0.0935 -0.2441
    1W        W34322  13.185  16.242   7.300 -0.1242 -0.2396 -0.1055
    1W        W34323   4.429  16.388   7.276  0.1188  0.0560 -0.1159
    1W        W34324  12.295  18.996   8.165  0.0927 -0.0463 -0.1248
    1W        W34325   3.450  12.684   9.416  0.3496 -0.1631 -0.0269
    1W        W34326  13.248  21.920   2.764 -0.0891  0.0889 -0.3115
    1W        W34327  16.161  22.205   0.994  0.1310  0.1390  0.1231
    1W        W34328  21.037  14.192   8.149 -0.1550  0.0532  0.1303
    1W        W34329   0.610  24.840   8.663 -0.2837 -0.3759  0.3004
    1W        W34330  14.313  10.951   0.328 -0.1591 -0.0616 -0.0674
    1W        W34331  19.010  14.055   2.835 -0.1652  0.3230  0.0634
    1W        W34332   2.902   5.806   8.134  0.1074  0.1752  0.0760
    1W        W34333  23.470  11.046   7.938 -0.2972  0.2861  0.0180
    1W        W34334  14.173   1.899   8.763  0.0657 -0.3908  0.1110
    1W        W34335  26.517  19.254   2.064 -0.2858  0.3856 -0.0364
    1W        W34336  26.267  11.879   2.699 -0.2632  0.1415  0.0910
    1W        W34337   5.965  14.192   9.611 -0.1026  0.0376  0.0370
    1W        W34338  21.082   5.842   1.442 -0.0168 -0.2454 -0.3700
    1W        W34339   6.119  17.511   7.392 -0.1408  0.3984 -0.2083
    1W        W34340   3.073   2.257   0.853 -0.3245  0.2439 -0.2801
    1W        W34341  20.875  25.117   9.904 -0.0174  0.1433 -0.1760
    1W        W34342  22.126  15.973   3.267  0.1805 -0.1565 -0.1851
    1W        W34343  17.708  11.222   8.021 -0.2411 -0.0671 -0.0610
    1W        W34344  19.668  23.315   7.740  0.2091  0.1808  0.1908
    1W        W34345  26.530  22.866   7.684  0.0788 -0.1908 -0.0285
    1W        W34346  25.422  25.423   2.488 -0.1056 -0.2849  0.3117
    1W        W34347  23.261  14.236   2.517 -0.2852  0.2227 -0.0535
    1W        W34348  24.570  26.213   9.610 -0.1157  0.2177  0.1719
    1W        W34349  26.414  13.495   9.455  0.0474  0.3733 -0.2944
    1W        W34350  15.437  10.753   0.941  0.2517  0.0417  0.0193
    1W        W34351  18.623   4.932   8.795  0.5972  0.0256 -0.1561
    1W        W34352  12.377  20.613   0.276  0.2575 -0.3180 -0.1483
    1W        W34353   1.625  25.444  10.232 -0.1929 -0.2422  0.0361
    1W        W34354  16.975  14.450   0.458  0.0072 -0.0103 -0.0036
    1W        W34355  16.872  18.116   9.579 -0.1474 -0.0286 -0.1605
    1W        W34356  25.281  10.732   7.132 -0.1694  0.1207 -0.0338
    1W        W34357  23.498  20.852   3.107 -0.0898 -0.1120 -0.1235
    1W        W34358   1.107  21.053   6.362  0.1387  0.1010 -0.3745
    1W        W34359  25.581   6.241   0.801  0.0252  0.0203 -0.0934
    1W        W34360   1.866  16.519   7.698 -0.5004  0.2515 -0.2312
    1W        W34361  16.332   7.835   1.722  0.2734  0.2276  0.1013
    1W        W34362  25.156  24.286  10.273 -0.0907  0.0415 -0.2412
    1W        W34363  10.911   5.218   8.249 -0.0342 -0.2021  0.4442
    1W        W34364  20.462  26.223   0.731  0.1511  0.2987  0.0518
    1W        W34365   7.954  27.118   9.760  0.1299  0.2636 -0.0630
    1W        W34366   7.797   8.638   8.357  0.0425 -0.0401  0.1184
    1W        W34367   4.596  15.792  10.213 -0.1505  0.0881 -0.2761
    1W        W34368   6.543   5.472   2.070  0.2085 -0.2349 -0.0251
    1W        W34369  21.016  25.143   2.266  0.0088 -0.1595  0.1519
    1W        W34370  18.929  17.391  10.217  0.1248  0.1553 -0.0833
    1W        W34371   9.343  15.155   7.686 -0.0434 -0.0393  0.0968
    1W        W34372  15.772   9.199   1.651 -0.1143  0.0456 -0.0928
    1W        W34373  23.797   4.303   8.158 -0.1987  0.0428  0.1793
    1W        W34374  22.766  18.051   9.956  0.2408 -0.0461 -0.1461
    1W        W34375   3.221  15.033   9.398  0.3628  0.0888  0.0380
    1W        W34376  13.842   9.689   1.019  0.0513  0.1066  0.1114
    1W        W34377  10.114  19.602   0.357 -0.0122  0.1693  0.2213
    1W        W34378  23.629   2.452   9.577  0.0694 -0.1526 -0.0652
    1W        W34379   8.980   1.762   7.987  0.0438 -0.0372  0.1314
    1W        W34380  15.200  20.716   9.882 -0.1578  0.3055  0.0257
    1W        W34381   2.085   9.975   1.707 -0.0261  0.1370  0.1495
    1W        W34382  24.889  20.190   2.752  0.3048  0.0670 -0.2400
    1W        W34383  23.112   5.617   1.264 -0.0237 -0.1243 -0.0222
    1W        W34384  13.547   7.673   0.505  0.0037 -0.1669  0.5109
    1W        W34385  12.283  16.002   0.724 -0.0508 -0.1215 -0.2598
    1W        W34386   8.431   7.644  10.255 -0.1818 -0.2332  0.1028
    1W        W34387  20.210   1.070   1.270 -0.0518 -0.3843  0.0375
    1W        W34388  20.242  25.851   1.163 -0.0615  0.0059  0.0417
    1W        W34389  13.946   4.564   2.117 -0.0191  0.1780  0.0952
    1W        W34390  16.135   0.336   9.082  0.0982  0.0213  0.1098
    1W        W34391  23.295  14.891   8.034 -0.0651 -0.0583 -0.1136
    1W        W34392  11.490  26.147   0.858  0.2939 -0.0299  0.0983
    1W        W34393   5.715  22.181   0.741 -0.0550  0.3165  0.0368
    1W        W34394   2.443  11.759   1.193  0.1109 -0.0948  0.2940
    1W        W34395   1.504   3.556  10.088  0.3794 -0.0106  0.0358
    1W        W34396  19.353  15.878   1.381 -0.1542  0.2051  0.0476
    1W        W34397  19.235  17.370   8.062  0.1100  0.2165 -0.0593
    1W        W34398  12.065  25.720   2.046 -0.0393  0.1546 -0.1989
    1W        W34399  23.433  22.424   2.591 -0.0650  0.0517 -0.2540
    1W        W34400  17.351   2.260   0.562  0.1162 -0.1982  0.0102
    1W        W34401   6.147  23.998   3.272  0.1606 -0.1205 -0.1415
    1W        W34402  12.641   8.022   1.176 -0.0005  0.3022  0.6712
    1W        W34403   4.871   8.505   3.030  0.2819 -0.3348  0.1436
    1W        W34404  25.725  26.121   3.229 -0.0536 -0.0749 -0.0881
    1W        W34405  19.978  22.790   0.328  0.2876  0.2737 -0.4473
    1W        W34406  18.441  14.309   0.484 -0.2334  0.0620  0.2658
    1W        W34407  12.143  24.927   8.000  0.1640 -0.0021 -0.0522
    1W        W34408   1.903  24.019   7.834  0.1595 -0.1117  0.1632
    1W        W34409  23.039  15.601   1.283  0.1160  0.2381 -0.1394
    1W        W34410  25.423  10.360   8.505  0.0782  0.1333  0.0474
    1W        W34411  13.202  22.876   3.523  0.2788 -0.0987 -0.1053
    1W        W34412  21.823  27.115   1.857  0.1785 -0.2604  0.0170
    1W        W34413   6.642  18.993   8.445  0.2098 -0.3656  0.0530
    1W        W34414  17.733   5.323   9.480 -0.2075  0.1216  0.0406
    1W        W34415  21.513   9.706   2.265  0.2147 -0.1851  0.0311
    1W        W34416  26.633  11.865   8.195 -0.2265  0.0018 -0.3533
    1W        W34417  12.377   6.920   8.591 -0.1128 -0.1875 -0.0561
    1W        W34418  17.802   7.063   0.049  0.0157  0.0652 -0.0841
    1W        W34419  26.545   1.635   7.529 -0.1495  0.1225  0.0942
    1W        W34420   5.623  22.426   0.027  0.2284 -0.2132 -0.1259
    1W        W34421  19.762   3.210   6.943  0.1466 -0.0314 -0.0102
    1W        W34422   6.142   0.582   2.248  0.1340 -0.0988 -0.0837
    1W        W34423   0.521   4.697   6.970  0.2594  0.1579 -0.0907
    1W        W34424  26.553   5.670   2.767 -0.2714  0.1271 -0.0812
    1W        W34425  14.270   1.773   7.259 -0.0814 -0.1379  0.1060
    1W        W34426   5.959  11.609   2.284  0.1122  0.3580  0.3744
    1W        W34427   4.332  16.674   1.944 -0.2640  0.2352  0.1200
    1W        W34428   0.123  14.847   0.552 -0.0244 -0.0038  0.0029
    1W        W34429   2.833  24.822   1.501  0.0506  0.1147  0.0853
    1W        W34430   3.622  25.130   2.155  0.0155  0.0849 -0.0317
    1W        W34431  10.508   5.629   9.617  0.0078  0.0348  0.0035
    1W        W34432   7.711   6.226   6.950 -0.1977  0.1048  0.0815
    1W        W34433  19.639  16.543   7.963  0.1558  0.0204 -0.1971
    1W        W34434  18.536  26.591   9.682  0.2048  0.0012  0.0289
    1W        W34435   1.588   2.640   6.868  0.0798  0.2266 -0.2142
    1W        W34436  13.227  14.809   0.559  0.2015  0.2522  0.2039
    1W        W34437   8.101   2.889  10.198 -0.2966 -0.0900 -0.0127
    1W        W34438   9.699   9.895   8.354 -0.4295  0.2166  0.0872
    1W        W34439  18.353  24.409   1.514  0.2155 -0.2343 -0.2280
    1W        W34440  21.572   4.479   2.540 -0.1814 -0.0616  0.0057
    1W        W34441   7.546  17.420   7.717  0.1922  0.1550 -0.2232
    1W        W34442  26.971   3.997   7.856  0.0509 -0.2049 -0.0811
    1W        W34443  10.727  20.505   7.948 -0.2582  0.1675  0.0421
    1W        W34444  24.246   9.934   6.886  0.2934 -0.1066  0.4316
    1W        W34445  20.876   9.832  10.065 -0.2987  0.2438 -0.2204
    1W        W34446  21.695  13.997   0.767  0.1754  0.2057 -0.4228
    1W        W34447  25.731  26.223   1.485  0.0171 -0.2213  0.1336
    1W        W34448   8.500  20.649   8.289  0.0244  0.1895  0.1898
    1W        W34449   6.934   6.554   0.303  0.0091 -0.1064 -0.2439
    1W        W34450   1.463   1.317   6.568  0.0461  0.2660  0.0969
    1W        W34451  17.575  19.053   1.976 -0.2638  0.0412 -0.0116
    1W        W34452   7.740  19.495   0.387 -0.1641  0.0323 -0.2559
    1W        W34453   3.826  14.403   8.129 -0.3884  0.0753  0.1962
    1W        W34454  18.608   5.804   0.184  0.3578 -0.2158 -0.2571
    1W        W34455  16.202   6.885   1.579 -0.1694 -0.3400  0.1349
    1W        W34456  23.009  21.959   9.680  0.2678  0.2167  0.3184
    1W        W34457  26.286   4.497   1.779 -0.2749 -0.0293  0.4438
    1W        W34458  10.940  25.168   0.154  0.0247  0.0258 -0.1996
    1W        W34459  15.988   3.566   0.489  0.1499 -0.1421  0.2418
    1W        W34460  19.664  13.014   1.306  0.4360  0.0475 -0.2001
    1W        W34461   9.005  22.464   0.458 -0.0879 -0.1566  0.0759
    1W        W34462  25.820   3.343   9.198  0.0481  0.2451 -0.0484
    1W        W34463  25.737   2.858   1.531  0.2548 -0.3586 -0.1366
    1W        W34464   7.768  26.708   7.364  0.1292 -0.0522  0.2263
    1W        W34465   6.740  17.469  10.232  0.5389 -0.4740 -0.2249
    1W        W34466   6.274  17.464   7.901 -0.0199  0.0463  0.1524
    1W        W34467   8.037  13.467   0.708 -0.4029 -0.1603  0.2264
    1W        W34468   3.587  10.838   6.537 -0.0988 -0.1686 -0.1793
    1W        W34469  19.217  22.160   3.522 -0.1069 -0.1416  0.0159
    1W        W34470  15.187   3.241   8.391  0.1029 -0.1710 -0.1596
    1W        W34471  13.713   3.276  10.196 -0.2786 -0.1010  0.2402
    1W        W34472  27.075   5.578   5.815 -0.1636 -0.0999 -0.0804
    1W        W34473  20.971   4.280   9.130 -0.0194 -0.1534  0.1792
    1W        W34474  20.775  23.021   8.899 -0.1842 -0.1927  0.3701
    1W        W34475  15.543  16.651   7.467 -0.0407 -0.1040 -0.0806
    1W        W34476  24.189   1.635   3.454 -0.0770 -0.2456  0.0543
    1W        W34477  26.615  11.242  10.322 -0.1834  0.1908  0.0269
    1W        W34478  19.141  23.406   2.209  0.3521  0.2356 -0.2631
    1W        W34479  23.602  21.404   2.829  0.0340  0.0003 -0.3163
    1W        W34480   9.406  12.690   2.002  0.2009  0.0388 -0.0550
    1W        W34481  23.125  24.168   8.450  0.0910 -0.0245 -0.0716
    1W        W34482  19.998  10.993   2.983 -0.1254  0.1816 -0.0267
    1W        W34483   5.417  11.410   7.217 -0.1054 -0.1128 -0.0799
    1W        W34484  13.196  26.387   6.677  0.0784 -0.0495 -0.0294
    1W        W34485   6.945  26.207   9.564  0.0084 -0.1977  0.0091
    1W        W34486   2.348   8.759   9.795  0.2810  0.1500 -0.0465
    1W        W34487  23.919  13.054   3.097  0.1006 -0.2554  0.0958
    1W        W34488  28.042  18.856   8.687 -0.0441  0.1712 -0.0032
    1W        W34489  19.288  11.128   7.054 -0.1630 -0.3611 -0.4626
    1W        W34490   3.702  17.637   1.206  0.1566  0.0049  0.0296
    1W        W34491   0.147  17.580   9.052 -0.2464  0.0464  0.1116
    1W        W34492  17.968   6.567   1.574 -0.1104 -0.2540  0.0945
    1W        W34493  25.188  22.088   2.072 -0.0179  0.3817  0.2966
    1W        W34494  23.813   1.809   2.088 -0.1679  0.0108  0.0409
    1W        W34495  20.285  28.017   9.322 -0.1616  0.0246 -0.1079
    1W        W34496   3.715   8.179   2.372  0.2326 -0.0020 -0.1115
    1W        W34497  16.348   1.411   0.294 -0.0230 -0.0196 -0.3623
    1W        W34498   9.910  21.948   1.009 -0.0028  0.0426  0.0593
    1W        W34499   2.360   1.869   6.287  0.0090 -0.1958  0.0442
    1W        W34500   0.349   7.643   1.366  0.0476  0.2899  0.0003
    1W        W34501  21.334   9.155   8.931 -0.2578  0.0354  0.1138
    1W        W34502  12.740  21.062   9.320  0.0429  0.0987 -0.1435
    1W        W34503  27.629  27.267   1.834  0.0352 -0.4614 -0.2006
    1W        W34504   4.645   3.078   7.381  0.0298 -0.2484 -0.0784
    1W        W34505  26.621  16.538   7.132 -0.1882 -0.0031  0.0460
    1W        W34506  24.068  19.256   1.724 -0.0745 -0.0560 -0.2890
    1W        W34507  21.060  19.464   2.629  0.5221 -0.0011 -0.0698
    1W        W34508  27.260   7.433   1.247 -0.6879  0.3090  0.1807
    1W        W34509  18.210  11.052   7.883 -0.0777  0.6172  0.0360
    1W        W34510  10.433  14.071  10.097 -0.2191  0.0830  0.1774
    1W        W34511   8.227   3.766   1.177 -0.2421 -0.0186 -0.1779
    1W        W34512  14.293   7.623   9.676 -0.0883  0.0340 -0.0026
    1W        W34513  26.182  20.748   1.847 -0.1284  0.3765 -0.2856
    1W        W34514   8.398  25.653  10.001  0.1377 -0.2129 -0.0470
    1W        W34515   7.445  20.473   8.539  0.0810  0.0457  0.1590
    1W        W34516   7.052  16.391   0.897 -0.1731 -0.0380 -0.0195
    1W        W34517  22.839  27.220   3.493 -0.0864 -0.1469  0.1265
    1W        W34518   6.952   8.204   9.419 -0.1112  0.0827 -0.2775
    1W        W34519  27.681  17.159   8.911  0.0660 -0.0182 -0.2292
    1W        W34520  22.791  16.184   9.179  0.2645  0.0276 -0.1350
    1W        W34521   7.971  25.583   3.157 -0.1892  0.2629  0.0500
    1W        W34522   0.002  15.609   1.719  0.0451 -0.0795  0.0357
    1W        W34523  18.060   0.824   2.209 -0.1121  0.0084 -0.2740
    1W        W34524   2.838  27.015   0.621 -0.0557 -0.0960 -0.2113
    1W        W34525  15.223   7.838   9.821 -0.1097  0.0666  0.0259
    1W        W34526  26.597  18.917  10.013  0.1013 -0.1260  0.3118
    1W        W34527  24.355   3.295   1.527  0.0272  0.1876 -0.2598
    1W        W34528   0.713  25.164   1.872  0.0368 -0.3094 -0.3191
    1W        W34529   7.269  19.862   7.538 -0.0911 -0.1897  0.0423
    1W        W34530   1.416   0.731   1.943 -0.4168 -0.1397 -0.1705
    1W        W34531   9.356  23.655   2.652 -0.0890  0.2627  0.1448
    1W        W34532  20.893  21.122   2.082 -0.1678 -0.1110  0.0668
    1W        W34533  19.898   4.008   7.374 -0.0393 -0.3013 -0.3408
    1W        W34534  17.646  22.509   9.690 -0.1377  0.2854 -0.3181
    1W        W34535  24.449  25.468  10.068 -0.1154 -0.0953  0.0559
    1W        W34536  16.006  25.729   3.039 -0.5812 -0.0300  0.0877
    1W        W34537  15.642   2.397   9.481  0.2306 -0.2342 -0.0846
    1W        W34538  26.684   2.825   1.847 -0.0936  0.0622 -0.1867
    1W        W34539   3.938  12.267   6.737 -0.1703  0.2369 -0.0999
    1W        W34540   7.653  24.406   3.765  0.0879 -0.1979 -0.2633
    1W        W34541   2.058  14.734   2.344 -0.0109 -0.0270 -0.0301
    1W        W34542   7.428   5.518  10.176 -0.2810 -0.1026 -0.2386
    1W        W34543   1.522  14.961   6.877 -0.4929  0.0162  0.0583
    1W        W34544  11.294  17.442   1.165  0.1000 -0.0894  0.0395
    1W        W34545  16.625  25.586   3.096 -0.1521 -0.1892  0.2980
    1W        W34546  10.778  17.192   7.918  0.3014 -0.1442 -0.0349
    1W        W34547  11.815   6.075   8.737 -0.2566 -0.3050 -0.3072
    1W        W34548  26.430   7.357   7.975 -0.0548 -0.2735 -0.2862
    1W        W34549   9.456   8.060  10.127  0.1258  0.0320 -0.0756
    1W        W34550  25.534  23.386   0.185 -0.3264 -0.0371  0.1032
    1W        W34551   6.615  22.151   7.275 -0.3007  0.3108 -0.0033
    1W        W34552  17.296  12.862   6.988  0.1483 -0.0683  0.0751
    1W        W34553  14.492  10.757   0.801  0.0667 -0.0914  0.0271
    1W        W34554   8.719  19.359   1.590 -0.0521 -0.1162  0.1831
    1W        W34555  12.119  10.781   9.395  0.0304 -0.0063  0.0442
    1W        W34556  10.022   2.461   8.965  0.1220 -0.0306  0.2927
    1W        W34557   4.184   7.255   2.300  0.2390  0.2508 -0.1395
    1W        W34558  16.689  10.690   4.129  0.0605  0.0876  0.0681
    1W        W34559   5.459  10.621   9.191  0.1179 -0.2006  0.1530
    1W        W34560  25.822  23.863   8.728  0.1448 -0.0528 -0.1846
    1W        W34561  18.125   7.100   7.927  0.0608  0.1463 -0.2089
    1W        W34562   6.529  18.845   9.812  0.0735 -0.1455  0.0789
    1W        W34563   7.984   6.325   8.688 -0.2123 -0.1775  0.1593
    1W        W34564  25.990  16.340   2.775  0.2659 -0.3741  0.2392
    1W        W34565  11.780  22.049   1.291  0.3307  0.0201  0.0998
    1W        W34566   2.558   9.033   0.218  0.1405  0.0659 -0.0989
    1W        W34567  11.675  22.714   0.848 -0.1409  0.1941  0.1272
    1W        W34568   5.315  22.538   7.891  0.1028  0.2455 -0.2765
    1W        W34569   5.106  13.084   1.713 -0.0426  0.2175 -0.0978
    1W        W34570   3.478   0.370   9.847 -0.3038 -0.0014 -0.0897
    1W        W34571   6.899  19.786   1.508 -0.0527 -0.1525 -0.0998
    1W        W34572  16.951   5.537   1.506 -0.0746  0.0138 -0.4372
    1W        W34573  26.980  10.765   1.665  0.0636 -0.3302 -0.3228
    1W        W34574  21.791   9.144   0.630 -0.0197 -0.2828 -0.1148
    1W        W34575   2.759  22.686   2.264  0.1277  0.1363 -0.1626
    1W        W34576  15.023  13.169  10.155 -0.2637  0.1473  0.2231
    1W        W34577  23.505  18.014   1.429  0.0076  0.0568 -0.1206
    1W        W34578  12.828  19.590   1.034  0.2958  0.1170  0.1393
    1W        W34579   5.148  20.686   2.474  0.0019  0.2909 -0.4222
    1W        W34580  11.380  25.535   0.385  0.3939  0.1513 -0.0697
    1W        W34581  13.537   5.471   9.658  0.2496  0.1203  0.1878
    1W        W34582   3.336  16.722   1.827  0.1856  0.3527 -0.0535
    1W        W34583  20.527   1.408   1.901  0.0048 -0.0506 -0.1245
    1W        W34584  24.941  24.323   8.699 -0.3424  0.1517  0.0059
    1W        W34585  27.429  10.325   1.463  0.1102 -0.3938  0.0773
    1W        W34586  25.882  26.865   9.484 -0.0606  0.0365 -0.1102
    1W        W34587  10.224  10.017   2.649  0.1594  0.1706  0.2350
    1W        W34588  14.402  20.591   1.153  0.0651 -0.2319  0.1985
    1W        W34589   3.739  13.414   8.265  0.0469  0.1616  0.2002
    1W        W34590  17.152  23.229   7.237  0.0747 -0.2783 -0.2441
    1W        W34591  27.505  10.194   9.291 -0.1932 -0.3791  0.1130
    1W        W34592  18.959  23.675   9.049  0.3170 -0.4963  0.1360
    1W        W34593  16.275  27.924  10.319 -0.2689  0.0405  0.0645
    1W        W34594  17.448   8.325   2.291 -0.3743  0.0647  0.0389
    1W        W34595   6.006  21.271   9.225  0.0169  0.0990 -0.0338
    1W        W34596  17.322  10.866   7.082  0.0691 -0.1379 -0.2670
    1W        W34597  23.480  27.429   1.301 -0.4240  0.1765  0.1379
    1W        W34598   4.934  26.409   2.798  0.2114  0.1748 -0.4129
    1W        W34599  12.360  26.304   0.861  0.0469  0.0385  0.1402
    1W        W34600   8.375  22.047   8.692 -0.0247 -0.3430 -0.1033
    1W        W34601  10.968  24.723   8.275  0.2084 -0.1451 -0.0886
    1W        W34602  25.854  27.289   2.277  0.1589  0.0631 -0.2581
    1W        W34603   6.899  25.527   8.338  0.0848  0.1444 -0.1898
    1W        W34604  23.657   8.201   9.363 -0.2529  0.1244 -0.2565
    1W        W34605  25.989  26.538   0.077  0.0344  0.0665 -0.1230
    1W        W34606  21.748  24.308   0.767 -0.0747 -0.3409 -0.0124
    1W        W34607  19.476  16.229   9.852 -0.1504  0.0234  0.3172
    1W        W34608  17.719   2.108   3.984 -0.2400  0.2579 -0.0433
    1W        W34609  25.946   3.891   8.051  0.2190 -0.3067 -0.0725
    1W        W34610  16.164  19.317   0.900 -0.2207  0.2068  0.1413
    1W        W34611   3.668  25.219   8.569  0.0238  0.2134  0.1329
    1W        W34612  16.901  11.277   2.409 -0.0359  0.1364 -0.1277
    1W        W34613  13.975   0.665   9.622 -0.0608 -0.0851  0.1011
    1W        W34614   3.763  11.012   9.350 -0.0831 -0.1263  0.0491
    1W        W34615   6.790  24.331   7.258  0.1595  0.0430  0.0298
    1W        W34616   6.776  26.209   7.796  0.3690  0.2300  0.2265
    1W        W34617  17.960   9.460   3.957 -0.4667  0.1602 -0.0376
    1W        W34618  15.661   9.059   0.921 -0.0367  0.2941  0.1890
    1W        W34619  19.313  10.623   2.127  0.3450 -0.0905  0.0803
    1W        W34620  18.802  23.699   1.858  0.0518 -0.0967 -0.0141
    1W        W34621  25.597  22.206   6.555 -0.0669 -0.1337  0.2009
    1W        W34622   2.231   0.963   6.728  0.2455 -0.4009  0.1010
    1W        W34623  12.132   6.150   3.013 -0.0720  0.0535  0.0230
    1W        W34624  21.463   3.309   0.041 -0.1197  0.1020 -0.1686
    1W        W34625  16.996   7.146   2.847 -0.2015  0.1723  0.0757
    1W        W34626   4.005  12.861   9.345  0.1174  0.0717  0.0649
    1W        W34627  15.028  24.792  10.321 -0.0296 -0.1295 -0.0710
    1W        W34628   8.844   3.742   2.168 -0.3807 -0.1608  0.0587
    1W        W34629  11.866  12.089   1.009 -0.2143  0.3055 -0.1541
    1W        W34630  26.179  27.526   0.294 -0.0199 -0.0467 -0.0469
    1W        W34631  22.292  24.231   0.682  0.1479 -0.0569 -0.4918
    1W        W34632  17.100  24.109   9.579  0.1694  0.0111  0.2508
    1W        W34633  19.429  16.794   0.337  0.1477 -0.0245  0.0188
    1W        W34634  27.064  13.043   9.900  0.0007  0.1075 -0.1420
    1W        W34635  13.408  22.360   1.413  0.1583 -0.0448  0.2859
    1W        W34636  22.820  22.233   1.096  0.2671 -0.1817  0.1089
    1W        W34637  22.228   7.257   1.597  0.0927 -0.0099 -0.0361
    1W        W34638  21.219  26.610   8.894  0.0019 -0.0897  0.3127
    1W        W34639  24.227  15.710   2.444 -0.2009 -0.1112 -0.1257
    1W        W34640  16.599   7.284   0.682 -0.2651  0.1472 -0.3113
    1W        W34641  17.169  25.859   0.950 -0.4419 -0.2517  0.1152
    1W        W34642  18.561   7.995   8.784 -0.1708  0.2389  0.1155
    1W        W34643   8.016   1.474   1.071 -0.2867 -0.0924 -0.5384
    1W        W34644  17.995  10.117   8.190  0.0955  0.0089  0.1306
    1W        W34645  12.000   8.012   1.284  0.1034 -0.1261  0.0506
    1W        W34646  20.613  23.424   8.028 -0.3036 -0.0866  0.0247
    1W        W34647  19.159  17.777   0.163  0.0467  0.2787 -0.1697
    1W        W34648   8.036  16.296   0.950 -0.0882 -0.1246 -0.0717
    1W        W34649  17.428  10.811  10.279  0.2331 -0.1570 -0.0814
    1W        W34650  10.177  19.048   1.742  0.0443  0.1365 -0.0082
    1W        W34651   9.115   7.697  10.020  0.0667  0.2756  0.2875
    1W        W34652  22.081  17.352   8.713  0.0493 -0.0225 -0.0472
    1W        W34653  12.842  16.355   2.068  0.3149 -0.0262 -0.1633
    1W        W34654   0.553  11.830   7.904 -0.0265 -0.0362  0.0202
    1W        W34655  25.379  25.234   7.871  0.0278  0.1186  0.2665
    1W        W34656  19.258   6.545  10.313  0.0949 -0.1799 -0.1271
    1W        W34657   9.642   6.074   9.116 -0.1396  0.1215  0.2762
    1W        W34658   1.969  27.991   9.281 -0.0508  0.0608 -0.0087
    1W        W34659  16.553  27.582   1.098  0.1968  0.0073 -0.0327
    1W        W34660  18.302   1.511   8.261 -0.1967 -0.0019 -0.2379
    1W        W34661  27.638   1.179  10.037 -0.0543  0.1576  0.2602
    1W        W34662   3.943   3.497   6.610  0.0276 -0.0599 -0.2346
    1W        W34663  22.798  22.952   1.810 -0.0862  0.1577 -0.0696
    1W        W34664  28.114  25.171   9.563 -0.0165 -0.0228 -0.0189
    1W        W34665  26.996  16.454   9.753  0.1467  0.2262 -0.2449
    1W        W34666  23.058   6.184   2.319 -0.0192 -0.1243 -0.0198
    1W        W34667  20.703  20.888   2.522 -0.1644 -0.0545 -0.1700
    1W        W34668   9.114  28.040   7.589 -0.2052  0.5204  0.3625
    1W        W34669  21.451  10.409   3.690 -0.1631 -0.0728 -0.0460
    1W        W34670   3.093  11.534   7.560  0.1131 -0.2382 -0.1495
    1W        W34671   7.182  23.087   2.757 -0.0505  0.1141  0.2749
    1W        W34672  13.469   1.165   0.192  0.1231 -0.3744  0.2887
    1W        W34673  23.525  11.845   8.482  0.2131 -0.2819 -0.2052
    1W        W34674  25.369   4.796  10.355  0.0321  0.0935  0.1933
    1W        W34675  25.883   9.511   9.878  0.2816  0.0941  0.0940
    1W        W34676   5.904   4.298   9.063 -0.2470 -0.0456  0.0672
    1W        W34677   7.824   1.725   0.635  0.0082  0.1167  0.1007
    1W        W34678  18.485  17.511   2.732 -0.1652 -0.2609 -0.2963
    1W        W34679  21.332   6.178   2.176  0.1449 -0.2767 -0.0571
    1W        W34680   1.590  27.425   7.647  0.1258 -0.0074  0.0504
    1W        W34681   7.025  23.928   7.167  0.2310  0.2426 -0.0225
    1W        W34682   5.449  17.178   2.848 -0.1518 -0.0869 -0.0686
    1W        W34683   5.226  20.789   1.073  0.3875 -0.1239  0.1091
    1W        W34684  10.257   9.207   9.574  0.0042  0.3743 -0.1978
    1W        W34685  22.572   4.219   9.665 -0.2176 -0.0963 -0.1565
    1W        W34686  14.764   3.614   8.590  0.3352 -0.1449 -0.0286
    1W        W34687  13.950  23.687   8.573  0.2257 -0.0821 -0.1079
    1W        W34688  26.564   0.980   8.135 -0.1614 -0.0984 -0.1828
    1W        W34689  11.291  26.218   8.932 -0.0490 -0.1535  0.3499
    1W        W34690  10.186   2.855   8.703  0.0153  0.1640 -0.0464
    1W        W34691  20.371  24.759   7.244  0.4124  0.3045 -0.0936
    1W        W34692   5.989  14.194   1.442 -0.0027 -0.4530  0.0179
    1W        W34693  12.258   9.231   1.184 -0.1020 -0.1556  0.1837
    1W        W34694   3.549  19.063   2.522  0.1117  0.0485  0.1164
    1W        W34695   9.386   8.983   7.404  0.0472 -0.3564  0.1028
    1W        W34696  13.040  22.454   7.579 -0.1211  0.1468  0.0046
    1W        W34697   5.512  25.758   9.391  0.0353 -0.5202 -0.3178
    1W        W34698   9.726  22.251   8.102  0.0150  0.0635 -0.1384
    1W        W34699   0.874  25.310   9.049 -0.0736 -0.0377 -0.1099
    1W        W34700   2.040  13.948   9.367  0.0257 -0.1859  0.1027
    1W        W34701   8.657  20.328  10.324 -0.0626  0.0739 -0.0559
    1W        W34702   3.101  12.484  10.257 -0.1323 -0.0078  0.0017
    1W        W34703  11.991   7.433   3.181 -0.0765  0.0267 -0.1183
    1W        W34704  14.775  27.250   9.078  0.0535 -0.3233 -0.2864
    1W        W34705  10.081  21.204   0.097 -0.0557  0.0091 -0.3026
    1W        W34706  19.997  10.167   9.632 -0.2134 -0.2545  0.2586
    1W        W34707  15.810  19.276   9.632 -0.1733  0.1339 -0.2454
    1W        W34708   6.169  10.949   2.739 -0.1244 -0.1069  0.1673
    1W        W34709  16.212  22.282   8.210 -0.0286 -0.2583  0.1542
    1W        W34710  20.103   4.400  10.278 -0.0397  0.1710 -0.0052
    1W        W34711   2.612  21.160   3.381 -0.0524 -0.0866 -0.0909
    1W        W34712  17.263   0.042   0.119 -0.0287  0.1701  0.0546
    1W        W34713  17.864   5.606   8.475  0.0628  0.0980 -0.0033
    1W        W34714  20.761  22.173   9.621  0.2426  0.0782  0.0922
    1W        W34715  25.312  22.089   6.177 -0.0984 -0.0528  0.2782
    1W        W34716   4.206  20.327   2.742 -0.1711 -0.3987  0.0769
    1W        W34717  22.430  22.938   9.332  0.1200  0.1280 -0.0035
    1W        W34718  19.865  26.972   1.891  0.3577  0.1101 -0.1493
    1W        W34719   4.543  12.419  10.208 -0.2795 -0.2750  0.0063
    1W        W34720  11.176   6.773   7.854  0.2674 -0.1770  0.1013
    1W        W34721  21.310   9.977   2.633  0.0835  0.0718 -0.1951
    1W        W34722  12.251  18.986   2.183  0.2751  0.0189  0.0496
    1W        W34723   5.533  20.371   9.358 -0.1104  0.4278 -0.0399
    1W        W34724   4.311   3.761   9.202 -0.1646  0.0923 -0.2027
    1W        W34725  14.674  27.032   1.648  0.0309 -0.0333 -0.0035
    1W        W34726  27.639  10.750   8.684 -0.0069  0.3232  0.1733
    1W        W34727  19.691  17.163   0.093 -0.0022 -0.0165  0.1744
    1W        W34728   9.563  27.320  10.035  0.0434 -0.0208 -0.1388
    1W        W34729  17.246  24.971   2.622  0.0586  0.0527 -0.0737
    1W        W34730  13.208   0.177   9.028 -0.2051  0.2086 -0.2294
    1W        W34731   3.393  22.897   7.586  0.1241 -0.0793 -0.0758
    1W        W34732  25.953  21.146   0.233 -0.0326 -0.0628 -0.3430
    1W        W34733   1.551   9.970   0.881  0.1702 -0.2979 -0.0102
    1W        W34734  19.160  13.466   1.410  0.1077 -0.3921  0.1936
    1W        W34735  20.804   8.365   2.816  0.0976  0.2050 -0.1205
    1W        W34736  21.366  16.807  10.357  0.1285 -0.3183  0.2077
    1W        W34737   3.442  21.528   2.436 -0.2330  0.0004 -0.4164
    1W        W34738   9.609   8.480   7.112 -0.1438  0.0616  0.0921
    1W        W34739   5.049  13.278   1.208  0.1513 -0.0553 -0.2161
    1W        W34740   9.761  15.005   7.484  0.1016  0.1297  0.3501
    1W        W34741  21.394   4.620   2.010 -0.1698  0.1505  0.0134
    1W        W34742  13.063   4.287   8.184 -0.2933  0.3601  0.0599
    1W        W34743   9.884  28.016   1.896 -0.1048 -0.0117 -0.0180
    1W        W34744  15.434  14.616   2.108  0.1786  0.1279  0.2682
    1W        W34745   4.917   4.027   0.033  0.2840  0.1872 -0.0232
    1W        W34746  15.478   1.852   3.051 -0.2842  0.1163 -0.1676
    1W        W34747  17.689   9.293   7.347  0.2279  0.0543 -0.2016
    1W        W34748  12.600  28.116   1.853 -0.2502  0.1979 -0.1700
    1W        W34749  23.012   4.051   7.090  0.0056 -0.0989 -0.0584
    1W        W34750   2.090  26.807   1.044  0.1722 -0.0601  0.0165
    1W        W34751  17.895  23.009   0.433 -0.1299 -0.0846  0.0092
    1W        W34752  22.689  21.893   3.225  0.0453 -0.0584 -0.1105
    1W        W34753   7.132   0.560   8.056  0.1098 -0.2526 -0.2398
    1W        W34754   6.254  14.816   9.397  0.1560 -0.0171  0.2138
    1W        W34755   8.514  15.923   0.143  0.1706  0.0688  0.1396
    1W        W34756  25.813  19.610   8.668 -0.0408 -0.0771  0.1063
    1W        W34757  24.700  23.172   2.854  0.0795  0.1833 -0.1107
    1W        W34758   7.905  23.737   9.064  0.0661 -0.1500  0.1420
    1W        W34759  26.211  20.470   0.774  0.4939  0.4841  0.1095
    1W        W34760  10.907   8.696   1.056 -0.0025 -0.0460 -0.1499
    1W        W34761   0.142   5.352   1.477 -0.0447 -0.0905 -0.2920
    1W        W34762  24.795  24.270   3.269 -0.2061  0.5337  0.2131
    1W        W34763   9.749  14.945   3.126 -0.0095 -0.2945  0.1137
    1W        W34764  11.774  27.456   8.021  0.1214 -0.3173  0.1625
    1W        W34765  15.373   8.264   3.947  0.0979 -0.2773  0.0533
    1W        W34766  25.289   6.887   0.770 -0.1136 -0.2534  0.1423
    1W        W34767  23.167  27.922   3.192 -0.1516  0.4200 -0.0358
    1W        W34768  14.584  25.052   2.793  0.0616  0.2044 -0.5494
    1W        W34769   3.579   6.252   8.602 -0.0698 -0.4170 -0.1099
    1W        W34770  18.120   8.002   0.311  0.3312  0.0309  0.3537
    1W        W34771  20.954   2.838   0.028 -0.4506 -0.3969 -0.1947
    1W        W34772   4.906  21.673   8.092  0.0344  0.1377 -0.1865
    1W        W34773  18.137  21.055   9.235 -0.1764 -0.2205  0.0649
    1W        W34774   2.636  17.878   0.635  0.1270  0.2891 -0.2320
    1W        W34775   6.718  27.575   9.892 -0.0287  0.1477  0.2927
    1W        W34776   9.308  25.364   7.571 -0.0594  0.1645 -0.1474
    1W        W34777   0.491  21.698   1.540  0.2194 -0.2413  0.0416
    1W        W34778   1.911   0.403   3.142  0.0321  0.1720 -0.2503
    1W        W34779  16.864  23.102   0.697  0.1579  0.1026  0.0206
    1W        W34780  21.004  10.642   3.545  0.0152  0.0349 -0.1939
    1W        W34781  13.815  26.410   8.413  0.0463 -0.1436 -0.3679
    1W        W34782  15.470  19.617   8.539  0.1485 -0.2612 -0.2840
    1W        W34783  15.517   9.525   1.127 -0.0344 -0.0677 -0.0056
    1W        W34784   5.774  11.969   0.440 -0.0277  0.3630 -0.3350
    1W        W34785  20.153  10.737   8.687  0.0165  0.0551 -0.0911
    1W        W34786   9.429  20.400   2.548 -0.0595 -0.1506 -0.1340
    1W        W34787  10.826  20.249   9.695  0.3008 -0.2098  0.0431
    1W        W34788  10.069  14.392   8.778  0.0153 -0.0565  0.1217
    1W        W34789  23.207   9.674   1.508 -0.0294 -0.0525 -0.1060
    1W        W34790  23.993  27.626   0.569  0.3086 -0.0607  0.0144
    1W        W34791  16.995  20.363   1.406 -0.3163  0.0134  0.1797
    1W        W34792   0.982  13.795   7.018 -0.1203 -0.0414 -0.0702
    1W        W34793   1.767  11.510   0.850 -0.2313  0.2066 -0.3307
    1W        W34794  23.778   1.965   7.336  0.0695  0.2807  0.0110
    1W        W34795   4.358  25.788   0.342 -0.0507  0.3964 -0.2421
    1W        W34796  26.464   4.299   0.097 -0.2746  0.3139 -0.0371
    1W        W34797  24.838  13.118   9.197 -0.1939 -0.0927  0.1172
    1W        W34798  24.189  11.101   1.860  0.0255 -0.0811  0.0897
    1W        W34799  21.072  27.073   8.539  0.2204 -0.0900 -0.0137
    1W        W34800  15.830  13.049   1.265  0.1611  0.0518  0.2030
    1W        W34801  24.664  27.806   9.111  0.2135 -0.0359  0.0435
    1W        W34802  18.246  19.110   8.458  0.3738  0.1367 -0.3918
    1W        W34803  14.575  22.486   1.648  0.1858 -0.0866  0.3610
    1W        W34804  25.087  10.932   3.116 -0.0482 -0.1174 -0.0742
    1W        W34805   8.594  16.114   3.200 -0.0031 -0.0424  0.2351
    1W        W34806  18.898  14.004   7.912  0.2712  0.2019  0.1664
    1W        W34807   5.618   5.967   8.128 -0.1733 -0.1132 -0.1215
    1W        W34808   5.868  15.763   7.908  0.3080 -0.4161 -0.1574
    1W        W34809  16.814   8.347   2.864 -0.0637 -0.3855  0.0588
    1W        W34810  15.588   7.805   2.803 -0.0396 -0.0731  0.3778
    1W        W34811   8.726  26.988   1.868 -0.4091 -0.1988 -0.0026
    1W        W34812   1.482   5.880   7.203 -0.0635 -0.1817  0.0546
    1W        W34813   1.316  27.681   2.043  0.0590 -0.2017  0.2719
    1W        W34814  23.584  21.504   1.497 -0.1366 -0.0889  0.4905
    1W        W34815  14.617   2.493   2.068  0.0698 -0.0386  0.1136
    1W        W34816  13.796  12.633   2.737 -0.2913 -0.0785  0.0155
    1W        W34817   4.192   2.386   2.356 -0.0649  0.2597 -0.2872
    1W        W34818  21.415  18.784   0.952 -0.0611 -0.0366  0.0339
    1W        W34819  20.855   1.946   1.325 -0.1911  0.0234  0.2052
    1W        W34820  19.349  20.619   1.056  0.2329 -0.1069 -0.0200
    1W        W34821   9.333  10.796  10.232  0.3868  0.1882  0.2680
    1W        W34822  20.486   0.428   9.991  0.0120 -0.4438  0.2750
    1W        W34823   2.672   7.657   9.689  0.2638  0.1683 -0.0112
    1W        W34824   9.982  20.160   9.870  0.3431  0.1000 -0.1997
    1W        W34825   3.033  25.806   8.925 -0.0733 -0.0432  0.0051
    1W        W34826   1.834   6.677  10.036  0.0053  0.1341  0.0390
    1W        W34827  10.217  10.093   9.809  0.2683 -0.2205  0.0673
    1W        W34828  13.463  15.902   1.949 -0.0087 -0.0021  0.1805
    1W        W34829  21.986  18.607   7.844 -0.0719  0.0003 -0.0194
    1W        W34830  21.784  26.092   0.271 -0.0854 -0.0371 -0.1954
    1W        W34831  23.433  27.325   2.216  0.2009 -0.1102  0.0104
    1W        W34832   7.215   3.937   8.412 -0.1535 -0.2623  0.0814
    1W        W34833   5.759   9.364   9.226  0.2324  0.1349 -0.0941
    1W        W34834   1.123   4.395   8.051 -0.1238 -0.0616  0.0739
    1W        W34835  25.439  27.860   0.101 -0.2029 -0.0308 -0.0983
    1W        W34836  17.981  10.744   2.555 -0.2152 -0.0875 -0.0031
    1W        W34837  24.374  23.019   9.726 -0.2491  0.0903  0.2138
    1W        W34838   3.054  17.699   0.590  0.2061  0.0173  0.0905
    1W        W34839   9.081  19.161   7.551  0.3318 -0.1933 -0.0714
    1W        W34840  21.938  16.781   9.522  0.2654 -0.3146  0.2575
    1W        W34841  16.478   8.783   2.907 -0.2874  0.1274 -0.0748
    1W        W34842   0.425  10.384  10.337 -0.1529  0.1262 -0.0926
    1W        W34843   1.027   9.865   0.995 -0.1704 -0.0908  0.3599
    1W        W34844   5.492  22.905   1.835  0.1595 -0.0464 -0.1950
    1W        W34845   7.945   2.892   9.271 -0.4228 -0.1680 -0.1444
    1W        W34846  13.911   3.960   1.654 -0.2327 -0.1326 -0.3468
    1W        W34847   3.047   0.176  10.012  0.0584  0.1908 -0.1823
    1W        W34848  15.770  23.715   0.080  0.1629 -0.0553  0.2419
    1W        W34849  23.987   6.495   2.744 -0.0192 -0.0195  0.0888
    1W        W34850  12.816  24.540   0.410  0.3180  0.0453 -0.0103
    1W        W34851  17.783   7.147   2.455  0.2296 -0.0993  0.1354
    1W        W34852  11.922  25.687   1.558  0.2701 -0.2456  0.0184
    1W        W34853   9.888   7.371   9.262 -0.3344 -0.1446  0.3871
    1W        W34854  26.669  16.076   7.284  0.0550  0.1361  0.0535
    1W        W34855   4.562   6.267   8.380  0.0626  0.0722  0.0943
    1W        W34856  16.549   3.532   8.773  0.2119  0.2919  0.1024
    1W        W34857  22.458  27.879  10.091  0.0413 -0.1890 -0.1322
    1W        W34858   7.224  27.499   2.872 -0.0095 -0.0560 -0.1204
    1W        W34859  20.645  26.381   2.051  0.2681 -0.1218 -0.0688
    1W        W34860  10.153  20.906  10.017  0.2051 -0.0262 -0.0625
    1W        W34861  13.962   5.145   8.541 -0.0304 -0.0966 -0.0775
    1W        W34862  18.813  12.216  10.284 -0.0311 -0.0644  0.0336
    1W        W34863  11.142  12.424   8.585  0.3194  0.3158  0.5249
    1W        W34864   1.717  25.584   0.343  0.0764  0.1911  0.0174
    1W        W34865  25.645  22.935   2.097  0.0599  0.0725  0.2896
    1W        W34866  25.370   3.621   9.017 -0.4684  0.1204 -0.0511
    1W        W34867  27.817  17.885   2.438  0.1650  0.0818  0.0342
    1W        W34868  23.703  14.698   0.429  0.3460 -0.1812 -0.0387
    1W        W34869  17.967  26.744   3.056 -0.1974 -0.1752  0.0338
    1W        W34870  13.321  18.610   2.144  0.0261 -0.1817  0.0595
    1W        W34871  16.644  11.641   0.385 -0.0308 -0.0665  0.2016
    1W        W34872   6.815  27.634   6.537 -0.2351  0.3669 -0.0904
    1W        W34873   7.849   5.061   9.369  0.2664 -0.0299  0.0492
    1W        W34874  24.175  25.529   1.654  0.0237  0.2190  0.4303
    1W        W34875   6.784   4.942   8.063 -0.0734  0.1836 -0.0784
    1W        W34876  14.104  20.540   1.610 -0.0813  0.3145  0.0998
    1W        W34877  17.413  22.435   0.752 -0.2481 -0.0887  0.0849
    1W        W34878   9.927   7.707   0.328  0.2128 -0.1340  0.0793
    1W        W34879   2.445   1.593   0.890  0.1027 -0.1149 -0.0744
    1W        W34880   5.799   4.115   0.142 -0.2792 -0.0773 -0.1075
    1W        W34881   4.782  16.238   7.610  0.0723  0.1741 -0.1122
    1W        W34882  16.673  17.148   7.249 -0.1311  0.1237  0.0405
    1W        W34883  25.370  10.238   6.687 -0.1008 -0.1518  0.2581
    1W        W34884  12.717  11.083   2.830  0.4362 -0.2560  0.0949
    1W        W34885  18.960   6.028   7.458 -0.0766  0.2121  0.3084
    1W        W34886   2.797  13.007   8.467 -0.0267  0.4213  0.2105
    1W        W34887  16.100  24.050   3.107  0.2612 -0.1427  0.0906
    1W        W34888  20.576  18.266   9.772  0.1326 -0.3140 -0.1477
    1W        W34889  18.516   8.457   1.147  0.2164  0.0148  0.0960
    1W        W34890   5.532   0.644   7.860 -0.1561  0.1710 -0.0467
    1W        W34891   7.417  14.469   7.984 -0.3199 -0.4392 -0.0453
    1W        W34892  20.101  14.092  10.234  0.0956 -0.1536  0.0090
    1W        W34893   4.701   5.405   7.815 -0.2142 -0.2112 -0.2584
    1W        W34894  23.784   5.328  10.310  0.2323 -0.0339  0.2228
    1W        W34895   5.741  27.255   2.160 -0.1453 -0.0904 -0.0621
    1W        W34896  20.000   1.389   3.583 -0.0220 -0.2037 -0.0503
    1W        W34897   7.152   6.370   9.089  0.0123  0.2322  0.0598
    1W        W34898  14.446  15.236   2.532  0.1334 -0.2384 -0.2519
    1W        W34899  25.330  26.624   1.816 -0.1067 -0.1892  0.0494
    1W        W34900  23.732   0.452   0.921  0.0770  0.0379  0.2024
    1W        W34901   4.649   8.236   1.980 -0.0271  0.2021 -0.1768
    1W        W34902   6.087  25.016   9.302  0.1969 -0.2115 -0.1046
    1W        W34903  23.185  18.842   1.668 -0.0016  0.1786  0.1847
    1W        W34904  15.504   2.381   0.923 -0.0813 -0.0158 -0.1182
    1W        W34905   7.033  22.216   9.788 -0.0625 -0.1621  0.0738
    1W        W34906  23.939   5.172   9.616  0.0286  0.2633 -0.0465
    1W        W34907   6.464  20.454   3.813 -0.0844 -0.2631 -0.0949
    1W        W34908  25.823  16.712   2.461  0.0142 -0.0837  0.0168
    1W        W34909  12.350   5.268   0.269 -0.2319 -0.5175  0.0353
    1W        W34910   0.708  20.824  10.002  0.0229  0.0944  0.0312
    1W        W34911  19.505   0.789  10.141  0.1320  0.0056 -0.1302
    1W        W34912  23.613  19.642   9.772  0.3276 -0.2093 -0.1700
    1W        W34913   0.964   0.574   0.001 -0.2314 -0.1443  0.3899
    1W        W34914   4.370  13.868   9.732 -0.0689  0.1470  0.1457
    1W        W34915  26.407  24.310  10.179 -0.1487  0.4070  0.0271
    1W        W34916  25.345  13.804   1.817  0.1645  0.0751  0.2559
    1W        W34917  27.015  24.154   1.548 -0.1110 -0.1075  0.0188
    1W        W34918  11.204  14.738   2.997 -0.2185  0.0558 -0.1542
    1W        W34919  15.426  15.601   8.672 -0.2282 -0.0335  0.0973
    1W        W34920  21.971  12.125   8.191  0.1352 -0.1687 -0.1859
    1W        W34921  13.137  20.745   9.410  0.2733 -0.1860  0.1719
    1W        W34922  11.410  14.079   1.308 -0.1457  0.2165 -0.3205
    1W        W34923  25.307  16.459   0.517  0.3343 -0.2112  0.0108
    1W        W34924  20.259  10.261   0.965 -0.1220  0.0168 -0.0058
    1W        W34925  26.595  26.978   1.121  0.1913 -0.1833 -0.1552
    1W        W34926   0.141   2.167   6.367  0.1235  0.1695 -0.0369
    1W        W34927  17.026  21.303   8.902 -0.0107 -0.1844  0.1270
    1W        W34928  12.790  15.831   0.588  0.0649  0.0838  0.2711
    1W        W34929  14.148   0.929   7.966 -0.0672  0.1511 -0.0320
    1W        W34930  11.688  16.996   3.262 -0.1920  0.0979 -0.1432
    1W        W34931  10.105   5.594   7.596 -0.0435  0.0715  0.1277
    1W        W34932  23.860  14.241   0.041 -0.0543 -0.3040  0.1713
    1W        W34933   6.531   8.147   9.871 -0.1059  0.1294 -0.0375
    1W        W34934  26.015  21.545   7.122  0.3007  0.1724  0.0920
    1W        W34935   8.188  19.336   2.605  0.3720 -0.0492 -0.2645
    1W        W34936  26.996   4.902  10.048  0.1384  0.0906  0.1577
    1W        W34937  23.118  18.299   1.628  0.1288 -0.1258 -0.0873
    1W        W34938  13.262  17.725   9.647 -0.0488 -0.0386  0.2575
    1W        W34939  17.062  12.792   7.841 -0.0378  0.0007  0.0921
    1W        W34940  22.859   7.123   6.367  0.1130  0.2281 -0.4026
    1W        W34941  19.181  24.612   0.913  0.2385 -0.2334  0.2674
    1W        W34942   8.246   3.867   8.555 -0.1155 -0.0856  0.3074
    1W        W34943   4.254   2.249   1.654 -0.0410 -0.0222 -0.2481
    1W        W34944  12.499  16.309  10.230 -0.0792 -0.0085 -0.0332
    1W        W34945  20.063  18.747   7.318  0.0287 -0.0371  0.2648
    1W        W34946  12.512  22.977   9.848 -0.1656 -0.2299 -0.0022
    1W        W34947   2.919  19.694   0.676  0.1444 -0.0504 -0.2980
    1W        W34948  16.847   0.892   2.172  0.3955 -0.1844 -0.3795
    1W        W34949   9.921  25.889   9.117  0.2127  0.1257  0.0542
    1W        W34950  15.105   4.775   7.607 -0.0878  0.0338 -0.0477
    1W        W34951   4.078  21.101   7.713 -0.4528 -0.0644 -0.0820
    1W        W34952  21.058  23.955   1.650 -0.3625  0.1381  0.1339
    1W        W34953  20.586  22.219   2.303 -0.3664  0.1537  0.1214
    1W        W34954  23.808  14.712  10.256 -0.3348 -0.2207  0.0705
    1W        W34955  24.520  16.975   0.057 -0.2240  0.1954  0.0184
    1W        W34956  15.990   8.747   3.025 -0.2395  0.0307 -0.4765
    1W        W34957   2.806  25.713   8.049 -0.4794  0.0496 -0.1012
    1W        W34958  28.095   1.463   7.096 -0.0437  0.2020  0.2059
    1W        W34959  28.073   0.495   0.024 -0.0657  0.1769 -0.1524
    1W        W34960   2.390  14.501   6.189  0.0270 -0.0193  0.3654
    1W        W34961   8.000  23.623  10.358 -0.0205 -0.4231 -0.0373
    1W        W34962  19.777   7.360   2.786 -0.0959 -0.1697  0.0730
    1W        W34963  22.234  15.501   1.952  0.2042 -0.2040  0.2601
    1W        W34964  20.451  13.385   0.419  0.0761 -0.0651 -0.2678
    1W        W34965  16.014   9.414   1.239 -0.0349 -0.3290 -0.1058
    1W        W34966  14.642  24.905   8.285  0.2019  0.2040  0.0958
    1W        W34967  26.859   1.587   2.121 -0.2405 -0.1211  0.2253
    1W        W34968   5.896   2.457   6.575  0.0613  0.1140  0.1447
    1W        W34969   5.838   1.619   8.670 -0.2644 -0.2749  0.3145
    1W        W34970  19.184   9.703   0.381 -0.2338  0.1404  0.2845
    1W        W34971  16.797  24.014   1.125  0.3310 -0.1872  0.1351
    1W        W34972  25.205  27.975   7.686  0.3667 -0.2464 -0.2758
    1W        W34973   3.899  21.750   1.310  0.1092 -0.2727  0.2807
    1W        W34974  27.193  11.460   2.778  0.1159 -0.1464  0.0617
    1W        W34975  20.409  18.304   0.692  0.1503 -0.1040  0.1682
    1W        W34976  16.509   2.791   2.885  0.1560 -0.0327  0.0758
    1W        W34977  15.483   3.735   2.247 -0.0903  0.2924  0.3130
    1W        W34978  20.337   2.320   7.983 -0.0846  0.3384  0.2203
    1W        W34979  24.665   7.174   9.212  0.2777  0.2372  0.0747
    1W        W34980   0.509  28.021   9.928  0.1923 -0.0694  0.0906
    1W        W34981   3.161  18.208   8.326  0.1119  0.3407 -0.1957
    1W        W34982  21.946  23.262   0.668 -0.1949 -0.0776 -0.2711
    1W        W34983  15.383  15.552   7.225  0.0436  0.1239 -0.1026
    1W        W34984  15.635   3.891   7.054  0.1064  0.2606 -0.0231
    1W        W34985  23.244   9.436   7.973 -0.1032 -0.4685  0.0077
    1W        W34986  20.022  26.559   9.531 -0.1751  0.0061  0.0673
    1W        W34987   7.539  24.322   2.603  0.1479 -0.2416  0.1730
    1W        W34988  23.071  20.638  10.089 -0.1938  0.2349 -0.1270
    1W        W34989  21.967   9.559   9.271 -0.0358 -0.1114 -0.3003
    1W        W34990  22.286   3.838   7.536 -0.3863 -0.0590 -0.0794
    1W        W34991   6.047  26.563   6.798  0.0157 -0.0579 -0.1707
    1W        W34992   8.858   3.051   8.695 -0.3812  0.0353  0.2358
    1W        W34993  19.031  23.180   2.726  0.1468 -0.2153  0.0020
    1W        W34994  20.154   4.466   7.417 -0.1283  0.0243  0.1242
    1W        W34995   0.618  10.613   9.007 -0.0821 -0.1886  0.1620
    1W        W34996  18.075  20.742   9.774  0.0833 -0.0237 -0.2821
    1W        W34997   4.121  27.619   9.746  0.0123 -0.3232 -0.0422
    1W        W34998  19.961  18.435   1.274  0.1404 -0.0665 -0.2140
    1W        W34999  21.416  18.600   8.022 -0.2816 -0.0223 -0.2095
    1W        W35000  21.516  14.568   6.886  0.1245 -0.2616 -0.2166
    1W        W35001  22.376   6.415   8.639 -0.2002  0.1913  0.2683
    1W        W35002   0.406  19.983   0.167 -0.0030  0.0305 -0.0548
    1W        W35003  13.165  20.619   2.044 -0.0272  0.2510  0.1874
    1W        W35004  25.493   9.447   1.804  0.0703 -0.2281  0.1280
    1W        W35005  26.270   5.609   0.711  0.0569  0.1221 -0.1489
    1W        W35006  17.993  26.468   7.813  0.0617 -0.0640 -0.0158
    1W        W35007   0.562  22.242   8.483  0.0157  0.2480  0.0855
    1W        W35008  24.959  15.529   9.793 -0.1091  0.2731  0.2061
    1W        W35009   1.085   1.771   0.451  0.1710 -0.1521 -0.2148
    1W        W35010   2.787   4.089   6.635 -0.2612 -0.0002 -0.0414
    1W        W35011  11.295  24.723   0.251  0.3320  0.2160  0.2060
    1W        W35012   2.468  10.270   1.834 -0.3019 -0.2172 -0.2555
    1W        W35013  13.518   8.643   9.265  0.2242  0.1502 -0.1529
    1W        W35014   6.476  27.925   0.633  0.0818  0.1001 -0.0869
    1W        W35015  10.911  25.775   7.243  0.0122 -0.5078 -0.0507
    1W        W35016   4.237  13.033   1.491 -0.1045 -0.0068 -0.3197
    1W        W35017  21.331   8.475   8.409 -0.0942  0.1602 -0.0903
    1W        W35018  17.313  11.476   8.901 -0.2565 -0.1994 -0.2116
    1W        W35019  24.480  10.330  10.347  0.0617 -0.0194  0.2303
    1W        W35020   0.066   0.582   0.520  0.0227 -0.1421  0.1964
    1W        W35021   2.350  24.704   1.456 -0.3836  0.0817 -0.2073
    1W        W35022  27.693  13.623   1.412 -0.2298 -0.0456  0.1924
    1W        W35023  20.493  12.108  10.184 -0.2159  0.3666  0.0199
    1W        W35024  17.440  15.681   2.725  0.0272  0.1576 -0.1132
    1W        W35025  14.955  14.177   2.012 -0.1306  0.0293 -0.0436
    1W        W35026  17.761   7.787   0.989 -0.2670  0.1014 -0.0879
    1W        W35027   7.798  19.036   0.571  0.0004  0.1021 -0.0525
    1W        W35028  21.890  23.295   0.081 -0.0397  0.0371  0.2416
    1W        W35029  27.319  15.468   7.314  0.1592 -0.0609 -0.0100
    1W        W35030  14.522   0.206   1.540 -0.0804 -0.1975 -0.0622
    1W        W35031  16.791  12.961   3.683 -0.1462 -0.0340 -0.0455
    1W        W35032  26.875  11.366   9.523  0.3154  0.3041 -0.0969
    1W        W35033   0.604   6.234   1.469 -0.2062 -0.0957  0.1839
    1W        W35034  25.014  25.747   6.686 -0.0068  0.0989  0.0830
    1W        W35035   5.089   3.693   8.564  0.0038 -0.1604  0.0856
    1W        W35036  27.815  27.740   8.486  0.2917  0.0371  0.1149
    1W        W35037  20.138   4.947   7.573 -0.3030 -0.3260  0.0862
    1W        W35038   6.557   2.015   8.332  0.0037  0.2794  0.0029
    1W        W35039  10.510  23.510   2.023  0.0330 -0.0919  0.1035
    1W        W35040  15.702  22.637   9.613 -0.1067  0.0248  0.0381
    1W        W35041   9.733  12.425   8.232 -0.2279 -0.0168  0.4487
    1W        W35042   2.843  21.532   8.727  0.2132  0.2873 -0.1948
    1W        W35043  17.880  16.136   3.154  0.1748  0.1077 -0.2378
    1W        W35044  11.940   3.691   1.465  0.1547  0.1680 -0.4776
    1W        W35045   5.624   7.815   3.407 -0.1761  0.0324  0.5145
    1W        W35046  21.998  22.661   3.519  0.0230  0.4167 -0.2207
    1W        W35047   0.869  11.281   1.929 -0.0427 -0.0073 -0.0622
    1W        W35048   8.548   1.390   8.340  0.0576  0.3415  0.1290
    1W        W35049  23.465   5.707   8.985  0.2832 -0.4650  0.2094
    1W        W35050  17.226  10.140   0.402 -0.1875  0.0734  0.1129
    1W        W35051   6.448  17.086  10.158  0.0139 -0.0294  0.2226
    1W        W35052  19.842   8.648   8.580 -0.2523 -0.1225 -0.0331
    1W        W35053   6.256  13.736   8.688 -0.3064 -0.0062  0.2881
    1W        W35054  19.739   6.012   0.151  0.1056  0.0226  0.1834
    1W        W35055  17.508   8.595   9.566  0.1939  0.1021  0.1816
    1W        W35056  26.710   0.504   9.608 -0.0113  0.1618  0.2066
    1W        W35057  12.235  27.472   2.328 -0.2251 -0.0423 -0.0058
    1W        W35058  21.487  13.917   8.285  0.2296  0.0281  0.2560
    1W        W35059  12.548   8.424   8.441 -0.1820 -0.2556  0.1667
    1W        W35060  16.656   5.360   8.041 -0.1514  0.1385 -0.0836
    1W        W35061  26.387   7.010   8.334  0.0458  0.2978 -0.3539
    1W        W35062   7.803  15.454   9.381  0.0056 -0.0622  0.0866
    1W        W35063  20.488  14.988   1.544  0.1860 -0.1534 -0.1128
    1W        W35064  21.845   5.098   0.162  0.0631 -0.0162 -0.0201
    1W        W35065  18.819   1.679   0.784  0.3669 -0.2646  0.1936
    1W        W35066  20.543  23.403   0.274 -0.2248  0.4379 -0.0892
    1W        W35067  17.145   0.935   3.547  0.0861  0.0663 -0.3290
    1W        W35068  26.495  21.130   2.391  0.1549  0.0998 -0.2045
    1W        W35069  19.553  18.495   8.788 -0.0918  0.0079  0.0585
    1W        W35070  14.126  17.900   3.187 -0.0529 -0.2851  0.2464
    1W        W35071  17.167  20.157   2.736 -0.1822 -0.0331 -0.2189
    1W        W35072  13.019  16.371   0.617 -0.2029 -0.0388 -0.2435
    1W        W35073   4.985  15.531   8.274  0.0414 -0.1962 -0.1545
    1W        W35074  19.245   8.006   3.266  0.1234  0.1007  0.3114
    1W        W35075  22.081  10.839   1.044  0.0689 -0.1586  0.3576
    1W        W35076  23.109  21.379   7.998 -0.1428 -0.0690  0.1342
    1W        W35077   8.083   5.919   8.398  0.0551  0.1334 -0.0777
    1W        W35078   3.231  27.394   1.438 -0.2170 -0.3520  0.0259
    1W        W35079  27.484  21.437   8.630 -0.2528  0.1559  0.0215
    1W        W35080  22.767   7.323   3.198 -0.4017 -0.3354 -0.0933
    1W        W35081  18.855   5.742   8.419 -0.1257  0.1486  0.2459
    1W        W35082   5.409  10.515   0.992  0.0006  0.1253 -0.1515
    1W        W35083   0.094  16.383   9.878  0.0180 -0.3228 -0.0185
    1W        W35084   4.560  11.904   7.489  0.0898  0.1946 -0.0420
    1W        W35085  17.430  23.733   0.015  0.2579 -0.3663  0.0329
    1W        W35086  23.759   8.233   8.064  0.1452  0.0849 -0.1971
    1W        W35087  22.886   1.257   8.231 -0.0137 -0.0975  0.1926
    1W        W35088  21.093   4.299  10.133  0.4770  0.2077 -0.4230
    1W        W35089  12.855  16.814   0.949  0.2014  0.1089  0.0397
    1W        W35090   5.218  23.337   1.813  0.2584 -0.0926  0.1343
    1W        W35091  26.468  22.597   8.221  0.0466 -0.1165  0.1209
    1W        W35092   0.394   3.567   1.693  0.1570  0.0335  0.0513
    1W        W35093  19.408   2.399   7.439  0.0927 -0.0319 -0.0810
    1W        W35094  20.128   1.128   9.363  0.0438 -0.0258 -0.0861
    1W        W35095  16.373   5.693   8.210  0.2442  0.3195 -0.3045
    1W        W35096   4.177  14.855   9.652  0.0069 -0.2748  0.1291
    1W        W35097  14.715  24.848   8.935 -0.1313  0.2054  0.1760
    1W        W35098   4.693  20.456   2.583 -0.0935 -0.2466  0.1770
    1W        W35099  25.710  23.076   7.329 -0.1616 -0.3323 -0.0080
    1W        W35100  10.867  13.027   3.010  0.2604 -0.1025 -0.0493
    1W        W35101  16.142   2.558   2.164  0.4342 -0.3849  0.1764
    1W        W35102   7.395  20.505   2.568 -0.2467  0.0036 -0.0543
    1W        W35103   7.871  11.442   9.199 -0.1230 -0.1003 -0.0767
    1W        W35104  20.366  12.746   7.147 -0.1478 -0.1788  0.2714
    1W        W35105  20.183   5.980   7.923  0.2732 -0.2420  0.1476
    1W        W35106   4.619   8.716   7.652 -0.1344 -0.1540 -0.0740
    1W        W35107  17.361  18.032   1.858  0.2610  0.1569  0.0077
    1W        W35108   4.564   7.318   1.938 -0.0093 -0.3430 -0.1673
    1W        W35109  12.978  19.845   2.037 -0.2369 -0.1406 -0.0550
    1W        W35110  19.966   7.735   9.832  0.0329 -0.0453  0.1035
    1W        W35111  28.006   4.382   9.450 -0.1997  0.0535 -0.0891
    1W        W35112   8.543   3.284   9.812  0.3517  0.3737 -0.0312
    1W        W35113   3.959   0.424  10.082 -0.0596 -0.1661 -0.1984
    1W        W35114  16.033  18.179   1.678 -0.0411 -0.1342 -0.0184
    1W        W35115  22.374  22.924   8.813  0.0125 -0.1867  0.0350
    1W        W35116  15.248   2.931   8.816 -0.1185 -0.1673  0.3263
    1W        W35117  25.616   5.872   9.601  0.1930 -0.1637 -0.4479
    1W        W35118  12.500  13.579  10.176  0.2647 -0.0511 -0.0350
    1W        W35119  10.194  14.311   2.447  0.0515  0.0555  0.0742
    1W        W35120  22.456  14.525   0.466 -0.2135  0.0094 -0.3568
    1W        W35121   5.778   8.695   2.861 -0.0810 -0.2311 -0.0499
    1W        W35122  15.242   4.308   7.853  0.0486 -0.2435 -0.0705
    1W        W35123   1.013  17.591   0.742  0.0567  0.1737  0.1978
    1W        W35124   7.330  12.346   8.154  0.0086 -0.1746 -0.2398
    1W        W35125  22.938  24.541   2.231 -0.0385 -0.0593 -0.2511
    1W        W35126  24.556  23.100   7.301 -0.1199  0.1099  0.0239
    1W        W35127  25.524  18.631   7.139  0.2469 -0.1504  0.2105
    1W        W35128   3.875  21.279   2.026 -0.0142 -0.1019 -0.2981
    1W        W35129  11.151  21.675   2.253 -0.4989  0.0554  0.1519
    1W        W35130  17.259  12.570   1.223 -0.0562  0.1912 -0.0559
    1W        W35131  20.097  26.645   0.683 -0.4688  0.1281  0.0240
    1W        W35132  23.335   8.406   7.324 -0.2414  0.1276 -0.3756
    1W        W35133  24.682   1.367  10.290  0.2377  0.1827 -0.0742
    1W        W35134   5.188   0.646   1.388  0.0412  0.1321 -0.1658
    1W        W35135   7.633   3.565   7.878  0.0917 -0.1015  0.0300
    1W        W35136   0.611  17.877   7.643 -0.0849 -0.1348  0.0061
    1W        W35137   9.345   2.905   1.673  0.2452  0.3149 -0.0773
    1W        W35138   3.813  15.786   1.266  0.3698  0.0458 -0.4051
    1W        W35139  19.477  16.320   0.343 -0.0153 -0.1685  0.1328
    1W        W35140   5.213  21.420   9.781  0.2048  0.4068 -0.0290
    1W        W35141   4.306  17.379   9.035 -0.1427  0.0395  0.1053
    1W        W35142   1.467   6.231   6.624 -0.0579  0.0502  0.1294
    1W        W35143  15.113  12.768   2.622  0.1011  0.0207 -0.2973
    1W        W35144  22.151  13.435   2.708  0.0794  0.0464  0.1821
    1W        W35145   1.616  16.429   8.105 -0.0368 -0.0978  0.0105
    1W        W35146  25.629   8.640   0.244  0.1588 -0.1720 -0.2258
    1W        W35147  23.056  28.115   1.440 -0.1717  0.1956  0.0746
    1W        W35148   3.427   7.572   7.747  0.0459  0.0590  0.2782
    1W        W35149  23.739   3.547   0.257 -0.1161 -0.0460 -0.0347
    1W        W35150  24.569  25.267   2.810  0.1461  0.3193 -0.2616
    1W        W35151  10.866  22.795   9.405  0.5275 -0.1092  0.0729
    1W        W35152  18.638   1.963   0.343 -0.1975 -0.0103 -0.2060
    1W        W35153  17.749   1.144   1.715 -0.1193  0.2740  0.1227
    1W        W35154   2.590  21.482   0.724 -0.1142 -0.0931  0.2421
    1W        W35155  16.964   3.999   2.757 -0.3654 -0.1124  0.1568
    1W        W35156  11.688  20.978   7.643  0.2055  0.0473 -0.4143
    1W        W35157  24.135  14.533   2.709 -0.1124  0.0275 -0.0086
    1W        W35158  24.146   2.295   2.270  0.1620 -0.2558 -0.0081
    1W        W35159   1.424  18.086   9.955  0.0191 -0.3207  0.0339
    1W        W35160  15.450   7.432   0.581  0.2540 -0.0096  0.0092
    1W        W35161   3.858   2.837   1.432  0.0365  0.0323  0.0939
    1W        W35162  19.419  26.857   2.961  0.0782 -0.2309  0.1074
    1W        W35163  11.082   3.626   7.821 -0.0976  0.3604 -0.0714
    1W        W35164   9.632   5.528   2.630 -0.1125  0.0307 -0.2483
    1W        W35165   5.605  15.368   0.095 -0.1484 -0.3807 -0.3618
    1W        W35166   1.252   6.773   1.983 -0.1083  0.2166  0.0369
    1W        W35167   1.992  24.693   7.927  0.3523  0.3048  0.0272
    1W        W35168   1.940  26.822   9.369 -0.4487  0.2052  0.0868
    1W        W35169  13.585  24.661   1.337 -0.2314  0.0148  0.0869
    1W        W35170  19.343  26.537   1.413  0.1936  0.0278 -0.0135
    1W        W35171  11.252  24.833   1.483  0.0978  0.2385  0.0883
    1W        W35172  16.274   4.685   9.092  0.0809  0.1900  0.0202
    1W        W35173  16.581  10.989   7.759  0.3286  0.0229 -0.0799
    1W        W35174  15.064  23.809   1.031 -0.0149  0.1924  0.0485
    1W        W35175   6.108   8.992   0.056 -0.2113  0.3619 -0.1361
    1W        W35176  24.748   2.606   7.452  0.0446  0.1602  0.2526
    1W        W35177  24.732  24.297   9.836 -0.2550  0.1354 -0.4354
    1W        W35178  10.931  18.944   1.245  0.1482 -0.0823 -0.1109
    1W        W35179   3.053  25.428   0.856 -0.1198 -0.1739 -0.1634
    1W        W35180   0.155  14.270   8.566 -0.4097  0.1401  0.0595
    1W        W35181  14.494  24.417   1.717 -0.0832  0.0724 -0.1318
    1W        W35182   3.864  13.889   9.399  0.2538  0.1377 -0.0366
    1W        W35183   8.809  10.596   2.911 -0.1628  0.0873  0.0445
    1W        W35184  22.087   9.535   0.612  0.2884  0.0010  0.1323
    1W        W35185  21.472  15.716   9.314 -0.2350 -0.4106  0.2034
    1W        W35186  16.669   6.020   1.455  0.3400 -0.0629  0.3700
    1W        W35187   5.357  17.480   8.088  0.1445 -0.3641 -0.1998
    1W        W35188  12.729  14.567   0.507  0.2552 -0.1023 -0.0330
    1W        W35189  10.674  26.672   6.650  0.1198 -0.0296 -0.4017
    1W        W35190  15.683  18.894   9.976  0.1334 -0.2728  0.1557
    1W        W35191  22.009   3.112   2.043  0.2706 -0.0511 -0.0334
    1W        W35192  24.496  13.415   8.686  0.0489  0.3666 -0.0803
    1W        W35193  19.110  12.923   0.413 -0.4135 -0.2444 -0.2079
    1W        W35194   6.757  19.086   9.338  0.1803 -0.0078  0.3253
    1W        W35195   8.800  27.663   6.870  0.1918 -0.0966 -0.0344
    1W        W35196   1.386  16.111   7.327  0.0849 -0.0152  0.1779
    1W        W35197   7.242  14.405   3.479 -0.1276 -0.0095  0.0362
    1W        W35198  21.695  20.624   0.060  0.2323 -0.3604 -0.2750
    1W        W35199  13.398  16.787   2.996 -0.2084  0.1185 -0.3207
    1W        W35200  15.981  15.901   3.035 -0.0141  0.0752  0.1263
    1W        W35201  11.883  21.470   1.524 -0.4499 -0.1622 -0.2331
    1W        W35202   6.425   0.700   1.817 -0.2622  0.0464  0.0438
    1W        W35203   1.826  14.667   7.316  0.0092  0.0378 -0.1476
    1W        W35204  26.960  16.301   1.513 -0.0602 -0.0953 -0.3323
    1W        W35205  16.599  18.079   8.052  0.4160  0.0672 -0.0109
    1W        W35206   9.447  17.651   7.979 -0.2190 -0.3625  0.0143
    1W        W35207  21.516  16.732   8.865 -0.0881  0.0019  0.0631
    1W        W35208  16.962  24.237   2.010  0.3614 -0.0363  0.5478
    1W        W35209  27.867   5.110   1.195 -0.3533  0.2372 -0.2249
    1W        W35210   8.933   6.298   0.015  0.1166 -0.2290  0.1958
    1W        W35211  21.724   3.235   3.116  0.0152  0.0719 -0.0544
    1W        W35212  18.731  21.645   8.847  0.1992  0.4988  0.3063
    1W        W35213   7.240  23.564   7.551  0.0665 -0.3762  0.1042
    1W        W35214  18.690  17.475   1.327  0.1698  0.0481 -0.1466
    1W        W35215   1.438  18.809   1.400  0.1673  0.0754 -0.1929
    1W        W35216  16.860  12.152   9.293  0.3485 -0.1442  0.2772
    1W        W35217  15.823   0.396   7.611  0.1106  0.1739  0.3460
    1W        W35218   6.447  16.073  10.159  0.1442 -0.0370 -0.0058
    1W        W35219  21.562  12.012   2.336  0.2965 -0.0633  0.1599
    1W        W35220  21.153  15.806   0.719 -0.1681 -0.1200  0.1216
    1W        W35221  24.136  12.111   8.848  0.0621  0.1986 -0.0753
    1W        W35222   5.290  24.265   7.472 -0.0569 -0.1676  0.0195
    1W        W35223  27.984   5.435   7.008 -0.4559 -0.2045  0.2430
    1W        W35224  14.145  25.977   0.336  0.3305  0.1938 -0.2547
    1W        W35225  20.388  12.719   8.695 -0.0148  0.1286  0.0351
    1W        W35226   6.403   4.729   0.307  0.1237  0.0317 -0.2449
    1W        W35227  11.463  23.098   7.497 -0.0606 -0.1907 -0.1063
    1W        W35228  13.615   8.148   9.602 -0.3730 -0.0483 -0.3528
    1W        W35229  18.879  18.370   9.850  0.0580 -0.0602 -0.0580
    1W        W35230  11.007   6.081   9.427 -0.1300 -0.3043 -0.0103
    1W        W35231   8.179  26.721   0.360  0.1217 -0.2278  0.2151
    1W        W35232  23.295  12.851   6.961 -0.0244 -0.0663 -0.1641
    1W        W35233   1.230   1.253   7.439 -0.1579  0.1275  0.0429
    1W        W35234  16.215  10.000   7.041  0.0918 -0.0441  0.2966
    1W        W35235  24.566  17.319  10.054  0.0056  0.0401 -0.3723
    1W        W35236  11.735   6.865   1.420 -0.1977 -0.1483  0.0521
    1W        W35237   4.552   4.902   8.971 -0.0765 -0.0338  0.1811
    1W        W35238   3.485  16.197   8.263 -0.1635 -0.1830 -0.3247
    1W        W35239  23.567  19.518   3.034 -0.0581  0.1601 -0.2440
    1W        W35240  13.909   6.277   2.497  0.0664  0.1039  0.2541
    1W        W35241   3.404   8.518   2.188 -0.2582 -0.1523 -0.3510
    1W        W35242  26.943   1.952   7.708 -0.0432  0.6268 -0.0581
    1W        W35243  22.995   3.652   8.019 -0.0785  0.3808 -0.1625
    1W        W35244   1.422  19.137   8.882  0.1505 -0.0100  0.0472
    1W        W35245  22.647   0.194   0.294 -0.1907  0.1864  0.1340
    1W        W35246   1.704   4.875   6.031  0.1630 -0.0861 -0.1820
    1W        W35247  20.731   9.229   6.638 -0.0047  0.0776 -0.0528
    1W        W35248  23.358   2.364   7.562 -0.1211 -0.2361 -0.0377
    1W        W35249   2.607  15.800  10.044 -0.0973  0.4124 -0.0665
    1W        W35250  11.379  15.372   8.480  0.0601  0.0688 -0.0593
    1W        W35251  13.282  14.159   3.812 -0.0345 -0.0633  0.2070
    1W        W35252  17.976   9.607   8.609 -0.2503  0.0358 -0.1870
    1W        W35253  20.585  10.379   7.843  0.2979  0.0307 -0.0533
    1W        W35254  13.354   8.388   0.116  0.0779 -0.0921 -0.1650
    1W        W35255  21.368  11.712   9.925  0.0578 -0.0506  0.1189
    1W        W35256  25.189  23.605  10.101 -0.0843  0.1442  0.3407
    1W        W35257  16.171  22.726   2.226  0.0731  0.1836 -0.0921
    1W        W35258   3.405  19.391   2.086  0.0805 -0.0891 -0.3401
    1W        W35259   0.741  15.787   9.550  0.0566 -0.2722  0.1775
    1W        W35260   3.709   1.429   0.872  0.0435 -0.1479  0.1544
    1W        W35261   3.455   8.727   1.650 -0.0358 -0.1687  0.0050
    1W        W35262   7.129  17.697   2.683  0.0840  0.1855  0.1850
    1W        W35263   2.827  22.772   2.758 -0.1845  0.1073  0.1357
    1W        W35264  14.416  16.150   8.804 -0.0575 -0.4468  0.0171
    1W        W35265   6.746   1.325   9.572  0.0196  0.2121  0.1892
    1W        W35266  21.101  19.367   9.500 -0.0464 -0.3158 -0.0108
    1W        W35267  19.864   9.509   7.335 -0.3589 -0.1758 -0.2204
    1W        W35268   5.665   1.681   2.770 -0.0186  0.1854  0.1138
    1W        W35269   5.244  26.162   9.967  0.2371 -0.0513  0.0292
    1W        W35270   6.626   0.591   1.281  0.0931 -0.3254  0.2384
    1W        W35271  10.535  10.347   8.371  0.2183 -0.2809 -0.0444
    1W        W35272  27.423   0.318   9.830 -0.0552 -0.2066  0.1531
    1W        W35273  27.530  13.677   7.229 -0.2162 -0.0536  0.3127
    1W        W35274  14.982  27.302   2.090 -0.0154  0.2855  0.0641
    1W        W35275   4.144  25.133   8.993  0.1721 -0.2163  0.2077
    1W        W35276   8.383  27.403   7.690 -0.2090 -0.0699  0.0117
    1W        W35277   5.156  17.920   2.191  0.3558 -0.0355 -0.1582
    1W        W35278  22.494  13.984   0.552  0.3573  0.3732 -0.0979
    1W        W35279  17.784  23.083  10.187 -0.3593  0.2310  0.0836
    1W        W35280  27.090  17.222   7.106  0.1633  0.2074 -0.3335
    1W        W35281  11.739  26.563   2.545 -0.3519 -0.3091 -0.2601
    1W        W35282   7.486  11.056   2.437 -0.1198  0.1208  0.2480
    1W        W35283  22.403   2.644   9.529  0.2384 -0.0445 -0.2176
    1W        W35284  15.144   5.245   8.389  0.2178  0.0545 -0.0407
    1W        W35285  17.801  14.849   8.095 -0.2613  0.1523  0.0708
    1W        W35286   9.352  14.360   9.519 -0.2113 -0.1820  0.1864
    1W        W35287   8.191  27.626   0.232 -0.0312 -0.1884  0.2479
    1W        W35288  12.477  18.064   3.778 -0.2064  0.2140 -0.0658
    1W        W35289  24.152  20.667   8.862  0.1227  0.0110  0.0825
    1W        W35290   4.349  16.895   9.219  0.3739 -0.1331 -0.0939
    1W        W35291   9.531  27.391   3.637  0.0311  0.1424  0.2357
    1W        W35292  25.240   6.506   1.086 -0.1022  0.3241  0.1426
    1W        W35293  13.624  22.113   0.446  0.5143 -0.2321  0.0879
    1W        W35294   0.462   0.936  10.182 -0.1070  0.1173 -0.0659
    1W        W35295   5.099  10.905   0.267 -0.1770 -0.0997 -0.1724
    1W        W35296  13.975   9.002   0.268 -0.0774  0.0171  0.2377
    1W        W35297  26.262  19.090   7.503 -0.1902  0.1426 -0.1189
    1W        W35298  21.039  28.058   7.798 -0.0069  0.2304  0.0208
    1W        W35299  18.071   5.853   9.939  0.3525  0.2296  0.2760
    1W        W35300  11.440   5.804   2.423 -0.6515  0.0576 -0.2174
    1W        W35301   3.619  13.859   2.232  0.2373 -0.0709 -0.3178
    1W        W35302  16.975  17.819   1.614 -0.3179 -0.1017 -0.1090
    1W        W35303   6.766  15.483   8.864 -0.0033  0.2398  0.3001
    1W        W35304  10.025  23.214   6.928 -0.1057  0.1540 -0.1465
    1W        W35305   1.661  23.281   1.213  0.2922  0.0878 -0.0648
    1W        W35306  18.371  16.144   8.644  0.0458  0.0237 -0.2008
    1W        W35307  23.106   8.480  10.128  0.0877  0.0090 -0.0707
    1W        W35308  15.371  20.967   3.386 -0.2192  0.1476  0.1652
    1W        W35309  21.935  19.306   8.443 -0.2005 -0.0455 -0.0492
    1W        W35310   0.938   0.125  10.029  0.2348  0.2590  0.0173
    1W        W35311  13.226   3.492   0.455  0.1648 -0.1478 -0.2801
    1W        W35312  15.941  12.291   9.813  0.2407  0.0056  0.0031
    1W        W35313   9.751   6.961   9.996 -0.1981  0.0956  0.3372
    1W        W35314  20.814  12.496   8.509 -0.2352 -0.2827  0.0950
    1W        W35315  22.392  24.060  10.079  0.0923 -0.1327 -0.0458
    1W        W35316  17.405  16.714   2.330  0.1710  0.0434 -0.0596
    1W        W35317   1.347  24.425   7.668  0.1753 -0.0199 -0.1310
    1W        W35318  20.924   1.647   1.734 -0.1636 -0.0204 -0.1038
    1W        W35319  16.707  20.041   0.176 -0.2134 -0.1768  0.0444
    1W        W35320  21.163   1.449   0.374 -0.0920 -0.3140 -0.0176
    1W        W35321  15.656   7.802   8.876  0.1234 -0.0245 -0.2160
    1W        W35322  19.533   3.267   1.257 -0.0907 -0.0368 -0.2963
    1W        W35323   1.892  17.074   2.528 -0.1068  0.0035 -0.1083
    1W        W35324   1.320   9.294   2.000 -0.0156 -0.1252 -0.0164
    1W        W35325   2.310  19.650  10.320 -0.2089 -0.0192  0.3130
    1W        W35326   4.981  25.838   9.005 -0.1293  0.0690  0.3433
    1W        W35327   6.200   6.518   3.330 -0.1997 -0.0840 -0.0307
    1W        W35328   6.354  23.334   9.817 -0.0437 -0.0031  0.0571
    1W        W35329  20.043   5.426   7.924  0.2521 -0.1296 -0.0279
    1W        W35330   6.236   3.750   1.325  0.0204  0.2778  0.1121
    1W        W35331  14.218   6.714   0.040  0.3136  0.2327 -0.1543
    1W        W35332  21.082  24.168   2.211 -0.4182  0.0315 -0.1247
    1W        W35333  19.015  18.448   7.515 -0.3665  0.0888 -0.2213
    1W        W35334  14.390  26.394   8.624 -0.3450  0.0392  0.1317
    1W        W35335  23.204  25.085   0.946 -0.3562 -0.0294 -0.0257
    1W        W35336  10.796  26.215   9.028 -0.1868 -0.0255 -0.0156
    1W        W35337  10.853  11.865   2.216 -0.1555  0.1967  0.2137
    1W        W35338   8.587   1.609   8.834  0.0426  0.0013 -0.1861
    1W        W35339  27.810  20.067   0.826 -0.1540 -0.1347 -0.0680
    1W        W35340  14.387   5.300   8.712  0.0392 -0.0553  0.0276
    1W        W35341  19.930   3.551   2.647 -0.2073  0.1939 -0.0037
    1W        W35342   4.262   0.746   9.342  0.2194  0.0536  0.0091
    1W        W35343   6.247   0.861   1.344 -0.3535 -0.0649  0.0461
    1W        W35344   2.057   9.463   7.563 -0.0509  0.2620  0.0891
    1W        W35345  25.789   3.308   1.832 -0.0823 -0.1662  0.0558
    1W        W35346  24.639  25.671   1.531 -0.0015  0.0067  0.0352
    1W        W35347  21.949  27.532   3.164  0.1213  0.2192 -0.0356
    1W        W35348  23.514  16.355   7.196  0.0108  0.0189  0.0561
    1W        W35349  21.621  11.518   0.405 -0.0387  0.1130 -0.1543
    1W        W35350  24.847   3.518   7.973  0.3859 -0.0364  0.2198
    1W        W35351   6.269  13.862   7.303  0.1075  0.1177  0.0659
    1W        W35352  10.047  20.121   0.368  0.1026 -0.1641 -0.1812
    1W        W35353  17.499  19.632   8.070 -0.1794 -0.0849 -0.1241
    1W        W35354  18.497  27.021   0.376 -0.0095  0.1546 -0.0896
    1W        W35355  19.730   4.978   9.665  0.4953 -0.2057  0.2901
    1W        W35356  27.066   1.278   2.986 -0.3214 -0.2401  0.0607
    1W        W35357   2.043   8.433   6.999  0.3209  0.0971 -0.1158
    1W        W35358  20.357  20.428   2.335  0.1267 -0.1986 -0.2334
    1W        W35359   1.498   0.140   7.232 -0.0035  0.4557  0.1844
    1W        W35360   7.501   6.662   9.260 -0.0120 -0.0084  0.1491
    1W        W35361   2.428  26.276   1.702  0.0135 -0.0242 -0.0889
    1W        W35362   0.658   8.222  10.146 -0.0580 -0.3486  0.0401
    1W        W35363  17.076   4.431   3.588 -0.2349 -0.1451  0.0253
    1W        W35364   1.718   7.414   6.570 -0.3626 -0.0528 -0.0094
    1W        W35365  25.525   5.711   7.779  0.3088  0.2171 -0.0261
    1W        W35366  23.652  15.166   0.128 -0.2034 -0.1797  0.1807
    1W        W35367  16.027   0.381   2.025  0.0112 -0.0169 -0.0902
    1W        W35368  18.559  14.000   2.988  0.1193 -0.1865  0.1598
    1W        W35369  13.695  26.997   8.731 -0.3459  0.4636 -0.0145
    1W        W35370   6.640   0.869   8.742 -0.0700  0.0074  0.0615
    1W        W35371  10.612  13.134   0.048  0.0936 -0.1038 -0.0154
    1W        W35372  19.537  15.751   3.319 -0.0020 -0.1532 -0.0033
    1W        W35373  16.149  24.950   1.663 -0.0285  0.1045 -0.0156
    1W        W35374  16.151   6.281   0.591 -0.1948  0.2328  0.1674
    1W        W35375   5.463  14.177   1.771 -0.3335 -0.2324  0.1312
    1W        W35376  15.099  20.053   0.233  0.1187  0.1261 -0.1266
    1W        W35377   2.108  17.775   6.454 -0.2758  0.1888  0.0472
    1W        W35378   7.970  13.856   3.629 -0.1650  0.1946  0.0228
    1W        W35379  15.727   3.313   0.131  0.0798 -0.1065 -0.3353
    1W        W35380  12.314  16.825   0.042 -0.0512 -0.4170  0.0349
    1W        W35381  13.928  11.457   3.605  0.3011 -0.0410  0.2360
    1W        W35382  21.512  10.407   7.574 -0.0939  0.2261  0.2181
    1W        W35383  13.457  14.925  10.270 -0.2027 -0.0212  0.1086
    1W        W35384  14.247   6.793   8.752 -0.0092 -0.2106 -0.1636
    1W        W35385  15.100  24.298   8.147  0.2616  0.0411  0.0991
    1W        W35386  15.381   7.003   7.553 -0.0236 -0.0253 -0.1708
    1W        W35387  15.792  18.709   3.123  0.1735 -0.1905 -0.1891
    1W        W35388  11.660  10.348   9.600  0.0935  0.0030  0.1523
    1W        W35389  25.137  13.789   9.280  0.0501  0.1436 -0.1063
    1W        W35390   3.200   7.154   0.050 -0.0037  0.1859 -0.1876
    1W        W35391   3.866  10.358   3.394 -0.0804 -0.1891 -0.1111
    1W        W35392   9.740   7.364   8.196  0.0472  0.0241  0.0607
    1W        W35393   1.237  18.185   7.825 -0.0273  0.3352  0.1905
    1W        W35394   6.722  27.092   0.657 -0.0766  0.1564 -0.1823
    1W        W35395   5.347   3.760   9.592  0.2928 -0.0733 -0.0756
    1W        W35396  17.613  14.422   7.223 -0.3533  0.1490 -0.2065
    1W        W35397   6.425  16.658   1.562 -0.0569  0.0595 -0.1299
    1W        W35398  14.975  27.231   7.823  0.0133  0.0170 -0.2347
    1W        W35399  21.194  24.972   9.523  0.3145  0.1315  0.2508
    1W        W35400  14.420  20.959   8.658 -0.2240  0.0202 -0.2281
    1W        W35401  23.076   1.675   7.904 -0.1720  0.1587 -0.1627
    1W        W35402  10.603   6.312   2.931  0.0605  0.0001  0.0014
    1W        W35403   3.609  24.141   9.119 -0.1660  0.3338 -0.1687
    1W        W35404  24.762  10.168   7.596  0.0754 -0.3055  0.2799
    1W        W35405  16.290  16.805   3.651 -0.0041  0.1799 -0.0059
    1W        W35406   5.104  10.737   1.514  0.0207  0.0345 -0.2578
    1W        W35407  23.702  22.740   6.862 -0.1092  0.1390  0.0585
    1W        W35408  17.765   0.108   2.522  0.2639 -0.2563 -0.1078
    1W        W35409  12.549  18.151   8.222 -0.1414 -0.0685  0.3439
    1W        W35410  21.056  25.875   7.202  0.0681 -0.0243 -0.3099
    1W        W35411  20.844  10.284   0.782  0.1632 -0.0334 -0.1132
    1W        W35412   3.029   4.611   9.527  0.1482  0.3523  0.0552
    1W        W35413  12.953  23.605   1.474 -0.4307  0.0809 -0.0472
    1W        W35414   9.175  21.729   0.029 -0.2173  0.2009  0.1005
    1W        W35415  27.929   7.683   7.373  0.0973  0.1075 -0.0280
    1W        W35416   4.780  25.295   2.512 -0.2019 -0.0670  0.2767
    1W        W35417  15.129  26.460   0.902 -0.2718 -0.2788 -0.1208
    1W        W35418  19.840   9.376   0.564 -0.0434  0.1083 -0.0256
    1W        W35419   2.586  20.192   7.036 -0.2180  0.0300  0.0826
    1W        W35420   8.538  25.054   7.986 -0.0430 -0.0739 -0.1669
    1W        W35421   2.388  13.490   2.042 -0.0881 -0.0383  0.0975
    1W        W35422   9.841   5.007   2.035  0.0373  0.0190  0.0999
    1W        W35423  22.424   2.931   6.593  0.0561  0.0062 -0.4066
    1W        W35424  14.483  16.127   1.919  0.2251 -0.1104 -0.1595
    1W        W35425  22.326  15.996   9.005  0.1033  0.1229 -0.0659
    1W        W35426  26.300   6.016   8.171  0.1538 -0.0610  0.2257
    1W        W35427  11.956  11.577   0.042  0.1811 -0.2100  0.4611
    1W        W35428   6.242  17.471   1.723  0.1186  0.3002  0.1140
    1W        W35429  11.806  13.121   9.773  0.0369 -0.4045 -0.0677
    1W        W35430  10.087  18.781   2.643  0.1364 -0.0282 -0.1540
    1W        W35431  23.847   1.225  10.315 -0.3685  0.1468  0.0401
    1W        W35432   3.046  13.932   8.168  0.1125 -0.2291 -0.0689
    1W        W35433   9.401  12.466   9.859  0.0300 -0.1243  0.0480
    1W        W35434  10.247  21.742   3.754 -0.2097  0.0625  0.0614
    1W        W35435   6.259   4.620   9.034  0.0128 -0.3299 -0.1995
    1W        W35436  20.870  18.363   8.238  0.0081 -0.0773 -0.0848
    1W        W35437  12.251   1.685   0.960 -0.0119 -0.0232  0.1041
    1W        W35438  14.471  18.264   2.982  0.0359 -0.0493  0.0209
    1W        W35439  16.693  20.298   8.134 -0.0304 -0.1820 -0.0587
    1W        W35440   2.208  21.998   2.388  0.1233  0.1133  0.0806
    1W        W35441  19.281  20.915   4.165 -0.2464 -0.3674 -0.2736
    1W        W35442   4.305  19.594   3.098  0.1661  0.2729  0.4319
    1W        W35443  12.936  21.813   9.621  0.1787 -0.2543  0.0862
    1W        W35444  24.390   9.662  10.149  0.2745  0.0679 -0.3556
    1W        W35445  21.035  13.499   3.106 -0.2050 -0.1817  0.0709
    1W        W35446   4.742  19.475   1.046  0.1453 -0.0598  0.1976
    1W        W35447  18.325   7.090   0.140  0.1424  0.1978  0.3808
    1W        W35448  24.032   0.760   0.659 -0.0610  0.3838 -0.1196
    1W        W35449  21.486  16.569   7.908  0.1314 -0.1965  0.1412
    1W        W35450  19.809  10.669   9.822  0.1233 -0.2047 -0.2213
    1W        W35451  17.876  17.692   1.867 -0.1894 -0.1643  0.3109
    1W        W35452   6.856  20.601   4.144 -0.0753 -0.0586  0.1291
    1W        W35453  17.032   8.045   2.531 -0.1873  0.0378 -0.2165
    1W        W35454  22.622   7.171   0.345 -0.0099  0.2743 -0.0352
    1W        W35455  14.072   2.786   2.258  0.0306  0.0493 -0.0228
    1W        W35456  25.464   1.912   7.752  0.0615 -0.0620 -0.1456
    1W        W35457  21.763  17.261  10.349  0.1564  0.1008  0.1647
    1W        W35458  18.780  24.289   1.745  0.1420 -0.1411 -0.2944
    1W        W35459  21.360  17.789   1.151  0.0055  0.1545  0.1152
    1W        W35460  21.402  28.117   1.385  0.0182  0.1741 -0.1672
    1W        W35461  13.757  11.314   8.232  0.2639 -0.4749 -0.2390
    1W        W35462  25.179   8.969   8.510  0.1475 -0.0844 -0.2207
    1W        W35463   3.787  13.717   8.773  0.2180  0.0087 -0.1307
    1W        W35464   2.139   5.167   8.394 -0.1334  0.3104  0.1982
    1W        W35465  21.150  11.623   0.612 -0.2920 -0.1628 -0.1360
    1W        W35466  21.044   9.239   8.072 -0.2372  0.1865 -0.1705
    1W        W35467  19.011  15.560   2.267  0.2887 -0.2947  0.1001
    1W        W35468  10.254   6.352   2.380 -0.2368 -0.0002  0.0784
    1W        W35469   9.402  15.828   9.408  0.0200  0.1399  0.3948
    1W        W35470  20.189  18.740   0.874  0.0764  0.0548 -0.0707
    1W        W35471   7.292  13.174   9.970 -0.3121 -0.0721  0.0544
    1W        W35472  16.359  17.902   1.106  0.1063 -0.1757 -0.1630
    1W        W35473   1.155  22.853   8.502 -0.4177 -0.1313  0.1762
    1W        W35474  25.425  22.660   3.255 -0.0922 -0.1609  0.0189
    1W        W35475  20.413   9.574   8.553 -0.0595  0.0160 -0.2007
    1W        W35476  22.846  20.112   3.102 -0.3448  0.2535 -0.0345
    1W        W35477  27.186   7.356   2.460 -0.2789  0.0451  0.0050
    1W        W35478  25.555   7.095   1.707 -0.2143  0.1395  0.0726
    1W        W35479  19.866  27.049   3.487 -0.1174  0.0373  0.4172
    1W        W35480  24.374   3.149  10.037  0.1877  0.0521 -0.0960
    1W        W35481  12.760   3.122   7.404  0.0236  0.1318 -0.0087
    1W        W35482  27.706   3.697   2.774 -0.0590  0.0012  0.2004
    1W        W35483   5.490   4.808   7.772 -0.1052  0.0675 -0.0398
    1W        W35484  20.092  21.649   7.821  0.0349 -0.0799 -0.4088
    1W        W35485   3.496  10.533   8.794 -0.1865  0.2285 -0.4979
    1W        W35486  26.827  17.623   0.389  0.1489 -0.2485  0.2282
    1W        W35487  20.655   1.414   1.354  0.3275  0.0324 -0.0962
    1W        W35488   2.916  21.459   2.059  0.2026  0.0551 -0.1424
    1W        W35489  22.522   4.513   8.289  0.0326 -0.1241 -0.1436
    1W        W35490  11.937   2.881   0.401  0.1248 -0.1171  0.1127
    1W        W35491  15.080  23.125   9.094  0.0337 -0.0813 -0.0694
    1W        W35492  23.946  17.780   8.599 -0.1335  0.2932 -0.0993
    1W        W35493  18.535  12.788   9.016 -0.0558 -0.0639 -0.2818
    1W        W35494  23.768  16.045   8.788 -0.0957  0.0648  0.2120
    1W        W35495   1.900  25.440   8.362  0.1628  0.0313 -0.0116
    1W        W35496  17.070   7.427   1.477  0.1427  0.4618  0.1353
    1W        W35497  27.205   8.759   7.282  0.1189 -0.3909  0.0038
    1W        W35498   2.245  19.873   7.207  0.0301  0.0456 -0.0233
    1W        W35499   6.394  26.931   6.962 -0.0557 -0.0402 -0.5491
    1W        W35500  15.407  28.102   3.078  0.0061 -0.2127 -0.0841
    1W        W35501   3.862  25.301   0.093  0.3834  0.4070  0.3462
    1W        W35502  16.582   9.553   8.426 -0.0356 -0.0196 -0.0338
    1W        W35503  27.440  18.815   8.492 -0.0702 -0.2527  0.3716
    1W        W35504  10.983  13.085   8.488  0.0473  0.2744 -0.0496
    1W        W35505   8.381  26.393   2.647  0.0401 -0.1540  0.2223
    1W        W35506   6.453  21.221   8.845  0.0505  0.0922 -0.3000
    1W        W35507  24.833  19.761   0.711  0.2078  0.3126 -0.0726
    1W        W35508   6.177  24.452   7.914  0.0551  0.2413 -0.1105
    1W        W35509   3.181  27.409   1.990 -0.0184 -0.1351  0.2517
    1W        W35510   4.239  10.129   8.173 -0.0240  0.1657  0.0068
    1W        W35511  19.636   1.516   0.618  0.1945  0.0822  0.0554
    1W        W35512  16.508  10.957  10.008  0.0412  0.1171  0.0838
    1W        W35513  18.297  16.278   2.270 -0.2993 -0.2873 -0.0497
    1W        W35514  17.910   1.796   8.337 -0.2462  0.1840  0.1472
    1W        W35515  13.001   5.789   0.287 -0.1811  0.3603  0.3608
    1W        W35516  20.080  18.033   0.244 -0.1759 -0.1162  0.2370
    1W        W35517  21.509  27.160   0.966  0.1196  0.3361  0.0769
    1W        W35518  15.500   6.652   7.887 -0.1641  0.1702  0.0844
    1W        W35519  17.188  16.668   8.969  0.1391  0.3383  0.1497
    1W        W35520  24.097  14.563   1.539 -0.0298  0.1588  0.1074
    1W        W35521  15.231   7.066   2.294 -0.3236 -0.1487  0.1108
    1W        W35522   8.291  18.473   8.167 -0.1767  0.2192 -0.0976
    1W        W35523   5.875  10.653   6.762  0.2192 -0.3441  0.0208
    1W        W35524   1.549   2.188   8.013  0.0515  0.1020  0.0092
    1W        W35525   2.028   3.633   9.825  0.1466 -0.0782  0.3178
    1W        W35526  21.458  18.308   8.509  0.2953 -0.1132 -0.1404
    1W        W35527  26.298  19.426   9.813 -0.2353 -0.3977  0.2362
    1W        W35528  16.702  14.133   7.937  0.0343 -0.0168  0.1043
    1W        W35529  11.977  26.210   0.528  0.2126 -0.0671  0.3317
    1W        W35530   6.024  17.058   8.463 -0.3295 -0.0064  0.3452
    1W        W35531  13.550  14.791   8.801  0.0531  0.2667  0.1374
    1W        W35532   2.596   1.686   0.421  0.0266  0.3640 -0.0656
    1W        W35533   9.297   1.914   8.424 -0.0144 -0.0375 -0.0301
    1W        W35534   4.865  19.886   3.159  0.0608  0.2984  0.0470
    1W        W35535   3.573  26.714   2.755  0.1459  0.3218  0.0133
    1W        W35536  14.125   4.497   1.604 -0.1482  0.0606 -0.0572
    1W        W35537  20.783  16.627   9.569 -0.0457  0.1914  0.0932
    1W        W35538  14.167  12.603   3.477  0.0935 -0.0428 -0.0398
    1W        W35539  22.347   5.601   6.705 -0.0758  0.0414 -0.1994
    1W        W35540   6.599  13.584   7.891 -0.0694 -0.1721 -0.0132
    1W        W35541  25.547  26.250   7.797 -0.1187  0.1306  0.1478
    1W        W35542  27.956   6.362   6.252  0.1280  0.0372  0.2533
    1W        W35543  20.642   6.021   0.855 -0.2948 -0.5158  0.3384
    1W        W35544  22.386  25.636   0.208 -0.1202  0.1931 -0.2607
    1W        W35545   6.366  11.066   7.962 -0.1943  0.2269  0.0419
    1W        W35546  25.122  18.061   2.154 -0.3264  0.1227 -0.1267
    1W        W35547  24.184   5.151  10.096 -0.1671  0.1777  0.1403
    1W        W35548  21.453  26.042   3.069 -0.1241  0.0273  0.1460
    1W        W35549  21.594  13.348   8.840 -0.2507  0.0143  0.1056
    1W        W35550   4.370   8.216   1.432  0.1127 -0.0526  0.2675
    1W        W35551  22.917  23.937   8.069 -0.2641 -0.2698 -0.0492
    1W        W35552  19.171  18.848   1.265 -0.1670 -0.1384  0.1929
    1W        W35553  16.043  22.717   8.023  0.3697 -0.1864 -0.1310
    1W        W35554   1.939  10.992   1.014 -0.2660 -0.0088  0.1599
    1W        W35555   5.365   6.823  10.176 -0.0288  0.0129 -0.0146
    1W        W35556  13.085  17.401   2.914 -0.1218  0.2378 -0.1636
    1W        W35557   1.549  25.171   1.281 -0.2648 -0.0595 -0.0728
    1W        W35558   6.016  17.287   0.448  0.1836 -0.0720 -0.0895
    1W        W35559  18.544   5.662   8.018 -0.0685  0.0808 -0.2527
    1W        W35560  22.420  19.543   8.476 -0.3338  0.0079  0.0511
    1W        W35561  21.784   4.751   1.429 -0.0494  0.1127  0.0869
    1W        W35562  22.984   6.166   1.585 -0.1224 -0.1658 -0.1985
    1W        W35563  20.072   7.374  10.212  0.3840  0.1616 -0.0484
    1W        W35564  15.103  21.465   7.476 -0.2645  0.0929  0.3482
    1W        W35565   5.032  16.771   3.577 -0.0655  0.1024  0.0588
    1W        W35566  21.382   5.744   1.889  0.4681  0.0844 -0.1759
    1W        W35567   7.584  11.119   8.917  0.1572 -0.3683  0.2776
    1W        W35568  17.233   4.611   9.402  0.2517 -0.0441  0.0809
    1W        W35569  18.161   0.648   9.554  0.0064  0.0408 -0.1425
    1W        W35570  22.392   5.493   8.452  0.1737  0.1130 -0.2637
    1W        W35571  21.986   3.570   2.851  0.2256  0.2752  0.1311
    1W        W35572  14.457  22.314   3.373 -0.0042 -0.1038  0.2760
    1W        W35573   6.356   9.730   9.360 -0.1405  0.0653 -0.0366
    1W        W35574  17.164   8.119   1.939 -0.3701  0.0002 -0.0040
    1W        W35575  21.821   8.324   8.935 -0.2453  0.0111  0.1770
    1W        W35576  11.012  15.462   0.297 -0.1027  0.0051 -0.0311
    1W        W35577  20.355   9.578   7.562 -0.4013  0.0390  0.0520
    1W        W35578   2.726   1.887   6.745  0.1423  0.1271  0.0964
    1W        W35579  25.429   6.713   9.246 -0.1515  0.1183  0.0666
    1W        W35580   3.062   1.087   7.191 -0.0623  0.0092  0.1791
    1W        W35581   4.965  22.251   7.717  0.1283 -0.0528  0.2674
    1W        W35582  17.745  21.133   3.183  0.1260 -0.0041  0.1499
    1W        W35583  14.276  20.544   8.228 -0.0740 -0.3524  0.0708
    1W        W35584  27.504   3.898   1.517 -0.0968 -0.0713 -0.2442
    1W        W35585  12.861  15.355   2.134  0.0493  0.0560 -0.1578
    1W        W35586   8.991   3.985   7.991 -0.0737 -0.1523  0.0340
    1W        W35587   3.278   7.173   7.352 -0.1518 -0.0898  0.1302
    1W        W35588   2.601  25.821   7.090  0.2209 -0.1151  0.0620
    1W        W35589  11.628  21.578   1.984  0.1313  0.0893  0.0383
    1W        W35590   8.381  20.829   1.858 -0.1014 -0.1449  0.1169
    1W        W35591   5.160   7.494   0.802 -0.2588 -0.0370  0.1836
    1W        W35592  12.221  13.828   2.459 -0.2130 -0.1792  0.0124
    1W        W35593   1.423  23.769   8.778 -0.1700  0.0473  0.3129
    1W        W35594  19.299   0.345   2.374 -0.0708  0.3258  0.0110
    1W        W35595  12.113  12.582   8.407 -0.4432 -0.1655 -0.0150
    1W        W35596  22.386  21.948   8.125  0.2827  0.0545  0.0102
    1W        W35597  25.865   9.483   7.531  0.0427 -0.0413 -0.2470
    1W        W35598  14.414   6.293   8.316  0.1894  0.0447  0.0854
    1W        W35599   1.949  17.013   6.685 -0.1142  0.0411  0.0538
    1W        W35600  25.503   7.122   2.219 -0.0512 -0.0207 -0.4572
    1W        W35601  13.826  20.310   2.356 -0.2274  0.0645  0.0443
    1W        W35602  21.359   1.558   9.956  0.1428  0.0184 -0.2553
    1W        W35603  16.178  15.088   0.806 -0.0875 -0.0712  0.2808
    1W        W35604  19.469  23.074   8.135 -0.0910  0.2409 -0.0582
    1W        W35605   9.242  15.545   8.569  0.0336  0.0059  0.0099
    1W        W35606  24.771   6.811   8.527 -0.2228  0.1888  0.0148
    1W        W35607  16.111   1.327   1.965 -0.0846 -0.1019  0.0834
    1W        W35608  14.008  25.723   2.163  0.0619  0.1234 -0.1020
    1W        W35609  23.908   5.940   2.528  0.0259 -0.3494 -0.0776
    1W        W35610  25.891  13.891   2.154 -0.4007  0.3209  0.1259
    1W        W35611  23.408  26.650   8.061 -0.1112 -0.0464 -0.0601
    1W        W35612   5.126  17.648   0.384  0.4707  0.3583 -0.0658
    1W        W35613   7.735  23.472   0.362  0.0641 -0.0920  0.1548
    1W        W35614  12.880  21.235   2.097  0.0504  0.0354  0.2786
    1W        W35615  16.741   6.212   0.971  0.0283 -0.0149 -0.1483
    1W        W35616  10.409  25.023   2.106  0.0702  0.0228  0.0122
    1W        W35617   0.353  16.912   9.593 -0.0051  0.2542 -0.1168
    1W        W35618  11.270  12.801   9.091  0.1730  0.0275  0.0895
    1W        W35619  19.191   1.694   3.517  0.1469  0.0156  0.0159
    1W        W35620   1.965   8.043   1.787 -0.1374  0.1252  0.0050
    1W        W35621   4.267  24.394   2.553  0.0636  0.1230  0.1724
    1W        W35622  20.694  22.450   7.002  0.0850  0.1622 -0.1182
    1W        W35623   9.356  21.307   9.486 -0.0584 -0.0108 -0.1081
    1W        W35624  18.336  22.828   0.299 -0.1602  0.1878  0.1918
    1W        W35625  23.411   9.000   0.516 -0.2037  0.0091 -0.2054
    1W        W35626  24.655   7.007   1.547 -0.4573  0.2284 -0.1949
    1W        W35627  12.400   2.222   2.395  0.1521 -0.0674  0.1010
    1W        W35628  22.301   0.668   8.483 -0.5042 -0.0317  0.0352
    1W        W35629  26.470  26.336   0.365 -0.0390  0.3274  0.0943
    1W        W35630  19.632   6.984   8.819 -0.1760  0.3438  0.0491
    1W        W35631   6.952  14.394   8.206 -0.0153  0.1929 -0.1080
    1W        W35632  12.497  15.467   3.234 -0.1519  0.0699  0.0606
    1W        W35633  14.857  10.398  10.343 -0.0559  0.1068 -0.1122
    1W        W35634  25.197  22.072   0.015 -0.0467  0.0051  0.0205
    1W        W35635  22.483   6.874   8.661 -0.1692  0.0238 -0.3597
    1W        W35636   0.729  17.652   8.482  0.1297 -0.0548  0.3326
    1W        W35637   1.018  14.668   1.485 -0.1977 -0.1786 -0.0321
    1W        W35638  15.117   6.660   1.640  0.1625 -0.0068  0.2013
    1W        W35639   3.004  10.000  10.266 -0.2915  0.0431  0.0121
    1W        W35640  22.985  21.493   7.464 -0.0725 -0.1065  0.1445
    1W        W35641  24.311  22.042   8.130  0.0484 -0.1394  0.2318
    1W        W35642  27.054   4.670   2.298 -0.0724 -0.0943 -0.0238
    1W        W35643  14.027   9.845  10.238  0.0866 -0.4538 -0.1481
    1W        W35644  12.495  10.397   9.126  0.1211  0.4485 -0.2197
    1W        W35645  14.655  14.525   3.258  0.0650  0.0820 -0.1839
    1W        W35646  12.741   7.138   8.867 -0.2333 -0.3904 -0.3876
    1W        W35647   9.740  20.325   1.598 -0.1120 -0.2008 -0.1595
    1W        W35648   6.363  14.502   2.758  0.0406  0.4231 -0.0073
    1W        W35649  23.666  23.852   7.456  0.1176 -0.1259  0.2346
    1W        W35650  26.123   7.343   7.322 -0.0054  0.0774  0.1417
    1W        W35651   4.532   7.550   2.416 -0.0878 -0.2530 -0.2001
    1W        W35652  21.286  28.087   0.723  0.0083 -0.1436 -0.2685
    1W        W35653  24.760  23.675   0.608  0.1619  0.1897 -0.1355
    1W        W35654  13.023   7.681   3.279  0.0719  0.1877 -0.0356
    1W        W35655  18.897   2.045   1.579 -0.1173  0.1247  0.1317
    1W        W35656  17.009   3.475   4.022 -0.0932 -0.0577  0.1220
    1W        W35657  15.429  13.244   0.880  0.0545 -0.2080 -0.3565
    1W        W35658   0.149   5.666   9.739  0.0312  0.0185 -0.3096
    1W        W35659  16.285   4.618   0.591  0.0019 -0.1373 -0.1677
    1W        W35660  18.178  18.828   3.461 -0.0800 -0.1815 -0.0131
    1W        W35661  16.994   0.527   1.882 -0.0170 -0.0526  0.0764
    1W        W35662  15.795  20.766   7.135  0.0148  0.0831  0.0733
    1W        W35663  20.552   5.158   7.865 -0.1320 -0.0727  0.3527
    1W        W35664  25.490   6.864   0.273 -0.0125 -0.0678 -0.3504
    1W        W35665  19.590  17.299   2.921  0.1717 -0.2372 -0.0444
    1W        W35666  20.289  23.024  10.339  0.1287  0.2151  0.0995
    1W        W35667  26.995  13.493   1.909  0.0616  0.0677  0.0963
    1W        W35668   3.176  21.250  10.145 -0.0769 -0.1798 -0.0987
    1W        W35669  23.424   0.469   7.765  0.1318  0.0659 -0.2169
    1W        W35670  18.294   9.329   1.537 -0.0433  0.0278 -0.1469
    1W        W35671   5.917   4.529  10.188 -0.1296 -0.0998  0.3157
    1W        W35672  12.873   3.799   7.990 -0.1140 -0.0055  0.0087
    1W        W35673   6.526   4.098   9.418  0.0184  0.0512  0.0861
    1W        W35674  13.099  11.052   7.145  0.0798  0.2603 -0.0279
    1W        W35675  14.990  19.879   8.358  0.0661  0.0479  0.0620
    1W        W35676  23.517  25.685  10.234  0.0280 -0.0069 -0.2768
    1W        W35677   7.617   8.696   9.415 -0.0874  0.1005  0.1774
    1W        W35678  26.087  14.970   8.393 -0.0129 -0.1640 -0.0006
    1W        W35679   8.341  20.444   0.490  0.2614  0.0210  0.0127
    1W        W35680  11.413  22.271   7.620 -0.1521 -0.0557 -0.0899
    1W        W35681  14.698  17.092   0.292  0.2314  0.3637 -0.2359
    1W        W35682  12.050  12.443   7.907 -0.0415  0.1678 -0.3328
    1W        W35683   4.281  25.251   2.668  0.0385  0.1311  0.0263
    1W        W35684   9.408  24.832   3.265  0.3055 -0.1424  0.0645
    1W        W35685  26.615  23.546   0.583 -0.0520 -0.0463  0.2974
    1W        W35686   3.298   7.431   9.209 -0.3286  0.2640 -0.1727
    1W        W35687  13.184  24.668   0.738 -0.3043  0.1907  0.0363
    1W        W35688  13.733  10.509   2.358 -0.1516  0.0036 -0.0301
    1W        W35689  15.901  21.268   7.303 -0.1475  0.2442  0.2605
    1W        W35690  11.256   3.791   0.412  0.3529 -0.0319  0.1032
    1W        W35691  26.598  19.667   0.797  0.1430 -0.1028 -0.0586
    1W        W35692  11.803  19.460   0.645 -0.0894  0.0243  0.0667
    1W        W35693  21.052  23.225   0.077  0.0411  0.0566  0.2512
    1W        W35694   3.636   0.935   0.721 -0.0895 -0.0569  0.0344
    1W        W35695  18.900  26.457   6.930  0.0114  0.0765  0.1867
    1W        W35696   8.453  25.377   8.521 -0.0904 -0.0922  0.2354
    1W        W35697  16.884  14.475   8.451 -0.0680  0.1913  0.1658
    1W        W35698   1.275   7.104   1.345  0.2361  0.0473 -0.1240
    1W        W35699  26.395  19.599   2.916  0.0163  0.3937 -0.0578
    1W        W35700   3.353   2.060   0.025  0.0279 -0.0527 -0.1505
    1W        W35701  26.310  27.183   2.084  0.0420  0.1346 -0.0276
    1W        W35702   8.650  17.146   1.136  0.4584  0.1085 -0.0452
    1W        W35703  10.874   4.190   8.618  0.1202 -0.0792 -0.0787
    1W        W35704   1.549  12.257   7.916  0.1969  0.0152 -0.2043
    1W        W35705   4.785   7.049   1.422 -0.1476  0.1910 -0.1510
    1W        W35706  27.181  16.204  10.211 -0.1548  0.1256 -0.5559
    1W        W35707   8.453   0.218   1.338  0.0479 -0.0221  0.0138
    1W        W35708   8.088  24.160   6.657 -0.0883 -0.0768  0.0122
    1W        W35709  11.238   4.353   7.470 -0.1989  0.3747 -0.0031
    1W        W35710  21.529  25.276   2.049 -0.0289 -0.4994 -0.2379
    1W        W35711  19.907  20.122   2.064 -0.1391  0.0746  0.0706
    1W        W35712  25.352   5.648   7.254 -0.1022  0.0084  0.0321
    1W        W35713  13.654   0.944   7.809 -0.0585 -0.0448 -0.0461
    1W        W35714  10.457   9.936   1.593  0.1264 -0.2349 -0.1757
    1W        W35715  16.925   6.287   3.734 -0.2928  0.1222 -0.1731
    1W        W35716  26.145  12.559   2.283 -0.2981  0.2101  0.0771
    1W        W35717   7.430  15.203   0.227  0.0158  0.0633 -0.1220
    1W        W35718   9.550  27.483   7.719  0.3443 -0.0080  0.0294
    1W        W35719   5.992   3.544   1.810  0.0108 -0.2008  0.3720
    1W        W35720  10.815  16.508   2.770  0.2221  0.0624  0.0216
    1W        W35721  11.048   6.852   9.763  0.2552  0.1529  0.2736
    1W        W35722  27.341   2.093   8.075  0.1334 -0.0864 -0.2077
    1W        W35723  21.221   7.442   7.362  0.0080  0.1352  0.1131
    1W        W35724   2.874  18.660   0.438 -0.0203 -0.2599  0.0645
    1W        W35725  19.533  23.859   2.383 -0.1493  0.2000  0.6133
    1W        W35726   2.593  10.663   8.176 -0.1698  0.3041  0.1653
    1W        W35727  25.310  13.480   7.418  0.2404  0.0320 -0.1436
    1W        W35728   5.305   9.283   9.033 -0.2528  0.0180  0.2106
    1W        W35729  19.538   8.240   1.124 -0.0423 -0.1389 -0.1858
    1W        W35730  27.455  24.513   7.948 -0.0334  0.1500 -0.2240
    1W        W35731  20.192   3.254   3.455  0.0631 -0.0190  0.1160
    1W        W35732  10.630  25.910   1.022  0.3047 -0.0524 -0.4114
    1W        W35733   1.849   0.916   1.635 -0.0533  0.0378 -0.2017
    1W        W35734  20.844  15.587   2.493  0.1479 -0.0324  0.2189
    1W        W35735   0.139  11.291   2.688 -0.0730  0.1330  0.1608
    1W        W35736  14.199  17.781   7.692 -0.1877  0.0567  0.3675
    1W        W35737  18.521  27.330   1.974 -0.0796 -0.0357  0.0368
    1W        W35738   6.434  23.901   7.300 -0.1841 -0.2618 -0.0734
    1W        W35739   3.425  15.873   7.779 -0.0200  0.0341  0.0199
    1W        W35740   8.559  18.695   8.751 -0.0337 -0.1083  0.3376
    1W        W35741   1.325   6.863  10.078  0.2589 -0.1858 -0.1528
    1W        W35742  16.346  25.381   7.791  0.1679  0.2624 -0.2184
    1W        W35743  15.033   9.327   8.391  0.1367  0.0749 -0.2378
    1W        W35744  24.834  24.654   9.045  0.1021  0.5000  0.0522
    1W        W35745  15.134  10.429   2.033  0.0612 -0.0555  0.3004
    1W        W35746  27.444  21.764   9.859 -0.0921  0.0125  0.2698
    1W        W35747   0.539  24.150   8.519 -0.0267  0.1043 -0.0919
    1W        W35748  21.644   9.187   9.345  0.2247 -0.0353  0.1211
    1W        W35749   4.097  15.467   0.487  0.1998 -0.0605  0.2074
    1W        W35750  20.266   0.300   8.517 -0.0103 -0.0658 -0.0708
    1W        W35751  20.210   9.469   6.714 -0.1165 -0.1674 -0.0644
    1W        W35752   2.416   7.569   2.625  0.3996  0.2320 -0.4171
    1W        W35753  22.248  17.108   8.221 -0.0217  0.0880  0.0142
    1W        W35754  19.796   8.233   3.025  0.1220  0.2502  0.4281
    1W        W35755  24.613   0.088   0.168  0.2508  0.3221  0.1852
    1W        W35756   7.426  18.315  10.188  0.0314  0.0424 -0.1822
    1W        W35757   2.902   6.814   7.558  0.0700 -0.1665 -0.0760
    1W        W35758   5.472  14.478   0.542  0.0035 -0.1365 -0.0129
    1W        W35759  23.028   3.404   9.304  0.2188  0.2737  0.0664
    1W        W35760  24.846  27.372   9.329  0.0403 -0.2630  0.1885
    1W        W35761   6.572   3.652   8.098 -0.1081  0.2761  0.0519
    1W        W35762  12.920   3.607   0.916  0.1165 -0.1284  0.1217
    1W        W35763  24.584  18.338   2.744 -0.2340  0.2672  0.0216
    1W        W35764  10.927  16.799   0.506  0.1325  0.0646 -0.0390
    1W        W35765  26.763  15.935   8.978  0.0435 -0.1276 -0.0682
    1W        W35766   5.133  14.385   0.882  0.0927  0.3243  0.0070
    1W        W35767  10.180  26.065   1.763 -0.1111  0.0947 -0.0427
    1W        W35768  13.112  21.062   1.237  0.0715  0.1128 -0.0460
    1W        W35769   0.537   1.143   7.868  0.1737 -0.4090  0.0464
    1W        W35770   5.474  24.887  10.230 -0.0337  0.0737 -0.2233
    1W        W35771   6.741   0.870   7.042  0.0265 -0.0356 -0.0874
    1W        W35772   0.011   8.358   1.032  0.1402  0.0182  0.4669
    1W        W35773  28.058  15.811   8.896  0.1406  0.1051  0.1028
    1W        W35774   9.789  16.677   2.098 -0.3381  0.2378 -0.3869
    1W        W35775  23.467   3.747   7.858  0.1106  0.1941  0.1473
    1W        W35776  11.088  14.848   9.937  0.1167 -0.0034  0.0034
    1W        W35777  13.805  13.488   7.847 -0.1586 -0.2162 -0.1809
    1W        W35778   3.856  16.953   3.333 -0.0949 -0.2457 -0.2465
    1W        W35779   1.386   6.541   9.130  0.0699 -0.0128  0.0767
    1W        W35780   6.932  24.603   0.731 -0.1766  0.3654  0.0010
    1W        W35781  25.335   3.739   1.213 -0.0361  0.0526  0.0594
    1W        W35782  18.102   4.290   8.319 -0.1322 -0.1561 -0.0035
    1W        W35783   8.292   6.060   1.816  0.3132 -0.1258 -0.3436
    1W        W35784  18.643  13.078   7.879  0.1061  0.1104  0.0913
    1W        W35785   6.265   0.275   7.495 -0.1647 -0.1953  0.1588
    1W        W35786   5.227   0.998   2.131  0.0066  0.0020  0.0961
    1W        W35787  21.248  27.242  10.117  0.0585  0.1778 -0.1463
    1W        W35788  23.953  10.242   0.166  0.1625 -0.0834  0.0985
    1W        W35789   6.584   7.025   9.250  0.2748  0.1076 -0.0832
    1W        W35790  22.476   2.297   0.114  0.0866 -0.0483 -0.2482
    1W        W35791   0.717  16.659   7.010 -0.0860 -0.2566  0.1658
    1W        W35792  24.866  26.895   9.011 -0.1465 -0.0327  0.2097
    1W        W35793   9.990   4.596   2.304 -0.0002 -0.1561  0.2425
    1W        W35794   2.924  16.846   1.508  0.2345  0.0453  0.1552
    1W        W35795  22.581  27.126   1.543  0.1743  0.0081 -0.1604
    1W        W35796  14.093  22.471   1.832 -0.1148  0.0453 -0.1911
    1W        W35797  15.203  22.038   2.290  0.2038 -0.2826  0.1660
    1W        W35798  20.352  14.172   2.646 -0.0116 -0.0416  0.0472
    1W        W35799  21.354  18.398   9.519 -0.0455 -0.1112  0.2155
    1W        W35800  13.479  20.673   1.046  0.0846 -0.4298  0.2088
    1W        W35801  16.103  19.798   8.137  0.5304  0.3904 -0.2918
    1W        W35802   4.429  17.956   9.887 -0.1518  0.0618  0.2059
    1W        W35803  27.262   0.546   9.368 -0.1801  0.1597 -0.0304
    1W        W35804  11.932  16.060   1.714  0.0121  0.1527 -0.0213
    1W        W35805  14.689  20.015   0.613  0.0065  0.0047 -0.0962
    1W        W35806  16.727  10.173   0.254  0.4528 -0.1102 -0.4419
    1W        W35807  20.444  25.518   8.497 -0.1094  0.0063  0.1073
    1W        W35808   4.617  17.219   0.593 -0.3629 -0.1592 -0.2596
    1W        W35809  16.228   4.905   0.136 -0.1290 -0.0326  0.0835
    1W        W35810  10.573  21.787   0.473 -0.0484 -0.1956 -0.0703
    1W        W35811  23.230   8.045   8.592 -0.2606 -0.2821  0.1378
    1W        W35812  20.625  18.003   8.693  0.0246 -0.0232  0.0673
    1W        W35813   2.103  10.947   0.106  0.1779 -0.1464  0.0087
    1W        W35814   9.238  15.235   2.359  0.0753  0.0392 -0.0593
    1W        W35815  21.486  18.687   2.190  0.0892  0.1198  0.0741
    1W        W35816  21.070  16.024   1.692 -0.0876  0.1166 -0.1746
    1W        W35817  23.723  17.376   0.364  0.0211  0.2933 -0.0145
    1W        W35818  28.069   3.263   9.151  0.0224  0.4124 -0.0974
    1W        W35819   3.281   4.061   9.049 -0.1696 -0.2194 -0.0215
    1W        W35820   9.567   0.943   2.588 -0.0088 -0.1431 -0.0899
    1W        W35821  21.162  21.854   9.703  0.3934 -0.3341  0.2143
    1W        W35822  25.204  11.315   8.407  0.1804  0.0323  0.2348
    1W        W35823  25.411   7.257   8.048  0.2808 -0.1763  0.0835
    1W        W35824  26.203   6.572   8.081  0.0237  0.1033 -0.0299
    1W        W35825  15.012  21.036   0.933  0.1855  0.2756 -0.0331
    1W        W35826   5.847  17.855   8.732 -0.0362  0.0562  0.2089
    1W        W35827   8.430  15.352   1.201 -0.2226  0.2302 -0.1039
    1W        W35828   6.926   0.786   9.950  0.0167  0.1956  0.0056
    1W        W35829  15.524  18.425   1.780  0.3361  0.0256  0.2441
    1W        W35830   9.865   9.239   2.588 -0.0101 -0.0906  0.3346
    1W        W35831  11.802  23.372   7.210  0.1238  0.2457 -0.1599
    1W        W35832  25.759  14.255   1.215 -0.0611 -0.1360  0.1845
    1W        W35833   5.481  19.216   2.841 -0.2051  0.2787 -0.1372
    1W        W35834  27.704  19.869   7.995  0.1756 -0.1418 -0.2351
    1W        W35835  26.777  15.963   9.998 -0.0329  0.1184  0.0147
    1W        W35836   4.302   7.726   8.625  0.0141  0.0959 -0.3559
    1W        W35837  15.746   1.378   3.088 -0.1033  0.2129  0.0457
    1W        W35838  18.757  22.795   0.563  0.0881 -0.1204 -0.0146
    1W        W35839   8.780   2.865   9.202  0.2193 -0.1172  0.1179
    1W        W35840  26.337  17.375   9.630 -0.0565 -0.2269  0.1599
    1W        W35841   0.794   7.904   0.617 -0.0813  0.1105  0.2559
    1W        W35842   3.410  20.476   2.283  0.2881 -0.3134  0.2554
    1W        W35843  24.500   4.694   2.391 -0.2317  0.0617 -0.2769
    1W        W35844  15.607   7.398   2.357 -0.1173  0.2685  0.4235
    1W        W35845   0.693  12.017   1.839 -0.0769  0.0225  0.1216
    1W        W35846   7.401  16.564   9.500  0.1893 -0.0103  0.2585
    1W        W35847  17.927  20.331   7.441  0.0925 -0.1437  0.1590
    1W        W35848   0.788   5.054   0.608 -0.0444  0.0282 -0.1122
    1W        W35849  16.963  19.114   9.673 -0.1593  0.1222 -0.1571
    1W        W35850   1.499   6.645   1.528  0.1196  0.0628  0.0356
    1W        W35851  12.496   9.517   3.022  0.1220 -0.0071 -0.0553
    1W        W35852   9.023  23.266   2.998 -0.2183 -0.0654 -0.0985
    1W        W35853  23.911  22.367   9.439 -0.1230 -0.1539  0.1674
    1W        W35854  22.655  16.339   2.749 -0.1706  0.0093 -0.1275
    1W        W35855   2.904  27.913   0.507  0.2349  0.0932  0.0856
    1W        W35856   7.768  10.948   1.461 -0.0364 -0.0292 -0.2783
    1W        W35857   0.776   7.772   1.147 -0.0940  0.0925 -0.1293
    1W        W35858   0.643   7.392   8.056 -0.1943 -0.4136  0.1508
    1W        W35859  18.276   4.695   8.509  0.1154  0.2177  0.0769
    1W        W35860  25.082  19.610  10.151  0.0608  0.0803  0.1300
    1W        W35861  12.228   5.785   2.015  0.1668  0.2137 -0.1805
    1W        W35862  24.014  27.734   2.352  0.2616  0.1492 -0.4832
    1W        W35863   0.761  10.935   0.198  0.0909 -0.0670 -0.3636
    1W        W35864  11.684  23.922   2.020  0.1123 -0.0475 -0.2488
    1W        W35865   4.229   6.252   8.851  0.0673  0.0615  0.1911
    1W        W35866  18.284  12.406   2.717  0.0115 -0.0522 -0.2807
    1W        W35867   1.518  14.632   9.719  0.4991  0.0080 -0.3532
    1W        W35868  20.353  10.710   1.203  0.1796  0.1318 -0.0524
    1W        W35869  25.229   2.167   6.877  0.0953 -0.0949  0.2309
    1W        W35870  15.023  10.845   1.780 -0.2450  0.0498 -0.3393
    1W        W35871   0.868   7.819   0.032  0.2148  0.0235 -0.0791
    1W        W35872   4.064   9.131  10.191 -0.3655 -0.0358  0.0747
    1W        W35873  22.624  14.815   6.602 -0.1155  0.0173  0.3551
    1W        W35874   6.108  16.321   8.917  0.0517 -0.0971 -0.0702
    1W        W35875  21.121  11.268   7.351 -0.0886  0.1321  0.1603
    1W        W35876   2.648  19.604   2.049  0.1182  0.1391 -0.3344
    1W        W35877  16.174  22.960   9.801  0.2422  0.0973 -0.0121
    1W        W35878  17.851  26.309   8.292  0.1846 -0.1523  0.0939
    1W        W35879  22.713  15.461   0.936 -0.0386 -0.0624  0.3266
    1W        W35880   3.142   4.607   0.911  0.0136 -0.0347 -0.0850
    1W        W35881  22.857   0.529   7.764  0.3646 -0.4072 -0.0719
    1W        W35882   6.195  14.575   1.896  0.3233 -0.1258 -0.0161
    1W        W35883   0.300  24.074   0.266  0.1379  0.1808 -0.3063
    1W        W35884  13.288  13.948   0.992  0.0833 -0.4007  0.0114
    1W        W35885  26.920  22.402   9.192 -0.0487 -0.3890 -0.1917
    1W        W35886   1.901   3.715   0.111 -0.0991 -0.0757  0.2219
    1W        W35887  11.649  19.459   9.972  0.2249  0.2165  0.1118
    1W        W35888  16.938  20.651   7.641  0.0998  0.0875 -0.4571
    1W        W35889   7.181  20.532   3.087  0.0268 -0.1169 -0.1069
    1W        W35890   6.678   2.423   8.050 -0.1568 -0.0789  0.0082
    1W        W35891  19.405  15.476   1.932 -0.0157 -0.1132  0.1120
    1W        W35892  15.271  14.137   2.420  0.1581 -0.0190  0.2834
    1W        W35893  13.473   8.154   0.601 -0.2349  0.1829 -0.2092
    1W        W35894  14.294   6.632   0.589  0.3104 -0.4361  0.1547
    1W        W35895  10.099   9.079   8.651  0.1230 -0.0443  0.0563
    1W        W35896  27.422  20.339   7.987  0.0896  0.2075 -0.1734
    1W        W35897  23.872  12.790   0.743  0.0019  0.1163 -0.0929
    1W        W35898  16.168   9.649   8.737  0.0507 -0.0137 -0.1080
    1W        W35899   2.072  20.236   1.943  0.1035 -0.0445 -0.2182
    1W        W35900  19.265  24.454  10.304  0.0094 -0.2948  0.0902
    1W        W35901   6.271  24.120   0.064 -0.0330  0.3751 -0.2677
    1W        W35902  10.289   1.859   9.111 -0.1159 -0.1165  0.0245
    1W        W35903  11.960   8.359   0.370  0.0759 -0.0410 -0.1660
    1W        W35904   8.009  18.686   8.956 -0.1582 -0.1252 -0.1228
    1W        W35905  22.468   6.818   1.802  0.1121 -0.2845 -0.1857
    1W        W35906   7.355  19.605   1.429 -0.0075  0.0385  0.3057
    1W        W35907   5.536   6.040   9.556  0.1832  0.0825 -0.4271
    1W        W35908   1.767  11.348   8.698  0.0896  0.4608 -0.1637
    1W        W35909   8.376   3.222   9.193  0.0953  0.0865  0.2465
    1W        W35910   2.639  22.059   6.617 -0.0846  0.2279 -0.1617
    1W        W35911  18.379   2.673   3.603 -0.1435  0.1182 -0.1423
    1W        W35912  13.470   5.025  10.156 -0.0115 -0.3124 -0.0984
    1W        W35913  15.274  13.248   8.439 -0.0395  0.1478 -0.2066
    1W        W35914  13.560   2.496   2.880  0.0514  0.1166  0.2498
    1W        W35915   0.037   8.032   0.629  0.2563  0.0925 -0.1639
    1W        W35916  15.692  14.175   0.965  0.1583 -0.0203  0.0282
    1W        W35917  16.543  10.970   8.579  0.0526 -0.1452  0.3123
    1W        W35918   7.669   3.198   8.948 -0.0219  0.1864 -0.2357
    1W        W35919  24.190   1.916   2.563  0.0160 -0.6185  0.2031
    1W        W35920  17.663  17.350   4.057  0.1061 -0.3114 -0.0646
    1W        W35921  21.162  19.968   0.989 -0.2790 -0.0179  0.1510
    1W        W35922  25.463  18.834   8.011 -0.2291 -0.3147  0.1833
    1W        W35923  20.414   4.769   2.141 -0.2960 -0.1004 -0.1054
    1W        W35924   2.936   5.877   0.611 -0.1403  0.0881  0.4335
    1W        W35925   8.733  22.877   0.401 -0.2750 -0.1863  0.4432
    1W        W35926   2.827  25.145   3.122  0.2935  0.1131  0.1812
    1W        W35927  24.968   6.847   9.066 -0.2395  0.2953 -0.0165
    1W        W35928  23.294   1.715   0.643  0.0512  0.2517  0.1572
    1W        W35929   1.599  13.951   8.324 -0.1103 -0.0595 -0.2844
    1W        W35930   0.585  23.231   9.658  0.0335 -0.0580 -0.1677
    1W        W35931  22.980  24.864   8.116  0.1228 -0.1416 -0.4280
    1W        W35932  16.664   6.958   9.080  0.0120  0.3184 -0.0453
    1W        W35933   4.719  26.944   0.061 -0.1729 -0.4610  0.1839
    1W        W35934  12.289  11.576   3.243  0.1600 -0.1126 -0.0294
    1W        W35935   8.285  22.214   2.270 -0.0042  0.0924  0.3351
    1W        W35936  15.475  20.374   0.384  0.4576 -0.2041  0.2650
    1W        W35937   2.032  20.504   9.520 -0.1903  0.4111 -0.1517
    1W        W35938  17.346  24.721   0.053 -0.0643 -0.0414 -0.3113
    1W        W35939   7.205   7.832   9.921  0.0391  0.3354 -0.0346
    1W        W35940  26.387  18.916   8.404 -0.2324  0.0990 -0.0274
    1W        W35941   8.034   1.025   0.029 -0.1825  0.0351  0.2033
    1W        W35942   2.426   6.421   8.991 -0.0149  0.0311 -0.3119
    1W        W35943  14.674  21.398   9.764  0.1071 -0.0000  0.1989
    1W        W35944   8.658   1.767   9.318 -0.0432  0.4402 -0.1939
    1W        W35945   5.628  17.669  10.028 -0.3046 -0.0631 -0.0113
    1W        W35946  21.124  21.174   2.590 -0.1628  0.1173 -0.1903
    1W        W35947  17.831  13.154   7.514 -0.2159  0.1392 -0.0767
    1W        W35948   9.909  11.890   9.355 -0.0392 -0.2949  0.4241
    1W        W35949  13.939   9.391   3.928 -0.0506 -0.2538  0.1798
    1W        W35950   3.506  14.443   1.346  0.0777  0.0546 -0.3344
    1W        W35951  27.087   7.035   8.332 -0.4003 -0.0377  0.1014
    1W        W35952   2.357  25.891   0.337 -0.0023 -0.0016 -0.2022
    1W        W35953  19.772  19.538   2.055 -0.1213 -0.0096  0.1994
    1W        W35954   9.331   7.218   0.931  0.1263 -0.0890 -0.2723
    1W        W35955  25.578  20.533   7.038 -0.3713  0.0136 -0.0051
    1W        W35956   8.589  14.224   1.732 -0.2061  0.2386  0.1390
    1W        W35957  28.041   9.669   1.186  0.0213  0.0468 -0.2099
    1W        W35958  23.610   5.165   0.517  0.3513  0.0452 -0.3744
    1W        W35959  17.316   2.528   2.302 -0.2307 -0.0241 -0.1073
    1W        W35960  13.275   2.834   3.187 -0.0361  0.1974 -0.1141
    1W        W35961  25.883   2.855   0.996  0.0039  0.0288  0.0947
    1W        W35962  27.212  25.736   0.268 -0.1669 -0.1094  0.1586
    1W        W35963  27.535  23.271   2.083  0.4284 -0.1485 -0.0477
    1W        W35964  26.871  13.901   1.123 -0.0115  0.0732 -0.1777
    1W        W35965  26.612  10.877   7.240 -0.2374  0.1124 -0.0440
    1W        W35966   4.764  24.205   8.709 -0.0793  0.0358  0.1796
    1W        W35967  10.190  18.914   9.527 -0.1728 -0.0948  0.2729
    1W        W35968  18.291   4.642   9.073  0.2620 -0.0993 -0.0555
    1W        W35969  18.755  13.455   9.746 -0.1004 -0.0148  0.1976
    1W        W35970   3.292  18.360   0.106  0.3607 -0.0799 -0.0679
    1W        W35971  25.039  15.422   7.549 -0.2048 -0.4180  0.1671
    1W        W35972  19.748  19.003   7.649  0.2478  0.0883  0.1174
    1W        W35973  27.280   0.803  10.112 -0.0654 -0.2183 -0.2911
    1W        W35974   9.173   8.015   2.970 -0.1280  0.0770 -0.1046
    1W        W35975   4.127  16.583   0.923  0.3169  0.1791  0.0387
    1W        W35976  26.990   8.005   0.598  0.0706  0.2354 -0.0045
    1W        W35977  13.183  24.294   7.525 -0.2814 -0.0429  0.1753
    1W        W35978  18.604  20.947   9.359  0.0912  0.0529  0.2558
    1W        W35979  27.561  26.367   8.099 -0.1191  0.1172  0.2331
    1W        W35980   8.459   0.747   0.633  0.1676  0.0664 -0.0081
    1W        W35981  16.201  23.941   1.714  0.1205 -0.1303 -0.0831
    1W        W35982   0.452  16.308  10.338 -0.3417 -0.1410 -0.0077
    1W        W35983  17.921  15.513   0.548 -0.0911  0.1171  0.1537
    1W        W35984  20.163  15.183  10.294  0.0876 -0.2719  0.1069
    1W        W35985  28.023   6.396   9.002 -0.1582  0.2272 -0.2072
    1W        W35986   8.997  23.536   1.000  0.0873  0.0001  0.0261
    1W        W35987   9.829  16.065   1.370  0.1796  0.1479  0.0654
    1W        W35988  15.567  14.487   2.624  0.3045 -0.2776 -0.3285
    1W        W35989   5.064  20.647   1.569 -0.2960  0.1886 -0.2883
    1W        W35990   1.675   4.996   7.434  0.1600 -0.1081  0.2081
    1W        W35991   0.774  17.312   2.012 -0.2087 -0.0067  0.0224
    1W        W35992   7.360  19.643   0.163 -0.1496 -0.0301  0.2737
    1W        W35993  27.904  14.552  10.225  0.2636  0.0075 -0.3141
    1W        W35994  13.317   1.424   8.532  0.1067 -0.0078 -0.1839
    1W        W35995   6.838  16.701   8.855  0.0673 -0.1300  0.1545
    1W        W35996  27.065  22.429   7.200  0.1601  0.1239 -0.5326
    1W        W35997   7.584  12.452   1.125  0.0945 -0.2862 -0.0437
    1W        W35998  18.271  10.365  10.122 -0.1534  0.3936  0.0362
    1W        W35999  16.612   6.137   3.285  0.2329  0.1601 -0.0433
    1W        W36000   5.636  23.419   2.667  0.2597 -0.2584 -0.2238
    1W        W36001  15.194  15.638   9.866 -0.1342  0.0495  0.2730
    1W        W36002   8.478   3.338   7.793 -0.0282  0.1896  0.2301
    1W        W36003  26.898   0.120   7.919  0.0480 -0.2108 -0.0388
    1W        W36004  11.988  13.155   8.469  0.2057 -0.0144 -0.0353
    1W        W36005  16.273  10.281   2.176 -0.0498  0.1316 -0.2790
    1W        W36006  20.438  14.735   7.955 -0.0158  0.2488 -0.1840
    1W        W36007  21.063   1.992   8.982 -0.1506  0.1584 -0.0428
    1W        W36008   9.892   9.596   7.931  0.0060  0.0283  0.5274
    1W        W36009  16.535  13.092   7.665  0.0761  0.0472 -0.2869
    1W        W36010   5.827  14.106   8.630  0.2151 -0.0978  0.0215
    1W        W36011  27.031   2.991   8.738  0.2053 -0.0378  0.0347
    1W        W36012   5.585  21.337   2.288 -0.1772  0.0847 -0.0455
    1W        W36013  26.680  13.979   8.671 -0.1670 -0.0395 -0.1105
    1W        W36014  17.067   2.978   2.247 -0.1582  0.2288 -0.1283
    1W        W36015  25.422   3.132   8.800 -0.1265  0.4047  0.0333
    1W        W36016  20.116  21.542   2.257  0.2535 -0.0892 -0.0009
    1W        W36017  13.884   2.715   7.490 -0.0403 -0.0344 -0.2417
    1W        W36018  26.106  25.681   9.516 -0.1403 -0.0795 -0.1108
    1W        W36019   8.004  16.560   3.463  0.2708 -0.1644 -0.0114
    1W        W36020  20.216   8.793   2.832 -0.0079  0.3931  0.2379
    1W        W36021   3.873   2.110   9.609 -0.1202 -0.0475 -0.1166
    1W        W36022  15.663  27.467   1.117  0.0666 -0.1887 -0.0697
    1W        W36023  20.517   8.549   2.502 -0.0101 -0.3224 -0.4393
    1W        W36024  27.729  19.286   7.391 -0.1447  0.3852 -0.3170
    1W        W36025  12.630  26.573   9.417 -0.1276 -0.0819 -0.2551
    1W        W36026  14.437   4.891   8.958  0.4315  0.2430  0.0187
    1W        W36027  22.915  19.404   7.247  0.1729  0.1909 -0.1454
    1W        W36028  10.173  14.060   8.422 -0.1335 -0.3495 -0.3985
    1W        W36029  14.527  24.236   9.728  0.0594  0.1768  0.2492
    1W        W36030  27.830   6.156   8.064 -0.3070  0.0223 -0.0270
    1W        W36031  26.108  13.383   2.778 -0.3939  0.3155  0.0269
    1W        W36032   7.678  22.839   8.726 -0.0314  0.2384 -0.1011
    1W        W36033  27.855  27.547  10.023 -0.1055  0.0749  0.1006
    1W        W36034   6.360   7.855   7.627 -0.0021  0.0346  0.1482
    1W        W36035  21.586   2.513   6.898  0.0420 -0.0123 -0.0527
    1W        W36036  22.441   7.416   9.149 -0.2116 -0.0932 -0.2057
    1W        W36037  17.311  14.802   1.289  0.0161 -0.2641 -0.3497
    1W        W36038  15.809  10.564   8.250  0.3630  0.1062  0.2405
    1W        W36039  14.693  14.938   2.987 -0.1216  0.0737  0.1479
    1W        W36040  10.310   9.004   2.382 -0.2808  0.2717  0.3861
    1W        W36041   0.532  25.237   9.609 -0.1751  0.0421 -0.1564
    1W        W36042  17.499  27.809   7.716  0.2176  0.0088  0.1354
    1W        W36043   5.999   8.225   9.793 -0.2554  0.1893 -0.1454
    1W        W36044   3.585   6.555   8.136  0.1457 -0.0189 -0.1573
    1W        W36045  18.920  26.844   9.974  0.1243  0.0203 -0.0751
    1W        W36046  27.537  23.670   2.333 -0.1440 -0.1452  0.1642
    1W        W36047   6.563  10.988   2.232 -0.1276 -0.0155 -0.1687
    1W        W36048  10.133  12.765   3.557  0.0386 -0.1286  0.0054
    1W        W36049   5.481  16.405   1.697 -0.0779  0.0644  0.0941
    1W        W36050  24.287  14.147   9.630  0.2146 -0.0416  0.4694
    1W        W36051   7.774  12.970   1.184 -0.4369  0.1046  0.1312
    1W        W36052   7.726  18.171   3.122 -0.0071  0.3410  0.3153
    1W        W36053  13.256   1.873   3.206 -0.1335  0.0524  0.0281
    1W        W36054   0.847   8.535   8.340 -0.0587  0.1364 -0.1760
    1W        W36055  12.845   4.675   2.176 -0.2367 -0.2808  0.0155
    1W        W36056  14.178  18.073   9.671  0.1964 -0.1253  0.0617
    1W        W36057  11.509  21.991   2.904 -0.0226  0.0356 -0.0052
    1W        W36058  25.144  24.039   9.843  0.1753  0.0341  0.2124
    1W        W36059   5.814   8.294   7.183  0.0473 -0.1278 -0.1478
    1W        W36060  15.682  16.341   2.978  0.1562 -0.1189  0.3479
    1W        W36061  19.574  21.793   0.265  0.2944 -0.0499  0.4329
    1W        W36062  24.102  16.753   9.507 -0.2319 -0.2366 -0.2793
    1W        W36063   6.968  22.457   0.008 -0.0658  0.1925 -0.3245
    1W        W36064   5.885  24.546   2.004 -0.0563 -0.1383 -0.2192
    1W        W36065  20.429  11.558   6.502 -0.2392  0.0771 -0.0523
    1W        W36066   4.018  20.350   7.790  0.4301 -0.0250 -0.1754
    1W        W36067   9.458   6.505   0.776  0.0978 -0.0357 -0.1312
    1W        W36068   9.840  19.962   2.633  0.0994 -0.0303 -0.0669
    1W        W36069  19.332   8.687   0.561  0.0281 -0.0692  0.0042
    1W        W36070   6.452   7.513   9.223 -0.2151 -0.1831  0.2673
    1W        W36071  24.640  23.896   1.345 -0.4891  0.4666 -0.3155
    1W        W36072   8.135  17.031   9.743 -0.1628 -0.2735 -0.1341
    1W        W36073   2.665  14.657   1.023  0.3209 -0.0947 -0.2668
    1W        W36074   6.573   9.599   0.607  0.1760 -0.1776  0.0285
    1W        W36075  20.414  16.978   2.534  0.1770  0.2307 -0.0379
    1W        W36076  28.090  26.597   3.214  0.0662  0.0288 -0.0632
    1W        W36077  17.938  18.841   8.088  0.0288 -0.3034 -0.2794
    1W        W36078  14.554  21.164   6.878 -0.0139  0.1444 -0.2046
    1W        W36079   7.461  10.128   9.003  0.4018  0.0321  0.0113
    1W        W36080  11.472  21.225   1.334  0.0647 -0.1337  0.1583
    1W        W36081  10.868  19.432  10.337 -0.2635  0.1017 -0.0713
    1W        W36082   2.126  16.301   1.383 -0.3004  0.0259 -0.2165
    1W        W36083  21.473  16.694   9.657 -0.0790  0.1130  0.0292
    1W        W36084  12.251  15.207   1.308  0.0395 -0.2611 -0.0534
    1W        W36085  22.582  25.172   7.588  0.3810 -0.2143 -0.3927
    1W        W36086  18.360   5.211   8.440  0.1629 -0.3628 -0.1190
    1W        W36087  27.380  12.701   7.968  0.2209  0.1071  0.1417
    1W        W36088  13.664  27.320   2.877  0.1830  0.3846  0.0631
    1W        W36089   1.395  17.986   2.565 -0.0956 -0.1308 -0.0288
    1W        W36090  14.826  17.611   9.026 -0.1956  0.0271 -0.0712
    1W        W36091  12.876  15.857   2.006 -0.0923 -0.0004  0.1249
    1W        W36092  12.494  18.167   9.157  0.1629 -0.0117 -0.1013
    1W        W36093  20.758  25.074   8.458  0.1198  0.1392 -0.1098
    1W        W36094  22.870   5.007   2.492  0.2275 -0.1457 -0.0318
    1W        W36095  19.100  16.909  10.293 -0.1095 -0.0064  0.0900
    1W        W36096  28.079  12.291   1.994 -0.2774 -0.0402  0.0647
    1W        W36097  22.799  22.026   8.703  0.0301  0.1291 -0.3128
    1W        W36098   5.455  10.729   0.526  0.0109  0.2718 -0.0853
    1W        W36099   8.240  14.006   2.016  0.3207 -0.2332  0.0114
    1W        W36100  19.344  15.501   2.658  0.2283  0.3955  0.5419
    1W        W36101  26.928   9.897  10.161 -0.0081  0.0886 -0.1363
    1W        W36102   7.033   9.960   0.916  0.0089  0.1999  0.0675
    1W        W36103  26.983  14.134   0.643  0.2537 -0.0515 -0.1736
    1W        W36104  18.428  18.483  10.120 -0.0106 -0.0850  0.3199
    1W        W36105  26.168  12.894   2.686 -0.1457  0.2868 -0.0149
    1W        W36106   4.735  11.149   3.536 -0.3102 -0.0523 -0.0647
    1W        W36107  14.647  12.803   8.926 -0.1523  0.1129  0.1276
    1W        W36108   9.579   2.213   9.927  0.1452  0.2039 -0.3104
    1W        W36109  24.279  24.549   0.224  0.1608 -0.0733  0.1046
    1W        W36110   3.696  11.180   8.258 -0.0074  0.1880  0.0889
    1W        W36111  19.301  21.993   7.246 -0.2560 -0.1217 -0.3289
    1W        W36112  27.593  13.166   1.141 -0.2074  0.0564  0.0659
    1W        W36113   5.713  13.495   2.155 -0.1133  0.0357  0.4406
    1W        W36114   0.891  26.260   8.375  0.2015 -0.1371 -0.1386
    1W        W36115  21.771  10.332   0.139 -0.2657  0.1667 -0.2671
    1W        W36116  27.320   1.007   0.468 -0.1671  0.1143 -0.1061
    1W        W36117  18.851  19.701   1.338  0.4065  0.2437  0.1093
    1W        W36118  10.257  22.313   9.942  0.2078  0.0724 -0.1137
    1W        W36119   4.311   4.433   1.669 -0.1259  0.2626  0.2300
    1W        W36120  11.111   6.222   2.599 -0.0256 -0.0622 -0.1745
    1W        W36121   8.562   3.894   0.814  0.1617  0.2656  0.1332
    1W        W36122  10.218  11.988   1.041 -0.3224 -0.1006  0.0497
    1W        W36123  18.164  10.364   0.278  0.2543  0.2727  0.0922
    1W        W36124  15.116  24.924   2.535 -0.0238 -0.1491  0.0086
    1W        W36125  11.112   3.271   1.113 -0.0627  0.2713  0.0284
    1W        W36126   6.060   9.832   8.199  0.1411 -0.3552  0.3231
    1W        W36127  23.332   0.196   1.061  0.1281  0.0101 -0.0649
    1W        W36128  26.614   2.230   8.604  0.0422 -0.1057  0.1480
    1W        W36129   9.718  23.616   7.696 -0.0961 -0.1447 -0.0804
    1W        W36130  26.358   9.093   1.581  0.2928 -0.1333  0.1724
    1W        W36131  16.477   9.773   3.720  0.1259 -0.0005  0.1369
    1W        W36132  13.832  18.553   0.489 -0.0822  0.2256  0.2512
    1W        W36133  13.475  28.061   0.306  0.2290  0.0834 -0.0438
    1W        W36134   2.177   0.988   7.774  0.0195 -0.1949  0.0095
    1W        W36135  17.661   0.786   0.051 -0.1728 -0.0929  0.0297
    1W        W36136  14.529  26.954  10.358  0.1803  0.1630  0.0260
    1W        W36137   6.120   5.121   9.894 -0.0261 -0.2221  0.2173
    1W        W36138  10.513  16.014   9.215 -0.0112 -0.1009 -0.2002
    1W        W36139  18.301  22.549   7.834 -0.1390 -0.0299  0.0608
    1W        W36140   5.621  12.838   0.198 -0.0655 -0.0186 -0.0711
    1W        W36141   4.092  18.228   6.654  0.0558 -0.0131 -0.1696
    1W        W36142  21.339  19.011   1.405  0.4070 -0.1351 -0.0244
    1W        W36143  19.883  27.513   3.206  0.0365 -0.3524 -0.4116
    1W        W36144  10.107  10.105   8.539 -0.2156 -0.2823  0.0224
    1W        W36145   9.188   6.149   0.420  0.0344  0.1803  0.0991
    1W        W36146   9.330  16.181   9.810 -0.1513 -0.1596  0.0702
    1W        W36147  19.608  23.268   7.205 -0.2268 -0.0253 -0.0632
    1W        W36148  15.577   5.481   2.331 -0.1912  0.1286  0.1369
    1W        W36149  23.248  23.033  10.227  0.0144 -0.2391  0.0598
    1W        W36150  18.592  23.127   8.336 -0.3343 -0.1839  0.2044
    1W        W36151  21.776   9.336   8.724 -0.1248  0.2790 -0.0251
    1W        W36152  22.874  10.976   8.505  0.0610 -0.0892 -0.2011
    1W        W36153  11.043   0.289   1.328 -0.1585  0.1482  0.1090
    1W        W36154  25.713  27.635   1.906  0.0750  0.2898 -0.0019
    1W        W36155  12.778  25.142   2.772 -0.0799 -0.2954  0.1702
    1W        W36156  21.794  26.210  10.111 -0.0779 -0.0817 -0.1560
    1W        W36157   2.373  13.027  10.132 -0.0934 -0.2234 -0.0973
    1W        W36158  21.539  14.638   2.232  0.0677 -0.3190  0.0150
    1W        W36159  15.048  16.689   9.740 -0.0276  0.0561 -0.1676
    1W        W36160   9.871   4.752   8.104 -0.2700  0.3103 -0.2040
    1W        W36161   5.484  24.575   1.684 -0.1126 -0.1051  0.1950
    1W        W36162  12.017  12.630   3.466  0.1443  0.1683  0.2692
    1W        W36163  11.186  27.480   3.106  0.0591 -0.0145  0.1105
    1W        W36164  18.191   6.996   3.237  0.2827  0.0700 -0.1341
    1W        W36165   9.784  11.743   2.928  0.0620 -0.1297 -0.0645
    1W        W36166   9.486  17.422   0.876 -0.3015 -0.2383 -0.0726
    1W        W36167  15.625  18.323  10.104  0.0567  0.1139  0.1121
    1W        W36168   0.169  24.691   8.842  0.0774  0.2820  0.0947
    1W        W36169  12.315  11.165   9.670 -0.1478  0.0302  0.1992
    1W        W36170   7.422  20.517   1.413 -0.4561  0.0849 -0.3612
    1W        W36171  22.977  17.666   9.454 -0.1745 -0.1959  0.1304
    1W        W36172  15.446  23.452   7.247 -0.0442  0.1132 -0.2266
    1W        W36173  25.465  19.119   2.102  0.2226  0.0154 -0.1930
    1W        W36174  17.875  27.365   9.108 -0.5030 -0.1269 -0.0841
    1W        W36175  25.720   9.976   9.805  0.0384  0.0320 -0.3494
    1W        W36176   0.494  17.507   1.656 -0.0281 -0.4474  0.0674
    1W        W36177  16.170  15.235   8.439 -0.1601  0.2304  0.2290
    1W        W36178  23.963   1.965   9.558  0.1705  0.1096  0.0067
    1W        W36179   8.298  27.550   1.521 -0.0347  0.3404 -0.0256
    1W        W36180  13.812  27.239   0.578  0.1705  0.0350  0.2304
    1W        W36181  26.837  10.842  10.077  0.0978  0.0365 -0.2514
    1W        W36182  19.619   0.521   8.324  0.2077  0.3104 -0.1176
    1W        W36183   8.186  23.647   0.801  0.2825  0.2512 -0.0632
    1W        W36184  14.392   8.693   0.389  0.1541  0.0605  0.1480
    1W        W36185   5.426  16.697   8.146  0.0428 -0.1153  0.0690
    1W        W36186  21.518  22.372   1.846 -0.1837  0.2585 -0.0196
    1W        W36187   6.466  16.165   7.333 -0.0185  0.0401  0.0454
    1W        W36188   1.146  24.281   1.320 -0.0598 -0.1144  0.3374
    1W        W36189  11.730   2.324   1.544 -0.1888 -0.0459 -0.2038
    1W        W36190  23.826  12.861   9.241  0.0050  0.1091  0.2786
    1W        W36191  21.965  26.814   0.976  0.3013  0.1143  0.0252
    1W        W36192   4.628  18.547   2.092  0.0225  0.1828 -0.2671
    1W        W36193   4.992  12.420   2.343  0.0101  0.2729  0.1816
    1W        W36194  11.766   5.646   2.033 -0.3172  0.1616 -0.3432
    1W        W36195  18.922   2.882   9.796  0.0559  0.0549  0.3428
    1W        W36196   1.302   6.656   9.599 -0.1769 -0.1135 -0.1899
    1W        W36197   6.197  10.406   8.530 -0.0730  0.1095 -0.2414
    1W        W36198  13.283   0.185   2.967  0.1100 -0.1869 -0.1237
    1W        W36199   1.608  19.951   2.844 -0.1504 -0.4216 -0.0335
    1W        W36200  24.605  12.847   8.656 -0.0325 -0.0166 -0.0812
    1W        W36201   6.722  24.354   8.798  0.0739  0.1887  0.1130
    1W        W36202   0.313  20.984   8.552  0.0277 -0.2227 -0.3169
    1W        W36203  16.045  19.146   2.985  0.0343  0.2366 -0.5230
    1W        W36204  22.925   5.571   2.452 -0.1350 -0.1223  0.0307
    1W        W36205   3.984  11.993   8.446  0.1596  0.2062 -0.3485
    1W        W36206  21.186   7.880   7.678  0.1799  0.2542  0.0130
    1W        W36207  17.360  18.624   3.577  0.3466  0.0718  0.1415
    1W        W36208  23.685  19.788   9.315  0.0244 -0.0944 -0.0904
    1W        W36209   4.396   3.437   2.472  0.2674 -0.4035 -0.0505
    1W        W36210  12.921  18.082  10.065  0.0680  0.2328 -0.1821
    1W        W36211   0.715   4.105   9.594  0.1271 -0.0641 -0.2603
    1W        W36212  27.150   6.889   0.320  0.1037  0.1446  0.3715
    1W        W36213  20.053  19.290   8.222 -0.3480  0.0558  0.2119
    1W        W36214   9.932   1.903   7.616 -0.3097 -0.0192 -0.0628
    1W        W36215   8.454   0.853   8.168  0.1912  0.1294  0.2732
    1W        W36216  20.213  16.480   2.390 -0.2549  0.1568 -0.1715
    1W        W36217  25.686  19.555   3.000  0.0657  0.0705 -0.0812
    1W        W36218  12.433  11.730   9.729 -0.2180 -0.0817 -0.0585
    1W        W36219  19.208   8.941   7.630 -0.2364 -0.0396 -0.1544
    1W        W36220   6.303  22.696   1.199  0.0837 -0.1791 -0.2280
    1W        W36221   7.838  27.334   0.500 -0.1799  0.0461  0.0398
    1W        W36222  19.115  23.235   8.444  0.0264  0.4820  0.0869
    1W        W36223  24.180   4.122   7.904 -0.0554  0.0197  0.0377
    1W        W36224  14.482  20.557   8.956 -0.1306 -0.0497  0.0080
    1W        W36225  17.839   1.620   1.702  0.0993 -0.1094  0.2660
    1W        W36226  19.746  13.825   8.494 -0.0709  0.0840  0.0845
    1W        W36227  22.800   7.899   9.776 -0.2714  0.1540  0.1005
    1W        W36228   0.943  12.282   9.947  0.3938  0.1628 -0.0950
    1W        W36229  18.173  10.820   3.793 -0.2347  0.2648  0.2316
    1W        W36230  10.795  11.382   9.072  0.1214 -0.0137 -0.2900
    1W        W36231  28.006  15.525   0.150 -0.0092 -0.2363  0.2772
    1W        W36232  11.600  13.235   8.121  0.1919 -0.1142 -0.1278
    1W        W36233  19.840   2.219   1.986 -0.1319 -0.0449 -0.2232
    1W        W36234  22.179   4.532   9.374 -0.0537 -0.0528  0.0380
    1W        W36235  10.897   9.433   2.081 -0.1824 -0.3233  0.2769
    1W        W36236  19.877  14.354   8.645 -0.0579 -0.0498  0.3473
    1W        W36237  14.088   1.948   9.766  0.0473 -0.0993  0.2307
    1W        W36238   5.513  27.133   0.427  0.1170 -0.1372  0.2762
    1W        W36239  16.129  16.188  10.111  0.1796 -0.1224  0.2752
    1W        W36240   5.491  25.662   1.029 -0.1590  0.1800  0.0759
    1W        W36241  16.278  22.777   7.551  0.0724 -0.2951  0.1952
    1W        W36242  15.456   2.206   3.674  0.0635  0.0011 -0.0043
    1W        W36243  19.235  16.563   7.596 -0.1168  0.2268  0.3469
    1W        W36244  10.736  22.891   0.952  0.2726  0.2227  0.0613
    1W        W36245   3.841  13.726   1.776  0.0497 -0.2432  0.5127
    1W        W36246  21.624   2.079   9.249  0.0820 -0.1114 -0.1242
    1W        W36247   3.486   7.862   9.101  0.2540 -0.0606  0.0635
    1W        W36248  21.459   4.784   7.118 -0.1297 -0.1786 -0.0193
    1W        W36249   4.869  21.824   9.407  0.1590  0.1818  0.1947
    1W        W36250  20.647  14.216   8.729 -0.2059 -0.0074  0.0410
    1W        W36251  12.876  13.476   2.141  0.4190  0.1778  0.0781
    1W        W36252  15.486  24.652   0.176  0.0277 -0.0485  0.3468
    1W        W36253  27.961   7.692   6.797 -0.1753  0.0104 -0.1015
    1W        W36254   4.584  20.397   0.595 -0.0986 -0.1428  0.2347
    1W        W36255  17.422  24.955   7.724 -0.0386  0.0176 -0.1321
    1W        W36256  21.474   5.376   2.528  0.1421  0.2000 -0.0131
    1W        W36257  17.636  21.890   2.296 -0.0075 -0.1757  0.0187
    1W        W36258  24.918  10.408   7.985 -0.1279 -0.2620 -0.1188
    1W        W36259  15.092  13.097   7.995 -0.1364  0.1051 -0.2001
    1W        W36260  12.833   6.458  10.150 -0.0159  0.0696 -0.1422
    1W        W36261  10.931   9.203   8.321  0.1774  0.0093  0.0254
    1W        W36262   8.433  17.243   1.610 -0.3563  0.1717 -0.0354
    1W        W36263   9.903  26.098   0.259  0.0913 -0.2604 -0.2619
    1W        W36264  13.841   6.840   7.769  0.0802  0.0011  0.3028
    1W        W36265  20.884   9.753   2.609  0.1085  0.3671 -0.1817
    1W        W36266  13.758  17.652   1.378 -0.2015  0.2931 -0.2414
    1W        W36267  26.048  22.174   2.159 -0.0184 -0.1657 -0.2255
    1W        W36268  14.711  23.526   9.046 -0.1405  0.0087 -0.1687
    1W        W36269  28.093  21.926   0.792 -0.1338  0.2954 -0.1141
    1W        W36270   5.395  16.875   0.881 -0.0214 -0.3784  0.1523
    1W        W36271  10.833  18.505   3.172 -0.0448 -0.2991 -0.0829
    1W        W36272  25.819   2.678   3.563 -0.0733 -0.3114  0.2310
    1W        W36273   3.405  13.448   1.370 -0.1458  0.2468 -0.0320
    1W        W36274  13.975  12.308   2.427 -0.0000 -0.3578 -0.2223
    1W        W36275  11.261  18.866   8.593 -0.2454  0.0703 -0.1875
    1W        W36276   7.070  16.513   3.344  0.2896  0.0689 -0.2672
    1W        W36277   8.338  19.965   8.502 -0.3728 -0.0785 -0.0625
    1W        W36278  10.355   2.418   9.480  0.3715 -0.1735  0.0177
    1W        W36279  13.584  23.465   9.615 -0.2209  0.3149 -0.3435
    1W        W36280   8.436   7.156   0.020  0.1626 -0.1330  0.3834
    1W        W36281  12.720  22.516  10.001 -0.3135  0.0630  0.1778
    1W        W36282  25.300  26.509   8.199 -0.0651  0.2723 -0.0492
    1W        W36283  26.959  12.558   6.241 -0.1830  0.0938  0.0291
    1W        W36284  12.538   2.036   8.871 -0.2178  0.0156  0.0553
    1W        W36285   9.525   0.505   0.188  0.2879  0.0429 -0.0070
    1W        W36286  25.317  22.468   9.680 -0.2152 -0.1604 -0.0655
    1W        W36287   8.568  13.093   7.560 -0.2935 -0.1146 -0.0255
    1W        W36288   1.075  19.297   7.931 -0.0133 -0.0899 -0.0581
    1W        W36289   6.063   0.571   9.455 -0.0695 -0.0529 -0.1448
    1W        W36290  11.175  20.197   0.625  0.0156  0.0320  0.1127
    1W        W36291   8.425   2.713   9.540  0.2011 -0.1113  0.0322
    1W        W36292  21.428   9.951   3.523  0.0134 -0.0027 -0.0967
    1W        W36293   7.723  16.338   2.704 -0.3908 -0.2789 -0.1281
    1W        W36294  23.285  20.874   0.215  0.0823 -0.1900 -0.0276
    1W        W36295   9.188  18.977   2.137 -0.2439  0.0849  0.0333
    1W        W36296  15.652  24.580   1.653 -0.1288 -0.0715 -0.3036
    1W        W36297  19.333  11.988   8.677  0.0268 -0.0759  0.5902
    1W        W36298  22.944  19.083   2.060 -0.3191  0.3319  0.3131
    1W        W36299  24.899   0.912   7.103 -0.0030  0.0866  0.2753
    1W        W36300   3.765  18.686   0.262 -0.2009  0.0369 -0.0667
    1W        W36301   3.210   5.087   9.020 -0.0896  0.0919 -0.2957
    1W        W36302  12.887  15.231   3.450 -0.0854 -0.0404  0.0897
    1W        W36303  25.114  19.924   8.119  0.2251 -0.2608 -0.1763
    1W        W36304  19.922  18.905   2.589 -0.0017  0.2792  0.1346
    1W        W36305  11.591  14.296   2.956  0.4465 -0.0288 -0.1388
    1W        W36306  16.675  23.810   9.809 -0.0406 -0.0331  0.2196
    1W        W36307   2.798   1.189   0.720  0.2785 -0.0815 -0.0220
    1W        W36308  17.857  26.846   9.022  0.0707  0.0233 -0.1538
    1W        W36309  10.664   7.099  10.039 -0.4619 -0.0613  0.0833
    1W        W36310  10.228  20.294   0.836  0.0101  0.1070 -0.0436
    1W        W36311   7.987  16.514   9.639  0.1901 -0.0287 -0.1536
    1W        W36312  14.975   4.827   2.886  0.1266  0.1100 -0.2275
    1W        W36313   3.633  26.202   8.308 -0.1685  0.0215 -0.1973
    1W        W36314  18.202  26.074   1.909 -0.1253  0.1628  0.0606
    1W        W36315   6.348   0.700   9.952 -0.0733 -0.1480  0.0543
    1W        W36316  20.499  24.054   2.283 -0.0146  0.0804 -0.0522
    1W        W36317  27.830  25.691   7.945  0.0718 -0.0727  0.2813
    1W        W36318  15.616   5.928   8.404  0.2781 -0.1393 -0.2573
    1W        W36319  16.647  18.563   7.772  0.1159  0.1971 -0.0133
    1W        W36320   7.110   8.660   8.733 -0.0284  0.1193  0.1684
    1W        W36321  18.895  13.516   0.969  0.1339 -0.4857  0.0147
    1W        W36322  23.284   6.519   0.078  0.0139 -0.2301 -0.0947
    1W        W36323  16.756   0.626   3.312 -0.0235  0.1524 -0.0923
    1W        W36324  18.470  18.919  10.359  0.1091 -0.3098  0.0607
    1W        W36325  25.247  27.155   0.938 -0.1870  0.1590  0.2866
    1W        W36326   9.578   2.876   2.094 -0.0430 -0.0450 -0.1640
    1W        W36327   3.534  20.376   0.765 -0.1622  0.0267  0.3177
    1W        W36328   3.286  27.870   1.675 -0.1959  0.1733 -0.0791
    1W        W36329   7.395  27.575   7.171 -0.0594 -0.0988  0.4012
    1W        W36330  10.679  11.341   8.154 -0.0801  0.2624 -0.1400
    1W        W36331   5.522  26.773   8.235 -0.0204  0.1570 -0.1528
    1W        W36332   4.810   6.438   7.948 -0.0237  0.1476  0.1338
    1W        W36333  21.995  27.678   8.122  0.0246 -0.0192  0.1937
    1W        W36334  17.064  24.994  10.035 -0.3370  0.1317  0.0641
    1W        W36335  22.411  27.535   9.233 -0.0120 -0.3394 -0.2067
    1W        W36336  15.730  21.529   6.852  0.2335 -0.0234  0.1932
    1W        W36337   7.607  16.336   2.229 -0.3256 -0.1778 -0.1539
    1W        W36338   2.674  17.819   1.126  0.2265 -0.0143 -0.1028
    1W        W36339  20.994   1.237   7.630  0.0455 -0.0449  0.2121
    1W        W36340   4.858   0.555   0.966 -0.3581  0.1217  0.0216
    1W        W36341  15.653   3.583   1.335  0.1670 -0.0947  0.0516
    1W        W36342   8.209  21.069   2.896 -0.0908 -0.1154  0.1333
    1W        W36343   5.488  11.766   8.157 -0.0851 -0.0164 -0.0192
    1W        W36344   0.086   2.776   7.810 -0.1517 -0.1831  0.2057
    1W        W36345  25.264  12.985   7.661  0.2302  0.0805  0.0063
    1W        W36346  13.506  17.593   2.139 -0.0992  0.2513 -0.1826
    1W        W36347  12.004   8.126   9.479 -0.4067 -0.0726  0.0342
    1W        W36348   0.098  13.094   6.902  0.3238 -0.0662 -0.2401
    1W        W36349  20.904  18.732   1.608  0.0119 -0.2945 -0.0148
    1W        W36350  19.138  22.193   1.461 -0.3381 -0.2002  0.1740
    1W        W36351  25.478   7.697   7.776  0.0264  0.1918  0.0297
    1W        W36352  17.707   9.744   9.108  0.4531 -0.1997  0.0231
    1W        W36353  10.887   0.905   8.555  0.0536 -0.0664 -0.1700
    1W        W36354  27.787  19.180   1.888 -0.2025  0.0603  0.3191
    1W        W36355   9.085  23.386   9.642  0.2671  0.0309  0.1699
    1W        W36356  14.202   5.396   8.234  0.0580 -0.1114  0.0766
    1W        W36357  21.457   7.420   1.940  0.1312 -0.0248  0.1620
    1W        W36358  12.492  12.692   7.853 -0.5988 -0.0197 -0.0933
    1W        W36359  12.426  11.426  10.203 -0.0742 -0.0679  0.1469
    1W        W36360  25.182   5.430   0.265  0.0446  0.1915  0.0148
    1W        W36361  13.973   9.317  10.255  0.1141  0.0368 -0.0612
    1W        W36362   8.582  25.876   7.398  0.1087 -0.0645 -0.0454
    1W        W36363  17.732   5.033   0.402 -0.1656  0.0453  0.0964
    1W        W36364  13.071  25.556   6.580  0.2429  0.3039 -0.0538
    1W        W36365  12.144  21.366   8.706 -0.0687  0.3244 -0.2735
    1W        W36366   8.956  26.009   8.977  0.0916  0.1544 -0.2372
    1W        W36367   0.251   9.788   1.524 -0.2468 -0.0941  0.0541
    1W        W36368   2.346   4.093   6.469 -0.2406 -0.2378 -0.1442
    1W        W36369  24.012  15.375   8.053  0.0818 -0.0629 -0.2177
    1W        W36370  24.381   8.558   6.770 -0.2780 -0.1783  0.2306
    1W        W36371  16.998   5.450   0.106 -0.1964  0.0508  0.1021
    1W        W36372  17.695  22.678   7.612  0.0273 -0.1898  0.1537
    1W        W36373   0.571  11.540   1.577  0.2353 -0.0619  0.1264
    1W        W36374  11.229   8.310   9.961 -0.0407 -0.3118  0.0665
    1W        W36375  10.801  19.422   1.030 -0.0897  0.1539 -0.1366
    1W        W36376  16.740   4.554   0.251 -0.1914  0.0564 -0.0111
    1W        W36377  12.334  10.669   0.107 -0.0436  0.0169  0.1895
    1W        W36378  13.478   7.741   2.140 -0.0291 -0.3042  0.0707
    1W        W36379  14.152  21.454   1.879 -0.0371 -0.2459 -0.5079
    1W        W36380  20.309  20.747   0.996 -0.1849 -0.4184  0.0135
    1W        W36381   4.912  26.432   9.651  0.1046 -0.1587 -0.2443
    1W        W36382  16.119   0.915   0.227 -0.0793  0.2135  0.3474
    1W        W36383   7.241  26.347   8.048 -0.3789 -0.1373 -0.3165
    1W        W36384   7.330   1.599   8.650 -0.0938  0.2031 -0.2549
    1W        W36385   5.180  13.505  10.221 -0.1247  0.1696  0.0959
    1W        W36386  18.672   7.563   9.082  0.2170 -0.2240  0.0074
    1W        W36387  13.728  17.344   7.787  0.1637 -0.1213  0.1316
    1W        W36388   1.259   2.843   9.633  0.0035 -0.1422 -0.0080
    1W        W36389   6.819   5.787   1.693 -0.0048  0.0667 -0.0694
    1W        W36390   1.265  11.292   8.931 -0.1102  0.2796  0.1224
    1W        W36391  26.985  24.902   0.345 -0.1543 -0.1033 -0.2803
    1W        W36392  24.497   9.116   7.331  0.2766 -0.0700  0.0591
    1W        W36393  25.743  13.094   8.331 -0.1941 -0.2854  0.1033
    1W        W36394  20.378  20.218   8.879 -0.0750 -0.0836  0.1345
    1W        W36395  22.758  11.525   8.578 -0.2302 -0.0927 -0.0492
    1W        W36396   1.398  12.424   9.128 -0.1779 -0.1951  0.0548
    1W        W36397  11.095  20.027   8.061  0.0914 -0.1499  0.1330
    1W        W36398   2.124  26.495   9.052  0.2107 -0.1364 -0.0489
    1W        W36399  24.960  10.484   8.647 -0.2328 -0.0438 -0.2418
    1W        W36400  16.537  27.431   8.540  0.0153 -0.0300  0.1506
    1W        W36401  21.599   7.118   8.939 -0.1919 -0.1163 -0.2337
    1W        W36402  16.724  20.940   0.397 -0.1406  0.2469  0.0288
    1W        W36403   7.736  13.605   0.307 -0.0667 -0.0622  0.2082
    1W        W36404  26.352   9.969   8.508 -0.0514 -0.1475 -0.1592
    1W        W36405   5.976  17.013   0.061  0.0137  0.0470 -0.1187
    1W        W36406   2.376  19.724   3.341  0.3497 -0.2679 -0.1872
    1W        W36407   2.654  13.750   7.957 -0.0251  0.4978  0.0977
    1W        W36408   9.237   5.382   9.138 -0.4622 -0.0041  0.0034
    1W        W36409   9.446   7.809   0.163  0.0993  0.0695 -0.0039
    1W        W36410  23.201  27.088   7.831 -0.0955  0.0458  0.1669
    1W        W36411   6.315   1.533   9.481 -0.0607  0.0880 -0.0134
    1W        W36412  21.228  19.450   7.402 -0.1739  0.1285  0.3509
    1W        W36413   7.472   0.086   9.629  0.0707 -0.0200  0.0584
    1W        W36414   0.111  19.067   0.503  0.0019 -0.0687  0.0984
    1W        W36415   8.961   0.910   0.785  0.1498  0.1370  0.2671
    1W        W36416  10.793  11.682   3.067  0.0976  0.2512 -0.1156
    1W        W36417   2.336  20.912   9.449  0.0239 -0.3544  0.1039
    1W        W36418  22.274  13.296   7.958 -0.1432  0.0927  0.0896
    1W        W36419  23.376   0.930   7.656  0.3520  0.0104  0.1380
    1W        W36420   2.257  14.751   0.614  0.0290 -0.1480 -0.1162
    1W        W36421  20.329   4.651   1.062 -0.0083 -0.0523  0.0532
    1W        W36422   0.555   5.299   1.820 -0.1344 -0.4388 -0.1213
    1W        W36423  25.956  17.573   7.662  0.1674  0.0583  0.4991
    1W        W36424  24.781  24.611   0.292 -0.0049  0.1449 -0.2711
    1W        W36425  18.541   5.573   7.488  0.0152  0.0814 -0.1569
    1W        W36426  25.109  15.447   0.667 -0.0810 -0.1922 -0.1333
    1W        W36427  27.214  22.512   1.055 -0.0784 -0.0819 -0.1709
    1W        W36428  16.437   3.272   0.828 -0.2923  0.0803 -0.0424
    1W        W36429  26.753  25.189   6.710  0.2036 -0.1842 -0.1525
    1W        W36430  12.626  23.076   8.847 -0.1232 -0.0516  0.2258
    1W        W36431   5.638  19.743   9.052  0.2862 -0.2284  0.0934
    1W        W36432  26.229  21.707   8.153  0.1573 -0.1886  0.1336
    1W        W36433  12.125   4.524   8.368 -0.4384 -0.3703 -0.0473
    1W        W36434  26.105  16.788   0.717 -0.1887  0.1873 -0.1548
    1W        W36435  21.150  17.684  10.003 -0.0433  0.1435  0.0922
    1W        W36436  15.803   2.731   9.140  0.0312 -0.1813  0.1355
    1W        W36437   7.252  23.263   3.257 -0.0808  0.0934  0.2709
    1W        W36438  26.389  24.598   2.546  0.1110  0.2440  0.1301
    1W        W36439  20.498  11.051   3.543 -0.0296  0.1947 -0.1047
    1W        W36440   6.628   8.757   1.802  0.0539  0.1338  0.1991
    1W        W36441  20.248   0.701   9.628 -0.1054 -0.0767 -0.1770
    1W        W36442   4.051  21.141   0.703 -0.2430  0.0433  0.2513
    1W        W36443   8.734  13.499   7.861  0.0291  0.3094  0.3282
    1W        W36444   0.418  26.352   1.206  0.0104  0.0354  0.0463
    1W        W36445  13.539  26.871   1.242 -0.1962  0.1441  0.0909
    1W        W36446  10.440   9.533   0.811 -0.0606  0.0712  0.0516
    1W        W36447   2.746   9.727   7.073  0.2287  0.0084  0.0940
    1W        W36448  26.433   5.912   1.026  0.0011 -0.1784  0.1234
    1W        W36449  24.622  16.627   3.522  0.2854  0.3204  0.1464
    1W        W36450  24.084  18.137   0.569  0.1426  0.1231  0.0804
    1W        W36451   5.809   6.408   7.215 -0.3053 -0.0238 -0.2859
    1W        W36452  23.861   6.826  10.024 -0.2614 -0.3656 -0.0135
    1W        W36453  16.074   9.393   2.143 -0.0069  0.2374 -0.0276
    1W        W36454  13.919  25.634   7.375 -0.1440 -0.0597 -0.0482
    1W        W36455  12.817   2.902   8.000 -0.2265 -0.2462 -0.2714
    1W        W36456  25.089  16.236   0.082  0.0867  0.0143  0.2755
    1W        W36457  12.002  21.326   9.623  0.0533 -0.0171 -0.0062
    1W        W36458   2.216   9.090  10.249 -0.0566  0.1695  0.3113
    1W        W36459  15.086  21.568   8.026 -0.0947 -0.2011 -0.2328
    1W        W36460   3.253   4.873  10.064 -0.0718 -0.2532 -0.0027
    1W        W36461   6.831  15.222   7.678  0.0608  0.0824 -0.2259
    1W        W36462  15.654  17.757   9.281 -0.0361  0.0354 -0.0950
    1W        W36463  21.938  16.279   0.320  0.1176  0.2841  0.0049
    1W        W36464  13.593  13.492  10.120  0.0058  0.2238 -0.0439
    1W        W36465   8.625   4.360   0.365  0.2299 -0.0791 -0.0782
    1W        W36466  24.594  14.612   2.457  0.2689 -0.0943 -0.1039
    1W        W36467  12.068   5.352   7.520  0.2380  0.0326 -0.3503
    1W        W36468   8.514  25.928   2.767 -0.1970  0.0856  0.3228
    1W        W36469  21.170   8.083   8.661 -0.0535 -0.1176  0.1296
    1W        W36470  27.987  14.985   6.497 -0.0335  0.0887 -0.0644
    1W        W36471  16.033   3.143  10.095  0.1502 -0.1772  0.0204
    1W        W36472  17.413   7.693   1.753  0.3034 -0.0505  0.1517
    1W        W36473  10.668  16.536   1.737  0.0201 -0.0242 -0.2999
    1W        W36474  21.163  14.566   3.234 -0.0095  0.1890  0.0875
    1W        W36475   2.416   0.314  10.344 -0.3639 -0.0370 -0.0613
    1W        W36476  21.356   3.939   9.624  0.0717  0.3643  0.0100
    1W        W36477  22.566  17.845   6.948 -0.1201 -0.3442 -0.0990
    1W        W36478   6.844  15.748   9.827 -0.0837 -0.1502  0.3113
    1W        W36479   2.803   4.939   9.804 -0.0611 -0.3396  0.0090
    1W        W36480  13.925   8.342   9.175 -0.2445  0.0129 -0.3187
    1W        W36481   0.030  19.786   2.471  0.1099 -0.1018  0.1099
    1W        W36482  18.323  10.273   7.787 -0.0602 -0.0678 -0.2162
    1W        W36483  25.215  23.535   9.272 -0.0549 -0.0069 -0.0730
    1W        W36484  25.436   0.352   3.076 -0.0300 -0.0035  0.0319
    1W        W36485   1.230  16.386   7.752 -0.2089  0.1052  0.2020
    1W        W36486  10.724   0.907   7.912  0.1146 -0.0838 -0.0252
    1W        W36487   2.307  14.858   7.309  0.0654  0.0637  0.2153
    1W        W36488  13.320   3.992   7.761  0.0029 -0.2986 -0.3229
    1W        W36489   1.542  19.255   2.090  0.2372  0.1265 -0.4688
    1W        W36490   5.066   1.041   9.722  0.2123 -0.0266  0.0489
    1W        W36491   9.260  23.861   9.691  0.1777  0.1116  0.0385
    1W        W36492  26.907  23.915   3.190  0.1196 -0.0720 -0.0120
    1W        W36493   9.544  25.066   8.156  0.2244  0.3135  0.1993
    1W        W36494  15.572  23.122   0.060  0.0234 -0.1015 -0.1824
    1W        W36495  21.910  16.450   3.113 -0.0109 -0.2982 -0.0532
    1W        W36496  16.677  13.260   0.769 -0.3183 -0.0505 -0.0350
    1W        W36497   0.990  22.722   9.002 -0.3139  0.3882 -0.0371
    1W        W36498  10.121  22.034   7.915  0.4715  0.1268  0.0569
    1W        W36499  21.844  13.458  10.245  0.4798 -0.0432  0.1004
    1W        W36500  11.183  22.363   1.758  0.0135 -0.2447  0.0608
    1W        W36501  16.155  23.753   8.282 -0.2847  0.2246 -0.1562
    1W        W36502   9.591  14.732   1.744  0.2232  0.0117 -0.1113
    1W        W36503   3.356   5.670   0.806 -0.1489  0.0726 -0.1160
    1W        W36504   6.810   8.332   8.941  0.2653 -0.2467 -0.1911
    1W        W36505  17.288   9.464   0.407  0.1565 -0.1188  0.3687
    1W        W36506   3.333   1.041   6.791  0.0701  0.0016 -0.1969
    1W        W36507  12.563  13.930   8.692 -0.0760  0.1399 -0.0969
    1W        W36508  10.927  24.249   7.892 -0.0903  0.2957 -0.1403
    1W        W36509  17.596  21.328   3.673 -0.0903  0.2107  0.2189
    1W        W36510  12.118  14.705   2.662  0.1853 -0.0327  0.0508
    1W        W36511  27.754  17.364   8.207 -0.1727  0.0060 -0.0903
    1W        W36512   4.847   0.403   0.413  0.0209 -0.2685 -0.0556
    1W        W36513  26.869   2.609   0.438  0.0966 -0.1175  0.0090
    1W        W36514   9.694  10.136   0.637  0.1922 -0.1314 -0.0160
    1W        W36515  11.220  10.904   2.342  0.2527  0.0511 -0.1702
    1W        W36516   6.577   3.425   0.204  0.0057 -0.0675  0.2011
    1W        W36517   8.865  27.608   8.466  0.2276 -0.1863 -0.3020
    1W        W36518  27.155   3.114   9.613  0.1547  0.0121 -0.0133
    1W        W36519   0.943  21.811   8.945 -0.1418  0.1010 -0.0162
    1W        W36520   6.798  21.598   8.123  0.0525  0.2669 -0.0362
    1W        W36521  24.030  15.280   2.690 -0.0273 -0.1435 -0.0004
    1W        W36522   7.032  19.536   7.138 -0.0472  0.0974  0.3844
    1W        W36523  26.039  12.472   0.027  0.1239  0.3116  0.0711
    1W        W36524  11.845  11.746   1.393 -0.0297  0.0531  0.0255
    1W        W36525  14.789  21.192   7.715  0.1215  0.0724 -0.0084
    1W        W36526  23.812  17.088   2.059  0.2407 -0.0415  0.0526
    1W        W36527  16.541  22.250   7.258  0.1252 -0.0374 -0.3016
    1W        W36528  18.498   2.666   9.848 -0.0603  0.0270 -0.1145
    1W        W36529  23.516  13.256   7.163  0.1108 -0.1792 -0.1739
    1W        W36530   6.618  16.284   0.227 -0.3769  0.0372 -0.3639
    1W        W36531   9.556  18.422   0.163 -0.0995 -0.1850 -0.1137
    1W        W36532   8.004  27.891   6.440  0.1618 -0.0716  0.0971
    1W        W36533  13.139  14.050   2.892  0.0390 -0.3096  0.2071
    1W        W36534   9.994   1.056   8.798 -0.0532 -0.3423  0.3431
    1W        W36535  14.769  26.828   2.182 -0.0401  0.0419 -0.2062
    1W        W36536   4.348  11.192   9.669 -0.1794 -0.0620 -0.3763
    1W        W36537  11.642  19.155   8.951  0.1826  0.1259 -0.0688
    1W        W36538   6.438   2.047   7.775 -0.1129 -0.0165  0.3997
    1W        W36539   5.373  13.248   8.908 -0.1782  0.1263 -0.1181
    1W        W36540  17.374  23.687   7.306  0.0405 -0.0422 -0.1477
    1W        W36541  24.340  12.310   9.965  0.2282  0.1809  0.1093
    1W        W36542   4.552   7.625   0.512 -0.4475 -0.0712  0.2540
    1W        W36543  15.402  12.393   0.986  0.4258  0.1779  0.1407
    1W        W36544   2.960  25.385   1.643 -0.1368 -0.0433 -0.0449
    1W        W36545   0.372  17.129   2.425 -0.0680  0.0309 -0.0921
    1W        W36546   6.176   4.249   8.205 -0.0363  0.3822  0.2940
    1W        W36547  24.323  13.085   7.819  0.1640 -0.1624 -0.0448
    1W        W36548  21.923  11.683   7.036 -0.3024  0.3138 -0.1041
    1W        W36549  16.765   2.779   0.852 -0.1522 -0.3668  0.1046
    1W        W36550   0.501  17.593   7.257 -0.1376 -0.0599 -0.2461
    1W        W36551  17.862  16.478   2.375  0.1582 -0.3297 -0.2662
    1W        W36552  28.107   3.509   6.733 -0.1392 -0.0513  0.0986
    1W        W36553  18.890  25.468  10.330 -0.0862 -0.2852  0.2788
    1W        W36554  10.002  15.385   7.308  0.0324 -0.1979 -0.0656
    1W        W36555  14.022  10.828   1.053 -0.1516 -0.1053  0.1691
    1W        W36556  28.065  10.876   2.895  0.5177 -0.0006 -0.0900
    1W        W36557   3.148   4.465   6.718 -0.1259  0.0448 -0.0685
    1W        W36558   1.463   7.859   8.593 -0.0665 -0.2179 -0.0944
    1W        W36559  23.671  14.090   8.320 -0.0512  0.0454 -0.0467
    1W        W36560  12.916   3.762   0.187  0.0483  0.1243  0.2284
    1W        W36561  23.917   8.965   0.250  0.0676  0.0554 -0.1232
    1W        W36562  20.677  14.682   3.414  0.2214 -0.0558  0.1834
    1W        W36563  26.868   8.591   7.701 -0.1806 -0.0763 -0.0928
    1W        W36564   5.921  21.131   9.934 -0.0403 -0.1451  0.0960
    1W        W36565  19.795  26.764   9.153  0.1073  0.0364  0.0921
    1W        W36566  15.037  26.209   1.454  0.1079 -0.4320 -0.2447
    1W        W36567  11.996   4.065   8.732  0.2839 -0.2782 -0.1459
    1W        W36568  15.026  11.939  10.112 -0.0249 -0.3549  0.1379
    1W        W36569  21.166  13.064  10.196  0.2070  0.0258 -0.1053
    1W        W36570  12.528  16.791   0.504  0.1211 -0.2186  0.0586
    1W        W36571   4.491  17.574   8.201  0.2934  0.0378  0.1290
    1W        W36572   5.300  11.193   1.602  0.1429 -0.0186 -0.0148
    1W        W36573   5.254  15.024   0.101 -0.2563 -0.0046 -0.1654
    1W        W36574   4.420  16.737   6.921 -0.3016 -0.0571 -0.1050
    1W        W36575   3.118   1.785   0.397  0.0608  0.2466 -0.0682
    1W        W36576  24.946  13.966   1.127  0.1423 -0.0387  0.0995
    1W        W36577   6.511  21.914   3.405 -0.0309  0.1552 -0.1344
    1W        W36578  26.960  12.277   3.203  0.1085 -0.0353  0.0904
    1W        W36579  16.463   3.695   8.102 -0.1406 -0.0065  0.2314
    1W        W36580  16.119   5.312   7.995  0.0606  0.1331 -0.1162
    1W        W36581  22.277   3.327   2.500  0.1263 -0.0793 -0.1711
    1W        W36582  16.379  14.929   9.689  0.0010 -0.1797 -0.0821
    1W        W36583  27.155  14.796   3.125  0.1855 -0.0069 -0.0324
    1W        W36584   6.838   9.808   9.381  0.5075  0.0960  0.2325
    1W        W36585   1.202  15.158   1.142  0.1913 -0.1236  0.0993
    1W        W36586   3.092  16.618   2.489 -0.0797 -0.0057 -0.0551
    1W        W36587   6.277  22.827   8.350  0.2140  0.1643  0.0529
    1W        W36588   4.523  22.496  10.162 -0.0505  0.0317 -0.4669
    1W        W36589  12.967  23.344   8.547  0.0162  0.2479  0.0582
    1W        W36590   3.748   1.487   8.680 -0.2518 -0.3294  0.0416
    1W        W36591   6.000  22.540   0.355 -0.0019 -0.0674  0.2074
    1W        W36592  11.706  27.635   8.492  0.0039 -0.0673 -0.0921
    1W        W36593  11.837   6.521   0.155  0.0033 -0.1370 -0.0541
    1W        W36594   8.501  22.085   9.869 -0.2139  0.1152  0.1910
    1W        W36595   7.451   1.816   9.551 -0.1912  0.2297  0.1501
    1W        W36596  24.457   8.369   7.681  0.3244  0.0274 -0.2096
    1W        W36597   1.382  16.796   8.367  0.1299 -0.0106 -0.0936
    1W        W36598   4.870  23.983   0.301  0.0903  0.1226 -0.3612
    1W        W36599  26.808  16.889   9.712 -0.1149  0.1360  0.0498
    1W        W36600  16.048   1.336   2.490 -0.3297  0.2894  0.0579
    1W        W36601  17.923   9.034   1.784 -0.3041  0.0595 -0.1291
    1W        W36602  13.774  15.198   8.549  0.0732  0.2271 -0.1091
    1W        W36603   9.465  21.130   1.897  0.1045 -0.4040 -0.0463
    1W        W36604  14.409  22.357   8.640  0.2018  0.0901 -0.0766
    1W        W36605  22.716   5.430   8.884 -0.0830 -0.1673  0.2534
    1W        W36606  11.524  26.405   9.336 -0.1875  0.0619  0.2756
    1W        W36607  10.051  12.773   8.468 -0.0273 -0.1212  0.1013
    1W        W36608  16.675  22.867   9.618 -0.2881 -0.2552  0.0970
    1W        W36609  15.317  26.682   1.287 -0.0176  0.0441  0.0084
    1W        W36610   5.040  20.570   8.817  0.0048 -0.2236  0.1211
    1W        W36611   0.935  15.305   9.694 -0.1185  0.2111  0.1198
    1W        W36612  16.664   5.566   2.022  0.5551 -0.0878  0.0897
    1W        W36613  14.610   1.037   1.562  0.1708 -0.0387  0.0185
    1W        W36614   9.313  26.433  10.137 -0.3517 -0.2307 -0.1917
    1W        W36615  16.248  15.100   3.187  0.1732 -0.2273  0.1439
    1W        W36616  24.877   5.492   7.443 -0.1844  0.0143 -0.0010
    1W        W36617   8.165   1.982   7.564  0.1074  0.1627 -0.4035
    1W        W36618  10.164  18.180   2.201 -0.0570 -0.2403 -0.5032
    1W        W36619   3.572   8.417   7.839  0.1497  0.0300  0.1259
    1W        W36620  17.056  11.977   2.724 -0.0206  0.3108  0.1692
    1W        W36621  22.388  13.074   2.476 -0.2643  0.2544  0.1382
    1W        W36622  27.585   7.356   7.150 -0.4760 -0.2868 -0.0077
    1W        W36623   5.374  20.897   8.169  0.1183  0.2586  0.0208
    1W        W36624  25.444  14.264   8.118  0.2535  0.0159  0.3234
    1W        W36625   9.122   8.593   0.669  0.0098 -0.1803 -0.0833
    1W        W36626  15.959   7.619   7.648 -0.0435 -0.0834  0.0107
    1W        W36627   2.531  27.673   1.052  0.0816 -0.0255  0.0587
    1W        W36628  25.288   8.288   8.624  0.0831  0.0737  0.0478
    1W        W36629  26.119  23.506   8.404 -0.0322  0.1460  0.1389
    1W        W36630  20.357  19.876   1.270  0.0608  0.1610 -0.1756
    1W        W36631  15.853   2.121   2.891  0.0309 -0.0526  0.1728
    1W        W36632  24.165  20.953   7.235  0.2146  0.1313  0.1746
    1W        W36633   8.037   3.136   9.779 -0.1825  0.0378 -0.1451
    1W        W36634   5.019  25.424   7.876 -0.0329  0.0484  0.1273
    1W        W36635   9.677   1.090   8.068  0.1142  0.2103 -0.1195
    1W        W36636  20.038  25.737   8.267  0.0530 -0.0437  0.1565
    1W        W36637  13.923   1.342   2.838  0.0077  0.5595 -0.3479
    1W        W36638   9.077   2.288  10.006  0.1681 -0.1183  0.0935
    1W        W36639   3.004  10.485   8.041 -0.4330 -0.0215 -0.0792
    1W        W36640  27.978  10.218   9.476  0.2175  0.0236 -0.3511
    1W        W36641  25.061  23.536   1.670 -0.0071 -0.0438 -0.0184
    1W        W36642   8.733  25.516   7.073 -0.0836 -0.2715  0.0558
    1W        W36643  22.285  23.336   9.632  0.0966  0.3079  0.0564
    1W        W36644  16.255  17.515   2.711 -0.2408  0.1239  0.0339
    1W        W36645  16.087   8.138   8.917 -0.1268 -0.0146 -0.3009
    1W        W36646   6.702   2.231   8.791  0.0023 -0.0712  0.0535
    1W        W36647  12.466  14.168   3.018  0.1055  0.0950 -0.0056
    1W        W36648  20.426   2.941   0.994 -0.0735  0.1926 -0.2627
    1W        W36649   5.681  23.286   7.363  0.2246 -0.0297  0.0750
    1W        W36650  19.145  15.264   7.844  0.1657  0.2351 -0.0236
    1W        W36651  16.681   9.361   7.632  0.3956  0.3280 -0.1271
    1W        W36652  24.368  27.592   9.484  0.1290  0.2238  0.1481
    1W        W36653  12.334  28.016   1.440 -0.2124 -0.1628  0.3304
    1W        W36654  22.508  27.100   7.851  0.3335 -0.0773 -0.1509
    1W        W36655  10.822   0.351   9.125  0.0159 -0.1740  0.2051
    1W        W36656   0.906  21.964   0.657 -0.1592  0.0972 -0.0379
    1W        W36657  27.231  24.352  10.100  0.1223 -0.2990  0.0324
    1W        W36658  12.131  18.809   3.111 -0.0410 -0.2122  0.1054
    1W        W36659   5.516  25.253   9.533  0.0618 -0.0166 -0.1110
    1W        W36660  19.285  20.057   2.351  0.0044 -0.0476 -0.0466
    1W        W36661  16.360   8.292   3.065 -0.1003 -0.0154 -0.2110
    1W        W36662  22.611  27.956   6.878  0.2202 -0.2853  0.2360
    1W        W36663  19.281  13.585   8.671  0.0935 -0.0412  0.0966
    1W        W36664   1.507  17.175   2.153  0.1120  0.2584 -0.0056
    1W        W36665  12.363  21.649   0.014  0.0521  0.2475 -0.1728
    1W        W36666   5.527   2.192   0.848 -0.0317 -0.2578  0.0145
    1W        W36667  27.129  15.165   1.923  0.0975  0.1235  0.1930
    1W        W36668   7.019  20.249   1.440  0.1456 -0.1409 -0.1134
    1W        W36669   8.659   9.770   9.786 -0.1295 -0.0514 -0.1261
    1W        W36670  13.843  26.123   2.978  0.0257  0.2370  0.0834
    1W        W36671  13.437  14.300   1.857 -0.0451 -0.2787  0.2991
    1W        W36672   3.292  18.334   2.347  0.0349  0.0535  0.0716
    1W        W36673   6.256  27.202   7.958 -0.3839 -0.2593  0.1548
    1W        W36674   5.048  22.765  10.118  0.0782  0.0355  0.3399
    1W        W36675   7.098  24.797   8.850  0.0038  0.1976 -0.0689
    1W        W36676   7.676   4.972   2.686 -0.0423  0.1502 -0.0227
    1W        W36677  27.607  22.469   7.031 -0.1286  0.0711  0.4218
    1W        W36678   8.675  10.328   9.742 -0.3749  0.1917 -0.0329
    1W        W36679   4.686  13.517   2.911  0.0057  0.0537  0.1265
    1W        W36680   7.721  20.809   9.517  0.2644 -0.0487  0.5192
    1W        W36681   9.983  22.867   1.681 -0.1055 -0.0920 -0.3598
    1W        W36682   0.863  22.127   7.851 -0.1030 -0.1632 -0.2302
    1W        W36683   0.189   7.961   1.732 -0.1237  0.0064  0.1475
    1W        W36684  18.528   1.153   7.726  0.2686 -0.1180 -0.1452
    1W        W36685  17.896  26.701   0.046 -0.1544 -0.3169  0.1942
    1W        W36686  10.703  12.078   8.526 -0.0524  0.0449  0.0970
    1W        W36687   8.331  15.781   1.518  0.5109 -0.3376  0.1168
    1W        W36688  15.070  11.413   8.180 -0.3205 -0.0082  0.0627
    1W        W36689   3.498  13.734  10.140 -0.2667  0.0397 -0.1988
    1W        W36690  27.152  11.963   9.920  0.0979  0.0554 -0.1096
    1W        W36691   2.201  26.829   2.612 -0.1261 -0.0289 -0.3055
    1W        W36692  18.060   6.168   0.409 -0.3621 -0.0014 -0.3313
    1W        W36693  16.601  18.949   2.141 -0.1217 -0.0087 -0.0651
    1W        W36694  21.678  24.987   1.037 -0.3435  0.0083 -0.1232
    1W        W36695  21.421  14.982   9.788 -0.0927 -0.0160 -0.0325
    1W        W36696   7.771  20.359   0.564 -0.2513 -0.3761 -0.1149
    1W        W36697   9.945  19.794   3.183  0.0537  0.1817  0.4095
    1W        W36698  13.465  13.225   8.580 -0.1103  0.2120  0.0700
    1W        W36699  12.932  19.868  10.213  0.0567  0.1760  0.0513
    1W        W36700  19.796  26.126   9.501  0.0226 -0.1525 -0.0299
    1W        W36701   2.588  25.925   8.758 -0.1299  0.0048 -0.0775
    1W        W36702  24.739  11.296   9.187 -0.0639  0.1053  0.0645
    1W        W36703  22.618  20.445   2.174  0.0598 -0.3964 -0.1399
    1W        W36704   9.631  26.988   0.309 -0.4721  0.1349 -0.2278
    1W        W36705  27.014   0.954   9.575  0.2154  0.1850 -0.3044
    1W        W36706  21.887  20.297   1.475  0.0036  0.2417 -0.1756
    1W        W36707   1.477  27.381   9.168  0.2105 -0.0984  0.1701
    1W        W36708  10.393   8.197   7.692  0.1713 -0.0491 -0.0166
    1W        W36709   8.293   6.106   0.663 -0.1771 -0.0646  0.1073
    1W        W36710  12.907  19.705   8.092 -0.1600 -0.0326 -0.4272
    1W        W36711  14.818   5.001   8.017 -0.0098  0.1698 -0.3015
    1W        W36712  26.340  14.779   9.308 -0.0688  0.2176  0.0344
    1W        W36713  17.869  25.756   1.766  0.0990  0.1455 -0.1379
    1W        W36714  22.462  17.685   8.763 -0.0691 -0.0427 -0.2769
    1W        W36715  27.403   2.449   6.241 -0.2113  0.4147  0.0933
    1W        W36716   9.660  20.025  10.278 -0.1525 -0.1638 -0.2105
    1W        W36717  14.028   4.438   0.332  0.1321  0.0313  0.1018
    1W        W36718   2.641   9.985   9.631  0.2350 -0.0182  0.2129
    1W        W36719  20.082  13.428   7.680 -0.0817 -0.2054  0.0603
    1W        W36720  10.224   0.672   0.538  0.2275 -0.1013  0.0101
    1W        W36721   8.715  14.674   9.325  0.0431 -0.1543  0.2446
    1W        W36722  26.382  19.156   2.521 -0.1228  0.2426 -0.0850
    1W        W36723  13.749  21.781   6.898 -0.1603 -0.1984 -0.1324
    1W        W36724   5.840   7.810   1.868 -0.2030 -0.0165 -0.0110
    1W        W36725  25.221  24.699   8.028  0.3010  0.0069 -0.3074
    1W        W36726  22.334  21.455   2.219 -0.2642 -0.0410 -0.0151
    1W        W36727  27.382  23.420   9.851 -0.1640 -0.1633  0.0708
    1W        W36728  14.179  26.640   1.454  0.2821  0.0224 -0.0391
    1W        W36729  17.617   5.623   9.913 -0.2706 -0.1865 -0.1790
    1W        W36730  14.048   5.759   3.049 -0.5130 -0.3369 -0.3471
    1W        W36731  19.526   6.890   7.511  0.1096  0.1702  0.1975
    1W        W36732  16.125  19.728   0.084  0.2293  0.0246  0.0950
    1W        W36733   6.527   8.397   8.039  0.0515 -0.0364  0.1422
    1W        W36734  12.901  15.773   8.233 -0.1285  0.0359 -0.2478
    1W        W36735  21.357  24.607   0.918  0.0361  0.2005 -0.1951
    1W        W36736   0.138  11.801  10.297 -0.0649 -0.0405  0.1121
    1W        W36737  16.720   0.341   0.123  0.0035  0.0004  0.1245
    1W        W36738   3.546  22.383   1.986  0.0167 -0.1011 -0.0889
    1W        W36739  10.280  27.851   2.683  0.0872 -0.1587 -0.2368
    1W        W36740  25.423  11.700   8.112  0.4744  0.0697  0.2737
    1W        W36741   9.725   6.728   2.576  0.1379  0.1204 -0.1649
    1W        W36742   1.530   8.116   9.653 -0.3367 -0.1287  0.0096
    1W        W36743  16.682  10.753   2.306 -0.0887  0.0363  0.0789
    1W        W36744  19.937  26.192   0.900  0.0264  0.2641  0.0711
    1W        W36745  24.370  14.887   1.907  0.0659  0.5629  0.0185
    1W        W36746  22.506  14.387   2.262 -0.0324 -0.1505  0.0212
    1W        W36747  13.590   1.918   0.230  0.0464  0.1098  0.0731
    1W        W36748  16.417   7.044   8.673 -0.3214  0.2097  0.1272
    1W        W36749  22.001  14.792   8.400 -0.0978 -0.2020 -0.1456
    1W        W36750   3.001  14.162   9.494  0.0441 -0.1833  0.2096
    1W        W36751  20.399   4.150   7.772 -0.5147 -0.2181 -0.0917
    1W        W36752   7.468  26.367   0.795 -0.1875 -0.0893 -0.0411
    1W        W36753   6.430  24.236   9.875  0.0897  0.1722  0.2142
    1W        W36754  22.155   5.066   9.325  0.2363  0.2896 -0.3022
    1W        W36755   3.272  15.587   9.228 -0.3033 -0.0901 -0.0471
    1W        W36756  16.375  17.053   1.299 -0.0800 -0.1934 -0.0430
    1W        W36757  11.428  24.253   7.483 -0.2338  0.1160 -0.0490
    1W        W36758  13.097  22.955   0.649  0.4015  0.4066  0.1187
    1W        W36759   4.473   4.155   8.909  0.2865  0.0296 -0.1052
    1W        W36760  12.407   3.958   3.823 -0.1344  0.0155 -0.3219
    1W        W36761   1.560  17.761   9.472 -0.2222  0.2089 -0.0709
    1W        W36762  17.123  27.472   2.808 -0.2270 -0.2748 -0.1175
    1W        W36763  22.757  25.301   2.857 -0.3121 -0.1468 -0.4276
    1W        W36764   9.485   7.427   2.445 -0.0403 -0.1084  0.2247
    1W        W36765  16.346  25.855   8.002  0.1387  0.0115 -0.0988
    1W        W36766  24.177   8.559   8.565 -0.0848 -0.2842 -0.1846
    1W        W36767  12.016   0.533   2.827 -0.4740  0.2748  0.0790
    1W        W36768  27.648  16.073   9.318  0.0275 -0.3917  0.2744
    1W        W36769  25.317  27.961   2.223  0.4406 -0.0657 -0.1119
    1W        W36770   1.820  16.341   9.311 -0.0583 -0.0746  0.0301
    1W        W36771  18.353  27.026   9.368  0.0285 -0.1751 -0.0465
    1W        W36772  24.287  18.593   2.432 -0.1467  0.2270  0.2975
    1W        W36773  11.170  16.398   8.845 -0.1069  0.2114 -0.1694
    1W        W36774  27.872  12.563   8.596 -0.0001  0.2242  0.0983
    1W        W36775   7.457  21.699   0.734 -0.1452  0.2422  0.0125
    1W        W36776   8.932  15.731   0.783  0.1047 -0.0505  0.1185
    1W        W36777  26.517  14.520   2.798 -0.1132  0.0587 -0.1630
    1W        W36778  20.204  21.098   8.611 -0.2004  0.1160 -0.3069
    1W        W36779   5.672  21.467   2.875 -0.0666  0.0207  0.4395
    1W        W36780  21.400  10.099   0.430  0.0429  0.0476 -0.2325
    1W        W36781  17.452   9.783   2.016 -0.2022 -0.0201  0.0534
    1W        W36782  20.086   1.221   2.690  0.1190 -0.1711  0.0295
    1W        W36783   7.896   8.724   1.314 -0.0612 -0.1160 -0.1051
    1W        W36784  11.478  14.188   7.856 -0.1505  0.0213 -0.1409
    1W        W36785   0.079   1.326   8.239  0.0314 -0.0323 -0.1201
    1W        W36786   0.300  26.361   0.184  0.0570  0.1066  0.0822
    1W        W36787   6.109  18.631   3.875  0.1109  0.3244  0.1816
    1W        W36788  17.835  15.426   7.285 -0.0313 -0.3105 -0.0735
    1W        W36789   7.383   5.412   7.453 -0.2028  0.0007 -0.0359
    1W        W36790   5.258   6.266   7.842 -0.1529 -0.1251 -0.2187
    1W        W36791  22.628  18.503   9.743  0.3326  0.1282 -0.0842
    1W        W36792  14.910  10.469   8.344 -0.3329 -0.1000  0.1256
    1W        W36793   2.372  19.501   1.403  0.0319  0.1834  0.0249
    1W        W36794   1.210   4.600   0.304  0.1750 -0.0033 -0.3512
    1W        W36795   0.126  11.130   7.484  0.0068  0.2955  0.2942
    1W        W36796  24.670  18.019   3.981 -0.0149 -0.0664 -0.1681
    1W        W36797  13.029  15.270   1.324  0.2957 -0.0202  0.1159
    1W        W36798  14.454   7.850  10.105  0.4580 -0.1829  0.1994
    1W        W36799  23.748   1.518   9.404  0.3007  0.0604  0.0287
    1W        W36800  10.628  26.285   2.000 -0.0511  0.0430  0.0368
    1W        W36801  12.261  11.808   1.687  0.0297  0.0759 -0.0932
    1W        W36802   1.212  14.885   8.108  0.1058  0.0888 -0.0709
    1W        W36803  10.804  27.291   7.866 -0.1293  0.3287  0.2558
    1W        W36804  16.459  12.951   2.832  0.0165 -0.1752  0.0008
    1W        W36805  14.742  22.368   2.378 -0.0297 -0.0023 -0.1126
    1W        W36806  21.122  16.496   2.735 -0.1713 -0.1057 -0.3586
    1W        W36807  19.051   5.794   1.692  0.4218 -0.1000 -0.3479
    1W        W36808  26.658   1.444   9.855  0.1093  0.0588 -0.0737
    1W        W36809  13.835  21.982   8.111  0.0645  0.1267 -0.2987
    1W        W36810   0.502  22.241   0.431  0.1004 -0.0238  0.1516
    1W        W36811  24.687   1.758   7.957  0.0217  0.1016 -0.1342
    1W        W36812   7.287  19.698   3.790 -0.5039  0.1366 -0.0029
    1W        W36813  19.553   5.920   2.512 -0.3522  0.2255 -0.2794
    1W        W36814   7.730  17.390   9.578 -0.0351 -0.2094  0.0849
    1W        W36815  15.164   7.214   0.292 -0.1821 -0.0820  0.2483
    1W        W36816   8.240  11.057   7.399 -0.2360 -0.3254  0.0415
    1W        W36817  27.009  14.941   8.659  0.1668  0.2927  0.1377
    1W        W36818  18.828  23.512   8.035  0.1113 -0.0556 -0.1661
    1W        W36819  24.948  17.016   9.910 -0.1351 -0.3738 -0.4633
    1W        W36820   6.403  15.215   1.364  0.2747  0.2316 -0.1466
    1W        W36821   0.970   4.991   7.335  0.0292  0.0009 -0.1693
    1W        W36822  13.157  14.353   9.654 -0.2378 -0.0026 -0.0744
    1W        W36823  10.811  18.226   8.061  0.1009  0.2465  0.1186
    1W        W36824   9.699   5.430   1.702 -0.3289 -0.0112 -0.0432
    1W        W36825   0.451   8.290   0.728 -0.1673 -0.0970  0.2348
    1W        W36826   0.238  20.365   7.952  0.1931 -0.0842  0.1814
    1W        W36827  13.654   1.522   2.443  0.0401 -0.2750  0.0249
    1W        W36828  23.490  15.631   0.259 -0.2210 -0.4535 -0.0034
    1W        W36829  15.267  10.395   3.032 -0.3390  0.3506  0.2025
    1W        W36830  12.317  21.324   9.248 -0.2177  0.1044 -0.2351
    1W        W36831   7.788  21.966   1.223 -0.2109  0.1186  0.1587
    1W        W36832  11.634  12.468   9.016 -0.1662  0.1034  0.1478
    1W        W36833   6.847  21.820   7.642  0.1974  0.0557  0.0174
    1W        W36834  26.189  23.934   1.819 -0.2247  0.2761 -0.0666
    1W        W36835   2.452  11.684   7.311  0.0444  0.4726  0.3238
    1W        W36836  26.042   6.107   9.446 -0.0821 -0.2603  0.0950
    1W        W36837   8.707   8.383   0.165  0.3928 -0.2187  0.0608
    1W        W36838  17.782  19.876   2.762 -0.1807  0.0580  0.2518
    1W        W36839  22.144  16.710   0.936 -0.0327 -0.0280  0.1852
    1W        W36840  16.479   5.472   0.398  0.0566 -0.1989 -0.2265
    1W        W36841  21.191  24.136   2.772  0.0190 -0.2090 -0.2165
    1W        W36842  20.776  17.284  10.156 -0.1212 -0.2556 -0.1164
    1W        W36843  25.529  25.300   3.030  0.2129 -0.2243  0.2349
    1W        W36844  21.148  17.940   3.033 -0.0566 -0.0787 -0.0093
    1W        W36845  24.211   0.620   8.264  0.1225 -0.2293 -0.1510
    1W        W36846  24.476  20.314   8.757  0.2184 -0.1727  0.1727
    1W        W36847   7.145  18.360   8.813  0.2747  0.2776 -0.2759
    1W        W36848   8.027  14.404   2.248 -0.0319  0.1069 -0.3171
    1W        W36849  26.665  28.038   7.565  0.2498  0.1985 -0.2351
    1W        W36850  11.261  25.047  10.161 -0.3195  0.0648  0.0395
    1W        W36851  12.073  19.013   0.519  0.5910  0.2717  0.1457
    1W        W36852  20.250  26.050   7.376 -0.1528  0.0645  0.3257
    1W        W36853   5.343   4.470  10.266 -0.1287 -0.2030 -0.1756
    1W        W36854   1.572   7.767   1.644 -0.0636 -0.3942 -0.0563
    1W        W36855   7.380   2.940   7.119  0.1028  0.2103  0.0238
    1W        W36856  19.575  23.909   9.702  0.0743 -0.1527 -0.3140
    1W        W36857  27.550  20.040   8.436  0.2501 -0.1687 -0.1785
    1W        W36858  11.359  15.417   7.896  0.2303  0.2054 -0.2493
    1W        W36859  22.160  20.429   1.037 -0.0342  0.0045  0.3076
    1W        W36860  10.323   2.097   2.376  0.3166  0.2230 -0.1203
    1W        W36861  14.946  10.310   9.710 -0.0958 -0.2470 -0.1947
    1W        W36862  26.609  13.292   9.885  0.0007 -0.1777 -0.0080
    1W        W36863   9.738  18.973   2.937 -0.4440 -0.1353 -0.1531
    1W        W36864  23.635  10.023   9.716  0.1827 -0.1002  0.1130
    1W        W36865   1.904  17.017   7.669 -0.1040  0.1565 -0.1682
    1W        W36866   1.776  27.840   8.450  0.0309 -0.3675 -0.1673
    1W        W36867   3.318  16.855   2.901  0.3141 -0.2056  0.0405
    1W        W36868  13.033  23.965   1.842 -0.1383  0.0378 -0.2586
    1W        W36869   1.363  13.986   0.728 -0.2336 -0.0860 -0.1426
    1W        W36870  20.973  10.706   2.258  0.2190 -0.3328  0.4220
    1W        W36871  21.242  10.540   9.342  0.0231 -0.0209  0.0113
    1W        W36872   2.713   8.399   0.829  0.0889 -0.0146  0.0075
    1W        W36873  11.064   5.564  10.351 -0.3511  0.1209 -0.1065
    1W        W36874  20.284  17.430   9.862 -0.0553 -0.2575 -0.0509
    1W        W36875  24.324  15.633   9.359  0.2346  0.0639 -0.2048
    1W        W36876   3.888   3.685   7.788 -0.1934  0.2187  0.0955
    1W        W36877   1.650  18.883   0.071  0.4591 -0.3929 -0.0948
    1W        W36878  21.342  16.371  10.168  0.0034  0.0643 -0.1836
    1W        W36879  26.815  10.718   8.308  0.3546  0.0783 -0.0815
    1W        W36880   7.155   1.838   2.495  0.0094  0.0726 -0.2046
    1W        W36881   5.883  10.345   7.576  0.2235  0.1644 -0.0380
    1W        W36882  23.722   4.858   9.902 -0.0528  0.0050 -0.0590
    1W        W36883  25.685  14.969   1.820  0.0410  0.0652  0.1174
    1W        W36884  25.266  22.189   7.591 -0.0803 -0.0088  0.3857
    1W        W36885  25.791   1.098   7.154  0.1297  0.0353 -0.1388
    1W        W36886   0.588  13.374   6.805  0.1364 -0.0536  0.0596
    1W        W36887   3.124   3.540   9.879  0.1528  0.1722 -0.3508
    1W        W36888   8.122  24.909   1.912 -0.0548  0.2862 -0.1810
    1W        W36889  23.104  12.271   9.702 -0.0357  0.1534 -0.1131
    1W        W36890  11.753   4.877   8.469  0.2342  0.2084  0.0050
    1W        W36891   6.842  20.758   3.679  0.1498 -0.0675 -0.3695
    1W        W36892   8.796  17.887   2.108  0.0923 -0.1748  0.1124
    1W        W36893   6.317   2.650   0.866 -0.0265 -0.0826 -0.0865
    1W        W36894   9.012  11.772   1.896  0.1038  0.1023 -0.2053
    1W        W36895  12.740  24.097   2.270  0.0769 -0.1051  0.3353
    1W        W36896   7.550  20.307   9.843 -0.0950  0.0583  0.1082
    1W        W36897  10.309   0.123   2.378  0.0502  0.1532  0.0660
    1W        W36898  27.703   7.119   1.619 -0.0227  0.0140  0.0009
    1W        W36899  16.617   9.519   8.977  0.3243  0.1441  0.2993
    1W        W36900   4.831  17.710   3.718  0.0064 -0.2374 -0.0922
    1W        W36901   9.022   2.807   8.318 -0.1571  0.2100 -0.3578
    1W        W36902  10.856  27.427   9.162 -0.0048  0.1901 -0.1575
    1W        W36903  12.311  13.031   9.519 -0.3059 -0.3136  0.2296
    1W        W36904   3.038  26.655   9.547  0.1077 -0.1622  0.0383
    1W        W36905  13.990   2.344   7.775  0.0296  0.1569  0.2160
    1W        W36906  19.532  15.909   2.197  0.2515 -0.0321 -0.1269
    1W        W36907  26.145  21.778   8.617  0.0104  0.1354  0.0208
    1W        W36908   2.730  26.136   9.176  0.2712  0.1821 -0.0246
    1W        W36909   8.728  18.452  10.235  0.1077 -0.4211  0.3890
    1W        W36910  25.355  26.968   9.187  0.0085  0.2795  0.0844
    1W        W36911   8.968  17.165   1.556  0.0382  0.1720  0.3277
    1W        W36912   1.521  10.049   3.259  0.2632 -0.4072 -0.3389
    1W        W36913   1.788  11.478   1.458  0.1844  0.2041 -0.3764
    1W        W36914  26.081  17.133   2.288  0.0482 -0.2704  0.1314
    1W        W36915  20.276  17.795   2.937  0.0943 -0.0203  0.2948
    1W        W36916  24.235   2.334   8.137  0.1061 -0.0756  0.1084
    1W        W36917   3.073   0.956   9.233 -0.0107 -0.1578 -0.1756
    1W        W36918   0.937   0.027   7.413 -0.0845 -0.0915 -0.0025
    1W        W36919   3.839  12.795   3.015  0.1481  0.1921  0.0512
    1W        W36920  18.252  21.188  10.079  0.1484 -0.2381 -0.1720
    1W        W36921  15.669   6.210   7.814 -0.2441 -0.1210  0.0200
    1W        W36922  19.111  21.961   7.799  0.0645 -0.3360  0.2566
    1W        W36923   0.374   0.753   7.611 -0.1589 -0.1436 -0.2644
    1W        W36924   5.437  19.503   8.120  0.0593 -0.0577 -0.0159
    1W        W36925  26.039   1.651   1.714  0.1873 -0.0239  0.0247
    1W        W36926  19.407   3.717   0.984  0.1811 -0.0212 -0.0112
    1W        W36927   3.071   3.980   7.489 -0.1179 -0.0330  0.0264
    1W        W36928   0.121  21.747  10.112 -0.1557  0.0669 -0.2602
    1W        W36929  26.483  10.774   3.109  0.0077  0.0057 -0.0620
    1W        W36930   6.422  16.827   1.027 -0.1415  0.2498 -0.0193
    1W        W36931   8.707  14.015   7.794  0.0758  0.3554 -0.1833
    1W        W36932  20.381  17.752   2.482 -0.4296  0.2605  0.4374
    1W        W36933   8.965  11.298  10.117 -0.1066 -0.1127  0.1795
    1W        W36934   4.885  18.175  10.103  0.1567  0.1011  0.2127
    1W        W36935   3.312  25.004   0.741 -0.0644 -0.1431 -0.2395
    1W        W36936  19.793  16.020   1.635  0.1799 -0.0704  0.0454
    1W        W36937  17.475  10.059   7.996 -0.0027 -0.1653  0.1849
    1W        W36938  14.301  20.988   9.513  0.1263 -0.3475  0.4530
    1W        W36939   7.205  12.683   0.853 -0.3732 -0.0046 -0.2798
    1W        W36940  14.793   1.331   0.798  0.0815 -0.1207 -0.0540
    1W        W36941   6.594   0.902   0.007  0.1511 -0.1820  0.0882
    1W        W36942   2.707  19.791   1.565 -0.4182  0.2213 -0.2810
    1W        W36943   5.726  17.682   7.741  0.0445  0.1536 -0.3379
    1W        W36944  11.584  18.509   1.447 -0.1448  0.2226 -0.0962
    1W        W36945   3.143  19.684   1.783 -0.2844 -0.2153  0.1318
    1W        W36946   6.050  21.962   9.819 -0.1545  0.3232  0.0419
    1W        W36947   2.960   9.998   9.150 -0.0380 -0.3595 -0.1865
    1W        W36948  10.316  20.807   8.271 -0.2158  0.1313 -0.2313
    1W        W36949  13.760   0.844   3.085 -0.1058 -0.3993  0.1465
    1W        W36950  24.424  19.822   8.609 -0.2720  0.2633  0.0877
    1W        W36951  22.665  14.290   7.910  0.0652 -0.2568  0.2351
    1W        W36952  26.520   9.324   0.772 -0.0691  0.1653 -0.0589
    1W        W36953   8.693  17.489   9.640  0.2155  0.1804  0.0965
    1W        W36954  24.568   2.460   9.989  0.0106 -0.1381  0.2451
    1W        W36955   3.815  14.081   2.774 -0.0425 -0.2579  0.3202
    1W        W36956  21.669   6.088   8.677 -0.2090 -0.0507  0.0854
    1W        W36957   2.299   4.710   1.295  0.0359 -0.0486 -0.4343
    1W        W36958  27.645   4.777   1.952 -0.3865 -0.2540  0.1735
    1W        W36959  10.453   9.774   0.256 -0.0003 -0.1605  0.1525
    1W        W36960   2.665  20.245   1.244 -0.0524 -0.2966 -0.2096
    1W        W36961  19.746  19.487   9.615 -0.0233  0.0119 -0.1720
    1W        W36962  20.724   3.306   1.230 -0.0475  0.0905 -0.0225
    1W        W36963  16.226   9.067   0.308 -0.3188 -0.2555 -0.4345
    1W        W36964   7.837   2.843   7.368 -0.2837  0.2038  0.0002
    1W        W36965   6.946   6.663   1.118  0.1867  0.0260  0.3764
    1W        W36966   3.258   7.211   6.495 -0.0485 -0.1198  0.3833
    1W        W36967  17.955   6.708   8.904  0.0684  0.2226 -0.1810
    1W        W36968   1.236  21.225   1.547 -0.1956 -0.1429 -0.1382
    1W        W36969  13.714  11.689   7.871  0.0956  0.1267  0.3656
    1W        W36970  13.454   2.942   4.088  0.3612  0.2928  0.2467
    1W        W36971   9.452  10.715   7.738  0.1258  0.2936 -0.0121
    1W        W36972  17.225  10.370   6.948 -0.1314  0.0198  0.2362
    1W        W36973  23.761  23.812   0.923  0.2597  0.0841  0.0384
    1W        W36974   6.653  11.530   2.149  0.3838  0.3259 -0.0448
    1W        W36975   2.561  14.692   2.979  0.1322  0.0732 -0.3451
    1W        W36976  14.394  20.866   2.517  0.2253 -0.3616 -0.1444
    1W        W36977   1.142  12.159   1.980  0.0136  0.1804 -0.0818
    1W        W36978  20.299  11.201   8.263 -0.1866  0.1795 -0.0528
    1W        W36979  12.771   4.578   1.228  0.1068  0.1025 -0.1767
    1W        W36980  14.871   5.999   9.444  0.2127  0.0321 -0.1212
    1W        W36981   0.145  11.268  10.313  0.1922  0.0579  0.0187
    1W        W36982   7.947   2.589   8.221 -0.4167  0.0200 -0.1851
    1W        W36983  12.880  18.888   7.083  0.1841  0.0320  0.1075
    1W        W36984  13.850  11.465   9.593 -0.0509 -0.1603  0.0043
    1W        W36985  19.772  16.340   8.691 -0.0237 -0.1666 -0.2382
    1W        W36986   3.663  18.353   1.035 -0.1915 -0.2337 -0.0300
    1W        W36987  16.345  24.685   0.089  0.2089 -0.0330  0.1105
    1W        W36988  27.602   0.091   8.583  0.1085 -0.1291  0.0601
    1W        W36989   2.765  14.844   8.840  0.1027 -0.0347 -0.0475
    1W        W36990  24.590  23.474   8.229 -0.2772  0.1731 -0.1213
    1W        W36991  17.647   8.523  10.082  0.1538  0.1681 -0.3514
    1W        W36992   9.071  27.075   0.404  0.0582 -0.0942  0.0857
    1W        W36993  15.868  13.749   1.733  0.0800 -0.0835  0.1743
    1W        W36994   6.486   5.306   1.555 -0.0197 -0.1010 -0.2231
    1W        W36995   4.084  25.368   9.773  0.0392  0.0241  0.2393
    1W        W36996  10.647  14.762   7.888  0.1002  0.3172  0.3988
    1W        W36997  27.828  25.154   1.776  0.0860  0.2851  0.0278
    1W        W36998  18.109   0.292   3.013 -0.1756 -0.0972 -0.1031
    1W        W36999  24.279  19.287   1.280  0.0684 -0.2368  0.2931
    1W        W37000  24.781  25.259   1.851 -0.1155  0.2724  0.4168
    1W        W37001  18.247  16.749   2.507  0.1132 -0.1471 -0.1324
    1W        W37002  17.311  21.741   0.188 -0.1844  0.1376 -0.0614
    1W        W37003  26.310  15.569   9.047  0.0830 -0.0658  0.0113
    1W        W37004   5.042  12.069   9.149 -0.0508 -0.1107 -0.1896
    1W        W37005  18.287  20.209   8.879 -0.1033  0.0771 -0.0547
    1W        W37006   9.313   5.571   6.882 -0.1236 -0.0295  0.0593
    1W        W37007  19.203   2.740   2.408  0.0202  0.5114  0.0111
    1W        W37008   9.738  14.966   0.385  0.0458  0.2773  0.0429
    1W        W37009  22.801   8.532   7.812  0.2731  0.0109 -0.2346
    1W        W37010  26.763  22.539   1.250 -0.4006 -0.2822 -0.0520
    1W        W37011  27.882   1.432   6.456 -0.2000 -0.1329 -0.0482
    1W        W37012   1.723  11.436   9.314  0.0706 -0.1634  0.1157
    1W        W37013  17.290   3.635  10.236 -0.0457  0.0724  0.1169
    1W        W37014  21.711   4.134   1.241 -0.1208  0.4378  0.0558
    1W        W37015   2.351  24.512   7.090 -0.2512 -0.1709 -0.0408
    1W        W37016  12.733  27.039   9.170  0.0630 -0.1052 -0.2115
    1W        W37017   6.004  11.212   9.651 -0.1302  0.0291 -0.0667
    1W        W37018  16.520  16.033   2.797 -0.1235 -0.1520  0.1472
    1W        W37019  24.415  20.632   1.812 -0.1731  0.2676 -0.0576
    1W        W37020  16.568  12.317   7.317 -0.3581  0.1617  0.1422
    1W        W37021  12.941  17.222   8.134 -0.1287 -0.0549  0.4712
    1W        W37022  17.859   9.542   1.904 -0.0483  0.0381  0.0208
    1W        W37023  18.534  18.320   7.690  0.1368  0.1264 -0.5942
    1W        W37024   1.459   2.487   0.263 -0.2109  0.0531  0.2208
    1W        W37025  20.771  23.937   2.982  0.2566  0.0330 -0.3231
    1W        W37026  12.098  11.097   3.137 -0.0326  0.1231  0.0627
    1W        W37027  14.876  11.558   0.975 -0.2096 -0.0370  0.1746
    1W        W37028  12.257  10.880   2.662  0.2864 -0.3137  0.2069
    1W        W37029  24.427   2.985   9.001 -0.3589  0.0333 -0.0100
    1W        W37030  22.176   3.096   2.959 -0.2399  0.2700  0.0128
    1W        W37031  12.780  13.250   3.287 -0.0625 -0.1682 -0.3763
    1W        W37032  21.955   7.069   2.958 -0.1930 -0.0157  0.0519
    1W        W37033  27.457   0.243   7.971  0.0168 -0.0693  0.0614
    1W        W37034  15.954  25.861   6.712  0.1539 -0.1276 -0.3864
    1W        W37035  14.474   8.863   3.356 -0.1005 -0.0573  0.3560
    1W        W37036   5.551   7.518   1.538 -0.2765  0.1347  0.1008
    1W        W37037  14.795  24.412   8.473  0.4177  0.1305 -0.2739
    1W        W37038  23.051  11.293   8.914  0.0284 -0.0828 -0.0188
    1W        W37039  19.500  13.217   0.373  0.2010 -0.0162  0.0386
    1W        W37040  12.316  11.447   9.266  0.0463 -0.1347  0.2441
    1W        W37041   8.022  16.401   8.620 -0.2393 -0.0395  0.1874
    1W        W37042   4.854  22.645   1.178 -0.0915  0.0339  0.2599
    1W        W37043  24.415  19.435   8.014 -0.0037 -0.0648  0.2366
    1W        W37044   1.970  15.480   0.917 -0.2933 -0.2263  0.3288
    1W        W37045  12.258  26.005   7.573  0.1283 -0.0141 -0.2838
    1W        W37046   9.003   7.112   9.549 -0.0117 -0.0206  0.2541
    1W        W37047   3.318  11.989   0.249  0.1857 -0.1592 -0.4570
    1W        W37048  11.722   6.473   3.711 -0.0376  0.3027 -0.3629
    1W        W37049   8.598  17.436   2.075  0.1202 -0.1756  0.0708
    1W        W37050  24.758   8.179   9.271  0.2129 -0.1912 -0.0881
    1W        W37051  21.535   0.504   7.992  0.1932 -0.0467 -0.0742
    1W        W37052   5.754   3.901   7.383 -0.0822 -0.0561  0.0332
    1W        W37053  25.017   5.525   7.990 -0.3228  0.4665 -0.0312
    1W        W37054   3.861   8.690   0.027 -0.2028 -0.1299  0.0909
    1W        W37055  16.353  13.612   9.966 -0.2017 -0.0268  0.0394
    1W        W37056  18.711   6.211   8.507 -0.3152 -0.0160 -0.3647
    1W        W37057   3.110   9.366   0.819 -0.2444  0.0999  0.1787
    1W        W37058  14.382  13.734   8.387  0.0259  0.0392 -0.1327
    1W        W37059  20.426  24.934   1.247 -0.0377  0.1993  0.4301
    1W        W37060  21.750  20.650   2.873 -0.1904 -0.0808 -0.1604
    1W        W37061  18.772   6.848   0.950  0.2111  0.0428  0.1172
    1W        W37062  12.034  13.039   2.653 -0.0941  0.0606  0.1706
    1W        W37063   5.995   2.324   0.670 -0.0870  0.1285  0.3201
    1W        W37064  15.370   2.227   1.633  0.1308 -0.2438  0.0513
    1W        W37065   0.712  23.485   1.376  0.1645 -0.0825 -0.2039
    1W        W37066   1.024  23.070   9.376  0.1412  0.0444  0.1003
    1W        W37067  17.744   9.526   1.439  0.1553  0.1221 -0.2737
    1W        W37068   0.171   5.861   0.854  0.2741 -0.1647  0.2104
    1W        W37069  26.928   3.054   2.433 -0.0228  0.1296  0.0688
    1W        W37070  16.579   3.797   7.548  0.0680 -0.3297  0.0947
    1W        W37071  25.544  12.499   0.940 -0.2462 -0.1711  0.1693
    1W        W37072  22.433  12.021  10.302  0.1796  0.0724  0.1707
    1W        W37073  12.172   1.361   1.398 -0.0504  0.0745 -0.0144
    1W        W37074   5.531   2.637  10.163  0.1306 -0.0649 -0.0151
    1W        W37075  25.532   9.082   7.567 -0.0890 -0.1273 -0.0355
    1W        W37076  14.625   6.340   1.351  0.2447 -0.2434 -0.2570
    1W        W37077   4.717   5.585  10.149 -0.0793  0.0138 -0.1114
    1W        W37078  19.680   0.798   1.189  0.0181  0.2124  0.1670
    1W        W37079  21.446  11.550   6.859  0.0694 -0.2197  0.3551
    1W        W37080  23.005  17.337   0.925 -0.0551 -0.2481  0.2768
    1W        W37081   3.598   9.246   6.289  0.2447  0.0407 -0.1165
    1W        W37082  19.722  25.857   8.670 -0.3084  0.1135  0.2811
    1W        W37083  23.519   6.371   9.944 -0.3217  0.2420 -0.2057
    1W        W37084  23.111  27.398   3.108  0.1813  0.0200 -0.3864
    1W        W37085  12.922  17.078   6.615 -0.0170  0.3365 -0.0324
    1W        W37086  22.434   9.925   0.631  0.2115 -0.1057  0.1369
    1W        W37087   6.826  25.616   1.859  0.1785 -0.1951  0.0576
    1W        W37088   6.846   4.417   1.142  0.3899 -0.1324  0.1351
    1W        W37089  19.231  24.212   2.536  0.0011 -0.1761  0.0803
    1W        W37090   3.725  21.741   0.694  0.2719  0.2860  0.0699
    1W        W37091  22.190  10.306   8.064  0.2176 -0.2140 -0.4325
    1W        W37092  16.580   0.570   0.992  0.1074 -0.1701  0.2873
    1W        W37093  13.004  10.165   0.287  0.3190  0.2509  0.1251
    1W        W37094  13.811   8.617   1.970  0.0884 -0.2140  0.1313
    1W        W37095  19.792   0.973   9.729  0.2027 -0.0301 -0.1727
    1W        W37096  17.688  16.615   9.154  0.2453  0.0125  0.0763
    1W        W37097  25.905  10.437   9.844  0.0677 -0.2444  0.1385
    1W        W37098   8.854  17.015   9.579  0.0750 -0.1093  0.2875
    1W        W37099   5.505  20.486   2.858 -0.0706 -0.2183 -0.2020
    1W        W37100  12.203  15.582   8.233 -0.0429  0.3706 -0.0997
    1W        W37101   3.564  18.973   3.038  0.0554  0.3612  0.2172
    1W        W37102  25.815  20.976   7.095  0.0623  0.3571 -0.0404
    1W        W37103  12.494  13.268   1.440 -0.2266  0.1209 -0.2720
    1W        W37104  15.196  20.523   2.524 -0.1173  0.1158  0.0548
    1W        W37105  25.834   9.036   8.553  0.0242  0.0107 -0.1657
    1W        W37106  22.879  27.415   0.441 -0.1367 -0.0509  0.1004
    1W        W37107   1.206   6.115   9.595  0.2953  0.1180 -0.0030
    1W        W37108  16.173  11.378   1.513 -0.3149 -0.1906  0.0987
    1W        W37109  24.015  16.438   7.167 -0.1375 -0.1928 -0.1560
    1W        W37110  21.885   7.224   6.460  0.1853  0.0853 -0.0570
    1W        W37111   0.601  11.548   0.184 -0.2327  0.3137 -0.4044
    1W        W37112  27.764   0.664   9.986 -0.1192 -0.1246  0.0307
    1W        W37113  18.898   3.428   7.073 -0.0383 -0.2000 -0.3656
    1W        W37114  21.290   9.492   9.617  0.3479  0.2438  0.1199
    1W        W37115  22.384   6.464   9.117 -0.3095 -0.0479  0.0335
    1W        W37116  22.535   0.229   2.788  0.1314 -0.3154 -0.2836
    1W        W37117   8.611  11.530   9.069  0.0717 -0.0563  0.0145
    1W        W37118  23.564  18.677   0.892  0.0638 -0.4664 -0.2135
    1W        W37119  25.373  17.167   1.693 -0.4131  0.0704 -0.2007
    1W        W37120  21.527   8.093  10.140  0.0908  0.0666  0.1175
    1W        W37121  20.656   8.916   2.157 -0.2759  0.3560 -0.3057
    1W        W37122  22.195  23.775   3.069  0.0825  0.4265  0.0176
    1W        W37123  17.461  11.625   3.643  0.0795 -0.0680 -0.0025
    1W        W37124  19.433   2.378   8.418  0.0896 -0.2897 -0.0729
    1W        W37125  15.543  13.528   2.963  0.1118 -0.2030 -0.2405
    1W        W37126  19.665   3.634   0.212 -0.1235 -0.1613  0.1391
    1W        W37127   0.189   0.330   2.582  0.1831 -0.0414 -0.0560
    1W        W37128  14.760  24.095   2.005 -0.1215 -0.1491  0.3087
    1W        W37129  20.902   5.918   1.937  0.0132  0.1584 -0.0007
    1W        W37130   6.848  13.855   1.565 -0.4905 -0.3377  0.2173
    1W        W37131  23.199   2.445   9.234 -0.2706  0.0755 -0.2687
    1W        W37132   4.865   8.705   9.142  0.2896  0.0682  0.1895
    1W        W37133   5.539  24.085   7.035 -0.1175 -0.0394  0.2919
    1W        W37134  20.946  23.096   9.976  0.0423 -0.2773  0.1087
    1W        W37135  16.367   6.703   8.219 -0.3866  0.1979 -0.0731
    1W        W37136   8.082  26.720   8.873  0.3539 -0.2060 -0.0517
    1W        W37137   6.987  19.292   0.255  0.1651 -0.1469  0.3292
    1W        W37138   6.871  15.503   9.373  0.0971  0.1873 -0.0585
    1W        W37139   0.254  19.071   6.739 -0.0978 -0.3846 -0.2496
    1W        W37140   5.095  26.469   8.324  0.0677  0.0438 -0.4153
    1W        W37141   2.028  21.673   0.549  0.1147  0.0937 -0.0762
    1W        W37142  27.999  19.382   0.130  0.0444 -0.4286  0.2257
    1W        W37143  17.152   8.645   8.124 -0.0950 -0.1430 -0.0339
    1W        W37144  21.768  19.059   7.816 -0.0762 -0.0261 -0.0355
    1W        W37145  23.497   1.898   7.778  0.0207 -0.0691  0.0643
    1W        W37146  15.483   1.003   1.945  0.0490  0.1603 -0.3561
    1W        W37147  24.506  25.993  10.140  0.5083  0.0159  0.0628
    1W        W37148  16.823  13.216   3.177  0.0428  0.0360  0.0109
    1W        W37149  10.238  14.087   0.724  0.0677 -0.0836 -0.2630
    1W        W37150  19.198  22.612   8.295 -0.2173 -0.0481 -0.2377
    1W        W37151  26.168   0.756   7.377 -0.2108  0.2267 -0.0655
    1W        W37152   8.674  24.449   3.389  0.1182  0.0572 -0.0930
    1W        W37153   2.972  24.398   8.039 -0.1986  0.0863  0.0945
    1W        W37154  13.998  25.514   9.453  0.0175  0.3367  0.1202
    1W        W37155  23.784   6.166   1.567  0.0443 -0.2925  0.0283
    1W        W37156  27.077  24.248   7.871 -0.3702  0.2146  0.1083
    1W        W37157   8.547  13.516   3.174 -0.2776  0.1375 -0.2325
    1W        W37158   7.746  14.393   3.070 -0.0122  0.2135  0.0885
    1W        W37159   0.678  20.253   2.951  0.0931  0.0665 -0.0205
    1W        W37160  21.363  21.250   7.674 -0.0924 -0.1176  0.0699
    1W        W37161  15.111   3.070   1.707  0.0040 -0.0965 -0.0786
    1W        W37162  18.106  10.004   1.870 -0.0165  0.0377 -0.2709
    1W        W37163   1.418  27.583   0.329  0.2860  0.0963  0.2196
    1W        W37164  21.127  14.617   9.506  0.0100 -0.0151 -0.1099
    1W        W37165   4.698   1.528   6.881  0.0198 -0.0209  0.2016
    1W        W37166  13.340  12.640   2.508 -0.1781 -0.0294 -0.1638
    1W        W37167  24.597   3.144   2.029  0.0390 -0.1088 -0.0417
    1W        W37168   7.949   8.239   2.123  0.0147  0.0485  0.0250
    1W        W37169  27.794   0.182   2.862 -0.0529 -0.1171  0.2456
    1W        W37170  23.653  21.529  10.125  0.0859  0.0229  0.3266
    1W        W37171  25.331  10.662   1.514  0.0916  0.2317  0.0168
    1W        W37172   0.704  17.469   7.916 -0.1740 -0.2238  0.0234
    1W        W37173   1.387   1.696   7.228  0.0698  0.1872  0.0604
    1W        W37174  26.589  17.382   7.141  0.1221  0.0349 -0.3120
    1W        W37175   4.474   3.224   7.842  0.2279  0.0761 -0.1318
    1W        W37176  26.267   4.441   9.391 -0.1394  0.1682  0.1369
    1W        W37177   5.378  17.806   2.964  0.2666  0.1987  0.1995
    1W        W37178  26.308  10.549   0.546 -0.1398 -0.0900 -0.0168
    1W        W37179   5.261  21.703   2.631 -0.0280  0.0711  0.0010
    1W        W37180  19.348   4.954   2.777  0.0225  0.1311 -0.0556
    1W        W37181   1.889  13.900   2.007  0.1639 -0.2944 -0.3127
    1W        W37182   8.883  10.109   2.852  0.2110 -0.1127  0.0579
    1W        W37183  21.846  21.014  10.151 -0.1578 -0.1384  0.1741
    1W        W37184  11.145   9.056   0.839 -0.0855 -0.1628  0.2012
    1W        W37185  22.637  13.476   7.500  0.0856 -0.1934  0.3745
    1W        W37186  10.631   8.440   2.181 -0.2237 -0.2237 -0.0963
    1W        W37187  25.657   1.307   2.220  0.0041 -0.1149  0.1243
    1W        W37188   6.328  24.940   8.098 -0.2479 -0.2007 -0.2383
    1W        W37189  25.488   9.560   9.615 -0.0076  0.1384  0.0323
    1W        W37190   5.775  26.213  10.122 -0.1331 -0.0936 -0.0756
    1W        W37191  21.104  21.858   1.717  0.1651 -0.2171 -0.0343
    1W        W37192   7.557  10.465   1.734  0.0016  0.0091  0.1290
    1W        W37193   2.375   9.667   2.641  0.0193  0.0525  0.0293
    1W        W37194  16.886   7.925   0.551  0.2304  0.0474 -0.1200
    1W        W37195   9.361  13.050   1.115  0.0665 -0.2819  0.1894
    1W        W37196  24.888   6.787   2.324  0.0386  0.0901 -0.1940
    1W        W37197  13.194  21.978   0.743  0.5787 -0.0235 -0.0062
    1W        W37198  12.123  21.367   3.304 -0.0186 -0.1852 -0.1085
    1W        W37199  19.219  17.448   8.722 -0.1130 -0.1806  0.0983
    1W        W37200   5.122  19.043   1.653  0.0481 -0.2812 -0.0146
    1W        W37201  10.196   4.160   0.709 -0.1016  0.0787 -0.0604
    1W        W37202  15.281  14.706   8.296  0.0478  0.0258 -0.0964
    1W        W37203   7.871  14.278  10.034 -0.2130 -0.1357  0.2644
    1W        W37204  19.878   5.571   0.409 -0.1045  0.1338 -0.0480
    1W        W37205  10.461  24.959   7.316 -0.0876  0.0490  0.0455
    1W        W37206  26.475   3.815   1.446  0.1798  0.0508  0.1150
    1W        W37207  14.657  23.514   1.133 -0.2523  0.1125  0.1289
    1W        W37208   0.320  21.085   2.095 -0.0699 -0.0407 -0.3746
    1W        W37209   6.198  26.584   7.781  0.1034 -0.0061 -0.0851
    1W        W37210  17.080  14.930   9.497 -0.2803 -0.4769  0.2188
    1W        W37211  22.333  23.666   6.980 -0.1285 -0.0356  0.1357
    1W        W37212  24.858   3.803   7.077 -0.4119 -0.0842 -0.1700
    1W        W37213   9.219  26.031   0.104  0.1734  0.1633 -0.1028
    1W        W37214  16.265   0.178  10.054  0.3709 -0.1250 -0.0108
    1W        W37215  18.132   9.593   9.984  0.2277  0.2050  0.3042
    1W        W37216  10.339   0.760   9.778 -0.1105  0.1770 -0.1370
    1W        W37217  21.744  21.318   6.946 -0.0101 -0.1580 -0.1665
    1W        W37218  10.242  13.172   0.486  0.0692  0.3976  0.0759
    1W        W37219   2.367   5.164   9.214 -0.0258 -0.3144  0.1783
    1W        W37220  20.187  10.164   2.619 -0.3811 -0.1418 -0.2776
    1W        W37221   3.706  18.858   9.814 -0.2895  0.3421 -0.0735
    1W        W37222   7.834   7.442   8.041  0.1218  0.1810 -0.0609
    1W        W37223  23.170  21.398   0.094 -0.1483 -0.2851  0.3959
    1W        W37224  13.113  16.155   1.661 -0.2852  0.0518 -0.1239
    1W        W37225  18.153   0.012   2.164 -0.1922  0.0148  0.3115
    1W        W37226   9.926  27.143   9.580  0.0776  0.1843  0.0352
    1W        W37227  21.792  24.670   9.982  0.0798 -0.2136 -0.3337
    1W        W37228   4.973   1.781   1.690  0.1129 -0.1053  0.0058
    1W        W37229  10.453  15.463   8.161  0.0189  0.0250  0.3346
    1W        W37230  26.876   8.482   9.651 -0.2057  0.1604 -0.0612
    1W        W37231  27.687  24.977   7.214  0.0110 -0.2688 -0.0167
    1W        W37232  16.497  16.417   9.867 -0.0202 -0.3361 -0.0722
    1W        W37233  21.282   1.919   1.613  0.0142  0.0296  0.1154
    1W        W37234  25.022  16.877   0.237  0.1102  0.2430 -0.0364
    1W        W37235   3.408  14.342   7.917  0.2667 -0.0116  0.1002
    1W        W37236  12.674   8.113   2.483  0.2855 -0.5337  0.0687
    1W        W37237  14.303  17.039   1.714 -0.1326 -0.0420  0.0235
    1W        W37238  14.176  16.339   0.980  0.0254  0.0204 -0.1874
    1W        W37239  10.138  12.314   9.150 -0.2848  0.0657  0.1047
    1W        W37240   8.901  18.056   1.656  0.2306  0.1509  0.0774
    1W        W37241  10.701  21.256   3.042  0.1017 -0.2695  0.1144
    1W        W37242   0.357  26.995   1.502 -0.1537  0.1119  0.2342
    1W        W37243   2.759  20.292   8.531  0.0864  0.2475  0.1623
    1W        W37244  21.600  28.018   7.762  0.3594 -0.0768 -0.0817
    1W        W37245  25.040   3.832   2.292 -0.3049 -0.0678  0.0195
    1W        W37246  14.437  27.353   9.459  0.2168  0.1131  0.0779
    1W        W37247  13.931  15.082   0.208  0.3133 -0.1949 -0.1566
    1W        W37248  15.482  23.396   7.802  0.3456  0.1862 -0.0492
    1W        W37249  10.799  19.835   9.992 -0.1729 -0.1701  0.2196
    1W        W37250   8.756  16.014   1.577 -0.0204  0.1689 -0.1274
    1W        W37251  14.221  18.688   0.753 -0.0822  0.0617  0.2287
    1W        W37252   6.660   7.032   0.313 -0.2767 -0.2129 -0.0101
    1W        W37253   9.371  26.989   1.138 -0.2354 -0.1080 -0.0217
    1W        W37254  11.780  15.340   8.092 -0.0317 -0.2852  0.1438
    1W        W37255  24.203  26.443   3.078  0.3443  0.1428  0.0975
    1W        W37256  16.741  23.413   2.224  0.1477  0.0292  0.0010
    1W        W37257   1.870   9.494  10.029  0.0018 -0.0452 -0.2219
    1W        W37258   9.458  13.043   2.748  0.1918 -0.0718 -0.1145
    1W        W37259  19.026  11.794   9.078  0.0984  0.0316  0.1787
    1W        W37260   1.157  12.743   7.053  0.0761  0.2078 -0.0931
    1W        W37261  10.693   0.476   8.670 -0.2397  0.3260  0.2421
    1W        W37262  21.457  26.745   2.742 -0.3702 -0.0058 -0.1434
    1W        W37263  12.772  12.611   2.744  0.1363 -0.2745  0.0682
    1W        W37264   8.861   0.004   0.372 -0.2526  0.1104  0.4166
    1W        W37265  25.591  22.865   8.451  0.1315  0.1598 -0.1033
    1W        W37266   3.098   8.660   6.254  0.1599  0.1893  0.0060
    1W        W37267   6.988   2.628   8.347 -0.1706 -0.0617  0.1918
    1W        W37268  23.259  24.027   9.089  0.0598  0.2816  0.0481
    1W        W37269  20.700  11.408   0.751 -0.0579 -0.1030  0.2273
    1W        W37270  17.987   9.903   7.744 -0.2432  0.0815  0.0635
    1W        W37271   7.266  13.070   8.173  0.0015  0.0770 -0.2312
    1W        W37272  20.158  10.554   7.991  0.0799 -0.1307 -0.0111
    1W        W37273   4.509   6.022   6.989  0.0597 -0.4574 -0.3921
    1W        W37274   3.152  23.233   7.259 -0.3046 -0.0721 -0.3147
    1W        W37275   4.688   1.371   1.408 -0.4211  0.0164  0.0410
    1W        W37276  16.466   3.097   1.614  0.0233 -0.2658 -0.1466
    1W        W37277  18.318  10.780   2.936 -0.0455 -0.2172 -0.2327
    1W        W37278  11.869   9.640   7.907 -0.0614  0.0811  0.2735
    1W        W37279   0.206  23.776   9.839 -0.3352 -0.1569 -0.1932
    1W        W37280   0.295  21.194   7.726  0.1473  0.4322  0.1413
    1W        W37281  27.064  15.094   9.586  0.3368 -0.1539  0.0479
    1W        W37282  19.211  21.684   9.564  0.5799  0.0840 -0.0594
    1W        W37283  17.773   2.515   9.324 -0.4632 -0.0704  0.0024
    1W        W37284  26.006  15.491  10.176 -0.1601  0.0091  0.1621
    1W        W37285  27.142  20.585   0.567  0.1751 -0.1827  0.1758
    1W        W37286   8.591   7.529   7.458 -0.0078 -0.0537 -0.1966
    1W        W37287  10.975   9.179   8.945 -0.2879 -0.0446 -0.0529
    1W        W37288  17.228   7.855   1.247  0.0923  0.0893 -0.0461
    1W        W37289   5.738  18.177   7.657 -0.0141  0.0971  0.0725
    1W        W37290  25.147  23.195   1.298 -0.1913  0.0949 -0.0816
    1W        W37291   3.102  15.804   8.229 -0.1149 -0.1551  0.0795
    1W        W37292   4.721  14.846   8.259  0.1840 -0.2874 -0.1629
    1W        W37293   0.285   6.699   9.213 -0.2238  0.0694 -0.1780
    1W        W37294   5.116  20.171   2.700  0.0771 -0.0110 -0.1433
    1W        W37295  21.346   1.631   2.508 -0.0051 -0.1399 -0.1842
    1W        W37296  22.209   6.924   9.810  0.0303  0.1370 -0.2301
    1W        W37297  18.289   1.493   0.498 -0.1110 -0.1696  0.3639
    1W        W37298   2.049  13.291   2.866  0.0005  0.3455  0.1338
    1W        W37299  23.521  19.428   7.286  0.2606 -0.2909 -0.0694
    1W        W37300   9.820  23.927   2.648  0.1527 -0.0275  0.3609
    1W        W37301  21.910  16.510   7.635  0.1488  0.0134 -0.1107
    1W        W37302  19.812  19.975   7.902  0.0730  0.2516  0.1407
    1W        W37303   9.662  24.944   9.327 -0.1901 -0.0002  0.1447
    1W        W37304  24.242  11.685   8.164 -0.0651 -0.1167 -0.0008
    1W        W37305   5.881  25.910   0.597  0.1401  0.0108  0.0031
    1W        W37306  11.931   9.136   7.913 -0.0023  0.1800  0.1189
    1W        W37307   2.258  19.971   1.400  0.1127 -0.1528 -0.2304
    1W        W37308  26.945  11.506   2.034  0.4796 -0.0457  0.1595
    1W        W37309  17.856   2.167   0.858  0.1605  0.0950 -0.3126
    1W        W37310   8.749  18.938   1.230  0.0454 -0.1642  0.1675
    1W        W37311   4.165   7.077   7.369  0.2806  0.0263 -0.2095
    1W        W37312  20.011   9.876   9.112 -0.2726  0.0697  0.3693
    1W        W37313   3.112  18.674   7.948  0.1834 -0.3787 -0.1188
    1W        W37314  13.360  17.050   7.275 -0.1561 -0.1021  0.3245
    1W        W37315  17.293  27.265   1.749 -0.0419 -0.0951  0.0172
    1W        W37316  17.445  18.568   3.091 -0.0158  0.2603 -0.4201
    1W        W37317  23.195  11.606   0.887 -0.3067  0.0223 -0.0424
    1W        W37318   0.150  20.270   2.472 -0.0219 -0.0204 -0.0684
    1W        W37319   1.059  21.195   7.538 -0.1328 -0.1130  0.1492
    1W        W37320  27.296  26.629   7.337  0.0140  0.1864 -0.0678
    1W        W37321   2.666  10.255   7.080 -0.2624 -0.1727 -0.0090
    1W        W37322   9.775   4.343   7.701 -0.0016  0.0686 -0.1529
    1W        W37323  10.540  22.747   8.962 -0.1855  0.0587  0.0775
    1W        W37324   1.916  26.511   2.370 -0.3669  0.3235 -0.0806
    1W        W37325   3.443  14.914   9.894  0.0935  0.0483  0.0826
    1W        W37326  22.680   2.231   8.362  0.2791  0.0252 -0.0741
    1W        W37327   7.133  26.099  10.056 -0.2708 -0.0754 -0.0317
    1W        W37328   9.055   4.561   2.146  0.2865  0.1917  0.0313
    1W        W37329  10.755  26.985   2.512  0.0595 -0.0709 -0.0321
    1W        W37330  19.715  27.857   9.569 -0.0289 -0.1694  0.2932
    1W        W37331  16.598  19.836   8.034 -0.1291  0.1352 -0.1758
    1W        W37332   7.141  17.460   1.375  0.0905 -0.1935 -0.1157
    1W        W37333  17.548  15.973   0.427 -0.0989  0.0015 -0.0522
    1W        W37334  18.212  23.500   2.686 -0.2316  0.0789  0.0205
    1W        W37335  25.631  20.924   9.018 -0.2534 -0.0301  0.2635
    1W        W37336  11.189  22.677   7.733  0.0481  0.1844 -0.2900
    1W        W37337   7.072   2.473   1.356 -0.2886  0.0895 -0.0511
    1W        W37338  17.569  12.611   2.264 -0.0592  0.2229  0.1080
    1W        W37339  27.363  14.026   2.727 -0.1095 -0.1923 -0.1015
    1W        W37340  19.002   5.712  10.250 -0.2572 -0.2650 -0.0068
    1W        W37341   6.314   2.382   9.042  0.3426 -0.0459  0.0823
    1W        W37342  20.143  16.817   0.418  0.1749 -0.0982 -0.2483
    1W        W37343  15.256  26.901   2.215 -0.0613  0.2063  0.2013
    1W        W37344  24.573   7.412  10.092 -0.0307  0.0704  0.0296
    1W        W37345  22.482  27.503   7.150  0.1317 -0.1593  0.1150
    1W        W37346  17.290  13.177   8.178  0.1158  0.0197  0.0472
    1W        W37347  26.174  21.084   6.736 -0.4197  0.0406 -0.0210
    1W        W37348  18.087  25.033   0.272 -0.0874 -0.2307  0.0800
    1W        W37349  22.601   3.395   7.484  0.1741 -0.2686  0.0357
    1W        W37350  25.974  11.951   0.263  0.0363  0.0995 -0.1458
    1W        W37351   2.061   2.497   7.677  0.1809  0.2704  0.1609
    1W        W37352  14.851  10.279   2.789  0.0676 -0.1637  0.4028
    1W        W37353  16.564   9.270   2.176  0.0448 -0.0455  0.0534
    1W        W37354  21.499  12.218   7.417  0.0301 -0.1424 -0.0610
    1W        W37355  24.996  11.374   1.739 -0.3108 -0.4396  0.1320
    1W        W37356   8.344  26.201   1.715 -0.0805  0.2221 -0.0422
    1W        W37357   1.329  25.043  10.043  0.0206  0.0719 -0.1381
    1W        W37358  24.452   9.141   2.593 -0.0878  0.0535 -0.0616
    1W        W37359   2.344   1.046   1.582 -0.4704 -0.0769  0.3287
    1W        W37360  12.294  24.308   3.318 -0.1189 -0.0501  0.1178
    1W        W37361  14.531  26.284   1.456  0.0944  0.2003  0.2168
    1W        W37362  21.996   7.244   0.080  0.2905 -0.1389 -0.2396
    1W        W37363  25.834  16.636   7.694  0.1498 -0.1685  0.1851
    1W        W37364  25.252   0.613  10.300 -0.2216 -0.0672  0.1690
    1W        W37365  25.753  12.317   7.369  0.2380  0.4127  0.2970
    1W        W37366   4.683  26.999   6.943  0.0815 -0.2246  0.0844
    1W        W37367  18.509   9.701   1.888  0.3442  0.1621 -0.0054
    1W        W37368  14.347  13.218   0.396 -0.0499 -0.0322 -0.1155
    1W        W37369  11.124  16.607   0.104  0.1239 -0.1662 -0.0273
    1W        W37370  16.214  26.403   3.157  0.0648  0.2706  0.0741
    1W        W37371  22.191  20.742   2.591  0.0723 -0.1297 -0.3501
    1W        W37372  14.443  27.515   8.860 -0.0367  0.1124  0.0754
    1W        W37373  27.684  12.528   2.222 -0.0071  0.1699  0.2607
    1W        W37374  19.713   7.019  10.166 -0.0675  0.4572 -0.0143
    1W        W37375   3.117  12.905   7.125  0.0973 -0.2283 -0.0781
    1W        W37376   0.115   1.964   8.260 -0.2448 -0.1127 -0.3584
    1W        W37377  17.802  24.155   6.461 -0.1594  0.0631 -0.2567
    1W        W37378  14.110  11.248   0.698  0.3034  0.2239  0.0717
    1W        W37379  28.055  19.637   9.670 -0.1031  0.0944  0.0362
    1W        W37380  17.352  15.711   2.195 -0.0485 -0.2159 -0.0398
    1W        W37381  12.135  13.496   9.843  0.1117 -0.0723 -0.0892
    1W        W37382  19.862  17.547   9.230 -0.1813 -0.0977  0.0275
    1W        W37383  14.343  19.400   9.957  0.0132 -0.1820 -0.1170
    1W        W37384   2.658   6.089   1.395 -0.0518 -0.2162  0.2561
    1W        W37385   9.049  27.163   9.823 -0.0873 -0.2668 -0.0110
    1W        W37386  14.362   8.912   1.403 -0.0082 -0.0145 -0.2720
    1W        W37387  26.432   4.885   9.104  0.4074  0.1781 -0.0517
    1W        W37388  24.090   7.400   2.608 -0.1459  0.2039  0.0253
    1W        W37389  24.084   6.142   9.953  0.1205  0.1009 -0.0718
    1W        W37390   0.132  17.261   7.243 -0.0674 -0.1824  0.0033
    1W        W37391   0.759  22.195   7.385  0.1981  0.1934 -0.1492
    1W        W37392  13.292   0.782   1.592 -0.1415 -0.6069 -0.1599
    1W        W37393  16.531   3.077  10.179  0.1374  0.1425 -0.1211
    1W        W37394   3.543  25.372   9.052  0.0608 -0.0727  0.0246
    1W        W37395  19.822  19.540   3.433 -0.0272 -0.1188  0.0166
    1W        W37396  16.119  26.025   0.790 -0.1828 -0.1594 -0.2358
    1W        W37397  12.709  19.376   2.971  0.1248  0.0596  0.0439
    1W        W37398  27.922  20.000   9.326 -0.2302 -0.1998 -0.2187
    1W        W37399   7.721  23.720   7.565 -0.1191  0.1307 -0.0124
    1W        W37400   4.710  22.143   9.769  0.2662  0.0122  0.1920
    1W        W37401  10.567  14.119   7.430  0.1122 -0.0514  0.1327
    1W        W37402   3.977   9.236   9.584 -0.0286  0.2541  0.0200
    1W        W37403   0.461  16.309   2.654  0.1657  0.0856  0.0314
    1W        W37404  22.401   1.938   0.619  0.3919  0.3886  0.0247
    1W        W37405   0.941  11.869   0.490 -0.1070  0.3929 -0.2041
    1W        W37406   1.880   7.058   7.338 -0.2794 -0.0139  0.0479
    1W        W37407  17.014  20.455   0.376 -0.2408 -0.0585  0.2844
    1W        W37408   4.665  21.531   9.017 -0.0460  0.0750 -0.0782
    1W        W37409  18.156  11.545   8.049 -0.1762 -0.0200  0.3070
    1W        W37410  16.043  17.319   0.588 -0.1360 -0.1482 -0.1493
    1W        W37411  19.245  20.349   7.948  0.4235 -0.0783 -0.0756
    1W        W37412  12.110   6.907   1.790 -0.1564  0.0652 -0.0705
    1W        W37413  17.040  22.954   1.498  0.2759 -0.0846 -0.1035
    1W        W37414  11.311  19.502   2.499  0.3485  0.3042 -0.1928
    1W        W37415  26.638  22.613   2.135  0.0024  0.1626  0.3049
    1W        W37416  19.924  22.453   9.508  0.2185 -0.1375 -0.3520
    1W        W37417  21.821   9.593   1.884 -0.0589 -0.2481  0.1453
    1W        W37418   4.799  10.944   9.780 -0.0530  0.3977 -0.1505
    1W        W37419  18.401   2.898   0.781 -0.0790 -0.0509 -0.2262
    1W        W37420   1.210  10.172   0.547  0.0816  0.3468 -0.3047
    1W        W37421  11.625   7.297   2.221  0.1234  0.3373  0.1156
    1W        W37422  19.048  23.859   8.356 -0.1710  0.0451 -0.2562
    1W        W37423  27.720   5.180   7.922 -0.0752 -0.0021  0.0124
    1W        W37424   9.655  25.703   0.822 -0.2677 -0.0062 -0.0579
    1W        W37425  22.990  23.089   8.530  0.2125  0.0636  0.3145
    1W        W37426  23.685   6.041   7.575 -0.0964  0.0558  0.3413
    1W        W37427  14.037  10.097   8.065 -0.0644 -0.0215  0.3982
    1W        W37428  11.376  12.821   2.120  0.0098 -0.1756  0.0012
    1W        W37429  19.760  25.637   1.294  0.0272  0.1847  0.0816
    1W        W37430  23.729  11.778   6.310 -0.0443  0.2584 -0.2270
    1W        W37431   8.929   9.223   0.129 -0.2021 -0.1185 -0.0304
    1W        W37432   6.527   5.345   7.846  0.1460 -0.0632  0.2638
    1W        W37433  27.925  10.747   8.232  0.0433  0.1097 -0.2175
    1W        W37434  22.091   0.221   2.494 -0.1191  0.1244 -0.0827
    1W        W37435  11.556   9.373   2.019 -0.0730  0.4757 -0.0743
    1W        W37436  14.706   4.480   7.997  0.0837 -0.0361 -0.3559
    1W        W37437  19.709  18.814   2.096  0.2223  0.2294  0.1262
    1W        W37438  18.131   6.258   3.103 -0.2081 -0.1228  0.3295
    1W        W37439   1.813   0.732   8.022 -0.1806 -0.0453  0.1308
    1W        W37440  26.419  20.841   1.028  0.1253  0.1870 -0.0799
    1W        W37441  11.328   5.714   9.449 -0.2852 -0.0029 -0.2260
    1W        W37442  20.414  23.467  10.170  0.0797  0.1822 -0.2887
    1W        W37443   6.509  10.099   2.881  0.1495 -0.4426  0.1459
    1W        W37444  16.152   6.537   8.588  0.0084 -0.0033 -0.0108
    1W        W37445  10.266  12.341   4.088  0.1497  0.0632  0.2633
    1W        W37446   9.777  12.199   3.149  0.0657 -0.0878  0.0745
    1W        W37447  13.580   7.484  10.326 -0.1917 -0.0271 -0.1785
    1W        W37448   4.768  13.048   8.308 -0.3667  0.0422  0.0314
    1W        W37449  15.425  21.340   1.086  0.0249 -0.4080 -0.2803
    1W        W37450  24.984  16.317   9.382  0.0284 -0.0156  0.1553
    1W        W37451  22.685  19.708  10.320 -0.1944 -0.2675  0.0894
    1W        W37452   7.872  13.832   1.115 -0.1063 -0.2640  0.1835
    1W        W37453   3.144  14.659   0.909 -0.1243  0.0323  0.1053
    1W        W37454  18.221  17.402   9.621  0.0525  0.0212 -0.1944
    1W        W37455   5.017  12.543   9.994  0.0300 -0.0031  0.3625
    1W        W37456  16.162   2.312   9.470 -0.0148  0.0466 -0.3782
    1W        W37457  22.002   7.517   7.296  0.1054 -0.3189 -0.1661
    1W        W37458   9.914  18.986  10.084 -0.1102  0.1406  0.1784
    1W        W37459   0.009   9.628   1.974 -0.1888 -0.1956 -0.1086
    1W        W37460  14.137   7.815   0.550  0.1820 -0.1448  0.1407
    1W        W37461  21.185  18.975   1.964  0.1748  0.0872 -0.1490
    1W        W37462  21.983  12.426   7.633 -0.3386  0.0418  0.1337
    1W        W37463  27.040  24.289   8.430 -0.0038  0.0256 -0.1750
    1W        W37464  13.561  22.217   9.909 -0.1947 -0.0969 -0.1632
    1W        W37465  13.477  24.595   8.999 -0.2224 -0.0961 -0.4704
    1W        W37466  16.746  28.126   9.221  0.3091 -0.2729 -0.1933
    1W        W37467  19.660  25.856   2.716  0.0023 -0.2587 -0.5507
    1W        W37468  11.824   0.469   1.713 -0.1382 -0.0531 -0.0062
    1W        W37469  16.166   4.755   8.581  0.0683 -0.0927  0.2612
    1W        W37470  25.678  25.736   1.539 -0.2419  0.1093 -0.0617
    1W        W37471   8.135  17.605   1.256  0.0233 -0.1268  0.1992
    1W        W37472  11.482   7.573   2.857  0.1477 -0.1335 -0.1516
    1W        W37473   5.703  12.286   8.184 -0.0419 -0.2219  0.2461
    1W        W37474   9.654  11.207   9.487 -0.1672  0.1696  0.2091
    1W        W37475   1.885   8.583   8.383  0.1575 -0.1034  0.1051
    1W        W37476  15.716   3.310   0.918  0.2779 -0.2436  0.0915
    1W        W37477   7.110  23.199   1.938 -0.0744  0.1339  0.0020
    1W        W37478  25.845  24.913   7.169 -0.1217  0.0339  0.1523
    1W        W37479  13.845  20.365   1.187  0.1122  0.1454  0.0561
    1W        W37480  18.870  25.941   7.804 -0.0516  0.0456  0.2435
    1W        W37481  16.152   6.807   0.610  0.2146  0.0027 -0.0721
    1W        W37482  25.122  23.371   2.704  0.1182  0.1293 -0.0324
    1W        W37483   7.226  26.424   2.348  0.2972  0.1851  0.0583
    1W        W37484  20.840  28.034   1.802  0.2762 -0.1385  0.2182
    1W        W37485  15.507   9.128   8.373  0.2459 -0.0721 -0.0136
    1W        W37486  20.945   5.617   0.704 -0.1418 -0.0670  0.0497
    1W        W37487  18.214  10.558   3.379 -0.0755 -0.2150  0.0573
    1W        W37488   0.121  22.491   8.310 -0.0308  0.1713  0.0028
    1W        W37489  19.436  20.900   3.126 -0.0422  0.2640  0.1127
    1W        W37490   8.419   0.367   7.987  0.4448 -0.2051  0.1364
    1W        W37491   8.488  10.843   7.768  0.1841  0.1535 -0.4133
    1W        W37492  22.366  10.590   3.131 -0.0255  0.1124 -0.1856
    1W        W37493  22.975   1.342  10.030 -0.3144 -0.0723  0.0569
    1W        W37494   6.155   1.053   9.220  0.0468  0.1113  0.0880
    1W        W37495  17.182  27.888   2.358  0.1053  0.1307  0.0639
    1W        W37496   3.082   7.157   8.856 -0.0950 -0.1896 -0.0246
    1W        W37497  14.336  12.167   2.885 -0.2957  0.0348  0.2107
    1W        W37498   7.707  20.082   2.203  0.0469  0.0370 -0.3234
    1W        W37499   2.006  22.396   8.060  0.0547  0.0866 -0.0485
    1W        W37500   3.035  17.935   9.985 -0.0795  0.0107  0.0774
    1W        W37501  19.962   8.114   9.235 -0.1187 -0.0897 -0.3124
    1W        W37502  20.589   6.654   0.189 -0.1782  0.0273 -0.2112
    1W        W37503   3.002  23.799   2.961  0.1126 -0.1720 -0.1252
    1W        W37504   2.246  25.944   9.937  0.0821 -0.1889 -0.1607
    1W        W37505  10.168  24.737   7.729 -0.0069 -0.0946 -0.1886
    1W        W37506  11.786  24.729   7.233  0.0161  0.0903 -0.1168
    1W        W37507  21.624   8.320   7.231  0.1493 -0.0011  0.1954
    1W        W37508   8.931  16.541   1.731  0.0365  0.0270 -0.0604
    1W        W37509   0.140  12.530  10.360 -0.0390 -0.0958 -0.1549
    1W        W37510  27.051  21.161   2.222  0.2903  0.0641 -0.0224
    1W        W37511  15.229   6.636   2.896  0.1389 -0.0535 -0.1507
    1W        W37512  10.994  26.296   8.527 -0.1554  0.2084  0.0974
    1W        W37513  17.515  17.485   9.279  0.0535 -0.2617  0.1394
    1W        W37514  11.770  15.058   8.671  0.2629 -0.0438  0.1898
    1W        W37515  13.446  25.651   0.897 -0.2205 -0.1078 -0.2278
    1W        W37516  18.920  19.944   3.434  0.1397 -0.1298 -0.4021
    1W        W37517  11.518  16.901   0.468 -0.0225  0.1520  0.3810
    1W        W37518  16.004   4.389   7.935  0.4262 -0.0246 -0.2799
    1W        W37519  20.858  24.048   8.936 -0.0186 -0.2610 -0.1119
    1W        W37520   9.817   1.655   0.639  0.2286 -0.0035  0.0085
    1W        W37521  22.920  27.692   8.385 -0.1161 -0.1788  0.0173
    1W        W37522  24.429   9.580   8.626 -0.1941 -0.0283  0.0388
    1W        W37523   0.632  15.220   1.831 -0.0085  0.1205  0.1989
    1W        W37524  25.699   2.335   0.932  0.3474 -0.2106  0.2674
    1W        W37525  22.831  23.205   2.245  0.0857 -0.0862  0.1363
    1W        W37526  17.150   9.589   9.699  0.2770  0.0212 -0.4248
    1W        W37527   4.003   3.505   1.499  0.2724 -0.0112 -0.2176
    1W        W37528   9.461  14.507   0.414  0.0305  0.0464 -0.2050
    1W        W37529   7.141  26.804   1.975  0.0806 -0.1402 -0.0536
    1W        W37530  12.010  14.201   2.705  0.2193 -0.1544 -0.3558
    1W        W37531  15.107   0.082   0.325  0.0935 -0.0953 -0.1048
    1W        W37532  12.780  20.295   0.285  0.0383 -0.3975  0.1787
    1W        W37533   3.067  22.192   0.115 -0.4116 -0.0219  0.1407
    1W        W37534  25.451  16.253   1.732  0.4146  0.1266 -0.0990
    1W        W37535  17.599  21.788   8.382  0.4642  0.0565  0.1717
    1W        W37536   6.802   5.776   8.549 -0.2821 -0.2769  0.1666
    1W        W37537   0.550   0.552   1.803  0.1160 -0.0802  0.1943
    1W        W37538   2.591  22.379   8.387  0.1675  0.3400  0.2097
    1W        W37539   6.220   7.680   9.812 -0.1319 -0.2257 -0.0038
    1W        W37540  10.576   0.034   8.409 -0.0278  0.2329  0.1899
    1W        W37541  20.764  26.391  10.058  0.3787 -0.0328  0.2531
    1W        W37542  22.652   8.843   2.499 -0.1213 -0.3560  0.2036
    1W        W37543  20.148   6.809   0.447 -0.0294  0.3275  0.0881
    1W        W37544  11.159   8.131   9.072  0.1970  0.0212  0.0105
    1W        W37545  26.802  17.552   8.177 -0.1647 -0.1801  0.1541
    1W        W37546   9.784  10.418   1.889  0.1321 -0.0121  0.1244
    1W        W37547  21.968  25.224   8.135  0.1992  0.0342 -0.3265
    1W        W37548  12.573  20.163   1.097  0.2946  0.2114  0.0882
    1W        W37549  27.588  19.903   1.848  0.1487 -0.0646 -0.2728
    1W        W37550   7.692  12.829   2.461  0.2380  0.1107  0.3275
    1W        W37551  23.794   8.837   9.071  0.1577 -0.2863  0.3576
    1W        W37552  25.477  14.684   6.982  0.3413 -0.0555  0.0406
    1W        W37553  12.653  13.399   8.744  0.0861  0.2812  0.4886
    1W        W37554  16.480  17.755   3.551  0.2238 -0.1859  0.2712
    1W        W37555  16.738   6.958   0.279 -0.1715 -0.0591  0.2112
    1W        W37556  22.496   9.565   0.195  0.3695  0.1776 -0.0010
    1W        W37557  19.584  14.241   1.138  0.0531  0.3381 -0.0848
    1W        W37558  13.738  10.703   1.892  0.2490 -0.2118 -0.0158
    1W        W37559  17.951  20.949   2.058  0.3876  0.0244 -0.3212
    1W        W37560  19.043   8.823   3.264 -0.1192 -0.1216  0.1087
    1W        W37561   5.715  16.226   8.149  0.1564 -0.2429  0.2941
    1W        W37562  22.622   3.696   9.215  0.0989 -0.3318  0.0086
    1W        W37563   7.450   3.143   0.474  0.0898 -0.1333 -0.3118
    1W        W37564  23.695   2.491   2.209  0.0369 -0.1741 -0.1328
    1W        W37565  11.338  19.943   8.518 -0.0046  0.1137 -0.1562
    1W        W37566  27.741   0.195   7.599 -0.3070 -0.3930  0.1517
    1W        W37567  16.758  26.447   8.874  0.0515 -0.2764  0.2251
    1W        W37568   3.864   4.571   7.418 -0.0102 -0.2883  0.2435
    1W        W37569   7.363  10.779   0.295 -0.0283 -0.1066 -0.1482
    1W        W37570   7.717  19.256   8.896 -0.0672  0.0545 -0.3605
    1W        W37571  19.382   2.861   8.396  0.0082 -0.0270  0.1059
    1W        W37572  21.281  21.903   8.764 -0.1006  0.0268 -0.0140
    1W        W37573   7.758  13.135   9.084  0.0526 -0.1097 -0.0559
    1W        W37574  27.862   2.749   6.998  0.1358  0.0753  0.0571
    1W        W37575  22.276  13.195   8.420  0.1568 -0.0138  0.0797
    1W        W37576  22.117  20.679   9.889  0.3003  0.3089 -0.1169
    1W        W37577  15.921  23.774   2.766  0.2056 -0.3435 -0.2404
    1W        W37578  26.069   7.447   9.399 -0.0729  0.0819  0.2000
    1W        W37579  26.079   9.397   8.949 -0.0346 -0.2090 -0.2859
    1W        W37580   8.150   9.831   7.045  0.2588 -0.1536 -0.0192
    1W        W37581   1.435  15.103   7.396 -0.2101 -0.0320  0.1740
    1W        W37582  25.418   1.072   0.601  0.0887  0.0757  0.0733
    1W        W37583  27.120   4.690   1.202  0.2043 -0.2852  0.1211
    1W        W37584  10.515  17.778   9.826 -0.0139 -0.1291  0.1761
    1W        W37585  10.360   0.212   9.000  0.1212  0.0371  0.0218
    1W        W37586  21.383  15.309   1.792  0.0072  0.3592  0.2015
    1W        W37587   4.294  21.752   2.212 -0.0893 -0.0908  0.1963
    1W        W37588  21.479  26.455   9.743  0.3131  0.1646 -0.3752
    1W        W37589   1.180  17.198   8.139  0.0354 -0.1075 -0.0803
    1W        W37590   2.893  24.811   2.056 -0.3978  0.0637 -0.2696
    1W        W37591  16.561   8.022   0.152  0.1944  0.0482  0.0725
    1W        W37592  23.633  10.693   1.024 -0.1964  0.0676  0.1094
    1W        W37593   2.790  20.649   6.751 -0.2390  0.2343 -0.1914
    1W        W37594   7.449   8.213   9.604  0.0635 -0.0060  0.1794
    1W        W37595   0.472  10.489   0.874  0.1318 -0.3035  0.0402
    1W        W37596  27.930  18.331   0.408  0.1147  0.0288 -0.0341
    1W        W37597  25.692  24.517   7.869 -0.0494  0.3079  0.2780
    1W        W37598  19.461  15.979   8.442 -0.0440 -0.2953 -0.0539
    1W        W37599   3.623  16.802   8.637  0.1839 -0.4853 -0.3343
    1W        W37600   7.774  27.072   2.761  0.2396  0.0495 -0.2300
    1W        W37601   5.134  27.108   2.037  0.3472  0.0989  0.0788
    1W        W37602  23.932  22.793   1.220 -0.0289  0.2852  0.1361
    1W        W37603   5.132   1.162   9.201 -0.1530  0.0114 -0.3264
    1W        W37604  14.887  18.884   3.422  0.3611 -0.1807 -0.2241
    1W        W37605   6.082   7.164   9.692 -0.1139  0.1042 -0.2982
    1W        W37606   7.976  25.654   7.752 -0.3599 -0.0860  0.1921
    1W        W37607  20.664   8.971   8.421 -0.0597 -0.2504 -0.0259
    1W        W37608   2.242   1.088   9.826  0.3127  0.3024 -0.0138
    1W        W37609  12.556  15.721   7.849  0.0665  0.0823 -0.2208
    1W        W37610   1.185   7.787   7.235 -0.2252  0.2251 -0.0231
    1W        W37611  24.178  23.600   1.140 -0.0033  0.1097  0.3693
    1W        W37612  23.744  27.122   3.760  0.2233 -0.0847 -0.3122
    1W        W37613  11.683   5.407   9.376  0.1310 -0.0739 -0.3416
    1W        W37614   0.580   5.150   0.053 -0.2265 -0.2743 -0.1226
    1W        W37615  20.175  18.430   4.148 -0.1004 -0.1110  0.2258
    1W        W37616   3.123   5.009   1.285  0.0802  0.1028  0.0256
    1W        W37617  11.488   6.299   4.125 -0.0396 -0.0618  0.1632
    1W        W37618  25.681   9.062   9.816 -0.0484  0.0677  0.4332
    1W        W37619  24.503  17.553   0.810 -0.1459 -0.0021  0.2404
    1W        W37620   9.762   0.194   0.490  0.0275  0.3434 -0.4265
    1W        W37621   5.322  10.116   0.575 -0.1307  0.0511 -0.0174
    1W        W37622  13.700  11.917   3.456 -0.1942 -0.1148  0.0986
    1W        W37623  24.382  23.970   0.841  0.2364 -0.3120 -0.1339
    1W        W37624  13.041  18.768   2.947 -0.1594  0.0610 -0.0002
    1W        W37625  10.016   5.770   9.214 -0.0569  0.0674  0.0971
    1W        W37626   8.384   5.477   9.533 -0.0829 -0.2163 -0.1171
    1W        W37627   9.801  24.516   2.927 -0.1618  0.0669  0.0957
    1W        W37628   6.306  18.000   3.047  0.0120 -0.1804 -0.4223
    1W        W37629  19.457  19.976   1.860 -0.1059  0.2673 -0.1677
    1W        W37630   4.742   9.522   1.060 -0.1156  0.2080  0.2115
    1W        W37631   6.892  17.916   1.789  0.0808 -0.4737  0.3849
    1W        W37632  13.338  23.211   1.524 -0.2591 -0.2748 -0.1616
    1W        W37633  23.705   3.547   8.643  0.1123  0.1647 -0.0986
    1W        W37634  10.565  20.418   3.720 -0.1389  0.0572 -0.1483
    1W        W37635  21.822  22.483   2.271 -0.2594  0.4092 -0.3654
    1W        W37636  22.333  24.987   7.214  0.1350  0.1587 -0.3982
    1W        W37637   3.725   3.945   7.111 -0.3905  0.0642  0.2037
    1W        W37638   1.827  12.147   8.862 -0.0110  0.1138 -0.1950
    1W        W37639   3.197  19.394   0.156 -0.0088  0.1213 -0.1803
    1W        W37640   9.027  13.656   2.985 -0.1825  0.1454 -0.2436
    1W        W37641   4.599  11.468   7.924 -0.0724  0.1718  0.3036
    1W        W37642   3.618   3.206   7.564 -0.1592 -0.1934  0.0483
    1W        W37643   0.986  27.174   1.734 -0.4102 -0.1113 -0.1342
    1W        W37644  17.029  26.575  10.254  0.0601 -0.0807 -0.1497
    1W        W37645  26.882   3.287  10.014  0.0671  0.0394 -0.1576
    1W        W37646  20.791  16.383  10.020  0.1648 -0.1450  0.1040
    1W        W37647   1.561   4.601   7.764  0.1321 -0.0054 -0.0351
    1W        W37648  27.358   8.688   2.220 -0.1242  0.1294 -0.0111
    1W        W37649  18.984  11.289   3.237  0.0352  0.1189 -0.0869
    1W        W37650  18.780  10.486   7.906  0.0401 -0.3494  0.5848
    1W        W37651  25.668   9.798   9.214  0.3044  0.0904  0.2211
    1W        W37652   0.200   6.735   7.208 -0.0168 -0.1256  0.0643
    1W        W37653  17.432  23.180   1.260 -0.1359  0.0146 -0.0391
    1W        W37654  19.898  14.880   9.927 -0.3213  0.1630  0.0858
    1W        W37655  23.451  22.931   0.937 -0.0418  0.4206 -0.1287
    1W        W37656   5.099  25.643   7.182 -0.0867 -0.0032 -0.1021
    1W        W37657   4.454   3.690   1.174 -0.1232 -0.3280 -0.1418
    1W        W37658  15.789   7.844   2.379  0.1738  0.2525  0.1563
    1W        W37659  23.408  15.766   1.624  0.3091  0.1369  0.0200
    1W        W37660  19.396  27.013   1.281 -0.1407 -0.2958  0.3608
    1W        W37661  23.886  20.658   2.053 -0.1899  0.1453 -0.0043
    1W        W37662   4.983  21.675   1.520  0.2001  0.1352  0.1095
    1W        W37663  11.892  11.884   8.696 -0.0311  0.1636 -0.0453
    1W        W37664   4.107  23.865   0.995 -0.0567  0.0828  0.1798
    1W        W37665  14.520  18.942   0.374 -0.0877 -0.0470  0.1968
    1W        W37666   5.875  15.447   6.935 -0.0600  0.2493  0.1683
    1W        W37667   4.891  12.293   7.424  0.1823  0.0177  0.1799
    1W        W37668   8.222   2.500   0.204  0.0100 -0.0455  0.0773
    1W        W37669  21.131   3.772   8.701 -0.0500 -0.1160  0.0443
    1W        W37670  15.114  16.830   0.392  0.0321  0.4154 -0.0659
    1W        W37671  23.542   9.530   7.144 -0.1052  0.1885 -0.1762
    1W        W37672  19.733   5.720  10.097  0.2459  0.0970 -0.1233
    1W        W37673  24.626  22.526   1.525  0.0413 -0.3986 -0.0699
    1W        W37674  10.278   8.609   8.848  0.1304 -0.0295  0.0787
    1W        W37675  15.283   8.844   0.632  0.0199 -0.1415  0.1182
    1W        W37676   5.433   7.052   2.988  0.1939  0.2239 -0.0141
    1W        W37677   0.916  15.049   8.477  0.1905  0.1727 -0.1009
    1W        W37678   4.420   0.202   7.317  0.1774 -0.3811 -0.0762
    1W        W37679   5.616  22.027   1.263  0.1407  0.2827  0.1068
    1W        W37680  15.338  18.667   3.295 -0.0043 -0.3828  0.2997
    1W        W37681  16.409   4.729   1.127 -0.0007  0.1408  0.0885
    1W        W37682  17.738   5.769   7.742 -0.0062  0.2296  0.0787
    1W        W37683  10.094   3.515   2.993 -0.0865  0.0787 -0.3073
    1W        W37684   3.462   4.969   9.629 -0.1544 -0.3427  0.1592
    1W        W37685  12.812   4.960   0.426  0.2651  0.1490  0.0247
    1W        W37686  10.326  13.547   8.976  0.4210  0.0665  0.1961
    1W        W37687   6.634  20.561   0.948 -0.2736 -0.1760  0.1024
    1W        W37688  22.750   3.211   7.888 -0.2582  0.0770 -0.2871
    1W        W37689   5.376  26.838   7.640  0.1394  0.0634  0.0361
    1W        W37690  12.959  25.655   8.670  0.1897 -0.4615 -0.1726
    1W        W37691  27.490   0.018   0.341 -0.3601  0.2828  0.0130
    1W        W37692  25.571  10.570   8.110  0.0718  0.0067 -0.3635
    1W        W37693  12.669  23.794   8.958  0.0509 -0.2431  0.0120
    1W        W37694  18.115  15.183   1.002 -0.1512 -0.1322 -0.2358
    1W        W37695  26.981  22.597  10.072  0.1109 -0.2088  0.2459
    1W        W37696  14.463   7.174   2.672 -0.0152  0.0369  0.2126
    1W        W37697  21.781  16.548  10.067  0.0146 -0.2340  0.2748
    1W        W37698  27.963   4.988   7.369  0.1548 -0.0713  0.0505
    1W        W37699  10.286  20.071   3.941  0.0789  0.1694  0.0062
    1W        W37700  27.386  14.383   2.354 -0.2364  0.0512 -0.0318
    1W        W37701  27.869   9.823   6.540  0.0944 -0.0848  0.1656
    1W        W37702  13.465  24.896   9.886 -0.0980 -0.1306  0.0828
    1W        W37703  18.218  15.507   0.148 -0.0489  0.1651 -0.1157
    1W        W37704   6.714   7.953   8.054  0.1909  0.1268  0.0167
    1W        W37705   3.461   2.831   0.162 -0.2478  0.0518 -0.0615
    1W        W37706  11.150  13.793   0.500  0.1351  0.2546 -0.0836
    1W        W37707  23.258  18.917   1.182 -0.1489  0.1032  0.1006
    1W        W37708  18.996  27.186   3.686  0.1371  0.2729 -0.0257
    1W        W37709  12.557  15.149   0.889 -0.0773 -0.1191  0.1186
    1W        W37710  21.337   8.215   9.165 -0.0050 -0.2885 -0.4184
    1W        W37711  17.094   6.636   1.027 -0.1860 -0.2162  0.1426
    1W        W37712  19.039   1.163   2.583  0.3082  0.1903  0.0423
    1W        W37713  12.271   4.763   1.203  0.0703 -0.0279 -0.0790
    1W        W37714  12.691  20.309   1.557 -0.1278  0.0616 -0.0028
    1W        W37715  12.380   9.637   7.971 -0.4726 -0.0648  0.1209
    1W        W37716  12.363   1.042   9.275  0.0681  0.0385 -0.0094
    1W        W37717  12.040  19.923   2.129  0.0345 -0.0667 -0.2146
    1W        W37718   3.945  22.873   6.654  0.2335 -0.1604  0.3159
    1W        W37719  12.891  17.270   1.181  0.3889  0.1030  0.2042
    1W        W37720   6.291   1.677   1.285 -0.2126 -0.1355  0.2291
    1W        W37721  13.539   3.647   9.514 -0.1128 -0.0828 -0.1847
    1W        W37722   6.845  23.499   7.256 -0.1109  0.2524  0.1723
    1W        W37723   2.208  13.184   2.395 -0.2072 -0.1911  0.0304
    1W        W37724  12.023  22.978   1.016  0.1772  0.1248 -0.0931
    1W        W37725  21.408   5.607   7.673 -0.0170  0.0625  0.4751
    1W        W37726  12.075  23.753   1.674  0.0628 -0.0478  0.1354
    1W        W37727  12.713  19.403   8.958  0.0384  0.1554 -0.5036
    1W        W37728  25.426  23.078   6.391 -0.1599  0.1134  0.2765
    1W        W37729  22.864  20.319   1.676  0.0192  0.0996  0.0030
    1W        W37730   0.791  10.089   8.873 -0.2490  0.1238 -0.2839
    1W        W37731  24.904  18.069   8.236 -0.0323 -0.0130 -0.0535
    1W        W37732  27.667  12.234   1.348 -0.0077  0.2735  0.0579
    1W        W37733  21.822  23.840   9.012  0.2627  0.1649 -0.2079
    1W        W37734   0.769  24.483   9.876  0.1266  0.2497  0.1212
    1W        W37735  21.617  22.075   2.485  0.0536  0.3316 -0.0663
    1W        W37736  11.972   2.869   1.359 -0.1277  0.0613  0.0077
    1W        W37737  26.303   6.955   7.747  0.1794  0.1618 -0.4275
    1W        W37738  20.479  10.896   3.037 -0.5588 -0.2854 -0.1775
    1W        W37739  26.923   5.676   1.864  0.1258 -0.0498 -0.1225
    1W        W37740   9.447  21.343   8.035 -0.2991  0.0146 -0.1765
    1W        W37741  28.093  12.764   2.330  0.2263 -0.2184 -0.1754
    1W        W37742  16.335  10.893   1.987  0.0586  0.0891 -0.0360
    1W        W37743  16.521  15.174   2.786  0.0913 -0.2154  0.0377
    1W        W37744  26.524  24.834  10.353  0.2074 -0.1241 -0.1232
    1W        W37745  22.313  13.989   8.699  0.1282 -0.2882  0.1376
    1W        W37746  12.701   2.163   3.276 -0.1373  0.2675 -0.1954
    1W        W37747  23.436  22.448   7.830  0.2042  0.0840  0.0334
    1W        W37748  16.460  20.423   0.497 -0.1035 -0.1139  0.2077
    1W        W37749   1.410   2.151   8.539 -0.1475 -0.0633  0.1415
    1W        W37750  20.767  25.309   0.546  0.2457 -0.2435 -0.0825
    1W        W37751  23.936  18.766   9.764 -0.4070  0.2524 -0.0647
    1W        W37752  15.249  23.836   8.523  0.1029  0.1476  0.3890
    1W        W37753  26.167  14.289   1.889  0.0639  0.1183 -0.3604
    1W        W37754  19.327  18.551   9.704 -0.3930 -0.1151  0.1346
    1W        W37755   5.401  22.238   2.532 -0.0787  0.1852  0.2215
    1W        W37756   7.614  13.127   0.590  0.0035  0.1428  0.0408
    1W        W37757  11.124  14.018   3.119 -0.1668 -0.0369 -0.1533
    1W        W37758   4.000   7.177  10.094  0.4052  0.1576  0.0606
    1W        W37759   7.370  15.441   9.136 -0.0859 -0.2572  0.0774
    1W        W37760  16.283  25.697   2.573  0.0058  0.1521  0.1181
    1W        W37761  22.931  14.544   8.819 -0.3499  0.1228 -0.1394
    1W        W37762   9.082   4.177   9.451  0.0951  0.2368 -0.1128
    1W        W37763  22.065   2.050   1.008  0.6723  0.2384  0.4722
    1W        W37764  19.064  14.745   2.559  0.0190 -0.0579 -0.3132
    1W        W37765   7.232  17.140   9.502  0.3635 -0.0917 -0.0951
    1W        W37766   5.468  12.698   1.557  0.1447 -0.0572  0.3032
    1W        W37767  25.113  22.991   7.347  0.0160  0.1462 -0.1135
    1W        W37768  20.589   2.383   9.074 -0.0002 -0.3107 -0.0519
    1W        W37769  26.709  15.431   8.798  0.3794 -0.1118  0.0724
    1W        W37770  25.452  13.239   1.801  0.0296  0.1619 -0.2108
    1W        W37771  15.744  20.309   1.751 -0.4918  0.4530  0.0957
    1W        W37772   2.369  19.059   1.087  0.1367 -0.1119 -0.0064
    1W        W37773  25.140  14.696   8.243 -0.1296 -0.0569 -0.3568
    1W        W37774  15.836  15.238   0.265  0.0612  0.1491 -0.1403
    1W        W37775  24.585   6.447   7.224 -0.0529 -0.2638 -0.2360
    1W        W37776   7.617   7.681   2.168  0.0599 -0.2715  0.1872
    1W        W37777   8.548   9.260   2.836 -0.5626 -0.0411 -0.0909
    1W        W37778  18.862  25.165   1.066  0.0120  0.1060  0.0600
    1W        W37779   5.414  13.425   7.380  0.0420 -0.1167 -0.0765
    1W        W37780  10.925  25.342  10.013 -0.0653  0.3092  0.0243
    1W        W37781  25.317  27.389   8.442  0.1735 -0.1932  0.2700
    1W        W37782  14.066  23.372   2.246 -0.3050  0.0238 -0.1454
    1W        W37783  10.353   6.383   7.536  0.2251 -0.0167  0.0300
    1W        W37784  10.364  14.847   0.076  0.0271 -0.3476 -0.0209
    1W        W37785  21.003  22.729   8.226 -0.1476 -0.1794  0.1179
    1W        W37786  25.451  22.253   1.149 -0.1590 -0.1942 -0.0564
    1W        W37787  10.716  20.513   2.103  0.0912 -0.0534  0.0653
    1W        W37788  13.883  13.054   1.629  0.0465 -0.0619  0.1519
    1W        W37789   0.968  24.494   7.326  0.1540 -0.2642 -0.1543
    1W        W37790  18.003   7.470   8.220 -0.1771  0.3789 -0.0070
    1W        W37791  24.310  21.477   8.039  0.3335 -0.0056 -0.1856
    1W        W37792   7.643  20.936   8.396  0.1625 -0.0666 -0.0085
    1W        W37793  12.471  27.954   2.405  0.1984  0.1003  0.5792
    1W        W37794  21.351   2.547   9.134 -0.0689  0.0375  0.0063
    1W        W37795   5.884  24.208   0.953 -0.1809 -0.1399 -0.1499
    1W        W37796  21.898   8.754   3.131  0.1050  0.1348  0.5295
    1W        W37797  14.425   9.497  10.040  0.0867 -0.0647  0.1908
    1W        W37798  13.183  16.092   9.627 -0.0041  0.1500  0.0101
    1W        W37799  10.941  26.575   2.274  0.1118  0.3142  0.2080
    1W        W37800   1.090  27.611   6.687 -0.0874  0.2684  0.1816
    1W        W37801   1.788  21.938   2.687  0.1104  0.1586  0.1379
    1W        W37802  18.408   6.509   9.182 -0.0647 -0.0683  0.0397
    1W        W37803  17.281   8.320   3.358 -0.4102 -0.1318  0.0737
    1W        W37804  13.764  21.961   7.593  0.2047  0.0891  0.2049
    1W        W37805  24.499   7.803   7.807  0.1746 -0.2212 -0.1543
    1W        W37806  14.520  11.224   3.123 -0.1107  0.2047  0.0566
    1W        W37807   5.528  23.371   1.013  0.2436 -0.0628 -0.3500
    1W        W37808  26.028  20.515  10.051 -0.4648  0.3521  0.1402
    1W        W37809  25.047   3.619   9.443 -0.1783 -0.0851  0.3554
    1W        W37810  16.886  19.709   9.955 -0.1653  0.3297 -0.0090
    1W        W37811  11.789   3.926   8.284  0.3419  0.1222 -0.1279
    1W        W37812   7.816  14.944  10.317  0.1395  0.0953  0.0279
    1W        W37813   9.286   2.383   8.292 -0.1658  0.0790  0.0823
    1W        W37814  12.470   5.779   0.347  0.2091 -0.0577 -0.1617
    1W        W37815   5.116  20.385   0.687  0.2450 -0.0282  0.2715
    1W        W37816   6.962  25.618   0.684  0.1470  0.2570 -0.0597
    1W        W37817  17.361   6.263   0.062  0.0473  0.0686 -0.0244
    1W        W37818  25.824  24.417   7.306 -0.0144  0.1009 -0.1298
    1W        W37819   6.377  21.040   2.681 -0.2176 -0.0453  0.1576
    1W        W37820   0.552  21.242   0.413 -0.0892  0.1345 -0.1927
    1W        W37821  20.916   4.777   9.721 -0.1996  0.0704 -0.1136
    1W        W37822  10.529  12.039   1.825  0.0049  0.1306 -0.2949
    1W        W37823  12.723  27.179   9.798 -0.0593  0.0491 -0.0464
    1W        W37824  25.872   9.699   8.606  0.1620  0.0364 -0.1062
    1W        W37825  21.140  19.047  10.104  0.0620  0.0574  0.3320
    1W        W37826  22.905  11.489   2.925 -0.3003  0.0293 -0.3070
    1W        W37827  21.811  18.111   0.831 -0.1169  0.1294 -0.1279
    1W        W37828  23.365   7.223   0.804 -0.1500  0.0676  0.2702
    1W        W37829   0.422   3.449   9.430 -0.0934 -0.1590  0.2685
    1W        W37830  21.177   9.045   7.404  0.0162 -0.1170 -0.0274
    1W        W37831  24.742   6.264   8.558  0.1173  0.1525  0.3001
    1W        W37832  17.871   6.071  10.336  0.2377 -0.2391 -0.0357
    1W        W37833  25.881  13.529   8.047  0.0552  0.0804 -0.3549
    1W        W37834  17.127  20.049   6.956  0.0711  0.2495  0.1456
    1W        W37835  11.103  12.014   1.047 -0.0606  0.2408  0.0249
    1W        W37836  17.883   6.911   1.969 -0.1867 -0.1844 -0.0741
    1W        W37837   6.555  21.702   2.068  0.3306  0.0141  0.2535
    1W        W37838  10.648  12.742   1.019  0.1237  0.1219  0.1225
    1W        W37839   6.506  17.573   2.725 -0.2626 -0.0732  0.0182
    1W        W37840   6.089  12.219   1.687 -0.0146  0.1140 -0.1296
    1W        W37841  19.325  21.233   9.303  0.2000 -0.3512  0.2616
    1W        W37842  10.112  25.689   8.143  0.0462 -0.0929 -0.2950
    1W        W37843  12.719  16.825   7.990 -0.1104  0.2307 -0.1850
    1W        W37844  14.894  21.658   9.430 -0.1745 -0.0041 -0.0024
    1W        W37845  17.544   4.308   7.540 -0.1605  0.2329 -0.0527
    1W        W37846  13.221  23.609   9.353 -0.0358 -0.0654  0.1543
    1W        W37847  11.980   4.008   2.181 -0.0789 -0.0302 -0.0893
    1W        W37848  13.132  22.643   2.594 -0.1288 -0.2787  0.0349
    1W        W37849  25.727  23.226   0.635 -0.2840  0.1203 -0.1383
    1W        W37850  15.077   6.170   1.396 -0.1906  0.0499  0.0340
    1W        W37851   5.246  26.150   8.703 -0.1589 -0.2703 -0.2905
    1W        W37852  20.589   2.622   1.927 -0.0844  0.1832  0.1055
    1W        W37853  25.300  10.180  10.338 -0.0695 -0.0771 -0.0778
    1W        W37854   9.398   5.958   0.904 -0.3668  0.0091  0.2298
    1W        W37855  25.810   6.899   7.512  0.2188  0.0165  0.1466
    1W        W37856  17.153   0.062   1.609  0.0749  0.1423  0.2017
    1W        W37857  11.237  15.219   1.916 -0.2583 -0.0421  0.3118
    1W        W37858  19.138  11.072   1.906  0.3940 -0.1665 -0.1732
    1W        W37859  27.883  26.125   0.350  0.0906 -0.0562 -0.1513
    1W        W37860  24.202   0.858   2.257  0.0050 -0.1343 -0.4441
    1W        W37861   3.277  17.042   2.267 -0.0113 -0.0850 -0.0898
    1W        W37862   1.860   5.708   0.039 -0.0870 -0.3763  0.1738
    1W        W37863  23.094   2.052   3.415 -0.2201  0.1606 -0.0874
    1W        W37864  14.346  14.815   8.563  0.1241 -0.0172 -0.1027
    1W        W37865   5.790  26.453   7.539 -0.3026 -0.3407  0.1623
    1W        W37866  27.784   2.515   1.495 -0.3204 -0.1482 -0.0262
    1W        W37867  21.408  21.102   9.826 -0.0678 -0.1431 -0.1837
    1W        W37868  18.672  16.484   2.541  0.1868  0.4858 -0.1520
    1W        W37869   5.667   8.345   2.084  0.2228 -0.0426  0.0474
    1W        W37870  23.469   1.996   9.395 -0.0273 -0.0305  0.3895
    1W        W37871   6.004  15.003   1.611 -0.0157  0.3526 -0.0382
    1W        W37872   3.546  20.648   7.792  0.1570  0.5246  0.2500
    1W        W37873   6.385  19.932   3.839 -0.1307 -0.0552 -0.1429
    1W        W37874  26.755   9.797   9.197  0.0335 -0.1558 -0.1150
    1W        W37875   1.373   1.582   8.290 -0.0510  0.5231 -0.2930
    1W        W37876  27.297   9.796   9.820  0.0691 -0.0284 -0.0899
    1W        W37877  27.219   1.489   8.924  0.1182  0.2646 -0.1123
    1W        W37878  11.851  24.635   9.316  0.0517  0.1188 -0.2113
    1W        W37879   3.545  12.918   2.188  0.0219  0.2650 -0.0342
    1W        W37880  11.419  13.401   9.422  0.0723  0.0520 -0.0733
    1W        W37881   4.403  24.768   8.325 -0.1596  0.1861 -0.1442
    1W        W37882  15.017  11.113   2.920  0.0916 -0.1043  0.1227
    1W        W37883  17.710   1.100   9.224  0.0175  0.1569  0.2431
    1W        W37884  22.933  23.151   0.974 -0.0003  0.2344  0.0798
    1W        W37885   9.833  16.901   1.615  0.0839 -0.1631 -0.2279
    1W        W37886  21.196  24.228   9.265  0.0761  0.2562  0.0196
    1W        W37887  11.805   4.130   1.689 -0.1965 -0.1930 -0.1531
    1W        W37888  13.600  17.287   3.691  0.2423  0.1964 -0.0781
    1W        W37889   0.407  13.354   0.053 -0.0873  0.0072 -0.0283
    1W        W37890  15.669  28.068  10.231 -0.0514  0.0026  0.0583
    1W        W37891   2.292  27.197   1.791  0.0490 -0.2204  0.1660
    1W        W37892  23.898  27.699   9.384 -0.0026 -0.2929 -0.0441
    1W        W37893  24.574   3.877   8.252 -0.2638 -0.0757  0.2751
    1W        W37894  11.965   2.929   3.821 -0.1841 -0.2340  0.0246
    1W        W37895  15.671  27.096   3.011 -0.0045  0.1057  0.0321
    1W        W37896   0.951  17.867   8.064  0.1365 -0.1215 -0.1167
    1W        W37897  19.242   0.798   7.538  0.0258 -0.1398 -0.1720
    1W        W37898   5.790   4.413   9.720 -0.0318 -0.0464  0.4901
    1W        W37899  20.730   1.222   0.484 -0.3339 -0.0166 -0.2635
    1W        W37900  24.943  27.958   2.600 -0.3254  0.1539 -0.0541
    1W        W37901  22.547  26.497   0.711 -0.0036 -0.0962 -0.2175
    1W        W37902  19.235   6.898   4.039 -0.0468 -0.1537 -0.3426
    1W        W37903  19.548   7.117   8.035 -0.2871 -0.2312  0.0189
    1W        W37904   6.807  10.688   0.596 -0.2122  0.1047 -0.1712
    1W        W37905  16.185  15.248  10.196 -0.1188  0.0518  0.2277
    1W        W37906   5.829  18.814   2.939 -0.0093 -0.2110  0.2293
    1W        W37907   2.963   1.401   9.580 -0.1268 -0.0463  0.0234
    1W        W37908   3.696  15.466   0.839 -0.1906  0.2747 -0.0548
    1W        W37909  13.724  18.834   9.384 -0.4195  0.2717  0.2897
    1W        W37910  16.840   6.407   0.350 -0.0138  0.2861 -0.5797
    1W        W37911  10.058  19.259   2.389 -0.0616 -0.3854 -0.0156
    1W        W37912  24.461   0.494   1.479 -0.2714 -0.1775 -0.1083
    1W        W37913   9.780   3.276   1.801  0.2168  0.3019 -0.2987
    1W        W37914  23.573  19.272   9.306  0.1760 -0.0301  0.4411
    1W        W37915  25.880   6.158   0.040  0.1123  0.1416  0.1504
    1W        W37916   9.110   2.549   7.840 -0.1485  0.1464  0.0219
    1W        W37917  25.319   0.602   3.475  0.0298  0.2240  0.0081
    1W        W37918   5.764  25.488   8.536  0.0965 -0.0455  0.0836
    1W        W37919  20.945  14.268   1.077  0.1602  0.1053  0.1882
    1W        W37920  26.680  20.950   0.646 -0.0914  0.1583  0.0985
    1W        W37921   4.221  20.995   1.985 -0.1142  0.1645 -0.1946
    1W        W37922   7.613  11.075   8.027 -0.1322  0.2407  0.1707
    1W        W37923   2.714  11.826   9.544  0.0564 -0.1370 -0.1256
    1W        W37924  16.751   2.572   2.519  0.0495  0.0703  0.1624
    1W        W37925  13.530   8.657   9.829  0.1142  0.0780  0.0626
    1W        W37926  16.002  24.413   1.359 -0.1985 -0.0836  0.0035
    1W        W37927  15.304   2.639   2.639 -0.2081  0.1000 -0.1228
    1W        W37928  16.253  21.206   9.246 -0.1354 -0.5704  0.5210
    1W        W37929  10.608  26.811   8.023  0.1680 -0.0268 -0.1074
    1W        W37930  23.715   6.338   0.391 -0.1944  0.1040 -0.0812
    1W        W37931   1.396  14.613  10.283 -0.0597  0.0979  0.2819
    1W        W37932   8.512   9.740   9.001 -0.1598  0.2345 -0.0259
    1W        W37933   0.563  20.406   9.716  0.2057 -0.1864  0.0896
    1W        W37934  22.549   9.149  10.296 -0.0601 -0.2227  0.0058
    1W        W37935  19.984   2.367   9.136 -0.1514 -0.2217 -0.0574
    1W        W37936   6.053  18.511   9.972  0.3511  0.1061  0.3057
    1W        W37937   8.242  13.925   3.192  0.1474  0.2128 -0.4178
    1W        W37938   4.133   0.180   9.208 -0.0260  0.0302  0.3032
    1W        W37939  19.796   2.366   9.847 -0.0905  0.1402  0.0726
    1W        W37940   6.347   5.969   1.818  0.0139  0.3815 -0.0409
    1W        W37941   9.715   3.630   1.442  0.1009 -0.1227 -0.0237
    1W        W37942  23.907  27.610   9.889 -0.1959  0.2713  0.3189
    1W        W37943  16.982   9.887   4.456 -0.2759 -0.1318 -0.4156
    1W        W37944   1.526  20.865   6.514 -0.1242  0.4175 -0.0786
    1W        W37945  16.806  24.568   8.087  0.0395  0.4105 -0.3742
    1W        W37946  16.576   2.812   2.034 -0.1041 -0.1859  0.2404
    1W        W37947  20.182  17.313   2.826  0.0757  0.0474 -0.2757
    1W        W37948  20.859   3.874   2.987  0.1010  0.0414 -0.1818
    1W        W37949  26.520  11.395   8.062  0.1211  0.0754 -0.1459
    1W        W37950   7.508  23.763   0.025 -0.0059  0.3221  0.0941
    1W        W37951   9.494  18.118   3.065  0.1602  0.1888 -0.0213
    1W        W37952  14.887   9.844   9.063 -0.1450 -0.0398 -0.1615
    1W        W37953  15.720  20.414  10.207  0.5953  0.2902  0.0258
    1W        W37954  24.471  21.500   2.425 -0.2732  0.3745 -0.0344
    1W        W37955  10.195   2.873   3.002 -0.3165 -0.0900 -0.0680
    1W        W37956  15.168   8.725   8.656  0.2428 -0.0363 -0.2373
    1W        W37957  15.781  27.885   2.091  0.1967  0.1388 -0.2951
    1W        W37958   5.597   3.310   0.913  0.4337  0.2163 -0.3608
    1W        W37959   7.134   0.216   9.269  0.1060 -0.0786 -0.1843
    1W        W37960   6.210   9.119   2.605 -0.0289 -0.0245  0.1870
    1W        W37961  21.870  20.374   3.290  0.1012  0.2968  0.2866
    1W        W37962  27.424  18.548   7.595 -0.0605  0.0777 -0.2309
    1W        W37963  27.064  26.723   1.177 -0.1301 -0.1666  0.3864
    1W        W37964   5.963  27.783   2.603  0.2638 -0.0793  0.1124
    1W        W37965   5.929  28.007   7.343 -0.1279  0.0584 -0.0650
    1W        W37966  24.726   1.267   7.888  0.2149  0.1174  0.0202
    1W        W37967   5.622   0.326   0.782  0.0633  0.1835 -0.1756
    1W        W37968   0.687  27.406   2.760  0.3577 -0.3530 -0.1952
    1W        W37969  12.594  26.798   7.830  0.1709  0.2102 -0.0661
    1W        W37970   0.034  26.600   7.623  0.2776 -0.1871 -0.0053
    1W        W37971   2.828  11.987   7.566 -0.2333 -0.1968 -0.0462
    1W        W37972   9.489   2.329   0.196  0.0795 -0.2438  0.0635
    1W        W37973  27.252   5.326   0.460 -0.2405  0.2145 -0.2495
    1W        W37974   1.421  17.248   7.475 -0.3729  0.0259 -0.2899
    1W        W37975  11.499  14.509   8.868  0.4780  0.0357  0.0802
    1W        W37976  24.779  26.032   2.305  0.1240 -0.0386  0.1587
    1W        W37977  27.059  22.944   7.620  0.2179  0.0096  0.1206
    1W        W37978   1.652  17.615  10.132 -0.0655 -0.3008  0.0704
    1W        W37979   3.779   8.990   1.340 -0.1448 -0.0239 -0.0008
    1W        W37980  13.648  11.276  10.048  0.0720  0.1767 -0.0707
    1W        W37981   9.687  16.449   2.580  0.1656 -0.0463 -0.2272
    1W        W37982  14.223  26.695   8.261  0.0821  0.1475  0.1571
    1W        W37983  25.880  18.148   1.341  0.0940  0.0594 -0.1149
    1W        W37984   9.952  25.624   0.440 -0.0306 -0.0603  0.0473
    1W        W37985  16.140   9.428   7.759  0.1788  0.0991  0.0130
    1W        W37986   7.058  23.034   9.252 -0.2393 -0.2762  0.0502
    1W        W37987  18.119  15.947   8.205  0.1258  0.2578 -0.0422
    1W        W37988  19.469   8.722   1.341 -0.1138 -0.3021  0.1397
    1W        W37989   3.164  21.937   9.552 -0.3026 -0.1213  0.0519
    1W        W37990   6.767   2.614  10.193  0.0227  0.3239  0.1461
    1W        W37991   2.870   0.381   8.835  0.0201  0.0744 -0.0594
    1W        W37992   7.657  11.128   0.537  0.2149  0.4757 -0.0930
    1W        W37993   3.352  16.861   0.476 -0.0539 -0.0798 -0.1544
    1W        W37994   3.036  16.614   0.123 -0.0430  0.2509 -0.3601
    1W        W37995  16.037  17.120   2.462 -0.2436  0.1826  0.2869
    1W        W37996   5.534  20.387   8.851 -0.0539 -0.2612 -0.1184
    1W        W37997  12.152  19.526   8.731 -0.1402  0.1978 -0.1239
    1W        W37998   5.375   9.917   7.369 -0.0132  0.0785  0.0615
    1W        W37999  21.855  19.547   1.424 -0.1671 -0.1197  0.0222
    1W        W38000  15.710  22.797   0.370  0.1743 -0.0782  0.3314
    1W        W38001  24.549   3.123   7.595  0.3653 -0.4485  0.1385
    1W        W38002  25.952   1.869   2.160  0.4840 -0.1393 -0.0168
    1W        W38003  24.662  20.880   2.212  0.0194 -0.0397  0.2161
    1W        W38004  12.727  17.614   9.540  0.1295  0.3650  0.0519
    1W        W38005   2.128   9.545   8.183  0.2172  0.0027  0.1553
    1W        W38006   7.273   0.206   0.776  0.1981  0.3973 -0.1782
    1W        W38007  15.512  14.101   8.918  0.2333 -0.0085 -0.2039
    1W        W38008  26.136  16.213   7.382 -0.2548 -0.2260 -0.0563
    1W        W38009  21.223   0.338   1.059  0.0445  0.0084  0.1641
    1W        W38010  15.198   7.859   0.803 -0.1403  0.0943  0.2206
    1W        W38011  25.257  15.166   1.980  0.1403  0.2459  0.1794
    1W        W38012   0.147  20.322   0.632 -0.1656  0.1206 -0.1036
    1W        W38013   4.246  15.321   0.011 -0.2151 -0.1395  0.0462
    1W        W38014  18.894  25.962   8.332  0.3306  0.0223  0.2764
    1W        W38015   6.639   7.599   6.306 -0.1437  0.2043 -0.0159
    1W        W38016  18.329   6.705   7.511  0.0084 -0.2167 -0.0374
    1W        W38017  11.500   7.990   1.150  0.3123  0.1219 -0.1275
    1W        W38018  20.357  24.338   7.817 -0.2533 -0.2176 -0.1665
    1W        W38019  10.852   9.375   0.387 -0.1455  0.0466 -0.0757
    1W        W38020   2.113  22.604  10.163 -0.3591  0.0259  0.2556
    1W        W38021  13.531  10.604   9.040 -0.0098  0.1008  0.0157
    1W        W38022  17.181   7.205   8.036  0.2529 -0.0937  0.1287
    1W        W38023   7.917  19.209   8.101  0.2090 -0.0101 -0.1539
    1W        W38024  18.045   2.001   8.796  0.1281 -0.0359 -0.0826
    1W        W38025   6.733  17.874   2.253  0.0384 -0.2146 -0.0487
    1W        W38026   8.944   6.318   8.838 -0.0623 -0.0406 -0.0145
    1W        W38027  11.025  16.058   2.463  0.1301  0.2627 -0.0682
    1W        W38028  17.402  17.923   8.370 -0.1539 -0.0250 -0.1943
    1W        W38029   6.707   5.863  10.127  0.1001  0.0151  0.3699
    1W        W38030  12.192  27.075   7.342 -0.1720 -0.0686 -0.0200
    1W        W38031  15.755  20.920   7.669 -0.0724  0.1925  0.0237
    1W        W38032   9.151   1.531   2.508  0.2490 -0.2358 -0.0397
    1W        W38033  14.007   6.738   3.242  0.0280  0.0922  0.0268
    1W        W38034   1.659  21.357   2.001  0.1695 -0.0346  0.0948
    1W        W38035  23.373   5.894   1.624  0.1926  0.1980 -0.1488
    1W        W38036  25.330  23.555   7.249  0.0352 -0.0954  0.3264
    1W        W38037  26.970  14.201   2.262 -0.1064  0.0064  0.0737
    1W        W38038  19.985  16.884   8.837  0.0005 -0.1686 -0.1708
    1W        W38039   6.039  27.052   1.589 -0.3136  0.1266  0.1654
    1W        W38040   7.518  20.873   3.027 -0.0079 -0.2232  0.0500
    1W        W38041  24.548   5.236   2.280  0.3517 -0.2440  0.1657
    1W        W38042  13.604  12.258   8.330  0.1059 -0.1484 -0.2770
    1W        W38043  23.913  22.828   3.079  0.0032  0.2893  0.1127
    1W        W38044  13.676   3.956   0.584  0.3691  0.3584 -0.2800
    1W        W38045  23.195  12.180   9.185 -0.2433 -0.0652  0.0431
    1W        W38046   2.381  23.191   7.895  0.0422 -0.1294 -0.1674
    1W        W38047  19.638   0.472   0.805  0.0075 -0.1426 -0.0783
    1W        W38048  20.804  10.600   9.551  0.0491  0.1288 -0.0854
    1W        W38049   7.293   1.991   7.206  0.0640  0.0678  0.0277
    1W        W38050   4.171   3.142   9.747  0.3210  0.2202 -0.0753
    1W        W38051  25.546  23.197  10.037  0.2298 -0.0385  0.0107
    1W        W38052   8.075   3.101   0.323 -0.1617 -0.1356  0.0851
    1W        W38053  11.133  21.886   3.644  0.0904  0.1273 -0.0722
    1W        W38054  15.407  13.993   1.953 -0.1356  0.1589 -0.1009
    1W        W38055   5.415   9.319   8.510 -0.0396 -0.4322 -0.0999
    1W        W38056   8.043  27.901   8.656  0.0546  0.4308 -0.2651
    1W        W38057  26.652   8.207   7.421 -0.1908 -0.0959  0.1298
    1W        W38058  27.952  21.910   9.714  0.2718 -0.0775  0.1622
    1W        W38059  19.622   9.774   0.706  0.0754 -0.2982  0.1257
    1W        W38060  24.940   0.752   9.167  0.1368 -0.2122 -0.0494
    1W        W38061  19.661  17.521   7.868  0.3749 -0.1091  0.0669
    1W        W38062  19.939  10.571   7.488 -0.0566  0.2067  0.0189
    1W        W38063   1.602  16.343   1.255  0.0370 -0.1835 -0.0242
    1W        W38064  26.009  25.026   9.610  0.0842  0.2026 -0.1904
    1W        W38065   1.104  12.905   0.548 -0.0055  0.2032 -0.1168
    1W        W38066  24.742  10.503   1.087  0.0524 -0.1825 -0.0508
    1W        W38067  24.482  18.402   0.756  0.3914 -0.0920  0.1909
    1W        W38068   6.171  12.752   2.843 -0.2029 -0.2949 -0.0459
    1W        W38069  27.621  19.841   6.962 -0.2859  0.1099 -0.2001
    1W        W38070   4.626  19.916   0.279 -0.1149 -0.0230  0.2951
    1W        W38071  17.097  13.882   8.823 -0.3170  0.2624 -0.0148
    1W        W38072   1.157  13.645   9.378  0.0825 -0.1732  0.0736
    1W        W38073  14.394   7.284   0.004 -0.2054  0.0299  0.1334
    1W        W38074  23.256  18.599   2.084 -0.0277  0.1488  0.1757
    1W        W38075  21.308   4.548   1.392 -0.3041  0.2458  0.0776
    1W        W38076  19.413  22.026   1.824 -0.0706  0.2449 -0.2231
    1W        W38077  15.402   2.391   2.130 -0.1578 -0.1918 -0.0817
    1W        W38078   8.915   3.718   2.690 -0.1439  0.2929 -0.1238
    1W        W38079  23.915  16.244   2.579 -0.3024 -0.1180 -0.0111
    1W        W38080  26.128   1.646   0.037  0.0128 -0.2389  0.1298
    1W        W38081  18.327  17.955   2.964 -0.1327 -0.1317  0.2548
    1W        W38082  23.525  27.943   2.779  0.1214 -0.0987  0.2853
    1W        W38083   7.249  19.508   3.290  0.2961 -0.2243 -0.0013
    1W        W38084  21.492  21.669   3.190  0.0743  0.0621 -0.1705
    1W        W38085  13.643   5.488   9.176  0.1213  0.0966 -0.0183
    1W        W38086  21.717  11.691   3.618 -0.0877 -0.3298 -0.0697
    1W        W38087   7.589   1.660   9.055 -0.0698 -0.1127 -0.2719
    1W        W38088  24.156  16.750   3.802  0.1525 -0.1293  0.1365
    1W        W38089  17.319  25.719   8.928 -0.0867 -0.3303  0.4098
    1W        W38090   4.318  11.128   7.466 -0.1757 -0.0619  0.0033
    1W        W38091  18.944   8.282   8.538  0.0164  0.1825 -0.1532
    1W        W38092   2.828  17.920   8.553 -0.1682  0.0798 -0.0236
    1W        W38093   4.090  22.398   9.166  0.0045 -0.2024 -0.3160
    1W        W38094  27.961   6.607   0.290  0.2406  0.5429 -0.3534
    1W        W38095   9.364  21.801   7.889  0.2880 -0.0489  0.2579
    1W        W38096   3.706  27.646   7.590  0.3207  0.0228 -0.0732
    1W        W38097   3.166   9.803   1.818 -0.0786  0.1462 -0.0663
    1W        W38098  20.472   3.551   7.111 -0.0839  0.2949 -0.1644
    1W        W38099  11.474  25.226   6.395 -0.0438  0.2462  0.0153
    1W        W38100  15.490  21.076   1.851  0.1751  0.0478  0.0635
    1W        W38101  16.739  25.525   2.483 -0.4912 -0.2244  0.3687
    1W        W38102  27.204  16.625   7.859 -0.1084 -0.0888 -0.1107
    1W        W38103  21.040   1.908   7.017  0.2521  0.1710  0.0409
    1W        W38104  21.036  20.644   8.914 -0.0273  0.3049  0.0089
    1W        W38105  17.562  10.277   2.178 -0.1202 -0.1538 -0.0435
    1W        W38106  27.591  21.329   2.278  0.0505 -0.2465  0.3242
    1W        W38107  19.025  14.294   8.831 -0.2205  0.1340 -0.0650
    1W        W38108   1.992   6.208   0.273  0.0352  0.2050 -0.2344
    1W        W38109   1.288  12.978   7.915 -0.0677  0.2382  0.0133
    1W        W38110  15.544  24.283   7.872  0.0837 -0.0230  0.1338
    1W        W38111  20.592  10.755   1.637 -0.3695 -0.3873 -0.3201
    1W        W38112  17.626  27.465   9.589  0.0493  0.1307 -0.1614
    1W        W38113   9.264   7.489   8.392 -0.0157 -0.2173  0.0550
    1W        W38114   4.493   8.881  10.292  0.0043  0.0902 -0.0821
    1W        W38115  14.354   8.498   8.441 -0.1062 -0.0869 -0.2036
    1W        W38116  19.301   6.971   0.318  0.3722 -0.0483  0.1844
    1W        W38117  12.288  12.109   2.866 -0.1479  0.0408 -0.1231
    1W        W38118   7.574  10.632   7.432  0.0247  0.1360  0.0528
    1W        W38119  18.066   4.316   2.897 -0.0657 -0.0814  0.0002
    1W        W38120  13.392  10.021   1.039  0.1359 -0.0193  0.0392
    1W        W38121  27.386  22.498   2.187 -0.2793  0.2131 -0.0586
    1W        W38122  19.406   9.565   7.402  0.1909 -0.0627 -0.1471
    1W        W38123  21.229   3.430   6.770 -0.1413  0.3422  0.2918
    1W        W38124  22.742  18.659   1.828  0.0741 -0.0765 -0.0237
    1W        W38125  21.892  11.666   8.294  0.0389  0.1580  0.0232
    1W        W38126   5.390  22.455   9.875 -0.3120 -0.1369  0.3224
    1W        W38127  15.366  11.280   8.695  0.0405  0.0088 -0.0755
    1W        W38128   5.422  27.515   9.937  0.1127  0.1625  0.1252
    1W        W38129  20.102   8.058   8.544 -0.0379 -0.0783 -0.8131
    1W        W38130   4.365   6.796   8.325 -0.0322  0.0502  0.2451
    1W        W38131   8.641  27.777   7.876  0.1632 -0.5491  0.1870
    1W        W38132  26.104   9.000   0.705 -0.1545  0.1080  0.4084
    1W        W38133  25.474  25.580   0.946 -0.4672  0.2788 -0.2058
    1W        W38134  25.275  23.833   8.671 -0.1534  0.1121 -0.0516
    1W        W38135  20.659  17.565   0.468  0.0998 -0.0423  0.0035
    1W        W38136  19.762   1.237   1.030 -0.0114  0.3135 -0.1596
    1W        W38137  10.651   4.443   0.182 -0.0966 -0.0672  0.0816
    1W        W38138  27.360   6.950   7.862 -0.1106 -0.1516 -0.0944
    1W        W38139   2.292  20.852   7.383 -0.5073  0.0913  0.0597
    1W        W38140   1.448  22.897   9.198 -0.2505 -0.1706 -0.1380
    1W        W38141   5.650  19.397   9.675  0.3086  0.4801 -0.1297
    1W        W38142  17.514   7.461   9.117  0.2699  0.1972 -0.0752
    1W        W38143  27.947  19.279   2.853 -0.2206 -0.3882  0.1156
    1W        W38144  23.342  27.461   8.751 -0.1623  0.0735  0.2023
    1W        W38145  11.144   1.043   0.108  0.3578  0.1009 -0.0558
    1W        W38146  21.571  21.502   9.551  0.0147 -0.2837  0.0294
    1W        W38147  19.625  18.811   3.680 -0.4046  0.5568 -0.1683
    1W        W38148  11.526  17.118   2.506 -0.1542 -0.1085  0.2780
    1W        W38149   0.551   4.637   6.041  0.1298 -0.0439 -0.1838
    1W        W38150  28.044  25.436   1.333 -0.1434 -0.3219 -0.0800
    1W        W38151  23.986  15.768   1.919  0.0037  0.1177 -0.2602
    1W        W38152  21.063  27.751   1.428  0.0848 -0.2696 -0.1371
    1W        W38153   0.924  12.991   9.611  0.1271 -0.3894  0.0187
    1W        W38154   7.777  20.960   7.218 -0.0555  0.1861  0.1177
    1W        W38155  18.037   7.930   7.351  0.0480 -0.2092 -0.0955
    1W        W38156  10.385  24.327   1.210 -0.1211  0.3873 -0.2134
    1W        W38157   1.241   4.208   9.998 -0.2537 -0.1877  0.1044
    1W        W38158  10.782  19.998   0.935 -0.2777  0.0745 -0.0815
    1W        W38159   4.390   9.527  10.000 -0.0785  0.0399  0.1132
    1W        W38160  23.810  12.810   7.741 -0.2902 -0.3313  0.1382
    1W        W38161   4.541  10.648   3.685  0.3348  0.3072  0.1352
    1W        W38162  14.225   4.070   0.691 -0.4288 -0.1024 -0.3067
    1W        W38163   2.830  22.152   7.180 -0.0046 -0.3395 -0.0239
    1W        W38164  10.411  12.030   9.487 -0.3979  0.1072 -0.0877
    1W        W38165   0.619   9.850   9.451  0.0444  0.1085 -0.0571
    1W        W38166   0.547  27.283   0.647 -0.0208 -0.0109 -0.1714
    1W        W38167   0.592   8.789   8.747  0.2600  0.0192  0.1590
    1W        W38168  10.238  13.576   8.319 -0.1456  0.0768 -0.1318
    1W        W38169  18.604   9.150   1.170 -0.0707 -0.1071 -0.3956
    1W        W38170   8.238   6.621   0.989 -0.1146 -0.0858 -0.0541
    1W        W38171  22.785   5.874   8.320  0.1814  0.0866 -0.1360
    1W        W38172  16.651   7.253   7.309  0.2501 -0.2739 -0.1482
    1W        W38173  28.087  11.397   9.860 -0.2512  0.1531 -0.1808
    1W        W38174   1.845  23.923   1.773  0.0467  0.1843 -0.2000
    1W        W38175  16.678  18.366   2.820 -0.2974 -0.2589 -0.2591
    1W        W38176   7.207  21.510   1.349  0.1381  0.1019  0.0100
    1W        W38177  27.837  13.709   0.225  0.0833  0.0505 -0.1353
    1W        W38178  18.217   9.839   9.105 -0.0541  0.0394 -0.2936
    1W        W38179   4.665  11.187   2.393  0.1030  0.0329 -0.0860
    1W        W38180  27.034  19.083   1.997 -0.1498 -0.0993 -0.2596
    1W        W38181   6.750   1.124   7.830 -0.1662 -0.2441 -0.3199
    1W        W38182  27.351  19.410   1.814 -0.3127  0.0539 -0.1754
    1W        W38183   4.708   3.303   1.381 -0.0875 -0.0599 -0.1527
    1W        W38184  11.332   4.599   8.583 -0.0250 -0.0255 -0.1578
    1W        W38185   1.291  17.564   1.301  0.2843 -0.0144 -0.0231
    1W        W38186  22.297   0.146   1.184 -0.1219  0.2809 -0.3309
    1W        W38187  22.366   2.236   2.007 -0.2865  0.1017 -0.1936
    1W        W38188  27.545  14.892  10.228  0.3999 -0.0233 -0.3753
    1W        W38189  13.114   2.550  10.002  0.0401  0.1467  0.0733
    1W        W38190   3.288  19.065   1.717  0.4270  0.0674  0.0162
    1W        W38191  24.295  25.339   8.526 -0.1306  0.0258  0.0094
    1W        W38192   7.429   0.529   0.475 -0.0784 -0.0541  0.0903
    1W        W38193  10.946  21.925   0.747 -0.2069  0.1155 -0.2457
    1W        W38194  16.077  18.631   9.781  0.0494  0.0920 -0.1630
    1W        W38195  14.628  24.986   7.391  0.0150 -0.0717 -0.2311
    1W        W38196   3.996   7.312   6.364  0.0573  0.2655  0.0746
    1W        W38197  13.214  23.712   8.870  0.0217  0.0910 -0.1417
    1W        W38198   5.888  20.264   0.811 -0.0042 -0.0762  0.1130
    1W        W38199  13.532   3.749   9.026  0.3196  0.0837  0.1133
    1W        W38200  17.109  16.650   8.445 -0.0056  0.4549 -0.0544
    1W        W38201  13.091  25.958   2.267 -0.1770  0.2923 -0.1199
    1W        W38202   0.501  20.438   6.022  0.3590 -0.1111  0.3786
    1W        W38203   1.089   2.747   6.847  0.1997 -0.0417  0.0099
    1W        W38204   0.745  27.871   2.573 -0.0140  0.4407  0.4198
    1W        W38205   2.949  11.033   9.943 -0.2280  0.0826 -0.3098
    1W        W38206  17.547   4.927   0.934  0.0119  0.0096  0.1364
    1W        W38207  16.966  18.343   1.810 -0.1225 -0.2030  0.0301
    1W        W38208  21.118   4.395   8.617 -0.0767  0.1491 -0.0781
    1W        W38209   3.066  12.783   9.715 -0.0123 -0.2908  0.4380
    1W        W38210  13.938   3.502   9.185  0.3108  0.4554 -0.2352
    1W        W38211   5.176   1.484   2.015 -0.0854 -0.4516  0.1779
    1W        W38212  24.372   7.158   8.265  0.0241  0.0989  0.2298
    1W        W38213   3.624   7.041   9.127 -0.1478  0.1594  0.1988
    1W        W38214  16.266  10.334  10.027  0.2419 -0.4487 -0.4250
    1W        W38215  21.817  19.100   3.723 -0.0286  0.2764  0.1952
    1W        W38216  22.596  13.252   2.924  0.0956  0.3753  0.0608
    1W        W38217   9.187   9.152   0.562 -0.0639 -0.0060  0.0474
    1W        W38218  16.242  16.242   3.471 -0.1453 -0.3990  0.0166
    1W        W38219  25.829  25.926   1.063 -0.3011 -0.0744 -0.2451
    1W        W38220  15.926   7.418   8.807  0.0393  0.3927  0.0473
    1W        W38221  18.142  14.529   2.359  0.2197  0.1233  0.2378
    1W        W38222  16.385   5.636   2.568 -0.0598  0.3222 -0.1966
    1W        W38223   3.928  15.286   3.240 -0.0901 -0.0028 -0.1083
    1W        W38224  23.794  23.566   1.816 -0.0975  0.0691  0.0953
    1W        W38225  13.613   4.489   8.336  0.0041 -0.0853 -0.0090
    1W        W38226  12.550   1.468  10.308  0.0479 -0.2047 -0.1916
    1W        W38227  12.169  24.855   8.950 -0.1886  0.0450  0.3024
    1W        W38228  16.186  25.430   8.381 -0.2856 -0.0453  0.2551
    1W        W38229   3.724   0.844   9.882 -0.1546 -0.0102  0.5444
    1W        W38230  12.078   6.387   2.090 -0.1121 -0.3869 -0.2777
    1W        W38231   0.744  18.144   7.121  0.2493  0.1621  0.0591
    1W        W38232  14.717   4.922   8.522  0.1329 -0.1015  0.3552
    1W        W38233   3.817  11.649   1.668 -0.0333 -0.1928  0.0468
    1W        W38234   7.350  13.269   2.400  0.3669  0.3121  0.1016
    1W        W38235  18.378   8.343   8.466  0.1132 -0.2232  0.0332
    1W        W38236   9.376   4.865   2.318  0.0943 -0.1248  0.0451
    1W        W38237   3.404  22.466   1.495  0.0332  0.1307  0.0353
    1W        W38238  20.818   5.443   9.829 -0.0098  0.1703 -0.1846
    1W        W38239  10.143  13.519   3.105  0.1565 -0.1929 -0.1342
    1W        W38240   7.876   9.888  10.269 -0.0065 -0.0398  0.0729
    1W        W38241  26.867  20.001   9.605  0.0494  0.2020  0.0259
    1W        W38242   3.345   9.609   8.981  0.3851 -0.1233 -0.2295
    1W        W38243   1.321  16.694   2.078 -0.0945  0.1558 -0.1402
    1W        W38244   1.712  18.669   7.082  0.1340 -0.0049  0.1748
    1W        W38245  17.493   8.442   9.053  0.4361 -0.0184 -0.4258
    1W        W38246   1.309  28.073   6.639  0.2497  0.1639  0.0088
    1W        W38247   1.376  10.616   8.610  0.1386 -0.2793 -0.0882
    1W        W38248  24.527  11.588  10.306  0.1426 -0.2767  0.1111
    1W        W38249   0.204  27.196   2.646 -0.1583 -0.0277 -0.4069
    1W        W38250   8.085   1.987   0.330 -0.0206 -0.1844  0.0629
    1W        W38251  25.989   3.077   6.424  0.0431  0.1147  0.0849
    1W        W38252   6.989  27.182   7.456 -0.0050 -0.0520 -0.0444
    1W        W38253  26.780  15.259   2.399 -0.2666 -0.0564 -0.2102
    1W        W38254  10.543   5.457   0.013  0.1085  0.0963  0.1345
    1W        W38255   5.282  14.012  10.249 -0.0399  0.0820 -0.0643
    1W        W38256  10.981  15.679   2.780  0.2259  0.1079  0.0672
    1W        W38257  16.502  21.482   8.715  0.3836  0.2626 -0.2351
    1W        W38258  23.517   0.339   7.255 -0.0036  0.0117 -0.0721
    1W        W38259  21.579  11.660   3.122  0.0198 -0.1263  0.2831
    1W        W38260   0.254  15.160   1.002  0.3729 -0.0948 -0.2511
    1W        W38261   4.359  20.730   7.864  0.0644 -0.2818  0.0331
    1W        W38262  10.958  18.337   9.332  0.1143  0.1801  0.0358
    1W        W38263  18.695   5.873   2.197 -0.0166  0.2271 -0.0136
    1W        W38264   5.292  20.268   1.146  0.2072 -0.0823  0.0270
    1W        W38265  16.857   9.742   0.541  0.1352 -0.3837  0.2789
    1W        W38266  18.521   4.948  10.137  0.0581 -0.1324  0.0642
    1W        W38267   9.354  13.544   8.790  0.1758  0.0431  0.3330
    1W        W38268   9.053   9.349   7.582  0.0875  0.2302 -0.0939
    1W        W38269  12.911  17.710   3.342 -0.2135  0.1007  0.2063
    1W        W38270   2.411  21.810   1.907  0.1632 -0.0536  0.1380
    1W        W38271   5.912  15.643   1.414 -0.0141  0.0456  0.1258
    1W        W38272  26.707   5.547   1.361 -0.1743 -0.2386 -0.0144
    1W        W38273   1.007  16.922  10.348 -0.1074  0.1429  0.1680
    1W        W38274  17.640   7.860   8.332  0.0196  0.0230  0.1393
    1W        W38275   4.179  19.501   9.416  0.0439 -0.2624 -0.1528
    1W        W38276  19.643   9.968   0.095  0.0146  0.1437 -0.1534
    1W        W38277  19.661   4.144   0.178 -0.0566 -0.4479 -0.0677
    1W        W38278  24.332  17.134   7.525 -0.1579  0.0934  0.1369
    1W        W38279  16.979   4.490   8.214  0.0335  0.0577 -0.3124
    1W        W38280   0.495  19.902   7.776  0.0752 -0.2299 -0.2023
    1W        W38281  12.793  13.593   2.649 -0.0977  0.1228 -0.0633
    1W        W38282  15.880  10.949   3.342  0.1163  0.1570  0.1557
    1W        W38283  26.391   0.239   2.603  0.1769  0.1200  0.1800
    1W        W38284  11.388   6.062   7.969  0.0290  0.0784  0.0872
    1W        W38285  24.881  21.583   1.222 -0.1183  0.1209  0.3789
    1W        W38286  23.003   6.473   9.997 -0.0689 -0.2738  0.0753
    1W        W38287   2.406  12.606   0.745  0.0547  0.0726 -0.0217
    1W        W38288  21.559   6.541   1.798 -0.0474 -0.0599 -0.0595
    1W        W38289  11.404  18.925  10.204 -0.0857 -0.2171  0.1385
    1W        W38290  20.343   1.262   3.184 -0.0285 -0.2213 -0.0727
    1W        W38291   0.313   9.088   6.541  0.0875 -0.0906 -0.0396
    1W        W38292  24.715   0.751   8.201 -0.1823  0.2052  0.0771
    1W        W38293  23.652  24.682   9.515  0.1720  0.1607 -0.2262
    1W        W38294  10.094   1.213   1.328  0.5647 -0.2285  0.0691
    1W        W38295   8.974   4.370   8.915  0.3718  0.2016 -0.0320
    1W        W38296  19.843   9.679   7.810  0.0664 -0.0803 -0.4755
    1W        W38297  26.544   3.592   7.166 -0.1109  0.3556  0.1729
    1W        W38298  15.896   9.216   8.734  0.0078 -0.0324  0.2257
    1W        W38299  19.969   2.293   0.849  0.0644 -0.0498  0.2613
    1W        W38300  14.008  13.371   9.431 -0.2889 -0.1472 -0.2485
    1W        W38301  19.150   5.326   1.521  0.2176 -0.1198 -0.0401
    1W        W38302  11.461  10.067   0.214 -0.0115 -0.1041  0.3922
    1W        W38303  26.109  12.720   0.773 -0.0618 -0.0008 -0.0859
    1W        W38304  15.882  16.346   8.171 -0.4598 -0.2049 -0.2571
    1W        W38305   3.918  27.545   1.256  0.1568 -0.2364  0.1117
    1W        W38306  12.484   1.316   7.476 -0.2299 -0.1573  0.0377
    1W        W38307   6.042  19.786   9.434 -0.0302 -0.2400 -0.1149
    1W        W38308  11.379  12.871   3.038  0.2042 -0.2987 -0.1464
    1W        W38309  12.768   6.681   0.907  0.2961 -0.0266 -0.0683
    1W        W38310  25.625   0.248   0.108 -0.0556 -0.0566  0.1094
    1W        W38311  21.843   3.902   9.860 -0.0618  0.0939 -0.1985
    1W        W38312  10.602   5.438   2.587 -0.1838  0.1347  0.1294
    1W        W38313  20.485   6.655   1.410  0.0689 -0.3231 -0.0633
    1W        W38314  18.066  20.425   0.585 -0.0495 -0.2422  0.1424
    1W        W38315  13.130  12.480   8.599 -0.1324 -0.0366 -0.0710
    1W        W38316  21.254  16.094   8.335  0.0553 -0.2967 -0.2347
    1W        W38317  16.149   8.212   0.895  0.0633  0.1331 -0.1794
    1W        W38318   9.384  14.692   2.267 -0.0541  0.0660 -0.0261
    1W        W38319  17.815   5.833   9.459  0.0307  0.0050  0.0917
    1W        W38320   5.238  26.304   9.301 -0.1216 -0.0698 -0.0498
    1W        W38321  21.636  23.562   3.275 -0.0694  0.2492 -0.2809
    1W        W38322  23.009   3.837   1.584  0.1507  0.2074 -0.1494
    1W        W38323   3.542  27.590   0.122  0.1741 -0.1672 -0.3470
    1W        W38324  25.113   9.565   1.513  0.2897  0.2035 -0.1601
    1W        W38325   8.960  28.090   1.837  0.1812  0.0620 -0.1394
    1W        W38326  19.965  25.350   9.632  0.1561 -0.0611  0.0800
    1W        W38327  10.666  20.220   0.458  0.0450  0.2298 -0.6463
    1W        W38328  12.442  23.463   9.727 -0.1070 -0.1479  0.2233
    1W        W38329   1.947  19.134   3.141  0.1514  0.0173  0.1450
    1W        W38330   1.291  21.327   0.237  0.0961  0.2363 -0.2229
    1W        W38331  27.927  14.972   8.224  0.2953  0.1279  0.1049
    1W        W38332   6.065   6.342   1.336 -0.1251  0.1057  0.1363
    1W        W38333  24.765  16.425   8.301  0.1315 -0.2279 -0.0582
    1W        W38334  25.465  14.047   2.326  0.2924  0.1202  0.0735
    1W        W38335   1.211  19.375   9.310 -0.2190 -0.1305 -0.0080
    1W        W38336  17.864   5.650   1.416 -0.0806 -0.6241 -0.0219
    1W        W38337  16.761  11.825   7.481  0.0507  0.2317 -0.1536
    1W        W38338   8.055  17.043   8.085  0.0762 -0.0138 -0.3687
    1W        W38339  16.894   6.929   7.661  0.1582  0.2237 -0.0007
    1W        W38340  18.969  13.812   1.807  0.1812  0.1003  0.0933
    1W        W38341  23.186  11.984   1.272 -0.3431 -0.0144 -0.0078
    1W        W38342  16.004   6.527   3.605  0.1298 -0.0372 -0.0973
    1W        W38343  11.715   7.826   3.376  0.3383  0.1803  0.1529
    1W        W38344  24.767  23.330  10.046  0.0331  0.2487 -0.1865
    1W        W38345   2.674  20.664   3.433  0.1194  0.0924  0.0028
    1W        W38346  16.915   4.825  10.170  0.0485 -0.0415 -0.1824
    1W        W38347   7.626  17.787   2.638 -0.0507 -0.0569  0.2339
    1W        W38348   8.080   5.543   8.030 -0.3354  0.0664  0.0517
    1W        W38349  20.559  19.477   2.470 -0.1901  0.1188 -0.0722
    1W        W38350   3.844  20.678   2.107  0.0962  0.0381 -0.0495
    1W        W38351  21.547  12.171   2.793  0.0831 -0.1017  0.1221
    1W        W38352  22.361   6.377   9.726 -0.1817 -0.3342  0.1630
    1W        W38353   3.059  22.515   1.870 -0.0425 -0.0992  0.1569
    1W        W38354   2.725  23.967   2.047 -0.0198  0.1340 -0.0895
    1W        W38355  27.864   7.007   2.061  0.2024 -0.1214  0.0153
    1W        W38356  15.136   4.907   2.382  0.0729  0.0604 -0.1483
    1W        W38357  15.986   5.676   1.296  0.1067  0.2319  0.1869
    1W        W38358   1.820  24.975  10.108  0.3596  0.1258  0.2885
    1W        W38359  11.743  14.387   1.714 -0.2252 -0.1885  0.4395
    1W        W38360  13.938  14.675   2.283  0.1788 -0.2150  0.0284
    1W        W38361  27.562   9.236   9.041 -0.0012 -0.3921  0.1132
    1W        W38362  12.185  24.946   0.940  0.1343  0.0819  0.1424
    1W        W38363  13.379  13.932   9.910  0.1654  0.2264 -0.2039
    1W        W38364  19.252   5.444   8.343  0.0578 -0.0435 -0.2072
    1W        W38365  17.010   5.251   2.291  0.0172 -0.0973 -0.2581
    1W        W38366  15.742   0.274   3.414 -0.2138 -0.0693 -0.0827
    1W        W38367  18.529  10.223   2.025 -0.0114  0.2382 -0.1377
    1W        W38368   8.427   5.540   8.409  0.2112 -0.0050  0.2128
    1W        W38369  19.655   8.160   9.768  0.0591  0.1665 -0.4839
    1W        W38370   2.792  15.259   7.317 -0.2140  0.0894 -0.2119
    1W        W38371  18.911  17.931   1.526  0.0600  0.3633 -0.0074
    1W        W38372   5.309  22.520   1.445 -0.0855  0.3093 -0.1521
    1W        W38373   2.343  18.039   8.579  0.2557 -0.0297  0.0983
    1W        W38374   9.142   8.489   9.058 -0.0894  0.1284  0.1125
    1W        W38375  12.317   7.400   8.474 -0.2314  0.0200 -0.0503
    1W        W38376   3.590  26.920   7.523 -0.1646  0.2097  0.0511
    1W        W38377  23.410  13.803   8.707  0.1474 -0.1160 -0.2544
    1W        W38378   2.574   2.200   1.667  0.2081  0.0768 -0.0611
    1W        W38379   4.282  19.275   2.041 -0.0143  0.3795 -0.0450
    1W        W38380  14.035  22.685   3.066 -0.3078 -0.4103 -0.2289
    1W        W38381  25.860   0.049   0.616  0.1147  0.0738 -0.2306
    1W        W38382   5.680  25.690   1.601  0.0164 -0.5303  0.2032
    1W        W38383  18.169   3.095   1.347 -0.1353  0.3636  0.1352
    1W        W38384   1.885   4.684   0.367  0.1502 -0.0052 -0.1435
    1W        W38385   4.877  20.006   9.477  0.2967 -0.2002  0.0258
    1W        W38386  24.308  17.972   1.053  0.2516 -0.3435 -0.1289
    1W        W38387   3.893  10.295   2.592  0.2760  0.0984 -0.0880
    1W        W38388   1.033  14.430   2.702 -0.0405 -0.1325 -0.1550
    1W        W38389   5.319  23.963   2.830  0.0280  0.0973 -0.2021
    1W        W38390  24.832   4.141   0.240 -0.1161 -0.0990 -0.0276
    1W        W38391  12.508  26.813  10.003 -0.2143  0.0736 -0.0885
    1W        W38392   8.725  24.838   1.734  0.0397 -0.1139  0.0483
    1W        W38393   1.789  10.172   7.107  0.0372  0.3100  0.1017
    1W        W38394  20.805  26.130   0.322  0.1348  0.3939 -0.2150
    1W        W38395   5.654  26.747   7.097  0.0308  0.1636 -0.1395
    1W        W38396   9.849  20.185   8.284 -0.2263  0.1278  0.0848
    1W        W38397  19.735   1.531   9.616 -0.0903  0.3333  0.0291
    1W        W38398  12.799   4.109   0.982  0.0452  0.0144  0.2356
    1W        W38399  12.326   7.818   9.694  0.3099 -0.1098 -0.3327
    1W        W38400   5.470  27.953   9.623  0.0133  0.2299  0.4347
    1W        W38401   5.700   0.114  10.227 -0.1974  0.1496  0.2785
    1W        W38402  19.836   3.462   0.834 -0.1693  0.0060 -0.2364
    1W        W38403  16.346   2.603  10.028 -0.0670  0.2111  0.6033
    1W        W38404  28.006   6.269   7.645 -0.0424 -0.1159  0.2652
    1W        W38405  14.878   4.727   9.866 -0.1338 -0.0833  0.0660
    1W        W38406  10.289   7.787   0.712  0.2825 -0.1329 -0.1576
    1W        W38407  16.152  16.829   4.176 -0.2167  0.0926  0.2257
    1W        W38408  22.490  26.059   3.216  0.0705 -0.1832 -0.1592
    1W        W38409  14.892  22.555   7.366  0.0663  0.1631 -0.1841
    1W        W38410  25.319  25.096   7.381 -0.2288 -0.4098  0.2119
    1W        W38411  21.787  25.575   9.325  0.0332  0.0361  0.0226
    1W        W38412  18.186  27.071   8.144  0.0103 -0.3696 -0.2956
    1W        W38413   9.069   8.964  10.068  0.1677  0.1561 -0.0309
    1W        W38414  28.092  27.023   8.901  0.2456  0.2875  0.1846
    1W        W38415  10.157  17.277   1.755 -0.0163 -0.0602  0.2316
    1W        W38416   0.034  26.248   9.590  0.2824 -0.0141 -0.0639
    1W        W38417   8.674  12.994   2.783  0.0318 -0.1933 -0.2375
    1W        W38418   7.592  10.681   0.863 -0.3823 -0.0234 -0.0101
    1W        W38419   4.900   1.481   9.556 -0.0803  0.3590 -0.0499
    1W        W38420  15.493   4.058   1.274  0.1365  0.3682  0.1717
    1W        W38421   9.940   0.050   7.837 -0.1670  0.0221  0.0594
    1W        W38422  21.479  22.968   9.108 -0.2226  0.2683 -0.1502
    1W        W38423   2.235   9.690   7.156  0.1356 -0.0183  0.0012
    1W        W38424   6.870  21.163   1.258  0.4175  0.0601  0.0783
    1W        W38425  20.399  19.271   3.851 -0.0976  0.2210  0.2037
    1W        W38426   5.889  23.779   0.248 -0.3116 -0.1832  0.1137
    1W        W38427  15.849  24.078   7.118  0.0196 -0.1903 -0.0653
    1W        W38428  17.633  17.404   0.603 -0.0960  0.2138  0.0605
    1W        W38429   6.989  19.006   3.251  0.2490  0.0363 -0.0116
    1W        W38430  25.616  26.904   2.417 -0.0050 -0.2400  0.0671
    1W        W38431   5.526  14.531   2.090 -0.3621  0.1840 -0.0733
    1W        W38432   1.576  27.965   2.384 -0.1124 -0.0132 -0.0234
    1W        W38433  19.876   5.286   9.246  0.1181  0.0983  0.0256
    1W        W38434   4.968  26.531   8.930  0.0857 -0.3342  0.0384
    1W        W38435  26.771   7.676   7.776 -0.0406  0.3499 -0.1510
    1W        W38436   1.018   5.931   0.299  0.1623  0.0724  0.0857
    1W        W38437  18.011  20.911   7.982  0.3009  0.0767 -0.1149
    1W        W38438  24.099  10.442   9.368  0.3345  0.0103  0.1325
    1W        W38439   5.636  23.519   9.155 -0.3066  0.1002  0.3984
    1W        W38440  15.127  22.061  10.334 -0.0004  0.0760 -0.1844
    1W        W38441  17.498  17.666   7.363  0.1141  0.1812  0.1902
    1W        W38442   3.109   3.664   1.113  0.0505  0.2953 -0.2587
    1W        W38443  18.400  25.950   0.828  0.2209  0.3322  0.0041
    1W        W38444   4.371  13.250   2.353  0.0492  0.1044  0.2245
    1W        W38445  21.725  12.976  10.203  0.3831  0.4330  0.3145
    1W        W38446  12.297  18.384   1.030  0.0095 -0.1702 -0.2838
    1W        W38447  16.469   8.300   8.633 -0.1347 -0.0277  0.0779
    1W        W38448   8.895  16.031   9.468  0.0097  0.0865 -0.4499
    1W        W38449  15.479   6.931   3.728  0.2438 -0.3352 -0.0779
    1W        W38450  18.767   5.604   9.328  0.3719 -0.1300  0.0334
    1W        W38451  12.634  12.464   3.603 -0.0810 -0.1481 -0.2640
    1W        W38452  23.922  16.095   1.312 -0.0734 -0.0223  0.0127
    1W        W38453  10.471  23.732   8.359 -0.2576  0.1509 -0.2122
    1W        W38454  27.586  26.720   7.782  0.0149 -0.0754  0.0496
    1W        W38455   8.677  24.274   9.235 -0.0429 -0.2883 -0.0688
    1W        W38456  22.808  19.119   6.783  0.0103 -0.2651 -0.2023
    1W        W38457   5.920  19.682   8.015  0.2326  0.0677  0.3982
    1W        W38458  14.354   2.836   9.978  0.0312 -0.1797  0.0572
    1W        W38459  25.468  24.996   9.826 -0.1377 -0.4166 -0.0609
    1W        W38460  16.796  21.754   1.849  0.0943  0.0095  0.0390
    1W        W38461   6.536   3.718  10.121 -0.2800  0.3128 -0.4473
    1W        W38462   2.814  16.572   0.566  0.1890  0.0016  0.1556
    1W        W38463  13.459   3.258   9.157  0.0026 -0.0153 -0.0847
    1W        W38464   5.181   5.760   0.209  0.2803 -0.4076 -0.1276
    1W        W38465   4.666   5.667   8.385  0.3845  0.1915 -0.2751
    1W        W38466  27.438  27.622   1.395  0.3878 -0.0438 -0.0568
    1W        W38467  20.768  22.666   7.434 -0.1816  0.1230 -0.0449
    1W        W38468   8.092   6.171   1.373  0.3085 -0.2270  0.0591
    1W        W38469   5.218   0.416   7.580  0.0482 -0.0818  0.1937
    1W        W38470   0.246  11.605   8.794  0.2230 -0.0206  0.0990
    1W        W38471   4.107   1.899   7.426  0.0514 -0.0413  0.1136
    1W        W38472  20.674   7.321   2.998  0.0823 -0.1521 -0.3898
    1W        W38473   7.250  23.714   1.809  0.1775  0.0997 -0.1185
    1W        W38474  12.324  11.184   0.871 -0.1206 -0.2183 -0.2390
    1W        W38475   5.428  19.522  10.102 -0.1664 -0.0300 -0.3065
    1W        W38476  27.545   4.065  10.161 -0.0584 -0.0677  0.0764
    1W        W38477  10.929  23.917   8.244 -0.1763  0.2850 -0.2565
    1W        W38478   7.348  10.603   1.319  0.2560 -0.1528 -0.0675
    1W        W38479  22.794   5.079   9.699 -0.1005  0.1829  0.1681
    1W        W38480  14.280  24.506   9.331  0.2811  0.0928 -0.0438
    1W        W38481   9.144  12.071   9.667  0.3158  0.0805  0.4309
    1W        W38482  19.562  16.232   9.218  0.1458 -0.1888 -0.1718
    1W        W38483   9.533  12.858   8.416 -0.3209  0.0480  0.1144
    1W        W38484  16.879  17.710   3.060  0.1812  0.1030 -0.1168
    1W        W38485   9.723  19.653   9.819 -0.1106  0.3916  0.1267
    1W        W38486  16.819   3.523  10.362 -0.1903  0.2655 -0.2190
    1W        W38487  24.504  17.850   2.509  0.2144 -0.3931  0.0344
    1W        W38488   5.043  20.527   9.350 -0.1272 -0.2727  0.0540
    1W        W38489  15.883  14.655   3.573 -0.0424  0.1016 -0.0003
    1W        W38490   7.341  18.552   8.271 -0.1140 -0.1631  0.0568
    1W        W38491  24.662  14.758   8.326  0.3229  0.1100  0.0906
    1W        W38492  11.531  11.355   1.516 -0.2980  0.0180  0.1889
    1W        W38493   8.985  11.209   1.359  0.0535 -0.2394 -0.1432
    1W        W38494   9.629   2.692   1.225 -0.2691  0.0238 -0.1574
    1W        W38495  11.298  18.189   9.729 -0.1452  0.1726 -0.2891
    1W        W38496  14.070  21.356   2.788  0.0533  0.0289 -0.3756
    1W        W38497  13.196  23.061   3.046 -0.0021  0.1485  0.0991
    1W        W38498  15.610  22.526   8.287 -0.3106  0.1796  0.5074
    1W        W38499  16.913  22.611   0.683  0.1107  0.0906  0.1150
    1W        W38500  10.938   3.802   2.595  0.2530  0.1231  0.2670
    1W        W38501  24.242  27.857   1.399  0.1335 -0.1303 -0.3153
    1W        W38502  12.084   5.600   7.965 -0.2629 -0.1605  0.1795
    1W        W38503  27.239  25.058  10.208  0.0509 -0.1528  0.3685
    1W        W38504  23.165  10.603   3.089  0.0472 -0.0120 -0.1483
    1W        W38505  10.051  27.675   1.551 -0.0108 -0.0157 -0.1695
    1W        W38506   4.505  26.704   7.916 -0.1173  0.1391  0.0896
    1W        W38507  12.238   1.267   8.287 -0.0694 -0.1444  0.1797
    1W        W38508  11.446  22.201   0.471 -0.0439 -0.1222 -0.1175
    1W        W38509   9.176   5.798   9.478 -0.0768 -0.0557 -0.0177
    1W        W38510   2.299   1.067   8.877 -0.1052  0.1913  0.0361
    1W        W38511  11.447  17.778   3.285  0.0151 -0.0719 -0.2575
    1W        W38512   5.914  13.156   0.917  0.0345 -0.2306 -0.0999
    1W        W38513  25.387   4.063   8.728  0.0302  0.2190 -0.0222
    1W        W38514   4.018   6.549  10.196  0.2246 -0.3006 -0.0481
    1W        W38515  22.362  22.796   9.833  0.2307 -0.0175  0.0286
    1W        W38516  26.148   7.451   0.095  0.3725 -0.2426  0.0962
    1W        W38517  25.863  18.884   8.481  0.1712 -0.0115  0.3097
    1W        W38518   9.113   9.475   2.043 -0.0452  0.2086 -0.0112
    1W        W38519   1.396   0.188   3.171 -0.2395 -0.1448 -0.1879
    1W        W38520  18.922  10.319   2.320 -0.1013 -0.2682  0.0674
    1W        W38521   4.140   6.667   2.251  0.1261 -0.0986  0.1338
    1W        W38522  20.204  11.574   0.736  0.1297  0.1506  0.0551
    1W        W38523   5.850  25.949   7.777 -0.0013  0.1216 -0.1311
    1W        W38524  12.088  28.078  10.022  0.0573  0.2230 -0.5472
    1W        W38525  17.279  12.172   3.114  0.2534 -0.1885 -0.0806
    1W        W38526  20.965   7.073   0.943 -0.1588 -0.0774 -0.0806
    1W        W38527   3.244   6.281   9.043 -0.0451  0.0500 -0.2741
    1W        W38528  26.325  21.555   2.451  0.0231 -0.1204  0.3493
    1W        W38529  10.385  13.975   2.741  0.1772  0.0530 -0.1204
    1W        W38530   8.058   9.360   0.574  0.0516 -0.1057 -0.1683
    1W        W38531  12.047  14.118   2.058 -0.0101  0.2481  0.0468
    1W        W38532   0.442  11.514   9.953 -0.1760  0.1099  0.1011
    1W        W38533  15.917  20.064   3.035  0.0612 -0.0826 -0.0796
    1W        W38534   9.791  23.116   7.791 -0.0473 -0.0474  0.0893
    1W        W38535  23.274   0.039   3.626  0.0825  0.0576  0.0089
    1W        W38536   9.804  22.482   8.744  0.0991 -0.1882 -0.0184
    1W        W38537  22.294  26.099   0.511 -0.2215  0.0321 -0.3765
    1W        W38538  15.410  16.248   0.969  0.0837 -0.1192  0.0245
    1W        W38539  21.855  17.679   1.192 -0.1630  0.0571 -0.1759
    1W        W38540  26.397  14.612   8.532 -0.0610 -0.1844 -0.1116
    1W        W38541  26.290  10.601   1.171 -0.1122 -0.2654 -0.0612
    1W        W38542  13.817   9.693   2.436 -0.2009 -0.3500 -0.2547
    1W        W38543   2.372  12.474   2.852  0.1968 -0.0109 -0.1841
    1W        W38544   2.254  14.180   1.151  0.3200 -0.2741 -0.3546
    1W        W38545  25.524  26.636   9.790  0.1269  0.2986  0.0757
    1W        W38546   6.702  20.764   2.967  0.3587 -0.2998 -0.1396
    1W        W38547   0.758  17.008   9.079  0.0277  0.3244 -0.1360
    1W        W38548  10.822  11.039   2.022  0.1280 -0.2329  0.1118
    1W        W38549  16.575  11.214   0.172 -0.0121 -0.1479 -0.0164
    1W        W38550  10.390   3.886   8.545 -0.1195  0.0145 -0.2558
    1W        W38551  18.071  23.305   2.192  0.1886 -0.0979  0.2129
    1W        W38552   9.440  18.649   8.063 -0.0165  0.1744 -0.1061
    1W        W38553   4.647   2.512   7.059  0.0896 -0.0688  0.1089
    1W        W38554   9.765  22.831   1.093 -0.1352  0.1639  0.1754
    1W        W38555  23.516   8.488   1.942  0.0457 -0.0537  0.1131
    1W        W38556  11.215   3.409   0.064 -0.0543  0.2939 -0.0161
    1W        W38557  12.087  17.247   8.134  0.2592  0.0850 -0.2695
    1W        W38558  20.535  15.089   8.405  0.1825 -0.0177 -0.0163
    1W        W38559   5.431   4.287   7.393 -0.2408  0.1725  0.0157
    1W        W38560  19.187  11.930   1.884  0.0236  0.2713  0.0068
    1W        W38561  14.182  24.771   7.317  0.2088  0.4595 -0.0321
    1W        W38562  19.858   3.170   1.604 -0.1578  0.1326  0.0592
    1W        W38563  26.112  13.866   6.435 -0.2583 -0.0694 -0.2148
    1W        W38564  22.076  23.048   1.615  0.0323  0.1114 -0.1066
    1W        W38565  19.005  25.447   0.473 -0.1568 -0.4572 -0.0752
    1W        W38566  13.562  13.277   9.700 -0.4275  0.0464  0.0120
    1W        W38567   2.063  25.716   0.010  0.1519  0.0301 -0.1115
    1W        W38568   2.099  19.460   7.611  0.1001 -0.4832 -0.1575
    1W        W38569  14.622   5.429   4.350  0.0238 -0.0769  0.2036
    1W        W38570  13.116  22.379   0.461 -0.2299 -0.0346 -0.1797
    1W        W38571  18.425  18.810   0.502  0.2353 -0.0864  0.4368
    1W        W38572  24.048  25.360   2.629 -0.0959  0.0544  0.4368
    1W        W38573  11.053  13.444   1.323 -0.1254  0.1396 -0.2032
    1W        W38574   6.417  22.139   2.088 -0.0279 -0.3384  0.0811
    1W        W38575   2.111  19.767   8.911 -0.0598  0.0499 -0.1323
    1W        W38576   2.693  14.749   6.981  0.2068 -0.3140 -0.2411
    1W        W38577  16.185  13.132   9.538  0.3238  0.1085  0.4187
    1W        W38578   0.812   5.673   0.974 -0.0926 -0.0969 -0.1535
    1W        W38579  11.696   1.741   7.809 -0.1365  0.1956 -0.1110
    1W        W38580   9.667   1.529   2.683 -0.2504 -0.1497 -0.1765
    1W        W38581  12.779  19.118   0.437  0.1014 -0.1356 -0.0925
    1W        W38582   3.976  12.204   0.939 -0.4060 -0.0589 -0.5185
    1W        W38583  26.781  21.613   9.141 -0.1233 -0.2469  0.0972
    1W        W38584  14.796  22.154   7.700  0.0047 -0.0900  0.2651
    1W        W38585   3.725   4.322   8.776  0.2272  0.1643  0.2428
    1W        W38586  11.266  23.061   9.258 -0.1911  0.1208  0.1148
    1W        W38587  26.969  11.096   8.667 -0.0352  0.0282 -0.1528
    1W        W38588  11.692   7.964   7.631  0.0876  0.2312  0.1646
    1W        W38589   8.177  25.526   2.658  0.0568  0.0347 -0.2359
    1W        W38590   1.619  15.559   8.668  0.1511  0.1860  0.1109
    1W        W38591  23.744  17.817  10.245  0.1663  0.1988 -0.1406
    1W        W38592  11.779   9.274   2.425 -0.0604 -0.0550  0.1908
    1W        W38593  15.423  27.768   8.618  0.1252  0.1556  0.2955
    1W        W38594  13.651  16.875   2.567  0.0345  0.0676  0.0460
    1W        W38595   8.746   0.462   8.362  0.0254 -0.0227  0.1327
    1W        W38596  14.561  19.008   9.667  0.2426  0.2113 -0.0135
    1W        W38597   7.799   9.516   9.594  0.2235 -0.0360 -0.3191
    1W        W38598   6.571  23.743   0.939 -0.0732 -0.2225  0.0923
    1W        W38599   4.033   4.193   7.690 -0.0625 -0.3306  0.0383
    1W        W38600  17.190   6.163   0.732 -0.0211  0.1920 -0.3252
    1W        W38601   4.082   7.696   6.718 -0.0803  0.2062  0.4946
    1W        W38602  25.551  24.702  10.268  0.0042 -0.2760 -0.0801
    1W        W38603   6.267  19.285   8.483  0.0734 -0.0611  0.0397
    1W        W38604   0.991  15.570   1.404  0.0913 -0.0068 -0.1103
    1W        W38605  22.057  24.869   1.385  0.0074  0.0164 -0.1454
    1W        W38606  22.802  13.915   1.112 -0.2470 -0.0113  0.1218
    1W        W38607  13.843  12.688   1.004 -0.2761 -0.0394 -0.0422
    1W        W38608   6.997  18.158   9.222 -0.0426 -0.2839  0.1125
    1W        W38609  15.710   6.852   3.092 -0.0095  0.1239 -0.2816
    1W        W38610   3.127  18.172   3.098 -0.2910  0.3976  0.1771
    1W        W38611  12.814   3.666   3.176  0.1087  0.2281 -0.1794
    1W        W38612  20.271  25.790   7.836 -0.0570  0.1125 -0.1966
    1W        W38613  20.579  22.759   8.512 -0.1240 -0.2666 -0.0987
    1W        W38614  17.208  12.907   3.228  0.2306  0.2206 -0.2433
    1W        W38615   2.029  25.203   0.170  0.0581 -0.3056 -0.2747
    1W        W38616  24.725  28.091   7.908 -0.1156 -0.1647  0.0279
    1W        W38617  15.566  12.055  10.075 -0.0528 -0.0246 -0.0478
    1W        W38618  12.884  22.810   9.543 -0.3146  0.0137  0.2256
    1W        W38619  21.698  10.962   7.622 -0.1571  0.1150 -0.1687
    1W        W38620  25.204   3.422   7.649 -0.3209  0.2336  0.1384
    1W        W38621  24.516   8.888   7.738 -0.4180  0.1412  0.0547
    1W        W38622   5.226  17.407  10.243 -0.2184  0.1048 -0.0034
    1W        W38623  15.900  25.848   1.652  0.3301 -0.1511  0.1683
    1W        W38624  28.007  23.834   0.523 -0.1356  0.4604 -0.0604
    1W        W38625   1.917  16.384   1.840 -0.2488  0.1481  0.1017
    1W        W38626  18.639  15.760   0.231 -0.1668  0.0140 -0.0329
    1W        W38627   0.449   4.120   8.716 -0.1166 -0.2096  0.1969
    1W        W38628   6.343   4.135   8.775 -0.1229 -0.2321  0.0970
    1W        W38629  13.064   9.287   8.597  0.2956 -0.1400 -0.1314
    1W        W38630  23.630  11.888   0.192 -0.1249  0.0295 -0.0765
    1W        W38631   5.880  14.671   2.872 -0.2858  0.1312  0.0819
    1W        W38632  26.073  20.470   9.044 -0.1135 -0.0042 -0.0161
    1W        W38633  12.599   5.020   0.912 -0.0003  0.0216  0.2297
    1W        W38634  21.953   4.819   8.965  0.0845 -0.1375 -0.1249
    1W        W38635  25.929   0.460   1.897 -0.1662  0.0265 -0.2904
    1W        W38636  12.576  18.563   8.510  0.3484 -0.2154 -0.1168
    1W        W38637  20.828  11.013   9.137 -0.2680  0.1287  0.0540
    1W        W38638   5.982  14.111  10.144 -0.0221 -0.1949  0.3589
    1W        W38639   6.061  11.081   2.254  0.0577  0.1607  0.3223
    1W        W38640   8.008  11.829   2.835  0.3869 -0.0871 -0.1113
    1W        W38641   2.236   7.557   6.587  0.1940 -0.3433  0.2176
    1W        W38642   6.648   3.947   0.213 -0.3372 -0.0556 -0.2159
    1W        W38643  24.502   8.533  10.182  0.0355 -0.2593 -0.2026
    1W        W38644  25.053  25.531   7.462 -0.1609  0.2709  0.1559
    1W        W38645  12.210  27.138   7.837 -0.1807 -0.0339  0.0744
    1W        W38646  21.024   7.862  10.092 -0.2865 -0.1425  0.1221
    1W        W38647  21.304  16.206   1.300  0.0972  0.0507  0.0503
    1W        W38648   6.412   2.203  10.076 -0.0003 -0.1212  0.1640
    1W        W38649   2.901   2.256   2.509  0.1013  0.1638 -0.1863
    1W        W38650  12.407  17.287   0.393  0.0736  0.2107 -0.3983
    1W        W38651  24.045  18.697   8.414  0.2748  0.0402 -0.0368
    1W        W38652   5.578  21.104   9.535 -0.1459  0.0287 -0.1148
    1W        W38653  22.140   8.803   7.452 -0.3018 -0.0182 -0.0637
    1W        W38654  21.187   0.638   1.580 -0.2081  0.2381 -0.1204
    1W        W38655  19.393   6.475   0.419  0.2187  0.1747  0.1342
    1W        W38656   1.580  11.906   0.288  0.1983 -0.1108  0.2206
    1W        W38657  23.300   4.016   0.893  0.1143  0.1374 -0.4374
    1W        W38658   8.054  26.609   9.698  0.0428  0.3704  0.1550
    1W        W38659   2.903  17.327   8.694  0.0505 -0.1075  0.1611
    1W        W38660  26.963  10.742   0.574 -0.2241  0.2632 -0.1838
    1W        W38661  27.546   7.499   9.021  0.1845 -0.2440  0.0329
    1W        W38662   9.757  23.925   9.247  0.2104 -0.0982 -0.1252
    1W        W38663  22.901  24.126   7.142 -0.1510 -0.3074  0.0967
    1W        W38664  20.687   9.544   7.969  0.1110  0.2962 -0.4757
    1W        W38665  15.321  24.113   1.437  0.2570 -0.1880  0.1075
    1W        W38666  23.901  24.489   1.470  0.0343  0.0803  0.3938
    1W        W38667  25.839  26.983   3.516 -0.1935  0.0917 -0.0150
    1W        W38668  25.318  20.609   0.783  0.1369  0.1982 -0.4380
    1W        W38669  11.773   1.308   1.108  0.0189 -0.3454 -0.1492
    1W        W38670  15.213   8.131   2.867 -0.0402 -0.0914 -0.0368
    1W        W38671  25.995  10.648   2.595  0.2007 -0.0667 -0.0864
    1W        W38672  22.862  25.326   8.037  0.0045 -0.1202  0.0704
    1W        W38673  21.941  12.734   7.176  0.0011 -0.0427 -0.3752
    1W        W38674  13.017   3.897   9.535 -0.6142 -0.3149 -0.1235
    1W        W38675   9.048   1.085   9.657 -0.1617  0.1975 -0.1511
    1W        W38676  21.665  27.529   7.715  0.3387 -0.0365  0.0212
    1W        W38677  23.926  24.549   2.769 -0.1351  0.1218 -0.1597
    1W        W38678  20.890  19.883   8.030  0.1005 -0.2110  0.2651
    1W        W38679   3.557  13.958   1.366  0.1231  0.2651  0.2842
    1W        W38680   3.383   1.978   8.158  0.0003  0.1537  0.0316
    1W        W38681  15.273  11.231   1.619  0.0198 -0.4158  0.1704
    1W        W38682   1.391  11.994   0.749 -0.0880  0.1055 -0.2371
    1W        W38683  19.697   2.772   0.059  0.1516 -0.3474 -0.0273
    1W        W38684  23.484  24.427   2.927  0.0451 -0.1149 -0.0304
    1W        W38685   8.667  13.529   2.660  0.0451 -0.0636 -0.0888
    1W        W38686   1.272   7.488   6.851 -0.0176 -0.0072 -0.0801
    1W        W38687  23.345  15.849   7.539 -0.2104 -0.0705 -0.2023
    1W        W38688   8.088   1.208   8.193 -0.1150  0.2771  0.2567
    1W        W38689  16.356  15.953   0.565 -0.0450 -0.0047 -0.1852
    1W        W38690  13.313   9.332   7.788  0.1299 -0.1034  0.1354
    1W        W38691  17.511  20.904   8.075  0.1596 -0.0520  0.2059
    1W        W38692  24.814  20.422   8.463 -0.2525  0.2465 -0.0788
    1W        W38693  10.796  28.021   8.887 -0.1877  0.0018 -0.1869
    1W        W38694  11.535  18.428   2.641 -0.0102 -0.1138 -0.0191
    1W        W38695  15.140   3.148   2.787 -0.1255 -0.0758  0.0563
    1W        W38696   0.964  21.922   8.288  0.1246 -0.0248 -0.0409
    1W        W38697  12.307   4.033   8.317  0.1936 -0.0140 -0.2913
    1W        W38698  23.356  16.848   2.728  0.3115  0.0808 -0.1415
    1W        W38699  22.647  23.388   8.747 -0.1245 -0.0958  0.0602
    1W        W38700  18.330  21.674   2.564  0.2790  0.0478  0.0088
    1W        W38701   7.536  27.446   2.477 -0.2659  0.1969  0.0850
    1W        W38702  26.625  26.539   8.638  0.3292 -0.1146  0.0412
    1W        W38703  14.691   9.400   0.598 -0.2539  0.0723  0.0629
    1W        W38704  25.771  20.709   0.077  0.1760  0.2148  0.1322
    1W        W38705   4.702  21.509   1.020  0.1145  0.1168 -0.1667
    1W        W38706  15.525  17.971   7.220 -0.1098 -0.2970 -0.1975
    1W        W38707  21.995  23.115   9.030 -0.0562  0.1210 -0.1334
    1W        W38708  27.835   4.296   8.565  0.4000 -0.0097  0.0327
    1W        W38709  12.292  16.410   9.771 -0.0422  0.1865 -0.1161
    1W        W38710   9.167  12.180   7.890  0.0859 -0.2514 -0.2053
    1W        W38711   9.996  10.960   8.193  0.1293 -0.0333  0.4404
    1W        W38712   5.387  14.978   1.339 -0.0703 -0.2329  0.2881
    1W        W38713  12.742  22.855   2.349  0.0302 -0.0922 -0.3760
    1W        W38714   1.008  19.907   0.951 -0.1090 -0.0774 -0.1562
    1W        W38715  14.068   4.416   8.157 -0.1554  0.0736 -0.2856
    1W        W38716  26.414  21.458   8.878 -0.1232  0.1602 -0.0472
    1W        W38717  20.138   9.094   8.587 -0.1859  0.1549 -0.1005
    1W        W38718   6.443  20.177   8.735 -0.2584 -0.0937 -0.0300
    1W        W38719  17.093   5.505   8.924 -0.3363  0.5238  0.1867
    1W        W38720  23.956  18.908   7.535 -0.3322 -0.1636 -0.1054
    1W        W38721  26.156  20.610   6.038 -0.1726  0.2636 -0.1322
    1W        W38722   3.965   4.756   6.883  0.1928 -0.0444 -0.1135
    1W        W38723  18.923  13.770   3.361  0.1186 -0.1734 -0.1442
    1W        W38724  20.943  15.511   0.218 -0.0182  0.1156  0.1514
    1W        W38725  17.128  12.833   2.138  0.2808 -0.3800 -0.2768
    1W        W38726   3.157  27.482   8.067  0.0856  0.0442  0.0989
    1W        W38727   9.551  14.452   1.306 -0.2377  0.0597 -0.0026
    1W        W38728  15.059  10.304   9.208 -0.0187 -0.0012  0.0091
    1W        W38729  12.632   9.487   0.059 -0.2450  0.2954  0.1512
    1W        W38730   4.386   5.521   9.330  0.1054  0.0570  0.3317
    1W        W38731  19.413  22.426   9.725  0.1408 -0.2031  0.1296
    1W        W38732  19.392  12.872   1.720 -0.2542  0.4277 -0.1676
    1W        W38733   1.439   4.584   7.207  0.0180 -0.2789 -0.0041
    1W        W38734   0.761  23.455   9.237 -0.0802  0.1662  0.0893
    1W        W38735   1.088   1.515   0.946  0.3796 -0.1697 -0.3023
    1W        W38736   3.961  24.747   8.015  0.0768 -0.0684 -0.2495
    1W        W38737  19.602   8.609   7.693 -0.2461 -0.4692 -0.0788
    1W        W38738  11.813  26.247   7.755 -0.3186 -0.1406  0.0278
    1W        W38739   5.279   7.036   9.737  0.0134  0.0412 -0.2093
    1W        W38740   1.609  21.406   0.657 -0.0783  0.4429  0.2152
    1W        W38741   5.327  18.773   2.603  0.0730 -0.0217 -0.0663
    1W        W38742   3.372  27.753   0.608 -0.0679  0.0748 -0.0771
    1W        W38743   9.190  10.408   2.487  0.3485  0.0845  0.0851
    1W        W38744   6.567   0.876   2.256 -0.0444  0.1183  0.1801
    1W        W38745  19.329  14.040   8.171 -0.0082 -0.1112  0.0569
    1W        W38746   3.698  13.953   7.893  0.0728  0.0621  0.1135
    1W        W38747   9.442   4.349   2.406  0.3138  0.0675  0.3278
    1W        W38748   5.342   8.824   9.236  0.1227 -0.2117  0.1349
    1W        W38749  14.487  14.352   0.336 -0.0869  0.0820 -0.0436
    1W        W38750   2.818  27.087   1.709 -0.0558  0.3348  0.0902
    1W        W38751   8.104  25.098   7.800 -0.0320  0.1843 -0.2170
    1W        W38752  19.116   8.197   9.635 -0.1252  0.0351  0.1267
    1W        W38753   3.723   7.921   8.633 -0.0327  0.0317  0.0253
    1W        W38754  26.963   5.326   8.246  0.0490  0.1063 -0.0401
    1W        W38755   8.449  19.345   8.194 -0.2016 -0.1480  0.0488
    1W        W38756  27.386  23.288   8.782 -0.3179 -0.0092 -0.3646
    1W        W38757  13.408  10.259   0.557 -0.2579  0.1102  0.1533
    1W        W38758  20.254  26.452   1.187  0.0531 -0.0779  0.0505
    1W        W38759  18.387  26.855  10.219  0.1342 -0.0497  0.0301
    1W        W38760   2.152  17.587  10.276  0.0689  0.2689  0.2013
    1W        W38761   3.941  17.877   9.699  0.1442  0.0236 -0.0664
    1W        W38762   1.158  16.229   9.650  0.1643 -0.1345  0.1262
    1W        W38763  17.204  26.201   9.132  0.0897  0.1820  0.4243
    1W        W38764   8.202  11.632   1.386 -0.0400  0.2882 -0.0785
    1W        W38765  13.328   7.764   9.661 -0.1207  0.4172  0.3574
    1W        W38766  18.408   9.851   8.013 -0.1377  0.0206  0.0577
    1W        W38767  17.054  11.719   0.049  0.0098  0.0772 -0.2441
    1W        W38768  26.813  27.464  10.010  0.0866 -0.1180 -0.0131
    1W        W38769   5.018   3.279   1.822 -0.0503  0.0373  0.1166
    1W        W38770  11.546  23.526   1.810  0.5119 -0.0557 -0.0971
    1W        W38771  24.171  23.736   2.876 -0.1758 -0.0075  0.2131
    1W        W38772  14.500  17.236   9.153 -0.0102 -0.1818 -0.0070
    1W        W38773  23.962  17.401   8.213 -0.0814  0.0614  0.0715
    1W        W38774   3.575  20.482   3.562  0.0619  0.0167 -0.0895
    1W        W38775   1.825   0.398   1.747  0.1822 -0.1178 -0.0600
    1W        W38776   6.779  25.142   8.670  0.3366 -0.0165  0.1245
    1W        W38777  25.242   8.620   7.659  0.0215  0.1402 -0.2255
    1W        W38778  22.392  11.815   8.390 -0.0890 -0.0333  0.0739
    1W        W38779  22.439  26.873   8.301  0.0589 -0.0669  0.2314
    1W        W38780   9.198  24.036   8.370 -0.4946 -0.2832  0.4406
    1W        W38781  14.080  11.529   9.146 -0.2640 -0.3435 -0.0162
    1W        W38782  20.690  13.862   1.868  0.1288  0.0596 -0.1422
    1W        W38783  20.272  22.928   8.191 -0.1242 -0.0066 -0.0633
    1W        W38784   7.297  17.760   8.113  0.1610  0.0485 -0.1555
    1W        W38785   0.624  14.641   6.903  0.3534  0.0139  0.0414
    1W        W38786   5.146  18.254   1.205 -0.1846  0.0957  0.1499
    1W        W38787   3.978   0.805   8.151  0.1712 -0.0186  0.0141
    1W        W38788  20.866   0.793   3.425  0.0640 -0.4184  0.2003
    1W        W38789  19.969   9.796  10.101 -0.1423  0.1349 -0.1315
    1W        W38790  24.648   5.970  10.024 -0.0287 -0.3748 -0.0224
    1W        W38791  11.879   9.837   8.789 -0.3076  0.0724 -0.1303
    1W        W38792   9.564  18.967   0.170  0.0158 -0.0633 -0.1983
    1W        W38793   9.303  21.487   0.489  0.2059 -0.1153  0.0321
    1W        W38794   9.660   5.573   8.332  0.0294  0.0844 -0.0771
    1W        W38795  13.840  21.772   2.605 -0.2091 -0.1171 -0.0866
    1W        W38796  20.109  22.926   9.397 -0.2259  0.1960  0.0838
    1W        W38797  10.172  13.487   0.105  0.0212  0.0363  0.0586
    1W        W38798   7.760  12.036   8.018  0.2059  0.0390 -0.1950
    1W        W38799  22.518   1.844   1.131 -0.0494  0.0138 -0.0512
    1W        W38800  10.596   0.417   2.105 -0.2122 -0.0363 -0.1875
    1W        W38801  23.662  12.625   0.001  0.1423  0.2097 -0.2879
    1W        W38802   2.904  19.581   8.838 -0.0555 -0.0008 -0.1338
    1W        W38803  20.137  23.397   9.329  0.1541  0.0061  0.0525
    1W        W38804   0.010  17.187   8.633  0.0816 -0.1413  0.0139
    1W        W38805  25.629  19.293   8.224 -0.1946  0.0641  0.1162
    1W        W38806  18.764  17.438   8.859  0.2777 -0.5559  0.1241
    1W        W38807   0.131  11.622   0.381  0.0755 -0.1760 -0.1981
    1W        W38808  21.946  12.954   8.795 -0.4279  0.0549 -0.1396
    1W        W38809  22.714   1.985   2.431 -0.1126 -0.3388  0.1011
    1W        W38810   7.159  13.523   1.814  0.0185  0.0781 -0.4695
    1W        W38811  15.459   3.478   3.825 -0.0884  0.0422  0.1437
    1W        W38812   2.696  26.663   0.907  0.0809  0.1101  0.2000
    1W        W38813  21.120   9.202   2.253 -0.1112 -0.2877  0.0074
    1W        W38814  27.442  19.295   0.885 -0.4836  0.3763  0.3785
    1W        W38815  18.457  16.267   0.204  0.1844  0.3613 -0.1810
    1W        W38816   3.162  21.589   1.481  0.2966  0.1060 -0.4657
    1W        W38817  10.366  22.166   3.290  0.2445  0.2772  0.1722
    1W        W38818  23.632  26.798   2.957 -0.0241  0.0843 -0.1436
    1W        W38819  10.967   5.029   0.825  0.3038  0.0935  0.0824
    1W        W38820  27.669  26.814   1.932  0.1118  0.1197  0.0274
    1W        W38821  12.029   9.932   0.137 -0.1227 -0.1208 -0.1245
    1W        W38822  20.088   5.208   1.877  0.1739 -0.0468  0.2019
    1W        W38823  12.605  20.301  10.170  0.0664 -0.0770  0.1009
    1W        W38824  14.798  11.954   8.647 -0.2321  0.3380  0.1307
    1W        W38825  25.101  25.584   3.333  0.3639 -0.1562  0.1995
    1W        W38826  22.643  24.876   0.038 -0.4008  0.1544  0.2596
    1W        W38827  22.474  11.691   2.728  0.0498 -0.1046  0.1460
    1W        W38828  10.114  22.031   2.741  0.1008 -0.1897 -0.0869
    1W        W38829  17.649  22.910   0.919 -0.0555 -0.0909 -0.2155
    1W        W38830   0.831  15.239   8.000  0.1918  0.0362 -0.0974
    1W        W38831  10.482  22.848   1.352  0.2444 -0.0013 -0.4058
    1W        W38832  10.273  14.778   9.158  0.1615 -0.1128  0.3543
    1W        W38833  23.999   2.252   1.810  0.1442 -0.0330  0.2106
    1W        W38834  12.354   7.298   0.159 -0.1418 -0.0989 -0.3948
    1W        W38835  13.969   0.564   2.275 -0.0168 -0.1380 -0.0157
    1W        W38836   1.962  15.141   0.475  0.4796 -0.0566  0.2214
    1W        W38837   5.225  12.204   0.516 -0.0158 -0.2672 -0.0490
    1W        W38838  21.519   3.708   0.981  0.0553 -0.0653  0.1144
    1W        W38839   3.656  22.072   0.113  0.1372 -0.0767  0.0958
    1W        W38840  12.689   5.935   8.896  0.0773  0.1123  0.1364
    1W        W38841  23.290  12.294   0.775  0.1372 -0.3004  0.0481
    1W        W38842  24.169   6.772   8.519  0.0266 -0.1089 -0.0809
    1W        W38843  19.996  25.431   8.660  0.1627 -0.0475 -0.1055
    1W        W38844  21.979  17.445   2.499  0.0261  0.0110  0.3607
    1W        W38845   5.677  21.538   9.766 -0.1116 -0.0937 -0.4308
    1W        W38846   0.150   3.905   1.378 -0.0820  0.0038 -0.0575
    1W        W38847  13.988   6.244   9.191 -0.0772  0.0722  0.3710
    1W        W38848  23.768  12.370   7.911 -0.0642  0.2131 -0.1688
    1W        W38849  20.345   7.878   0.754  0.2819  0.1999  0.0471
    1W        W38850  25.584  18.391   1.775 -0.0412 -0.2851 -0.0903
    1W        W38851   0.651   2.538   0.545 -0.4345  0.1010 -0.1713
    1W        W38852   9.914  26.619   9.665 -0.0697  0.2819 -0.1192
    1W        W38853  26.910  12.483   8.662  0.3312  0.0342 -0.3740
    1W        W38854  24.293  16.131   8.553  0.1976  0.3230 -0.2082
    1W        W38855   0.364  26.569   1.695 -0.0393  0.2901 -0.1766
    1W        W38856   8.779  14.757   8.819  0.0279  0.0169 -0.0953
    1W        W38857   7.750  23.165  10.210  0.2451 -0.0805 -0.3027
    1W        W38858  19.194  20.444   2.702 -0.0742 -0.1036  0.0879
    1W        W38859   4.048  22.327   7.968  0.0216  0.0168 -0.0056
    1W        W38860  15.797  11.006   8.484  0.3666  0.0370 -0.1881
    1W        W38861   4.278   6.467   6.229  0.1517  0.1168  0.2257
    1W        W38862  27.455  21.266   1.376  0.1724 -0.3790  0.1587
    1W        W38863   9.174  28.070   0.794 -0.4779  0.0127  0.2100
    1W        W38864   0.295  25.781   7.161 -0.1095  0.2191  0.2494
    1W        W38865  11.032  23.919   7.255  0.1944 -0.1077 -0.1629
    1W        W38866  21.784  16.949   7.974 -0.3017 -0.1152  0.0858
    1W        W38867  20.754  21.772   1.300  0.1793  0.0859  0.1149
    1W        W38868  23.664  18.389   0.446 -0.0975 -0.0164 -0.1882
    1W        W38869  24.894   8.744   9.265  0.1688 -0.1112 -0.0139
    1W        W38870  12.306   9.800   9.183 -0.1790 -0.0549  0.3420
    1W        W38871  19.217  23.729  10.037  0.2931  0.0720 -0.2637
    1W        W38872  12.211  27.734   2.782  0.0054  0.1360  0.1601
    1W        W38873   2.405   5.396   7.748 -0.3681  0.2853  0.2055
    1W        W38874  22.514  17.332   1.083 -0.2024 -0.2828 -0.2337
    1W        W38875   1.669  24.004   7.366 -0.1393  0.2640 -0.2056
    1W        W38876   4.060  22.029   2.521 -0.0189 -0.1646  0.0389
    1W        W38877   0.280  10.860   8.408  0.0027 -0.1431  0.2416
    1W        W38878  19.114  16.624   2.257  0.0852 -0.2047  0.1043
    1W        W38879   8.821   3.892   8.470  0.1768  0.2612  0.0875
    1W        W38880  15.928  12.515   1.309 -0.0736 -0.3037  0.0922
    1W        W38881  18.435  13.955   3.519 -0.0498  0.4530 -0.0737
    1W        W38882  19.553  17.882   8.824  0.3328  0.0722 -0.3028
    1W        W38883  12.183   7.275   1.390  0.2471 -0.1880 -0.1334
    1W        W38884   8.374  18.787   3.494 -0.0889 -0.1713 -0.0948
    1W        W38885  14.045   9.747   1.988  0.1337  0.3750 -0.0480
    1W        W38886  15.578  20.463   3.247 -0.0178  0.0683 -0.1077
    1W        W38887  17.463   1.823   1.988  0.2189  0.0217  0.3208
    1W        W38888  19.378   3.910   2.580 -0.0351 -0.1760  0.1769
    1W        W38889  20.373  28.051   8.824  0.0278 -0.0053  0.1455
    1W        W38890  22.112   4.315   9.887  0.0295 -0.0421  0.0211
    1W        W38891  25.598  19.370   1.680  0.3431 -0.0891  0.1678
    1W        W38892  17.468  26.885   0.208 -0.0882 -0.2149  0.2153
    1W        W38893  11.576  14.830   9.987  0.1612  0.2469  0.1273
    1W        W38894   0.270   1.269   8.710 -0.3194 -0.0846  0.1408
    1W        W38895  26.935   1.437   9.372  0.1039 -0.2984 -0.0991
    1W        W38896  26.131  27.274   2.684 -0.2734 -0.0853  0.0518
    1W        W38897  23.397  23.839  10.285 -0.0126  0.0578  0.0977
    1W        W38898  16.582  27.002   1.294  0.0869  0.0536 -0.2470
    1W        W38899  15.022   9.019   3.349 -0.0809 -0.1123  0.0997
    1W        W38900   2.884  12.678   0.891  0.2657  0.2766 -0.1899
    1W        W38901  13.121  10.330   7.899  0.2200  0.0647  0.2314
    1W        W38902  10.182   8.213   0.533  0.0698 -0.1970  0.0719
    1W        W38903  20.760  15.887  10.000 -0.0116  0.2054 -0.1852
    1W        W38904   1.548   4.363   1.730 -0.3069  0.1517 -0.1943
    1W        W38905  27.356  11.591   2.306 -0.0069 -0.1123  0.0663
    1W        W38906   1.629   0.337   9.810 -0.0874 -0.0450  0.3621
    1W        W38907   1.298  18.969   7.146 -0.0314  0.3022  0.2327
    1W        W38908  18.204  19.131   0.800 -0.1649 -0.1686  0.3515
    1W        W38909  11.372   6.387  10.143  0.0923 -0.1837  0.4264
    1W        W38910  14.286  11.365   9.807  0.0507 -0.2468 -0.3822
    1W        W38911   2.375  21.796   7.958  0.1496 -0.1577 -0.0888
    1W        W38912  26.580  24.874   7.772 -0.0144 -0.1194  0.1023
    1W        W38913  27.729   4.863   8.541 -0.0870 -0.0923 -0.5181
    1W        W38914   3.561  17.937  10.065  0.1532 -0.1569  0.2249
    1W        W38915   0.505   0.634   0.236 -0.1935  0.0425  0.0035
    1W        W38916  10.573  15.475   0.688 -0.3014 -0.1642 -0.0929
    1W        W38917   5.280  19.386   8.808  0.1744 -0.0075  0.3566
    1W        W38918  15.917   5.791   0.529 -0.0679 -0.0680 -0.1697
    1W        W38919  16.222  17.335   8.367  0.1245 -0.1117 -0.0051
    1W        W38920   9.932  15.298   3.541  0.0936  0.2542 -0.1218
    1W        W38921  20.477  25.122   9.622  0.1045 -0.0324 -0.0410
    1W        W38922  18.405  17.322   8.544  0.2754 -0.0207  0.3217
    1W        W38923  23.707  17.027   3.722  0.1388 -0.3324 -0.1612
    1W        W38924   3.251  14.126   0.179 -0.1674 -0.0663 -0.1106
    1W        W38925   1.807  10.194   1.223  0.2103  0.3559 -0.1493
    1W        W38926  25.858  27.526   8.068 -0.0682 -0.0968  0.3638
    1W        W38927  14.451   8.013   8.365  0.0209 -0.0515 -0.0315
    1W        W38928   7.522  14.195   2.101  0.1410  0.1191 -0.0594
    1W        W38929  13.684   1.757   4.094  0.0759 -0.2256 -0.1541
    1W        W38930  22.723  11.057   9.321 -0.2997  0.7267  0.2185
    1W        W38931  11.753   2.005   2.022 -0.1582  0.0041  0.2648
    1W        W38932  11.460  26.614   3.134 -0.1701  0.0500  0.4176
    1W        W38933  24.638   7.407   0.261 -0.1675 -0.0370  0.0627
    1W        W38934  20.207   2.350   1.685 -0.3102 -0.2068 -0.0438
    1W        W38935  24.987   4.793   2.637 -0.2790 -0.0484 -0.4344
    1W        W38936  15.261  14.227   1.122  0.1363  0.0714  0.0880
    1W        W38937   0.997  11.030   1.491  0.0425  0.0935 -0.3133
    1W        W38938  22.329   9.853  10.121 -0.2653 -0.5378 -0.1765
    1W        W38939   4.693  21.467   8.496 -0.3139  0.2317  0.1120
    1W        W38940  12.230  11.559   1.139 -0.1931 -0.3449 -0.0506
    1W        W38941  18.183  13.395   9.538 -0.1760 -0.0860  0.0140
    1W        W38942  18.321  23.814   2.107  0.1105 -0.0489 -0.1203
    1W        W38943  13.212   6.683   2.194  0.1102  0.1204 -0.2850
    1W        W38944  24.323  21.903   0.111 -0.2228  0.0367 -0.0043
    1W        W38945  25.131   8.442   1.727  0.2136 -0.2703 -0.0769
    1W        W38946  25.590   1.705   8.860 -0.0329  0.0179 -0.0438
    1W        W38947   5.193  12.785   8.240  0.2073  0.0882 -0.0040
    1W        W38948  10.861   8.702   8.197 -0.1648  0.3611  0.1139
    1W        W38949  22.258  25.654   3.467  0.0240 -0.2842  0.0272
    1W        W38950  16.316  24.553   7.928  0.2809 -0.3387 -0.0605
    1W        W38951  18.283  12.197   1.329 -0.1703 -0.2043 -0.0513
    1W        W38952   5.953  26.120   7.079 -0.2687  0.0316  0.0152
    1W        W38953  18.337   2.173   3.199 -0.0272  0.2057 -0.0177
    1W        W38954  10.209   4.222   3.952  0.1665  0.2069 -0.3950
    1W        W38955   2.921  18.014   9.470  0.2258 -0.0118 -0.0317
    1W        W38956  19.371  23.102   1.894  0.0145 -0.0054  0.2253
    1W        W38957  11.282   0.697   7.410  0.1037 -0.0265 -0.1792
    1W        W38958   5.929  11.296   7.429  0.0855 -0.1051 -0.3142
    1W        W38959  22.824   1.168   0.581  0.0965  0.0722 -0.0231
    1W        W38960  14.055  21.062   8.147  0.0530 -0.1281 -0.3532
    1W        W38961  16.077   9.439   8.267  0.0022 -0.2994 -0.1931
    1W        W38962  23.427  20.186   2.391  0.0176 -0.4045  0.0082
    1W        W38963   3.423   1.210   9.465  0.3661 -0.1439  0.2290
    1W        W38964   9.288   0.190   1.456 -0.0225 -0.0301 -0.1968
    1W        W38965   7.739  23.874   1.842  0.0358  0.2611  0.1616
    1W        W38966   2.018  16.099   7.394 -0.0135  0.0885 -0.0177
    1W        W38967  22.936  11.685   7.523  0.0533  0.1631  0.1879
    1W        W38968  11.003  26.605   7.254 -0.0614 -0.0425 -0.1309
    1W        W38969   4.154  22.882   9.676 -0.6241  0.0776  0.0521
    1W        W38970  26.176  11.820   7.979  0.0967 -0.1077 -0.1389
    1W        W38971  26.824   2.563  10.239  0.2919  0.1127  0.0183
    1W        W38972  24.776   3.207   0.132 -0.1068 -0.1907  0.2554
    1W        W38973   6.662   6.190   1.420  0.1014 -0.1355 -0.1692
    1W        W38974  16.438   3.155   0.311  0.2213  0.0981  0.1588
    1W        W38975   1.481  15.508   1.009 -0.0027 -0.4292  0.0741
    1W        W38976   8.664   1.437   9.738  0.2435 -0.4633  0.2891
    1W        W38977  14.686   9.245   1.103  0.1327 -0.1796  0.0528
    1W        W38978  20.051  23.692   0.043 -0.1731  0.1697 -0.0487
    1W        W38979  11.729  15.994   0.451 -0.1059  0.0845 -0.0348
    1W        W38980   3.822  25.073   9.398  0.1801 -0.2028 -0.1101
    1W        W38981  14.827  11.400   1.490  0.1049  0.2567 -0.1115
    1W        W38982   4.140  27.103   9.824 -0.0392  0.0263  0.0701
    1W        W38983   5.215   5.739   9.287  0.1562 -0.0732  0.0828
    1W        W38984  12.129   5.006   9.716  0.0443  0.0675  0.2883
    1W        W38985  14.668  18.847   1.580  0.0267 -0.2341 -0.0432
    1W        W38986   4.196   3.568   1.979 -0.0324  0.0706  0.0236
    1W        W38987  15.165  20.253  10.107  0.1197  0.1297 -0.0279
    1W        W38988   5.449  24.741   8.058  0.3866  0.1701  0.0726
    1W        W38989  24.990   7.290   7.042 -0.3754  0.2273 -0.2512
    1W        W38990   2.748  11.714   2.685  0.0468  0.2451  0.0651
    1W        W38991  11.691  22.063   1.774  0.0625  0.0622  0.0846
    1W        W38992   8.128   9.571   7.513  0.0780  0.3277  0.1589
    1W        W38993  23.166   4.875   8.431 -0.0981  0.4185  0.0781
    1W        W38994  20.490   7.615   2.016  0.0020 -0.0507  0.0424
    1W        W38995  15.952   7.891   8.518 -0.1871  0.1929  0.0246
    1W        W38996   4.324  16.235   9.914 -0.0426 -0.0898 -0.1197
    1W        W38997   5.471  18.230   8.674 -0.1193 -0.4167  0.1973
    1W        W38998   0.452  23.061   2.878 -0.1053  0.1249 -0.1380
    1W        W38999  26.424   7.807   8.123 -0.0453 -0.2507  0.2852
    1W        W39000  14.774   8.916   0.718 -0.0450 -0.1591  0.0778
    1W        W39001   1.237   5.563   0.721  0.1211  0.3595  0.2700
    1W        W39002   5.478   5.288   8.095  0.2116  0.1079  0.0248
    1W        W39003   4.905   9.152   8.671  0.3191  0.0895 -0.0769
    1W        W39004  16.093   2.605   7.306  0.0442 -0.0131 -0.1203
    1W        W39005  13.994   1.369   8.720  0.1663 -0.1065  0.0099
    1W        W39006  11.575  16.256   1.362 -0.0430 -0.4380  0.1162
    1W        W39007  17.697  14.443   2.569 -0.0504 -0.2203 -0.2593
    1W        W39008  15.555  13.134   0.372 -0.3287  0.2123  0.0340
    1W        W39009  27.604  25.228   9.884  0.0386 -0.2046  0.0343
    1W        W39010  24.879   0.201   1.428 -0.2171 -0.0760  0.2033
    1W        W39011  22.728  17.423   8.453  0.4000 -0.2494  0.0438
    1W        W39012  18.239  20.925   0.504  0.0931  0.0095  0.0994
    1W        W39013   4.897  10.134   0.287 -0.2236 -0.4261 -0.3083
    1W        W39014   6.899   9.627   7.411  0.1257 -0.0813  0.1910
    1W        W39015  13.091   3.861   1.401 -0.0983  0.1355  0.2687
    1W        W39016  17.115  19.339   7.939  0.0604  0.2295 -0.0683
    1W        W39017  12.066  23.770   8.241  0.0366  0.0341  0.3067
    1W        W39018  20.871   9.337   0.928 -0.2325  0.0578 -0.0958
    1W        W39019   1.560  22.805   2.487 -0.1688 -0.1920 -0.0384
    1W        W39020   4.827   2.854   1.644  0.1139  0.1547 -0.2336
    1W        W39021   3.501  16.597   3.314 -0.1120 -0.2657  0.1546
    1W        W39022   4.774   3.358   8.388  0.2144  0.2762 -0.1979
    1W        W39023  22.032   1.113   0.857  0.0856 -0.0942  0.0618
    1W        W39024  12.129  16.415   0.398 -0.1291 -0.1723  0.0227
    1W        W39025  24.962  11.832   8.356  0.4141 -0.0942  0.1123
    1W        W39026  21.908  14.792   7.911  0.1835  0.1639  0.2238
    1W        W39027   9.323   3.566   9.344 -0.1591  0.0386 -0.0094
    1W        W39028  15.522  22.417   2.161 -0.0751  0.0571 -0.1240
    1W        W39029  23.405  11.564   3.092  0.0163  0.2418  0.2303
    1W        W39030  11.754  25.512   7.654  0.1015 -0.0691 -0.1521
    1W        W39031   4.521  19.773   9.754  0.0034 -0.2456  0.1543
    1W        W39032  11.704   1.888   1.076 -0.4178 -0.0190  0.1685
    1W        W39033  14.581  25.292   1.135  0.0772 -0.2246 -0.0496
    1W        W39034   8.485   6.577  10.248  0.0726 -0.4002  0.2018
    1W        W39035   9.558  12.340   4.277 -0.3288 -0.0252  0.0684
    1W        W39036  24.893   4.277   2.465  0.2504  0.2237  0.1023
    1W        W39037  28.015  20.486  10.093  0.2585 -0.0705  0.2353
    1W        W39038   1.553  16.498   0.733 -0.1664  0.0403 -0.3003
    1W        W39039  12.717   7.197   9.383  0.1720  0.2009 -0.1626
    1W        W39040  22.468   8.679   0.467  0.0482  0.3952  0.1771
    1W        W39041   2.981  11.784   6.984  0.2396  0.2500 -0.1485
    1W        W39042  19.708   9.658   9.515 -0.0300  0.2065 -0.3096
    1W        W39043   3.966  28.099   9.631  0.1268  0.3005 -0.0494
    1W        W39044  20.660   6.248  10.183  0.2512  0.0229 -0.1756
    1W        W39045  11.461  25.936   7.670 -0.0891  0.3329  0.0791
    1W        W39046  27.825  16.867   1.011  0.2318  0.1604  0.2421
    1W        W39047   6.583   3.180   8.276  0.1550 -0.0609  0.0228
    1W        W39048  23.285  25.976   1.913  0.0940 -0.2443  0.0036
    1W        W39049  26.694  10.245   9.061  0.1088  0.0770  0.1342
    1W        W39050  25.176   3.956   2.758  0.1712 -0.2311 -0.1760
    1W        W39051  17.508  22.601   9.118  0.1164  0.0076  0.3119
    1W        W39052  21.853  25.760   3.805 -0.2538  0.0273  0.1448
    1W        W39053  20.408  19.298   8.726 -0.0272 -0.1940  0.1855
    1W        W39054   2.787   3.781   8.623  0.0121 -0.2094 -0.2023
    1W        W39055   9.653   5.597   8.823  0.0785 -0.0549  0.1164
    1W        W39056  24.210   2.593  10.301  0.0407  0.1838  0.1693
    1W        W39057  17.817   8.222   0.651 -0.0568 -0.0772 -0.0476
    1W        W39058   5.107  16.956   3.102 -0.1547  0.0022 -0.3724
    1W        W39059  15.449  12.547   1.472 -0.0599 -0.1717  0.1624
    1W        W39060   4.543   7.724   8.112 -0.3300  0.2606 -0.2367
    1W        W39061  24.854   5.595   1.070  0.0167 -0.1338  0.0446
    1W        W39062   2.964   9.878   0.620 -0.1675  0.0452  0.0877
    1W        W39063  28.104   0.490   7.298 -0.0667 -0.0003  0.0529
    1W        W39064   9.136  25.468   8.519 -0.0888  0.0603  0.0392
    1W        W39065  27.609   0.399   0.001  0.1168 -0.2548 -0.0938
    1W        W39066   8.128  13.028   2.628 -0.2552 -0.2528 -0.1259
    1W        W39067   9.416   9.739   9.333 -0.0231  0.0376 -0.0219
    1W        W39068  13.040   0.935   0.883  0.3929 -0.0823 -0.1022
    1W        W39069  21.848  13.073   2.539  0.1657  0.0300  0.2456
    1W        W39070  15.811  26.991   8.660 -0.1571  0.0383  0.1716
    1W        W39071  25.587   6.933   9.672  0.0195 -0.0356 -0.0755
    1W        W39072   0.563  27.812   8.335 -0.2325 -0.1250 -0.0255
    1W        W39073   7.263  11.571   1.726  0.0752  0.0343  0.0236
    1W        W39074  11.638   9.717   2.334 -0.2641 -0.0404 -0.1456
    1W        W39075   5.471  24.009   9.645  0.0291 -0.2118  0.0197
    1W        W39076  25.399   0.019   2.664 -0.0119 -0.2239 -0.0460
    1W        W39077   2.861  27.366   9.807  0.0375  0.2974  0.1073
    1W        W39078  21.422  15.607   2.581  0.1045 -0.1875  0.2900
    1W        W39079  15.659  15.469   9.576  0.0126 -0.2325  0.0852
    1W        W39080   9.109  22.022   2.067 -0.0403 -0.2690 -0.1704
    1W        W39081  19.137  26.302   2.204  0.1113 -0.0200 -0.0663
    1W        W39082   7.310   3.655   9.452  0.1748  0.1174 -0.1757
    1W        W39083  20.676   6.330   8.193 -0.0480  0.2359 -0.0504
    1W        W39084   2.237  27.325   0.220  0.1088 -0.1254  0.3185
    1W        W39085   1.358   0.662  10.060  0.1654  0.4211 -0.2864
    1W        W39086   9.167  12.687   8.133 -0.0483 -0.0171 -0.0622
    1W        W39087  12.280   0.840   1.415 -0.3831  0.1371  0.0165
    1W        W39088  22.867  20.108   9.217  0.0318 -0.0374  0.1727
    1W        W39089  18.554  18.920   2.488  0.0558 -0.2350 -0.1349
    1W        W39090  10.750   7.316   1.285 -0.1316  0.0128 -0.1105
    1W        W39091   6.570  18.835   1.885 -0.2158  0.3958  0.0399
    1W        W39092  18.570  24.005   3.279 -0.0053  0.0518  0.1041
    1W        W39093  14.657  21.887   0.948 -0.0615 -0.2745 -0.1506
    1W        W39094   2.168   0.627   1.342 -0.0287 -0.2317 -0.2357
    1W        W39095   1.839   0.221   1.252  0.1000  0.0615  0.2151
    1W        W39096   0.120  27.737  10.278  0.0806 -0.3998 -0.4180
    1W        W39097  17.546  26.494  10.134 -0.1013 -0.2744  0.1368
    1W        W39098  15.400   1.042   8.956 -0.1510  0.0253  0.2831
    1W        W39099  27.360  10.926   3.196 -0.4301 -0.0072 -0.0379
    1W        W39100   5.249  11.223   0.649  0.0345 -0.2033  0.0652
    1W        W39101  15.900  22.350   0.582  0.0853 -0.2519  0.0833
    1W        W39102  12.512   8.646   7.425 -0.1065  0.2077 -0.2351
    1W        W39103  21.372  19.759   2.175 -0.0642  0.1146  0.4382
    1W        W39104  27.315  14.018   6.958 -0.4489 -0.1415  0.0320
    1W        W39105   9.829  17.752   3.863 -0.0608 -0.2504  0.1675
    1W        W39106  22.197  11.454   8.945  0.0477 -0.0078  0.2115
    1W        W39107  26.392   5.303   1.689  0.2464 -0.0119 -0.1595
    1W        W39108  17.152  24.080   8.849  0.2840 -0.3483  0.0205
    1W        W39109   6.917   5.461  10.359 -0.2820 -0.0137  0.0737
    1W        W39110  18.449   0.339   3.570  0.0530 -0.0045  0.1509
    1W        W39111   2.752  26.694   8.354  0.2523  0.0203 -0.3183
    1W        W39112   5.588   3.014   7.777  0.2002  0.0824  0.3763
    1W        W39113   3.783   0.695   9.090  0.0442 -0.1913  0.0204
    1W        W39114  23.915  15.580   1.472  0.1347 -0.2893 -0.0626
    1W        W39115  10.053  13.590   9.740  0.0057  0.0085  0.1082
    1W        W39116  11.640  12.761   2.580  0.0175  0.0093  0.0261
    1W        W39117  11.702   0.978   8.552 -0.6286 -0.0623  0.2612
    1W        W39118  12.292  23.470   7.333 -0.0162  0.0418 -0.1740
    1W        W39119  22.854  26.766   3.989  0.1602  0.0690  0.0470
    1W        W39120  11.514  14.169   0.558 -0.0768  0.4442 -0.1187
    1W        W39121  20.865   6.365   2.221 -0.1106  0.0274 -0.1983
    1W        W39122  24.903   7.290   8.419  0.0157 -0.1946  0.2358
    1W        W39123   4.261   3.151   9.256  0.1384 -0.2260  0.0544
    1W        W39124  25.574  15.443   2.227 -0.4298 -0.1965 -0.0062
    1W        W39125  13.166  16.517   9.495  0.1539 -0.1769 -0.0118
    1W        W39126  20.848  26.023   2.826  0.0898 -0.1616  0.2024
    1W        W39127  21.091   7.030   8.766 -0.1378 -0.2562 -0.3440
    1W        W39128  18.134  16.603   9.435 -0.0745 -0.0286 -0.1277
    1W        W39129  15.938  10.596   1.855 -0.3214  0.2321 -0.1758
    1W        W39130  11.970   9.886   1.364 -0.2728 -0.0124  0.0599
    1W        W39131  20.541   2.155   2.665 -0.0312  0.3192  0.3018
    1W        W39132  18.127  24.730   0.699  0.3599  0.4955  0.2363
    1W        W39133   2.762  16.113   2.640  0.0787  0.3169  0.0134
    1W        W39134  23.838  18.361   2.283 -0.1310 -0.1322 -0.1836
    1W        W39135   6.755   9.012   1.389 -0.0637  0.2202  0.1677
    1W        W39136  27.603  18.136   0.700  0.1521  0.0078 -0.2400
    1W        W39137  25.443  20.929   6.709 -0.0536  0.0422 -0.0680
    1W        W39138  20.897  15.089   9.752 -0.1913 -0.1989 -0.0067
    1W        W39139  12.319  22.097   1.222 -0.0781 -0.0919 -0.1854
    1W        W39140   8.533  11.885   8.768  0.4030 -0.0032  0.1062
    1W        W39141  25.670  24.701   1.945  0.1236  0.2806 -0.0191
    1W        W39142  19.517   3.953   1.682 -0.0621 -0.0074  0.1704
    1W        W39143  25.254   5.085   2.347 -0.1536 -0.0781 -0.1011
    1W        W39144   8.107  20.536   1.560 -0.0900  0.0507 -0.2624
    1W        W39145  22.665   9.370   8.945 -0.0045 -0.2239 -0.0222
    1W        W39146  25.065   6.992   1.933  0.0233  0.0871  0.3210
    1W        W39147   3.125  27.374   0.393 -0.1630 -0.4017 -0.2000
    1W        W39148  14.513   7.184   1.974 -0.1108 -0.1844 -0.0166
    1W        W39149  19.843  13.677   1.892  0.1666  0.1281 -0.0254
    1W        W39150  12.203  20.261   7.656  0.0818  0.4216  0.0942
    1W        W39151  24.461  15.317   2.189 -0.0970 -0.1460 -0.1374
    1W        W39152   0.767  11.767   8.755 -0.1136 -0.4689  0.1864
    1W        W39153   5.847  27.860   9.927 -0.1771  0.2180 -0.1259
    1W        W39154  26.585  18.672   8.007 -0.1347  0.3166 -0.1235
    1W        W39155   6.138   2.779   0.466  0.3278 -0.3268 -0.0118
    1W        W39156  18.216   8.122   7.889 -0.3402 -0.4164 -0.0226
    1W        W39157  26.083  16.450   8.138 -0.0781 -0.0220 -0.0849
    1W        W39158  12.860  21.366   1.556 -0.0140  0.3278  0.0923
    1W        W39159   3.564  13.398   7.752 -0.0255  0.1522 -0.0554
    1W        W39160   8.765   8.429   8.055 -0.0009  0.1222 -0.0848
    1W        W39161   4.769   0.571   8.988 -0.0240 -0.0108  0.0106
    1W        W39162  11.021   1.197   9.733 -0.0122 -0.1905 -0.1655
    1W        W39163   8.026   6.830   0.030 -0.2188 -0.1642 -0.0228
    1W        W39164  14.555  18.817   3.032  0.0441  0.0436  0.0066
    1W        W39165  15.694  26.457   2.343 -0.0423  0.1777  0.1237
    1W        W39166   0.832  17.181   0.375 -0.3171  0.0712 -0.1665
    1W        W39167  16.575  10.799   9.078  0.2118 -0.1089 -0.0213
    1W        W39168  17.344   9.907   9.349 -0.0275  0.0551  0.0164
    1W        W39169  14.740   1.627   4.173 -0.1169  0.1053  0.2172
    1W        W39170   7.526   7.548   3.368 -0.0949 -0.0360  0.0053
    1W        W39171  16.272   9.019   3.343  0.0603  0.4026 -0.0582
    1W        W39172   4.719  24.045  10.178 -0.0723 -0.1830  0.1775
    1W        W39173  25.082  13.506   1.210 -0.2677  0.0526 -0.3242
    1W        W39174  21.057  19.801   9.199 -0.1586  0.0890 -0.2274
    1W        W39175   7.108  19.819   9.777  0.3914  0.0765 -0.2373
    1W        W39176  14.444  22.688   2.134  0.1555  0.0266  0.0363
    1W        W39177  19.741   5.470   2.187 -0.0012 -0.0727 -0.2784
    1W        W39178   2.877  12.776   1.439  0.1983  0.0411  0.0597
    1W        W39179  10.601  15.684   8.847 -0.1293  0.1864  0.1179
    1W        W39180  20.822  19.565   7.624  0.0424  0.2072  0.1070
    1W        W39181  27.078  24.362   2.013  0.0882 -0.1114  0.1753
    1W        W39182   7.332  24.033   7.675  0.3822 -0.2376 -0.3481
    1W        W39183  14.984  15.857   2.879 -0.2263  0.0880 -0.0179
    1W        W39184  11.352  20.329   8.898 -0.2386 -0.0013 -0.0046
    1W        W39185   9.683  10.078   9.711 -0.0306 -0.0415  0.2477
    1W        W39186   2.324  15.904   8.909  0.1848  0.2491 -0.0389
    1W        W39187  10.121   3.308   9.063 -0.1621  0.1363  0.1433
    1W        W39188   3.064   8.236   9.263 -0.0339  0.0398 -0.0651
    1W        W39189  27.734   1.716  10.043 -0.2612 -0.0961 -0.0757
    1W        W39190  18.322   8.756   9.610  0.1288 -0.2243 -0.4515
    1W        W39191   7.101  10.058   2.997 -0.0540 -0.0249  0.2146
    1W        W39192  10.779   7.011   1.679 -0.0872 -0.1097  0.0320
    1W        W39193   1.250  13.507   2.318 -0.3365  0.0843  0.1638
    1W        W39194  27.651  25.166   2.278  0.0147  0.0124 -0.0380
    1W        W39195  15.293  12.084   2.219  0.1900  0.0955  0.0779
    1W        W39196  17.933  22.002   0.089  0.0699  0.1372  0.1237
    1W        W39197   1.964   5.383  10.068 -0.0056  0.0359  0.1012
    1W        W39198  24.485   6.647   6.678 -0.2744  0.0667  0.1420
    1W        W39199  11.069  12.489   2.951  0.2209 -0.1433 -0.3839
    1W        W39200   7.587   5.461   9.190  0.0300  0.0850  0.0028
    1W        W39201  24.500  22.527   7.950  0.0111  0.0948 -0.1234
    1W        W39202   2.062   8.216   0.140  0.3591  0.1048  0.0785
    1W        W39203  25.177  19.189   1.242  0.2207 -0.3683 -0.0323
    1W        W39204  23.706  24.327   9.854  0.0287 -0.1222 -0.0369
    1W        W39205  17.890  22.126   9.975  0.1173  0.4008 -0.0996
    1W        W39206  11.859  13.834  10.152 -0.0640  0.0562 -0.3622
    1W        W39207  17.929  10.649   8.728 -0.0663  0.4765  0.2334
    1W        W39208  11.900  14.047   1.218 -0.0370  0.1038  0.2196
    1W        W39209  12.061   5.320   9.090 -0.1382 -0.2936  0.0920
    1W        W39210  10.863  23.346   8.174 -0.0113  0.1090  0.0642
    1W        W39211   8.772  24.749   9.532 -0.0529  0.1226  0.0659
    1W        W39212  19.670  24.418   9.916 -0.2766 -0.0679  0.3667
    1W        W39213  27.383   0.027   2.576 -0.0727  0.1281 -0.0838
    1W        W39214  28.076  20.753   7.736  0.0262 -0.1232 -0.0433
    1W        W39215  20.414  26.438   8.707 -0.0978  0.1404  0.0360
    1W        W39216  26.175   0.087   1.620 -0.0099  0.1622  0.0457
    1W        W39217   3.679  19.094   8.666 -0.0941  0.2224  0.0707
    1W        W39218  24.682   0.706   1.028  0.1374 -0.1422 -0.1264
    1W        W39219   0.823  23.970   7.464  0.1267  0.0615 -0.1755
    1W        W39220  22.501  11.437   7.115 -0.1305 -0.0242 -0.0508
    1W        W39221  16.942  15.721   0.544  0.1891 -0.0835 -0.1690
    1W        W39222  17.539  16.920   8.224  0.1873  0.0076  0.0288
    1W        W39223  13.032  13.246   0.511  0.3320 -0.0317 -0.2343
    1W        W39224  16.968   0.658   1.347 -0.3342 -0.3797  0.2739
    1W        W39225   5.791   1.547   9.254  0.1783  0.1858  0.1093
    1W        W39226   0.125  27.757   7.639 -0.0809 -0.1332 -0.0919
    1W        W39227  11.585  20.159   7.805  0.1570  0.1333 -0.1523
    1W        W39228   6.495   4.589   9.599  0.1581  0.0788 -0.3006
    1W        W39229   0.864  15.392   7.512 -0.0624  0.0044  0.1063
    1W        W39230   9.398   0.181   7.135 -0.3467 -0.0847  0.3089
    1W        W39231   8.375  26.611   2.018  0.0433  0.0507  0.0179
    1W        W39232  15.032  10.651   8.880  0.3314 -0.1249  0.2099
    1W        W39233  23.628  15.303   1.193  0.1004  0.1377 -0.1755
    1W        W39234  12.746   1.129   0.368  0.2167 -0.0620  0.1398
    1W        W39235   4.819  26.155   1.931  0.1777 -0.1634  0.1420
    1W        W39236  20.637  13.696   8.776  0.2587  0.0169 -0.0797
    1W        W39237  24.837  21.324   2.043  0.0150 -0.1840  0.1847
    1W        W39238  12.323  22.410   2.519 -0.1928 -0.0644 -0.2005
    1W        W39239  19.334  24.545   7.028  0.1271  0.3523  0.1265
    1W        W39240   2.973  27.833   1.264  0.1414  0.1287  0.1066
    1W        W39241  15.244   0.235   8.984 -0.0783  0.0990  0.0228
    1W        W39242  17.864  13.841   2.521 -0.2303 -0.1274  0.2673
    1W        W39243  16.373   1.382   8.043 -0.1822  0.0932 -0.1183
    1W        W39244   1.219  14.882   2.473  0.2721  0.1759  0.1888
    1W        W39245  19.577  23.156   0.176 -0.0140  0.1171 -0.0583
    1W        W39246  20.560  20.628   8.603  0.1232  0.1860 -0.0596
    1W        W39247   8.268  16.201   7.858  0.1917  0.0424 -0.2153
    1W        W39248  15.174   8.106   9.276  0.0071  0.0864  0.0184
    1W        W39249  24.036  22.037   9.097  0.1628 -0.0023 -0.1813
    1W        W39250   5.706  13.147   1.714  0.0227  0.0255  0.2066
    1W        W39251  24.621  11.341   7.462 -0.2984 -0.0418 -0.3113
    1W        W39252  25.548  22.696  10.072  0.1824  0.0150 -0.1925
    1W        W39253   4.840  15.670   1.275 -0.1256  0.4404 -0.1213
    1W        W39254  26.009   0.139  10.102  0.1332 -0.2354 -0.1128
    1W        W39255  12.549  21.899   8.481  0.2332 -0.1767 -0.1060
    1W        W39256  10.742  21.395   0.752 -0.1612 -0.0825  0.4247
    1W        W39257   2.855  10.532  10.134  0.0716 -0.1418  0.1454
    1W        W39258  24.142  10.794   3.233 -0.1009  0.0648  0.1772
    1W        W39259  27.060  27.259   1.349 -0.0776  0.2329  0.0709
    1W        W39260  12.014  14.778   1.479 -0.3056  0.1841  0.0002
    1W        W39261  22.509   3.526   2.969 -0.1551 -0.2378 -0.1126
    1W        W39262  11.288  21.237   9.164  0.0496 -0.0581 -0.1550
    1W        W39263  24.940   4.118   9.527  0.0342  0.0502 -0.5202
    1W        W39264   1.650   6.184   5.770 -0.3879  0.1424  0.0346
    1W        W39265  16.652   4.095   9.638  0.1115  0.3600  0.0101
    1W        W39266   5.214   7.933   2.648  0.1987 -0.0409 -0.0317
    1W        W39267  13.613  14.359   2.517  0.0451 -0.1174  0.1051
    1W        W39268  23.063  16.090   1.301 -0.0765 -0.1136 -0.1857
    1W        W39269  13.208  27.464   2.715  0.1173 -0.3324 -0.3756
    1W        W39270  16.065  15.724   0.134 -0.0294 -0.0895  0.0056
    1W        W39271  22.162  19.869   1.225 -0.1172  0.0759 -0.2357
    1W        W39272  14.376  11.621   8.715 -0.0445  0.0728 -0.0127
    1W        W39273   5.021  23.249   9.382 -0.3021  0.0295  0.2259
    1W        W39274  15.344   0.532   3.204  0.3513 -0.1212 -0.0061
    1W        W39275  16.000   5.682   4.052 -0.0933  0.0620 -0.1318
    1W        W39276   6.510  10.077   2.376 -0.0095 -0.1245  0.3016
    1W        W39277   5.694   3.070   0.509  0.1642  0.2301 -0.1351
    1W        W39278  11.991  25.366   6.245 -0.0587  0.0679 -0.0309
    1W        W39279  13.443  22.226   6.936 -0.1104 -0.3899 -0.0809
    1W        W39280  17.824   5.551   0.425  0.1330 -0.2817 -0.0628
    1W        W39281  20.482  26.853   0.339  0.0647  0.0440 -0.2495
    1W        W39282  24.015  20.769   7.975  0.2067  0.0295  0.2714
    1W        W39283  13.283  12.424   9.060 -0.2850 -0.0246  0.0096
    1W        W39284   6.322  24.348   7.474  0.2055 -0.1818 -0.0145
    1W        W39285   8.396  10.338   1.279 -0.1194  0.2307  0.0898
    1W        W39286  19.305  10.406   7.670  0.2620  0.1040 -0.0174
    1W        W39287  17.295  21.035   2.975  0.3371  0.1217 -0.3015
    1W        W39288   0.645  11.633   2.652 -0.0955  0.1447  0.0534
    1W        W39289   0.096  20.076   1.137  0.0333 -0.3012 -0.2232
    1W        W39290  18.776  26.328   8.665 -0.2352  0.1137  0.3887
    1W        W39291   9.747  26.377   9.254  0.0750  0.0308  0.0232
    1W        W39292   5.959   1.019   9.699 -0.4909  0.0264  0.0314
    1W        W39293   2.291  22.161  10.142  0.1730 -0.1549 -0.0347
    1W        W39294  13.579  13.544   9.275 -0.1070  0.1720  0.0743
    1W        W39295   2.577   3.717   6.941  0.2666 -0.1297 -0.0518
    1W        W39296   0.403   2.196  10.354  0.0665 -0.1050 -0.0140
    1W        W39297  26.076  10.182   0.314 -0.1169  0.2153 -0.2647
    1W        W39298   0.812   8.399   2.123  0.1524  0.2501 -0.2626
    1W        W39299   1.248   7.685   0.328 -0.0647  0.2374 -0.0305
    1W        W39300  26.027   5.570   1.949  0.2913 -0.1661  0.0403
    1W        W39301  19.204  11.701   9.549  0.1639 -0.0882 -0.2666
    1W        W39302  16.106   3.434   1.687 -0.2732  0.0587 -0.1714
    1W        W39303  25.602   8.279   0.582 -0.2456 -0.1256 -0.0840
    1W        W39304   7.491  13.129   1.959  0.2382 -0.0302  0.1898
    1W        W39305   9.924  17.634   8.854  0.0246  0.1722 -0.1329
    1W        W39306   8.600   2.225   2.911  0.0306  0.0753  0.1525
    1W        W39307  13.261  23.333   7.338  0.3186  0.1146 -0.1716
    1W        W39308  14.946  12.470   2.250 -0.0692 -0.0289 -0.0016
    1W        W39309   4.545  27.238   7.910  0.1914  0.0077  0.1696
    1W        W39310   5.396   0.584   1.956 -0.1591  0.1046 -0.0409
    1W        W39311  26.700  20.538   0.345  0.1319  0.0820 -0.0510
    1W        W39312  19.683   6.172   8.444  0.0036 -0.0831  0.0629
    1W        W39313  23.838   2.296   2.681 -0.0644 -0.0966 -0.2154
    1W        W39314  17.301   4.614   3.135 -0.1199 -0.1736  0.1461
    1W        W39315   8.515  17.680   0.455  0.0792  0.0884  0.0488
    1W        W39316   9.996  21.771   3.291 -0.1460 -0.1236 -0.0981
    1W        W39317  19.790  27.376   1.574 -0.0935 -0.1130  0.0405
    1W        W39318  24.276  10.173   0.887 -0.3757 -0.1779  0.0057
    1W        W39319  25.530   0.263   9.148  0.0522 -0.0058 -0.1444
    1W        W39320  11.494  24.471   2.039 -0.1798  0.0229  0.0463
    1W        W39321  22.461  16.932   1.929 -0.1458 -0.3236 -0.0463
    1W        W39322  27.910  18.204   7.333  0.2363 -0.1513 -0.0104
    1W        W39323   5.043   3.587   6.827 -0.0087  0.4120  0.1452
    1W        W39324   4.380  15.125   7.957 -0.0296  0.0212 -0.0348
    1W        W39325  18.699  11.645   9.490 -0.2461  0.0599 -0.1602
    1W        W39326   1.472  27.983   7.656 -0.0733 -0.0354 -0.0120
    1W        W39327   6.092   7.748   6.344 -0.0031 -0.2209  0.0963
    1W        W39328   7.300  15.462   9.635 -0.1083  0.0841 -0.3012
    1W        W39329  10.093  20.603   3.063 -0.0698 -0.1147  0.0118
    1W        W39330  24.052   1.233   1.166  0.4299  0.2444 -0.2925
    1W        W39331  20.277   2.678   8.451  0.1715  0.2803 -0.1599
    1W        W39332  25.943   2.127   7.857  0.1707 -0.0041 -0.0986
    1W        W39333  17.641   6.452   8.233 -0.4082 -0.2466 -0.1988
    1W        W39334  25.637   2.540   1.873 -0.1543 -0.0006 -0.1537
    1W        W39335  16.273   7.287   9.601  0.1717 -0.0122 -0.0156
    1W        W39336  10.844  20.847   7.570 -0.0089 -0.1135  0.0974
    1W        W39337  22.554  20.082   8.400  0.1214  0.1586 -0.2571
    1W        W39338   1.141  14.143   9.052 -0.0594  0.0869 -0.1154
    1W        W39339   6.013  18.353   8.045 -0.2548 -0.1497 -0.1363
    1W        W39340  14.100  27.773   7.811 -0.0528  0.3176 -0.1915
    1W        W39341  25.798  19.842   9.829 -0.0809 -0.1549 -0.2883
    1W        W39342  15.481  16.478   1.408 -0.2397 -0.1110  0.2370
    1W        W39343  18.378   8.533  10.046  0.2589  0.1990  0.2752
    1W        W39344  12.517   3.812   2.201 -0.1649  0.0024 -0.0210
    1W        W39345  18.092   6.105   1.383  0.4130 -0.0814  0.0223
    1W        W39346  18.701  13.397   1.453 -0.0323 -0.2851 -0.5358
    1W        W39347  20.201  25.375   2.689 -0.1519 -0.3944  0.0760
    1W        W39348   3.903   1.961   6.963  0.2377  0.0262 -0.2189
    1W        W39349  16.136  27.313   8.042  0.3445 -0.2542 -0.0180
    1W        W39350   8.686  19.829   1.378 -0.0325  0.0591 -0.3257
    1W        W39351  16.839  21.183   6.235  0.2213  0.2423 -0.1468
    1W        W39352  16.789   4.057   7.962 -0.0966  0.3215 -0.0411
    1W        W39353  16.645  23.789   1.866 -0.0918 -0.1107  0.2807
    1W        W39354  13.791  18.804   2.297 -0.0926 -0.1042 -0.0009
    1W        W39355   7.928  13.191   1.612 -0.2331 -0.1446 -0.2526
    1W        W39356   3.028  23.971   2.451 -0.1816 -0.1509  0.1017
    1W        W39357  17.523  18.323   0.985  0.3588  0.3985  0.2203
    1W        W39358  21.361  22.920   9.594  0.2782 -0.1607  0.0245
    1W        W39359   2.325  18.709   1.955 -0.4145  0.0572  0.0800
    1W        W39360  17.401  25.135   0.317  0.1173 -0.2680  0.2920
    1W        W39361  27.296  17.584   8.048 -0.0732  0.0791 -0.0383
    1W        W39362  13.485  17.442   8.277 -0.1643  0.2242  0.0083
    1W        W39363  16.992   9.361   8.666  0.3228  0.1441  0.1645
    1W        W39364  13.280  11.792   2.980  0.2601 -0.0814  0.1350
    1W        W39365  19.449  22.348   7.890 -0.2182 -0.0213  0.0919
    1W        W39366   1.138  15.624   0.479  0.2032 -0.2214  0.0935
    1W        W39367   4.506  10.951   7.927 -0.0113  0.0603  0.0629
    1W        W39368  26.079  27.805   9.931  0.1430  0.0435  0.1428
    1W        W39369  13.547  24.647   6.673 -0.2809 -0.3321 -0.1212
    1W        W39370  23.211   1.596   9.627 -0.3467  0.0963  0.0245
    1W        W39371   0.956   0.741   0.529 -0.4512 -0.0549 -0.0173
    1W        W39372  27.564   8.868   1.537 -0.4703  0.0203  0.3316
    1W        W39373   3.714  20.427   8.887 -0.1922  0.0577 -0.0689
    1W        W39374  12.111  17.898   8.084 -0.0251  0.1894 -0.1061
    1W        W39375  21.187  23.016   1.310 -0.0747 -0.1086  0.5529
    1W        W39376  15.164   5.086   0.496 -0.1049  0.0070 -0.1853
    1W        W39377   6.640  26.255   9.973 -0.0295  0.1406  0.0829
    1W        W39378   6.562  21.789   0.638  0.1454  0.1222  0.0630
    1W        W39379  23.867   6.470   2.140 -0.0415 -0.1986  0.2634
    1W        W39380   0.341  19.769   1.558  0.0507 -0.0632  0.0215
    1W        W39381  13.490   9.996   0.132 -0.0317  0.1055 -0.1420
    1W        W39382  10.999  17.811   3.069  0.0338 -0.2019 -0.0019
    1W        W39383  26.311  23.811   0.887  0.1898  0.0426 -0.2724
    1W        W39384  11.227   6.267   2.106  0.0671  0.0607  0.1866
    1W        W39385  14.422  18.801   8.194 -0.1589 -0.2356  0.0709
    1W        W39386  14.353  23.234   1.367 -0.0568 -0.1198 -0.1926
    1W        W39387  25.373   4.426   9.975 -0.1534  0.1939 -0.0898
    1W        W39388  21.857  10.253   1.152 -0.0144 -0.4128 -0.2351
    1W        W39389  12.630   6.497   8.894  0.0208 -0.0955  0.0127
    1W        W39390   0.819  22.660   7.669  0.0201  0.1207 -0.0253
    1W        W39391  13.571  12.127   2.688 -0.0519 -0.2935  0.1260
    1W        W39392  11.396   2.275   9.894  0.1357 -0.3121  0.2596
    1W        W39393   2.642  25.559   0.564 -0.1085  0.0974  0.0947
    1W        W39394  21.996  22.956   8.206  0.2267  0.0041 -0.0105
    1W        W39395   6.927   1.892   9.541  0.0678  0.3943  0.0802
    1W        W39396  23.587   1.813   2.708 -0.0778  0.0416  0.3844
    1W        W39397   8.143   1.918   1.329 -0.0737  0.2349  0.2466
    1W        W39398  10.180  19.183   0.071 -0.2253  0.1013  0.0624
    1W        W39399  11.303   7.035   2.842  0.1946 -0.1376  0.0653
    1W        W39400  12.548   0.623   2.637 -0.1165  0.0452 -0.2634
    1W        W39401  27.233  22.050  10.187  0.1501 -0.0170  0.1224
    1W        W39402   4.266  18.535   0.144  0.3934 -0.0451  0.0528
    1W        W39403  21.907  19.068   1.197 -0.1230  0.2492  0.0158
    1W        W39404  24.783  13.791   1.845 -0.3482  0.0796 -0.2789
    1W        W39405   7.452  15.098   0.774 -0.0792  0.0311 -0.0387
    1W        W39406   3.658  27.484   9.906  0.2891  0.1153  0.3710
    1W        W39407  10.809  15.357   1.140 -0.2300  0.1033  0.0833
    1W        W39408   8.265   4.093   7.404  0.1022 -0.0574 -0.0517
    1W        W39409  11.441  24.343   6.511  0.2135  0.0294 -0.0155
    1W        W39410   7.792  15.300   7.543  0.1172 -0.0264 -0.0662
    1W        W39411   3.128   3.602   1.608  0.4799  0.1686  0.1812
    1W        W39412  12.697   1.390   1.139 -0.1186  0.1589 -0.0441
    1W        W39413  14.767  21.574   3.440 -0.2137 -0.2567 -0.5267
    1W        W39414  27.512   7.847   1.195  0.1509  0.1074  0.0513
    1W        W39415  25.032  16.478   1.445  0.2121  0.0430 -0.1182
    1W        W39416  27.813  11.854   1.036  0.2255 -0.3207  0.3022
    1W        W39417  27.021  12.804   3.462  0.1374 -0.0391  0.3107
    1W        W39418  15.219  21.745   0.849 -0.2862 -0.4138  0.0785
    1W        W39419  18.775   4.672   8.386  0.0311  0.0766 -0.2102
    1W        W39420  19.260  17.958   1.928  0.1600 -0.2352 -0.1441
    1W        W39421   0.140  27.300   1.068 -0.0193 -0.1606  0.2036
    1W        W39422  10.176  12.440   1.810 -0.1539  0.2139 -0.0752
    1W        W39423  22.437  24.477   1.264 -0.3084 -0.1611 -0.1498
    1W        W39424  11.682   8.060   9.081  0.0266  0.0506 -0.0476
    1W        W39425   4.685  25.865   1.201 -0.1764 -0.0486 -0.0227
    1W        W39426  21.818  26.304   7.733  0.1191 -0.1291  0.2056
    1W        W39427   8.361  21.715   2.367  0.1345  0.2164  0.1048
    1W        W39428  11.238  13.594   7.900  0.0237  0.0364  0.1708
    1W        W39429  15.101  25.599   6.954  0.0742 -0.1718  0.2210
    1W        W39430   6.071   2.945   7.868 -0.1860 -0.0575 -0.0659
    1W        W39431   6.084   3.123   1.545 -0.0360 -0.0837 -0.3167
    1W        W39432   2.029  22.160   1.882  0.0396  0.1151  0.1506
    1W        W39433  10.786   4.749   8.504 -0.4984 -0.3410 -0.1272
    1W        W39434  13.267   7.928   1.698  0.3139 -0.2428 -0.2142
    1W        W39435   8.483  27.309   0.545 -0.0188 -0.0429  0.0022
    1W        W39436  27.285  24.799   9.798 -0.0057 -0.2311  0.0230
    1W        W39437   9.851  24.414   0.992  0.0224  0.1685  0.0367
    1W        W39438  16.326   0.803   4.203  0.2617 -0.0150  0.1405
    1W        W39439  18.210   9.789   0.083  0.2623  0.2267  0.0198
    1W        W39440  14.106  18.693   7.847 -0.0344  0.0660  0.3271
    1W        W39441   9.213  27.745   9.938 -0.6250 -0.2042 -0.0104
    1W        W39442  21.533   2.222  10.301  0.3028 -0.0177  0.1242
    1W        W39443  17.686  13.970   7.909 -0.0491  0.0595  0.6388
    1W        W39444  19.507  27.395   0.320 -0.0059 -0.1781 -0.3052
    1W        W39445  17.043   9.534   2.070  0.1410  0.5388 -0.2279
    1W        W39446  19.609  13.224   7.781 -0.0643  0.0966  0.0814
    1W        W39447  14.894   8.467   1.039 -0.1948  0.1477 -0.0316
    1W        W39448   5.982  22.831  10.269  0.1785 -0.1424 -0.1248
    1W        W39449  25.462  16.674   8.029 -0.4665 -0.0727 -0.1497
    1W        W39450   3.350   6.716   8.900 -0.1848  0.0728  0.3419
    1W        W39451   5.145  13.076   0.267 -0.1580 -0.0054  0.1695
    1W        W39452  24.436  25.767   9.637  0.1820  0.0595  0.1188
    1W        W39453   1.064  14.312   0.102  0.0509 -0.0022  0.0750
    1W        W39454  10.152  12.898   0.055  0.3204 -0.0765 -0.2656
    1W        W39455  26.642  17.974   0.679 -0.0785 -0.2013  0.4031
    1W        W39456  26.435  15.444   7.949  0.0875  0.2828  0.0435
    1W        W39457  26.445  14.344   1.041  0.2331 -0.0495 -0.0858
    1W        W39458  21.106  24.049   0.794 -0.1784 -0.2883 -0.0725
    1W        W39459  21.256   4.161   0.969 -0.1756 -0.1768 -0.2551
    1W        W39460   4.886  14.176   9.018  0.0799 -0.0099 -0.0974
    1W        W39461   2.768   5.853   6.583 -0.2639 -0.0344 -0.3339
    1W        W39462   8.128   7.951   8.161 -0.0886  0.0961  0.1032
    1W        W39463  20.845   4.482   6.523  0.1281 -0.2686  0.0705
    1W        W39464   9.493   3.202   1.286 -0.1929 -0.1153 -0.1446
    1W        W39465   5.341   0.779   0.930  0.0213  0.2117 -0.0699
    1W        W39466   4.032  17.936  10.208 -0.0230  0.2481 -0.3215
    1W        W39467   8.949   4.776   8.196 -0.1568  0.2134 -0.0376
    1W        W39468  27.993  21.044   9.480 -0.2576 -0.4030  0.5031
    1W        W39469  20.629   5.931   2.379 -0.2394  0.0328 -0.1025
    1W        W39470   4.001  21.451   6.443 -0.0149 -0.0113  0.0442
    1W        W39471   6.592  14.359   0.724 -0.2191 -0.1818  0.2015
    1W        W39472  17.825   3.637   0.641  0.1376 -0.2617 -0.0099
    1W        W39473   8.726  27.650   0.276  0.1298 -0.1009  0.2070
    1W        W39474   1.392   0.215  10.289  0.0672 -0.0365  0.0837
    1W        W39475   3.302  22.713   2.773 -0.0904  0.0451 -0.1272
    1W        W39476  17.934  19.238   0.076  0.0126 -0.3583 -0.4047
    1W        W39477  21.147  15.197   2.689  0.0055  0.1076 -0.1836
    1W        W39478   7.359   4.553   2.542  0.4942  0.0591 -0.3077
    1W        W39479  17.270   5.103   9.331  0.0681  0.4073  0.3681
    1W        W39480   8.970  11.636   3.759  0.1095 -0.1016 -0.1808
    1W        W39481  26.998   1.700   1.606 -0.1645 -0.1230  0.1435
    1W        W39482  13.021  27.549   8.232 -0.2231 -0.3597 -0.0403
    1W        W39483  20.375  25.404  10.051  0.0302  0.0232  0.0987
    1W        W39484   5.004  27.207   7.687 -0.4306  0.2263  0.3904
    1W        W39485  24.635   5.471   9.990 -0.1165 -0.1954 -0.0676
    1W        W39486  14.010  20.818   1.000  0.1194 -0.0924  0.1585
    1W        W39487   5.971   9.823   2.731  0.0904  0.1169 -0.1765
    1W        W39488  17.984  19.738   3.747  0.0603 -0.0691  0.0819
    1W        W39489  26.168  23.750   6.231  0.2085  0.1947  0.0442
    1W        W39490   7.726   2.754   0.229 -0.0978 -0.2632  0.2737
    1W        W39491  16.263   9.377   7.260  0.0430 -0.0827  0.0018
    1W        W39492  26.264   9.925   9.016 -0.2669  0.1406 -0.0766
    1W        W39493  23.549   7.288   9.907 -0.0863 -0.1072  0.0846
    1W        W39494   1.297  12.577   6.513  0.1531 -0.2567 -0.1897
    1W        W39495  26.601  19.907   9.166 -0.1576  0.2782 -0.4793
    1W        W39496  14.872   1.166   2.702  0.0945  0.1937  0.2643
    1W        W39497  17.354  12.765   0.003  0.1206 -0.0858  0.2885
    1W        W39498  27.478  10.613   6.681  0.0030  0.2867 -0.1727
    1W        W39499  16.835   7.008   1.162  0.0380 -0.4607  0.1790
    1W        W39500  17.291  23.780   1.150 -0.1470 -0.2710  0.0618
    1W        W39501  10.224  27.950   3.769 -0.1336 -0.3546  0.1757
    1W        W39502  18.789  17.997   2.091  0.4499  0.2738  0.3304
    1W        W39503  21.937  14.977   7.099 -0.3015 -0.1501  0.1998
    1W        W39504  28.109  22.632   0.477 -0.3325 -0.0649  0.1715
    1W        W39505  26.262  11.696   6.950  0.2005  0.1516  0.0841
    1W        W39506  13.371  21.616   9.137  0.3116  0.1532  0.0586
    1W        W39507   8.282   2.285   2.503 -0.0681 -0.1643 -0.2780
    1W        W39508  19.566  22.334   8.625 -0.0386  0.2292 -0.1018
    1W        W39509   9.142  18.637   2.538 -0.2201  0.0029 -0.1065
    1W        W39510  26.921   3.518   0.521 -0.3704  0.1253 -0.3022
    1W        W39511  16.184  23.247   8.066  0.2545  0.0972 -0.0921
    1W        W39512  15.099  16.651   8.210 -0.1062 -0.0297 -0.1715
    1W        W39513   7.752  24.378   7.129  0.2162 -0.2179 -0.1865
    1W        W39514  25.466  21.225   0.079  0.2153  0.0248 -0.2465
    1W        W39515   5.010   5.046   8.741  0.0207 -0.1754  0.1086
    1W        W39516   6.185  19.550   0.820 -0.0715 -0.1165  0.3094
    1W        W39517  16.064  16.368   9.568  0.2364 -0.3677 -0.3709
    1W        W39518   3.061   7.286   8.349  0.2316 -0.1090 -0.1955
    1W        W39519  23.698   5.173   2.315 -0.1464 -0.1305 -0.0199
    1W        W39520  18.069  11.507   3.220 -0.1598  0.1822 -0.0397
    1W        W39521  14.390  25.446   7.343 -0.0007 -0.1147 -0.0770
    1W        W39522   1.648  25.260   9.689 -0.1467  0.0950 -0.0155
    1W        W39523  17.471   6.634   1.804 -0.1138 -0.1882  0.1668
    1W        W39524   4.577   3.697   8.653  0.1796 -0.1116 -0.2760
    1W        W39525  22.668   9.745   7.788  0.1057 -0.0157 -0.0334
    1W        W39526  26.071  21.694   7.675  0.2568  0.1105 -0.0823
    1W        W39527   2.512   9.738   7.587 -0.0206  0.0307 -0.0580
    1W        W39528   1.174  17.924   6.903  0.0737 -0.2841  0.0941
    1W        W39529  21.824  24.016   2.067 -0.0993 -0.0215  0.1412
    1W        W39530  24.462   4.081   8.830 -0.1223 -0.0874  0.1379
    1W        W39531  25.024   8.267   6.267 -0.1792 -0.4047 -0.3591
    1W        W39532   3.215  24.032   8.828  0.0961  0.2614  0.0654
    1W        W39533   0.092  16.632  10.348  0.0984  0.0799 -0.0831
    1W        W39534  25.292  11.801  10.342 -0.2301  0.1443  0.1093
    1W        W39535   7.025  24.202   9.573  0.0979 -0.2036  0.0084
    1W        W39536  17.505  18.568   9.124 -0.0534  0.0440 -0.0137
    1W        W39537  17.376   9.523   8.370  0.2766  0.3377 -0.2363
    1W        W39538  18.452  13.089   8.436 -0.2447  0.1380  0.0128
    1W        W39539  23.647   7.424   7.947 -0.1105 -0.0243  0.0379
    1W        W39540  17.784  24.311   7.937 -0.2457  0.1338 -0.0503
    1W        W39541  10.426   8.754   9.656  0.0870  0.1905  0.1674
    1W        W39542  27.590   7.402   0.435  0.3204 -0.3216  0.0503
    1W        W39543  13.991   9.601   9.821 -0.0595 -0.0567  0.1311
    1W        W39544  10.374  13.626   0.753 -0.2244  0.2183  0.1254
    1W        W39545  11.566  25.751   1.908 -0.3432 -0.4583  0.0728
    1W        W39546  15.230  23.775   7.896  0.4027 -0.0995 -0.2054
    1W        W39547  10.593   7.468   3.319  0.0963 -0.1057  0.2350
    1W        W39548   9.597  14.964   8.044 -0.1421  0.1438 -0.0682
    1W        W39549  26.285   3.102   1.731  0.0124  0.0704 -0.2690
    1W        W39550  14.946  13.290   9.681 -0.1408 -0.2041  0.0468
    1W        W39551  19.909  19.953   0.045 -0.3436 -0.1197 -0.0312
    1W        W39552  17.397  17.228   7.814  0.0969  0.0550 -0.1138
    1W        W39553  22.569  11.102   8.067 -0.0550 -0.1071  0.2983
    1W        W39554  24.666  23.840  10.048 -0.2184 -0.1157 -0.0626
    1W        W39555  13.531  12.765   8.438  0.0286  0.0370 -0.2767
    1W        W39556  27.150  22.871   7.058  0.1327  0.0439  0.2225
    1W        W39557  23.090  22.912   2.566 -0.2360  0.3603  0.0948
    1W        W39558  25.451  18.622   2.269 -0.1983  0.3328  0.0898
    1W        W39559   6.815  20.196   1.945  0.1304  0.1699  0.2646
    1W        W39560  21.584   5.676   6.068 -0.1172  0.0234  0.1489
    1W        W39561  20.421   2.410   3.094 -0.1348 -0.0088 -0.0695
    1W        W39562   7.895   4.859   8.566  0.0122 -0.1516  0.1412
    1W        W39563  11.880  19.553   9.158  0.1817  0.1258  0.0053
    1W        W39564  18.596  12.574   9.946 -0.0437  0.2457 -0.2989
    1W        W39565  13.284  15.785   2.754 -0.0316 -0.2905  0.0193
    1W        W39566  18.026   8.861   6.937 -0.0039 -0.0363  0.2629
    1W        W39567  20.058   4.771   2.585  0.1068 -0.0930 -0.2381
    1W        W39568   3.803  25.521   7.787  0.0377 -0.2116  0.2105
    1W        W39569  12.909   6.347   2.430  0.0088  0.2943  0.0202
    1W        W39570  18.124  11.957   7.085 -0.1217 -0.4209 -0.1598
    1W        W39571  25.077  18.554   7.867  0.2530 -0.0166  0.1201
    1W        W39572  23.593  24.674   6.814 -0.1624 -0.5181  0.0442
    1W        W39573   7.936  23.180   8.353 -0.2232  0.2855  0.2057
    1W        W39574   6.401  15.683   9.196  0.3096  0.0537 -0.0817
    1W        W39575  21.127  21.531   2.200  0.0742  0.2685 -0.4569
    1W        W39576  21.943   3.727   6.290  0.0988  0.1090 -0.2394
    1W        W39577  18.240   1.423   1.956 -0.1066  0.3248  0.1351
    1W        W39578   5.181  12.645   1.150 -0.2810 -0.1341 -0.0787
    1W        W39579   2.922  21.233   2.473 -0.1591  0.0177  0.0038
    1W        W39580  12.260  10.175   9.535 -0.1437 -0.2235 -0.0549
    1W        W39581  14.806  26.538   1.760 -0.3748  0.0061 -0.1903
    1W        W39582   8.928   3.141   6.653  0.1869 -0.2298 -0.4287
    1W        W39583  20.727  21.638   0.316 -0.1749 -0.0911 -0.0925
    1W        W39584  17.488   7.488   0.115 -0.3484 -0.0546  0.3372
    1W        W39585  15.622  17.050   7.180 -0.1443 -0.1980  0.2398
    1W        W39586   9.599   4.956   0.671  0.0645  0.1619 -0.1775
    1W        W39587  14.064  18.031   1.476 -0.4672  0.1030  0.0819
    1W        W39588  17.361  19.623   1.987  0.1411 -0.0933 -0.1769
    1W        W39589   6.739   1.391   6.933 -0.0401  0.1675 -0.0092
    1W        W39590   2.076  21.915   9.689  0.2887 -0.1523  0.1726
    1W        W39591  25.159  20.835   2.084 -0.0452  0.2448  0.4143
    1W        W39592   6.322  15.292   7.826 -0.4097  0.0101 -0.0360
    1W        W39593   9.608   6.969   0.545  0.4003  0.1079  0.1443
    1W        W39594  11.607  13.665   1.430 -0.0623  0.1506 -0.2386
    1W        W39595  24.872   3.686   1.420 -0.0014  0.1581 -0.0591
    1W        W39596  19.949   6.083   6.979 -0.1095  0.1410  0.2117
    1W        W39597   7.217   5.971  10.027  0.1448 -0.0748 -0.0920
    1W        W39598   6.293   2.671   1.784  0.2387  0.0816  0.1158
    1W        W39599  24.388   1.613   0.727  0.1119 -0.3100 -0.0254
    1W        W39600  20.256   8.808   3.619  0.2930 -0.0790 -0.2085
    1W        W39601  18.533  11.566   3.405 -0.1507  0.0286  0.2204
    1W        W39602   6.363   0.241   9.773 -0.0187 -0.0438  0.1077
    1W        W39603  24.565  22.600   9.409 -0.0835 -0.0588 -0.0066
    1W        W39604  19.350   2.273   7.957  0.0275 -0.0343  0.0935
    1W        W39605  23.275  21.153  10.033  0.0060 -0.0624 -0.0867
    1W        W39606   0.554  21.238   0.930 -0.2361 -0.0981  0.2871
    1W        W39607  15.869   5.626   9.040 -0.3173  0.0385 -0.0493
    1W        W39608  17.370  17.521   3.201 -0.2242 -0.1272  0.2699
    1W        W39609  10.026   1.317   1.833 -0.0735  0.2006 -0.0917
    1W        W39610   3.503  14.067   9.694  0.3384 -0.2752 -0.0688
    1W        W39611   7.757   2.599   1.858 -0.0887  0.1097  0.0332
    1W        W39612  17.100  23.631   2.794 -0.1939 -0.1541  0.1786
    1W        W39613   1.443  16.830   7.847  0.1611 -0.1012  0.0762
    1W        W39614  17.760   8.619   2.578 -0.1517 -0.0754  0.4663
    1W        W39615   2.751  25.476   2.064  0.0415  0.0161  0.0277
    1W        W39616   1.126  25.429  10.340 -0.2164 -0.2395 -0.0384
    1W        W39617   2.643   2.169   8.869  0.0125 -0.3649 -0.0759
    1W        W39618   0.139  21.146   9.028  0.2546  0.1593 -0.0524
    1W        W39619  13.176  11.210   3.009 -0.1741  0.1185  0.2144
    1W        W39620  12.057   9.172   2.852 -0.0616  0.1730  0.0830
    1W        W39621   6.014  16.620   8.202  0.1497 -0.1287  0.2925
    1W        W39622   6.537   7.335   9.692 -0.1447  0.2060  0.2624
    1W        W39623  10.834  26.777   8.497  0.1568  0.0940 -0.0318
    1W        W39624  20.733  20.178   0.105 -0.1831 -0.3471 -0.0050
    1W        W39625   9.958  13.162   8.162  0.0345 -0.2702 -0.0920
    1W        W39626  20.581  13.773   9.634  0.0977 -0.0967  0.1099
    1W        W39627  12.779  20.777   1.702  0.1759  0.0949  0.0869
    1W        W39628  22.503   4.809   7.242 -0.0954  0.0510  0.0717
    1W        W39629  11.212  16.907   2.890 -0.1726 -0.1068  0.2569
    1W        W39630  25.182  21.361   1.598  0.2877  0.3362  0.0520
    1W        W39631   5.633   1.984   9.531 -0.0076  0.2346 -0.0847
    1W        W39632  21.164   9.723   0.713 -0.1413 -0.1068  0.0262
    1W        W39633  15.163   2.278  10.283 -0.0508  0.0267 -0.2597
    1W        W39634   4.155  16.698   1.414  0.1259  0.2185  0.0955
    1W        W39635  22.746   3.944   6.696 -0.1099  0.2601  0.2941
    1W        W39636  13.779   6.897   8.572  0.1495 -0.1658 -0.5180
    1W        W39637  23.406  19.271   8.303 -0.2868  0.0698  0.1118
    1W        W39638  16.189   8.649   0.592  0.2269 -0.1774  0.1604
    1W        W39639   3.398  17.827   9.577 -0.0681 -0.2514 -0.3222
    1W        W39640  22.844   6.467   8.475 -0.0477 -0.0992 -0.2416
    1W        W39641   6.415  25.234   9.018  0.2699 -0.2372 -0.2159
    1W        W39642  15.685  14.982   3.161  0.0123 -0.3847  0.0504
    1W        W39643   3.752  12.069   2.530 -0.2103 -0.1478 -0.0304
    1W        W39644  25.047  13.781   8.682  0.0479  0.0211  0.0623
    1W        W39645  24.762   7.552   1.798  0.1683  0.4997  0.0997
    1W        W39646   6.668  16.775   7.493  0.4700  0.1175  0.0100
    1W        W39647   1.282  14.645   7.275 -0.0211 -0.3218 -0.0097
    1W        W39648   4.871   0.024   0.845  0.0421  0.1786  0.2259
    1W        W39649   3.378   5.204   7.602  0.0599  0.1690 -0.3350
    1W        W39650  14.919   6.063   0.574 -0.0453  0.1845  0.0900
    1W        W39651  22.366  19.333  10.067 -0.0303 -0.2113 -0.0635
    1W        W39652  12.929   8.116   8.676 -0.1869 -0.2461  0.0896
    1W        W39653  23.376  10.500   2.134 -0.1292  0.0027 -0.2146
    1W        W39654  16.398   1.685   8.458  0.2056 -0.2657  0.0427
    1W        W39655  18.944   9.318   3.165  0.2848  0.1839 -0.0311
    1W        W39656  22.220  26.340   8.015  0.2147  0.1501 -0.0467
    1W        W39657  14.015  26.857  10.264  0.1636  0.0925 -0.0105
    1W        W39658  21.269  20.643   2.535 -0.1100 -0.0437 -0.0250
    1W        W39659   4.815  10.167   7.395  0.0077 -0.0478 -0.0181
    1W        W39660   9.208  27.705   0.382 -0.0922  0.3905  0.0708
    1W        W39661   7.027   5.370   0.605  0.1723  0.0517 -0.0362
    1W        W39662   7.776   9.708   3.877  0.4038  0.2980 -0.0713
    1W        W39663  26.182  26.514   7.766 -0.0134 -0.1233  0.0766
    1W        W39664   4.848  18.502   2.589 -0.1939 -0.0571  0.2149
    1W        W39665  16.254  17.799   0.610  0.0187  0.0261 -0.0692
    1W        W39666  16.331   3.161   8.015 -0.0062  0.3429  0.1230
    1W        W39667   6.825  21.379   1.695  0.0164  0.0944 -0.1809
    1W        W39668  20.981   7.100   2.305  0.2373  0.0112  0.1143
    1W        W39669  20.176   1.569   1.219  0.2140  0.2216  0.1446
    1W        W39670   8.806  27.760   1.473 -0.0307  0.3119  0.1622
    1W        W39671   2.841  21.383   8.054 -0.2260  0.2289  0.2367
    1W        W39672  18.727   4.157   9.210 -0.1246 -0.1813 -0.0687
    1W        W39673  25.158   0.648   0.815 -0.1191  0.0892  0.1460
    1W        W39674   8.193  18.103   2.248 -0.1157  0.0365  0.3192
    1W        W39675  15.061   3.490   7.265  0.0896  0.0433 -0.0107
    1W        W39676  20.008   8.282   0.193 -0.4013 -0.1750  0.0863
    1W        W39677   8.603  17.699   2.585  0.1942  0.2709  0.0690
    1W        W39678  23.238  11.704   7.993 -0.5056  0.2165 -0.1567
    1W        W39679  15.931  27.080   0.588  0.0724  0.0464 -0.0966
    1W        W39680  21.612  25.226   7.747  0.0857  0.0807  0.0781
    1W        W39681  17.277  27.624   8.226 -0.0349  0.1977 -0.1362
    1W        W39682   5.185   0.308   6.821  0.1337 -0.0087  0.1959
    1W        W39683  22.521   8.916   9.239  0.1109  0.2839  0.1467
    1W        W39684   2.155  22.182   0.311  0.3817  0.1529 -0.1713
    1W        W39685  26.086  17.983   1.819  0.1300  0.1336 -0.2837
    1W        W39686  11.528   7.524   9.251  0.0776  0.1745  0.1424
    1W        W39687   6.063  14.351   9.054  0.2436  0.0934  0.0786
    1W        W39688  26.032   8.203   2.066  0.0744  0.1224  0.3531
    1W        W39689  23.879  21.949   2.615  0.1469  0.2282  0.5003
    1W        W39690  13.165  11.940   2.248 -0.0514  0.0159 -0.0546
    1W        W39691  14.067   5.294   9.069  0.0840 -0.0734 -0.1687
    1W        W39692   5.522  22.945  10.085 -0.1308  0.2851  0.2587
    1W        W39693  21.008  18.030   9.556 -0.3394 -0.0294  0.2124
    1W        W39694  26.273   4.114   9.756  0.3049 -0.1573 -0.0999
    1W        W39695  26.713   6.227   1.879 -0.0811  0.1221  0.0855
    1W        W39696  14.090  19.515   1.193  0.2074 -0.0947  0.0095
    1W        W39697  10.648  27.555   7.023 -0.0747 -0.1791  0.1470
    1W        W39698   1.477   4.538   9.689 -0.1276  0.0299 -0.1407
    1W        W39699  23.552   3.869   1.269  0.1001 -0.0072 -0.4340
    1W        W39700   8.881  12.471   1.884 -0.0058  0.0139  0.0560
    1W        W39701  24.495  27.880  10.156 -0.1921 -0.2754 -0.0285
    1W        W39702  11.352   6.858   8.445 -0.0155 -0.0722 -0.2772
    1W        W39703   4.480  19.568   2.375 -0.2848  0.1729 -0.0626
    1W        W39704   1.054  15.670   7.978 -0.2051  0.0674 -0.1408
    1W        W39705   0.123  26.151   2.365  0.1178  0.0269  0.0399
    1W        W39706  26.077  10.540   7.917  0.0402  0.1506  0.1175
    1W        W39707  23.616  25.371   0.880  0.0839 -0.2770 -0.1144
    1W        W39708   7.831  21.423  10.162  0.1718 -0.0353  0.3106
    1W        W39709   2.640  18.549   9.370 -0.1162  0.0164  0.3925
    1W        W39710   9.523  23.632   1.113 -0.1890  0.0656  0.0680
    1W        W39711   2.936  19.694   8.356  0.3188  0.2646  0.0625
    1W        W39712  26.666   0.706   7.110 -0.0644  0.1038  0.1133
    1W        W39713   8.583  12.553   0.035 -0.2561 -0.0707 -0.0765
    1W        W39714   1.903  22.314   8.817 -0.2198  0.0864  0.3047
    1W        W39715  11.714  17.151   9.311 -0.4382  0.1288 -0.0331
    1W        W39716  18.812  23.764   0.349 -0.0559 -0.0423  0.0012
    1W        W39717  19.668   1.670   1.193 -0.3292  0.1561  0.1699
    1W        W39718  12.233  15.805  10.055  0.1149 -0.0615 -0.0333
    1W        W39719  23.879  10.493   2.025  0.2483 -0.0495 -0.4090
    1W        W39720   3.306   7.680   0.115  0.0615  0.2469 -0.1319
    1W        W39721  20.297  16.653   9.544  0.0352  0.1938  0.4112
    1W        W39722  18.307   6.029   7.608  0.3998  0.0504 -0.1525
    1W        W39723  17.495   8.617   0.745  0.0455 -0.0447 -0.0322
    1W        W39724  19.126   0.467   9.946  0.1392 -0.0250 -0.3944
    1W        W39725  14.171  24.086   2.549  0.0788  0.1155  0.1982
    1W        W39726   9.985   6.505  10.057 -0.2219  0.1867 -0.1382
    1W        W39727  28.127   8.895   9.518  0.0754  0.1199  0.0764
    1W        W39728  22.759   3.129   0.295 -0.0079 -0.1260 -0.1716
    1W        W39729  17.059  23.001   6.665  0.0366 -0.0720  0.0135
    1W        W39730   4.435  21.693   2.668 -0.1773 -0.2784  0.1475
    1W        W39731  12.082  22.262   7.678  0.0529 -0.0367 -0.2243
    1W        W39732  18.953  13.937   8.456  0.0206 -0.0327 -0.0339
    1W        W39733   5.433   6.275   8.557  0.3369  0.0368 -0.1236
    1W        W39734   7.739  18.344   2.333 -0.0245  0.0923 -0.0549
    1W        W39735  14.184  12.807   2.400  0.1151 -0.0192  0.3160
    1W        W39736   4.465  11.772   8.442 -0.0941 -0.1823 -0.1213
    1W        W39737   1.928   4.705   8.300  0.0238 -0.1858  0.1314
    1W        W39738  18.467  28.034   7.982  0.0087  0.0649  0.1122
    1W        W39739   3.190  25.339   8.288  0.0510 -0.1546 -0.0521
    1W        W39740   7.071  20.359   9.789  0.2008 -0.0807  0.0973
    1W        W39741  17.912   5.887   0.785  0.0919  0.0711 -0.2531
    1W        W39742  28.049   1.705   8.639  0.0713 -0.0070  0.0459
    1W        W39743  25.826   9.505   8.074  0.1035  0.2141  0.0697
    1W        W39744   5.988  26.509   0.787 -0.0299  0.0988 -0.0200
    1W        W39745  10.278  16.922   9.532  0.0453  0.3016  0.0904
    1W        W39746  11.077  27.504   1.289 -0.1247 -0.1240  0.0139
    1W        W39747   0.576   9.963   0.816 -0.0335 -0.0329 -0.2180
    1W        W39748  27.708  12.919   7.610 -0.0731 -0.0423 -0.0571
    1W        W39749  14.954   1.227   1.960 -0.1064  0.0057 -0.1182
    1W        W39750   2.962   1.449   6.791 -0.1791  0.0358 -0.1803
    1W        W39751  25.001  11.314   7.882 -0.1110 -0.0681 -0.0497
    1W        W39752   8.215  18.039   7.947  0.2732  0.2511  0.3377
    1W        W39753  10.766   9.638   9.150  0.0092 -0.1500 -0.3859
    1W        W39754  25.815   3.979  10.011 -0.0882 -0.1219 -0.1393
    1W        W39755  12.547   5.050   8.367 -0.0545  0.0256  0.1039
    1W        W39756   9.391  22.542   8.375  0.1764  0.2952  0.1312
    1W        W39757   9.738  24.631  10.319 -0.1206 -0.2963 -0.0368
    1W        W39758  13.469   7.482   0.923 -0.3010  0.2120 -0.2394
    1W        W39759  21.842  13.549   0.614 -0.1206 -0.0273  0.0408
    1W        W39760  14.067  22.397   2.330 -0.0051 -0.1965  0.0991
    1W        W39761  18.376   6.253   0.012 -0.0242  0.0228  0.1413
    1W        W39762  10.642  10.754   0.055 -0.1523  0.0321  0.1232
    1W        W39763   8.209  19.265   0.308 -0.0445 -0.1635  0.0484
    1W        W39764  15.966  16.644   2.195  0.0794 -0.1614  0.3521
    1W        W39765  10.157  10.765   1.595 -0.1603 -0.1469 -0.2189
    1W        W39766  25.865  27.085   0.161  0.4487  0.0006  0.0831
    1W        W39767   6.776  12.705   1.590 -0.0005 -0.3894  0.2006
    1W        W39768  13.918   7.801   2.804  0.1151  0.2300 -0.0121
    1W        W39769  23.905  11.564   9.191 -0.4147  0.0827  0.1543
    1W        W39770   1.392   7.580   9.595  0.0085 -0.1987 -0.2681
    1W        W39771   9.874  11.800   3.477 -0.1267 -0.2130 -0.0560
    1W        W39772   7.825  17.421   0.633  0.4742  0.0190 -0.0395
    1W        W39773  21.216   2.373   8.183 -0.0624  0.3415  0.0602
    1W        W39774   8.748  22.094   9.084  0.0930 -0.1010  0.1292
    1W        W39775  13.685  25.725   3.761 -0.0236  0.0858 -0.3189
    1W        W39776  17.298   1.072   1.186  0.0293 -0.0674 -0.1932
    1W        W39777   5.786  16.290   9.428 -0.1063 -0.0363 -0.1343
    1W        W39778   4.191  20.180   8.769  0.0123 -0.1059 -0.2997
    1W        W39779   8.875  24.634   9.989 -0.5101  0.0562 -0.1159
    1W        W39780  25.837   5.615   7.103  0.0645  0.2263  0.0673
    1W        W39781   5.344  12.002   9.611 -0.3689  0.0504  0.0061
    1W        W39782  20.626   5.094   0.918 -0.1944  0.0998 -0.2883
    1W        W39783  17.899   7.894   1.495 -0.2358  0.0467  0.1489
    1W        W39784   6.382  22.278   3.768  0.2830 -0.3837 -0.1417
    1W        W39785   9.755  20.606   9.817  0.3233 -0.0160  0.3066
    1W        W39786  24.471  23.013   9.170  0.2246 -0.1306  0.3758
    1W        W39787   6.636  17.442   9.752 -0.2269 -0.2675 -0.0230
    1W        W39788   7.813  20.839  10.022 -0.0674 -0.2745 -0.2784
    1W        W39789  16.919   3.198   0.629  0.2648 -0.4679  0.1838
    1W        W39790  10.423  15.975   2.681  0.3760 -0.3594  0.0878
    1W        W39791  22.082   1.621   9.936  0.3365  0.1457 -0.0031
    1W        W39792  13.709  14.796   2.901 -0.2608  0.1003  0.1946
    1W        W39793  27.378  20.791   7.171 -0.2727  0.1244  0.0299
    1W        W39794  18.700  14.019   7.385 -0.0044 -0.4665 -0.1441
    1W        W39795  18.734   7.387   2.627  0.0694  0.0917 -0.2568
    1W        W39796   1.667  23.821   0.266 -0.2239  0.1724  0.0326
    1W        W39797  12.669  24.880   8.232  0.0742 -0.0446  0.1722
    1W        W39798  21.572  26.118   0.818 -0.1234 -0.2161  0.1417
    1W        W39799  21.293  19.671   7.838  0.1403  0.2133 -0.1576
    1W        W39800  11.383  10.598   0.265  0.0522  0.1704  0.0773
    1W        W39801  11.555   3.125   9.526 -0.1787  0.2225 -0.1357
    1W        W39802  20.962  13.006   1.419  0.0308 -0.2696  0.1064
    1W        W39803   6.151  27.098  10.059 -0.1797  0.0799 -0.1703
    1W        W39804  13.549  10.432   2.948 -0.1891 -0.1073 -0.0178
    1W        W39805  19.205  27.284   9.273 -0.0059  0.1005  0.1125
    1W        W39806   9.944  14.887  10.008  0.0300  0.4412 -0.0632
    1W        W39807   7.681   7.620   2.858 -0.0311 -0.2449  0.0373
    1W        W39808  15.086  17.486   4.068  0.2498 -0.1879 -0.0950
    1W        W39809  10.137  26.328   7.016  0.1040 -0.1018 -0.2808
    1W        W39810  22.928  12.379   1.201 -0.3626 -0.1922 -0.0859
    1W        W39811  15.638  24.117   1.895 -0.0331  0.0599  0.0035
    1W        W39812  17.170   5.495   3.176 -0.0704  0.0566  0.0749
    1W        W39813  25.462   6.149   8.584  0.0087  0.0133 -0.2901
    1W        W39814  17.047  18.320   9.131  0.0049 -0.0064  0.2420
    1W        W39815  19.524  13.984   1.563  0.1374 -0.2450  0.1045
    1W        W39816  15.402   4.089   9.229 -0.0230 -0.0601  0.1400
    1W        W39817   0.741  19.706  10.252 -0.1074  0.3173  0.4172
    1W        W39818   7.239  17.859   8.928 -0.1097  0.1701 -0.2290
    1W        W39819  18.133  25.308   9.263 -0.2391  0.1189  0.0081
    1W        W39820   3.799  20.612   2.624  0.3910 -0.0723 -0.0440
    1W        W39821   2.385   1.423  10.184 -0.1874  0.1901  0.0305
    1W        W39822   6.402   6.331   6.515  0.0332 -0.1682  0.1771
    1W        W39823   9.006  21.023   2.431 -0.1178 -0.1003 -0.0739
    1W        W39824  16.064  17.176   0.118 -0.0280 -0.0370  0.0201
    1W        W39825  22.073   9.900   0.169 -0.0413 -0.0019 -0.0337
    1W        W39826   2.600   3.879   0.292  0.2709  0.0793  0.0642
    1W        W39827  20.334  11.478   9.302  0.1208  0.1671 -0.5143
    1W        W39828   6.993  13.504   8.186 -0.1538 -0.1669  0.1245
    1W        W39829   4.860   6.723   1.798 -0.1145 -0.1622 -0.3080
    1W        W39830   3.804  21.878   6.205 -0.4292  0.2852 -0.1758
    1W        W39831   2.496   0.288   0.459  0.0374 -0.0235 -0.3012
    1W        W39832  25.427   3.060   6.854  0.5477  0.2691 -0.0778
    1W        W39833   5.117  16.097   1.396 -0.2050  0.2543  0.3179
    1W        W39834  25.447  22.565   0.165 -0.1258  0.0006  0.2071
    1W        W39835   3.093  24.464   2.691  0.0126 -0.0267 -0.1227
    1W        W39836   5.637  26.823   9.347  0.2001  0.2088 -0.0137
    1W        W39837  13.234  12.459   8.098 -0.1740 -0.2824  0.0875
    1W        W39838   2.713  16.925   1.063 -0.0662 -0.0693 -0.0640
    1W        W39839  11.617  14.895   1.889  0.0038  0.0642  0.0007
    1W        W39840   1.966   7.136   6.882  0.0352 -0.1939 -0.0648
    1W        W39841  25.201  18.624   9.676  0.1827 -0.1671 -0.3211
    1W        W39842   8.274   0.851   9.064  0.1192  0.0609 -0.0258
    1W        W39843   1.807  10.301   7.589  0.0092  0.0160 -0.0179
    1W        W39844  14.941  10.091   3.318 -0.0307 -0.0709 -0.0087
    1W        W39845  25.015   5.453   2.117  0.0645  0.1832  0.2715
    1W        W39846  24.319   3.594   7.923 -0.0486  0.2307 -0.1805
    1W        W39847  22.135   5.102   2.079  0.3327  0.0033 -0.1540
    1W        W39848  10.650  15.800   1.050  0.1636 -0.3452 -0.1082
    1W        W39849  28.057  26.807   8.105 -0.1685 -0.0018 -0.1501
    1W        W39850  19.274   9.428  10.244 -0.2762  0.0118 -0.0542
    1W        W39851  19.098  18.433   0.887  0.1681  0.3154 -0.0995
    1W        W39852   7.491  15.363   1.248  0.2116  0.3642  0.1410
    1W        W39853  10.212  12.413   1.269 -0.1198 -0.3265  0.3384
    1W        W39854  20.460  11.012   9.471 -0.0056  0.0263 -0.2010
    1W        W39855  16.826  23.747   8.549  0.1738  0.1802  0.1820
    1W        W39856  24.961   6.202   9.444  0.2287  0.0282  0.1213
    1W        W39857   3.658   6.951   6.412  0.2217  0.1759  0.1285
    1W        W39858  10.422   3.380   3.421 -0.4507  0.1313 -0.1215
    1W        W39859   5.770  16.731   7.722 -0.1325 -0.2264  0.3037
    1W        W39860  21.452   9.617   9.072  0.1301 -0.5298  0.1609
    1W        W39861  23.901   9.663   8.649  0.1358  0.0013  0.1146
    1W        W39862  27.327   3.451   1.428  0.1129 -0.1099 -0.1835
    1W        W39863  26.025  24.553   0.049  0.0516  0.4298 -0.1859
    1W        W39864  27.816   5.166   1.706  0.1733 -0.1479 -0.0511
    1W        W39865   9.855  17.179   2.166 -0.0425  0.1304  0.1422
    1W        W39866  23.019   3.061   8.447  0.1025  0.1827 -0.3786
    1W        W39867  23.993  22.876   8.645  0.0996 -0.4289  0.0891
    1W        W39868  15.415   6.724   9.721  0.0546 -0.1296  0.1569
    1W        W39869   6.736  19.168   2.259  0.1393  0.1693 -0.1671
    1W        W39870  16.860  13.433   1.763 -0.0110 -0.1784  0.1026
    1W        W39871  27.363   5.866   6.650  0.3061  0.2130  0.2337
    1W        W39872   7.944  27.915   0.488  0.2423 -0.1036 -0.2762
    1W        W39873  21.864   1.191   9.315  0.1473  0.0352 -0.0002
    1W        W39874   4.268   7.337   9.667 -0.0232 -0.0022 -0.2895
    1W        W39875   6.788  26.100   8.289  0.1168 -0.3116  0.1067
    1W        W39876  24.804  18.043   0.985 -0.2814 -0.0296  0.1314
    1W        W39877  14.191   3.249   2.571  0.0691  0.0118  0.0877
    1W        W39878   6.449   5.400   8.371  0.0239  0.0194  0.0918
    1W        W39879  14.104   2.166   3.105 -0.2786  0.1773  0.4092
    1W        W39880   1.014  17.143   8.592  0.1082 -0.1128  0.1187
    1W        W39881  13.679  13.316   1.171  0.0662  0.1401  0.1971
    1W        W39882   7.904  17.542   8.044  0.3980  0.2929 -0.0713
    1W        W39883  10.998  16.257   2.029  0.1932  0.2776  0.2466
    1W        W39884  10.173  16.808  10.296 -0.2761  0.1265 -0.0712
    1W        W39885  15.901   8.034   1.922 -0.3691  0.0927  0.3118
    1W        W39886  12.236   7.748   2.570  0.1663  0.1105  0.0707
    1W        W39887  12.964  21.432   8.572 -0.1197 -0.0153 -0.1099
    1W        W39888   5.429  26.766   8.787  0.0040  0.4629  0.2065
    1W        W39889  21.926   3.640   7.927  0.2391 -0.1277 -0.1560
    1W        W39890  18.382  20.541   2.975  0.0675  0.1066  0.1049
    1W        W39891   6.990  13.661   2.274 -0.3076  0.1739  0.0173
    1W        W39892  24.931   9.532   8.298  0.1674  0.2566 -0.1056
    1W        W39893  27.345  13.143   0.699  0.2125  0.0646 -0.0315
    1W        W39894  15.670  10.632   2.657 -0.1130 -0.2410  0.0319
    1W        W39895  23.472  10.675   1.489  0.0981 -0.3370 -0.0687
    1W        W39896  12.232  21.816   3.170  0.1119  0.0071 -0.0755
    1W        W39897  27.719  21.828   7.769  0.0331  0.0104  0.1412
    1W        W39898  24.191   0.675   9.160 -0.0291  0.0257 -0.2080
    1W        W39899  17.540   7.229   0.544  0.3546  0.0868  0.1110
    1W        W39900  26.219   4.395   6.873  0.0415 -0.0841  0.0355
    1W        W39901  14.544  25.705   0.826 -0.3696 -0.0866  0.4646
    1W        W39902  16.570   7.241   1.478 -0.2529 -0.1012  0.0190
    1W        W39903  14.980  18.954   8.908 -0.1310 -0.1094 -0.0610
    1W        W39904   6.060   9.582   6.913 -0.3423  0.1092  0.1248
    1W        W39905  26.404  18.801   0.062  0.0164  0.0345  0.0099
    1W        W39906   3.565  10.514   7.519  0.0673  0.0781  0.0306
    1W        W39907  14.965  14.499   2.866 -0.2095  0.5075 -0.1218
    1W        W39908  27.430   5.367   6.732 -0.1745 -0.2720  0.0222
    1W        W39909   4.732   0.433   7.706  0.0725 -0.2107 -0.1949
    1W        W39910  23.436   7.088   0.025 -0.0294 -0.0237 -0.2918
    1W        W39911   8.075   6.440   8.152  0.2966  0.3039 -0.3487
    1W        W39912   2.955  27.081   1.146 -0.1237  0.1210 -0.1681
    1W        W39913  26.635  10.403   1.451  0.1812  0.1372  0.2040
    1W        W39914   2.161   0.322   0.899  0.0853  0.1356  0.3869
    1W        W39915   1.445   5.239  10.060 -0.0094  0.2302  0.1492
    1W        W39916  23.851   9.033   2.294  0.0466 -0.2820 -0.0275
    1W        W39917   1.696  20.485   2.196 -0.1074 -0.0087  0.2075
    1W        W39918  24.597   2.837   1.209 -0.1022  0.2387 -0.2816
    1W        W39919  17.771   3.452   1.309 -0.0806 -0.2337 -0.3430
    1W        W39920  15.238   4.675   1.889  0.3054 -0.2287 -0.0901
    1W        W39921   3.254  25.257   7.648 -0.2057  0.0281  0.0068
    1W        W39922  13.866  12.325   3.756 -0.0595  0.0807  0.0317
    1W        W39923  20.425  24.632   8.243 -0.4486  0.1751 -0.0169
    1W        W39924  27.331   0.329   1.398  0.2478 -0.0390 -0.0008
    1W        W39925  10.543  15.331   0.189  0.2321 -0.1481 -0.0274
    1W        W39926   1.765  24.301   0.176  0.4509 -0.0055 -0.0088
    1W        W39927  18.510   9.878   2.359  0.0363  0.1259  0.2754
    1W        W39928  20.307   4.998   9.491  0.1183 -0.2835 -0.0094
    1W        W39929  16.432  25.407   1.455  0.1084  0.0940 -0.1247
    1W        W39930  10.777  22.175  10.184 -0.3390  0.0586 -0.3287
    1W        W39931  19.761   9.289   2.111 -0.1645 -0.3320  0.0269
    1W        W39932  28.095  13.739   0.661 -0.5426 -0.2718 -0.1315
    1W        W39933  26.489  17.785   8.506 -0.0069  0.2800 -0.0254
    1W        W39934  22.475  21.673   8.687  0.2433  0.1357  0.0672
    1W        W39935   4.818  14.306   2.605 -0.0570  0.1122 -0.0874
    1W        W39936  20.648   5.523  10.360 -0.0563  0.0742 -0.2891
    1W        W39937   6.342  21.429   7.799  0.1473 -0.0854  0.3088
    1W        W39938  19.208  23.321   7.652  0.0622 -0.1375 -0.2385
    1W        W39939  18.759   0.113   8.496 -0.1072  0.1422 -0.0837
    1W        W39940   1.656  11.853   2.745 -0.3003 -0.0039  0.4926
    1W        W39941   1.079  17.672   9.379 -0.0761  0.2626  0.5131
    1W        W39942  19.462   7.611   7.898  0.0199  0.2038  0.1324
    1W        W39943  24.563   3.517   2.388  0.0149  0.4040  0.0794
    1W        W39944   7.987  23.356   2.191 -0.0370 -0.1599  0.0002
    1W        W39945  15.621  11.209   9.829 -0.3958 -0.0770  0.0192
    1W        W39946   1.389   6.644   6.313  0.0165  0.0014  0.0490
    1W        W39947   9.951   8.673   1.404 -0.3524 -0.0331 -0.1400
    1W        W39948   9.443  17.684   8.534  0.1433  0.0102  0.1005
    1W        W39949  24.535  11.263   0.587  0.1589 -0.2185  0.1858
    1W        W39950  10.853  21.723   0.022 -0.2005  0.0511  0.2820
    1W        W39951   6.903   3.608   1.425 -0.0894  0.0853  0.2018
    1W        W39952   7.502   5.374   1.972 -0.2093 -0.1072  0.1323
    1W        W39953  11.116  27.843   7.121  0.0122  0.0690 -0.1121
    1W        W39954  16.218  21.165   2.336 -0.1587  0.2459 -0.3983
    1W        W39955  10.272   8.152   2.841  0.0706  0.0527 -0.0986
    1W        W39956   6.614   4.780   3.263  0.0033 -0.2384  0.1426
    1W        W39957   1.986   5.988   0.747  0.1129  0.3420  0.0997
    1W        W39958  14.757  23.947   8.787  0.0773 -0.0023 -0.1067
    1W        W39959  10.656  15.971   7.361 -0.1066 -0.1393  0.1107
    1W        W39960  15.460  15.118   8.470 -0.0413 -0.0771  0.1641
    1W        W39961  23.964  25.176   0.544  0.0785 -0.0514  0.2761
    1W        W39962  26.499  19.204   0.507 -0.0700 -0.2381  0.1585
    1W        W39963  14.699   5.125   0.183 -0.1203 -0.4735 -0.0419
    1W        W39964  13.631   6.697   1.319 -0.1875  0.2740 -0.3178
    1W        W39965  22.584  24.641   7.611 -0.1422  0.0504  0.2613
    1W        W39966   0.736  17.875   9.772 -0.2078 -0.0283  0.0169
    1W        W39967   8.796  16.943   8.620  0.0338  0.0036 -0.1514
    1W        W39968  12.027  14.857   3.554  0.0602  0.0266  0.0205
    1W        W39969   5.134  10.004   2.898  0.1587 -0.4001 -0.1253
    1W        W39970  23.754  14.570   8.401  0.1033  0.0554 -0.1248
    1W        W39971   9.842  20.922   1.569  0.2118  0.1972 -0.4102
    1W        W39972  19.031  26.739   8.444  0.3543  0.1509 -0.0908
    1W        W39973  14.581  10.750   3.944  0.1754  0.2408  0.0114
    1W        W39974  14.216   8.542   1.670 -0.4297 -0.1157 -0.2995
    1W        W39975  21.563   8.032   0.291 -0.0671  0.3380  0.0419
    1W        W39976  26.441  15.906   7.679  0.1765 -0.0522  0.0553
    1W        W39977  21.560  24.227   9.975 -0.2283  0.1829  0.0402
    1W        W39978  22.936  25.114   8.980  0.2676  0.0315  0.0828
    1W        W39979   7.783  24.066   1.031 -0.0112  0.1534  0.5027
    1W        W39980  14.049   5.595   9.455  0.1375 -0.6680  0.0158
    1W        W39981   1.729  13.367   8.485 -0.0140  0.0232 -0.1600
    1W        W39982  15.290   6.129   3.117 -0.2875  0.1242  0.1876
    1W        W39983   9.552  15.499   8.092  0.1236  0.0093  0.2355
    1W        W39984  11.150  15.128   7.132 -0.0441  0.0327  0.1783
    1W        W39985  23.303  17.613   0.103  0.0254 -0.0595  0.1409
    1W        W39986  27.626   2.589   7.566 -0.2057 -0.1204  0.0116
    1W        W39987  20.100   8.177   6.939 -0.2131 -0.0785 -0.1258
    1W        W39988   9.120  14.383   2.592  0.2113  0.0167 -0.3013
    1W        W39989  27.319  15.977   6.062 -0.2250 -0.3058 -0.0032
    1W        W39990   8.458  17.857   7.550  0.3067  0.1851 -0.1480
    1W        W39991   7.039   4.925   0.990 -0.1471  0.1535 -0.1098
    1W        W39992   4.444  21.293   2.368 -0.1543 -0.1171 -0.0450
    1W        W39993  14.019  20.596   8.786  0.5311 -0.1390  0.2299
    1W        W39994   8.415  10.076  10.105  0.1777  0.1301 -0.1174
    1W        W39995   9.720   9.080   0.234  0.1111  0.1172 -0.0830
    1W        W39996   3.791  19.086   1.947 -0.0986  0.1034 -0.3872
    1W        W39997  27.820  13.370   8.891 -0.0151  0.0099  0.0237
    1W        W39998  10.745   2.800   7.869 -0.2016  0.1966 -0.0435
    1W        W39999   5.334   7.878   1.086  0.0008  0.1154 -0.0206
    1W        W40000  16.130   9.987   7.654  0.0134  0.0836  0.3299
    1W        W40001   7.319  11.523   3.905  0.0161 -0.0405 -0.3135
    1W        W40002  20.392   6.362   0.605 -0.0636 -0.4193 -0.1541
    1W        W40003  17.165  10.793   0.690 -0.0902 -0.0502 -0.1681
    1W        W40004  14.303   0.560   1.817  0.3055 -0.0198  0.0822
    1W        W40005  26.086  24.495   9.381 -0.0583  0.0817  0.2628
    1W        W40006   4.704  17.349   8.674 -0.0730  0.1195  0.2781
    1W        W40007   4.659   3.454   9.620  0.0559 -0.0388  0.2102
    1W        W40008   0.863  19.439   2.107  0.1811 -0.1150 -0.1339
    1W        W40009  21.528  24.081   1.154 -0.1921  0.1646  0.0140
    1W        W40010   9.220   5.486   8.594 -0.3109 -0.0786 -0.5015
    1W        W40011  15.835  13.651  10.085 -0.0311  0.1913 -0.1890
    1W        W40012  15.140  14.371   8.692  0.3998 -0.2570  0.1762
    1W        W40013  20.166  10.523   3.022  0.1163 -0.0186  0.0876
    1W        W40014  18.089   7.879   3.064  0.0393 -0.2282 -0.3903
    1W        W40015   5.288  16.620   7.396  0.4009  0.1432 -0.1044
    1W        W40016   6.636   2.674   0.520 -0.6004 -0.2179 -0.2149
    1W        W40017  12.384  17.147   3.893  0.3453 -0.2156 -0.2091
    1W        W40018   1.999  27.315   2.753 -0.4718 -0.1228  0.1763
    1W        W40019  14.237   3.717   1.054 -0.0228 -0.0792  0.2578
    1W        W40020  18.322  22.886  10.151 -0.1462 -0.1642 -0.0976
    1W        W40021  19.924  21.875   9.327  0.0275 -0.0199 -0.1160
    1W        W40022  19.995   2.079   0.369  0.1674 -0.1828 -0.1745
    1W        W40023  15.439   7.106   8.731  0.0580 -0.0632  0.2263
    1W        W40024  19.131  17.116   1.192 -0.2368  0.2854 -0.0274
    1W        W40025  13.459   1.688   1.584 -0.3954  0.1629  0.2403
    1W        W40026  21.105   2.835   9.463  0.0919  0.1808  0.1632
    1W        W40027  26.415  15.756   9.626 -0.2910 -0.1318 -0.0420
    1W        W40028   0.098  19.689   8.085 -0.0591 -0.0231 -0.2796
    1W        W40029  17.000  16.174   8.950  0.0596 -0.2687  0.0608
    1W        W40030  19.266  27.324   0.797  0.0439  0.3601  0.1565
    1W        W40031  27.939  11.089   0.380 -0.0762  0.0787  0.0006
    1W        W40032  17.524  26.813   1.582  0.0729  0.0065  0.0824
    1W        W40033   1.566  25.369   1.718 -0.0609 -0.3286 -0.0751
    1W        W40034  14.552  25.414   8.267  0.1856 -0.0969  0.0128
    1W        W40035  13.822  12.127   8.966 -0.0795  0.1168  0.1681
    1W        W40036  19.823  22.680   9.039 -0.2144  0.2970 -0.0903
    1W        W40037  15.705  27.455   0.306  0.0254 -0.2379 -0.2378
    1W        W40038  13.861  20.517   0.128  0.1175 -0.0950 -0.0493
    1W        W40039   5.871  13.378   7.107 -0.0105  0.0175  0.4590
    1W        W40040   9.011  11.363   7.076 -0.0157  0.0977  0.1676
    1W        W40041  20.600   5.940   6.915 -0.0705  0.0566 -0.1029
    1W        W40042  26.915  26.752   7.060 -0.0288  0.0526  0.2593
    1W        W40043  10.042  18.634   9.109  0.1013  0.0416 -0.0139
    1W        W40044  24.416  20.102   7.319  0.0196 -0.0044  0.3648
    1W        W40045  26.760  23.849   1.895 -0.3262  0.1108 -0.1826
    1W        W40046   0.213   0.397   3.075 -0.0801  0.0461 -0.1234
    1W        W40047  12.544   6.418   2.748  0.0832  0.1403  0.0395
    1W        W40048   2.508  17.561   3.206  0.0063 -0.0687 -0.0941
    1W        W40049  16.671  24.413   2.519 -0.1208  0.0766 -0.0733
    1W        W40050  26.411  19.107   7.044 -0.5672 -0.0438  0.0538
    1W        W40051   5.564  20.683   0.660  0.2292 -0.2982 -0.1538
    1W        W40052   6.762  18.711   0.809 -0.0602 -0.0183 -0.0085
    1W        W40053  10.764  10.582   9.448  0.0472  0.0536 -0.2477
    1W        W40054  21.377   2.470   9.650  0.0915  0.0114  0.1835
    1W        W40055   0.497   2.049   9.425  0.2259 -0.1746 -0.1011
    1W        W40056  26.920  24.848   1.025  0.0793  0.0376  0.0728
    1W        W40057  15.989  24.025   0.679  0.0536 -0.1238 -0.1881
    1W        W40058   6.316   7.665   2.036  0.0022 -0.1851  0.0816
    1W        W40059  27.235  21.668   2.370 -0.2677 -0.1175  0.2354
    1W        W40060  27.867  24.577   7.020 -0.1296 -0.0534  0.3031
    1W        W40061  10.492  20.173   1.445 -0.1331 -0.1832  0.0607
    1W        W40062  22.457  24.693   3.206  0.1272  0.1906  0.1136
    1W        W40063  23.996   5.835   0.375 -0.0803 -0.0710  0.1781
    1W        W40064  13.931  21.798   9.329 -0.2662 -0.1876 -0.0680
    1W        W40065   7.148  11.451   7.348  0.0450 -0.1593  0.1377
    1W        W40066  16.905  27.488   3.355  0.1964 -0.1320  0.0402
    1W        W40067   5.167   8.205   2.064  0.1545 -0.0864 -0.0045
    1W        W40068   2.603   1.813   9.233 -0.2535  0.0310 -0.1680
    1W        W40069  22.720  27.716   2.914 -0.2003 -0.0611  0.4194
    1W        W40070   1.233   5.631   9.203  0.2541  0.0819 -0.2085
    1W        W40071  11.513  21.901   7.957 -0.1088 -0.1421  0.1112
    1W        W40072  22.168  17.466  10.126 -0.0239 -0.3934  0.1933
    1W        W40073   6.340  27.413   6.776  0.0948  0.3057  0.1785
    1W        W40074  20.850  25.773   0.804 -0.1882  0.0830 -0.2734
    1W        W40075   0.600  11.044   2.572  0.1013  0.2809  0.0551
    1W        W40076  26.483  26.789   8.198  0.0771  0.0860  0.0241
    1W        W40077  23.717  27.438   7.817  0.2890 -0.1053 -0.0685
    1W        W40078  14.363  14.871  10.298 -0.0240  0.2386 -0.0783
    1W        W40079  12.452  11.064   1.901  0.0056  0.2575 -0.2232
    1W        W40080  13.688  22.737   1.661  0.1021 -0.0260 -0.2840
    1W        W40081   3.417  19.447   8.988 -0.0182 -0.2838 -0.0718
    1W        W40082  22.251  18.160   9.829 -0.2141 -0.2450 -0.1283
    1W        W40083   4.963  11.512   2.005  0.0375 -0.3985 -0.0132
    1W        W40084  20.509  19.008   1.351  0.0378 -0.1457  0.1992
    1W        W40085   9.351   2.067   9.359  0.0364 -0.0229  0.2938
    1W        W40086   0.534   8.582   9.228  0.2013 -0.0068 -0.0388
    1W        W40087  24.325  23.839   8.738 -0.2197 -0.0524  0.0471
    1W        W40088   9.351  20.939   9.880  0.1950 -0.1060  0.1723
    1W        W40089  26.043  19.740  10.238  0.1791 -0.1580  0.0303
    1W        W40090   5.897   5.527   8.363 -0.0325  0.3051 -0.0883
    1W        W40091  24.690   0.325   0.646  0.1544 -0.1998 -0.2340
    1W        W40092  11.056   2.413   0.012 -0.0643 -0.1254 -0.4346
    1W        W40093  24.526   6.606   8.876 -0.1548  0.1826 -0.0664
    1W        W40094  23.752  18.861   2.353 -0.0274 -0.3381 -0.0221
    1W        W40095  26.262  22.164   7.905 -0.0637  0.0722 -0.0551
    1W        W40096  10.963   5.795   2.237  0.0012  0.0091 -0.0576
    1W        W40097  14.251  27.785   0.317  0.0464  0.0653  0.0418
    1W        W40098  12.732  22.564   7.163 -0.2937  0.3489 -0.3112
    1W        W40099  14.599  18.772   2.127 -0.4364 -0.3495  0.0082
    1W        W40100   1.644  17.157   0.071  0.0215  0.0037 -0.1317
    1W        W40101  22.192   4.965   3.439 -0.2202 -0.1076  0.2549
    1W        W40102  17.173   6.012   1.357  0.0544 -0.2170  0.1510
    1W        W40103  20.500  25.082   3.097 -0.1510 -0.1336 -0.0781
    1W        W40104  10.262  23.191   2.383  0.0246  0.0170 -0.2216
    1W        W40105  14.480   9.678   1.748 -0.1199  0.3630  0.3022
    1W        W40106  24.409  16.636   0.848  0.2518 -0.0463 -0.0118
    1W        W40107  25.310  15.989   6.951  0.2795 -0.2425  0.2183
    1W        W40108  25.023   0.032   6.652  0.0384 -0.1008  0.1639
    1W        W40109  21.988  21.786  10.331 -0.0242 -0.0451  0.0011
    1W        W40110  25.433  23.729   9.652 -0.0849  0.1065 -0.0410
    1W        W40111  17.532  21.994   2.825  0.1938 -0.0714  0.0871
    1W        W40112   1.336  25.603   2.141  0.2023 -0.0281  0.0818
    1W        W40113  18.313   7.594  10.329 -0.0132  0.0903 -0.0305
    1W        W40114  16.431  19.951  10.067  0.1194  0.0668 -0.0177
    1W        W40115   3.605  15.996   0.831  0.0047  0.0820 -0.3348
    1W        W40116  21.989   4.281   9.015 -0.1271 -0.0493 -0.1837
    1W        W40117   4.579  17.611   2.698 -0.2299  0.0795  0.1406
    1W        W40118  13.528  16.412   1.935  0.3754 -0.0035  0.0460
    1W        W40119   8.062  23.929   7.185 -0.1427  0.0594  0.2438
    1W        W40120   6.724  19.495   8.492 -0.3447 -0.2153 -0.2590
    1W        W40121   6.182  17.953   7.842  0.2492 -0.3281  0.0556
    1W        W40122  18.436   0.451   1.077  0.0649  0.0064 -0.0059
    1W        W40123  28.038  16.954   2.285  0.5422  0.0799 -0.1730
    1W        W40124  21.810  21.562   2.748 -0.0799 -0.2918 -0.2269
    1W        W40125   6.305   8.681   8.979  0.1400 -0.0069 -0.3767
    1W        W40126  25.917   4.806   8.828  0.2272 -0.1155  0.2954
    1W        W40127   8.174   4.925   1.577  0.1585 -0.1325  0.1605
    1W        W40128  15.640  24.819   3.571 -0.2453  0.0285  0.0400
    1W        W40129  22.436   0.739   1.397 -0.0097  0.3553 -0.4459
    1W        W40130  10.511  14.494   0.634  0.0266  0.0197  0.1989
    1W        W40131   9.902  18.631   0.428  0.0770 -0.1458  0.1519
    1W        W40132  16.269   6.002   1.012  0.1601 -0.1520  0.0762
    1W        W40133  12.321   0.043   7.749  0.0198  0.0542 -0.1222
    1W        W40134   3.154  21.701   9.135  0.3345 -0.5489  0.2502
    1W        W40135  13.488   4.546   8.803 -0.2279  0.0596 -0.1668
    1W        W40136  11.769   6.966   3.001  0.0435  0.0497 -0.1307
    1W        W40137  15.433  18.458   7.025  0.1573  0.0909 -0.0851
    1W        W40138  18.382   8.947   8.377  0.0558  0.0856 -0.2665
    1W        W40139   2.447   2.920   8.456  0.1756  0.1373 -0.0332
    1W        W40140  23.334  18.391   9.192  0.1892  0.2086 -0.0990
    1W        W40141  24.486  10.122   8.026 -0.0214 -0.2422  0.0621
    1W        W40142  22.734  15.122   7.411  0.2605 -0.0220  0.2547
    1W        W40143  21.345  12.778   8.255  0.1059 -0.0801  0.0789
    1W        W40144  20.331  12.557   9.483 -0.0567 -0.1659 -0.2210
    1W        W40145  18.495  26.258   7.772 -0.0814  0.0670  0.0938
    1W        W40146  26.955  16.546   8.286 -0.1780  0.1331 -0.2496
    1W        W40147  10.005   3.258   1.354  0.2418  0.0785 -0.1262
    1W        W40148  25.658  11.150   7.166  0.0265  0.2876 -0.1059
    1W        W40149  27.949  17.001   9.421  0.1288  0.0019  0.2814
    1W        W40150   2.255  22.498   2.256  0.1355  0.3198 -0.1710
    1W        W40151  10.081  14.935   8.725 -0.1326 -0.2502 -0.2591
    1W        W40152   1.378  21.256   6.834 -0.2435  0.1642 -0.3024
    1W        W40153  17.589   9.935   8.611 -0.0330  0.1060 -0.1431
    1W        W40154  14.129  17.071   9.651 -0.3586 -0.2106 -0.0010
    1W        W40155   5.590  10.953   9.714 -0.1685  0.0179  0.3056
    1W        W40156  12.689   8.482   8.969  0.0033  0.1272  0.2767
    1W        W40157  12.337  10.217   0.459  0.0793 -0.1015  0.4366
    1W        W40158  26.294  14.104   8.394 -0.0343 -0.0709  0.2517
    1W        W40159   5.191  11.898   1.147  0.1018  0.0746  0.0148
    1W        W40160   3.948  25.573   8.883 -0.0015  0.3388  0.2295
    1W        W40161   6.937  22.809   3.154  0.0688 -0.1115  0.0713
    1W        W40162  23.175   3.787   2.086  0.0290 -0.0843  0.1161
    1W        W40163  17.849   6.853   0.512  0.1461 -0.3047  0.1623
    1W        W40164  13.740  24.539   0.641  0.1542 -0.1440  0.1851
    1W        W40165   3.691   6.835   7.483  0.0291  0.0349  0.0911
    1W        W40166  18.862   5.766   0.633 -0.4092  0.1151 -0.3542
    1W        W40167  27.357   9.035   0.363 -0.1535 -0.2545 -0.1145
    1W        W40168   9.103  19.520   2.263  0.1882  0.0338  0.0949
    1W        W40169   3.133  22.830   0.260 -0.2088  0.0463  0.0067
    1W        W40170  26.825  26.288   2.090 -0.2143 -0.0860  0.1271
    1W        W40171  27.620   5.775   7.090 -0.0970  0.0784 -0.2357
    1W        W40172   1.452  26.484   2.189 -0.3135 -0.3572  0.0402
    1W        W40173   4.468  28.059   7.770 -0.0311  0.3166 -0.1947
    1W        W40174  17.578  26.732   1.033  0.1287 -0.1808  0.3588
    1W        W40175   8.209   8.328   1.567 -0.3041  0.2969  0.0065
    1W        W40176  10.440   4.429   1.062  0.1943 -0.1185 -0.2985
    1W        W40177  23.021  27.685   0.994 -0.0926 -0.0169  0.1497
    1W        W40178   5.830   2.219   1.269 -0.0980 -0.0363  0.1525
    1W        W40179  18.911  22.959   7.537  0.0248  0.2045 -0.1075
    1W        W40180  25.801   8.487   7.837  0.1148  0.3109  0.0704
    1W        W40181  15.817  10.036   3.558 -0.2366  0.2202  0.2367
    1W        W40182   7.411  10.447   2.301 -0.2370  0.0134  0.1908
    1W        W40183   9.397  22.772  10.188  0.0214 -0.1379  0.1942
    1W        W40184  12.842  12.777   3.284  0.2751 -0.3332 -0.1858
    1W        W40185   8.335   8.224   2.495 -0.4186  0.3029  0.0788
    1W        W40186   9.751  21.024   9.501 -0.2774  0.1900  0.1812
    1W        W40187   8.603   4.728   6.872 -0.1590 -0.2166 -0.1062
    1W        W40188  12.276  18.271   0.579  0.0503 -0.2171 -0.2518
    1W        W40189  26.551  13.792  10.205  0.3543 -0.0821 -0.1765
    1W        W40190  27.184  21.348   9.985 -0.0962  0.1058 -0.3243
    1W        W40191   0.161  20.796   9.851 -0.0417 -0.1263  0.2241
    1W        W40192   7.242  17.636   1.935 -0.2142  0.0445  0.2213
    1W        W40193   3.276   1.772   9.471  0.2473 -0.1077 -0.1819
    1W        W40194  26.357  15.076   8.775 -0.0830 -0.0353  0.0206
    1W        W40195  26.121  20.067   1.552  0.1681 -0.2110 -0.0537
    1W        W40196  19.528  16.709   8.971 -0.0923  0.0620 -0.1665
    1W        W40197  20.886  10.811   7.656  0.0996 -0.2121  0.0259
    1W        W40198   9.900  25.268   0.799 -0.1010 -0.2437  0.1513
    1W        W40199  19.126  22.997   0.309  0.0839 -0.0261  0.0899
    1W        W40200  13.748   4.884   0.221  0.2408  0.3068  0.1826
    1W        W40201  12.375  19.597   9.219 -0.1036 -0.1090  0.1633
    1W        W40202  19.846   8.980   9.027  0.1508 -0.0131 -0.1861
    1W        W40203  24.085   3.714   9.536 -0.2156 -0.2716  0.1089
    1W        W40204   8.166   0.428  10.299 -0.0161  0.1020  0.3458
    1W        W40205  11.041  27.236   8.678  0.0359 -0.0946 -0.1169
    1W        W40206   3.980  18.048   1.373  0.2460 -0.0225 -0.1416
    1W        W40207  19.010   9.936   3.115 -0.2213 -0.1203 -0.0881
    1W        W40208  10.573  11.853   8.098  0.0276  0.1515 -0.2926
    1W        W40209  19.804  12.506   9.578 -0.0302 -0.1503 -0.0380
    1W        W40210  23.733   2.684   1.758 -0.0873 -0.0190  0.0268
    1W        W40211   1.289  20.090   6.881  0.1050 -0.1631  0.1905
    1W        W40212  10.610   5.518   1.216  0.1463 -0.3442  0.0268
    1W        W40213  26.829  16.584   0.432  0.2748 -0.2954 -0.1232
    1W        W40214   4.414  14.701   9.196 -0.1032 -0.1370  0.2410
    1W        W40215  15.208  21.129   1.429 -0.3416  0.0607 -0.3052
    1W        W40216   0.436   3.233   9.016  0.1469  0.0434 -0.1889
    1W        W40217  10.847   2.341   8.431  0.0736  0.0686  0.0342
    1W        W40218  14.224  15.404  10.309 -0.1330 -0.1032  0.1301
    1W        W40219  17.562   2.169   8.039 -0.0509  0.0435  0.1727
    1W        W40220   9.196  20.701   9.170  0.0101 -0.1678 -0.0859
    1W        W40221   7.765  17.905   8.929  0.3634  0.1240  0.0350
    1W        W40222   1.476  26.864   1.818  0.1054  0.0475  0.0063
    1W        W40223  13.733  19.371   2.037 -0.0646  0.3460 -0.2749
    1W        W40224   6.325  17.021   9.639 -0.3699 -0.0882 -0.2798
    1W        W40225  18.329  26.412   2.855 -0.2848  0.0635  0.0767
    1W        W40226   9.540  12.252   9.299  0.1178 -0.1359 -0.1590
    1W        W40227   4.668  26.919   7.433 -0.0525  0.2295 -0.1162
    1W        W40228  20.939   8.848   2.610 -0.2984 -0.1283 -0.3634
    1W        W40229  12.916  17.903   9.175  0.0286 -0.0045 -0.0559
    1W        W40230  13.473   1.086   8.938  0.0904  0.0089  0.0556
    1W        W40231  12.540   5.300   8.808 -0.0173 -0.0244 -0.2638
    1W        W40232   0.308   4.840   0.438  0.0820  0.0139 -0.0647
    1W        W40233   0.371  10.655   0.400 -0.0674  0.1069 -0.1737
    1W        W40234  26.007  23.406   8.838  0.0179 -0.1725 -0.0206
    1W        W40235  17.262  14.709   8.962  0.0175  0.1721  0.1454
    1W        W40236  17.066  19.706   8.316  0.0016 -0.1258 -0.4807
    1W        W40237  25.785  13.929   8.338  0.1477  0.0498 -0.2466
    1W        W40238  11.108   5.357   3.353 -0.0365  0.0039 -0.3128
    1W        W40239  12.094  18.606   0.174 -0.2294  0.0003 -0.2224
    1W        W40240   2.446  10.838   1.136  0.0814 -0.4844  0.1531
    1W        W40241   0.245  22.055   7.415 -0.2476  0.1934  0.1887
    1W        W40242   2.220   4.890   0.843 -0.3471 -0.0480 -0.3078
    1W        W40243  18.538   7.756   6.636 -0.2185  0.0759  0.0734
    1W        W40244  24.615  20.028   8.139 -0.0602 -0.0201  0.2128
    1W        W40245   5.597   7.860   7.111 -0.0872  0.0182  0.1445
    1W        W40246   7.279   2.958   9.172 -0.1123  0.0871  0.1146
    1W        W40247  12.121   6.484   9.407  0.2370  0.0916 -0.1242
    1W        W40248  27.240  15.304   8.419 -0.0009  0.0043 -0.3180
    1W        W40249   4.527  22.691   1.612  0.0828 -0.0209 -0.1643
    1W        W40250   4.218  10.858   1.427  0.1241  0.1457 -0.0670
    1W        W40251  22.228   3.578   1.890 -0.1192 -0.1298  0.0589
    1W        W40252   4.676   9.754  10.306 -0.1901 -0.4353 -0.1487
    1W        W40253  15.218  25.408   2.745  0.0785 -0.2828  0.1799
    1W        W40254   2.676   4.206   7.140  0.1289  0.2583 -0.0029
    1W        W40255   5.760  11.634   0.842 -0.0148 -0.0325  0.3074
    1W        W40256   9.618   9.909   8.903 -0.0139  0.1248  0.1359
    1W        W40257  17.445  17.726   3.696 -0.1487  0.1616 -0.0908
    1W        W40258  26.885   4.804   6.817 -0.1652 -0.1855 -0.2065
    1W        W40259   6.053  23.220   9.294  0.1701 -0.1237  0.2324
    1W        W40260  11.853   7.088   0.289 -0.1643  0.0258 -0.1170
    1W        W40261  21.737  18.517   7.070  0.1414  0.0879 -0.0680
    1W        W40262   6.447  15.729   0.736  0.1320 -0.1306  0.2544
    1W        W40263  23.808   2.278   7.858 -0.0132 -0.0327 -0.1428
    1W        W40264  22.752   8.118   2.466  0.0230 -0.2792  0.2742
    1W        W40265  25.203   8.763   1.345  0.2287  0.4693  0.2839
    1W        W40266   1.453  26.327   8.296 -0.0115 -0.0002  0.0412
    1W        W40267  11.486   3.507   8.105  0.2200 -0.0297 -0.1745
    1W        W40268  24.745  21.324   6.384 -0.0965  0.2904 -0.1367
    1W        W40269   4.314  25.626   7.824 -0.1475 -0.5290  0.1704
    1W        W40270  12.150   0.495   0.635  0.3095  0.2567 -0.1040
    1W        W40271  20.667  11.275   1.585 -0.2763 -0.1056  0.2333
    1W        W40272   0.115   6.473   8.058  0.4320  0.0994  0.0284
    1W        W40273   4.681   6.214   6.496 -0.2779 -0.1757  0.2684
    1W        W40274  18.232  16.003   1.722 -0.3529 -0.2926 -0.3752
    1W        W40275  18.936  13.414   2.141 -0.0734 -0.2620  0.1891
    1W        W40276  19.770   6.485   8.878 -0.0090  0.0642 -0.1078
    1W        W40277  27.660  12.034   7.203  0.1351 -0.0190  0.3974
    1W        W40278   4.353  22.973   9.200 -0.0323  0.1387 -0.1951
    1W        W40279  26.657  12.054   8.648 -0.3080 -0.0112 -0.1420
    1W        W40280   3.821   0.869   1.203 -0.0900 -0.1543 -0.1171
    1W        W40281   9.986   4.188   7.262  0.1245 -0.3407  0.0922
    1W        W40282   5.585  25.615   8.051 -0.2324  0.0180  0.0467
    1W        W40283  13.229   0.707   0.014  0.3384 -0.0551 -0.0334
    1W        W40284  26.696  27.733   1.995 -0.1769  0.2474 -0.0119
    1W        W40285  22.809  10.371   7.559 -0.2405 -0.2897  0.1984
    1W        W40286  23.637  23.643   9.858  0.1908 -0.2093  0.0187
    1W        W40287   5.944  16.475   1.742  0.2073 -0.2134  0.0315
    1W        W40288   4.320  13.935   0.782  0.2053  0.2665  0.1730
    1W        W40289   1.996  19.745   9.920 -0.0581  0.0381  0.0959
    1W        W40290  15.574  23.037   9.888  0.1701 -0.2908 -0.0013
    1W        W40291  17.067   8.388   9.279 -0.3475 -0.0854  0.0651
    1W        W40292  22.943   2.893   6.601 -0.2126  0.2220  0.2414
    1W        W40293  15.280   9.943   2.048  0.3471  0.0202  0.1507
    1W        W40294  25.010  25.497   2.872 -0.2745 -0.4437 -0.0231
    1W        W40295  13.961  22.839   0.784 -0.1314  0.0903  0.1380
    1W        W40296   8.212  15.444   8.562 -0.2810 -0.1008 -0.2167
    1W        W40297   2.561  25.078   0.302 -0.1000  0.1729  0.2260
    1W        W40298  26.386  12.518   7.330 -0.0719  0.0856 -0.1023
    1W        W40299  15.822  23.523   9.060  0.0853  0.0690  0.1424
    1W        W40300   7.638  22.352   0.951 -0.2845  0.1445  0.3671
    1W        W40301  11.246  26.359   9.750  0.0278  0.0918  0.0218
    1W        W40302  19.866  26.390   1.510 -0.3115 -0.2685 -0.1347
    1W        W40303  25.665  21.619   9.800  0.0436 -0.0649  0.1058
    1W        W40304   2.710  10.451   9.369 -0.0041 -0.2357 -0.1232
    1W        W40305  10.296  10.898   1.082 -0.2386  0.3107 -0.3009
    1W        W40306  27.884  16.766   9.841  0.1107 -0.1218 -0.0199
    1W        W40307  25.758  13.851  10.089 -0.4562 -0.0212 -0.4018
    1W        W40308  27.503   7.517   1.742  0.1289 -0.3408 -0.2090
    1W        W40309   0.776  11.307   7.221  0.2234  0.0014  0.2474
    1W        W40310  13.098   0.473   1.258  0.1047 -0.2516 -0.0575
    1W        W40311  20.787   6.664   7.799  0.0761  0.1819 -0.1670
    1W        W40312  24.876  14.376   9.803  0.1154  0.0200  0.1280
    1W        W40313  22.053   4.342   2.533  0.2233  0.0140  0.1312
    1W        W40314  25.680  11.028   9.188 -0.0670  0.0209  0.1183
    1W        W40315   2.541  14.886   2.214  0.1383 -0.1773 -0.3161
    1W        W40316  11.593  13.941   1.868 -0.0034 -0.1853  0.3280
    1W        W40317  15.380  21.089   2.757  0.3311 -0.1157 -0.0689
    1W        W40318  21.300  11.570   2.355  0.0410  0.0480  0.4179
    1W        W40319  16.965   8.311   0.186 -0.1246  0.0655 -0.0961
    1W        W40320  20.383   5.719   1.168  0.0911  0.3029 -0.0651
    1W        W40321   8.487   9.214   9.143 -0.2728  0.0829  0.0166
    1W        W40322  17.012   9.018   1.913 -0.2484  0.0583  0.1405
    1W        W40323  22.038  12.561   9.175  0.0827  0.1241 -0.1409
    1W        W40324  13.084   7.765   2.542 -0.1550 -0.1755 -0.0906
    1W        W40325  20.883  10.627   7.131 -0.0472  0.0807 -0.0141
    1W        W40326   7.942   0.487   9.078 -0.0730  0.0187  0.0323
    1W        W40327  22.889  24.061   3.561 -0.1555 -0.0007  0.0372
    1W        W40328  26.860   8.909   0.226 -0.0553 -0.1636  0.0331
    1W        W40329  22.707   2.556   9.091  0.0138  0.1735  0.0019
    1W        W40330  22.610  20.713  10.024  0.0613 -0.1505 -0.1643
    1W        W40331  21.765   8.194   0.694  0.4857  0.2247  0.0011
    1W        W40332  22.298  15.547   3.053 -0.3488  0.0954 -0.2606
    1W        W40333   4.213  12.184   7.202 -0.3566 -0.0205 -0.0743
    1W        W40334  13.952  13.060   0.072 -0.1891  0.1760 -0.0477
    1W        W40335  11.152  27.007   1.213  0.1689 -0.3424  0.2923
    1W        W40336  17.366  11.915   8.431 -0.3326  0.3499 -0.0416
    1W        W40337   6.033  20.579   8.708 -0.0714  0.0221 -0.3068
    1W        W40338   2.356   4.016   9.914  0.1667 -0.0606 -0.0549
    1W        W40339  10.207   5.788   9.984  0.0939 -0.0952 -0.1914
    1W        W40340  27.147   5.941   8.969 -0.2612 -0.0009  0.0634
    1W        W40341  11.317   3.850   1.813  0.2465  0.0185 -0.1744
    1W        W40342   8.368  25.283   1.596  0.0076  0.0519 -0.1181
    1W        W40343  20.892  26.571   0.159  0.1179  0.0993 -0.1919
    1W        W40344  15.408  17.350   9.067  0.0396 -0.2934  0.0197
    1W        W40345  16.354   2.645   0.439 -0.0871 -0.2513  0.0197
    1W        W40346   9.975  19.892   8.629 -0.0215  0.3208  0.2983
    1W        W40347  19.814   0.188   0.453  0.1416 -0.1804 -0.0343
    1W        W40348  25.063  15.154   8.382 -0.0036 -0.1958  0.0244
    1W        W40349  10.219   6.378   1.847  0.1713  0.0093 -0.4157
    1W        W40350  14.771  10.096   1.929  0.0105 -0.2450  0.2117
    1W        W40351  23.494   4.789   9.394 -0.1092 -0.0064  0.1846
    1W        W40352  24.627   3.575   9.819  0.1473 -0.0616 -0.2249
    1W        W40353  12.739  11.457   0.734 -0.2005 -0.1742 -0.1309
    1W        W40354  13.016  25.865   9.146 -0.2551 -0.0181 -0.2850
    1W        W40355  25.314  27.073   7.627 -0.1163 -0.1022  0.2522
    1W        W40356  11.702   8.341   2.148 -0.2625  0.2609 -0.2943
    1W        W40357  12.119   3.227   9.365  0.1376  0.0286  0.1523
    1W        W40358  16.590   6.266  10.219  0.1024 -0.4346 -0.0938
    1W        W40359  14.381  24.895   1.499  0.0733  0.1428 -0.0532
    1W        W40360   6.236  25.007   0.498 -0.1457 -0.2224  0.3839
    1W        W40361   4.377  18.565   7.758 -0.0405  0.1151  0.2616
    1W        W40362  12.426  14.959   2.307 -0.2542  0.0536  0.2089
    1W        W40363  10.861  14.963   0.103 -0.5020  0.1997  0.3595
    1W        W40364   6.752  15.282   9.923 -0.2623 -0.0457  0.0694
    1W        W40365   2.352   2.290   2.480  0.1227 -0.2776  0.1286
    1W        W40366  25.133   3.569   0.371  0.0784 -0.1647 -0.1625
    1W        W40367   5.853  26.341   0.325 -0.0636 -0.1649  0.1662
    1W        W40368   3.653  12.567   8.470 -0.2136 -0.0133 -0.3407
    1W        W40369  27.784  15.778   0.576 -0.0845  0.3007  0.1218
    1W        W40370   1.287   7.569   8.195 -0.1277 -0.0990 -0.3139
    1W        W40371  10.940  21.220   8.794  0.0345  0.0738 -0.1762
    1W        W40372   1.401   0.642   0.262  0.0087 -0.3920  0.3984
    1W        W40373   5.240  21.535   1.886 -0.1380  0.0587 -0.1207
    1W        W40374  27.481  17.019   1.405 -0.5174 -0.0931  0.0956
    1W        W40375  15.551  26.105   9.473 -0.1818 -0.1949  0.1934
    1W        W40376  10.944  25.237   6.520  0.0107  0.1992  0.0140
    1W        W40377  10.239  11.193   0.342 -0.1191  0.3776 -0.0042
    1W        W40378   1.353   0.275   1.452  0.0317  0.3469 -0.2960
    1W        W40379  18.954  20.712   7.956  0.3400  0.0962  0.3862
    1W        W40380  13.134  22.772   1.393  0.0867 -0.0269 -0.1704
    1W        W40381  14.829  11.740   9.680  0.1220  0.0444 -0.1676
    1W        W40382   9.518   0.969  10.325 -0.0391 -0.2433  0.0729
    1W        W40383   1.319  13.662   8.753 -0.0823 -0.1012 -0.0775
    1W        W40384  15.788   1.293   7.434 -0.0293 -0.1245  0.0455
    1W        W40385   6.045   3.146   1.021  0.0231 -0.0200  0.0305
    1W        W40386  10.318  12.985   3.092  0.4281 -0.0007 -0.0130
    1W        W40387  23.609  18.578   1.367 -0.2452  0.1390  0.0318
    1W        W40388  13.955  22.542  10.192  0.4050  0.0129 -0.2568
    1W        W40389  27.504  13.875   8.857  0.0744  0.2066  0.0106
    1W        W40390   5.249   3.846   1.221 -0.1766  0.1376  0.1403
    1W        W40391  12.333   7.365   2.841  0.0575  0.1421 -0.0384
    1W        W40392  23.698   9.864   1.069  0.1167 -0.0804 -0.2032
    1W        W40393  12.341   3.558   2.603  0.0123 -0.0225  0.1815
    1W        W40394  13.375  27.347   1.417 -0.0296 -0.2146 -0.1272
    1W        W40395  15.965  10.814   0.871 -0.2653  0.0505  0.0901
    1W        W40396  13.965  10.180   0.193  0.1227  0.2777  0.0120
    1W        W40397  14.527  27.205   2.516 -0.0019  0.4707  0.2593
    1W        W40398  17.264   3.443   2.106 -0.4894 -0.3064  0.2907
    1W        W40399  11.430   0.263   8.056 -0.0609  0.1994  0.0240
    1W        W40400   8.193   4.576   9.373 -0.1202 -0.2049 -0.2750
    1W        W40401  16.281  12.841   1.589 -0.1164  0.1116 -0.0590
    1W        W40402  23.149  17.839   7.257 -0.3008  0.2120  0.1519
    1W        W40403  20.132   3.889   0.218 -0.2608  0.0849 -0.3134
    1W        W40404  24.940  18.249   9.493  0.0837  0.2218  0.0550
    1W        W40405  17.856   3.143   1.728  0.0084 -0.0570 -0.0271
    1W        W40406  16.348  27.811   2.730  0.2066  0.2879 -0.1200
    1W        W40407  24.767  12.942   8.187 -0.1999  0.0945 -0.1669
    1W        W40408  27.724  15.496   2.663 -0.0930 -0.1855  0.2481
    1W        W40409  12.798  12.191   7.779 -0.3235 -0.1751 -0.3065
    1W        W40410  22.687  20.723   0.866 -0.0505 -0.0074  0.1536
    1W        W40411   5.316  10.230   7.807 -0.2167  0.2128  0.1204
    1W        W40412  25.209  23.272   9.714 -0.1883  0.0133 -0.1463
    1W        W40413   6.833  11.518   8.295  0.0245 -0.2458 -0.1567
    1W        W40414  17.141  25.051   7.327 -0.0704 -0.0380  0.0760
    1W        W40415  19.844  16.092   3.052 -0.0585  0.2357  0.0062
    1W        W40416   0.106  25.590   7.679  0.0709 -0.2738 -0.1130
    1W        W40417  11.103   8.486   2.991 -0.0549 -0.2033 -0.1966
    1W        W40418  15.384  11.034   9.354  0.0880 -0.0083 -0.1001
    1W        W40419   8.567  15.813   2.004  0.0244 -0.0796  0.0781
    1W        W40420  24.475  16.080   0.917 -0.3230 -0.4749 -0.0232
    1W        W40421  12.740  15.216   0.435 -0.0876  0.0839 -0.1055
    1W        W40422  14.586   6.830   1.607  0.1880  0.3009  0.0311
    1W        W40423  23.858  15.783   2.852  0.3672 -0.2684  0.3016
    1W        W40424   8.109  13.179   4.021 -0.3460  0.1987  0.0981
    1W        W40425   9.237  22.212   0.066 -0.3612  0.0329 -0.2351
    1W        W40426  20.373   2.492   0.651  0.0079 -0.3713  0.1925
    1W        W40427   8.987  24.737   1.208  0.1844  0.0720  0.1843
    1W        W40428  17.862   1.703   9.535  0.1407  0.0769 -0.1635
    1W        W40429  11.032  25.333   8.405  0.1475  0.0859 -0.1642
    1W        W40430  15.117   0.289  10.219 -0.1341  0.1426 -0.2409
    1W        W40431  20.587  15.578   7.827 -0.0770 -0.2667  0.1423
    1W        W40432  11.935  18.866   1.808  0.3958  0.2248  0.0600
    1W        W40433  25.650   5.307   7.520 -0.3202 -0.1030 -0.1109
    1W        W40434  21.935  26.019   8.804  0.1034  0.0967  0.1789
    1W        W40435   8.929   6.266   0.776 -0.0969  0.1449 -0.2788
    1W        W40436  21.691  21.393   0.064 -0.1620 -0.0617 -0.0773
    1W        W40437  18.345  19.276   0.330  0.1100 -0.4396  0.0297
    1W        W40438   9.693   1.325   0.216 -0.3874  0.1377 -0.1028
    1W        W40439  15.886  24.238   0.184  0.3276 -0.1514  0.0686
    1W        W40440   6.851  16.754   1.343 -0.0776 -0.3309  0.2211
    1W        W40441  19.438  11.013   9.619 -0.0232  0.1803 -0.0803
    1W        W40442  10.661  16.987  10.352  0.2068 -0.1485  0.0019
    1W        W40443  24.650   6.726   0.696 -0.2386 -0.0726 -0.1324
    1W        W40444  26.917  19.311  10.230  0.3064 -0.1891 -0.2639
    1W        W40445   7.927   0.056   8.134  0.0786  0.2793 -0.1918
    1W        W40446   8.461  12.101  10.227  0.0448  0.0656 -0.0697
    1W        W40447  26.526   3.869   7.686 -0.2681  0.0403  0.1855
    1W        W40448  10.851   4.692   9.438 -0.4182  0.1720 -0.3116
    1W        W40449  10.458   9.616   1.955 -0.1057  0.3594 -0.0622
    1W        W40450   3.940  20.107   0.640 -0.0925 -0.1556  0.0150
    1W        W40451  15.781  18.891   1.119 -0.3309  0.0434 -0.0628
    1W        W40452  20.781  26.853   8.915 -0.0468 -0.4520  0.0442
    1W        W40453   8.224  17.418   0.149  0.0694  0.1448 -0.0503
    1W        W40454  16.582   8.201   6.969 -0.1733  0.1202  0.1053
    1W        W40455   7.737   2.211   9.765 -0.0954  0.1784 -0.1109
    1W        W40456   7.156  23.215   0.744  0.2461  0.0571 -0.1157
    1W        W40457  18.856  14.948  10.149 -0.0900  0.0896 -0.2490
    1W        W40458  12.587  14.630   9.790 -0.1275 -0.2316 -0.1129
    1W        W40459  22.505  26.621   7.052  0.0730 -0.2088 -0.1849
    1W        W40460   6.547  20.269   9.579 -0.1759 -0.1631  0.0646
    1W        W40461  27.980   8.573   0.608  0.2925 -0.0321  0.0459
    1W        W40462  12.765   3.315   2.696 -0.3455  0.0211 -0.1480
    1W        W40463  24.199  10.864   9.709  0.1092  0.1759 -0.0352
    1W        W40464  12.430   8.938   8.939 -0.0467  0.1015 -0.4486
    1W        W40465  10.227   4.629   7.400 -0.1247 -0.0653  0.0577
    1W        W40466  12.804  10.390   7.016 -0.0487 -0.3397 -0.0764
    1W        W40467  23.161  15.128   1.300  0.2980  0.1693  0.1401
    1W        W40468   3.901   6.915   8.341  0.2892  0.1927  0.0446
    1W        W40469  21.239  16.352   0.839 -0.1044  0.1949 -0.1254
    1W        W40470  12.536   1.764   7.181  0.0969 -0.1953  0.2658
    1W        W40471  11.505  15.090   9.580  0.2105  0.3909  0.2265
    1W        W40472  20.958   1.475   9.028  0.2668  0.2581 -0.2162
    1W        W40473  26.744   6.071   1.386 -0.0313 -0.0951  0.1760
    1W        W40474  12.143   3.676   9.392 -0.0057 -0.0128 -0.1207
    1W        W40475  23.772  20.092   2.029 -0.0875 -0.3780 -0.0903
    1W        W40476   2.323  14.360   6.966  0.3474  0.3201 -0.0982
    1W        W40477  24.493   1.241   8.379 -0.1830 -0.0547 -0.0055
    1W        W40478  13.574  10.499   0.104  0.0839 -0.0338 -0.0769
    1W        W40479  19.394   2.779   9.557  0.2194  0.3047  0.1288
    1W        W40480  16.526  12.598   7.768 -0.0142  0.1339  0.3227
    1W        W40481   4.876  12.914   2.293 -0.3162  0.2873  0.0322
    1W        W40482  14.648  10.551   1.874 -0.2321 -0.0578 -0.0693
    1W        W40483  24.867   2.648   9.510 -0.3545  0.1928  0.1395
    1W        W40484  25.742   0.950   1.826  0.1560 -0.1999  0.0006
    1W        W40485   8.847  11.742   9.467  0.1893  0.1741 -0.0912
    1W        W40486  17.288   9.848   0.956  0.1001 -0.0005 -0.0255
    1W        W40487   4.537  27.700   8.111  0.2202 -0.1639  0.1807
    1W        W40488   3.054   9.411   9.333 -0.3047  0.2325  0.3011
    1W        W40489  26.423  15.690   6.231  0.0278  0.1932 -0.0694
    1W        W40490  20.276   3.408   2.343  0.0391  0.2439  0.2948
    1W        W40491   7.304  19.378   2.790 -0.1252  0.0646 -0.0785
    1W        W40492   4.105  23.891   1.484  0.0568  0.2041  0.3246
    1W        W40493  21.757  13.870   2.708  0.0634 -0.4261  0.1010
    1W        W40494  25.290   2.385   0.675  0.2690  0.1460  0.0618
    1W        W40495  22.147  24.353   3.278 -0.1192  0.0275 -0.0302
    1W        W40496  17.442  13.691   8.292  0.1291  0.1416  0.0486
    1W        W40497   9.937  23.368   1.986 -0.0343 -0.1966  0.0550
    1W        W40498   8.871  23.617   7.539 -0.1326  0.1572  0.2432
    1W        W40499  17.173  22.824   1.009 -0.1718  0.4421 -0.1538
    1W        W40500  16.629   7.134   8.121 -0.3448  0.1136 -0.1312
    1W        W40501  11.304  12.976   0.439 -0.0007 -0.0558  0.2153
    1W        W40502  12.464   5.103   9.324 -0.0585  0.0551  0.2276
    1W        W40503  16.094   6.431   3.141  0.1999  0.1428  0.0337
    1W        W40504   8.242  21.663   2.941  0.1784 -0.1119  0.2923
    1W        W40505  27.756  27.856   7.685  0.2041 -0.2120  0.1085
    1W        W40506  13.676  10.130   3.480 -0.3615 -0.2130 -0.0809
    1W        W40507   1.560  21.843   1.898 -0.1112  0.0269  0.0374
    1W        W40508   0.674  27.507   1.156  0.0241  0.0910 -0.2765
    1W        W40509  14.870  21.422   1.189  0.0869 -0.0851  0.0169
    1W        W40510   7.086   6.673   9.550 -0.1672 -0.0256 -0.1622
    1W        W40511   9.756  27.465   2.657  0.2206  0.1442  0.2903
    1W        W40512  13.658   8.247   3.871 -0.0216  0.3751  0.1433
    1W        W40513   8.119  24.388   0.694 -0.1491 -0.4967  0.0985
    1W        W40514   0.928   3.078   8.241 -0.2356  0.2613  0.0281
    1W        W40515   5.957  19.388   9.201 -0.1495 -0.0564 -0.2916
    1W        W40516  23.036   5.049   9.160 -0.0907 -0.0296 -0.1454
    1W        W40517  11.052  10.945   9.000  0.0473  0.0021  0.0640
    1W        W40518   6.826  22.630   8.148 -0.1536  0.2148  0.0183
    1W        W40519  27.979  19.376   2.317 -0.3794  0.3016  0.2645
    1W        W40520  10.170  27.069   2.119 -0.5898 -0.4838 -0.0221
    1W        W40521  15.295  14.443   4.146  0.1017  0.0954 -0.1327
    1W        W40522  14.180   1.473   2.310  0.1437  0.1580  0.0408
    1W        W40523   7.787  14.662   0.911 -0.3111 -0.1756 -0.5031
    1W        W40524  21.606   0.190   0.135  0.0684 -0.1021 -0.1743
    1W        W40525  18.891  25.508   9.652 -0.0175  0.0661  0.0006
    1W        W40526  16.049  17.057   2.970  0.1936 -0.1004 -0.1099
    1W        W40527  20.028  12.568   9.089  0.1896  0.0289  0.0936
    1W        W40528  23.487  18.266   9.698  0.3031 -0.0287 -0.0044
    1W        W40529  18.133  18.682   9.720  0.0839  0.2179  0.1871
    1W        W40530  22.793  21.102   0.378 -0.1925 -0.1965 -0.0441
    1W        W40531  25.555   5.816  10.088  0.0308  0.2983  0.1575
    1W        W40532  24.387  16.190   9.995 -0.1173  0.1821 -0.1125
    1W        W40533  15.847   5.949   1.823  0.0850  0.0029 -0.0457
    1W        W40534   5.456  20.029  10.114 -0.3312  0.0850 -0.1099
    1W        W40535   0.695   1.656   9.037 -0.0516  0.0738 -0.0568
    1W        W40536   3.149   6.650   0.101 -0.4514  0.0250 -0.0749
    1W        W40537  21.621  19.895   1.661  0.0486 -0.0753  0.0986
    1W        W40538  17.327  18.415   9.557 -0.2706 -0.0520  0.0425
    1W        W40539  26.814  15.404   7.249 -0.1404 -0.2735  0.1735
    1W        W40540   8.089  18.563   3.192  0.0633 -0.3268 -0.4581
    1W        W40541  12.988  16.441   3.900  0.0767 -0.0625  0.1148
    1W        W40542   1.419  24.298   1.699  0.0359  0.2475 -0.1909
    1W        W40543  25.390  26.974   1.466 -0.1248  0.0332 -0.0617
    1W        W40544   7.587  19.569   8.276  0.3567  0.2258  0.2881
    1W        W40545  24.139  11.179   8.374  0.1552 -0.0238  0.1298
    1W        W40546  13.508   8.052   9.098 -0.2667  0.0574  0.1782
    1W        W40547   1.951  11.668   7.372 -0.1903 -0.0314 -0.5331
    1W        W40548  20.148  10.641   2.525  0.0152  0.1810  0.0512
    1W        W40549  11.186  25.551   2.186  0.3671 -0.0621 -0.2891
    1W        W40550  27.105  18.636   1.526 -0.0785  0.2063  0.0849
    1W        W40551  25.125  22.928  10.261  0.2652 -0.0267 -0.0445
    1W        W40552  15.646   8.251   2.599  0.1500 -0.0064 -0.0426
    1W        W40553  27.705  12.906   9.026  0.2956 -0.0667 -0.0350
    1W        W40554  17.284  15.804   9.369  0.0580 -0.0234 -0.2772
    1W        W40555  23.145  24.329   0.393  0.1635 -0.1552 -0.1023
    1W        W40556  24.530  20.373  10.280  0.0559 -0.0699 -0.3291
    1W        W40557  18.695  12.522   1.725  0.1100  0.0807 -0.0090
    1W        W40558  19.708  20.935   0.311 -0.1603 -0.1359  0.1962
    1W        W40559  22.437   1.315   1.308 -0.1539  0.1737  0.2794
    1W        W40560   6.412  19.703   2.766 -0.0542 -0.3689 -0.3249
    1W        W40561  21.091   5.186   7.034 -0.0542 -0.0937 -0.1376
    1W        W40562  13.641  20.537   2.947 -0.1986 -0.0361 -0.1550
    1W        W40563  26.578  13.807   0.727 -0.2264  0.1068 -0.0997
    1W        W40564  26.027  22.153   1.584 -0.2407 -0.2121 -0.1565
    1W        W40565   8.891  12.325  10.017 -0.3000  0.0565  0.2097
    1W        W40566  11.675   4.477   2.806  0.1529  0.0407  0.2295
    1W        W40567  14.987  10.198   3.795 -0.0264  0.1586 -0.1857
    1W        W40568  16.062   8.233   0.389  0.1605 -0.0387  0.0435
    1W        W40569  12.523   0.137   8.182  0.0569 -0.3720 -0.1506
    1W        W40570  13.399  21.955   9.506 -0.3480 -0.2168  0.3113
    1W        W40571  18.828   1.594   8.384 -0.0437  0.3062 -0.0672
    1W        W40572  20.283   9.702   2.448 -0.0105  0.0445  0.0319
    1W        W40573  13.341   4.485   7.850  0.2255 -0.1008  0.1373
    1W        W40574  25.497  17.923   0.257 -0.0221  0.1416  0.0902
    1W        W40575  14.197   8.247   0.191 -0.1657 -0.0261  0.0480
    1W        W40576  16.668   4.566   8.682  0.0205  0.1787  0.3417
    1W        W40577  17.774  25.921   8.649  0.1296 -0.0579  0.0970
    1W        W40578  15.362   6.770   0.316 -0.4074  0.2906 -0.1524
    1W        W40579  15.359  21.885   7.730 -0.0138 -0.2970 -0.1007
    1W        W40580  17.739  19.950   0.529  0.1298 -0.2001 -0.1021
    1W        W40581   1.421   3.141   6.963 -0.1957  0.2202  0.0748
    1W        W40582  10.316  25.269   0.410 -0.0124  0.2760  0.1336
    1W        W40583  15.042  21.697   1.563  0.0983  0.0382 -0.2066
    1W        W40584   5.154  24.411   2.582  0.2003  0.1819  0.1481
    1W        W40585  25.035  10.503   9.701  0.0862 -0.0079  0.1973
    1W        W40586  18.296  17.512   8.084 -0.0284 -0.3270  0.0138
    1W        W40587  10.234  15.795   1.360  0.0002 -0.1104 -0.3423
    1W        W40588   8.981   6.757   0.834  0.2429 -0.1070 -0.3391
    1W        W40589  20.297  23.828   7.835  0.1224 -0.1345  0.0305
    1W        W40590  25.080  27.900   9.898  0.3030 -0.2301  0.0553
    1W        W40591  28.123  17.587   1.554  0.1746 -0.0462 -0.0412
    1W        W40592  12.575  22.509   1.321  0.1066 -0.2121 -0.0331
    1W        W40593  27.158  21.595   0.076  0.3141 -0.0960 -0.0080
    1W        W40594  20.131   9.741   2.945 -0.0652  0.2435  0.0310
    1W        W40595   4.251   4.504   0.963  0.1082  0.0415 -0.3837
    1W        W40596   3.677   7.912   0.438 -0.3324  0.1785 -0.1181
    1W        W40597  21.783   3.739   9.372  0.0486 -0.0726 -0.0257
    1W        W40598  27.453   2.795   6.718 -0.0818  0.1430 -0.0417
    1W        W40599  13.593   3.545   2.574 -0.2737 -0.2387  0.4275
    1W        W40600  26.943  20.132   0.576 -0.0135 -0.0534 -0.1581
    1W        W40601  27.683   3.310   9.913  0.0543  0.0401  0.0254
    1W        W40602  12.884  18.631   8.096 -0.0782  0.0816 -0.3889
    1W        W40603  16.442  23.149   1.250 -0.1151  0.0870  0.0916
    1W        W40604  22.355  25.699   1.184 -0.2724 -0.0790  0.1904
    1W        W40605  21.299  26.499   8.304 -0.1705 -0.0506 -0.1156
    1W        W40606  25.576  11.399   1.843  0.1956  0.1124 -0.0913
    1W        W40607   5.263  24.112  10.209 -0.2327 -0.2341  0.0158
    1W        W40608   8.057   6.193   2.810 -0.1267  0.0348 -0.1008
    1W        W40609  26.449  24.369   9.040  0.2635  0.2221  0.3806
    1W        W40610  20.163   0.143  10.350 -0.1525  0.1233 -0.0794
    1W        W40611  13.859  21.759   9.867 -0.2207 -0.0040 -0.2364
    1W        W40612   5.936  10.026   8.694  0.3051 -0.3722  0.0672
    1W        W40613  21.558  16.132   2.845 -0.1097  0.3206 -0.2858
    1W        W40614  19.870   1.535   9.143  0.0880 -0.1332 -0.0697
    1W        W40615  27.220  25.388   2.564 -0.2216 -0.3567 -0.1035
    1W        W40616  24.625  21.052   5.611 -0.1471 -0.0188  0.1824
    1W        W40617  12.572   2.727   2.392 -0.5391 -0.1313 -0.1525
    1W        W40618  11.660   1.108  10.331  0.0979  0.1620 -0.1142
    1W        W40619   9.903   6.765   0.199 -0.1371 -0.1460  0.0472
    1W        W40620  17.604   5.944   8.202  0.1041  0.0970 -0.0427
    1W        W40621  10.586  23.274   0.697  0.0990  0.0534 -0.0933
    1W        W40622  13.048   2.275   9.525  0.0933 -0.0032  0.1066
    1W        W40623  28.008  14.257   7.746  0.0435  0.1717 -0.1367
    1W        W40624   7.205  22.498   9.439  0.1274 -0.0218 -0.0550
    1W        W40625  22.890  23.432   1.765  0.1645 -0.0953 -0.0598
    1W        W40626  11.145  19.626   1.818 -0.1382  0.0258 -0.3383
    1W        W40627  16.777  17.302  10.262 -0.1925 -0.0844  0.3209
    1W        W40628   2.646   2.126   0.721 -0.0134  0.0109 -0.0230
    1W        W40629  20.354  13.998   9.159  0.1967 -0.0375  0.0538
    1W        W40630  26.865  27.733   0.047 -0.0276 -0.1430 -0.2299
    1W        W40631  21.475  18.698  10.055  0.0852 -0.2821 -0.0148
    1W        W40632  16.687   0.609   8.272  0.1387  0.1683  0.0469
    1W        W40633  15.092   8.713   4.168  0.0393 -0.0364  0.1679
    1W        W40634  23.526  19.673   2.237  0.5771 -0.1579 -0.0756
    1W        W40635  26.666   7.626   8.911 -0.2116  0.0992 -0.0142
    1W        W40636  18.714  10.959   1.637  0.0643  0.2853  0.0492
    1W        W40637   6.711  14.706  10.084 -0.0779 -0.0899  0.1336
    1W        W40638  10.614   8.436   8.568 -0.2091 -0.0754 -0.0170
    1W        W40639  23.838  22.440   8.901  0.1105 -0.3037  0.0311
    1W        W40640  10.419  27.316   1.788 -0.0755 -0.1255  0.0080
    1W        W40641   3.707  11.136   8.763  0.3094  0.0238  0.2326
    1W        W40642  15.827  11.848   2.099  0.3883 -0.2454  0.0621
    1W        W40643  16.922  19.620   1.717 -0.4337 -0.0652  0.0086
    1W        W40644   2.036  22.816   9.500  0.1415 -0.0867 -0.0853
    1W        W40645  15.454   5.987   7.184 -0.3446 -0.0605  0.2126
    1W        W40646  16.033  27.812   8.389 -0.3311 -0.0471 -0.1222
    1W        W40647   0.641   5.265   7.710 -0.0458  0.1663  0.2339
    1W        W40648  20.222   1.618   9.439 -0.0261  0.1674  0.1486
    1W        W40649  13.962   8.178   8.364  0.0602  0.1762 -0.1087
    1W        W40650  18.353  25.553   1.711 -0.1589  0.2430  0.1388
    1W        W40651  22.067  15.314   9.558  0.0537  0.0559 -0.2208
    1W        W40652  20.315   2.265   2.180  0.2585  0.1167  0.3153
    1W        W40653  15.164  17.876   0.357 -0.0543 -0.2059  0.1538
    1W        W40654  25.700  11.574   1.359  0.3007  0.0150  0.1616
    1W        W40655  21.876  16.778   0.189  0.1876 -0.0377  0.1036
    1W        W40656  11.088  10.165   9.644 -0.1127  0.0644  0.0604
    1W        W40657  17.567  19.789   0.020  0.0625 -0.1299 -0.0193
    1W        W40658   2.004  25.933   0.650 -0.0878 -0.0863 -0.1841
    1W        W40659   4.437  15.228   2.149  0.0395 -0.1792  0.1471
    1W        W40660  11.660  21.663   2.514 -0.1077 -0.0125  0.1283
    1W        W40661  19.774  13.978   8.996 -0.2188 -0.1558  0.2027
    1W        W40662  17.278  17.536   1.958  0.3783 -0.1165  0.2879
    1W        W40663  17.328  15.442   1.789  0.0878  0.1043  0.3145
    1W        W40664  22.464   5.740   2.629  0.0223 -0.0500 -0.2647
    1W        W40665  16.052   0.311   0.153 -0.1861  0.4619  0.2751
    1W        W40666   3.744   2.945   9.954 -0.0837  0.0766  0.1913
    1W        W40667   6.836  21.422   8.593 -0.1444 -0.1559 -0.0861
    1W        W40668  15.929  22.497   8.723 -0.2418  0.1823 -0.2757
    1W        W40669  17.422  23.728   8.495 -0.1746  0.0727  0.1563
    1W        W40670  13.492   4.360   7.337  0.0957 -0.4561  0.1266
    1W        W40671  11.003   7.312   4.142 -0.0436 -0.1361  0.0376
    1W        W40672   7.341  15.826  10.052 -0.2984  0.4036  0.0316
    1W        W40673  23.559  10.010   7.363 -0.3159 -0.1350  0.0700
    1W        W40674  22.324   4.497  10.303 -0.2430  0.2011  0.2469
    1W        W40675  15.714  19.278   0.161 -0.1867 -0.1673 -0.0521
    1W        W40676   8.279  17.768   1.855  0.0464 -0.1923  0.3358
    1W        W40677  18.839  22.133   7.290 -0.0453 -0.0809 -0.0650
    1W        W40678  27.851   9.235   7.254 -0.4356 -0.1099 -0.0605
    1W        W40679  10.888  16.862   1.361 -0.0622  0.0932 -0.0179
    1W        W40680   0.994  12.995   8.304 -0.2033 -0.2289  0.1308
    1W        W40681   5.874  26.379   8.033  0.1865 -0.1863 -0.1999
    1W        W40682  24.408  21.676   1.961 -0.0980 -0.0583  0.2586
    1W        W40683  17.129   2.149   2.592  0.1497 -0.0576  0.2117
    1W        W40684  12.038   1.084   7.751 -0.1277  0.0074  0.1819
    1W        W40685   8.270   8.871   0.588  0.0917  0.0187  0.0014
    1W        W40686  28.042  17.437   0.531 -0.3198 -0.1221  0.2674
    1W        W40687   2.951  15.603   7.812  0.0710 -0.0401  0.0530
    1W        W40688   0.489  19.352   1.763  0.0486  0.0501 -0.1573
    1W        W40689  22.056  27.831   2.206  0.0765 -0.1539 -0.1556
    1W        W40690  16.840  11.216   8.872  0.1008 -0.1487  0.2043
    1W        W40691  14.633   3.466   7.627  0.0458  0.0857 -0.0449
    1W        W40692  24.154   2.891   1.998  0.0531 -0.1388 -0.0770
    1W        W40693   6.054   9.889   1.223 -0.1909 -0.3186  0.1032
    1W        W40694  15.798   2.560   3.416 -0.0552 -0.2288  0.2134
    1W        W40695   1.336  10.022   9.561  0.0298  0.0162 -0.2173
    1W        W40696  14.273  16.139   4.318 -0.1989 -0.1769  0.0690
    1W        W40697  17.430   9.887   9.994 -0.2340  0.0154 -0.1342
    1W        W40698   1.879  14.806  10.194  0.0200 -0.0345 -0.0269
    1W        W40699  18.219   8.296   3.417 -0.1669  0.0762 -0.1608
    1W        W40700   2.999   8.341   8.355  0.0709 -0.0895 -0.1686
    1W        W40701  24.840  12.222   9.746  0.2177  0.1661  0.2044
    1W        W40702  14.673   3.258   7.023 -0.1790  0.0496  0.1257
    1W        W40703   3.308  17.142   8.360 -0.1459  0.3311  0.3178
    1W        W40704  20.419   3.518   2.882  0.3476 -0.1384  0.1678
    1W        W40705  14.617   9.191   1.656 -0.3616 -0.4843 -0.0109
    1W        W40706   9.797  13.212   0.789 -0.4055  0.1033  0.1411
    1W        W40707  13.124   2.295   2.931 -0.1747  0.2608 -0.2027
    1W        W40708   7.712  23.289   9.160  0.1780 -0.0014 -0.3483
    1W        W40709   6.987  22.311   8.667 -0.0121  0.2295  0.1569
    1W        W40710  24.044  24.319   7.753 -0.1587 -0.2099 -0.0431
    1W        W40711  19.862   6.336   0.499 -0.1251 -0.0865 -0.2147
    1W        W40712  14.394  11.089  10.189 -0.1732 -0.1937 -0.1882
    1W        W40713   7.675   0.533   1.668  0.2160 -0.2407  0.3532
    1W        W40714  13.212   7.300   4.171 -0.0189  0.1972  0.1894
    1W        W40715  27.769  14.130   1.483 -0.1768 -0.0339 -0.0352
    1W        W40716  15.453  17.039   8.557 -0.0425 -0.1637 -0.0886
    1W        W40717   2.474  15.435   0.941 -0.1438  0.1388 -0.0807
    1W        W40718  21.624  12.449   8.009 -0.1123  0.0443  0.0867
    1W        W40719  11.536  20.961   3.834 -0.0127  0.4300 -0.2434
    1W        W40720  16.948  27.798   8.935  0.0717 -0.3779 -0.1819
    1W        W40721  17.749  16.617   7.898  0.1846  0.2003  0.1680
    1W        W40722  16.445   8.652   8.223  0.3303  0.1083  0.2733
    1W        W40723   0.904   6.946   1.660 -0.0608  0.1683  0.0543
    1W        W40724   7.965   9.435   8.298 -0.2198 -0.1109  0.0163
    1W        W40725   6.575  14.957   8.069 -0.1026 -0.5303  0.1585
    1W        W40726   4.916   0.045   7.291 -0.4814  0.1748 -0.1121
    1W        W40727  13.805  26.974   8.240  0.1127 -0.0224 -0.2061
    1W        W40728  23.524   0.043   1.812  0.1474  0.2433  0.1287
    1W        W40729  17.350  18.472   1.562 -0.0275 -0.0044 -0.1724
    1W        W40730   9.102  11.401   8.886  0.0732 -0.3017 -0.2964
    1W        W40731  13.955  16.742   2.983  0.0450 -0.0997  0.0185
    1W        W40732   7.912  17.107  10.273  0.0411 -0.3612  0.1956
    1W        W40733  17.163  22.613   9.621  0.0873  0.3562 -0.1272
    1W        W40734  24.727  14.567   1.721  0.0024 -0.2035 -0.0062
    1W        W40735  20.688   3.028   9.974  0.1584  0.3108  0.0121
    1W        W40736   9.410   3.795   0.465 -0.0821  0.1185 -0.1733
    1W        W40737   3.084  21.158   8.419  0.1241 -0.0397  0.2034
    1W        W40738  14.704  17.618   2.458 -0.2566 -0.0338  0.1104
    1W        W40739  11.159  11.521   8.562  0.0066 -0.1772  0.0597
    1W        W40740  14.793  13.312   3.466  0.2062  0.4244  0.1619
    1W        W40741  16.556  11.671   2.455 -0.1050  0.0793  0.1121
    1W        W40742  21.924  20.198   8.978 -0.0928  0.1499 -0.0114
    1W        W40743   0.464  10.787   7.341  0.3403 -0.0028  0.1816
    1W        W40744  15.313  20.615   8.442 -0.2010  0.2068  0.0950
    1W        W40745  10.470  21.180   8.565  0.0080  0.3996  0.1381
    1W        W40746  23.984  18.194   0.064 -0.1429  0.2947  0.3224
    1W        W40747   1.551   3.856   0.729 -0.3066 -0.1718  0.0275
    1W        W40748   5.570   4.548   8.770  0.1714 -0.0040 -0.0394
    1W        W40749  17.383   3.951   8.917 -0.0273 -0.2667  0.1755
    1W        W40750  13.108   4.305   2.564 -0.0512 -0.2067  0.0021
    1W        W40751  18.315  14.812   9.889 -0.2233  0.0720 -0.0431
    1W        W40752  23.288   7.926   7.330  0.0712 -0.1025  0.1003
    1W        W40753   1.172  15.312   8.844  0.0628  0.0370 -0.1748
    1W        W40754   1.765  25.752   7.593 -0.0524 -0.1310  0.0128
    1W        W40755  12.519  17.285  10.170 -0.0989 -0.1240  0.2938
    1W        W40756  26.980  14.217   8.998 -0.2186  0.1722 -0.0052
    1W        W40757  24.793  27.020   1.020  0.0634 -0.1299 -0.1833
    1W        W40758   1.752   3.498   9.279 -0.0569  0.0406 -0.2776
    1W        W40759  10.273  14.478   7.691  0.1531 -0.0178 -0.2064
    1W        W40760   6.099   7.822   0.791 -0.3722 -0.0395  0.1097
    1W        W40761   7.676  22.163   7.482  0.1181 -0.1478 -0.1377
    1W        W40762   4.533  20.577   8.594 -0.3319  0.0640  0.0030
    1W        W40763  21.677  15.725   1.973  0.2943  0.1969  0.0083
    1W        W40764  25.538  18.172   2.464  0.0242 -0.0377 -0.1797
    1W        W40765  27.593  24.153   6.945  0.0027 -0.1325  0.1388
    1W        W40766  22.558  13.562   9.293 -0.0745  0.2602  0.0716
    1W        W40767  15.849   6.689   0.185  0.3830  0.1220  0.2164
    1W        W40768   9.260  22.300   2.508 -0.2221  0.2093 -0.0192
    1W        W40769  13.211  15.603   1.645  0.1514  0.0093 -0.0957
    1W        W40770   8.158  12.058   9.845  0.1607 -0.0230  0.1433
    1W        W40771  21.704   5.240  10.058  0.2083  0.0512  0.2256
    1W        W40772   9.615   0.709   2.066  0.0005  0.2202  0.3206
    1W        W40773  10.711  12.778   9.327  0.0321  0.0404  0.1562
    1W        W40774  20.178  17.473   0.338 -0.0882  0.1672 -0.0105
    1W        W40775  17.336  12.204   9.680 -0.0040 -0.4428  0.1440
    1W        W40776  24.886   4.468   8.223  0.1343 -0.0077 -0.1181
    1W        W40777  27.081   9.585   7.247 -0.0725  0.3793 -0.1701
    1W        W40778  19.581  16.256   1.196  0.1881  0.0988 -0.0487
    1W        W40779  17.988  17.822   8.484  0.0120  0.1186  0.2823
    1W        W40780  10.152   3.774  10.318  0.0006  0.3076 -0.0096
    1W        W40781  14.390  16.247   9.315  0.0016 -0.0551 -0.2878
    1W        W40782  16.046  21.446   1.384  0.1025  0.0111 -0.0395
    1W        W40783  13.267  25.964   1.303 -0.2361 -0.2343  0.1698
    1W        W40784   1.692  26.522   9.665 -0.3933 -0.2004  0.1087
    1W        W40785   3.990  17.941   0.854  0.2809  0.0009  0.0590
    1W        W40786   0.311  16.664   8.489  0.0666 -0.1296  0.1669
    1W        W40787  18.279   5.737   6.690 -0.0245  0.0510 -0.1653
    1W        W40788   4.983  18.136   0.287  0.0068  0.1127 -0.0612
    1W        W40789  21.050  13.789   8.513 -0.3000 -0.1379  0.1567
    1W        W40790  15.074  25.633   0.859 -0.1255  0.0622 -0.0168
    1W        W40791  25.659  26.901   0.986  0.1085  0.0606 -0.3865
    1W        W40792  17.634  27.365   0.218 -0.2825 -0.0232 -0.2067
    1W        W40793   2.928  26.393   8.746  0.3346  0.1825  0.2745
    1W        W40794   5.013   6.154   8.788  0.0493 -0.2390 -0.0435
    1W        W40795  15.351  10.263   8.202  0.2351  0.2963 -0.1895
    1W        W40796  17.391  13.609   0.094  0.0574  0.1689 -0.1210
    1W        W40797  26.702  14.968   0.432 -0.0088  0.0270  0.0149
    1W        W40798   1.754   6.443   9.529  0.1143 -0.0630  0.0612
    1W        W40799  16.739   7.629   1.073  0.0661 -0.3177  0.2539
    1W        W40800  18.431  23.650   9.049  0.0952 -0.0725 -0.2821
    1W        W40801   2.101  14.743   9.590  0.4939  0.2889 -0.1712
    1W        W40802   0.295  11.145   6.972 -0.0753 -0.4050 -0.1591
    1W        W40803  14.998  10.347   1.553  0.3308 -0.0046 -0.2394
    1W        W40804   8.921  17.295   9.995  0.2814 -0.1127 -0.2956
    1W        W40805  15.569  13.211  10.249  0.1258 -0.4438 -0.1975
    1W        W40806  14.083  17.445   2.877 -0.1172 -0.0803 -0.1380
    1W        W40807   6.941   3.711   3.308 -0.2376 -0.2752 -0.1157
    1W        W40808  16.730  16.563   8.799  0.1199  0.1844  0.0710
    1W        W40809  20.718   1.240   8.511 -0.1093 -0.0986  0.0318
    1W        W40810  19.459  25.336   2.289 -0.2467  0.1356 -0.1678
    1W        W40811  21.469   5.483   1.419 -0.1883  0.4930 -0.1323
    1W        W40812   1.838  13.385   6.910  0.0023  0.4405 -0.2483
    1W        W40813  12.012   8.228   3.273 -0.0003  0.0849 -0.0856
    1W        W40814  26.370  10.402   2.346  0.2829 -0.1597 -0.4278
    1W        W40815   9.105  11.760   7.577  0.2667  0.2517  0.0816
    1W        W40816  12.139   1.972   9.295  0.1067 -0.0374 -0.3243
    1W        W40817   8.384  23.304   1.834  0.1582 -0.0410 -0.1413
    1W        W40818   4.948  24.662   1.071  0.2137  0.1577 -0.2762
    1W        W40819   4.070  27.703   7.197 -0.1604 -0.0200  0.0069
    1W        W40820   4.324   7.224   8.052 -0.0577 -0.0091 -0.3530
    1W        W40821  23.100  16.235   2.580  0.3722  0.4172 -0.1246
    1W        W40822  27.246   0.235   7.040 -0.0603  0.1565 -0.1136
    1W        W40823  18.830  12.898   2.201 -0.1887 -0.0751 -0.2100
    1W        W40824   2.657  18.224   9.835  0.0202 -0.1713 -0.1398
    1W        W40825  13.886  25.812  10.266 -0.0759  0.0398  0.1221
    1W        W40826   1.939   5.070   1.223  0.0655 -0.3570  0.0210
    1W        W40827  22.116   6.965   7.316 -0.1128  0.2622 -0.0339
    1W        W40828  18.169  12.713   3.166 -0.1369  0.0944 -0.0477
    1W        W40829  18.284   9.708   3.726  0.2928  0.1221  0.1244
    1W        W40830   0.070  19.886  10.176 -0.2410  0.1000  0.1460
    1W        W40831   4.352  27.820   6.644 -0.1338  0.1969  0.0669
    1W        W40832  20.982  19.208   0.158  0.1977  0.0455  0.0683
    1W        W40833   3.885  26.479   8.615 -0.1454 -0.4362  0.0120
    1W        W40834   6.724  26.128   8.861  0.0256 -0.0803  0.2930
    1W        W40835  24.542   3.709   7.468  0.0252 -0.0220  0.2612
    1W        W40836  23.505   2.177   1.867 -0.2251  0.1674 -0.1581
    1W        W40837  12.733  22.081   2.032  0.2029 -0.0592 -0.1493
    1W        W40838  15.325   6.232   9.513  0.0471  0.0061 -0.2401
    1W        W40839  15.194   7.249   9.877 -0.1706  0.3659 -0.0881
    1W        W40840  21.988  21.843   2.251  0.1001 -0.0807 -0.2596
    1W        W40841   4.702   3.481   9.127 -0.2594 -0.3179  0.1122
    1W        W40842  24.735  28.092   9.470 -0.1426  0.0360 -0.0965
    1W        W40843  12.817   1.937   2.777 -0.1028 -0.0863  0.1216
    1W        W40844   2.334   7.838   8.528 -0.2146 -0.0532 -0.3711
    1W        W40845  24.168  13.454   9.044 -0.1205  0.0931 -0.0176
    1W        W40846   9.848  13.166   3.311  0.0051  0.0753 -0.0152
    1W        W40847  12.141   4.210   9.302  0.2522  0.1341  0.0557
    1W        W40848   1.798  19.993   9.485 -0.2247 -0.0408  0.0821
    1W        W40849  18.162  20.288   2.601 -0.0352  0.2499  0.0701
    1W        W40850  22.651   1.869   1.718  0.0040  0.1140 -0.0939
    1W        W40851  21.204  24.127   8.224  0.3182 -0.1675  0.0229
    1W        W40852  24.998   0.248   9.130  0.1754  0.0121 -0.0215
    1W        W40853  17.059   0.255   1.038 -0.1590  0.0742 -0.1261
    1W        W40854  14.806  11.504   3.351 -0.4305  0.0452 -0.1583
    1W        W40855  14.784  15.691   1.541  0.2527  0.0709 -0.4355
    1W        W40856  22.109  24.722   9.629 -0.0174  0.0531  0.1327
    1W        W40857  12.322   5.731   2.786  0.0242  0.1552  0.3013
    1W        W40858  10.729   7.334   2.107  0.0374 -0.0115  0.0354
    1W        W40859  19.018  11.247   9.573 -0.2633  0.1509 -0.1479
    1W        W40860   7.588  17.635   1.021 -0.1361 -0.1814 -0.1696
    1W        W40861   0.842  16.097  10.066  0.1611  0.1147 -0.1316
    1W        W40862   0.219   6.923   7.776 -0.2424 -0.1963  0.1578
    1W        W40863   2.285  11.371   0.932  0.2693 -0.2064  0.0454
    1W        W40864  19.834  20.847   8.132  0.0083  0.1717 -0.1607
    1W        W40865   7.554  13.798   9.312  0.3091  0.2500 -0.1054
    1W        W40866  22.964  25.895   2.255  0.0745 -0.1455  0.1886
    1W        W40867   3.209  12.177   0.781 -0.0899 -0.0811  0.2052
    1W        W40868  20.439   9.080   7.965 -0.1687 -0.0233  0.2563
    1W        W40869  16.906  22.789   2.948  0.0658  0.2880 -0.1322
    1W        W40870  15.634   6.652   0.783 -0.1004  0.1167  0.0670
    1W        W40871  25.552  19.116   2.960 -0.0314  0.1980 -0.1435
    1W        W40872  18.134  22.702   9.223  0.1205 -0.3445 -0.2272
    1W        W40873  24.879  20.395   0.327 -0.1328  0.1339 -0.0821
    1W        W40874  27.703   8.115   6.667  0.1559 -0.2018  0.0499
    1W        W40875   3.335  24.957   1.754  0.0586 -0.3205 -0.1004
    1W        W40876   4.197  26.352   2.625 -0.0315  0.0562 -0.1956
    1W        W40877   8.137   0.634   1.027 -0.1151  0.0098  0.0613
    1W        W40878   8.800   1.062   7.508  0.0700  0.3758 -0.1716
    1W        W40879  23.605  24.289   0.538  0.1235 -0.0492 -0.2668
    1W        W40880   7.531  15.818   3.111  0.0343 -0.3037 -0.1489
    1W        W40881   1.774  11.148   3.342  0.4359 -0.2765  0.3657
    1W        W40882   5.493  17.734   9.099  0.0571 -0.2450  0.0209
    1W        W40883  27.262  17.404   9.154 -0.1219  0.0164 -0.3492
    1W        W40884   7.945  18.691   1.603 -0.0740 -0.2158 -0.0872
    1W        W40885  20.297  20.167   2.968 -0.2394  0.0954 -0.0551
    1W        W40886   6.626   6.792   0.725 -0.2250  0.0809 -0.5511
    1W        W40887   7.283  22.206   1.755 -0.0073  0.3703 -0.1562
    1W        W40888   0.411  12.077   2.269 -0.1311  0.3180 -0.3745
    1W        W40889   4.793  12.551   8.499  0.2916 -0.3032 -0.0993
    1W        W40890   1.004  17.950   3.707  0.1661 -0.0256  0.1791
    1W        W40891  12.913  13.861  10.093 -0.1816  0.2146  0.0425
    1W        W40892   5.005  17.934   2.671 -0.1266  0.0487  0.0204
    1W        W40893  10.084  27.590   9.610 -0.0105  0.0288 -0.0233
    1W        W40894   6.361   4.283   1.403  0.1011  0.0732 -0.0710
    1W        W40895   2.270   4.123   0.012 -0.1770  0.2300  0.1021
    1W        W40896  10.519  19.348   0.441 -0.2950 -0.2362 -0.2773
    1W        W40897  20.322   4.944   8.982 -0.3270 -0.2022 -0.1124
    1W        W40898  25.121  16.537  10.079 -0.0440  0.1967  0.3290
    1W        W40899   0.552  15.718   8.059  0.0112 -0.0306 -0.1083
    1W        W40900   3.132   7.671   7.379  0.3028  0.1559  0.2322
    1W        W40901   2.182  15.231   8.107 -0.2970  0.1085  0.0745
    1W        W40902  11.130   3.253   8.944  0.2822 -0.0742  0.1517
    1W        W40903  27.774  16.330   8.940  0.2251 -0.0441 -0.0196
    1W        W40904  27.967  15.074   9.924  0.1990 -0.1855 -0.0450
    1W        W40905  27.252  13.519   1.187  0.0218 -0.1895  0.1273
    1W        W40906   6.088  10.431   9.067 -0.1795 -0.2558 -0.1860
    1W        W40907  16.191  27.320   3.972 -0.1015 -0.0176  0.0259
    1W        W40908  24.860   2.019   0.609 -0.0798 -0.1086  0.1809
    1W        W40909   4.995  24.964   0.021  0.0204  0.1367 -0.0638
    1W        W40910   3.652  15.751   6.729  0.1273  0.2106 -0.1794
    1W        W40911  14.657  19.433   0.557  0.2315 -0.1363  0.0012
    1W        W40912   8.308   1.546  10.143 -0.0408 -0.1371 -0.2186
    1W        W40913   6.999   5.332   9.304 -0.0677 -0.0074  0.3564
    1W        W40914   2.051  18.806   9.700 -0.0584  0.0086  0.0972
    1W        W40915   0.959  22.565   1.814 -0.1952  0.0347 -0.0381
    1W        W40916   8.429  24.862   8.644  0.0439 -0.3104  0.1824
    1W        W40917  20.851  16.742   0.023 -0.3532  0.1115 -0.3536
    1W        W40918  17.326   0.521   0.255  0.2462 -0.3614  0.0534
    1W        W40919   3.408  19.278   6.899 -0.0794 -0.1494  0.1059
    1W        W40920  26.868  25.583   8.427  0.1150 -0.0247 -0.1616
    1W        W40921  27.551  12.156   1.851  0.1303 -0.1488 -0.0441
    1W        W40922   8.728  21.756   7.403  0.1039  0.5358 -0.0099
    1W        W40923  23.136  21.950   7.428  0.3754 -0.1454  0.2565
    1W        W40924   7.051  26.595   9.932  0.0546  0.1031  0.1322
    1W        W40925  24.171  25.334   9.612  0.2119  0.2832 -0.3143
    1W        W40926  22.828   8.217   8.940  0.2169  0.1076 -0.1378
    1W        W40927  26.237   0.743   1.051  0.0048 -0.4231  0.1879
    1W        W40928   6.569   6.038   8.885 -0.1066 -0.2062 -0.0546
    1W        W40929  22.830  17.000   2.605  0.3110 -0.0716  0.0466
    1W        W40930   9.449  25.575   0.403  0.1166 -0.1396 -0.0121
    1W        W40931  23.211   5.341   8.801  0.1550  0.0229  0.1754
    1W        W40932   0.308   9.984   7.890 -0.1307  0.1244  0.2539
    1W        W40933   8.872   0.471   1.531 -0.1939  0.0086 -0.1493
    1W        W40934   8.676  21.379   2.627  0.0286  0.1803 -0.0915
    1W        W40935  11.777  21.446   8.266 -0.1286 -0.2137 -0.1379
    1W        W40936  21.908   8.431   1.166 -0.2155 -0.1557  0.0648
    1W        W40937  21.790  17.675   0.247  0.0568  0.2147 -0.0576
    1W        W40938  19.923   1.125   8.932 -0.0476 -0.0272 -0.0718
    1W        W40939   3.371   3.122   9.676 -0.1438 -0.2286  0.1860
    1W        W40940   1.073  23.667   6.808  0.1587 -0.1732  0.0825
    1W        W40941  26.290   9.492   7.902 -0.0039  0.1068  0.2601
    1W        W40942  20.194  10.476   1.645  0.0630  0.0275 -0.0563
    1W        W40943   6.024  19.373   0.396  0.1105  0.0431  0.0014
    1W        W40944  11.218  24.595   9.930  0.2017  0.1472 -0.2269
    1W        W40945  15.399   2.462   8.808 -0.0320  0.1596  0.0186
    1W        W40946   0.260  20.141   8.878 -0.0396 -0.1098 -0.0016
    1W        W40947  15.889  24.685   7.669 -0.2133 -0.3044 -0.2915
    1W        W40948  20.842  27.009   9.577 -0.3515 -0.0581 -0.1501
    1W        W40949  20.720  11.519   3.013  0.1273  0.1956  0.2845
    1W        W40950   8.591  27.507   1.907 -0.0418 -0.0694  0.0199
    1W        W40951  17.733  27.334   7.890  0.0192  0.0535  0.1344
    1W        W40952   8.704   7.447   9.883 -0.2314 -0.0747 -0.2665
    1W        W40953  24.859  22.527   7.506  0.0648 -0.0343 -0.1823
    1W        W40954  12.782  21.152  10.320  0.0435 -0.0726 -0.1242
    1W        W40955  25.566  23.433   8.594  0.0921  0.1337  0.0837
    1W        W40956  22.533   0.381   0.800 -0.0066  0.0644  0.1707
    1W        W40957   6.283  26.490   7.226 -0.1428  0.0999 -0.1959
    1W        W40958   0.151  23.619   1.994  0.0936 -0.1270  0.0587
    1W        W40959   2.866   6.535  10.051 -0.0400  0.2157  0.1150
    1W        W40960  27.956   3.550   7.208 -0.1317 -0.1685  0.0099
    1W        W40961  15.371   5.843   0.424  0.1098  0.1240 -0.0899
    1W        W40962   4.283  15.761   1.190 -0.2092 -0.1549  0.0073
    1W        W40963  24.820  21.773   6.148 -0.1718  0.0941  0.0618
    1W        W40964   6.274  11.583   0.581  0.0898 -0.2380  0.1244
    1W        W40965  20.882   0.941   8.983 -0.2295 -0.0311 -0.1211
    1W        W40966  27.025   8.480   0.605  0.1014 -0.0453  0.2729
    1W        W40967  23.041   8.514   8.631 -0.0402 -0.0477 -0.0581
    1W        W40968  15.871   7.558   1.847  0.0563 -0.3762 -0.1028
    1W        W40969   9.739   5.731   0.071 -0.1808 -0.0165 -0.1441
    1W        W40970  20.944  21.816   7.579  0.5079 -0.3437 -0.3810
    1W        W40971  12.804  18.183   9.541  0.3034 -0.2658 -0.3724
    1W        W40972   8.048   6.237   9.796 -0.2486  0.0389 -0.0665
    1W        W40973   0.706  26.486   9.502  0.2232 -0.2478  0.2248
    1W        W40974  13.277  26.733   8.474 -0.1870  0.0662 -0.1392
    1W        W40975  23.971  21.114   6.657  0.0381 -0.3781  0.0545
    1W        W40976   0.905  12.347   0.462 -0.3387 -0.3495 -0.0989
    1W        W40977  18.425   6.204   1.825  0.1088  0.0433 -0.1624
    1W        W40978  19.388  20.613   9.878 -0.3903 -0.2300  0.1981
    1W        W40979  17.340  22.086   9.800  0.0883  0.1981  0.4198
    1W        W40980   6.964  27.079  10.013  0.0828  0.0306  0.0135
    1W        W40981  21.139  14.589   7.238 -0.0850  0.1834 -0.1873
    1W        W40982  24.376   2.115   0.550  0.4951  0.0121 -0.1621
    1W        W40983  19.804   4.674   0.895 -0.4279  0.1211 -0.0075
    1W        W40984  14.702  24.624   2.591  0.1340  0.2796  0.0589
    1W        W40985   6.197  24.903   1.690  0.0748 -0.0894 -0.1282
    1W        W40986  27.977  20.513   0.974 -0.0325  0.1833 -0.0031
    1W        W40987  26.464  23.073   2.048  0.1339  0.0446  0.0423
    1W        W40988  16.217   7.514   1.005  0.2566  0.0194  0.2521
    1W        W40989   1.999   0.398   0.324  0.3616  0.4361  0.0486
    1W        W40990  11.855   6.453   1.148  0.0363 -0.0291 -0.1663
    1W        W40991   1.623   8.212   8.274  0.0919  0.0373  0.3389
    1W        W40992   4.596   0.578   1.412 -0.0282 -0.2398 -0.2871
    1W        W40993  24.160  21.131   0.477  0.1004 -0.2086  0.2198
    1W        W40994  13.178  20.393   2.943  0.1018  0.0205  0.0932
    1W        W40995   8.518   4.960   0.076  0.1825  0.1155  0.0843
    1W        W40996   0.943  28.011   9.535  0.0666  0.3203 -0.1101
    1W        W40997  16.803  13.887   9.256 -0.1177  0.0268 -0.1316
    1W        W40998  15.542  23.940   0.957 -0.1564  0.0231  0.0856
    1W        W40999   6.609  27.157   1.245 -0.1743  0.0470 -0.3163
    1W        W41000  27.959  10.824   6.395  0.1184  0.1102  0.0207
    1W        W41001   6.116  11.748   7.558  0.0749  0.0719  0.0494
    1W        W41002   6.605  11.163   0.537  0.1302 -0.0560 -0.3039
    1W        W41003   3.284   9.551   2.236 -0.0840 -0.3315  0.1711
    1W        W41004  19.407   0.087   1.938  0.1998  0.3770 -0.0968
    1W        W41005  17.973  19.795   9.033  0.3834 -0.1402  0.1143
    1W        W41006   8.970   6.127   2.537  0.2562  0.0302 -0.1268
    1W        W41007   1.720  26.489   6.358 -0.0597  0.4360  0.2184
    1W        W41008   7.141  25.743   7.270 -0.0207  0.1592 -0.0333
    1W        W41009  21.636  13.698   7.124 -0.2498 -0.0415  0.2857
    1W        W41010  11.388  27.965   1.350  0.2188  0.0697 -0.0961
    1W        W41011   9.934  19.840   3.638 -0.0317  0.2120  0.0257
    1W        W41012  15.674   6.433   8.285 -0.2396  0.1222 -0.2232
    1W        W41013  25.270  22.945   0.438 -0.0562  0.0953 -0.1747
    1W        W41014   1.043   5.504   6.092  0.4737  0.0763 -0.0998
    1W        W41015   6.091  21.862   0.983 -0.1782 -0.2315 -0.0146
    1W        W41016   3.891   9.402   1.553 -0.0433  0.0283  0.0637
    1W        W41017  25.284  18.878   7.507 -0.1021  0.2577  0.2187
    1W        W41018  22.360  22.841   7.904  0.1003  0.0390 -0.0594
    1W        W41019   5.254  19.807   3.620  0.3148  0.2950  0.6489
    1W        W41020  27.603  14.074   9.717  0.0787  0.2072  0.1082
    1W        W41021   0.137  18.006   7.692  0.4641  0.0663  0.2163
    1W        W41022  21.423  27.572   8.729  0.0292 -0.1541 -0.4504
    1W        W41023  25.360  25.844   9.467  0.1580  0.1176  0.0514
    1W        W41024  19.174  17.321   2.578  0.0552  0.2795 -0.2896
    1W        W41025  21.108  15.454  10.053  0.4395  0.0497 -0.0513
    1W        W41026  23.705  16.012   0.661 -0.1767  0.0827 -0.1268
    1W        W41027  25.479  14.551   7.446 -0.3852 -0.0734 -0.1389
    1W        W41028   2.493  13.888   7.023  0.1751  0.0641 -0.2344
    1W        W41029  23.284  19.848   9.011  0.0368  0.0023 -0.2564
    1W        W41030   7.986  26.651   2.902  0.2487 -0.0764 -0.0102
    1W        W41031  13.352   0.329   8.478  0.0811  0.0097  0.0829
    1W        W41032  15.308  16.926   1.242  0.0519  0.0347 -0.0658
    1W        W41033  18.360   7.135   1.140  0.0073  0.0138  0.0394
    1W        W41034  13.668  12.809   9.397  0.1662  0.0862  0.1988
    1W        W41035  22.058  21.719   7.052 -0.0055 -0.1739  0.0658
    1W        W41036  13.547  18.722   9.888 -0.2549 -0.1860 -0.4701
    1W        W41037   1.962  11.774   8.567  0.0959 -0.3893  0.0739
    1W        W41038   7.836  25.997   0.814  0.1891 -0.0288  0.3096
    1W        W41039  11.410  23.435   9.599 -0.0239  0.0694 -0.0571
    1W        W41040  17.157  15.780   3.932 -0.2192  0.2343  0.1045
    1W        W41041   0.017  17.406   6.321  0.0696  0.0619  0.1771
    1W        W41042  12.480  20.812  10.156  0.2961 -0.0632 -0.3305
    1W        W41043  19.108  15.842   1.845  0.0427  0.1121  0.0097
    1W        W41044  16.256  25.862   1.351  0.2404 -0.1404  0.1485
    1W        W41045  19.823   5.891   1.145  0.0512  0.1404 -0.0013
    1W        W41046  22.680  16.977   3.350 -0.1774 -0.0561  0.0780
    1W        W41047   4.227  19.306   9.904 -0.1414 -0.2308  0.1117
    1W        W41048  24.002  15.200   9.730 -0.1132 -0.0772  0.0655
    1W        W41049  19.615  15.992   7.953 -0.0655 -0.1849 -0.0251
    1W        W41050   3.076  18.060   0.956 -0.2301  0.0243  0.1783
    1W        W41051  13.459  21.823   2.247 -0.0233  0.0911 -0.0102
    1W        W41052   3.122  20.472   7.113  0.3503  0.0805 -0.1532
    1W        W41053  25.473  11.182   8.031  0.3405  0.2756 -0.1688
    1W        W41054  19.849  11.358   8.394  0.0467 -0.0052  0.0810
    1W        W41055  20.154   5.728   3.199  0.0753 -0.1952 -0.3887
    1W        W41056   8.240  14.850   2.987 -0.2732  0.3553  0.1479
    1W        W41057  14.470   1.619   1.380  0.0019  0.1277 -0.3186
    1W        W41058   3.938   7.466   8.330  0.1132 -0.2146  0.1945
    1W        W41059   8.558   1.219   0.909 -0.0681  0.0514 -0.1122
    1W        W41060   8.056  22.235   9.748 -0.1397  0.0264 -0.0861
    1W        W41061  11.013  20.479   0.190 -0.0398  0.2236 -0.0777
    1W        W41062  16.469  11.784   1.590  0.1608 -0.1113  0.0274
    1W        W41063  15.428  18.836   1.518  0.0747 -0.0686 -0.0264
    1W        W41064  24.529  17.808   7.756  0.6033  0.2497 -0.1603
    1W        W41065  26.222  16.712  10.180 -0.0328  0.1131  0.2592
    1W        W41066   6.547  19.169   7.390  0.1133 -0.1010  0.0639
    1W        W41067   1.219  24.727   9.682  0.2179 -0.1545 -0.3145
    1W        W41068  15.329   8.999   9.534  0.1491  0.2697  0.2282
    1W        W41069  26.326  15.732   7.171  0.2992  0.0478 -0.0986
    1W        W41070  21.469  26.949   9.525 -0.3099 -0.1365  0.0359
    1W        W41071  14.832   2.292   9.529  0.2986  0.0080 -0.1440
    1W        W41072   5.020  23.086   0.782 -0.1246  0.0077 -0.1093
    1W        W41073  16.000  18.872   9.348 -0.0457 -0.0205 -0.2364
    1W        W41074   0.668  23.956   1.207  0.1729  0.0446 -0.0512
    1W        W41075  25.257  24.549   9.891 -0.0847  0.3003  0.1209
    1W        W41076  13.821   9.258   7.663  0.0887 -0.2731 -0.0132
    1W        W41077  17.559  20.643   2.922 -0.0025 -0.1539 -0.0860
    1W        W41078  24.325   4.327   8.325  0.0122 -0.0848 -0.3811
    1W        W41079   3.406   3.165   1.561  0.1535 -0.1004 -0.2153
    1W        W41080  24.218  16.979   8.996 -0.1204 -0.0500 -0.1548
    1W        W41081  26.209  14.829   1.937  0.0727  0.2896  0.4035
    1W        W41082   1.153  18.049   7.377 -0.0593 -0.1716  0.1108
    1W        W41083  22.113  25.578   2.037 -0.1922 -0.2044 -0.0300
    1W        W41084  12.242  18.100   2.199 -0.1648 -0.1722  0.0261
    1W        W41085  26.431  27.716  10.218 -0.0182  0.1633 -0.1172
    1W        W41086  17.969  26.647   9.841  0.0015  0.2610  0.0045
    1W        W41087  26.576   0.071  10.296  0.0356  0.1173  0.0558
    1W        W41088   0.752   1.134   0.786 -0.0494  0.0232  0.0682
    1W        W41089  11.483   3.605   2.746 -0.2593 -0.2540  0.3400
    1W        W41090  15.208  25.547  10.153 -0.0233  0.1654 -0.1788
    1W        W41091   1.842  26.749   7.905  0.0501  0.0507  0.2753
    1W        W41092  10.955   9.233   1.257 -0.0365 -0.0667 -0.0374
    1W        W41093   9.832  18.522   3.152 -0.2256 -0.0609  0.1535
    1W        W41094   6.165   6.419   0.707  0.2922 -0.1637  0.0917
    1W        W41095   1.126  16.284   8.532 -0.1689  0.1066  0.3522
    1W        W41096  11.335  15.190   3.390 -0.0183 -0.0340  0.2356
    1W        W41097   0.095  16.564   7.788 -0.1718  0.1354  0.1641
    1W        W41098   8.455  20.848   8.794 -0.0738  0.2772  0.0996
    1W        W41099   1.493  22.558   8.861 -0.1365  0.2579  0.1533
    1W        W41100   0.335  25.018   8.267 -0.2173 -0.1286 -0.3448
    1W        W41101  24.210  10.697   0.992 -0.3111 -0.0551 -0.0504
    1W        W41102  22.418  25.433   8.402  0.0278  0.2053  0.4383
    1W        W41103  26.033  23.369  10.314 -0.1036  0.1940 -0.0774
    1W        W41104  16.991   4.577   7.336  0.0332 -0.0924 -0.1709
    1W        W41105  16.572   8.326   0.668 -0.2573 -0.1136  0.1172
    1W        W41106  15.125  11.301   7.653 -0.0443  0.1855 -0.1129
    1W        W41107  14.661   3.702   1.775 -0.3632  0.2115 -0.1671
    1W        W41108  10.399   8.835   8.275  0.0303 -0.0716 -0.0034
    1W        W41109  22.841   7.697   7.572  0.0181 -0.0049  0.1111
    1W        W41110  21.359  13.363   8.340  0.0981  0.0993 -0.1320
    1W        W41111   9.714   2.581   8.510  0.1403 -0.0115  0.0771
    1W        W41112  19.897  12.345   0.573  0.2583 -0.1853  0.0414
    1W        W41113  24.120  25.654   0.680  0.2250  0.2693  0.3338
    1W        W41114   7.206  26.125   1.711  0.1677  0.3562 -0.0038
    1W        W41115  18.382  16.993   9.289  0.3588  0.1936  0.0625
    1W        W41116  17.256  10.232   3.474 -0.1723  0.0216 -0.3367
    1W        W41117   9.426   5.964   7.979 -0.2543 -0.0826 -0.3395
    1W        W41118   1.467  12.446  10.224  0.0394 -0.1088 -0.3525
    1W        W41119   5.929  12.756   9.393 -0.2622 -0.0791  0.2465
    1W        W41120   9.148  21.371   7.267 -0.1526 -0.0261  0.0561
    1W        W41121  11.412  26.626   8.061  0.1466  0.0902 -0.1197
    1W        W41122  18.511   9.075   2.896  0.3565 -0.0121  0.1191
    1W        W41123  22.268   5.802   3.163  0.1425 -0.0375 -0.4718
    1W        W41124   2.713   6.450   1.781 -0.1351 -0.1852 -0.2964
    1W        W41125   2.909   1.290   0.249  0.0898 -0.1658 -0.0000
    1W        W41126   8.461  10.717   3.953 -0.0977  0.2087 -0.0273
    1W        W41127  11.656  24.850   6.745 -0.0384 -0.0774 -0.1349
    1W        W41128  12.094   1.305   0.281 -0.2569 -0.1271 -0.1653
    1W        W41129   9.721   5.996   0.486  0.1868 -0.1422 -0.0999
    1W        W41130  14.849   9.527  10.344 -0.1322 -0.0950 -0.1031
    1W        W41131  12.793   0.836   1.549 -0.3570  0.0280  0.2767
    1W        W41132   9.692  24.127   0.059 -0.2386  0.0703  0.1348
    1W        W41133  21.751   7.668  10.283 -0.0078  0.0310  0.2003
    1W        W41134   7.882   1.846  10.241  0.1679 -0.1213  0.2964
    1W        W41135  24.384   1.101   0.876 -0.1205  0.1229  0.0199
    1W        W41136  14.023  26.082   7.644 -0.1979 -0.0551  0.3431
    1W        W41137   2.422  23.778   7.966  0.3388  0.2922 -0.1905
    1W        W41138   4.723   1.852  10.047 -0.0300  0.0452  0.1644
    1W        W41139  18.729   7.181   1.492 -0.2743  0.0889  0.1339
    1W        W41140  23.020  26.401   2.168 -0.1296 -0.2999 -0.1218
    1W        W41141  13.125   7.206   9.679 -0.0690  0.1305 -0.0962
    1W        W41142  13.360   2.892  10.223 -0.0153 -0.0638  0.1588
    1W        W41143  15.370  25.201   0.523  0.1236 -0.1572  0.2102
    1W        W41144   7.117   5.834   9.067 -0.2776  0.2014 -0.0020
    1W        W41145   0.315   6.414  10.305 -0.0499 -0.0419 -0.0197
    1W        W41146  25.609  24.389   0.280  0.0689 -0.0534 -0.1907
    1W        W41147  25.635   9.010   2.062 -0.1237  0.0194  0.1631
    1W        W41148   9.133   7.728   0.949 -0.2004  0.3083  0.2143
    1W        W41149   7.358  22.130   2.774  0.1234  0.0320  0.1716
    1W        W41150   8.546   5.371  10.025 -0.0503  0.0253 -0.1880
    1W        W41151  24.467   1.111   7.406 -0.1195 -0.1187  0.0301
    1W        W41152  16.191   8.471   6.878 -0.0191 -0.0667 -0.2846
    1W        W41153   3.868  24.967   7.206  0.0875 -0.2931 -0.3681
    1W        W41154  11.546  17.657   8.923 -0.0293 -0.2796  0.1995
    1W        W41155  18.751   3.745   1.229 -0.3039 -0.1329  0.0675
    1W        W41156  10.059   1.419   2.321 -0.2031 -0.2171 -0.1289
    1W        W41157   2.206   8.686   0.767  0.3683 -0.1199  0.0078
    1W        W41158  10.081  16.846   9.083  0.3465  0.1201  0.1524
    1W        W41159  20.783  24.693   1.460  0.0257  0.1109  0.2822
    1W        W41160  27.341  16.718   0.979  0.1305  0.3362 -0.0751
    1W        W41161   2.396  24.285   7.855 -0.1596  0.0545 -0.0464
    1W        W41162   0.407   3.810   0.364 -0.1854 -0.2682 -0.1370
    1W        W41163   1.585   8.919   7.025  0.0887 -0.0712  0.1621
    1W        W41164  16.037  26.294   1.775 -0.1479 -0.3190  0.2165
    1W        W41165  27.436  26.719  10.127 -0.1618 -0.0983  0.2997
    1W        W41166  11.916   5.897   2.427 -0.3676  0.0087 -0.2387
    1W        W41167  12.304   6.784   0.269 -0.0965 -0.2173 -0.1075
    1W        W41168  25.804  17.155   1.374  0.3311 -0.0960  0.2081
    1W        W41169  27.926  20.765   8.553  0.1634  0.1961 -0.1032
    1W        W41170  21.897  24.806   9.105  0.1975 -0.1087  0.4316
    1W        W41171   6.310  21.645   9.012  0.0261  0.0763 -0.0076
    1W        W41172  18.058   5.340   8.089 -0.1196  0.0051  0.3985
    1W        W41173  12.995   4.661   3.094  0.1666 -0.0741 -0.1145
    1W        W41174  25.938   7.564   2.423  0.2085  0.1364 -0.2014
    1W        W41175   0.342  20.397  10.174  0.0238  0.0184 -0.0013
    1W        W41176  26.612   7.239  10.302  0.2839  0.2217 -0.3066
    1W        W41177  22.948  20.621   9.201  0.0968  0.2552  0.0482
    1W        W41178  27.569  24.271   1.921  0.0661  0.0146  0.0021
    1W        W41179   5.626   9.483   2.276  0.2526  0.2361 -0.4163
    1W        W41180   2.851   7.615   7.802 -0.1631 -0.1954  0.0456
    1W        W41181   4.556  25.565   8.895  0.2683 -0.1870 -0.0419
    1W        W41182  17.325  12.590   2.856  0.1027 -0.0910 -0.0084
    1W        W41183  26.278  24.667   9.867  0.0324  0.2893  0.1087
    1W        W41184   8.515  11.258   1.088 -0.2604 -0.0458  0.3627
    1W        W41185  13.907  12.262   9.897 -0.0663 -0.3273 -0.1319
    1W        W41186  25.821  18.894   7.537 -0.1287 -0.1475  0.2700
    1W        W41187   6.818  26.410   2.032 -0.2952  0.2499  0.0210
    1W        W41188  16.164  26.751   2.227  0.2079 -0.0180  0.0625
    1W        W41189  27.792  14.219   2.001  0.1039  0.2888  0.0099
    1W        W41190   0.708  14.686   2.445 -0.0762 -0.3537 -0.1142
    1W        W41191  11.466   1.950   8.554 -0.2568 -0.0240  0.1227
    1W        W41192  20.762   8.260   9.823 -0.2821 -0.0693 -0.1106
    1W        W41193  15.657   6.358   2.825  0.2686 -0.5827 -0.1091
    1W        W41194  17.456  16.229   2.121 -0.0889 -0.4103 -0.1364
    1W        W41195  11.960  16.915   8.564  0.0923  0.0496  0.2025
    1W        W41196   4.519   4.679   7.011 -0.0279  0.0916 -0.1134
    1W        W41197  23.256  21.106   9.259  0.3739 -0.1499  0.0837
    1W        W41198   5.750   9.741   7.736  0.0701 -0.4865  0.1073
    1W        W41199  16.771  15.786   9.265 -0.0759  0.2705  0.1222
    1W        W41200  14.001  18.954   1.200  0.5150  0.1217 -0.1703
    1W        W41201  25.599  14.236   0.034  0.0601 -0.0191 -0.0182
    1W        W41202  13.335   0.892   8.353  0.0423  0.1365 -0.0237
    1W        W41203  10.722  15.021   0.565  0.2379  0.0924  0.0414
    1W        W41204  21.216  17.414   3.279 -0.2584 -0.1285 -0.2820
    1W        W41205  21.774  16.022   1.515 -0.0303 -0.0777  0.1122
    1W        W41206  16.503   4.644   9.543  0.1609  0.1961  0.0526
    1W        W41207   5.479  17.956   0.424  0.0288  0.2800  0.0645
    1W        W41208   8.713   4.401   7.987  0.2938 -0.1444  0.1728
    1W        W41209  10.607  10.078   9.437 -0.0438 -0.0875  0.0659
    1W        W41210  25.731  12.560   8.235  0.0275  0.2798  0.5263
    1W        W41211  14.024   8.158   1.289  0.1246 -0.3252  0.0750
    1W        W41212   9.453  11.055   3.431 -0.0318 -0.0564  0.0868
    1W        W41213  13.484  27.412   7.414  0.0842  0.0786 -0.1664
    1W        W41214  19.443  13.066   8.569  0.1755  0.2094 -0.0716
    1W        W41215  23.012  18.214   9.523 -0.1447 -0.5177 -0.2051
    1W        W41216  19.798   6.590   0.052 -0.0642 -0.1891 -0.3338
    1W        W41217  22.760  16.242   7.666  0.0121  0.0028  0.0183
    1W        W41218  21.695   3.732   8.691 -0.1120  0.0149  0.0487
    1W        W41219   8.703  23.727   9.884  0.1521 -0.1211 -0.2049
    1W        W41220  10.252  16.522   2.768  0.1051 -0.0677 -0.4818
    1W        W41221  12.249  16.386   9.249 -0.2221 -0.1258 -0.2511
    1W        W41222  20.762  14.578   1.684 -0.1401 -0.0965  0.3280
    1W        W41223  10.790  27.025   0.635 -0.2184 -0.0511  0.0013
    1W        W41224  22.618   1.976   6.562 -0.0169 -0.4003 -0.0078
    1W        W41225   2.994   4.850   8.659  0.1597 -0.0666  0.0986
    1W        W41226   2.970  21.228   6.358  0.1466 -0.3732  0.1396
    1W        W41227  11.487  11.189   3.823  0.0256 -0.0714 -0.1514
    1W        W41228   1.774   9.834   2.017  0.1053 -0.0162 -0.0252
    1W        W41229  21.135   0.227   9.876 -0.0355 -0.1397  0.4594
    1W        W41230   2.415   5.053  10.185  0.3450 -0.0773 -0.4311
    1W        W41231   1.819  15.137   8.572 -0.0712  0.0655 -0.3750
    1W        W41232   6.230  19.986   1.007  0.0519  0.2219 -0.1191
    1W        W41233  10.127  17.722  10.180 -0.0902 -0.0727  0.0565
    1W        W41234   9.316  24.405  10.215  0.2552 -0.3071  0.0735
    1W        W41235   6.663  25.794   7.454 -0.0007  0.0218  0.1009
    1W        W41236  28.016   4.693   1.410  0.0395  0.1177  0.2641
    1W        W41237   1.082  23.038   8.024 -0.0187 -0.2787 -0.1690
    1W        W41238   9.732  18.433   2.123  0.0522 -0.3181  0.2998
    1W        W41239  14.543  18.357   1.642  0.2390 -0.0473 -0.2000
    1W        W41240  19.810  27.183  10.295  0.3602  0.1384 -0.2206
    1W        W41241  15.789  10.267   9.798  0.0785 -0.0146 -0.1767
    1W        W41242   0.691  10.896   6.860 -0.1168 -0.2537  0.2113
    1W        W41243   2.900   5.443   8.443  0.1167  0.0923 -0.1117
    1W        W41244   7.826  12.069   7.139 -0.0304 -0.0308  0.1521
    1W        W41245  21.704  20.307   8.426 -0.0337  0.0215 -0.0483
    1W        W41246  12.565   0.223   0.743  0.3980  0.0756 -0.2699
    1W        W41247   6.812   6.628   2.196 -0.1579 -0.1900 -0.1788
    1W        W41248  13.919  11.295   4.061 -0.4035 -0.0189 -0.1057
    1W        W41249  22.809   2.176   7.036 -0.1447 -0.0479 -0.2421
    1W        W41250  12.183  13.164   7.628  0.1020  0.0779  0.2404
    1W        W41251  22.892  12.688   3.250 -0.1549 -0.1642  0.0769
    1W        W41252   0.733  16.567   7.558 -0.0085 -0.2119  0.0317
    1W        W41253   9.673  16.186   2.122  0.1094  0.2264 -0.0063
    1W        W41254  21.428  27.961   2.554 -0.1214  0.1617  0.4463
    1W        W41255   1.820  24.423   2.195 -0.2252  0.5511  0.1121
    1W        W41256  22.322  22.302   2.164  0.0353 -0.1357 -0.1044
    1W        W41257   1.881  13.905   7.006 -0.1644 -0.0595 -0.1883
    1W        W41258  26.225  27.246  10.110 -0.2426  0.0095  0.1373
    1W        W41259   4.972  20.701   2.958  0.2365  0.1417  0.1052
    1W        W41260  26.895   1.703  10.334 -0.1606 -0.0253  0.2427
    1W        W41261   9.274  14.033   0.522  0.0459  0.1762 -0.1547
    1W        W41262  24.179  16.113   2.165 -0.0557  0.0368 -0.0263
    1W        W41263  19.780   1.954   9.399 -0.0051  0.1152  0.0542
    1W        W41264  13.232  19.777   8.982  0.0148 -0.1863 -0.2733
    1W        W41265   9.803   0.320   1.555  0.1700 -0.1564 -0.1694
    1W        W41266  19.376  12.467   3.636 -0.1958  0.1257  0.0797
    1W        W41267   4.844   9.398   9.876 -0.1106  0.0458  0.3108
    1W        W41268  11.270   2.070   2.448  0.2391 -0.4875 -0.0846
    1W        W41269  11.373   1.910   1.537 -0.0502 -0.0258  0.0071
    1W        W41270   3.698  15.160   7.290  0.3856 -0.1058 -0.0088
    1W        W41271  15.992   4.846   7.018  0.0488  0.2283  0.0562
    1W        W41272  13.957   1.526  10.027 -0.0295 -0.0737  0.1047
    1W        W41273   5.977  20.237   3.720  0.0550 -0.1235  0.1317
    1W        W41274   2.815  13.422   0.817 -0.0681 -0.0776  0.2248
    1W        W41275  27.835  11.470   7.651  0.0281  0.2373 -0.1854
    1W        W41276  25.056  23.106   8.952  0.0160  0.0054 -0.0289
    1W        W41277   8.357   9.716   8.473  0.0408 -0.0267  0.0384
    1W        W41278  12.379  19.081   7.157 -0.1681  0.0952 -0.1202
    1W        W41279   6.398   0.144   8.695 -0.0631 -0.2014 -0.0705
    1W        W41280   8.496  15.169   2.695 -0.3308  0.3249 -0.1473
    1W        W41281  20.477  27.668  10.239  0.1281  0.3784 -0.1651
    1W        W41282  13.710  27.447   9.492  0.0098  0.1188  0.2806
    1W        W41283   0.900   1.508   1.721  0.0566  0.2068 -0.2499
    1W        W41284  20.400   7.992   2.513 -0.3706 -0.0458 -0.1005
    1W        W41285  14.364  26.365   0.040 -0.1970  0.1962 -0.1952
    1W        W41286  17.341  11.352   0.780 -0.0756 -0.0193 -0.1017
    1W        W41287  15.773  14.267   2.115  0.0656 -0.2793  0.0601
    1W        W41288   5.832  17.430   1.162  0.0355 -0.2344 -0.1105
    1W        W41289   0.003   7.024   1.388 -0.5432 -0.1924  0.1458
    1W        W41290  22.475  21.167   9.877  0.0131 -0.1205  0.5156
    1W        W41291  18.599   7.949   7.542 -0.0053 -0.2884 -0.2044
    1W        W41292  12.930  24.252  10.283  0.0734  0.1419 -0.4767
    1W        W41293  22.817   6.712   0.207  0.0913 -0.1962 -0.0143
    1W        W41294   6.581  10.473   8.878  0.1718  0.2830 -0.1236
    1W        W41295  15.539  18.252   8.619 -0.1210  0.0819 -0.2214
    1W        W41296  14.238  21.811   7.941  0.2875  0.2258 -0.0411
    1W        W41297   3.424   5.834   6.982  0.3505  0.1661  0.0572
    1W        W41298  16.781  11.436   2.868  0.2008  0.1180  0.1792
    1W        W41299  26.002  18.189   0.408  0.1111  0.1186 -0.2294
    1W        W41300  15.331   7.621   2.048 -0.4507 -0.0461 -0.2373
    1W        W41301  22.454  17.483   3.339 -0.0986  0.0026  0.0176
    1W        W41302  28.017  14.109  10.027 -0.1419  0.2113 -0.2015
    1W        W41303  21.425  20.321   8.926  0.1143 -0.4369  0.1897
    1W        W41304  17.238  15.781   9.914 -0.0675 -0.0412  0.4312
    1W        W41305  11.321   5.203   8.520  0.1210 -0.2338 -0.0840
    1W        W41306   9.295   8.430   2.317 -0.0303  0.0816  0.0571
    1W        W41307  23.203   9.448   2.006  0.0522  0.1059  0.0876
    1W        W41308   9.363   3.035   9.310  0.3985 -0.2351  0.0277
    1W        W41309   0.005  18.250   8.146  0.0409  0.0784  0.2215
    1W        W41310  26.223   6.452   2.285  0.1087  0.1165 -0.3320
    1W        W41311   4.283   8.477   9.151 -0.0411 -0.1247  0.2341
    1W        W41312  18.198   1.454   8.776  0.0425 -0.2242  0.0314
    1W        W41313   4.846  10.456   2.790  0.0625 -0.0741  0.0020
    1W        W41314   9.553  27.531   2.087  0.1287 -0.2688 -0.0088
    1W        W41315   0.039  13.149   9.257  0.0652  0.2568 -0.0018
    1W        W41316   5.438  19.022   7.854  0.3893 -0.1300  0.0889
    1W        W41317  11.701  13.780   3.760 -0.0913  0.0821  0.1408
    1W        W41318   6.313  24.347   1.785 -0.2203 -0.0336  0.0162
    1W        W41319   7.726  10.434   3.209  0.1888  0.0214  0.2424
    1W        W41320  15.896   1.323   7.930 -0.3046 -0.2560  0.1165
    1W        W41321  26.291  13.351   8.327  0.1598  0.1061 -0.3678
    1W        W41322  23.310  12.650   7.932 -0.3407 -0.0463 -0.0702
    1W        W41323   6.297   2.130   2.312 -0.1147  0.3038 -0.3331
    1W        W41324   5.849  21.771   7.855  0.4156  0.3225 -0.2331
    1W        W41325  21.951   7.723   0.503  0.0350  0.1539  0.0902
    1W        W41326  25.719   9.152   0.437  0.4488 -0.3080 -0.1328
    1W        W41327  15.762   0.380   2.914 -0.0195  0.3099  0.1295
    1W        W41328  25.566  10.000   0.395  0.0819 -0.0285 -0.2120
    1W        W41329  14.049  27.874   1.123  0.3829  0.0601 -0.3696
    1W        W41330   5.458  20.888   8.684  0.0072  0.1035  0.0671
    1W        W41331  22.362  19.134   0.615 -0.4788 -0.2854 -0.0699
    1W        W41332  22.245  10.921   7.344 -0.0503 -0.0343 -0.0741
    1W        W41333  15.196  26.027   0.610 -0.0124  0.0487 -0.2108
    1W        W41334  25.709  16.757   9.329  0.0768  0.5609 -0.0953
    1W        W41335  25.768   2.176   7.384  0.0486  0.1105 -0.2544
    1W        W41336  23.812   4.898   6.671 -0.0474 -0.0165  0.2833
    1W        W41337  14.300   4.948   9.655 -0.0984 -0.1014  0.0878
    1W        W41338  22.916   2.781   9.524  0.2106  0.0285 -0.2368
    1W        W41339  10.258  15.253  10.102  0.1391 -0.1717 -0.0995
    1W        W41340   5.954  25.981   9.310  0.3804  0.0480 -0.0147
    1W        W41341  23.139   7.811   2.512  0.3587  0.1321  0.0379
    1W        W41342   5.786   0.137   1.234  0.3398  0.0864  0.1028
    1W        W41343  13.761   9.038   9.511 -0.3582 -0.0237 -0.0709
    1W        W41344  22.167  11.482   1.712 -0.0989  0.2026 -0.1571
    1W        W41345  15.927   2.420   0.508  0.2760  0.0380 -0.1760
    1W        W41346   3.506  20.935   0.738 -0.0250  0.2481 -0.4530
    1W        W41347   2.688  20.047   3.549  0.1058  0.3427  0.1149
    1W        W41348  10.732  17.556   8.759  0.2139 -0.1158  0.0251
    1W        W41349  13.470  11.526   0.107 -0.0966  0.0336 -0.0776
    1W        W41350  12.196  13.993   0.826 -0.0416  0.2231  0.2891
    1W        W41351  14.893  23.987   7.214  0.1376  0.1442 -0.3014
    1W        W41352  11.094  11.510  10.000  0.1732  0.0092 -0.2828
    1W        W41353   0.954  17.843   1.569  0.0280  0.0025  0.0900
    1W        W41354  12.099   2.061   7.836  0.0529 -0.0402  0.0503
    1W        W41355   3.864  26.341   9.167  0.0991 -0.2005 -0.3637
    1W        W41356  17.131  21.593   8.469  0.0100 -0.1653 -0.1763
    1W        W41357  25.848  26.868   8.993 -0.1363 -0.2489  0.1436
    1W        W41358  14.717  12.460   2.731 -0.0899 -0.1896 -0.2436
    1W        W41359   5.463   3.061   9.294 -0.1481  0.4235  0.3781
    1W        W41360  11.835  18.302   3.312  0.1268 -0.0623  0.3058
    1W        W41361  17.605   0.342   2.939  0.0129 -0.1602  0.0657
    1W        W41362  17.108  10.106  10.307  0.0584 -0.0190 -0.0281
    1W        W41363   1.785   1.876   7.028 -0.3398  0.2138 -0.1143
    1W        W41364  22.073  23.815   9.433 -0.0562  0.4685  0.1043
    1W        W41365   0.342  22.450   9.206 -0.0229 -0.0310 -0.0676
    1W        W41366   6.893   3.606   8.488 -0.1407  0.2075  0.0798
    1W        W41367  18.350   8.364   0.591 -0.0638 -0.4677  0.1238
    1W        W41368  20.095  20.624   1.890 -0.2809  0.2256 -0.3730
    1W        W41369  27.147   6.497   7.418 -0.2221 -0.0464  0.1313
    1W        W41370  23.850  26.273   0.422 -0.0377 -0.2344  0.0898
    1W        W41371   3.995  13.565   9.976 -0.1711 -0.0435  0.0654
    1W        W41372  11.006   1.909   3.875 -0.1322  0.2500 -0.0611
    1W        W41373  12.703  17.999   2.338 -0.2564 -0.0993 -0.0050
    1W        W41374  24.181   3.720   0.477  0.0956 -0.1172  0.1804
    1W        W41375  27.288   2.527   7.188 -0.1157  0.1296  0.1897
    1W        W41376  12.513  27.937   0.447  0.0116 -0.0314  0.0130
    1W        W41377  12.671   7.728   2.830  0.3871  0.0857  0.1876
    1W        W41378   5.346  11.859   0.045 -0.0039 -0.0884 -0.0839
    1W        W41379  11.830  20.570   3.012 -0.2166  0.3881  0.0882
    1W        W41380  14.968  19.432   8.679 -0.0618 -0.1451  0.1473
    1W        W41381  24.757   8.733   1.761 -0.0349 -0.1761  0.1353
    1W        W41382  24.503  10.184   9.286  0.0829  0.4121 -0.0761
    1W        W41383  27.784  17.853   0.320 -0.0439 -0.1527  0.0982
    1W        W41384  19.887   2.475   8.636  0.1566  0.0158  0.1377
    1W        W41385  11.781  23.018   1.950 -0.2006 -0.2086 -0.2466
    1W        W41386  11.383  17.872   1.788  0.2962  0.2420 -0.3391
    1W        W41387  11.988   1.924   8.811 -0.4220  0.0187 -0.2456
    1W        W41388  23.387  26.913   8.953  0.3559 -0.1542  0.0810
    1W        W41389  25.467  10.242   9.453  0.0711 -0.0173  0.1641
    1W        W41390   4.123  16.645   2.396  0.0927  0.0171  0.0677
    1W        W41391  27.949  17.153   2.759 -0.4260 -0.0764  0.0831
    1W        W41392  26.078  24.807   0.695  0.0653  0.0715  0.0853
    1W        W41393  23.277   7.472   7.606 -0.1761  0.0424 -0.2467
    1W        W41394   7.772  25.379   1.802  0.0472 -0.0659  0.1591
    1W        W41395  17.092   1.084   8.622 -0.1583  0.4104 -0.2634
    1W        W41396   0.671  22.860   6.288  0.0647 -0.1393 -0.0822
    1W        W41397  12.915   7.039   1.921  0.0303 -0.0581 -0.2382
    1W        W41398   8.615   4.188   9.588 -0.0655 -0.0208  0.1521
    1W        W41399  21.412  10.146   0.909  0.0088  0.0266  0.3516
    1W        W41400  17.511  27.212   1.283  0.0095  0.1772  0.2518
    1W        W41401  14.114  14.109   9.821  0.1616 -0.0711  0.1192
    1W        W41402  21.796  10.656   1.451  0.1717 -0.1043  0.1407
    1W        W41403  10.989   3.218  10.081  0.0103 -0.1669 -0.0265
    1W        W41404   1.357  10.709   1.667  0.0744 -0.0251 -0.0380
    1W        W41405  26.411   5.855   1.686  0.2839  0.1079  0.1059
    1W        W41406  25.573  22.418   2.024 -0.1576 -0.2615 -0.0722
    1W        W41407  12.035  23.503   0.871  0.1254 -0.0161  0.0692
    1W        W41408  10.270  17.950   3.594  0.1478  0.2969  0.0655
    1W        W41409   1.633   8.563   7.899  0.1068 -0.0009 -0.1474
    1W        W41410  24.326  19.844   7.777  0.2555  0.0395 -0.3725
    1W        W41411  18.402   0.355   8.800  0.0985  0.3500 -0.2050
    1W        W41412  18.182   6.849   9.502  0.2016 -0.4998 -0.0707
    1W        W41413  25.433  25.781   3.036  0.2610 -0.0905  0.1707
    1W        W41414  11.833  26.792   7.276  0.4789  0.5395  0.2147
    1W        W41415  16.487  10.376   1.753 -0.0506  0.2347  0.1201
    1W        W41416  17.175  10.416   3.019  0.1020 -0.0539  0.0021
    1W        W41417  20.307  23.111   2.738  0.0106 -0.2087 -0.1210
    1W        W41418  20.680  23.717   0.745 -0.4184 -0.2822 -0.0687
    1W        W41419   9.409  14.210   1.799 -0.0292  0.1045  0.0492
    1W        W41420   7.222   6.790   1.939  0.1003 -0.2228  0.1926
    1W        W41421   1.785  14.293  10.232  0.2055  0.2097  0.0166
    1W        W41422   5.953  24.043   8.102 -0.2881 -0.2923 -0.0162
    1W        W41423   8.787  25.156   8.823 -0.0322  0.1107 -0.2168
    1W        W41424   2.331  10.038   1.299 -0.1932 -0.1046 -0.0234
    1W        W41425  16.585  24.162   8.350 -0.0499 -0.0850 -0.1347
    1W        W41426  18.570  25.869   2.226 -0.0599  0.0238 -0.4239
    1W        W41427  23.387  14.210   9.548 -0.0070  0.0377 -0.3602
    1W        W41428  14.958   7.738   2.710  0.0955  0.0031  0.1441
    1W        W41429  13.888  19.214   3.184  0.4494  0.2431 -0.0019
    1W        W41430  10.100   9.030   0.943 -0.0393 -0.0116 -0.0811
    1W        W41431  25.919  21.385   8.851  0.0215 -0.2953  0.1092
    1W        W41432  21.698  13.170   7.354  0.1176  0.0827  0.1789
    1W        W41433  17.133   8.810   3.341  0.0738  0.0804  0.0526
    1W        W41434  22.115  22.581   1.266  0.1550  0.0976  0.0290
    1W        W41435  19.350   2.589  10.104  0.0110  0.0894 -0.0074
    1W        W41436   1.626  24.289   8.080  0.1927 -0.1654 -0.2501
    1W        W41437  12.685  24.333   7.378 -0.4330 -0.1764 -0.0326
    1W        W41438  23.470  19.623   0.397  0.1484  0.1528 -0.0202
    1W        W41439  23.667  24.893   1.007 -0.0101  0.0407  0.2690
    1W        W41440  13.236  17.934   0.825 -0.0629  0.0712  0.2052
    1W        W41441   4.632  16.643   2.453 -0.3813  0.2030  0.1608
    1W        W41442  26.724  11.467   3.464 -0.1458  0.0711  0.0882
    1W        W41443   6.432  16.738   8.635 -0.5624  0.1460 -0.2677
    1W        W41444  25.386   6.229   7.882  0.2157 -0.1037 -0.0338
    1W        W41445  19.637  10.667   7.929 -0.0628 -0.1018  0.3846
    1W        W41446  12.445  16.002   8.261  0.0867  0.0165 -0.3013
    1W        W41447  10.639   8.919   8.685 -0.1452  0.3268 -0.0053
    1W        W41448  26.121  11.990   7.405  0.1278  0.0179 -0.1753
    1W        W41449  21.888  19.663   9.974 -0.0593  0.0132  0.2016
    1W        W41450  22.406   1.409   0.769 -0.3701  0.0495  0.0261
    1W        W41451  23.737  20.952   0.804  0.0302  0.2582 -0.0550
    1W        W41452   7.539  16.130   1.738  0.1341  0.1576 -0.2120
    1W        W41453  19.740  10.402   2.378 -0.0499  0.2960 -0.0718
    1W        W41454   2.181  21.671  10.181 -0.1572  0.2506 -0.2925
    1W        W41455  26.656   6.811   0.206  0.0803 -0.1239 -0.2881
    1W        W41456  11.507  11.624   9.764  0.0029 -0.1323 -0.0516
    1W        W41457   7.578  11.973   1.557 -0.1808 -0.0728  0.2487
    1W        W41458  17.775   9.939   1.052 -0.1888  0.2194 -0.1870
    1W        W41459  23.346  26.578   2.617  0.0117  0.1332 -0.1137
    1W        W41460  23.246  15.447  10.238 -0.1569  0.1953 -0.2150
    1W        W41461  26.260  23.797  10.020  0.0747 -0.4728 -0.1296
    1W        W41462  13.498   4.488   4.261  0.2514  0.1179  0.2285
    1W        W41463  15.788  19.080   8.249  0.0088  0.0709  0.2789
    1W        W41464   8.499  16.127   8.309  0.0987 -0.2524 -0.1226
    1W        W41465   5.216  21.872   9.770 -0.1233  0.0040  0.0673
    1W        W41466   0.491   9.474   0.350 -0.0874 -0.1762  0.0635
    1W        W41467   4.927  22.229   8.224 -0.0887 -0.0988 -0.0927
    1W        W41468  17.738   5.213   7.201  0.1506 -0.3381 -0.3001
    1W        W41469  15.903   0.835   7.353  0.1379 -0.2838  0.3692
    1W        W41470  23.497   9.266   9.845 -0.0399 -0.2131  0.2798
    1W        W41471   2.767   8.562   7.239 -0.2693 -0.2317 -0.0588
    1W        W41472  19.202   3.618   1.444 -0.1148  0.0633 -0.0956
    1W        W41473  28.003   5.581   7.883 -0.0569  0.0754  0.3304
    1W        W41474   6.196  18.516   7.131  0.0802 -0.3907  0.0916
    1W        W41475  27.316  21.385   9.295 -0.1054  0.1296  0.3133
    1W        W41476  20.098  24.126   9.566 -0.1950 -0.2754 -0.4036
    1W        W41477  26.698  17.046   1.895 -0.0574 -0.0031 -0.2112
    1W        W41478   2.371  27.617   2.942  0.0307 -0.0445 -0.1452
    1W        W41479  11.651  22.395  10.234 -0.3378 -0.1812 -0.1003
    1W        W41480   7.928   5.739   9.496  0.0315 -0.1051  0.1830
    1W        W41481  21.818  16.574   1.655  0.2467 -0.4558  0.0061
    1W        W41482   9.345   7.507   1.937  0.3422  0.0830  0.0634
    1W        W41483   2.514   8.440   9.316  0.0750  0.3272 -0.0233
    1W        W41484  23.204  12.806   1.439  0.1670 -0.1318 -0.4399
    1W        W41485  11.079   2.249   8.854  0.1969  0.0823 -0.0135
    1W        W41486  10.955  27.750   7.884  0.0821  0.0626  0.0701
    1W        W41487  20.668  24.055   1.097  0.1566 -0.0499 -0.0679
    1W        W41488   6.684  14.047   7.122 -0.0494 -0.4411  0.1289
    1W        W41489  22.130  25.042  10.073 -0.1253 -0.0832 -0.1539
    1W        W41490  21.245  19.110   7.734  0.3872 -0.0757 -0.2633
    1W        W41491   6.753   6.209   1.981 -0.0767  0.0550  0.0054
    1W        W41492  24.121  27.897   0.123  0.1931  0.1829  0.0884
    1W        W41493   7.469  22.730   1.824  0.0020  0.1623 -0.2065
    1W        W41494  15.351  24.027   7.104 -0.2963 -0.0580  0.1225
    1W        W41495  12.577  24.553   0.973 -0.0146 -0.1374  0.1893
    1W        W41496  12.831  27.155  10.339  0.4652 -0.0237 -0.0751
    1W        W41497   5.177  19.242   9.780 -0.1152 -0.0298  0.0450
    1W        W41498   4.436   7.867   1.027 -0.0931  0.0618 -0.1153
    1W        W41499  25.959   1.712   0.580 -0.1196  0.1373 -0.0306
    1W        W41500  22.825  18.219   2.602  0.2293 -0.1002  0.1055
    1W        W41501   6.733  19.352   0.710  0.0777 -0.0538  0.1515
    1W        W41502  10.764   2.782  10.203 -0.3573  0.1429  0.1118
    1W        W41503  14.847   4.065   1.299  0.0491 -0.1966  0.2731
    1W        W41504  19.827  27.993   3.370 -0.2079 -0.0342  0.0394
    1W        W41505  27.992   8.773   7.451 -0.0182  0.3687 -0.0568
    1W        W41506  16.865   7.048   2.266 -0.2057  0.2181  0.2077
    1W        W41507  10.262   5.211   9.332 -0.0920 -0.1911  0.0259
    1W        W41508  17.653  23.070   9.277  0.1125 -0.0948  0.0896
    1W        W41509  10.610  16.484   2.244 -0.1138  0.2804 -0.0921
    1W        W41510  18.419   7.704   9.832  0.0416 -0.0092  0.0945
    1W        W41511  18.638  17.880  10.290  0.0750  0.0842 -0.0645
    1W        W41512   0.487  22.696   8.774  0.3435 -0.0994  0.0692
    1W        W41513   5.626  11.414   3.752  0.4814  0.1276 -0.0858
    1W        W41514  10.999  17.664   9.653 -0.2043 -0.1844 -0.0893
    1W        W41515  25.562   3.301   1.357  0.0600 -0.0849  0.2019
    1W        W41516  28.062  10.474   2.605  0.2287  0.0625  0.1201
    1W        W41517  16.249  24.607   8.961 -0.0293  0.0062  0.1979
    1W        W41518  22.531  22.146   9.516  0.0541  0.0085  0.0640
    1W        W41519   9.730  14.099   0.800 -0.0278 -0.0132  0.1334
    1W        W41520   9.725  23.260   2.390  0.3190  0.0111  0.3356
    1W        W41521   8.073   9.457   8.891  0.0166 -0.1450  0.0095
    1W        W41522   6.798  25.064   0.636  0.0354  0.1577 -0.0746
    1W        W41523  21.396  25.216   2.606 -0.2145 -0.1798  0.2653
    1W        W41524  20.840  11.784   1.968  0.4100  0.2478 -0.0876
    1W        W41525  22.373  19.930   7.943 -0.1724 -0.3803  0.2418
    1W        W41526  10.569  12.517   2.827  0.0262 -0.0469 -0.0084
    1W        W41527   3.934  22.474   0.210 -0.1846 -0.0381  0.1976
    1W        W41528  11.611  19.742   1.984  0.0260 -0.2542 -0.2321
    1W        W41529  17.999  16.358   8.801  0.0677 -0.0283 -0.1045
    1W        W41530  21.791  26.379   2.860  0.0192  0.0674  0.0323
    1W        W41531  21.693  20.489   3.771 -0.2611 -0.0765  0.1950
    1W        W41532  16.817  13.694  10.351 -0.3421 -0.1380  0.3212
    1W        W41533  28.004  17.870   9.764  0.0633  0.0298  0.4059
    1W        W41534   7.463  14.295   8.613 -0.1041  0.2915  0.0890
    1W        W41535  22.299  21.392   1.338  0.1560  0.2154 -0.3141
    1W        W41536  12.908   4.196   3.010 -0.2018  0.0197  0.0263
    1W        W41537  18.275   7.111   2.750  0.0977  0.0064  0.0021
    1W        W41538   6.699   9.370   9.575  0.1619  0.3458  0.1067
    1W        W41539  24.198  14.843   8.066  0.0238 -0.1203  0.1595
    1W        W41540  22.271   5.826   9.792 -0.0748 -0.0356  0.1079
    1W        W41541  14.949  25.560   7.892  0.1255 -0.1732  0.0231
    1W        W41542  25.598  13.532   2.198 -0.0162 -0.1242 -0.0385
    1W        W41543  15.255  19.295   8.243  0.0349 -0.0254 -0.1927
    1W        W41544  21.194  14.861   1.007 -0.1637  0.0010  0.2353
    1W        W41545  13.546   0.837   2.048  0.2494  0.0144 -0.0156
    1W        W41546  11.565  17.809   8.436 -0.0103  0.0061  0.2594
    1W        W41547   4.455   8.579   6.310 -0.0539 -0.3283  0.1182
    1W        W41548  12.562  10.298   8.108 -0.1148  0.2222  0.1964
    1W        W41549   8.465  27.083   9.823 -0.1144 -0.0610  0.0019
    1W        W41550   1.327  12.576   7.487  0.0341 -0.1898 -0.1139
    1W        W41551  13.062  23.279   1.113  0.0273 -0.1810 -0.2662
    1W        W41552  23.008  15.237   7.792 -0.3008 -0.1385  0.1060
    1W        W41553   4.054   7.461   5.886  0.0158 -0.0480 -0.2510
    1W        W41554  26.266  23.103   7.205 -0.1563 -0.0517 -0.0507
    1W        W41555   1.122   9.655   7.983  0.3290  0.0066 -0.2772
    1W        W41556   1.399   2.244   7.072 -0.2361 -0.2078 -0.1099
    1W        W41557  17.291  15.351  10.150  0.0175 -0.1774  0.2218
    1W        W41558   3.554  16.082   2.227 -0.0687 -0.4478 -0.0375
    1W        W41559   8.265  21.549   7.486  0.0756  0.3351 -0.2462
    1W        W41560  15.765   0.698   1.670  0.0892 -0.1291 -0.1360
    1W        W41561   6.431   3.314   9.301 -0.2242  0.0337 -0.2551
    1W        W41562  24.399   1.562   1.263 -0.1590  0.0534  0.0104
    1W        W41563  24.712  21.747   8.273 -0.2291  0.0892 -0.0577
    1W        W41564  11.974  27.563   9.934  0.0243 -0.0907  0.3018
    1W        W41565   6.366  26.343   2.841 -0.0838 -0.1256  0.1365
    1W        W41566  27.489  14.264   9.239  0.0682 -0.2299 -0.1459
    1W        W41567  12.490  19.052   8.674 -0.0294  0.1809  0.1323
    1W        W41568  16.174   5.891   9.999  0.0275 -0.1681  0.1039
    1W        W41569   5.957  15.409   1.862 -0.1983 -0.2987  0.3628
    1W        W41570   9.328  23.720   7.367 -0.4339  0.0883  0.0692
    1W        W41571   9.565  13.557   1.038  0.5213 -0.1756  0.1256
    1W        W41572  13.938  22.472   7.762 -0.1957  0.2937 -0.0351
    1W        W41573   4.294  14.102   9.239  0.1001 -0.0524  0.0201
    1W        W41574   5.730   1.425   7.471  0.0005 -0.0781 -0.3637
    1W        W41575  22.557   0.843   8.092  0.1379 -0.2871 -0.1165
    1W        W41576   9.613   0.149   1.025  0.0350  0.0999 -0.3785
    1W        W41577  23.330  25.347   2.040 -0.0357  0.1748  0.2498
    1W        W41578  20.413   6.601   2.266  0.0158 -0.1282 -0.0871
    1W        W41579  26.838  28.003   9.936 -0.0709  0.1647 -0.2645
    1W        W41580  17.350   0.687   0.823 -0.2746 -0.4194  0.3431
    1W        W41581  13.409  18.553   8.159  0.2189 -0.0055 -0.1597
    1W        W41582  21.879  12.999   7.837 -0.0386  0.0074  0.0359
    1W        W41583   6.857  26.289   7.299 -0.1484 -0.0631 -0.1493
    1W        W41584  12.275  17.891   3.173 -0.2329 -0.0530 -0.2685
    1W        W41585   0.781   5.829   9.372 -0.1241  0.0508 -0.0925
    1W        W41586   5.481  12.544   7.848  0.1567  0.0615 -0.2888
    1W        W41587  12.053   4.991   2.630  0.0042  0.0397  0.3173
    1W        W41588  21.746  11.601  10.210  0.3470 -0.1582 -0.1128
    1W        W41589   9.955  23.187   9.490  0.2247 -0.0991 -0.1541
    1W        W41590  17.000  12.866   9.874 -0.1938  0.2303  0.0887
    1W        W41591  12.223   3.696  10.024 -0.0508 -0.2002  0.0280
    1W        W41592  24.716   0.580  10.270 -0.0958 -0.0764 -0.0525
    1W        W41593   1.644  26.097   6.788 -0.1676 -0.3923 -0.1322
    1W        W41594  18.189   0.254   7.709  0.0501  0.1574 -0.2097
    1W        W41595  18.927   2.861   0.899 -0.0692  0.1899 -0.2387
    1W        W41596   4.982   0.541   2.327 -0.3635  0.1448  0.0552
    1W        W41597  14.965  27.353   9.584  0.5070 -0.2244 -0.0850
    1W        W41598  21.999   4.654   8.489 -0.3086 -0.0939  0.2395
    1W        W41599  22.004   0.194   7.921 -0.0157 -0.2374 -0.1704
    1W        W41600  22.037  15.164   7.624  0.0382  0.2891  0.1835
    1W        W41601  15.367  15.112   8.955 -0.0252 -0.1690 -0.0809
    1W        W41602  26.296   7.898   8.574  0.0653  0.2149  0.1594
    1W        W41603  12.948   0.486   8.198  0.1777  0.2209  0.3599
    1W        W41604  19.419  10.794   1.061 -0.1005  0.1484  0.1894
    1W        W41605  10.111  11.805   8.377  0.1469 -0.4835  0.0683
    1W        W41606   0.104  24.687   9.431  0.4870 -0.0151 -0.1299
    1W        W41607   6.302   8.724   2.907  0.3470  0.0672  0.0689
    1W        W41608  19.527   5.498   7.710  0.5712  0.0046 -0.1626
    1W        W41609   1.792   6.453   0.704 -0.1984 -0.0906  0.1294
    1W        W41610  15.848  10.372   0.658  0.0523 -0.2113 -0.2189
    1W        W41611  18.034  27.935   1.105  0.2021 -0.0799  0.0279
    1W        W41612  18.767  14.873   9.143  0.1947  0.1816  0.3178
    1W        W41613  27.167   4.743   9.593  0.4254  0.1664 -0.0705
    1W        W41614   0.316   5.126   2.308 -0.2328  0.1442  0.2963
    1W        W41615   4.190  24.091   6.707  0.2630 -0.1855 -0.2539
    1W        W41616   4.342  21.319   9.922  0.0052  0.3060 -0.3818
    1W        W41617  17.289   1.336   9.019 -0.1963  0.0264 -0.0848
    1W        W41618  10.924   5.823   2.879  0.0965 -0.2493  0.1198
    1W        W41619  24.494   0.186   8.308 -0.1033 -0.1605 -0.0652
    1W        W41620  21.765   1.955   1.412 -0.2509 -0.3688 -0.3101
    1W        W41621  22.819   7.777   1.353  0.3889 -0.1280 -0.0090
    1W        W41622  20.437  10.946   7.869  0.1123  0.2302 -0.1363
    1W        W41623  22.191   9.899   1.093  0.0299  0.0644  0.1600
    1W        W41624   3.327   2.460   8.298  0.0341  0.0959  0.3365
    1W        W41625  11.307  27.246   7.795  0.1462 -0.2219 -0.0020
    1W        W41626  21.590   4.875   7.978  0.0573 -0.2235  0.1532
    1W        W41627   9.131   0.459   7.459 -0.2516 -0.1289  0.3160
    1W        W41628   3.169   7.343   9.687 -0.0180 -0.1059 -0.2413
    1W        W41629  15.279   0.894   2.848  0.0189 -0.3683  0.2074
    1W        W41630  12.630  20.575   3.074  0.1359  0.1032 -0.0017
    1W        W41631  20.902  17.949   0.753 -0.1522  0.2424  0.0192
    1W        W41632   0.283   7.145   1.816 -0.3695 -0.2865 -0.0331
    1W        W41633  19.470  18.595   7.322  0.0519  0.1651 -0.2051
    1W        W41634  13.377   0.038   9.777 -0.0682  0.0202  0.0021
    1W        W41635   2.350   3.729   7.825 -0.0414  0.1576 -0.0674
    1W        W41636   7.045  25.284   2.179 -0.1678 -0.0269  0.1441
    1W        W41637   3.422  12.037   8.407 -0.0667 -0.1719  0.2899
    1W        W41638  17.738   5.234   1.699  0.2682  0.0271 -0.0162
    1W        W41639  18.995  27.503   2.134 -0.0374 -0.1013 -0.0373
    1W        W41640  15.370   8.521   1.009 -0.0737 -0.0955  0.1236
    1W        W41641  23.268  10.992  10.354 -0.2193 -0.4610 -0.3401
    1W        W41642  21.251  11.735   0.086 -0.3624 -0.2987 -0.0325
    1W        W41643   9.664  13.446   4.014 -0.1862 -0.1628  0.0002
    1W        W41644   7.963  14.135   9.506 -0.0529 -0.0985 -0.0925
    1W        W41645  13.373   3.081   2.722  0.2893 -0.0993  0.1194
    1W        W41646  23.424  24.167   1.399  0.1821 -0.1197 -0.0629
    1W        W41647  16.562   5.989   0.500 -0.1536 -0.2319 -0.0522
    1W        W41648   0.107  13.766   7.618 -0.0397 -0.0477 -0.2957
    1W        W41649   0.143  17.786   8.559  0.0445  0.2089 -0.0260
    1W        W41650  14.619  26.091   0.516 -0.4118 -0.0146  0.1166
    1W        W41651  24.896  20.675  10.223  0.0179  0.0379 -0.3886
    1W        W41652  19.671   3.176   3.337  0.0916 -0.0653  0.1567
    1W        W41653   7.009  23.708   0.607 -0.0243  0.1527 -0.0089
    1W        W41654  24.966  17.978   2.657 -0.0332 -0.1510 -0.0464
    1W        W41655  15.992  27.774   7.906  0.0381 -0.1957  0.0588
    1W        W41656  18.985  11.474   0.838 -0.1512  0.0536 -0.0454
    1W        W41657  27.339  11.716   1.461  0.0457 -0.2894 -0.0554
    1W        W41658   1.184   7.938   6.496  0.1619  0.0256  0.0639
    1W        W41659   5.660   4.210   0.634  0.1750  0.0400 -0.1365
    1W        W41660  20.682  27.388   9.913 -0.0473  0.3336 -0.1931
    1W        W41661  19.810  27.424   7.488  0.1123 -0.0700 -0.0987
    1W        W41662   0.578  18.104   8.450 -0.0083 -0.0745 -0.0934
    1W        W41663   4.245   1.464   7.889  0.0287 -0.2714  0.1763
    1W        W41664  15.379   9.481   0.031 -0.1383  0.2275  0.1008
    1W        W41665  21.734   3.839   3.179  0.3295 -0.0189  0.1225
    1W        W41666  16.831  10.588   1.445  0.1211 -0.2730  0.3893
    1W        W41667  10.086  23.639   8.038  0.1145  0.5971  0.6239
    1W        W41668  17.646   8.737   8.058  0.4279  0.2301 -0.2949
    1W        W41669  17.213  23.023   1.975  0.2357  0.2234  0.1650
    1W        W41670  15.858  16.570   0.477  0.1165 -0.2629  0.0776
    1W        W41671  12.479   6.380   9.789 -0.4054  0.1111  0.0985
    1W        W41672   0.049  10.244   8.465  0.2102 -0.0483  0.1633
    1W        W41673   5.552  24.819   1.184 -0.1769 -0.1137 -0.1919
    1W        W41674   4.625  12.230   3.190 -0.3345 -0.1563 -0.2038
    1W        W41675  19.290  17.358   4.107 -0.1566  0.2296  0.0784
    1W        W41676   1.314   3.500   6.190 -0.0444  0.0418  0.1218
    1W        W41677  19.219  14.923   7.465 -0.1643  0.2961  0.1142
    1W        W41678   4.916   0.567   1.841 -0.1083 -0.1512 -0.1159
    1W        W41679   3.829   2.397   7.523 -0.1532  0.3384 -0.0470
    1W        W41680  28.012   0.383   8.478  0.1067 -0.0261 -0.3747
    1W        W41681  18.408  23.924   1.625 -0.0029 -0.2443 -0.1893
    1W        W41682   0.556   3.420   9.885  0.2389  0.0711  0.1873
    1W        W41683   5.584  16.948   0.408 -0.1167  0.1486  0.0354
    1W        W41684  15.319   3.712   0.960 -0.2692 -0.1934  0.1083
    1W        W41685  15.930  25.415   8.849 -0.1299 -0.3421  0.1121
    1W        W41686  27.415   8.439   9.478 -0.2297  0.3386 -0.3866
    1W        W41687  27.438  12.084   0.516  0.0537 -0.2338  0.0049
    1W        W41688   1.789  26.341   8.672 -0.0106  0.0650 -0.2680
    1W        W41689  17.329   1.732   9.386 -0.4180 -0.0849  0.1184
    1W        W41690   7.021  18.601   9.847  0.1342  0.0693 -0.0888
    1W        W41691  27.591  23.721   0.273 -0.2042 -0.0518  0.0282
    1W        W41692  13.991  15.480   9.800 -0.2423  0.2680  0.0094
    1W        W41693  19.410  24.699   0.411  0.1752  0.4125 -0.3176
    1W        W41694  10.735  27.163   0.141 -0.0536 -0.1100 -0.3241
    1W        W41695   5.499   5.350   1.784 -0.1449  0.5546  0.0161
    1W        W41696  23.889  14.076   0.499  0.1431 -0.2248 -0.0614
    1W        W41697   4.992   5.261   8.269  0.1180  0.0377  0.3425
    1W        W41698  20.805  19.973   2.207  0.0416  0.1781 -0.0317
    1W        W41699  15.248  10.646   0.202  0.1762 -0.0604  0.4574
    1W        W41700   3.268  16.792   9.038 -0.0564 -0.1187  0.0076
    1W        W41701  20.724  25.595   2.518 -0.0741  0.1544  0.1292
    1W        W41702  27.614  27.874   9.274  0.0701 -0.4406 -0.0122
    1W        W41703  10.926  20.967   3.522  0.0602  0.0217 -0.2680
    1W        W41704  22.308   3.122   1.620 -0.0390  0.2456 -0.2134
    1W        W41705   6.686   0.382   8.398 -0.0226 -0.1409 -0.0302
    1W        W41706   5.890  22.470   9.953  0.3035  0.0965  0.1407
    1W        W41707  14.012  21.580  10.313  0.1289 -0.0734  0.2625
    1W        W41708  25.112  10.790   2.643  0.4288  0.0664 -0.0206
    1W        W41709   3.562  22.993  10.321 -0.0592 -0.2151 -0.0861
    1W        W41710  16.158  20.099   1.510 -0.3262 -0.0711  0.0686
    1W        W41711  27.777  11.480   0.061  0.0371 -0.2399  0.0759
    1W        W41712  21.674   7.201   7.113 -0.2091 -0.1104 -0.1067
    1W        W41713   2.222  15.883   1.067  0.1383  0.0308 -0.2397
    1W        W41714  25.158  15.687  10.261 -0.0148 -0.0514 -0.1149
    1W        W41715   2.630  10.829   6.704 -0.1740  0.0876 -0.0744
    1W        W41716  17.100   4.155   9.422  0.0914  0.0200  0.1590
    1W        W41717   8.749  10.197   0.864  0.0511  0.1770 -0.1274
    1W        W41718  23.176  25.095  10.326 -0.0935  0.0192 -0.1044
    1W        W41719  17.945  16.338   0.525  0.0940  0.0663 -0.0467
    1W        W41720  27.308  10.716  10.104 -0.0337 -0.1950  0.2778
    1W        W41721   6.434   5.544   9.840 -0.2668  0.1249  0.2280
    1W        W41722  22.452  23.493   0.951 -0.0843 -0.0132 -0.2434
    1W        W41723  25.872  14.237   8.769  0.0347 -0.1946  0.0049
    1W        W41724   9.522  14.199   2.329 -0.1064 -0.1681 -0.1014
    1W        W41725   3.421   9.532   7.620 -0.2523  0.0100  0.4355
    1W        W41726   2.547  14.269   9.140  0.0422 -0.0785  0.2933
    1W        W41727  19.128  24.937   0.080 -0.0409 -0.0132 -0.0973
    1W        W41728   2.035   9.438   9.340  0.4565  0.3676  0.1972
    1W        W41729  26.669   7.411   6.472 -0.0776 -0.1281  0.0763
    1W        W41730   1.707  25.660   6.575 -0.1709  0.1817 -0.2318
    1W        W41731  19.247  13.820   2.245 -0.0172  0.2835 -0.3753
    1W        W41732  14.099  12.113   1.952 -0.1745 -0.0046 -0.1535
    1W        W41733  24.341  20.624   5.864 -0.4887  0.0017 -0.3800
    1W        W41734  21.601  14.470   8.521  0.0053 -0.1495 -0.3561
    1W        W41735  20.949  24.645   2.341 -0.0921  0.1978 -0.2184
    1W        W41736  15.230   5.705   8.229  0.1658 -0.1205  0.3783
    1W        W41737  15.629   0.971   9.410  0.0517 -0.0718 -0.0387
    1W        W41738  18.655   9.869  10.059 -0.2778 -0.1311  0.1139
    1W        W41739   5.084   0.967   8.734  0.3258 -0.0459 -0.0544
    1W        W41740  19.663  17.375   1.185 -0.0477  0.4144 -0.1951
    1W        W41741  15.839   1.314   0.428 -0.0595  0.4177 -0.1030
    1W        W41742   2.537  14.488   2.504 -0.0726  0.1166 -0.1648
    1W        W41743   8.845   5.853   1.600  0.1118  0.0472  0.0681
    1W        W41744   0.927  18.839   7.425  0.0540  0.1234 -0.0322
    1W        W41745   6.910   0.171   1.203  0.1795  0.0274  0.0959
    1W        W41746  26.354  14.204   2.323 -0.0338  0.1553 -0.2637
    1W        W41747   3.425   2.996   2.640  0.4184 -0.0827  0.1874
    1W        W41748  11.953  12.779   8.805 -0.0886  0.3900 -0.0832
    1W        W41749   4.293  23.036   2.314  0.0221  0.0635 -0.0597
    1W        W41750  14.183  24.755   0.040  0.2331 -0.2246 -0.1232
    1W        W41751   9.644  25.069   7.096 -0.0191 -0.0425  0.2044
    1W        W41752  19.325  18.465   2.970  0.1571  0.0334 -0.1465
    1W        W41753  18.298  26.533   8.206 -0.2356 -0.1682 -0.0530
    1W        W41754  12.672  14.790   8.998 -0.1638  0.0100  0.0175
    1W        W41755  24.761   8.875   8.817 -0.0701  0.0540  0.0260
    1W        W41756  18.496   5.976   9.140 -0.0719  0.2819  0.1580
    1W        W41757   4.863   9.773   3.228 -0.2599  0.0124 -0.0345
    1W        W41758   9.130  14.485   8.562 -0.0522 -0.0441  0.1159
    1W        W41759   0.219  12.436   0.967 -0.3811 -0.0102  0.2446
    1W        W41760  21.278  25.902   0.310  0.0154  0.3996  0.1376
    1W        W41761  14.731  21.947   8.152  0.1104 -0.0139 -0.1653
    1W        W41762  23.246   3.098  10.275  0.1669  0.0113  0.1560
    1W        W41763  22.871   9.088   2.065  0.1269  0.1342  0.0113
    1W        W41764   7.451  22.281   8.982 -0.1648 -0.4929 -0.0276
    1W        W41765  12.963  12.207   1.579  0.0766 -0.0405 -0.2544
    1W        W41766   4.020  19.126   7.439 -0.1174 -0.1005  0.0228
    1W        W41767  26.007  11.554   0.639 -0.0588 -0.0214  0.2114
    1W        W41768  27.452  11.187   0.388  0.2089 -0.0309 -0.2345
    1W        W41769   9.650  21.983   2.809 -0.3011  0.1341  0.2623
    1W        W41770   3.906  26.342   9.859 -0.0805  0.0452 -0.0364
    1W        W41771  25.675  20.582   8.654  0.0668 -0.0523  0.2013
    1W        W41772  13.731  14.980   3.634  0.0929 -0.1812 -0.3136
    1W        W41773   7.152   7.404   7.532 -0.1397  0.1319 -0.0144
    1W        W41774  23.882   8.949   9.661 -0.2635 -0.0655  0.6487
    1W        W41775  10.363  10.755   0.571 -0.0183  0.1987  0.2695
    1W        W41776  21.248  17.426   8.216  0.2535 -0.0610 -0.1611
    1W        W41777   7.369   4.925   1.773 -0.4327 -0.1214 -0.1199
    1W        W41778   5.482   8.731   1.327 -0.1979  0.0014 -0.0240
    1W        W41779  22.595  15.947   1.179  0.0441 -0.0588 -0.2288
    1W        W41780  24.112  22.403   8.402  0.0295 -0.1484 -0.0871
    1W        W41781   6.484   8.185   7.075  0.0662  0.2590 -0.0510
    1W        W41782   0.049  12.231   9.993  0.1341  0.2026  0.0819
    1W        W41783   0.909   0.074   6.901 -0.0741  0.0869  0.1361
    1W        W41784   1.237  27.886   0.031  0.1504 -0.1646  0.2637
    1W        W41785  16.689  19.283   8.343 -0.0257 -0.1078  0.1173
    1W        W41786  13.824  18.365   9.051  0.1062  0.1054  0.0141
    1W        W41787  18.493  21.688   3.863  0.1312  0.1250 -0.0281
    1W        W41788   6.961  24.418   7.729  0.0907  0.2327  0.0396
    1W        W41789   2.057  26.392   9.997 -0.1767  0.0598  0.1721
    1W        W41790  24.825   8.323   2.161  0.2075 -0.0994  0.0995
    1W        W41791   5.541  16.447   1.079  0.0850 -0.2215 -0.0658
    1W        W41792   2.101  22.726   7.651  0.0717 -0.3604  0.1209
    1W        W41793  25.078   1.454   0.490 -0.0493 -0.2609 -0.0979
    1W        W41794  23.984  11.942   0.526 -0.0798  0.0141  0.3186
    1W        W41795   0.756  15.058   6.665 -0.0411  0.1125  0.1774
    1W        W41796  15.601   3.321   9.159 -0.1752 -0.0526 -0.0424
    1W        W41797   1.744  27.274   1.863 -0.0934  0.2964  0.0079
    1W        W41798  17.433   8.517   0.280 -0.1782  0.0187  0.0079
    1W        W41799  27.571  10.282   7.833  0.3199 -0.1987 -0.1569
    1W        W41800   2.055   3.706   0.614 -0.0720  0.2270 -0.1909
    1W        W41801  10.602   3.919   1.144 -0.3403 -0.0611  0.1749
    1W        W41802   5.774  19.823   4.125 -0.1463 -0.0701  0.3867
    1W        W41803  13.318  17.640  10.299 -0.0290 -0.1362  0.0060
    1W        W41804  14.670  17.582   0.247 -0.4243  0.4700 -0.1290
    1W        W41805   6.431   2.528   2.852 -0.1646 -0.1453  0.1308
    1W        W41806   3.997  21.529   2.566  0.1263  0.0811  0.1700
    1W        W41807  18.122  27.580   2.263  0.0464  0.1019 -0.2993
    1W        W41808  13.881  15.590   8.803 -0.1699  0.2163 -0.1133
    1W        W41809   7.709  24.876   1.733  0.2759  0.0826 -0.1994
    1W        W41810   1.631   1.205   7.924  0.0330  0.0755 -0.1043
    1W        W41811  15.350   5.881   1.789 -0.1590  0.2102  0.0448
    1W        W41812  14.638  16.160   0.684 -0.1666  0.0319  0.2336
    1W        W41813   8.348  24.719   9.218  0.0904  0.4922 -0.1495
    1W        W41814  12.254   2.887   0.959  0.2542 -0.1208  0.1106
    1W        W41815   8.522   1.306   9.193  0.0008 -0.0543 -0.2307
    1W        W41816  18.556  18.307   0.779 -0.0715  0.1340  0.1328
    1W        W41817  13.430  18.708   8.987  0.1109 -0.3479  0.0183
    1W        W41818  13.371  27.328   7.929  0.0006 -0.2353 -0.2436
    1W        W41819  25.791  10.606   8.693 -0.2694  0.0546  0.1485
    1W        W41820  26.105  18.031   8.804 -0.0031  0.0153 -0.0860
    1W        W41821  26.841  24.164   9.283  0.1557 -0.2506  0.0617
    1W        W41822  12.454  24.968   0.561  0.0768 -0.1731  0.2329
    1W        W41823  11.665  14.214   0.076 -0.1696  0.2787  0.0567
    1W        W41824  16.759   9.120   3.180  0.0504 -0.0025  0.0336
    1W        W41825  20.002  26.744  10.220 -0.0434 -0.1703  0.2558
    1W        W41826  24.565  19.396   1.979  0.0640 -0.0506 -0.1513
    1W        W41827   7.236  10.867  10.205 -0.2741  0.4688 -0.1160
    1W        W41828   2.007  14.694   6.833  0.1269  0.2098 -0.1431
    1W        W41829  19.415   9.900   7.798  0.0181  0.2961  0.0418
    1W        W41830  10.654   9.275   1.711  0.0067  0.1532 -0.1799
    1W        W41831  12.987   8.383   9.368 -0.2896 -0.2359  0.0219
    1W        W41832  23.587  17.558   3.000 -0.1325  0.3000  0.1975
    1W        W41833  22.801   4.037   2.865  0.0421  0.2294 -0.1623
    1W        W41834  17.431   9.333   1.822  0.1736  0.0931 -0.1691
    1W        W41835   1.262   4.395   6.574 -0.0133 -0.0614  0.1489
    1W        W41836   0.966  11.175   0.999 -0.2131 -0.2208  0.0869
    1W        W41837   2.214  28.115   8.453  0.0537 -0.2887 -0.1206
    1W        W41838  22.559  12.236   3.327 -0.0663 -0.0740  0.0110
    1W        W41839  13.419  14.707   9.309 -0.2034  0.2192  0.3589
    1W        W41840   7.991   0.500   0.497 -0.1485 -0.0534  0.0065
    1W        W41841  22.475  28.010   2.450  0.0586  0.2472  0.0553
    1W        W41842  16.234   2.285   8.987  0.0407  0.1359  0.0600
    1W        W41843  21.560  24.591   9.452 -0.1184 -0.0455 -0.1714
    1W        W41844   2.447   3.063   1.768 -0.0703  0.0705  0.0814
    1W        W41845   5.932  22.609   3.130  0.0013  0.1653  0.0925
    1W        W41846  16.650  17.564   1.306 -0.0125 -0.1193 -0.0816
    1W        W41847  17.588  10.879   8.413 -0.1322  0.1731 -0.1167
    1W        W41848   6.770  20.075   1.041  0.4973  0.1909  0.0732
    1W        W41849  24.574  10.660   9.487 -0.0507 -0.2010  0.1307
    1W        W41850  19.771   4.932   2.213  0.2410  0.0705 -0.4786
    1W        W41851  20.838  27.333   2.240  0.0012 -0.2307 -0.0788
    1W        W41852  11.043  16.140   0.335 -0.2331 -0.0988 -0.2486
    1W        W41853  26.031  22.514   0.063 -0.1430  0.4269 -0.3135
    1W        W41854  22.061   1.578   7.912  0.2869  0.3068  0.0719
    1W        W41855   2.273  11.207   1.990 -0.0098  0.0062 -0.4279
    1W        W41856   0.407  27.709   0.286  0.1156 -0.5127 -0.3271
    1W        W41857  10.153  23.849   1.860  0.1594  0.1208 -0.0797
    1W        W41858  16.409  14.584   1.669 -0.2420 -0.1663  0.1481
    1W        W41859  20.194  17.847   9.011 -0.1585 -0.0430  0.0638
    1W        W41860  26.666  28.040   8.420 -0.2394  0.0052  0.2860
    1W        W41861  23.674   0.925   1.056  0.0431  0.2320  0.3103
    1W        W41862   3.203  19.930   2.893 -0.0411 -0.0220  0.0379
    1W        W41863   1.183  22.563   9.536 -0.1880 -0.1187  0.2092
    1W        W41864   2.803  26.543   1.972  0.0757 -0.3957  0.1190
    1W        W41865  20.857   0.282   1.478  0.0294  0.0704 -0.2757
    1W        W41866   7.531  10.134   0.937  0.1972 -0.2876  0.2045
    1W        W41867  16.557   0.417   2.160  0.1849  0.0788  0.1905
    1W        W41868  18.785  14.681   0.767 -0.0166 -0.1635 -0.3741
    1W        W41869   0.623  16.229   8.415 -0.1486 -0.1863  0.3312
    1W        W41870  14.576  24.304   8.035 -0.2856 -0.0433 -0.3013
    1W        W41871  11.938  17.826   0.428  0.0275 -0.1173 -0.3021
    1W        W41872  14.135  12.142   4.352 -0.1116 -0.0594  0.2302
    1W        W41873  26.100  24.221   2.322  0.0942 -0.2119 -0.1450
    1W        W41874   4.319  13.683   0.306 -0.3614  0.2254 -0.1122
    1W        W41875  14.280  12.703   2.906  0.1580 -0.0568 -0.1278
    1W        W41876   3.014  17.558   9.681 -0.1184  0.1935  0.3227
    1W        W41877  10.581  10.075   2.276  0.0280  0.1685  0.1098
    1W        W41878  15.736  22.762   0.932 -0.2158 -0.2675 -0.1558
    1W        W41879   3.005  12.111   6.625 -0.1763 -0.0061 -0.0674
    1W        W41880   5.543   1.978   9.035  0.0231 -0.0339 -0.2421
    1W        W41881   9.635  24.843   0.711 -0.4895 -0.0378 -0.1875
    1W        W41882   8.989  13.639   0.329 -0.1682  0.1750  0.2193
    1W        W41883  16.354   9.780   2.893  0.0831  0.1074  0.1434
    1W        W41884  16.291  20.999   1.230 -0.1276 -0.2461 -0.1281
    1W        W41885  19.824  26.156   8.200  0.0465 -0.2005 -0.1401
    1W        W41886  18.550  25.663   8.066 -0.0081  0.0134  0.0598
    1W        W41887  23.767   8.048   7.278  0.0524  0.1046  0.0651
    1W        W41888  12.703  13.483   3.737 -0.0660 -0.0380  0.1328
    1W        W41889  19.925   3.682   1.650  0.1348 -0.2899 -0.1621
    1W        W41890  17.999   4.043   1.323  0.1530 -0.0220 -0.2025
    1W        W41891   3.235   6.501   7.766  0.1535 -0.2871 -0.4464
    1W        W41892  13.351  20.898   9.902 -0.1995  0.1283  0.1236
    1W        W41893  17.758  22.557   0.407 -0.1139 -0.3662  0.0389
    1W        W41894   0.266  24.447   2.191 -0.4011 -0.1060  0.5779
    1W        W41895  27.661  19.549  10.036 -0.0586 -0.2507  0.3275
    1W        W41896   3.624  11.552   2.680 -0.0455 -0.3194  0.1019
    1W        W41897  26.378   8.500   1.894  0.3466 -0.2159  0.0687
    1W        W41898   8.027  15.935   2.471  0.1552 -0.0509  0.1461
    1W        W41899  26.052  22.655   7.303 -0.0871 -0.0785  0.0039
    1W        W41900   9.154  11.683   1.206  0.1001  0.1502 -0.1173
    1W        W41901   4.328  10.062   7.690  0.1204 -0.1875  0.0193
    1W        W41902   2.482  26.956   2.179  0.2632  0.3884 -0.1658
    1W        W41903   1.392  20.162   1.883  0.3279 -0.0810  0.0698
    1W        W41904  12.269  20.527   8.183 -0.0552  0.0750  0.2861
    1W        W41905  17.486  15.106   8.592  0.3238  0.0580 -0.1330
    1W        W41906  10.485  23.986   7.900  0.3991  0.0374  0.3888
    1W        W41907  17.957  14.480  10.080  0.2680 -0.0135 -0.0984
    1W        W41908  19.765   2.580   8.130 -0.3870  0.2207 -0.3665
    1W        W41909   3.541  22.293   3.028 -0.3361  0.3289  0.1907
    1W        W41910  27.732   4.615   8.106  0.1536  0.1673 -0.0370
    1W        W41911  27.306   7.647   9.837 -0.2870  0.1386  0.1609
    1W        W41912  15.410  15.966   3.181  0.1280  0.0630 -0.0224
    1W        W41913   9.235  13.246   8.337  0.1463 -0.3059  0.0444
    1W        W41914  11.292   4.882   3.205 -0.1327  0.0896 -0.3073
    1W        W41915  22.670  21.964   7.617 -0.0295  0.2688 -0.2128
    1W        W41916  15.102  18.374   9.977  0.2001 -0.1296 -0.1432
    1W        W41917   8.930  22.444   8.154 -0.0732 -0.2541 -0.5225
    1W        W41918  26.852  11.793   2.522  0.0181 -0.2143  0.0097
    1W        W41919  19.046   9.102   0.760  0.4200  0.0134  0.0190
    1W        W41920  28.075   1.491   0.984  0.0761 -0.3226 -0.0656
    1W        W41921  14.250  19.265   6.950 -0.0386  0.1313  0.1729
    1W        W41922   0.248   5.254  10.027  0.1916 -0.0821  0.3087
    1W        W41923  19.567  15.185   9.600  0.1754  0.0044  0.1681
    1W        W41924  25.089   2.460   8.502  0.2394 -0.0034 -0.0580
    1W        W41925  18.790  17.542   7.951 -0.3247  0.1058  0.0537
    1W        W41926   5.998  20.082   8.940 -0.3864 -0.2370  0.0729
    1W        W41927  25.851  18.723   1.417  0.1725  0.1900 -0.0585
    1W        W41928   6.548  19.995   7.448  0.1368  0.2497  0.1579
    1W        W41929   8.841   7.924   0.012 -0.1247  0.0494  0.0339
    1W        W41930   5.230   8.191   0.568  0.1016 -0.0034 -0.0220
    1W        W41931  16.999  27.866   1.080 -0.3048  0.0279  0.1200
    1W        W41932   0.682  14.783   8.037 -0.0475  0.1258 -0.2922
    1W        W41933  23.177  19.546   9.416  0.1849  0.1695  0.1134
    1W        W41934  12.274   3.120   2.404  0.2484 -0.1515 -0.0432
    1W        W41935  17.112   3.899   1.872  0.1112 -0.1832  0.2283
    1W        W41936   1.930  10.659   7.226 -0.0878  0.0525 -0.0007
    1W        W41937  25.618   8.807   0.832  0.0721 -0.1052  0.0166
    1W        W41938  16.141  20.139   3.506  0.0743  0.2139  0.2047
    1W        W41939  11.460   6.249   0.886 -0.0376  0.1839 -0.1673
    1W        W41940   5.353  10.000   1.115 -0.2648  0.0038 -0.3178
    1W        W41941   9.733  20.287   3.030  0.2912  0.3322  0.2019
    1W        W41942  26.815   8.527   8.664 -0.0140  0.0959  0.0267
    1W        W41943  17.612  11.764   3.164 -0.0797  0.0450  0.1456
    1W        W41944  21.171   6.175   1.071 -0.2093  0.0009  0.2095
    1W        W41945  14.495  25.452   8.874  0.1596  0.1287  0.1847
    1W        W41946  24.671  27.011   2.424  0.2395 -0.0743 -0.3252
    1W        W41947  15.197  26.389   9.751  0.0214  0.3575 -0.0625
    1W        W41948   5.016  21.159   1.517 -0.0423  0.2233  0.0482
    1W        W41949  23.419   3.557   9.588 -0.4368 -0.1965 -0.0016
    1W        W41950  13.237  20.473   8.293 -0.0863 -0.1231  0.2352
    1W        W41951   4.525   5.863   0.212  0.3211  0.0344  0.0968
    1W        W41952  27.113   7.312   8.714  0.1715  0.0368  0.1685
    1W        W41953  20.580  28.044   3.457 -0.1721 -0.1041  0.0576
    1W        W41954  18.596  21.757   1.748 -0.0662  0.2426 -0.1618
    1W        W41955  11.265  19.736  10.051 -0.2754  0.1463  0.1742
    1W        W41956  16.763  10.068   1.462  0.0922  0.0470  0.0210
    1W        W41957  27.544   1.431   0.738  0.0274  0.0281  0.1238
    1W        W41958  23.717  21.365   9.363  0.1819  0.2332  0.0024
    1W        W41959  18.543  13.747   0.676 -0.4650 -0.2962 -0.1621
    1W        W41960  16.641  22.189   0.876 -0.1054  0.2133  0.1001
    1W        W41961  12.295  12.764   1.538  0.4554 -0.2530 -0.1060
    1W        W41962  22.933  20.987   2.193 -0.1528  0.3038  0.0548
    1W        W41963  15.750   4.973   3.439 -0.2449  0.0726 -0.0149
    1W        W41964   3.753   0.309   1.839 -0.0776  0.1764  0.0231
    1W        W41965  24.334  18.446   0.284 -0.0386 -0.0308  0.1965
    1W        W41966   8.120  11.087   2.020  0.0570  0.0203  0.1229
    1W        W41967  19.900  26.380   0.166  0.3185 -0.1485  0.2275
    1W        W41968  13.367  25.134   2.638 -0.0050  0.0520 -0.1794
    1W        W41969  10.534  18.959   2.286  0.0131  0.0736  0.0793
    1W        W41970  17.771  18.787   7.442  0.1159 -0.1869 -0.2645
    1W        W41971  15.586  19.972   2.061 -0.1373 -0.1273 -0.2574
    1W        W41972  14.595   9.850   3.032 -0.0823  0.0038  0.3807
    1W        W41973  11.728   5.576   8.726 -0.2266  0.1744 -0.0896
    1W        W41974   5.196  25.618   2.677  0.1673  0.2378 -0.0757
    1W        W41975  21.341  23.675  10.265 -0.0048 -0.1844  0.1646
    1W        W41976  14.798   1.146  10.238  0.0076 -0.0811  0.1180
    1W        W41977  17.924   0.609   9.134 -0.2666 -0.0685  0.1066
    1W        W41978   5.191  10.102   6.909  0.4340 -0.0721  0.0532
    1W        W41979   5.036  19.699   9.862  0.1442  0.0070 -0.2060
    1W        W41980  13.035  24.682   2.902 -0.0634 -0.2341  0.1822
    1W        W41981  23.423  12.418   7.419 -0.2120 -0.1689  0.1011
    1W        W41982   2.033   3.653   5.594 -0.1367 -0.2895  0.2081
    1W        W41983  27.682   6.181   1.572  0.1307  0.0426  0.2296
    1W        W41984   4.020   2.052   0.762 -0.4266  0.0806 -0.2645
    1W        W41985   6.959   4.649  10.024 -0.3058 -0.0180  0.3384
    1W        W41986  20.101  16.141   9.558 -0.1601 -0.0799  0.0592
    1W        W41987  10.831  27.626  10.206 -0.2451  0.1948 -0.1840
    1W        W41988   8.442  15.885   1.020 -0.1247 -0.0301  0.3921
    1W        W41989  15.668   3.997   8.722 -0.0637 -0.1376 -0.3563
    1W        W41990  25.825  22.007   8.257  0.1956  0.2370 -0.1381
    1W        W41991   9.062   5.382  10.054 -0.2963 -0.3810  0.0228
    1W        W41992  11.121   0.600   7.895 -0.2842 -0.1449 -0.1030
    1W        W41993   9.976  19.352   1.400  0.3441  0.0060  0.1068
    1W        W41994  23.114  13.528  10.269  0.2241  0.0255 -0.0925
    1W        W41995   7.246  19.112   0.621  0.1423 -0.0044 -0.0214
    1W        W41996   3.991  27.650  10.226  0.0208 -0.3136  0.2110
    1W        W41997  13.496  19.010   8.507 -0.1954  0.1821  0.0461
    1W        W41998   6.293  11.669   8.444  0.2030 -0.1209 -0.3795
    1W        W41999  20.188   1.315   9.844 -0.1555 -0.1039  0.0541
    1W        W42000  25.943   7.403   7.774  0.0634  0.0177 -0.3899
    1W        W42001   4.566  26.539   7.027  0.2632  0.0983 -0.1399
    1W        W42002  13.899  23.218  10.024  0.0258 -0.1868 -0.2411
    1W        W42003   5.886  24.036   7.514 -0.5068  0.4275  0.0942
    1W        W42004  16.199  20.345   8.106 -0.0862 -0.2679 -0.3011
    1W        W42005   0.620  26.447   3.124 -0.1225  0.1783 -0.0256
    1W        W42006   7.348  23.983   0.431  0.1781 -0.1981 -0.0162
    1W        W42007  18.088   2.499   8.899  0.3054  0.1233 -0.2272
    1W        W42008   3.646   4.419   9.249  0.2066  0.2665 -0.2609
    1W        W42009   6.761   0.320   0.717  0.0952 -0.0004  0.0947
    1W        W42010  16.904  18.461   3.655 -0.4466  0.2964 -0.1252
    1W        W42011   0.797  19.687   8.123 -0.0189  0.0971 -0.1790
    1W        W42012  22.144  27.020   3.000 -0.1215  0.2478 -0.0157
    1W        W42013   6.951  27.527   8.235  0.1455 -0.2068 -0.0040
    1W        W42014  14.275  19.173   2.840 -0.1512 -0.1486  0.0219
    1W        W42015  22.639   1.365   2.915 -0.1690  0.0751 -0.0252
    1W        W42016   5.932   2.329   1.973  0.1429 -0.1580 -0.1383
    1W        W42017   5.882  12.031   9.504 -0.1074 -0.0449 -0.0523
    1W        W42018  26.343  12.419   8.547 -0.1084 -0.0477 -0.0371
    1W        W42019  19.078  25.547   9.178  0.1288 -0.1083 -0.2713
    1W        W42020  20.829  24.724   7.921 -0.2427  0.1058  0.4504
    1W        W42021  12.895  27.168   1.556 -0.0955  0.0694 -0.1989
    1W        W42022  24.316   8.888   9.862 -0.1867  0.2910 -0.1198
    1W        W42023  12.975  12.357   2.294  0.1216 -0.0217 -0.0931
    1W        W42024  25.103   0.336   2.299  0.2689 -0.2691  0.2878
    1W        W42025  19.483  24.573   7.949  0.0329 -0.1116 -0.0575
    1W        W42026  23.276   6.599   9.234  0.1262  0.1222 -0.1864
    1W        W42027  14.774   6.262   2.387 -0.0385 -0.0854 -0.0719
    1W        W42028  24.008  13.318   7.234 -0.2238 -0.0565 -0.3380
    1W        W42029  13.246   5.708   0.786  0.1040  0.0631  0.3689
    1W        W42030   7.391   6.359   0.434 -0.1082  0.1667 -0.1398
    1W        W42031   9.425  10.187   1.135 -0.0513 -0.2446  0.0475
    1W        W42032  24.204  21.553   8.537 -0.0062 -0.3498  0.1389
    1W        W42033  10.104  28.029   0.694  0.1087 -0.0274  0.0123
    1W        W42034  17.021  27.933   9.843 -0.1558  0.0076  0.1741
    1W        W42035   7.615  20.260   2.997 -0.4483  0.0637  0.0044
    1W        W42036  16.642  15.698   1.229  0.3808 -0.0885 -0.1957
    1W        W42037   6.251  21.373   0.761  0.2763 -0.0398 -0.3361
    1W        W42038  27.821  10.614   0.443  0.1672  0.0238 -0.2563
    1W        W42039  26.638  21.128   8.605 -0.0471  0.0098  0.1051
    1W        W42040  25.493   5.694   2.241 -0.1975 -0.2494 -0.1761
    1W        W42041  25.583   5.351   8.050 -0.0733  0.2881 -0.0859
    1W        W42042  23.175  11.729   9.893  0.0412 -0.0385 -0.0630
    1W        W42043  25.370  12.233   2.583 -0.3126 -0.1394  0.0316
    1W        W42044  23.645   3.709   2.458 -0.0550  0.1414 -0.1834
    1W        W42045  15.961  23.247   2.105  0.0013  0.0796 -0.2982
    1W        W42046  12.224  20.773   0.885 -0.2732  0.1521 -0.0447
    1W        W42047  17.225  24.637   9.380 -0.1184  0.2791 -0.1571
    1W        W42048   1.582   6.058   8.304  0.3741  0.1680 -0.2801
    1W        W42049   9.949   2.372   2.149 -0.0698  0.2192 -0.0197
    1W        W42050  11.991   0.797   9.091 -0.0431  0.3076  0.2569
    1W        W42051  27.313   4.509  10.027 -0.0930  0.0279  0.0809
    1W        W42052  19.511   2.022   2.838  0.2010  0.1195 -0.0543
    1W        W42053  27.836   0.726   2.110 -0.2983 -0.1947 -0.5220
    1W        W42054  13.427  12.923   1.330 -0.0745  0.0990 -0.0067
    1W        W42055  24.098   8.837   7.027  0.0321  0.0810  0.5782
    1W        W42056  21.521  21.222   8.187  0.1606 -0.1572 -0.0953
    1W        W42057   2.660  16.091   7.527  0.3089  0.1256  0.0566
    1W        W42058  10.636  23.923   8.818 -0.0411 -0.2682  0.2540
    1W        W42059  27.251   4.557   0.686 -0.1810 -0.2450  0.1136
    1W        W42060  18.880  19.200   2.809  0.0641 -0.1665 -0.2121
    1W        W42061  15.447  14.576   3.186  0.1725 -0.2519  0.1084
    1W        W42062   0.099  20.445   2.986 -0.1206 -0.2890 -0.1811
    1W        W42063   8.961  26.676   9.573 -0.3383  0.0937  0.0149
    1W        W42064   5.829   4.158   8.584  0.2764 -0.0007  0.1227
    1W        W42065   1.426  27.607   8.107 -0.1287 -0.1672 -0.2220
    1W        W42066  24.849   5.081   1.060  0.1296 -0.1075  0.0966
    1W        W42067   9.952  10.368   9.365  0.0728  0.1061 -0.0660
    1W        W42068   2.962   3.238   0.777  0.3048  0.3776  0.0302
    1W        W42069  10.923   8.305   9.515  0.1908  0.1752 -0.2339
    1W        W42070  27.014   3.005   0.154  0.1478  0.1178  0.3086
    1W        W42071  17.773   6.529   0.151 -0.0592 -0.0410  0.4776
    1W        W42072  16.382  21.026   9.947  0.0332  0.4626 -0.0114
    1W        W42073   4.071   1.537   6.125  0.0342 -0.1820 -0.2205
    1W        W42074   5.017  25.380   8.813 -0.0991  0.1413 -0.0158
    1W        W42075   1.647  16.338   2.326 -0.0124  0.4323 -0.0526
    1W        W42076   6.072  11.807   0.056 -0.2268 -0.1377 -0.3078
    1W        W42077   2.190  23.994   0.047  0.1875  0.2030  0.0134
    1W        W42078  19.921  16.770   8.366  0.3471  0.2895  0.1345
    1W        W42079  19.542   8.454   0.172 -0.1085 -0.3142 -0.1244
    1W        W42080  11.941   9.382   1.573  0.3344 -0.1398  0.3151
    1W        W42081  28.045   5.899   7.256  0.0102 -0.0051 -0.1600
    1W        W42082   8.556   8.769   2.740 -0.3806 -0.1284 -0.0079
    1W        W42083  23.512  22.196   0.206 -0.0195 -0.3672  0.1864
    1W        W42084   1.802   0.897   2.990  0.1568  0.3432 -0.2511
    1W        W42085  13.729   1.992  10.141  0.1700  0.0533  0.0742
    1W        W42086   4.257  14.249   3.230  0.2030 -0.1786 -0.3189
    1W        W42087  18.682  11.961   1.641  0.1579 -0.0302 -0.0480
    1W        W42088   2.781   0.623   8.400 -0.1204 -0.2065 -0.0407
    1W        W42089  23.745  22.417   0.953  0.0845 -0.0263 -0.0831
    1W        W42090   4.025  10.051  10.081  0.0854 -0.0762 -0.0477
    1W        W42091   3.742   2.721   0.970 -0.2125  0.1309  0.0399
    1W        W42092   7.464  24.463   0.837 -0.1965  0.0879  0.0679
    1W        W42093   1.464  10.338   6.328 -0.1866 -0.4607 -0.0805
    1W        W42094   4.906   0.189   1.521  0.1769  0.1598  0.0521
    1W        W42095   1.489  13.283   9.213 -0.1796 -0.2339  0.0214
    1W        W42096  14.319   0.960   0.697 -0.1150  0.1053  0.2762
    1W        W42097   2.714  23.118   8.815  0.1609 -0.1685  0.0624
    1W        W42098  18.798   6.740   0.428  0.3193 -0.4037 -0.0050
    1W        W42099  20.030   3.088   7.576 -0.3104  0.1025 -0.2040
    1W        W42100  15.706  26.633   3.216 -0.1579  0.2198  0.1669
    1W        W42101   4.959   3.981   7.705 -0.1081  0.0089  0.0937
    1W        W42102  14.866  23.645   1.619  0.0859  0.0461 -0.0581
    1W        W42103  10.034   0.398   2.042 -0.2440 -0.0884 -0.0903
    1W        W42104  22.454  25.002   8.114 -0.2002 -0.1165 -0.0380
    1W        W42105  18.953  22.155  10.329  0.0974  0.2330  0.0127
    1W        W42106   3.420  12.641   0.903  0.1272 -0.0908 -0.0843
    1W        W42107  23.031  21.797   1.651 -0.0103 -0.0397  0.0813
    1W        W42108  22.948  18.197   6.952  0.0513 -0.1628  0.1546
    1W        W42109  24.866  11.483   0.953  0.0528 -0.1618 -0.0589
    1W        W42110  10.088   2.608   0.756  0.2924 -0.3799 -0.3179
    1W        W42111   7.522  17.192   1.856  0.2652 -0.1348 -0.2300
    1W        W42112  25.351  20.386   2.613 -0.0131  0.1858  0.0231
    1W        W42113  22.043   7.907   0.969  0.0959  0.0397  0.1095
    1W        W42114   1.468  18.391   1.163  0.1226  0.0672  0.0920
    1W        W42115  16.605  20.299   8.674  0.0962 -0.1683  0.0568
    1W        W42116  24.899   8.817  10.248 -0.1479  0.2421 -0.0811
    1W        W42117  11.780   6.860   2.509  0.2185  0.1217 -0.0382
    1W        W42118  11.314  22.863   1.573 -0.4056  0.0825 -0.1245
    1W        W42119   2.909   7.676   1.823 -0.1888 -0.0940  0.1856
    1W        W42120   3.130  24.582   1.051 -0.0454  0.2522  0.5221
    1W        W42121   4.109   1.541   0.586 -0.1004  0.0727  0.1339
    1W        W42122  22.528   8.553   8.566  0.0817  0.0998  0.2030
    1W        W42123  17.643   8.267   1.082  0.0545  0.0150  0.1052
    1W        W42124   0.810  25.645   0.384  0.0528 -0.0655 -0.1938
    1W        W42125   5.171  21.754   0.980 -0.0970  0.1268 -0.0613
    1W        W42126  12.156   5.338   1.212  0.1335  0.1900  0.0846
    1W        W42127   6.380  14.337   9.892 -0.1161 -0.0322 -0.0646
    1W        W42128  23.119  23.505  10.007 -0.1561  0.1263 -0.1549
    1W        W42129   1.586  22.759   9.814  0.1601 -0.0040  0.0089
    1W        W42130   9.271  24.537   9.507 -0.0410 -0.4682 -0.0712
    1W        W42131  24.842  12.746   0.609 -0.0680 -0.0207  0.0822
    1W        W42132   8.705   6.375   1.673  0.0694 -0.1695  0.0514
    1W        W42133  16.915   1.921   0.325  0.1182 -0.0180 -0.0723
    1W        W42134  27.452   5.284   8.343  0.0343  0.2243 -0.0308
    1W        W42135   8.884  15.619   1.258  0.0959  0.1093 -0.1470
    1W        W42136  19.204  11.711   1.378 -0.1547 -0.3359 -0.3026
    1W        W42137  21.905   0.043   1.491 -0.1058  0.1320  0.0159
    1W        W42138  17.128   2.522   8.050 -0.0448 -0.1545 -0.1784
    1W        W42139   2.571  21.271   9.100 -0.1991  0.1172  0.1129
    1W        W42140  19.220  14.960   8.301  0.1473 -0.0223 -0.0896
    1W        W42141  15.462   9.929   3.216 -0.2617 -0.1487 -0.0661
    1W        W42142  13.274  20.875   2.808  0.0889  0.0138  0.2564
    1W        W42143  20.525  25.142   2.406 -0.4829 -0.0151 -0.0028
    1W        W42144  21.849   2.499   9.980 -0.3043 -0.1688  0.1366
    1W        W42145   7.631   7.851   7.808  0.1283  0.0176  0.1364
    1W        W42146  21.161   5.724   2.363  0.0402 -0.3349  0.1552
    1W        W42147   0.994  21.270   9.330 -0.2853  0.0038  0.1293
    1W        W42148  11.786   9.779   0.579 -0.2301  0.1708  0.1982
    1W        W42149  10.878   4.474  10.097  0.0770  0.2386  0.3681
    1W        W42150   5.313   2.687   8.050  0.0187 -0.1050 -0.1580
    1W        W42151  20.163  20.312   1.467  0.1615 -0.0466  0.2000
    1W        W42152  24.173  12.498   0.351 -0.0746 -0.0520 -0.5057
    1W        W42153  20.189   1.592   6.803 -0.2457  0.1937  0.0321
    1W        W42154   0.095  14.499   3.268 -0.1830 -0.0116  0.1487
    1W        W42155  24.350  13.109   9.457 -0.0922  0.1185 -0.0092
    1W        W42156  21.488  21.950   9.297  0.0007  0.0642  0.1078
    1W        W42157  19.124   5.871   9.783  0.2002  0.0839 -0.1437
    1W        W42158  10.121  16.110   1.780  0.0633 -0.1669 -0.2381
    1W        W42159  15.353  18.436   7.557 -0.1265  0.0125 -0.6881
    1W        W42160  27.414  21.895   8.260 -0.1233  0.5077 -0.0401
    1W        W42161  13.167  26.137   0.262 -0.1039  0.0106 -0.1419
    1W        W42162   6.273  11.683   9.682  0.4921  0.0701  0.1447
    1W        W42163   2.761  24.394  10.310 -0.0400  0.0279  0.1126
    1W        W42164  16.568  10.172   7.813 -0.1368 -0.1160  0.2387
    1W        W42165   1.416  26.151   2.802  0.1065 -0.1407  0.1420
    1W        W42166  13.870   1.083   2.354  0.1626  0.1775  0.0355
    1W        W42167  13.119   0.632   8.780 -0.0878  0.2837  0.0370
    1W        W42168  13.606   5.071   1.079 -0.1663  0.1283 -0.1640
    1W        W42169  19.312   6.633   7.096 -0.1495  0.1314 -0.1747
    1W        W42170  23.266   0.391   3.298 -0.0029 -0.2116  0.0596
    1W        W42171  19.191  16.618   1.292  0.1175 -0.1493  0.0358
    1W        W42172  27.488  20.488   0.919 -0.1043  0.0191 -0.0704
    1W        W42173  27.582  17.999   7.028  0.0953  0.2920  0.2692
    1W        W42174  18.469  24.237   9.965  0.1206 -0.1072  0.3193
    1W        W42175  15.538   4.010   8.173  0.2479 -0.2394 -0.2988
    1W        W42176  12.130   9.382   8.896 -0.0432  0.0519  0.0373
    1W        W42177  14.156   5.252   0.404  0.3301 -0.3717  0.0528
    1W        W42178  27.660  15.509  10.045  0.1290 -0.0396  0.0808
    1W        W42179  27.702  22.006  10.342 -0.1079  0.3401  0.2243
    1W        W42180  22.719  16.331   6.780 -0.0335 -0.2196 -0.0381
    1W        W42181  22.984  17.368   1.788  0.1583  0.0925  0.0975
    1W        W42182  15.180   3.671   1.483  0.2960  0.3254 -0.0354
    1W        W42183  12.553  15.103   9.427  0.1074 -0.0403 -0.3892
    1W        W42184   9.861  16.554   0.284 -0.0807 -0.0773  0.0408
    1W        W42185  17.133   5.387   8.058 -0.0516 -0.0946 -0.1631
    1W        W42186  24.111   5.017   2.532  0.2586 -0.1850  0.0870
    1W        W42187   4.030   1.882   2.721  0.0949 -0.0088 -0.0763
    1W        W42188   5.018  21.055   8.827  0.2486 -0.0748 -0.0381
    1W        W42189  16.512  10.461   3.719 -0.2794 -0.0186  0.0528
    1W        W42190  13.773   4.367   0.781  0.0156 -0.1114 -0.2938
    1W        W42191  14.523   6.239   8.817  0.1165 -0.1026 -0.0647
    1W        W42192  19.018  12.314   3.328 -0.2741 -0.2127 -0.0434
    1W        W42193  23.582  12.508   1.091  0.3791 -0.0713 -0.3063
    1W        W42194  19.521  19.520   2.932  0.1430  0.2885 -0.2782
    1W        W42195   2.180  10.376   7.965  0.1304  0.3631  0.1705
    1W        W42196  19.335  27.671   7.425  0.1724 -0.1454 -0.2436
    1W        W42197  24.586  11.654   2.560  0.0711 -0.1707 -0.1645
    1W        W42198  19.674  11.349   2.665  0.0035  0.0634 -0.4763
    1W        W42199   0.315   2.490   9.326  0.0986 -0.0591 -0.0105
    1W        W42200   6.991   4.850   9.535 -0.1985  0.0589  0.1465
    1W        W42201  22.783  21.667   0.316 -0.2403 -0.0070 -0.2188
    1W        W42202  12.663   7.469   1.259 -0.0001  0.0289 -0.3884
    1W        W42203  20.532  25.064   0.085  0.2496  0.1344 -0.0306
    1W        W42204  27.937  14.688   1.535 -0.3560 -0.0742 -0.0141
    1W        W42205   2.645  13.012   6.965 -0.3574  0.0379  0.2825
    1W        W42206  12.599  25.766   2.023 -0.0601  0.2884 -0.0611
    1W        W42207   1.611  27.102   9.559 -0.2136 -0.1744  0.0529
    1W        W42208  19.533  25.127   7.753 -0.2298  0.3514  0.2204
    1W        W42209   5.707  24.498   7.339  0.0293 -0.2263  0.0009
    1W        W42210  22.446   5.497   1.167  0.2022  0.0444  0.3642
    1W        W42211  15.226   7.022   0.764  0.2203  0.2621 -0.0567
    1W        W42212  20.060  19.418   2.462  0.1782 -0.3027  0.0086
    1W        W42213  15.220  16.298   2.682  0.2329  0.1074 -0.2397
    1W        W42214  25.826   6.659   6.667  0.2508 -0.0083 -0.3245
    1W        W42215  11.917   2.759   8.507  0.4506 -0.0633 -0.1540
    1W        W42216   3.586  28.011   8.401  0.0329  0.0307 -0.0920
    1W        W42217  20.533  26.348   3.020  0.0386 -0.3050  0.0524
    1W        W42218  24.526  25.398   7.687 -0.0231 -0.1256  0.0521
    1W        W42219  17.806  23.632   7.655  0.5120 -0.1314 -0.0398
    1W        W42220  21.959  15.450   8.577 -0.2135 -0.0585  0.0626
    1W        W42221  15.492  11.912   3.072 -0.1886 -0.1067  0.2023
    1W        W42222   0.117   5.371   7.453 -0.1211  0.0831  0.0236
    1W        W42223  26.349  13.756   7.971  0.0664 -0.0588 -0.0585
    1W        W42224  12.394  23.997   8.532 -0.3038 -0.0158  0.2632
    1W        W42225   7.989   5.984   2.354 -0.3370  0.0459 -0.0927
    1W        W42226   3.953  14.244   2.280  0.1244  0.0249 -0.1520
    1W        W42227   5.335   3.115   9.794  0.2473  0.1007 -0.1358
    1W        W42228  26.471  22.421   0.375  0.3682 -0.0801 -0.1593
    1W        W42229  22.303  16.596   0.092  0.2038  0.0917  0.0041
    1W        W42230  15.923  16.967   8.434  0.1913  0.2959 -0.1665
    1W        W42231  11.178  27.880   9.221  0.0082 -0.3378 -0.1321
    1W        W42232  18.055   1.154   7.987  0.2583 -0.3851  0.1804
    1W        W42233  13.929  23.672   0.529 -0.0802 -0.2890  0.0506
    1W        W42234   9.412  19.913   6.958 -0.1268 -0.3553 -0.0544
    1W        W42235  12.364  25.618   8.583 -0.0979 -0.1066 -0.0721
    1W        W42236   3.883  13.605   0.104 -0.0749 -0.1146 -0.2135
    1W        W42237  12.175   6.818   1.237 -0.2180 -0.2683  0.1984
    1W        W42238  20.854  13.164   3.422 -0.2410  0.3057 -0.2481
    1W        W42239  24.394  27.231   0.702  0.0320 -0.1418  0.2858
    1W        W42240  21.143   6.606   8.157 -0.3250  0.3324 -0.0593
    1W        W42241   3.528   6.343   6.891 -0.1912  0.2496 -0.2952
    1W        W42242   0.089  11.723   2.293  0.0082 -0.0797 -0.0730
    1W        W42243  22.311   3.103   0.563  0.0035  0.1648 -0.1849
    1W        W42244  13.096  19.449   0.139 -0.0541  0.1021  0.2742
    1W        W42245   0.081  14.508   1.914  0.2699  0.2488 -0.2352
    1W        W42246   5.785   8.188   1.518 -0.0132  0.2096 -0.0223
    1W        W42247  26.627  13.796   9.155  0.1500 -0.0919 -0.2703
    1W        W42248  13.357  26.241   9.335 -0.1297 -0.2652 -0.1013
    1W        W42249  17.220   0.966   1.685 -0.0832 -0.2714  0.1964
    1W        W42250  11.636  22.862   3.396  0.2256  0.0362  0.0403
    1W        W42251  27.491  17.158   2.884  0.2221  0.2279  0.1379
    1W        W42252  26.863  20.001   1.069  0.0387 -0.2250 -0.2419
    1W        W42253   2.495  11.105  10.207  0.0573  0.1681 -0.1660
    1W        W42254  13.797   0.103   0.792 -0.1891  0.0497  0.0408
    1W        W42255  22.560   2.892   2.532  0.1042 -0.0572  0.4690
    1W        W42256   2.345  13.938   6.585 -0.1911  0.2943 -0.2066
    1W        W42257  10.934   8.738   9.877 -0.0278  0.0601  0.2417
    1W        W42258   9.082  17.446   1.132  0.4368 -0.0305  0.2461
    1W        W42259   7.514   0.149  10.097  0.0526 -0.2446 -0.1963
    1W        W42260  15.089  27.194  10.116  0.0712 -0.2200 -0.0207
    1W        W42261  12.855   7.359   0.059  0.0692 -0.0262 -0.3147
    1W        W42262  17.677  27.634   0.970  0.1771  0.1209  0.3380
    1W        W42263  27.219  11.728   9.458 -0.0178  0.0111 -0.1177
    1W        W42264   9.431   4.494   8.125 -0.0479 -0.1797 -0.0881
    1W        W42265  14.240  16.795   7.971 -0.2705 -0.0148  0.3510
    1W        W42266  14.246   3.191   0.031 -0.0194 -0.1557  0.0508
    1W        W42267  12.259   0.823   0.129  0.1457  0.0750 -0.0448
    1W        W42268  27.581   3.820   8.406  0.0887 -0.0807  0.0469
    1W        W42269  12.403   9.610   2.568  0.3355  0.2552  0.1494
    1W        W42270   7.447  16.345   3.084  0.0551  0.1317 -0.0231
    1W        W42271   1.930  20.638   1.699  0.0541 -0.0906 -0.0461
    1W        W42272  24.722   0.804   3.309  0.0671 -0.2164 -0.1355
    1W        W42273  18.955   2.137   2.074 -0.2317 -0.0197  0.0320
    1W        W42274   8.940  21.191   1.956 -0.1112  0.1443  0.1163
    1W        W42275   5.145  21.567   8.894 -0.0453  0.0092 -0.0304
    1W        W42276  10.561  16.780   0.959  0.2892  0.1594  0.1709
    1W        W42277  18.086  21.188   8.761  0.0315  0.1180  0.0323
    1W        W42278  16.609  24.309   7.596  0.1503  0.0751 -0.1495
    1W        W42279   3.582   1.120   7.359 -0.1299  0.3237 -0.1248
    1W        W42280  15.336   9.936   9.712  0.4402  0.0244 -0.3739
    1W        W42281   6.849   6.614   1.604  0.0825 -0.5231  0.3661
    1W        W42282   5.634  14.615   1.560  0.3611 -0.3872 -0.2029
    1W        W42283  21.694  26.397   1.220 -0.3625  0.2569 -0.0228
    1W        W42284  23.649   7.510   9.231  0.0913  0.0201 -0.0366
    1W        W42285   0.196   0.180   7.652  0.0863 -0.2290  0.0523
    1W        W42286  27.172   7.091   1.619  0.2448 -0.1457  0.2182
    1W        W42287   4.526  27.347   0.528 -0.2659  0.0987  0.4129
    1W        W42288  23.298  24.121   0.912  0.1500 -0.2474  0.0127
    1W        W42289   6.119  17.678   3.532  0.0130  0.2494  0.0856
    1W        W42290   5.106   7.783   0.358 -0.2359  0.0011 -0.0000
    1W        W42291  27.743  24.742   9.465  0.0109  0.2942  0.2823
    1W        W42292  20.444  27.149   1.887 -0.3589  0.1077  0.1183
    1W        W42293   5.619   2.034   0.333 -0.2162  0.2485 -0.1621
    1W        W42294   8.860  18.564   1.997 -0.2607 -0.1638 -0.0215
    1W        W42295  16.060   4.693   9.723  0.1147  0.3842 -0.2168
    1W        W42296   1.494  10.883   3.670  0.2229 -0.0254 -0.2738
    1W        W42297  25.808  18.801   1.989 -0.2047  0.0123  0.1243
    1W        W42298   7.739  11.940   9.236  0.1716 -0.1626 -0.0386
    1W        W42299   1.240  16.770   8.853 -0.3574 -0.0702 -0.1456
    1W        W42300  10.517  13.994   8.817 -0.1204 -0.1881  0.1385
    1W        W42301   2.798   9.656   6.021 -0.0531  0.0300  0.1130
    1W        W42302   5.479  15.983   9.205 -0.0428  0.2720  0.3379
    1W        W42303  18.843   8.371   3.392 -0.0508  0.1844 -0.1470
    1W        W42304   7.469   9.402   6.492  0.1093 -0.0906 -0.1822
    1W        W42305  24.705   4.190   7.873  0.0009  0.1342  0.5405
    1W        W42306   4.164  11.276   8.676 -0.1727 -0.2539  0.1315
    1W        W42307  21.159  15.686   2.089  0.1048  0.0738 -0.0605
    1W        W42308  21.523   7.200  10.158 -0.0994  0.4092 -0.4109
    1W        W42309  14.786   8.183   7.570  0.3873 -0.0309  0.0141
    1W        W42310  12.536   3.269   0.969  0.0933  0.0430  0.0876
    1W        W42311  16.835  27.374   8.073  0.0004 -0.0746  0.1259
    1W        W42312  26.718  21.627   2.158  0.1059 -0.0474  0.1877
    1W        W42313   6.944   7.693   0.412 -0.0743  0.2565 -0.2757
    1W        W42314  23.904  13.633   6.782  0.1864 -0.0428 -0.1954
    1W        W42315  17.384  12.087   0.104  0.3644  0.0387  0.3758
    1W        W42316  26.617  26.702   0.686 -0.1322  0.0818 -0.1371
    1W        W42317  18.200  16.698   7.647 -0.0874  0.1540  0.0616
    1W        W42318   7.940  21.936   0.273  0.0475  0.0559 -0.0120
    1W        W42319   2.710   0.488   7.687 -0.1057  0.0161 -0.1809
    1W        W42320  19.893   4.018   7.870 -0.1577 -0.1305  0.3155
    1W        W42321   8.627   2.768   8.011 -0.0155  0.0152 -0.2348
    1W        W42322  20.417  22.615   2.602  0.0897  0.3802 -0.1963
    1W        W42323   3.884  14.995   0.371  0.3446 -0.2102 -0.0746
    1W        W42324   9.156  27.001   9.114  0.1092 -0.2216 -0.1294
    1W        W42325   8.126  10.697   1.664  0.0185  0.0561  0.3575
    1W        W42326  11.743  21.063   2.840  0.3289 -0.1156 -0.0685
    1W        W42327  16.237   6.414   2.656  0.3320  0.1966 -0.0182
    1W        W42328   7.439  11.982   2.682 -0.3771  0.0206 -0.1602
    1W        W42329  19.944  17.512   3.240 -0.2259 -0.0803 -0.0409
    1W        W42330  10.579   3.764   8.096  0.2020  0.2429  0.2390
    1W        W42331  22.846  12.537   8.865  0.0951 -0.0430  0.2576
    1W        W42332   6.642  22.918   1.922 -0.1630 -0.1894 -0.1088
    1W        W42333   5.880  27.313   8.250  0.1438 -0.3340  0.4251
    1W        W42334  11.517  13.241   1.749  0.0165  0.3077  0.0304
    1W        W42335  18.964  22.884   2.264 -0.1479  0.2267  0.1731
    1W        W42336  27.766   0.720   1.443  0.4490 -0.0355 -0.2078
    1W        W42337  11.187  24.559   8.710 -0.0247 -0.0688  0.0566
    1W        W42338   8.985  21.115   9.009 -0.0046  0.3452 -0.0506
    1W        W42339   6.784  16.116   9.426  0.1037  0.1047  0.3535
    1W        W42340   1.642   7.511   9.136  0.0156  0.1345 -0.1602
    1W        W42341   3.799  18.385   7.009  0.0958  0.2144 -0.0954
    1W        W42342   0.025  15.615   0.830  0.1055  0.0660  0.0022
    1W        W42343   3.142  14.109   6.506 -0.0684  0.0562  0.3244
    1W        W42344  27.098  27.985   1.338 -0.1984 -0.1253  0.1764
    1W        W42345   5.521  19.142   3.387  0.0528  0.1347 -0.3998
    1W        W42346  19.092  23.711   2.628 -0.0208 -0.0324  0.0951
    1W        W42347  19.038   5.443   3.083 -0.1909 -0.1086  0.1452
    1W        W42348  12.068  22.078  10.160 -0.2151  0.2208  0.1020
    1W        W42349   7.385   5.804   1.780 -0.0162  0.0695  0.0715
    1W        W42350  20.003  26.184   1.985  0.1117  0.3541 -0.2876
    1W        W42351   2.209   3.452   1.544  0.0227 -0.1122  0.1275
    1W        W42352  27.757  25.752   8.865 -0.0942 -0.0896 -0.1339
    1W        W42353  25.104   4.621   2.196  0.0384 -0.1979 -0.0771
    1W        W42354  15.129  24.243   7.592 -0.0226 -0.2626  0.0091
    1W        W42355  21.493   2.024   6.606  0.1814  0.1202 -0.0727
    1W        W42356  15.764  25.882   9.011 -0.0311 -0.1553  0.0106
    1W        W42357  19.837  26.354   8.639  0.0614  0.1616 -0.2777
    1W        W42358  18.373  25.777   7.581 -0.3708  0.0373 -0.2287
    1W        W42359  26.619  27.968   0.833  0.1447  0.0534 -0.2135
    1W        W42360  10.307  27.186   0.772  0.0776  0.0977 -0.2151
    1W        W42361  28.008  24.126   1.169 -0.0781  0.0315 -0.0403
    1W        W42362  18.128  20.815   0.977 -0.1904 -0.1702 -0.0608
    1W        W42363   3.110   0.341   9.528  0.3182  0.1201  0.1625
    1W        W42364  18.588  21.555   3.006 -0.0078  0.1967 -0.4126
    1W        W42365  16.727   6.672   8.639 -0.2420  0.0113  0.0576
    1W        W42366  18.611  25.360   9.132  0.0475  0.2564 -0.1229
    1W        W42367  10.318   6.017   8.227  0.0548 -0.1045  0.0172
    1W        W42368   5.933   6.268   2.957 -0.2234 -0.0440  0.1405
    1W        W42369   2.860   0.472   0.971  0.2916 -0.3479  0.1184
    1W        W42370   1.743   7.860   0.903 -0.0506  0.0719  0.1285
    1W        W42371   1.885  21.413   9.897  0.4469  0.3653  0.1507
    1W        W42372  23.151  22.209   8.219  0.2405 -0.0460  0.2560
    1W        W42373   4.425  17.046   8.314 -0.1764 -0.1376  0.0844
    1W        W42374  16.837   7.967   1.596 -0.0524  0.0465  0.0699
    1W        W42375  20.299   1.014   8.548  0.0099  0.1172 -0.1271
    1W        W42376   7.918  24.965   6.977 -0.1414 -0.4593  0.0756
    1W        W42377  20.712   4.152   0.734 -0.2031 -0.2554 -0.1525
    1W        W42378  24.752  18.828  10.333 -0.1914 -0.2138  0.0026
    1W        W42379   5.910  14.668   0.691  0.2767  0.0300  0.2199
    1W        W42380  25.370  21.721   3.177  0.4308 -0.0305 -0.2090
    1W        W42381  25.944   1.281   0.866 -0.0592  0.0947  0.1978
    1W        W42382  24.458   3.390   2.871  0.0337 -0.0120 -0.0041
    1W        W42383  25.456   8.969  10.308 -0.4493  0.2744  0.0479
    1W        W42384   3.863  11.120   9.915  0.3450 -0.1085  0.0238
    1W        W42385  27.438   8.368   7.031  0.3001  0.0058  0.2494
    1W        W42386   7.344  20.833   9.761  0.1497  0.2999  0.0814
    1W        W42387   1.083  24.501   6.775  0.2746 -0.0677 -0.1388
    1W        W42388  20.983  18.317   8.742  0.1124 -0.1030  0.0558
    1W        W42389  21.391  26.604   7.801 -0.1767 -0.0682  0.3901
    1W        W42390  14.077  17.004  10.212  0.1448  0.1345  0.2417
    1W        W42391   1.530  19.010   2.532  0.1165  0.2936  0.0676
    1W        W42392  12.868   2.798   1.863  0.3468 -0.0698  0.0149
    1W        W42393   9.833  25.393   2.583  0.1373 -0.3702  0.1445
    1W        W42394  21.062  27.742  10.065 -0.0448  0.2000  0.1039
    1W        W42395  12.270  24.813   1.748  0.1805 -0.0628  0.0706
    1W        W42396  12.477  18.713   9.010 -0.1652  0.0656  0.1418
    1W        W42397  10.279  13.900   1.481  0.2499 -0.0056  0.0792
    1W        W42398   4.623   6.368   9.127  0.2214  0.1091  0.3263
    1W        W42399  10.006  25.369   6.903 -0.0755 -0.2788  0.0825
    1W        W42400   2.949  11.014   8.075  0.1219  0.1239 -0.1663
    1W        W42401  25.359  18.900   1.629 -0.0714  0.0199  0.1317
    1W        W42402  24.594  23.218   1.515  0.0355 -0.2399 -0.1890
    1W        W42403  11.039   6.096  10.333 -0.0362  0.0280  0.0028
    1W        W42404   5.426  26.123   7.184 -0.0940  0.1596  0.1200
    1W        W42405   6.972  10.290   2.551  0.0435 -0.1283 -0.2791
    1W        W42406  15.917  25.742   7.359  0.2873 -0.0827 -0.0837
    1W        W42407   7.008   0.499   1.638 -0.1480  0.0156 -0.1461
    1W        W42408   7.579  21.356   6.918  0.4322 -0.0117 -0.5625
    1W        W42409  12.380   2.961   1.891  0.1550 -0.0332  0.2654
    1W        W42410  18.214   0.366   2.489  0.1696  0.0530 -0.3925
    1W        W42411  19.654   8.028  10.230  0.1755 -0.0622 -0.4238
    1W        W42412   6.111  14.265   0.902  0.3521  0.0203  0.0435
    1W        W42413   1.159  17.525   8.910  0.0470  0.1995 -0.0687
    1W        W42414   8.665  27.082   7.492 -0.2380  0.1147  0.0061
    1W        W42415   9.126  15.071   8.176 -0.0035 -0.1095  0.0588
    1W        W42416  11.140  20.654   9.674 -0.0748  0.4573 -0.1007
    1W        W42417  20.796   5.123   9.333 -0.3020 -0.0055  0.0223
    1W        W42418   4.820   7.475   6.927  0.1075  0.0786  0.2615
    1W        W42419  16.233   7.034   0.091 -0.1115  0.1087 -0.0171
    1W        W42420  14.249   4.246   3.409 -0.0498 -0.2934 -0.2017
    1W        W42421  17.101  12.355   8.105  0.0633  0.0471  0.1268
    1W        W42422  11.395  22.125   2.315  0.2900 -0.0889  0.0278
    1W        W42423   9.955   9.629   1.688  0.0940 -0.0148 -0.0302
    1W        W42424  11.654  21.529   8.760  0.2790  0.0055  0.2203
    1W        W42425   8.415  24.122   0.319 -0.1493 -0.1002 -0.0600
    1W        W42426   0.091  27.226  10.056  0.0102  0.2975 -0.2896
    1W        W42427   9.973   6.767   2.095 -0.3737 -0.0588  0.2494
    1W        W42428   0.868  13.502   9.761  0.0846 -0.0429 -0.1444
    1W        W42429  14.022   0.718   3.507 -0.2123  0.2533  0.2691
    1W        W42430   7.327  24.920   0.541  0.0172 -0.1249  0.0976
    1W        W42431  26.455  12.814   6.906  0.0481  0.1407 -0.2704
    1W        W42432  26.492  27.123   0.503 -0.1585 -0.2887  0.3307
    1W        W42433  17.016  23.907   1.550  0.4241 -0.0673  0.1454
    1W        W42434  13.230  19.137   7.317  0.1071  0.1307 -0.0561
    1W        W42435   7.975   3.940   2.083 -0.2446  0.2244  0.2252
    1W        W42436  22.444   1.766   7.486  0.1721 -0.2483  0.0189
    1W        W42437  12.140  21.573   2.736 -0.1223  0.0745 -0.0107
    1W        W42438  10.818   2.201   7.909  0.0465 -0.1187  0.1699
    1W        W42439   9.128   3.489   8.743  0.0414 -0.2348  0.0952
    1W        W42440  10.735  10.096   7.956  0.2204  0.1896  0.1713
    1W        W42441  23.973   2.756   2.490 -0.0340  0.2492 -0.2002
    1W        W42442   8.115   6.007   7.410 -0.0620 -0.0979 -0.0063
    1W        W42443  22.589  15.510   9.147 -0.0523 -0.0317  0.0875
    1W        W42444  11.917  20.704   2.461 -0.1348  0.1766  0.2044
    1W        W42445  22.483   9.482   0.959 -0.3163  0.1206 -0.2665
    1W        W42446  18.307  11.339   1.610 -0.0509 -0.1265 -0.1897
    1W        W42447  19.336   5.466   2.636 -0.0533  0.1926 -0.0684
    1W        W42448  12.062   1.415  10.128 -0.0381  0.0993  0.2791
    1W        W42449  11.658   5.272   3.208 -0.1164  0.1074  0.1117
    1W        W42450  14.456  17.311  10.264 -0.1641 -0.0043 -0.1354
    1W        W42451  25.681  21.480   1.665 -0.2650 -0.1232  0.1431
    1W        W42452  24.756  12.996   2.249 -0.0738 -0.1853  0.0567
    1W        W42453  16.686   8.465  10.146 -0.1791  0.2587 -0.1039
    1W        W42454  27.501  14.427  10.020 -0.1810  0.4455 -0.0096
    1W        W42455  10.555  24.528   2.210  0.0590 -0.2795 -0.2149
    1W        W42456   6.421   9.117   0.960 -0.0603  0.0766  0.0087
    1W        W42457  13.536  24.017   9.582  0.0655  0.0934 -0.1430
    1W        W42458  13.243   6.915   2.699 -0.0752 -0.0247 -0.0895
    1W        W42459  25.937  28.097   2.764  0.0854  0.2703 -0.3454
    1W        W42460  14.001  21.423   3.348 -0.1261 -0.0874 -0.1559
    1W        W42461  17.556  10.086   3.003  0.0727 -0.1234 -0.2911
    1W        W42462  12.505  23.902   7.179  0.1503  0.1897  0.0283
    1W        W42463  27.039   0.732   7.430 -0.0917 -0.0106  0.2061
    1W        W42464   9.755  23.736   1.617  0.1695  0.1184 -0.1400
    1W        W42465  22.944  24.221   1.283  0.0269 -0.1936 -0.0123
    1W        W42466   3.750   5.506   6.819  0.2922 -0.1251  0.1970
    1W        W42467   8.194  25.323   2.160 -0.1074  0.1707  0.3181
    1W        W42468  14.686   9.514   9.346 -0.0772  0.2523  0.0097
    1W        W42469   4.276  18.048   9.385 -0.0623  0.3148  0.0011
    1W        W42470  27.652   6.008   9.738  0.1304 -0.0791  0.1293
    1W        W42471  15.207   8.294   0.582 -0.0597 -0.3142 -0.2254
    1W        W42472  10.736   8.738   2.628 -0.1479 -0.2853 -0.3777
    1W        W42473  15.473   4.119   0.577 -0.1763 -0.1595 -0.0911
    1W        W42474  13.156  10.532   9.669  0.0611 -0.1453 -0.1976
    1W        W42475   7.876  10.481   8.239  0.2488 -0.0414 -0.0372
    1W        W42476  27.861   6.798   6.961  0.0114  0.0782 -0.1028
    1W        W42477  27.854   9.327   9.629 -0.0133 -0.1053  0.1476
    1W        W42478  24.694  15.969   0.029 -0.0214  0.3612  0.0750
    1W        W42479  19.608   7.530  10.099 -0.1452 -0.0330  0.0857
    1W        W42480   1.358   5.104   7.079 -0.1884  0.2101  0.0910
    1W        W42481  15.424  25.797   8.658  0.1219  0.1373  0.3336
    1W        W42482  18.742  18.362   1.323 -0.1208 -0.3735  0.1766
    1W        W42483   5.080  22.303   9.450  0.1490 -0.0144 -0.0899
    1W        W42484   3.694  17.721   2.700  0.0650 -0.5483 -0.1979
    1W        W42485  18.400   0.450   1.919  0.0283  0.2137  0.0564
    1W        W42486   0.612  14.161   6.790  0.0338  0.0082  0.3331
    1W        W42487  12.868   1.718   8.711  0.0909  0.0382 -0.2159
    1W        W42488  13.294   5.002   1.525 -0.1512  0.0466 -0.3836
    1W        W42489  20.475  14.258   2.072 -0.0063 -0.1694 -0.0145
    1W        W42490  18.279  19.159   2.104 -0.4606 -0.1224 -0.0307
    1W        W42491  27.120   1.234   2.495  0.1499 -0.0619  0.3158
    1W        W42492   4.509  26.653   2.948 -0.1920  0.1211  0.3344
    1W        W42493   7.871  19.423  10.263 -0.0224  0.1688  0.0059
    1W        W42494   7.517   9.970   3.371 -0.4583  0.0984 -0.0157
    1W        W42495   1.937  20.589   0.128 -0.1578  0.1665 -0.1722
    1W        W42496   6.255  20.756   9.623 -0.1263  0.0291  0.0064
    1W        W42497   8.066   4.785   8.978  0.0550 -0.3024  0.2281
    1W        W42498  14.683  18.885   7.725  0.2014  0.2796 -0.2031
    1W        W42499  27.609   8.942   9.514 -0.0193  0.1427 -0.0844
    1W        W42500   6.776  14.702   9.553  0.0069 -0.2431  0.0989
    1W        W42501  10.088   9.622   8.711  0.0408  0.0812 -0.2037
    1W        W42502  15.779   4.560   8.798 -0.1521  0.0614 -0.0032
    1W        W42503  13.649  21.647   3.024  0.0586 -0.1196 -0.2810
    1W        W42504  12.616  18.828   3.252  0.1234  0.1339  0.1820
    1W        W42505  19.701   3.375   9.010 -0.0882 -0.0814  0.2454
    1W        W42506  13.486  11.473   2.626  0.0378  0.1977  0.1278
    1W        W42507  22.906  14.664   8.284  0.0086 -0.3217 -0.0401
    1W        W42508  22.172  18.665   9.740  0.1422 -0.2693  0.0447
    1W        W42509   2.455  11.089   7.860 -0.2167  0.0463  0.0182
    1W        W42510   7.870  19.042   9.471  0.0540 -0.0223  0.0139
    1W        W42511  25.097  17.687   7.958  0.0895  0.1319  0.0552
    1W        W42512   3.328   5.091   0.800 -0.1748 -0.0990  0.1642
    1W        W42513   7.237   0.032   2.197  0.3256  0.1314 -0.1061
    1W        W42514   3.758  22.059   9.514 -0.0407  0.0049 -0.1450
    1W        W42515   1.577  27.362   8.593  0.0392 -0.0491 -0.1012
    1W        W42516  17.997  20.501   1.960 -0.3746 -0.0828  0.0547
    1W        W42517  22.577  19.429   2.224  0.1173 -0.2341  0.0858
    1W        W42518   9.079  14.352   0.155 -0.3871  0.0742  0.2655
    1W        W42519   7.096  21.832   3.160  0.1198 -0.3840 -0.0689
    1W        W42520  10.731   0.619   1.679  0.0253  0.2258 -0.2151
    1W        W42521  15.595  22.124   9.688 -0.2752  0.1629  0.0570
    1W        W42522   2.695  18.709   6.605 -0.0762  0.2642 -0.0279
    1W        W42523  23.417   9.201   7.553  0.0125 -0.1646  0.1685
    1W        W42524  10.795   6.095   8.394  0.0007  0.2394  0.2860
    1W        W42525  15.169   1.018   1.512  0.0212  0.0830  0.1121
    1W        W42526  17.542  15.603   4.272  0.0519  0.1372 -0.2295
    1W        W42527   6.005   3.053   9.865  0.0798 -0.2587 -0.0000
    1W        W42528   1.968   2.877   8.682 -0.1126 -0.0753 -0.0897
    1W        W42529  10.764   1.936   9.073 -0.0156  0.0918  0.2569
    1W        W42530  11.856  10.939   3.595 -0.0681  0.1024  0.1470
    1W        W42531  23.332  13.111   9.352 -0.1432 -0.0224 -0.0081
    1W        W42532   7.085  26.986   8.777 -0.2391  0.3137  0.0177
    1W        W42533   7.236  11.706   9.884  0.0078 -0.3282 -0.1555
    1W        W42534  16.954   2.286   3.510  0.1931 -0.2155  0.1479
    1W        W42535   3.433   6.974   6.884  0.0937 -0.1002 -0.1641
    1W        W42536  25.756  11.590   7.259  0.0174 -0.3055 -0.0363
    1W        W42537  16.093  23.737   3.611 -0.1616 -0.0851 -0.1107
    1W        W42538  17.669   3.571   0.150 -0.0765 -0.1851  0.1510
    1W        W42539  22.974   7.130   7.367 -0.1045 -0.4324  0.0404
    1W        W42540  17.452  15.403   0.420 -0.0892 -0.3439 -0.2604
    1W        W42541   5.378   1.619   0.153 -0.1375  0.1935 -0.3056
    1W        W42542  23.566   8.280  10.325  0.4502  0.3057 -0.1053
    1W        W42543  17.554  19.236   1.023  0.0418  0.1038 -0.1653
    1W        W42544  24.939   2.556   7.940 -0.0766  0.1209 -0.5494
    1W        W42545  16.544  18.625   1.747  0.3013 -0.1533  0.2134
    1W        W42546   3.689   9.850   1.316 -0.2940  0.1668  0.0610
    1W        W42547   5.349  17.562   2.528  0.1111  0.1893 -0.0185
    1W        W42548   7.180  25.297   1.682 -0.1679  0.3578  0.0046
    1W        W42549   6.642  10.168   8.447 -0.1538 -0.0787 -0.3394
    1W        W42550  25.603   5.269   2.022 -0.2474  0.0882  0.2316
    1W        W42551  24.518  21.824   2.764 -0.0820  0.0078  0.2197
    1W        W42552  19.464  11.617   6.645 -0.1001  0.3103  0.0430
    1W        W42553  22.310   0.736   8.996 -0.1071  0.2159  0.0476
    1W        W42554  21.396   5.740   0.982  0.1688  0.0359 -0.3345
    1W        W42555  26.048   3.470   1.435 -0.0852  0.0504  0.1516
    1W        W42556  20.354  24.814   7.733 -0.1318  0.0272  0.2569
    1W        W42557  22.740  24.270   8.976  0.2025 -0.0791  0.3204
    1W        W42558  14.587  23.373   3.184  0.0644 -0.2976  0.1033
    1W        W42559  18.487   2.023   8.347  0.0183  0.0484 -0.0825
    1W        W42560  14.508  25.721   2.317 -0.0560  0.0386  0.2798
    1W        W42561  11.041  17.676   0.842 -0.0546 -0.2228 -0.4340
    1W        W42562  18.088  26.549   1.846  0.2951 -0.1961 -0.1729
    1W        W42563   7.274  15.406   2.338  0.2058 -0.2023  0.1735
    1W        W42564  14.203  16.605   3.346  0.0454  0.0402  0.0209
    1W        W42565  18.211  26.178   9.720  0.2242  0.1333  0.4469
    1W        W42566   2.165  14.862   1.852  0.0490 -0.1952  0.0096
    1W        W42567   9.343   4.566   9.194  0.0612  0.0664  0.2864
    1W        W42568   3.132   2.550  10.295 -0.4390 -0.0716 -0.2278
    1W        W42569  10.561   9.905   8.680 -0.0161  0.0462 -0.0764
    1W        W42570  12.504   7.378   1.777  0.1513  0.2308  0.1664
    1W        W42571   3.907  23.400   2.181  0.0582  0.0406  0.0301
    1W        W42572  12.711  25.748   7.330 -0.0384 -0.1054 -0.1151
    1W        W42573  10.881   9.810   1.247 -0.0305 -0.0807  0.0217
    1W        W42574  20.902   3.743   1.067  0.1703  0.1954 -0.2471
    1W        W42575   0.075  16.535   1.077  0.5305 -0.2722 -0.0257
    1W        W42576  26.131  20.782   2.333 -0.2286  0.2062  0.0443
    1W        W42577  14.746   0.159   8.097  0.0066 -0.1274  0.1083
    1W        W42578  23.029  23.141   0.417 -0.0193  0.2528  0.2964
    1W        W42579   4.587  19.811   1.831 -0.2676  0.0314 -0.0798
    1W        W42580   1.360   3.664   7.721 -0.3876 -0.2762  0.2493
    1W        W42581   9.993   0.820   3.392 -0.0725 -0.0777 -0.2749
    1W        W42582  27.844  14.465   8.444  0.2567 -0.0142  0.1323
    1W        W42583   6.224  22.321   0.837 -0.3242  0.0821  0.0573
    1W        W42584  21.876   5.126   0.643  0.0083  0.2827 -0.0844
    1W        W42585  23.529  17.453   1.807  0.0897  0.2021 -0.0608
    1W        W42586   6.047  14.321   0.366 -0.0614  0.0522 -0.4449
    1W        W42587  22.867   6.200   0.050 -0.2050 -0.0725  0.0505
    1W        W42588  23.045   2.986   0.708  0.1307  0.0068 -0.2224
    1W        W42589   6.632  13.974   1.131  0.2031 -0.1127 -0.0568
    1W        W42590  18.372  11.108   8.811  0.0605 -0.0802  0.0579
    1W        W42591  11.286   4.908   2.345 -0.1278 -0.0466 -0.0666
    1W        W42592  20.529   1.273   7.477  0.3081 -0.0917  0.0387
    1W        W42593  25.932  16.322  10.116 -0.0972  0.0479  0.1029
    1W        W42594   9.755  23.859   9.972  0.2668  0.1790  0.2869
    1W        W42595   2.929   0.004   7.226 -0.1294 -0.0747 -0.2941
    1W        W42596   9.129  18.246   0.470 -0.1052 -0.1699 -0.1151
    1W        W42597  11.171  17.396   2.708 -0.0400 -0.0023 -0.2254
    1W        W42598  27.157  18.152   0.910 -0.0661 -0.0788  0.1159
    1W        W42599  19.232  11.316   7.576 -0.0319 -0.1553  0.2381
    1W        W42600  21.560   3.323   2.073 -0.0443  0.0552  0.0999
    1W        W42601  17.349   1.420   8.255 -0.0157  0.2280  0.1152
    1W        W42602  16.507   8.132   9.204  0.0714 -0.0348 -0.3681
    1W        W42603  27.564  22.552   2.782  0.1060  0.4476 -0.1388
    1W        W42604   5.890  14.139   2.815  0.2760  0.1528  0.0173
    1W        W42605   1.808   1.463   7.455 -0.2792 -0.2070 -0.1011
    1W        W42606  15.061   0.698   0.167  0.0466 -0.4080  0.0202
    1W        W42607  16.572  26.463   1.193  0.2670  0.0710  0.1701
    1W        W42608  21.186   6.909   9.854 -0.0458 -0.2154  0.0710
    1W        W42609   9.786   1.731   9.588  0.0006 -0.1584 -0.3425
    1W        W42610   3.233  23.885   1.797 -0.1440 -0.1523 -0.0111
    1W        W42611   8.773   1.885   2.537 -0.2115  0.0220 -0.2300
    1W        W42612  27.861  23.397   0.783  0.1653  0.0289  0.0935
    1W        W42613  11.228  20.610   2.273  0.1624  0.1847 -0.2441
    1W        W42614   4.638   9.206   8.244  0.1965 -0.0027  0.0484
    1W        W42615  18.983  24.702   7.770 -0.2558  0.0242 -0.0243
    1W        W42616   0.392  12.486   1.891 -0.1353  0.1950 -0.0565
    1W        W42617  22.061  19.895   8.510 -0.0300  0.2434 -0.1774
    1W        W42618  25.650  11.760   0.855  0.1112  0.3526  0.0324
    1W        W42619   8.481  16.550   3.682 -0.1754 -0.0442 -0.2784
    1W        W42620  19.634  22.313   7.419  0.0840 -0.0049  0.0775
    1W        W42621  20.641  13.237   9.946  0.1494  0.0587 -0.2716
    1W        W42622  14.270  16.760   1.280 -0.0605 -0.0894 -0.0766
    1W        W42623  16.642   4.295   9.162  0.0437  0.1805  0.0584
    1W        W42624   1.823  20.727   6.978  0.0685  0.1544  0.1863
    1W        W42625  22.093   9.741   7.724  0.0638  0.2776 -0.4181
    1W        W42626  15.380  13.144   9.383  0.0266  0.0378  0.2660
    1W        W42627   8.842   5.273   0.799  0.2139 -0.0492  0.0243
    1W        W42628  10.744  11.152   0.598 -0.0839 -0.0500 -0.1375
    1W        W42629  13.213  28.070   1.431 -0.1189 -0.2735 -0.1386
    1W        W42630   3.979  21.366   3.157  0.2088  0.4038 -0.1543
    1W        W42631   8.472  14.394   0.261  0.0670  0.0707  0.0771
    1W        W42632  25.840  25.541   9.978 -0.0153  0.2045 -0.4174
    1W        W42633  24.154  22.157   1.817 -0.1762 -0.0164 -0.0256
    1W        W42634  16.691   0.628  10.004 -0.1965 -0.2488  0.0485
    1W        W42635   4.565  15.354   8.376 -0.1937  0.1492 -0.3536
    1W        W42636   6.442   0.631   0.375  0.0186  0.1812  0.1059
    1W        W42637  14.255   2.981   7.228  0.1722  0.4546  0.1024
    1W        W42638   0.508   0.674   0.900 -0.2673 -0.0422  0.0331
    1W        W42639   7.326   3.986   1.390  0.3715  0.0345 -0.0166
    1W        W42640   2.375   2.306   7.067 -0.0203  0.0246 -0.0958
    1W        W42641  28.027   1.539   2.013 -0.3486  0.0831  0.0769
    1W        W42642  26.302  23.876   8.698 -0.0163  0.4489  0.1686
    1W        W42643  24.407  14.465   7.847 -0.0731  0.0041  0.0907
    1W        W42644  22.759  17.293   3.018  0.0032 -0.0199 -0.3272
    1W        W42645  24.646   1.203   2.223  0.0095 -0.0443  0.1064
    1W        W42646  10.742  26.177   2.507 -0.0797 -0.0441 -0.0076
    1W        W42647  16.625   1.194   4.353 -0.0399 -0.1886  0.2242
    1W        W42648  14.010  11.050   3.297 -0.2590 -0.0242 -0.0758
    1W        W42649  19.917   3.519   7.984  0.3841 -0.0574 -0.0099
    1W        W42650  13.477   1.197   9.446 -0.1985  0.0417 -0.0968
    1W        W42651  15.131   3.857   9.812 -0.2820  0.1058 -0.3324
    1W        W42652   6.458  16.606   9.127  0.2340 -0.0490 -0.1429
    1W        W42653  25.676  22.316   7.114  0.0255 -0.0829  0.1066
    1W        W42654   0.367  14.845   2.130  0.2398 -0.0417 -0.0813
    1W        W42655  25.943  16.477   1.898  0.0944  0.1349 -0.0560
    1W        W42656  20.749  21.099   9.378  0.3872 -0.0808  0.0533
    1W        W42657   2.400   7.802   0.191  0.0690 -0.0935  0.0066
    1W        W42658   3.013   0.536   7.026  0.2901 -0.0694  0.0656
    1W        W42659  17.437  23.372   1.701 -0.1158  0.2515 -0.0406
    1W        W42660   5.360  17.801   1.262  0.0008 -0.1729  0.1280
    1W        W42661   8.694  11.215   8.682  0.0239  0.3976  0.0354
    1W        W42662   0.386  26.084   6.772 -0.2876 -0.1242  0.1363
    1W        W42663  17.654   3.112   0.462 -0.2011 -0.0254 -0.1227
    1W        W42664  15.687   8.639   9.546  0.1143  0.0366 -0.0792
    1W        W42665   7.083  10.356   8.439 -0.1571 -0.5624  0.2294
    1W        W42666  27.436   0.756   1.085  0.2090 -0.0352  0.1017
    1W        W42667  12.108  26.035   8.761  0.1668 -0.0342  0.0109
    1W        W42668   3.654  10.119   9.012 -0.0817 -0.0231  0.0903
    1W        W42669   2.643  21.795   8.362  0.0097 -0.1921  0.0778
    1W        W42670   4.325   4.074   2.131  0.1394  0.1991 -0.0891
    1W        W42671   0.904  12.692   7.876  0.1156  0.0579 -0.3513
    1W        W42672  13.984   9.873   1.441  0.1507 -0.2979 -0.0176
    1W        W42673   1.787  14.607   0.298 -0.3950  0.2742 -0.0790
    1W        W42674  16.232   4.256   9.912  0.0493 -0.3146 -0.0278
    1W        W42675   6.000  21.680   2.160  0.0310  0.0542  0.0051
    1W        W42676  11.260  26.228   2.576 -0.0241  0.2462 -0.0435
    1W        W42677  15.321  10.288  10.113 -0.0686 -0.0783 -0.2503
    1W        W42678  10.408  14.941   8.337  0.0232 -0.1725 -0.1329
    1W        W42679   2.313   2.592   1.567 -0.0671 -0.0280 -0.1059
    1W        W42680  14.787   0.591   1.639 -0.0357 -0.1350 -0.2926
    1W        W42681  14.733   4.184   0.769 -0.0649 -0.1482  0.2644
    1W        W42682   1.750  19.009   8.484  0.1827  0.1747 -0.4489
    1W        W42683  18.384  13.640   8.378 -0.0455 -0.1764 -0.0275
    1W        W42684  18.120  20.491   8.288  0.0737 -0.0140 -0.2753
    1W        W42685   4.553   6.928   2.227  0.3543  0.0893 -0.0836
    1W        W42686   0.173   9.896   9.676 -0.0493  0.0238 -0.2359
    1W        W42687  12.844   9.392   2.693 -0.1499  0.0956  0.3365
    1W        W42688  18.775  19.734   1.912  0.1080 -0.0545  0.0987
    1W        W42689   4.599  10.230   9.259 -0.4517 -0.0576  0.0310
    1W        W42690  17.823   0.646   0.647  0.1058 -0.3589 -0.1569
    1W        W42691  21.288  11.733   8.712 -0.0137  0.1623 -0.2360
    1W        W42692   5.553  23.249   2.158  0.2871 -0.0431  0.2540
    1W        W42693  19.424  27.009   8.352  0.0356 -0.0468  0.4085
    1W        W42694  25.928   8.077   2.508 -0.0705 -0.1267  0.1261
    1W        W42695  22.511  24.516   2.597 -0.0200  0.1814  0.0774
    1W        W42696  11.293  26.850   0.757 -0.2242 -0.2377  0.1562
    1W        W42697  11.058  23.430   1.006  0.2472  0.1004 -0.0026
    1W        W42698   1.714  23.541   7.146 -0.0072  0.3365  0.3301
    1W        W42699  16.331  19.076   2.549  0.0004 -0.0996 -0.0590
    1W        W42700   4.185   7.403   0.915  0.0690  0.1354  0.0494
    1W        W42701   4.194   7.232   8.677  0.1569 -0.0023 -0.1354
    1W        W42702  12.697  11.982   2.504  0.3236 -0.0756 -0.0462
    1W        W42703  14.290  13.371   8.733 -0.2080  0.0409  0.1614
    1W        W42704  18.655   7.242   9.500 -0.2317  0.1377  0.1285
    1W        W42705  12.326  20.712   1.379  0.2291 -0.0961  0.3829
    1W        W42706   0.649  24.843   0.912  0.0342  0.2630  0.3620
    1W        W42707   8.052  16.411  10.343  0.1331  0.1241  0.0650
    1W        W42708  17.351   7.751   9.993 -0.2231  0.0080  0.2426
    1W        W42709  13.626   4.283   2.496 -0.1043 -0.0703 -0.0869
    1W        W42710  23.589   2.074   0.901 -0.2079  0.0703 -0.1199
    1W        W42711  11.771   7.620   9.692 -0.5482  0.1933  0.0736
    1W        W42712  25.565  16.384   2.211 -0.2301 -0.0088  0.2687
    1W        W42713  20.492  17.350   7.193  0.1165  0.0030  0.2321
    1W        W42714  13.858  15.568   9.326 -0.2223  0.0386  0.1143
    1W        W42715  16.967  21.002   2.131  0.0256 -0.2397  0.0197
    1W        W42716  11.373   9.291   8.487 -0.2697 -0.2473  0.1611
    1W        W42717  10.579  20.764   9.769 -0.3739  0.3414  0.3694
    1W        W42718  25.856   8.654  10.141  0.0049 -0.1506 -0.1563
    1W        W42719  12.523  17.254   2.059  0.1368  0.0748  0.2266
    1W        W42720  25.468   9.466   8.355  0.2813 -0.2855  0.2734
    1W        W42721   5.336  22.540   2.120  0.1407 -0.1049 -0.1273
    1W        W42722   8.311  10.588  10.100  0.0369 -0.0100 -0.0950
    1W        W42723  26.873  22.301   0.096 -0.0652 -0.1213  0.2203
    1W        W42724   3.121  14.793   2.948  0.3739  0.2886 -0.4050
    1W        W42725  14.790   6.791   0.612 -0.1197  0.0373  0.3524
    1W        W42726  16.805  22.291   2.840  0.2921 -0.0399 -0.0613
    1W        W42727   3.212  13.025   1.814 -0.0299 -0.1287 -0.2602
    1W        W42728  24.396  10.357   6.531  0.1268 -0.0446  0.1342
    1W        W42729  23.795  21.323   7.133  0.0801  0.1500 -0.0342
    1W        W42730  16.708  15.136   1.084  0.4353  0.1496  0.0863
    1W        W42731  26.270  17.660   0.561  0.2852 -0.0550 -0.0243
    1W        W42732  25.178   5.967   1.979  0.1184 -0.5677 -0.1192
    1W        W42733  16.251   4.692   2.492 -0.2187  0.0975 -0.2637
    1W        W42734   0.403  15.133   6.273  0.0328 -0.0534  0.1096
    1W        W42735  24.365   0.487   0.272  0.0720 -0.1441  0.1313
    1W        W42736  11.695  27.810   0.483 -0.1456  0.0992  0.3488
    1W        W42737  23.230  13.854   8.042  0.0528  0.3054 -0.1504
    1W        W42738   7.027   4.375   8.076  0.1648 -0.0159 -0.1236
    1W        W42739  10.449  15.665   3.081  0.1129  0.1776 -0.0979
    1W        W42740  21.246   1.832   0.047  0.0362 -0.1849  0.1859
    1W        W42741  10.709   0.520   8.192  0.0439 -0.0072  0.2888
    1W        W42742  26.105  15.531   8.501 -0.0995 -0.0496 -0.0864
    1W        W42743  12.905  10.619   8.273  0.2609 -0.1165  0.1404
    1W        W42744   4.940  17.673   8.365  0.3851  0.0504  0.0095
    1W        W42745   7.932  21.667   2.150  0.0495  0.0659  0.0119
    1W        W42746   1.913  15.748   0.060  0.2190  0.1192 -0.0575
    1W        W42747  23.589  11.537   0.545 -0.1291  0.0818 -0.2940
    1W        W42748  16.659  12.959   1.916  0.2184  0.2218 -0.1422
    1W        W42749  23.984  21.207   1.275 -0.3001  0.0804  0.0887
    1W        W42750  25.654  13.545   1.443 -0.3422  0.0754 -0.3995
    1W        W42751  10.909   2.344   0.707 -0.0835  0.3559 -0.0301
    1W        W42752   5.331  20.836   9.137  0.3645 -0.2090 -0.0649
    1W        W42753  27.455   2.487   1.857 -0.0256 -0.0327 -0.0462
    1W        W42754  27.741   7.246   7.645 -0.3711  0.0497  0.0468
    1W        W42755   9.720  17.174   8.866 -0.0895  0.2864 -0.0563
    1W        W42756  13.863   4.204   8.680 -0.1744 -0.0515 -0.1084
    1W        W42757  17.035  19.206   2.058  0.1167  0.3725  0.2427
    1W        W42758  21.949  21.534   9.882 -0.0525  0.1523 -0.0650
    1W        W42759  22.098   7.040   2.074  0.3491 -0.1663 -0.0611
    1W        W42760  16.262  12.327   3.037 -0.0109  0.2541  0.3172
    1W        W42761  12.458  13.046  10.008 -0.2030  0.2566 -0.0527
    1W        W42762  23.032  11.269   9.982  0.0375 -0.0492  0.2389
    1W        W42763   8.044  16.145   3.106  0.3132 -0.2831 -0.0904
    1W        W42764   7.945  18.253   1.828 -0.0471  0.2193 -0.0707
    1W        W42765  13.904  21.227   0.735 -0.0957 -0.1165  0.0588
    1W        W42766   9.141  23.562   1.479 -0.3043 -0.1936  0.1557
    1W        W42767  16.730  12.517   0.654  0.0216 -0.0607  0.1424
    1W        W42768  27.215  18.331   7.203  0.2636  0.1569  0.0227
    1W        W42769   7.832  11.797   1.945  0.3547 -0.1092  0.1082
    1W        W42770   6.074  23.554   7.985  0.0214  0.3226  0.3917
    1W        W42771   1.295   4.111   7.100  0.0410 -0.1136  0.3777
    1W        W42772  18.304   8.811   0.325  0.0990 -0.3694  0.1877
    1W        W42773   1.467  22.271   1.198  0.3953  0.4208 -0.0585
    1W        W42774  14.230   4.159   2.405  0.2666  0.1015 -0.0286
    1W        W42775  21.207  18.166   1.432  0.2164 -0.1316  0.2589
    1W        W42776  20.317  27.741   8.036 -0.2593 -0.2289  0.0937
    1W        W42777   8.511  13.836   3.647  0.0179 -0.3286  0.1254
    1W        W42778  15.026  16.346   0.011  0.0166 -0.2412  0.0254
    1W        W42779   3.318  18.888   0.432 -0.1352 -0.1806 -0.1659
    1W        W42780  16.992  26.335   0.844  0.3315 -0.0290  0.3355
    1W        W42781  24.481   9.779   7.545  0.0297  0.3099 -0.0536
    1W        W42782  21.941  16.772   3.924  0.1446 -0.1449  0.2069
    1W        W42783  13.429  24.310   9.951 -0.0720  0.1695 -0.0157
    1W        W42784  11.311  15.956   8.173 -0.0842 -0.1686 -0.1897
    1W        W42785  21.545   0.974   2.620  0.0136  0.2140  0.0120
    1W        W42786  27.747  12.826   0.676 -0.1041 -0.0561  0.0922
    1W        W42787  26.156   6.281   1.821 -0.0968 -0.1104 -0.2630
    1W        W42788  20.906   2.560   9.971  0.0943 -0.0641  0.0215
    1W        W42789  13.700  16.652   1.093  0.0579  0.2349  0.2461
    1W        W42790  18.488   2.320   8.763 -0.1675  0.1024  0.1257
    1W        W42791  26.721   6.720   7.568  0.1976  0.0974  0.0945
    1W        W42792  15.363  22.466   3.115 -0.2225  0.1825 -0.2932
    1W        W42793  13.191  24.792  10.361  0.1430  0.1846 -0.2317
    1W        W42794   0.319  10.365   9.619  0.2788  0.1044 -0.0612
    1W        W42795  15.776  19.204   2.133  0.3149 -0.1390 -0.0724
    1W        W42796   9.758  15.190   2.615 -0.0566 -0.1374  0.0452
    1W        W42797   1.602  26.035   2.377  0.1779 -0.0996  0.0162
    1W        W42798  21.506  14.220   1.733 -0.2067  0.0188  0.0882
    1W        W42799  17.982   8.834  10.210  0.2816  0.0075  0.2189
    1W        W42800   6.621  15.185   0.036 -0.0569 -0.4194 -0.4664
    1W        W42801  16.315   5.909   9.174 -0.0500  0.1715 -0.0165
    1W        W42802   3.918  20.719   0.965  0.0980 -0.0471  0.1734
    1W        W42803  10.267  11.870   0.415 -0.0298  0.2503 -0.0131
    1W        W42804  15.222  21.912   3.175  0.1775  0.3109 -0.0182
    1W        W42805  12.207   8.916   8.495 -0.0068 -0.0448 -0.2284
    1W        W42806  25.247  16.044   1.305  0.2140  0.1296 -0.2587
    1W        W42807   3.690  20.345   0.262  0.1231  0.2787  0.0164
    1W        W42808  27.789  12.860  10.106 -0.2900 -0.0023 -0.3314
    1W        W42809  25.383  16.691   7.385 -0.3436  0.0939  0.0865
    1W        W42810   2.619   3.527   1.806  0.0010  0.3071  0.0734
    1W        W42811  26.055   1.240   1.333  0.0018  0.2222 -0.3212
    1W        W42812   9.111  17.614   2.436  0.2511 -0.1557  0.0593
    1W        W42813   4.495   7.565   1.466  0.3002  0.1497 -0.0500
    1W        W42814  23.505  22.628   3.231 -0.0229 -0.0590 -0.0559
    1W        W42815  21.709  27.661   3.581  0.1784 -0.0180 -0.1879
    1W        W42816  11.664  19.866   2.491  0.3138 -0.2298  0.3022
    1W        W42817   5.146  19.476   3.242 -0.1211  0.1229 -0.1177
    1W        W42818  24.825  26.393   8.873  0.0754 -0.1839 -0.2746
    1W        W42819  26.631  24.357   8.060  0.2068  0.3184  0.1151
    1W        W42820   3.051  16.139   7.787  0.0673 -0.1069 -0.4202
    1W        W42821  11.776  18.336   1.020 -0.3375  0.0612  0.0225
    1W        W42822  27.408  27.811   8.769  0.2723 -0.1560  0.2912
    1W        W42823   1.053   0.594   7.362  0.3060 -0.3195 -0.0507
    1W        W42824  18.896   5.312   7.795 -0.0416  0.0766 -0.1331
    1W        W42825  10.679  15.189   9.795  0.2121 -0.0308  0.0143
    1W        W42826  15.095  10.841   8.020  0.2405 -0.0780  0.0855
    1W        W42827   8.221  21.803  10.180 -0.2603 -0.0927 -0.1268
    1W        W42828  21.014  15.617   3.093  0.2563 -0.1683  0.2520
    1W        W42829   9.584   7.587   7.474  0.1695  0.2203  0.2922
    1W        W42830  18.855   0.126   9.685  0.3552  0.1994 -0.3835
    1W        W42831  19.736   2.727   7.156 -0.0657  0.3648 -0.1859
    1W        W42832   6.064  17.687   0.706 -0.2230 -0.3368 -0.3065
    1W        W42833   5.011  13.141   7.242  0.0153  0.1494  0.0679
    1W        W42834  27.971   6.328   0.786 -0.1938 -0.3820  0.1939
    1W        W42835  19.332   4.587   7.963  0.2273  0.1110 -0.0888
    1W        W42836  28.043   4.897   9.337 -0.1116 -0.1465 -0.2592
    1W        W42837  20.773  19.545   1.217 -0.1932  0.1568 -0.1030
    1W        W42838   3.756  16.435   0.594  0.0941 -0.1641 -0.0584
    1W        W42839   5.375   0.908   7.408  0.0952 -0.2400 -0.0879
    1W        W42840  16.756  18.669   1.292  0.2712 -0.3379 -0.0141
    1W        W42841  24.334  19.268   0.746 -0.2184 -0.2900  0.1074
    1W        W42842  17.368   8.631   1.800  0.2742  0.1307  0.0485
    1W        W42843  19.792  10.212   7.858  0.1119  0.1100  0.0852
    1W        W42844  10.332   0.565   1.373 -0.1531 -0.0949  0.0684
    1W        W42845   6.181   5.510   0.371 -0.1330 -0.1795 -0.0031
    1W        W42846  27.757  20.758   1.309 -0.0765  0.2128  0.1319
    1W        W42847  18.740   5.268   0.677  0.1859  0.2049 -0.3135
    1W        W42848  13.307  13.005   7.978  0.0214 -0.1752 -0.0542
    1W        W42849   1.064  17.043   7.137  0.0517  0.0112  0.1376
    1W        W42850  16.806   4.784   9.161 -0.1175 -0.0051 -0.0814
    1W        W42851   2.691   0.794   0.315 -0.2569  0.0079  0.0026
    1W        W42852  26.931   7.362   0.367 -0.2261 -0.4096 -0.1225
    1W        W42853  17.046  20.716   9.179 -0.3267 -0.0602  0.4547
    1W        W42854   5.385  19.085   8.417  0.1631 -0.2599 -0.2045
    1W        W42855  16.156   2.423   0.938 -0.2365  0.0032  0.0303
    1W        W42856  16.045  20.142   0.519  0.1492  0.2013  0.0334
    1W        W42857  13.785  21.487   8.930 -0.0589  0.2962  0.0939
    1W        W42858  16.547   0.020   2.431 -0.1482  0.0113  0.2260
    1W        W42859  27.374  11.868   7.604  0.0098 -0.1992 -0.1225
    1W        W42860  12.356  23.020   0.622  0.1966 -0.0480 -0.0125
    1W        W42861   7.929  22.090   7.071  0.0760  0.1487  0.0058
    1W        W42862  20.663  21.039   8.852  0.1122 -0.1373  0.2018
    1W        W42863   8.190  15.265   7.834  0.0743  0.3310 -0.2585
    1W        W42864   9.595   0.637   8.799 -0.3560 -0.0825 -0.0065
    1W        W42865   3.346  12.473   0.394 -0.0295  0.3522 -0.3781
    1W        W42866  12.222  17.625   0.063  0.1727 -0.1418  0.0026
    1W        W42867   2.928  26.575   0.357  0.2433 -0.1046 -0.1528
    1W        W42868  11.771   5.859   8.268  0.1932  0.0118  0.1513
    1W        W42869  22.207  15.019   1.657 -0.3163  0.0138 -0.1606
    1W        W42870   6.647  12.097   0.113  0.0997  0.0546 -0.1765
    1W        W42871   4.808  15.397   7.872 -0.1020  0.1102 -0.0132
    1W        W42872   8.149  10.227   0.138 -0.0431 -0.1990 -0.1911
    1W        W42873  14.165  20.820   0.427  0.0412  0.0114  0.0564
    1W        W42874   4.953  26.632   1.793  0.0126 -0.2152  0.4103
    1W        W42875  23.853  13.353   9.380  0.1918 -0.3331  0.3054
    1W        W42876  19.702  11.690   0.526 -0.4650 -0.1828 -0.0181
    1W        W42877  19.627  17.102   9.310  0.1832  0.1023  0.1742
    1W        W42878  25.412  17.543   7.639  0.0626 -0.1188 -0.0202
    1W        W42879  16.500  17.763   0.104  0.0708  0.0444  0.1326
    1W        W42880  26.538   5.248   0.998  0.0687  0.1713 -0.0050
    1W        W42881   3.448   7.383   2.030 -0.2189  0.3529  0.2940
    1W        W42882  12.999  21.320   2.601 -0.1324  0.1176  0.3088
    1W        W42883  11.174   0.236   7.510  0.1013 -0.3343  0.0137
    1W        W42884   3.826  20.794   9.320  0.0050  0.0227 -0.1981
    1W        W42885  14.057   0.044   1.652 -0.1134  0.1094  0.1572
    1W        W42886   1.691   5.102   0.166  0.1255  0.2972  0.4036
    1W        W42887   9.286  25.689   1.301 -0.5305  0.0717 -0.0593
    1W        W42888  10.741  13.764   4.070  0.2528 -0.0579 -0.0957
    1W        W42889  21.988  15.157   0.555 -0.0424  0.0117  0.0939
    1W        W42890  14.204   1.812   4.102 -0.0252 -0.1256 -0.0637
    1W        W42891   4.130  17.484   9.970  0.3011  0.4286  0.2631
    1W        W42892   6.569   9.294   2.298  0.1302 -0.2207  0.2833
    1W        W42893  23.370   1.224   8.030 -0.2601  0.0497  0.1082
    1W        W42894   6.895  11.334  10.125  0.1962 -0.1839  0.2164
    1W        W42895  22.205   1.610   3.521 -0.0079 -0.1302  0.0265
    1W        W42896  27.746  11.033   0.870 -0.0304 -0.4594  0.2204
    1W        W42897  23.532  26.612   8.554 -0.2438 -0.1119  0.0836
    1W        W42898   7.704   1.259   6.817 -0.1797  0.2527  0.4217
    1W        W42899   7.330   4.791   0.587  0.0419  0.1404 -0.3211
    1W        W42900   1.330  15.277   7.847 -0.2778  0.1244  0.0185
    1W        W42901  14.981  14.353   9.209  0.1682  0.0641 -0.1433
    1W        W42902  17.741  17.932   3.074 -0.2143  0.1980 -0.0951
    1W        W42903  21.398  10.333   8.486  0.1773 -0.0400  0.1232
    1W        W42904  15.765   4.382   2.889 -0.0361 -0.2403 -0.4269
    1W        W42905  15.656  16.327   2.408  0.0135 -0.3130 -0.1103
    1W        W42906   8.349   8.789   1.557 -0.2309  0.0641 -0.0679
    1W        W42907  13.620  19.574   2.923  0.1606  0.1513  0.2038
    1W        W42908  21.909   2.422   9.499  0.0103 -0.3758 -0.3477
    1W        W42909  23.408  22.576  10.076 -0.2124 -0.1742  0.4804
    1W        W42910  23.528  27.750   0.923 -0.0951 -0.0667 -0.3289
    1W        W42911   1.744   2.007   7.543 -0.0299  0.3526 -0.1770
    1W        W42912  26.542  13.448   8.724 -0.1680  0.1522 -0.1663
    1W        W42913   1.891  12.589   0.362 -0.1441 -0.1634 -0.0292
    1W        W42914   7.556  25.696   8.948 -0.1845  0.1637 -0.3062
    1W        W42915  26.937  17.880   9.696  0.3840  0.1385  0.0125
    1W        W42916  13.820  10.172   1.947  0.1059 -0.2826 -0.3095
    1W        W42917  21.222  13.583  10.275  0.0309 -0.1351 -0.0396
    1W        W42918  20.330  15.745   9.331 -0.1963 -0.2778  0.0219
    1W        W42919   2.405  25.623   8.308  0.1113  0.2692  0.0996
    1W        W42920  18.100  26.801   8.576 -0.0864 -0.0316 -0.0179
    1W        W42921   4.625   5.206   6.988  0.0619  0.0281  0.0687
    1W        W42922  27.858   5.602  10.076  0.1234  0.0348 -0.3991
    1W        W42923   1.071  23.243   5.945  0.0563  0.2202  0.2319
    1W        W42924  27.356  17.442   8.649  0.0968  0.3568 -0.0996
    1W        W42925  10.444  27.740   9.942 -0.0755  0.0006 -0.0175
    1W        W42926  21.056  10.352   2.662 -0.2663  0.1555  0.1755
    1W        W42927   7.622  23.319   2.601  0.0288  0.0720 -0.0765
    1W        W42928  28.021   3.082  10.258 -0.0542 -0.1651 -0.3069
    1W        W42929   4.072  27.651   2.214 -0.0483  0.0103  0.0055
    1W        W42930   9.364  20.691   1.393  0.2325  0.0186 -0.0587
    1W        W42931  16.829   9.901   9.253  0.0157 -0.1038  0.1098
    1W        W42932  24.887   3.030   0.750  0.1751  0.2356  0.0273
    1W        W42933  23.811   0.881   7.944 -0.0781 -0.0498 -0.1029
    1W        W42934   2.519  25.713   9.488 -0.1237  0.2829  0.3529
    1W        W42935  11.815  16.527   0.704 -0.0668 -0.0693  0.1086
    1W        W42936  18.825   3.301   0.597  0.0413  0.2572 -0.0994
    1W        W42937  15.703   9.845  10.128  0.1930  0.1254 -0.2815
    1W        W42938  22.344   9.633   1.974 -0.0461 -0.1504 -0.1365
    1W        W42939  20.842   2.910   2.236  0.1843  0.2256  0.1969
    1W        W42940  12.249  14.483   3.943  0.0343 -0.1759  0.0413
    1W        W42941  18.996  13.110   1.721  0.1377  0.0500 -0.0108
    1W        W42942   7.537  24.558   8.658 -0.1593 -0.0510  0.2823
    1W        W42943   9.281  23.308   7.722  0.2362 -0.2477  0.0960
    1W        W42944  27.813   3.264   0.424  0.2228 -0.2030  0.2366
    1W        W42945  11.141  23.528   8.598  0.1562  0.0505 -0.0189
    1W        W42946  12.678  26.888   0.371 -0.2056 -0.1265 -0.1426
    1W        W42947   2.087   4.640  10.308  0.1116 -0.2787 -0.2608
    1W        W42948   3.050  22.413   7.625  0.2810  0.0222  0.2478
    1W        W42949  22.134  24.928   7.731  0.2250 -0.0733  0.0250
    1W        W42950   6.171   5.121   8.941 -0.1534  0.1522  0.1426
    1W        W42951  22.988  19.306   2.507 -0.0193 -0.5034  0.0124
    1W        W42952  12.648   4.812   8.904  0.0059  0.3365  0.0173
    1W        W42953   2.351   8.286   0.534 -0.1835 -0.0488  0.2363
    1W        W42954  11.918  20.610   0.511 -0.3762 -0.1802  0.0696
    1W        W42955   6.539  27.503   0.915  0.1245 -0.0810  0.1460
    1W        W42956  25.318   3.572   6.986 -0.0184 -0.2932 -0.0632
    1W        W42957  15.822  13.186   9.164  0.1145  0.0359 -0.0314
    1W        W42958   9.083   9.336   9.780 -0.0945 -0.0420  0.2512
    1W        W42959   8.215   7.146   8.373 -0.0158  0.0325  0.0485
    1W        W42960  10.795   7.346   0.429 -0.2740  0.1157  0.0624
    1W        W42961   8.687   9.681   7.681 -0.2885  0.2197  0.2603
    1W        W42962  26.653   1.122   2.276 -0.0318  0.0155  0.1111
    1W        W42963  10.448   0.259   7.258 -0.0275  0.1060 -0.1331
    1W        W42964   4.669   8.853   2.622  0.2175 -0.2758  0.0735
    1W        W42965  15.837   4.673  10.208  0.3260 -0.0873  0.0381
    1W        W42966  16.401   9.535   0.389 -0.0718 -0.0442 -0.1882
    1W        W42967  22.445  23.819   0.141 -0.4184  0.1142  0.2588
    1W        W42968   1.009  17.048   7.649 -0.0880  0.1716  0.2419
    1W        W42969  15.958  19.437   8.551  0.0674 -0.0977  0.3720
    1W        W42970  15.793  22.111   7.402 -0.0745  0.1386 -0.0554
    1W        W42971   3.503  19.903   0.947  0.0024  0.1616 -0.0616
    1W        W42972  23.959   0.824   3.645 -0.0058  0.2148 -0.1431
    1W        W42973  16.820  21.203   1.621  0.1548 -0.0680 -0.0306
    1W        W42974  13.468  23.778   7.110 -0.1685  0.2145  0.2507
    1W        W42975  11.348   0.889   9.514 -0.0527  0.1287  0.2867
    1W        W42976  10.800   1.626   9.983  0.0438 -0.0923  0.1481
    1W        W42977  22.141  10.040   1.682  0.0194  0.0208 -0.1198
    1W        W42978   9.409   2.633  10.167 -0.2634 -0.4520 -0.2256
    1W        W42979   2.779   9.571  10.030  0.2670 -0.3369  0.0735
    1W        W42980   2.614   6.513   0.121 -0.2914  0.0019  0.0182
    1W        W42981  14.553  18.428   9.929  0.0173  0.1496  0.0521
    1W        W42982  14.433   9.434   8.553 -0.3916  0.1890 -0.1418
    1W        W42983   2.422  21.571   0.208  0.1284  0.0178  0.0530
    1W        W42984  26.458  26.419   1.732 -0.2948 -0.2809  0.0621
    1W        W42985   5.524  13.604   8.523 -0.1763 -0.1180 -0.1746
    1W        W42986  14.730  18.535   0.606 -0.0758 -0.2822  0.1188
    1W        W42987  16.381  27.437   0.250 -0.4713  0.2317  0.1778
    1W        W42988  10.036   5.274  10.277 -0.0438  0.1059  0.0985
    1W        W42989  18.509   8.617   3.053  0.0032 -0.0937 -0.0486
    1W        W42990  13.354   6.733   9.692 -0.3098 -0.1740  0.2182
    1W        W42991   5.607   5.133   6.911 -0.3423 -0.0488 -0.1087
    1W        W42992  27.147  22.769   9.526  0.0949  0.1199 -0.0213
    1W        W42993  25.201  12.436  10.020  0.0659  0.0026 -0.0129
    1W        W42994  26.886  12.185   9.461 -0.0441 -0.1698  0.1445
    1W        W42995  18.498   0.955   2.001  0.1174  0.0637 -0.0347
    1W        W42996   0.500  18.403   1.138 -0.0835  0.2276  0.0373
    1W        W42997  13.137  10.551   1.492  0.2776  0.2102 -0.0685
    1W        W42998   4.454  21.350   0.590 -0.1446  0.1685 -0.1062
    1W        W42999  17.035   6.818   3.946 -0.0472 -0.0309 -0.1437
    1W        W43000  15.324  26.739  10.217  0.1611 -0.1731  0.0697
    1W        W43001  15.869  18.028   1.076 -0.0468  0.2063 -0.0317
    1W        W43002  11.097  27.956   9.968  0.0350 -0.1884  0.0616
    1W        W43003  22.521  24.517   7.079  0.2292  0.1327  0.3850
    1W        W43004   5.016   3.544  10.047 -0.0964  0.0485 -0.2916
    1W        W43005   8.515   9.284  10.060  0.1240 -0.1417  0.1227
    1W        W43006   7.247   0.194   7.588  0.2592  0.2025  0.0554
    1W        W43007  24.876  10.282  10.081  0.4167 -0.4107  0.2034
    1W        W43008   9.741   0.649   0.651  0.2584  0.1607 -0.2628
    1W        W43009   8.467  27.879   0.645 -0.2169 -0.1892 -0.2417
    1W        W43010   3.848   5.566   7.350 -0.0030  0.2538  0.2654
    1W        W43011   5.867  22.642   7.335 -0.3315 -0.2099  0.0618
    1W        W43012   0.764  26.178   0.403 -0.0586 -0.0418  0.2146
    1W        W43013   1.478  26.467   7.631  0.0248  0.0698 -0.1743
    1W        W43014  26.970   9.339  10.146 -0.2499 -0.0861 -0.2278
    1W        W43015  17.568   9.011   2.768 -0.2324  0.0836  0.3667
    1W        W43016  18.397  26.589   8.894 -0.0934  0.1948 -0.2324
    1W        W43017  27.550   8.719   7.663 -0.1756 -0.0556 -0.0040
    1W        W43018   7.585   0.733   6.732  0.0464  0.0910  0.0389
    1W        W43019  18.321  16.313   7.998 -0.1760  0.0029  0.0921
    1W        W43020  24.911   2.579   2.688 -0.1413  0.1135  0.2318
    1W        W43021   5.494  27.202   8.974 -0.0771 -0.5456  0.0099
    1W        W43022   5.484  13.336   9.777  0.1711  0.0619  0.0389
    1W        W43023  14.875   6.563   9.530 -0.1180  0.2031 -0.0875
    1W        W43024  26.438  21.744   7.295  0.0395  0.2533 -0.3751
    1W        W43025  26.769  22.152   8.074  0.1021 -0.2375 -0.0940
    1W        W43026  20.485  11.453   9.788  0.1400 -0.0752 -0.0932
    1W        W43027   7.328   4.649   0.045  0.1684 -0.0779 -0.1146
    1W        W43028  22.056  10.520   9.637  0.0699 -0.0144  0.0666
    1W        W43029   5.179  23.465   2.889 -0.1873 -0.1709  0.2496
    1W        W43030  21.697   8.961  10.235 -0.0871  0.2416 -0.0248
    1W        W43031   6.665  12.650   7.694 -0.4041  0.0440  0.0531
    1W        W43032  23.526   5.462   1.854 -0.2311  0.1027  0.1117
    1W        W43033  27.200   1.150   0.925 -0.0185 -0.0702  0.0669
    1W        W43034   4.524   8.380   7.329  0.0224  0.2310  0.1624
    1W        W43035  16.772  27.088   2.515 -0.2575 -0.1207  0.2175
    1W        W43036   2.918   3.214   1.376  0.0262 -0.2232 -0.2774
    1W        W43037  22.990   0.602   3.702  0.0398 -0.0129 -0.0145
    1W        W43038   5.969   9.399   1.751  0.0764  0.1082  0.0248
    1W        W43039   8.202  20.105   1.256  0.0719 -0.0551 -0.3175
    1W        W43040  14.328   5.963   7.467 -0.0125 -0.2833  0.0815
    1W        W43041  10.668  24.210   7.056  0.1039 -0.0999 -0.0270
    1W        W43042   1.306  19.867   9.468  0.6317 -0.1303  0.1907
    1W        W43043  20.608  12.439   7.436  0.2200 -0.2364 -0.1045
    1W        W43044  22.033  12.006   2.417  0.0456 -0.3057 -0.0216
    1W        W43045  17.607  25.673   3.624 -0.1494  0.1995  0.0646
    1W        W43046  15.219   4.306   0.130 -0.3701  0.0029  0.0714
    1W        W43047   5.689  24.311   7.841 -0.1207  0.1805  0.1053
    1W        W43048  17.971  24.577   0.050  0.1802 -0.1913  0.1987
    1W        W43049   1.658  24.226   9.627  0.1938 -0.1299 -0.0739
    1W        W43050   9.662   6.198   1.253  0.0385  0.1615  0.0188
    1W        W43051   0.098  22.455   0.059  0.4992 -0.0176  0.1208
    1W        W43052   2.310  21.438   9.467 -0.0974 -0.0551  0.2839
    1W        W43053   2.759  27.195   8.322 -0.1615 -0.0961  0.1182
    1W        W43054   2.603   7.282   1.666 -0.0646 -0.1363  0.1844
    1W        W43055   8.477   2.528   8.416  0.1214 -0.2632 -0.2254
    1W        W43056   7.661  22.484   9.644 -0.2516  0.3278  0.1583
    1W        W43057  11.273   9.661   0.511 -0.1816 -0.3549  0.2187
    1W        W43058   8.371  17.835   8.798  0.0513 -0.0678 -0.0217
    1W        W43059   6.804   7.365   8.889  0.0990  0.0058 -0.2981
    1W        W43060  19.238   1.643   1.555 -0.0614  0.0960  0.2056
    1W        W43061  17.508  25.570   8.470 -0.2071 -0.0565 -0.0705
    1W        W43062  11.198  18.525   1.031  0.1612  0.0075 -0.0363
    1W        W43063  14.459   4.488   8.473 -0.0084  0.2792 -0.3386
    1W        W43064   8.039  17.295   8.523 -0.2757  0.0640 -0.0277
    1W        W43065  10.764  18.716   8.348 -0.1939 -0.2662 -0.2958
    1W        W43066   6.785  11.066   7.523  0.0565  0.0935 -0.0270
    1W        W43067  13.156   1.241   1.345  0.1447 -0.1902  0.1620
    1W        W43068  18.430  12.351   7.445  0.1310 -0.0659  0.0037
    1W        W43069  14.443  23.592   0.620 -0.0242 -0.0509 -0.1481
    1W        W43070  10.065   0.936   2.326 -0.2099 -0.3334 -0.0756
    1W        W43071  10.060  24.307   9.959  0.1392 -0.0860 -0.0839
    1W        W43072   3.684   4.456   7.941  0.1868 -0.0981 -0.2747
    1W        W43073   0.907   3.409   8.949 -0.1551  0.2566 -0.0908
    1W        W43074  16.533   3.622   2.872  0.2630 -0.2736  0.1202
    1W        W43075  17.085  12.406  10.149  0.1545  0.0135  0.2141
    1W        W43076  20.530   8.583   3.180  0.1444 -0.1889  0.0525
    1W        W43077   6.876   1.130   0.317  0.1583 -0.3217  0.2737
    1W        W43078  14.436  24.384   2.238  0.3079  0.0584  0.1642
    1W        W43079   2.486  14.632   7.873 -0.0614 -0.1599 -0.0664
    1W        W43080   4.411  19.078   3.747 -0.0649 -0.1388 -0.0142
    1W        W43081  22.694   2.715   8.153  0.1254 -0.1778  0.0905
    1W        W43082  10.449  19.360   2.081  0.0948 -0.1187 -0.0425
    1W        W43083  14.312  21.853   3.507  0.1623  0.0490  0.0332
    1W        W43084  25.997  10.876   0.163 -0.1737  0.1978 -0.1055
    1W        W43085  25.255  27.887   1.323  0.0253  0.2457  0.0018
    1W        W43086  23.142   5.715   2.018  0.1179  0.2319 -0.0871
    1W        W43087  27.653   3.308   6.954  0.2668  0.1120 -0.1606
    1W        W43088  25.553  18.842   9.972  0.3878 -0.2077 -0.0129
    1W        W43089  18.225   5.123   0.160 -0.1250 -0.1180  0.1942
    1W        W43090   3.790  11.691   1.151  0.1167 -0.0255 -0.1580
    1W        W43091  14.274  26.169   1.850  0.5656  0.0592 -0.1244
    1W        W43092  14.819  23.531   2.095  0.2271 -0.0648 -0.1603
    1W        W43093  15.215   8.214   0.115  0.0774  0.0313 -0.1633
    1W        W43094  24.210   0.960   0.212  0.2461 -0.1051 -0.0530
    1W        W43095   0.211   0.060  10.359  0.0509  0.0338 -0.0557
    1W        W43096  13.265  19.115   2.232  0.2044  0.2159  0.1249
    1W        W43097   7.618   8.900   2.641 -0.1130  0.1069  0.2074
    1W        W43098   3.280  10.951   9.012  0.0999  0.1211 -0.0669
    1W        W43099  27.011  27.003   9.227 -0.0813 -0.0298 -0.0179
    1W        W43100   5.535  14.794  10.131  0.3905 -0.1407  0.1722
    1W        W43101  14.764  12.349   0.073  0.0785  0.0606 -0.0618
    1W        W43102   7.290  24.357   7.245 -0.3541 -0.1162 -0.2283
    1W        W43103   0.866   8.629   0.583  0.0225 -0.1054  0.2265
    1W        W43104   4.442  12.369   7.732 -0.0603  0.0420 -0.2379
    1W        W43105  19.106  19.008   9.653 -0.2779  0.1192 -0.2584
    1W        W43106   2.568  20.448   9.481  0.1076 -0.0365 -0.0803
    1W        W43107  14.442   4.752   7.695 -0.0797 -0.3884 -0.4847
    1W        W43108  18.515   2.535   8.221 -0.6274 -0.2572  0.2693
    1W        W43109  15.508  16.800   3.078  0.1116 -0.2270 -0.2306
    1W        W43110  17.675  14.748   0.053 -0.1984 -0.1761  0.1878
    1W        W43111   6.648  14.896   2.897  0.2114  0.2219 -0.1196
    1W        W43112  10.296   7.144   0.378  0.0994 -0.3098  0.0626
    1W        W43113  26.107  20.788   7.696  0.1090 -0.2798  0.2900
    1W        W43114  17.260  19.188   8.382 -0.1049  0.0721  0.1034
    1W        W43115   2.489  14.030   0.219 -0.1672  0.0160 -0.2426
    1W        W43116  16.386   4.674   2.980  0.0831  0.1069  0.0253
    1W        W43117  20.690  26.615   8.032  0.0548  0.3947  0.0367
    1W        W43118  16.145   5.452   1.739  0.1781 -0.1206 -0.1647
    1W        W43119  21.921  25.629   8.456  0.2627  0.0328  0.2570
    1W        W43120   7.723   0.601  10.325  0.2416 -0.0140  0.0029
    1W        W43121  17.437  22.251   7.398 -0.2217  0.0122  0.1679
    1W        W43122   3.559  19.254   7.917 -0.2833 -0.3011  0.0641
    1W        W43123   9.456  22.824   2.466  0.1507 -0.3366 -0.0019
    1W        W43124  15.639  16.144   0.037 -0.2062 -0.4302  0.0558
    1W        W43125  20.889  21.211   7.814 -0.1813  0.0925 -0.0740
    1W        W43126  24.764  17.122   6.678 -0.2028 -0.0741  0.0564
    1W        W43127  20.112  11.099   7.439 -0.0337  0.2381 -0.0808
    1W        W43128   1.003  13.331   2.715 -0.0544 -0.1224  0.0370
    1W        W43129   5.257  17.763   1.762 -0.1731  0.0506  0.1983
    1W        W43130  10.533  24.813   2.685 -0.0300  0.0584  0.1285
    1W        W43131   7.631   6.147   1.219  0.1496  0.3343 -0.0572
    1W        W43132   2.024  14.404   7.869 -0.0425  0.1324 -0.0690
    1W        W43133  14.463  12.408   2.280 -0.3427 -0.0222 -0.0801
    1W        W43134   8.961   6.373   8.311 -0.2013  0.0226 -0.0608
    1W        W43135  26.172   2.451   8.711  0.1107  0.0626 -0.1787
    1W        W43136  27.395   5.193   9.475  0.0680  0.0760  0.1116
    1W        W43137   9.692  27.864   6.975  0.0665  0.3349 -0.2050
    1W        W43138  13.043  10.423   9.152  0.0364  0.1743 -0.2039
    1W        W43139   5.120  16.227   9.478 -0.0123  0.1998  0.1159
    1W        W43140  11.586  19.935   9.115  0.2072  0.1436  0.0795
    1W        W43141  13.065  25.959   3.080 -0.3498  0.1488  0.2835
    1W        W43142   3.578  19.810  10.357 -0.0142 -0.0699  0.0125
    1W        W43143  17.154  16.838  10.363 -0.4086  0.2034 -0.2929
    1W        W43144   7.954  11.045   9.878  0.0543 -0.1251  0.2243
    1W        W43145  12.792  22.824   0.988  0.1825 -0.0680 -0.0567
    1W        W43146  10.320  14.279   9.188  0.1343  0.1656  0.4114
    1W        W43147  22.784  11.981   9.360  0.1677 -0.0383  0.1146
    1W        W43148  16.889   5.883   9.245  0.0702  0.0299  0.0190
    1W        W43149  16.379   4.992   1.550 -0.1151  0.1812  0.2694
    1W        W43150   6.949   0.599   0.364  0.0576 -0.1982 -0.1919
    1W        W43151   2.955   5.368   7.844  0.2940 -0.0487 -0.2216
    1W        W43152  22.705  20.679   7.395  0.3640  0.1381  0.0117
    1W        W43153  19.916  23.245   8.323  0.1808 -0.1143 -0.0679
    1W        W43154   9.821  24.367   0.493 -0.0724 -0.1481  0.0241
    1W        W43155   9.074  14.266   7.622  0.1448 -0.1949 -0.0334
    1W        W43156   7.125   9.458   0.604  0.0484 -0.3257 -0.1859
    1W        W43157   1.672   9.509   7.935  0.1008  0.1726 -0.3052
    1W        W43158  27.400  22.474   0.040  0.2614  0.1241  0.0592
    1W        W43159  13.320  11.461   9.444 -0.3218  0.0047  0.2781
    1W        W43160  10.664   2.470   1.124  0.2676 -0.1364 -0.3032
    1W        W43161   1.337  23.613  10.298 -0.3706  0.0894  0.1791
    1W        W43162  16.318  25.951   3.377  0.0850  0.3392 -0.1494
    1W        W43163  21.954  25.037   1.959  0.2394  0.0782 -0.2308
    1W        W43164  15.526   0.762   3.621  0.0361 -0.1019  0.0922
    1W        W43165   6.910  25.217   9.212 -0.4397 -0.2425  0.0016
    1W        W43166  25.121   6.039   9.913 -0.0729 -0.0435  0.1162
    1W        W43167  15.802  22.775   1.917  0.0470  0.3099 -0.0981
    1W        W43168   3.117  19.173   8.657  0.0040 -0.2127 -0.0290
    1W        W43169   3.801  12.370   9.617  0.0065  0.0555  0.1229
    1W        W43170   5.972   9.949   1.707 -0.0937  0.0906  0.3444
    1W        W43171   1.267   3.731   9.093  0.1972 -0.2671  0.1100
    1W        W43172  20.007   8.187   7.598 -0.3338  0.1571  0.1086
    1W        W43173   8.462  18.743   1.669  0.1240  0.2130  0.0902
    1W        W43174  21.832  14.410   2.572  0.0005 -0.0652  0.3203
    1W        W43175  18.635  25.817   8.803  0.1769 -0.3346 -0.1054
    1W        W43176   9.076   1.906   9.752  0.1803  0.1250 -0.3752
    1W        W43177   3.267  15.346   7.472  0.2088  0.1176 -0.0685
    1W        W43178  27.428  14.414   8.760 -0.0149  0.3174  0.0755
    1W        W43179  15.013  15.987   0.429  0.1492  0.0026 -0.0857
    1W        W43180  24.324  23.348   7.774 -0.2165  0.1152 -0.0231
    1W        W43181  25.333  10.655   8.917 -0.0894  0.0787  0.0047
    1W        W43182  13.603  28.061   3.519 -0.1987  0.1789 -0.1781
    1W        W43183  21.910   8.264   1.972 -0.0736  0.0049 -0.1507
    1W        W43184  21.602  28.032   7.249  0.1557  0.0796  0.1962
    1W        W43185  12.172  27.780   8.303  0.0209  0.2542  0.2046
    1W        W43186  14.338   4.141   1.957 -0.0432  0.0251  0.1225
    1W        W43187   4.545   8.817   3.236  0.1999  0.0326  0.0470
    1W        W43188   1.067   0.039   9.039 -0.0389 -0.0449 -0.1404
    1W        W43189  18.178   7.887   8.417  0.0015 -0.2669  0.2683
    1W        W43190  13.498  25.658   9.266 -0.0800  0.1535 -0.0123
    1W        W43191   9.851   5.081   3.049  0.1724 -0.1916  0.0176
    1W        W43192  19.315  16.601   9.419  0.0007 -0.0466 -0.4111
    1W        W43193   0.013   4.857   9.855  0.0728  0.1378 -0.0825
    1W        W43194  13.289  15.127   3.775 -0.1840 -0.1324 -0.3460
    1W        W43195  15.476  21.825  10.110 -0.0263  0.2680 -0.0420
    1W        W43196  20.808  11.212   7.948  0.0631  0.0026  0.1389
    1W        W43197   7.251   3.721   7.003 -0.2680 -0.3260  0.2051
    1W        W43198  11.880  15.631   0.147 -0.0107 -0.1107 -0.2660
    1W        W43199  22.886  20.435   8.232  0.0219  0.1505  0.0058
    1W        W43200  17.035   0.299   8.188  0.1966  0.3864  0.4103
    1W        W43201  13.928  20.048   2.874 -0.1728  0.0548  0.2457
    1W        W43202  25.256   6.420   0.159  0.1323 -0.1939  0.2336
    1W        W43203  13.419  25.941  10.187 -0.1756  0.1231  0.1452
    1W        W43204  21.266  27.448   9.640 -0.1399 -0.1913 -0.0307
    1W        W43205   5.362  15.017   9.314 -0.3427  0.2799 -0.0572
    1W        W43206  23.427   4.692   7.545  0.1177 -0.1773 -0.2487
    1W        W43207   2.392  18.689   0.699 -0.1797 -0.1522  0.2548
    1W        W43208  19.370  28.118   9.818 -0.0712  0.1856  0.1133
    1W        W43209  22.016  22.113   1.781  0.1048 -0.0339  0.1234
    1W        W43210  17.932  13.891   0.482  0.2404 -0.1223  0.0470
    1W        W43211  10.138  20.931   1.150 -0.1886 -0.0319  0.3278
    1W        W43212  17.674  11.971   8.868 -0.3329 -0.5290  0.0468
    1W        W43213  18.444   5.421   2.690  0.1049  0.2171 -0.0796
    1W        W43214  10.176   6.240   1.320  0.3402  0.0708 -0.0231
    1W        W43215   9.128  13.891   9.700  0.1231 -0.0472  0.0130
    1W        W43216  11.898  10.668   1.049  0.0552  0.1525  0.0982
    1W        W43217  12.735  10.390   3.540  0.0868 -0.2649  0.0134
    1W        W43218   6.844   9.370   1.021  0.4328  0.0066  0.0973
    1W        W43219  25.888  15.390   2.747  0.0684  0.2635  0.0747
    1W        W43220  10.946  18.636   0.514 -0.2446  0.0097 -0.1946
    1W        W43221  22.170  17.336   2.068 -0.2814 -0.0618  0.1267
    1W        W43222  20.750   4.987   7.344  0.3713 -0.0817 -0.1786
    1W        W43223   9.923   5.991   8.646  0.0034  0.0359 -0.2104
    1W        W43224   0.148   6.541   1.133 -0.0389 -0.1508 -0.0923
    1W        W43225   8.025   1.775   6.859  0.0680 -0.1639  0.1044
    1W        W43226  19.922  10.044   8.641  0.0664 -0.2231 -0.0685
    1W        W43227  15.521  28.102   2.566  0.3198  0.1156 -0.1003
    1W        W43228  17.003   8.604   0.593  0.0415  0.0497  0.0755
    1W        W43229  22.718  17.625   7.472  0.0164  0.0873  0.0648
    1W        W43230   3.335  17.858   0.161 -0.1544 -0.0703 -0.2196
    1W        W43231   1.025  27.736   9.922 -0.0657  0.2639  0.0845
    1W        W43232  18.203   7.139   1.644 -0.0748 -0.0424 -0.2849
    1W        W43233  10.266  22.619   8.525 -0.0712  0.3025  0.1029
    1W        W43234  14.412   2.847   0.481  0.1249  0.2180  0.5403
    1W        W43235   6.832  22.619   1.510 -0.3875  0.1722 -0.0324
    1W        W43236   2.366  20.551   1.440 -0.3460 -0.2961 -0.0434
    1W        W43237   1.612  12.147   1.750  0.0758  0.1014  0.0485
    1W        W43238  23.297  15.758   2.624 -0.0780  0.0325  0.0665
    1W        W43239   8.881  14.155  10.090  0.5133  0.0354  0.0007
    1W        W43240  12.087  19.797   7.785  0.1486 -0.0107 -0.1872
    1W        W43241  25.162  22.348   7.118 -0.3142 -0.0857 -0.0322
    1W        W43242   5.531   4.084  10.050  0.0963  0.0434 -0.1665
    1W        W43243  23.077  17.804   0.490 -0.0601  0.3535 -0.6119
    1W        W43244  23.004   2.214   0.398  0.0249  0.3258  0.0406
    1W        W43245  13.191  26.687   9.346 -0.0464  0.0824 -0.0114
    1W        W43246   3.553  16.331   7.814  0.1485  0.2758  0.2229
    1W        W43247   8.227   7.317   9.898 -0.2914  0.0441 -0.1424
    1W        W43248   0.859  23.879   7.994  0.3261 -0.0525  0.0852
    1W        W43249   3.046   8.750   0.963 -0.0810 -0.1603  0.1669
    1W        W43250  17.271  19.034   2.946 -0.0926 -0.1862  0.2100
    1W        W43251   9.565  11.885   0.157 -0.1297 -0.2200 -0.1777
    1W        W43252   8.396  20.199   9.347 -0.0349 -0.2296 -0.0879
    1W        W43253   2.643  27.915   8.113  0.1109  0.1334 -0.0770
    1W        W43254   8.484  22.821   1.306 -0.0809 -0.1207 -0.0287
    1W        W43255  18.546   8.481   7.646 -0.0168 -0.0055 -0.1310
    1W        W43256  13.230  24.512   9.450  0.0485  0.0783  0.1206
    1W        W43257  17.323  11.519   2.879 -0.0117  0.4362 -0.2095
    1W        W43258  11.835  24.374   0.264 -0.1868 -0.3339 -0.3010
    1W        W43259  15.891  27.670  10.090  0.0222  0.2702 -0.0078
    1W        W43260  21.667   0.509   1.301 -0.0848 -0.1115 -0.0299
    1W        W43261  13.774  11.430   3.128 -0.0978  0.0423  0.1265
    1W        W43262   2.419   0.569   2.380  0.1892  0.0607 -0.4199
    1W        W43263  10.249  15.206   3.156  0.1062 -0.1685 -0.1085
    1W        W43264  26.122   2.461   9.694  0.4048 -0.0326  0.8663
    1W        W43265  11.662  24.416   9.764 -0.2813  0.3318 -0.2073
    1W        W43266   7.723   9.771   2.974  0.0115  0.0039 -0.1530
    1W        W43267  24.096  26.731   0.583 -0.1979  0.4118  0.2013
    1W        W43268   0.019  26.449   6.749 -0.3043  0.0211  0.1350
    1W        W43269  22.292  10.878  10.134  0.0475  0.1441 -0.2122
    1W        W43270  15.183   2.784   7.851 -0.0226 -0.0146  0.0515
    1W        W43271  19.747  23.608   1.426  0.1878 -0.2147 -0.1814
    1W        W43272  14.574   3.578   8.112 -0.2499 -0.0311  0.0112
    1W        W43273  13.852   0.182   9.811 -0.1584 -0.1742 -0.0373
    1W        W43274  21.964  23.196   9.955  0.4506  0.6414 -0.0973
    1W        W43275  23.700  27.481   8.339 -0.0484  0.4102 -0.1065
    1W        W43276   7.558  25.216   2.216 -0.0095 -0.0154 -0.1030
    1W        W43277   6.919  14.297  10.329 -0.0017  0.0030 -0.0860
    1W        W43278   5.021  25.270   1.817 -0.3654  0.1233  0.1679
    1W        W43279   4.834  23.439   0.335  0.0206 -0.2245 -0.3541
    1W        W43280  14.434   3.374   9.954 -0.1592 -0.1031  0.0399
    1W        W43281  18.644  10.197   8.903 -0.3539  0.1041  0.1556
    1W        W43282  22.277  20.559   0.542  0.0653 -0.1853  0.0111
    1W        W43283  26.101  23.074   1.651  0.0963  0.1274 -0.2065
    1W        W43284  22.884   1.016   0.109 -0.0859  0.0409  0.2245
    1W        W43285  24.498  23.976   9.568 -0.3268  0.1641  0.0002
    1W        W43286  16.727  20.610   1.705 -0.0650  0.0632 -0.0136
    1W        W43287  14.229   0.473   0.529  0.0146 -0.1691  0.0635
    1W        W43288  11.124   7.686   1.240 -0.1173  0.2529 -0.1801
    1W        W43289  18.784  25.505   3.041  0.0214  0.1024 -0.1358
    1W        W43290  17.920  14.579   0.461  0.0816  0.2312  0.2702
    1W        W43291  21.314   5.675   2.887  0.1533 -0.1801  0.0683
    1W        W43292   7.921  16.747   2.908 -0.2251  0.0969  0.0436
    1W        W43293  14.441  21.343   3.079  0.2990 -0.0579  0.1794
    1W        W43294   5.832  15.329   8.703  0.0001  0.1849 -0.3713
    1W        W43295   9.214  21.613   1.840 -0.3656  0.0382  0.1976
    1W        W43296  11.434  19.218   2.128  0.1629 -0.0735 -0.0155
    1W        W43297  20.546  12.878   1.678 -0.3085 -0.1581 -0.0371
    1W        W43298   3.598  23.270   0.385 -0.0783 -0.1416 -0.0213
    1W        W43299  15.461   2.285   0.340  0.0260 -0.3140 -0.1037
    1W        W43300  18.403  12.325   0.805  0.1256  0.0616  0.2672
    1W        W43301   9.788   3.129   2.824 -0.0866 -0.0804  0.0408
    1W        W43302  17.169   2.386   3.079 -0.2720 -0.1398  0.1403
    1W        W43303  27.614  14.594   6.917  0.1350  0.1171 -0.1449
    1W        W43304   3.989  23.750   9.792  0.2526  0.0360  0.1861
    1W        W43305  22.647  19.469   3.656 -0.0350 -0.0643 -0.1044
    1W        W43306  27.011  26.346   0.842 -0.4501  0.0588 -0.0647
    1W        W43307  22.203  21.643   0.866  0.1913 -0.1400  0.0447
    1W        W43308   5.708  17.962   8.220 -0.1797  0.2382 -0.3180
    1W        W43309  21.812   8.791   9.617 -0.0022 -0.0452  0.3761
    1W        W43310   0.103   4.649   8.590  0.0573  0.1094 -0.1673
    1W        W43311  18.102   7.570   1.897  0.0374 -0.0593  0.1127
    1W        W43312  14.499  14.788   9.116  0.3580  0.0677 -0.1361
    1W        W43313   7.287  12.337   9.124 -0.0967 -0.0123 -0.2857
    1W        W43314  20.455   5.550   0.719  0.2588 -0.4380  0.3171
    1W        W43315  27.708   2.009   2.121  0.1800 -0.0487 -0.0881
    1W        W43316   7.786  23.206   9.697  0.3203  0.0263  0.2749
    1W        W43317   5.198  24.281   8.035  0.1482 -0.0334 -0.2823
    1W        W43318   8.151   9.749   9.815 -0.0054 -0.2273 -0.3020
    1W        W43319   2.974  27.012   2.205  0.0189  0.2813  0.3328
    1W        W43320  16.552  15.547   0.712 -0.0144  0.1778 -0.3313
    1W        W43321   4.381  25.020   9.444  0.1464 -0.1415  0.1827
    1W        W43322   0.769  23.136   8.831 -0.1370 -0.2193 -0.1209
    1W        W43323  17.869   7.097   3.587 -0.1568  0.1913  0.3648
    1W        W43324  15.206  17.437   8.633 -0.4265  0.0518  0.1492
    1W        W43325  10.879   0.398   2.575 -0.1321 -0.0089  0.1728
    1W        W43326  19.811  19.631   1.090 -0.3642 -0.1904  0.0767
    1W        W43327  26.836  14.255   7.059 -0.4254  0.0547  0.2263
    1W        W43328  17.362   6.055   9.104 -0.0662  0.3012  0.2808
    1W        W43329   0.080  13.676   9.529 -0.0127  0.1218 -0.0853
    1W        W43330  26.293  15.895  10.151 -0.1228 -0.4371 -0.1592
    1W        W43331   1.048   3.182   7.778 -0.1881  0.0753 -0.3461
    1W        W43332   3.524  12.073   1.715  0.0526  0.1772  0.2123
    1W        W43333   2.221  24.405   2.555 -0.0099  0.0535  0.3267
    1W        W43334  15.702   4.538   9.322  0.3072 -0.1593  0.0976
    1W        W43335  12.242  13.114   3.139  0.1235  0.1260 -0.0115
    1W        W43336   8.942  15.239  10.043 -0.0226  0.0399 -0.1635
    1W        W43337  21.649  17.501   2.103  0.0348 -0.0035  0.0646
    1W        W43338   1.128  19.388   8.540  0.0037  0.1639 -0.1728
    1W        W43339  26.522  20.529  10.214  0.2439  0.1289  0.1045
    1W        W43340  21.538   7.125   3.242 -0.0619  0.3424  0.1466
    1W        W43341  18.727  16.582   8.271  0.0757  0.2635  0.0918
    1W        W43342  10.467   2.097   1.821  0.0025 -0.0552 -0.2217
    1W        W43343   3.413  16.150   7.384 -0.0799 -0.1988 -0.0410
    1W        W43344  15.519   9.065   3.406  0.1451  0.0638 -0.1437
    1W        W43345  26.921  23.539   9.623 -0.0542  0.1640 -0.2968
    1W        W43346  27.056   6.543   7.911 -0.2536  0.2073  0.1042
    1W        W43347  14.358   5.981   7.946 -0.0316  0.0339 -0.1827
    1W        W43348  16.292  11.895   7.498  0.1826  0.1127  0.0436
    1W        W43349   2.689  11.278   1.190 -0.3418 -0.1310  0.0481
    1W        W43350   1.113  10.015   9.998  0.3406 -0.0583  0.0729
    1W        W43351  16.990  20.728   8.133 -0.0894 -0.1523 -0.2333
    1W        W43352   5.397  12.387   7.377  0.1040  0.2497  0.0610
    1W        W43353  23.533  22.454   6.443  0.0648  0.1294 -0.0968
    1W        W43354  14.673  26.559   9.218  0.0470 -0.0360  0.5260
    1W        W43355  23.755   7.612   7.451 -0.1017  0.0575  0.0297
    1W        W43356   2.814  24.269   7.143  0.3231 -0.2315 -0.1279
    1W        W43357  26.282   2.945   1.222  0.0643 -0.1003 -0.0860
    1W        W43358   1.583  12.888   8.997  0.3945  0.0977 -0.2845
    1W        W43359  23.618   8.396   8.531 -0.0418 -0.1684 -0.3590
    1W        W43360  17.584  11.888   1.644  0.0097  0.1818 -0.2107
    1W        W43361  19.975  13.052   7.360 -0.0894 -0.1316 -0.2688
    1W        W43362  13.556   5.413   1.864  0.3883  0.2306  0.0868
    1W        W43363  26.822  12.973   1.837  0.1215  0.1879  0.0548
    1W        W43364   0.670  24.904   7.432  0.0160 -0.4230 -0.0855
    1W        W43365  16.449  14.229   0.438  0.1634  0.0979 -0.1159
    1W        W43366  12.710  27.606   2.742 -0.2682  0.0879  0.1782
    1W        W43367  26.400   0.503  10.078  0.1744 -0.1642 -0.1301
    1W        W43368  23.167  13.450   7.731  0.0790  0.0661 -0.0390
    1W        W43369   9.816   2.754   2.563 -0.1964  0.2959 -0.1547
    1W        W43370   8.798  10.835  10.351 -0.0364  0.0167  0.0322
    1W        W43371  18.117   3.223   9.815  0.2873  0.1017  0.1671
    1W        W43372   9.065   2.605   0.555  0.0144  0.1820  0.2473
    1W        W43373   7.288   5.683   0.336 -0.2905 -0.0722 -0.1691
    1W        W43374  12.315   7.148   2.250  0.3224 -0.2785 -0.1039
    1W        W43375   0.958  22.989   9.890 -0.3548 -0.3075 -0.0084
    1W        W43376   5.296  22.314   0.984 -0.0552  0.6256 -0.1413
    1W        W43377  19.605  14.626   9.539 -0.1288  0.1136  0.1145
    1W        W43378  11.049  21.457   0.379  0.2465 -0.2132 -0.1554
    1W        W43379  14.529  14.879   1.211  0.0211  0.2784  0.3536
    1W        W43380   6.731   8.178   7.541  0.0229 -0.1601 -0.1699
    1W        W43381  15.246  23.926   9.861  0.0859 -0.1472 -0.1591
    1W        W43382  28.098  16.930   0.348 -0.2467 -0.1511  0.1087
    1W        W43383  26.703   7.421   8.451  0.1024  0.1294  0.0330
    1W        W43384   3.050   4.512   1.783  0.2245  0.1663 -0.1568
    1W        W43385   6.545   9.239   0.236 -0.1579 -0.4430  0.4682
    1W        W43386   1.351  13.260   9.699 -0.0066  0.3691  0.0224
    1W        W43387   6.188  27.275   2.453 -0.0563  0.1501 -0.1732
    1W        W43388   3.865  22.702   1.636  0.2480  0.1188 -0.0375
    1W        W43389  11.652   4.999   1.155 -0.2801 -0.2172 -0.0984
    1W        W43390   2.829   5.771   7.619  0.1532 -0.0808 -0.1084
    1W        W43391  16.297   8.140  10.033 -0.1572 -0.0124  0.0911
    1W        W43392   7.954   1.440   2.077  0.1372  0.0908  0.1797
    1W        W43393  17.691   3.495   2.442 -0.0347  0.1985 -0.0127
    1W        W43394  12.411   2.779   7.702 -0.3135  0.4471 -0.1605
    1W        W43395  22.904   1.617   2.155 -0.0921 -0.0530  0.0820
    1W        W43396  15.964  23.628   1.014  0.1485 -0.0752  0.0797
    1W        W43397   3.502  24.496   7.886  0.1240 -0.0533  0.0653
    1W        W43398  26.788  20.598   8.403 -0.0187  0.0523 -0.1216
    1W        W43399  14.606  25.896   8.032  0.3457  0.2198 -0.2413
    1W        W43400  21.338  11.766   1.893  0.0635  0.0548 -0.3825
    1W        W43401  24.246  23.636   1.658 -0.2141 -0.0320 -0.0847
    1W        W43402  17.214   4.983   2.699 -0.1783  0.1095  0.0698
    1W        W43403  15.012  24.274   9.664  0.0794 -0.2019  0.3326
    1W        W43404   7.149   9.941   0.390  0.1607  0.0597  0.0628
    1W        W43405  24.297   9.110   3.035 -0.2750  0.2878 -0.2365
    1W        W43406  26.467  17.111  10.058  0.1719  0.0348  0.0091
    1W        W43407  23.217  14.518   7.158 -0.0450  0.1187  0.0144
    1W        W43408  20.756  11.960   8.679  0.2412  0.2546  0.0560
    1W        W43409  22.232  10.477   0.401 -0.0692  0.1519 -0.1423
    1W        W43410  13.949   8.832   9.066  0.0589  0.1518 -0.0209
    1W        W43411  22.722  23.283   7.748 -0.0445  0.1217 -0.1261
    1W        W43412  25.467   9.917   1.991 -0.0969  0.0263 -0.3887
    1W        W43413   4.941  20.608  10.123 -0.1555 -0.1452 -0.2869
    1W        W43414   8.721  10.998   9.165 -0.1016 -0.2815 -0.3345
    1W        W43415  18.688   5.208   2.251  0.0305  0.1277 -0.1236
    1W        W43416   1.278   4.755  10.192  0.0795 -0.0041 -0.0393
    1W        W43417  18.175   3.637   1.007 -0.0891  0.0075 -0.1678
    1W        W43418  22.726  13.117   8.300  0.0859  0.3134  0.3960
    1W        W43419  27.290   9.413   2.137  0.1215 -0.2022 -0.1850
    1W        W43420  24.387   5.437   0.909  0.1218  0.3538 -0.4264
    1W        W43421  15.821  18.418   2.643  0.1233  0.3387 -0.1207
    1W        W43422   2.341   9.818   6.268 -0.1089 -0.0187 -0.0884
    1W        W43423   5.521  21.812   2.204  0.2833 -0.1488 -0.1626
    1W        W43424  18.463  17.473  10.003  0.3208  0.1828 -0.0983
    1W        W43425  21.684  16.203   9.655  0.0617 -0.0239 -0.0112
    1W        W43426  13.855  27.510   0.188 -0.2354 -0.0013  0.2737
    1W        W43427  20.390  25.141   8.799 -0.1506  0.2179 -0.2204
    1W        W43428   0.675  10.921   0.740 -0.4289  0.1307  0.0336
    1W        W43429   5.859  24.683   6.829 -0.0091 -0.1278 -0.0636
    1W        W43430   0.803  19.054   8.287  0.3997 -0.0364  0.0265
    1W        W43431  16.135  20.844   8.035  0.0293 -0.0142  0.1078
    1W        W43432  15.055   2.368   1.027  0.1165 -0.0501  0.0003
    1W        W43433  21.156  17.876   8.521 -0.2937 -0.2202  0.0377
    1W        W43434  24.818  28.004   0.782 -0.2324  0.0610  0.0441
    1W        W43435   5.582  14.420   0.038 -0.2090 -0.2305  0.1139
    1W        W43436  17.852  17.029   9.415 -0.1116  0.0524 -0.3025
    1W        W43437   1.545   8.402   6.930 -0.0408 -0.0213  0.1695
    1W        W43438  18.944   6.805   6.799 -0.0777 -0.2345  0.0084
    1W        W43439  15.647  13.108   7.184 -0.3516 -0.4539  0.1982
    1W        W43440  27.162  15.666  10.280 -0.1672  0.2619  0.3387
    1W        W43441  27.009  17.000   0.687  0.0785 -0.0317 -0.0161
    1W        W43442  16.198  18.496   1.194  0.2883 -0.0163 -0.0703
    1W        W43443  24.876   6.745   6.956 -0.0147 -0.0853 -0.0006
    1W        W43444   2.602  27.748   2.501 -0.3345  0.3191  0.0873
    1W        W43445   9.831  23.037   8.638  0.2877  0.0860  0.0866
    1W        W43446  21.659   7.872   8.752 -0.0396 -0.3025 -0.0077
    1W        W43447  22.586  21.943   2.383 -0.1930 -0.1640 -0.2350
    1W        W43448  25.015  21.586   7.186 -0.1470  0.0195 -0.3105
    1W        W43449  15.898   0.895   2.220  0.0383 -0.0874 -0.1804
    1W        W43450  21.389  26.817   1.747  0.3702 -0.1082 -0.0930
    1W        W43451  17.510   6.825   3.777 -0.0142 -0.0283 -0.0721
    1W        W43452   9.272   0.383   1.911 -0.0479 -0.2625 -0.0980
    1W        W43453   0.318  11.138   0.414 -0.4312 -0.1559  0.2896
    1W        W43454   0.907  19.735   7.052  0.1097 -0.2335 -0.2166
    1W        W43455   6.699  21.129   7.515 -0.0814  0.2043 -0.0514
    1W        W43456   8.715  20.662   2.167  0.0124 -0.0321 -0.0439
    1W        W43457  10.222   7.467   1.247  0.2853  0.1441 -0.0548
    1W        W43458  24.547  23.504   0.139  0.1925 -0.1365  0.1692
    1W        W43459   7.574   3.210   9.510  0.0105  0.1243 -0.2729
    1W        W43460  20.778   7.619   0.182  0.1964 -0.0364 -0.0307
    1W        W43461  25.574  19.156   8.831 -0.1440  0.3015  0.1264
    1W        W43462   6.499  23.190   2.304  0.2536  0.2213  0.0452
    1W        W43463  19.951  11.014   7.908 -0.2959 -0.2151  0.2870
    1W        W43464   9.245  25.517   1.756  0.0118  0.0220  0.1230
    1W        W43465  14.481   5.346   9.325 -0.0533  0.0480 -0.0438
    1W        W43466   8.857  24.587   2.455 -0.1579 -0.1017  0.0421
    1W        W43467   5.370  15.213   9.852 -0.0079 -0.1339  0.2997
    1W        W43468   8.591   2.915   2.406 -0.1833  0.1245 -0.1070
    1W        W43469  10.752   6.338   7.820 -0.2463  0.1286  0.0432
    1W        W43470  24.646  14.434   6.526  0.2098  0.2309 -0.2227
    1W        W43471   2.794  19.120   1.499  0.1125  0.0643  0.0980
    1W        W43472  19.386   8.480  10.050  0.2403 -0.0011  0.0793
    1W        W43473  13.976   9.572   2.919 -0.4708  0.0816  0.0860
    1W        W43474   2.762   3.678   5.749  0.2998 -0.2001 -0.2148
    1W        W43475  14.994   6.727   1.106 -0.2686  0.2355  0.0053
    1W        W43476  13.679  12.907   2.288  0.1893 -0.0322 -0.0796
    1W        W43477  15.289  12.323   2.654 -0.1883  0.1361 -0.2394
    1W        W43478  20.779  21.330   1.656 -0.0783  0.4244 -0.1092
    1W        W43479  14.783   6.904  10.363  0.0210 -0.0672 -0.0083
    1W        W43480   2.672  21.511   1.595  0.2806 -0.3090  0.1756
    1W        W43481  17.402  11.234   7.654 -0.2157 -0.2469 -0.4318
    1W        W43482   7.572   6.242   2.434 -0.0857  0.2779 -0.0104
    1W        W43483  21.564  21.873   1.565 -0.0276 -0.1087  0.0513
    1W        W43484  10.859   9.173   9.595 -0.1863 -0.5435  0.0237
    1W        W43485   9.279  27.542   8.183 -0.5888  0.2214  0.1873
    1W        W43486   0.488  26.051   9.289 -0.2431  0.0974 -0.0645
    1W        W43487  13.630  24.463   8.217  0.2014 -0.0372 -0.3836
    1W        W43488   2.340   6.892   8.942  0.0083  0.3075  0.0513
    1W        W43489  15.476  10.523   3.487 -0.0934 -0.3636  0.0313
    1W        W43490   2.120  12.030   7.034 -0.2217 -0.0832  0.0743
    1W        W43491   9.943   4.661   8.771  0.1570  0.2559  0.1457
    1W        W43492  26.276  10.978  10.072 -0.0439  0.0551 -0.0290
    1W        W43493  25.002  25.031   2.700 -0.1744 -0.1788 -0.1374
    1W        W43494  21.278  21.783   1.144 -0.0682 -0.0879  0.0758
    1W        W43495  11.470  23.186   0.185 -0.2697 -0.1894 -0.2991
    1W        W43496   6.241  11.746   3.408  0.1942  0.4442 -0.0451
    1W        W43497  15.292  22.644   1.714 -0.2625  0.0188 -0.3071
    1W        W43498  18.752   1.511   9.262  0.0730  0.1599 -0.0307
    1W        W43499  10.322  14.205   4.442 -0.1287  0.2769  0.1955
    1W        W43500  15.331  18.173   0.993  0.2995  0.0779  0.1234
    1W        W43501   5.026  24.448   0.181 -0.0805 -0.2826  0.1870
    1W        W43502   1.519  18.205   7.069 -0.4683 -0.0105  0.0168
    1W        W43503  11.429  19.391   8.464 -0.1753 -0.3266  0.0149
    1W        W43504  10.800   5.256   8.722  0.1330  0.1180  0.1125
    1W        W43505   4.833  12.596   9.081  0.1979 -0.2815 -0.3065
    1W        W43506  21.289  10.741   0.166  0.0297  0.4109  0.0079
    1W        W43507  13.075   9.254   2.254  0.1630 -0.0659  0.0966
    1W        W43508  17.524   5.968   0.435 -0.0559 -0.1603  0.1466
    1W        W43509  14.590  19.664   0.985 -0.2285 -0.2597  0.2222
    1W        W43510   1.475  12.285   9.675 -0.2343  0.1536 -0.0201
    1W        W43511  14.828  25.404   2.432 -0.2490  0.2240 -0.3007
    1W        W43512  16.589   7.442   0.168  0.0157 -0.2682  0.1145
    1W        W43513  16.627  24.951   1.084  0.0283  0.1961  0.3033
    1W        W43514   2.071   6.892   7.822 -0.1860  0.0536  0.0069
    1W        W43515  17.600  13.460   2.341  0.0866 -0.1843 -0.3032
    1W        W43516   6.809   7.822   9.003  0.0868 -0.1679 -0.2699
    1W        W43517   9.356   0.641   8.175  0.1345 -0.0053 -0.2968
    1W        W43518  16.025  23.513   1.491 -0.1002 -0.0744 -0.1459
    1W        W43519  25.625   8.503   1.753  0.2953 -0.0455 -0.2252
    1W        W43520  25.664  13.024   8.844  0.0993 -0.0281  0.2888
    1W        W43521  14.774   7.539   1.767  0.0647  0.0609  0.1092
    1W        W43522   6.951  26.362   0.079  0.1478  0.0120 -0.1186
    1W        W43523  11.722  21.061   0.767  0.1913  0.1658 -0.0643
    1W        W43524  19.891  19.841   1.581  0.1778  0.1146 -0.1547
    1W        W43525  22.993   9.815   1.043 -0.0281 -0.4992  0.1830
    1W        W43526  10.187   7.218   7.939  0.0084 -0.0256 -0.1965
    1W        W43527   6.358  15.849   9.683 -0.2313  0.1043  0.2551
    1W        W43528  14.154  23.102   7.058  0.0961  0.5301  0.3726
    1W        W43529   6.658  27.451   2.148  0.0123  0.0727  0.0721
    1W        W43530   2.924  20.028   2.110 -0.0891 -0.0028 -0.1360
    1W        W43531  18.363  13.391   1.038 -0.0606  0.0722 -0.1902
    1W        W43532  12.474  18.551   2.316  0.1504 -0.1002 -0.0913
    1W        W43533   0.832   6.847   0.322 -0.2690 -0.1766 -0.2269
    1W        W43534  21.065  19.870   1.727  0.0337  0.1024 -0.1542
    1W        W43535   8.769  21.491   0.237 -0.1115 -0.2784  0.1062
    1W        W43536  11.353  25.533   7.992  0.2417  0.1213  0.1046
    1W        W43537   9.510   5.027   8.963 -0.0570 -0.3013  0.3750
    1W        W43538   6.953  24.784   9.437  0.0102 -0.2128 -0.0249
    1W        W43539  27.292  17.760   1.820  0.1255 -0.0954 -0.1882
    1W        W43540   0.250   9.346   9.917  0.4164 -0.2975  0.1467
    1W        W43541  12.704   8.690   7.945 -0.0398 -0.0144 -0.0793
    1W        W43542  12.893  20.996   6.936  0.3037  0.1814  0.0873
    1W        W43543  14.318  12.048   8.973  0.0185 -0.2421  0.1124
    1W        W43544   0.508   8.808   2.924 -0.2004 -0.2154 -0.2317
    1W        W43545  16.440  15.210   0.283 -0.2107  0.2952 -0.0149
    1W        W43546  12.711  23.591   7.531 -0.1392  0.1086 -0.0613
    1W        W43547   3.822  25.640   8.331 -0.1241 -0.0134  0.1165
    1W        W43548   6.732  22.030   0.007 -0.5903 -0.2037  0.0605
    1W        W43549  26.908  25.496   2.093 -0.0795  0.1226 -0.0467
    1W        W43550  27.616  27.109   8.080 -0.1200  0.0974 -0.0530
    1W        W43551  20.301  23.634   3.185  0.0097 -0.1754  0.0526
    1W        W43552  24.414  22.422   5.964  0.0362  0.0564 -0.1196
    1W        W43553   8.735  11.161   8.124 -0.0984 -0.0519 -0.1682
    1W        W43554  20.354   8.663   0.332 -0.2775  0.1684  0.2907
    1W        W43555  19.483  11.528   8.772 -0.1083  0.1026 -0.0701
    1W        W43556   9.449  23.456   8.695  0.0105  0.0138 -0.0279
    1W        W43557  12.081  10.405   2.708  0.0329 -0.2577 -0.0142
    1W        W43558   4.721  25.644   1.805 -0.0607  0.2172  0.0983
    1W        W43559  13.274   7.780   8.771  0.2330 -0.1893 -0.0456
    1W        W43560  14.974  17.061   8.955  0.3363 -0.1424  0.2966
    1W        W43561  19.319  12.513   9.967 -0.0939 -0.1559  0.1418
    1W        W43562  26.068   1.678   9.108 -0.0324 -0.2777 -0.3775
    1W        W43563  15.838   3.027   3.326 -0.0038 -0.0377 -0.2253
    1W        W43564  24.472   6.409   7.698 -0.2153  0.0426  0.2541
    1W        W43565  19.955   5.599   1.544  0.0079 -0.0161  0.0101
    1W        W43566  14.851  24.452   9.211 -0.0075  0.1402  0.0413
    1W        W43567  16.048  10.111   2.635  0.1622  0.0654 -0.0103
    1W        W43568  17.592   2.877   2.574 -0.0474  0.1061 -0.1149
    1W        W43569  14.914  10.753   9.439  0.0510 -0.3192 -0.1311
    1W        W43570   1.607  22.058   6.145  0.1571 -0.2662  0.3612
    1W        W43571  25.328   6.576   6.890  0.1732  0.0290  0.1840
    1W        W43572  19.492   3.026   0.843  0.1073  0.1188  0.1980
    1W        W43573  18.705  22.755   2.705 -0.6310  0.0520 -0.0469
    1W        W43574  26.243  16.193   6.422 -0.2386  0.0609 -0.3026
    1W        W43575   4.126   9.118   7.112  0.2455 -0.3403  0.2175
    1W        W43576   3.196  18.808   1.336  0.1677  0.0829  0.0531
    1W        W43577  12.534   2.725   8.915  0.1272 -0.1423  0.0178
    1W        W43578  27.373  25.608   9.241  0.0632  0.2648 -0.3535
    1W        W43579  22.499  25.901   8.748  0.0015  0.2366  0.2733
    1W        W43580  15.178   2.055   0.640  0.0443 -0.0407 -0.3689
    1W        W43581  10.729  11.839   3.551  0.0194 -0.1005  0.2191
    1W        W43582   0.048   1.095   1.453 -0.1496  0.0349 -0.0368
    1W        W43583  20.143  22.488   8.522  0.1945 -0.2970  0.0760
    1W        W43584  13.611  11.040   2.292  0.3705 -0.1885 -0.3323
    1W        W43585  19.743  17.854   3.495 -0.0304  0.0311  0.2098
    1W        W43586  26.762   2.840   9.874  0.0917 -0.0512  0.1616
    1W        W43587  13.931  16.627   0.182  0.0546  0.0311 -0.0338
    1W        W43588  19.396  20.414   3.161 -0.2138  0.1787  0.2861
    1W        W43589   6.423  22.682   9.987 -0.1456  0.0701  0.0163
    1W        W43590   6.330  14.920   0.927  0.2337  0.2205  0.1014
    1W        W43591  13.224  20.249   1.625 -0.1401  0.1095  0.1083
    1W        W43592   0.120  23.097  10.362 -0.3420  0.1311 -0.1205
    1W        W43593  15.216  25.805   1.702  0.0397 -0.0124  0.1844
    1W        W43594  14.134  14.578   1.347 -0.1196 -0.1080 -0.0326
    1W        W43595   4.347   2.178   9.824 -0.2779 -0.1077  0.0641
    1W        W43596   8.628  19.342   0.554 -0.0308  0.1167 -0.0652
    1W        W43597  18.968   8.545   1.444  0.0603  0.0146 -0.0593
    1W        W43598   9.025   7.735   0.472  0.1162 -0.1357  0.2708
    1W        W43599  12.468  16.031   3.263 -0.0655  0.1298  0.2150
    1W        W43600  15.206  12.044   8.882  0.0790  0.1834 -0.2210
    1W        W43601  17.567  13.409   7.020  0.1644  0.0332 -0.0726
    1W        W43602  18.277  22.670   6.965  0.1533 -0.0807 -0.2002
    1W        W43603   4.375   1.314   9.554 -0.2040  0.0853  0.0384
    1W        W43604   6.435  11.580   7.968 -0.0213 -0.2363  0.3374
    1W        W43605   2.063  18.859   0.305  0.1480 -0.0994  0.0810
    1W        W43606  27.995  18.565  10.097  0.0394 -0.1723 -0.0386
    1W        W43607  21.623   1.376   1.536  0.0067 -0.0439  0.0429
    1W        W43608  20.007  15.689  10.295 -0.1352 -0.1444 -0.1983
    1W        W43609  27.055  22.936   2.136 -0.1458 -0.0805  0.1554
    1W        W43610   2.675  19.976  10.218  0.0395  0.2509  0.0469
    1W        W43611  15.108  12.455  10.084  0.1385 -0.1007 -0.1889
    1W        W43612  16.425   4.490   2.055 -0.0345  0.1347 -0.1699
    1W        W43613  20.506   8.246   8.139 -0.0859 -0.2194  0.1797
    1W        W43614  11.377  27.861   0.064  0.0654  0.1173  0.0837
    1W        W43615   3.107  10.751   8.515  0.2944  0.3655  0.1794
    1W        W43616  27.124  21.918   7.855 -0.0117  0.0094 -0.0515
    1W        W43617   9.905  25.617   9.974  0.0945 -0.2284  0.0868
    1W        W43618  24.608  21.237   0.702  0.1032  0.1942  0.1227
    1W        W43619  23.110   1.155   2.166 -0.0273 -0.1151  0.1267
    1W        W43620  19.438  24.355   3.064 -0.1666  0.2391 -0.1735
    1W        W43621  11.354   7.955   9.537  0.2482  0.0054 -0.0909
    1W        W43622  13.055   4.571   1.742  0.0673 -0.0093  0.1779
    1W        W43623  19.849  26.864   8.639 -0.1211 -0.1682 -0.0901
    1W        W43624   9.394  25.814   9.315  0.2315  0.3285 -0.0279
    1W        W43625  14.967  27.921   8.394  0.0565 -0.2509 -0.1108
    1W        W43626   4.977   2.700  10.146  0.2255  0.0246  0.0955
    1W        W43627   0.847  13.897   0.836 -0.1437 -0.1635 -0.1963
    1W        W43628  21.411  13.589   7.597  0.1635  0.0462  0.2064
    1W        W43629   4.055  18.425   0.587 -0.1583 -0.0934  0.0883
    1W        W43630   8.912  19.845   1.897 -0.0329  0.0514 -0.0296
    1W        W43631  23.839   8.084   1.869  0.0011  0.2203  0.1111
    1W        W43632  20.375  23.284   1.635  0.0359  0.0193  0.0173
    1W        W43633  24.315  26.309   8.173  0.1050  0.1483  0.2108
    1W        W43634  24.588  23.482   1.972 -0.1071 -0.1476  0.3374
    1W        W43635   9.046  19.944   3.430  0.1032 -0.1729 -0.0065
    1W        W43636  14.707  19.126   2.521 -0.2484  0.0431 -0.0726
    1W        W43637  17.007  12.884   0.921  0.2043 -0.2186  0.0948
    1W        W43638  16.052   8.382   8.258  0.1249  0.3925  0.0352
    1W        W43639  14.713   3.902   3.359 -0.1561 -0.4882 -0.0035
    1W        W43640   0.221  26.091   7.570 -0.1735 -0.0460  0.1444
    1W        W43641   7.838  16.875   2.066 -0.2745  0.1777 -0.0451
    1W        W43642   3.842  27.979   0.254 -0.0143  0.1941 -0.1347
    1W        W43643  27.474  26.172   2.701 -0.1157 -0.4353 -0.0999
    1W        W43644  24.935  20.751   7.701 -0.1873 -0.0143  0.1510
    1W        W43645   2.270  28.075   1.205 -0.0146  0.0819  0.3971
    1W        W43646   2.395   8.750   7.572 -0.1266 -0.1383 -0.2365
    1W        W43647  17.664  17.400  10.314  0.2777 -0.0232 -0.2056
    1W        W43648  19.294  19.979   2.903 -0.3488 -0.2552  0.3747
    1W        W43649   4.420  14.851   8.697 -0.0917 -0.1875  0.1215
    1W        W43650  15.831  16.903   3.821 -0.1175 -0.1419 -0.0903
    1W        W43651  18.577  27.912   2.291 -0.1247 -0.0038  0.1180
    1W        W43652  20.801  11.647  10.280  0.0679  0.0172 -0.0043
    1W        W43653   8.439  27.872  10.264  0.0620  0.0511  0.2530
    1W        W43654  19.225  13.444   2.604  0.1610  0.4560 -0.0724
    1W        W43655  19.269  18.695   8.377 -0.0672 -0.2108 -0.3090
    1W        W43656   0.774   7.221   8.924 -0.3124 -0.4876 -0.0232
    1W        W43657   0.881  18.009   2.503 -0.0762  0.0555 -0.2556
    1W        W43658   0.493   1.558   6.985 -0.0234 -0.0000 -0.0333
    1W        W43659  23.852   9.116   7.848 -0.0741 -0.2048  0.3529
    1W        W43660   8.672  12.885   9.107  0.0677  0.0379 -0.0902
    1W        W43661  10.232   3.153   2.569 -0.1699  0.0769 -0.2595
    1W        W43662  21.072  15.258   0.654 -0.1584 -0.0337  0.0918
    1W        W43663  26.378  15.070   7.391  0.0392 -0.1428 -0.2014
    1W        W43664   5.622  24.837   9.268  0.1159  0.0214  0.1088
    1W        W43665  25.623   1.667  10.158 -0.1697 -0.2894 -0.4071
    1W        W43666  14.718  22.426   8.107  0.0072 -0.1451 -0.1426
    1W        W43667  11.203  15.236   0.715  0.0622 -0.0496  0.2952
    1W        W43668  15.382  19.275  10.118  0.2335 -0.0103  0.0808
    1W        W43669  16.954  14.536   9.883  0.1907  0.2927 -0.0377
    1W        W43670  20.280  11.254   6.931 -0.0003 -0.1122  0.3123
    1W        W43671   6.803   3.164   9.004  0.1103 -0.2812  0.2511
    1W        W43672  20.297   6.432   7.138  0.1886 -0.0146 -0.0326
    1W        W43673  15.962   5.979   7.516 -0.0171  0.1838  0.4013
    1W        W43674  25.150  26.333   9.705  0.0964  0.1206  0.1459
    1W        W43675  10.231  19.297   0.898 -0.2324 -0.0725  0.0639
    1W        W43676   3.067  18.273   7.392  0.0521 -0.0930  0.1306
    1W        W43677   6.843  20.748   9.582 -0.0750 -0.0512  0.1869
    1W        W43678   8.944  18.522   0.909  0.0601  0.0193  0.3072
    1W        W43679  13.005  27.540   1.124 -0.3331  0.2747 -0.0537
    1W        W43680  17.825  25.684   9.406  0.0630 -0.1220  0.2219
    1W        W43681  16.743   4.884   1.918  0.1716 -0.2061  0.1950
    1W        W43682  17.492  22.478   1.254 -0.2081  0.0826  0.0052
    1W        W43683  22.887  25.251   9.550  0.2053  0.1036 -0.0306
    1W        W43684  17.742   9.037   3.800 -0.1200  0.1646 -0.0964
    1W        W43685  20.488   4.278   0.242  0.2473  0.1152 -0.0828
    1W        W43686   0.420  10.047   7.301  0.1537 -0.0423  0.0788
    1W        W43687  16.834  19.491   8.933  0.2978  0.1331  0.0902
    1W        W43688  13.789   6.639  10.064  0.1928 -0.2205  0.2084
    1W        W43689   7.800  28.085   0.960 -0.2627  0.0569  0.0672
    1W        W43690  10.870   2.375   3.076  0.1822 -0.1104  0.3056
    1W        W43691  16.674  26.327   7.569 -0.0796 -0.2585  0.0188
    1W        W43692   2.313  20.223   3.285  0.2571  0.0055 -0.2286
    1W        W43693  12.399   4.021   9.672 -0.2129 -0.0072  0.0755
    1W        W43694  13.738   7.051   2.927 -0.0398 -0.1345  0.0778
    1W        W43695   3.056  27.936   8.359  0.0215 -0.1502  0.1464
    1W        W43696  19.613  19.608   8.107  0.2661 -0.1675  0.2910
    1W        W43697  25.594  15.011   8.474  0.1090 -0.0249  0.1570
    1W        W43698   3.932  20.418   6.959 -0.4346 -0.1005  0.0256
    1W        W43699  23.884   3.768   8.113 -0.0949 -0.0997 -0.3257
    1W        W43700  19.881   7.957   0.491 -0.1261 -0.1209  0.2184
    1W        W43701  19.056  28.022   7.638  0.2084 -0.0334 -0.1060
    1W        W43702   1.780  22.958  10.248  0.2115  0.0709  0.5284
    1W        W43703  25.977   5.001   0.986 -0.0342  0.3671 -0.0630
    1W        W43704  19.033  19.431   7.918 -0.0525  0.0780 -0.0400
    1W        W43705   5.186  23.145   0.055 -0.2219 -0.4893  0.1589
    1W        W43706  13.441  16.914   8.754 -0.2244  0.0059  0.2479
    1W        W43707  25.188  23.613   1.109  0.0049  0.1912  0.0610
    1W        W43708  20.097   9.791   0.851 -0.2180 -0.2594 -0.0118
    1W        W43709   8.523  10.059   6.732 -0.0923  0.2071 -0.3972
    1W        W43710  18.892  12.912   8.685 -0.1771  0.0240 -0.0579
    1W        W43711  27.586  17.763  10.195 -0.4002 -0.4326 -0.3240
    1W        W43712  21.401  25.006   9.976  0.2574 -0.2181 -0.0349
    1W        W43713   7.915  24.617   6.598 -0.0874  0.1007  0.3028
    1W        W43714  23.330  17.541   1.343  0.1455  0.0624 -0.0444
    1W        W43715   8.657   5.424   1.269  0.2035  0.4712  0.0444
    1W        W43716  16.207   0.150   7.788 -0.1051  0.2986  0.0812
    1W        W43717   8.875  16.914   8.123  0.3830 -0.0098  0.2825
    1W        W43718   5.971   0.406   8.563 -0.1640 -0.1645  0.0148
    1W        W43719  17.137  14.513  10.359 -0.1326 -0.0458 -0.1306
    1W        W43720  15.797  20.901   2.494  0.2242  0.0132  0.1690
    1W        W43721  20.474  17.078   0.149 -0.1053  0.0366 -0.2010
    1W        W43722  14.891  23.398   0.588  0.1537 -0.0231  0.0225
    1W        W43723   9.461  20.629   1.901 -0.2378  0.0560  0.0035
    1W        W43724  23.922  15.503   9.064  0.0800 -0.1317 -0.0270
    1W        W43725  20.887  19.055   7.305 -0.3186  0.2926 -0.2965
    1W        W43726   5.330  17.269   1.239  0.1013 -0.0033  0.0059
    1W        W43727  15.585  18.181   3.107 -0.1540  0.1872 -0.0640
    1W        W43728  16.490   5.565   1.374  0.1188  0.1951  0.0934
    1W        W43729   6.403  19.609   2.171  0.2427 -0.2578 -0.2002
    1W        W43730  11.177  11.395   2.017 -0.1581 -0.0458 -0.2113
    1W        W43731  15.382  22.354   0.604  0.1109  0.1194  0.1080
    1W        W43732   0.995  24.309   9.370 -0.0674 -0.0933 -0.0551
    1W        W43733   4.423   7.309   6.631 -0.1181 -0.2002  0.0785
    1W        W43734   8.186   2.906   7.839  0.0777  0.1271 -0.1923
    1W        W43735  13.437   9.080   7.342 -0.0569 -0.0986  0.0335
    1W        W43736  21.456  10.800   8.852 -0.2672  0.2163 -0.0050
    1W        W43737  11.351  27.655   9.618  0.0038 -0.0169 -0.0727
    1W        W43738   3.557  20.689   7.163  0.1391  0.3063  0.4645
    1W        W43739  14.198  23.710   1.044  0.1523  0.0561 -0.1188
    1W        W43740  26.644   4.613  10.093  0.1694 -0.1218 -0.2999
    1W        W43741  25.469  13.658   3.147  0.0417 -0.1179 -0.0704
    1W        W43742   8.151  19.527   7.667 -0.0581 -0.2980  0.2555
    1W        W43743  17.272  19.756   3.062  0.0194 -0.2872  0.1569
    1W        W43744   8.251  16.366   2.703 -0.1551  0.1317 -0.1337
    1W        W43745   9.176   0.415   1.045 -0.0485 -0.1212 -0.0545
    1W        W43746  16.420  27.847   8.885  0.1467  0.0151  0.2335
    1W        W43747  16.977  11.198   3.254  0.1898 -0.0888  0.0367
    1W        W43748  21.861  16.013   9.159 -0.2656 -0.0702 -0.0450
    1W        W43749  13.340   8.169   3.364  0.2455 -0.1567 -0.2598
    1W        W43750  26.602  22.301   7.522 -0.0423 -0.0154 -0.0379
    1W        W43751  20.479  21.631   9.980 -0.0121  0.1565  0.2188
    1W        W43752  13.191  11.135   8.952 -0.1380 -0.2709 -0.0825
    1W        W43753   7.279  15.661   0.347  0.2822 -0.0174  0.1280
    1W        W43754   0.944  14.737   2.011  0.1324  0.2718  0.0994
    1W        W43755   7.382   3.787   7.468  0.0929 -0.2077  0.0054
    1W        W43756   8.209   7.634   8.558 -0.0187  0.0270 -0.0069
    1W        W43757  16.985  14.441   9.418 -0.0922  0.1204  0.1830
    1W        W43758  17.413  25.647   7.040  0.1518 -0.0553 -0.0128
    1W        W43759  13.865   3.055   9.388 -0.0366  0.2125 -0.1182
    1W        W43760  19.535   8.625   9.127 -0.1450 -0.1487  0.3475
    1W        W43761   3.485  27.273   8.926  0.1653 -0.1299  0.1779
    1W        W43762  10.715  24.877   9.927  0.0803  0.0435 -0.2209
    1W        W43763  16.669  20.441   2.598  0.0309  0.2813 -0.0821
    1W        W43764   0.991  27.141   1.191  0.0200  0.0450  0.1253
    1W        W43765  12.470   3.550   8.362  0.1467  0.0117 -0.3134
    1W        W43766  21.027   7.978   1.144  0.0535  0.1937 -0.1728
    1W        W43767  21.391  25.494   8.281  0.0244 -0.0801 -0.0084
    1W        W43768   9.135  24.604   3.583 -0.3030 -0.1125 -0.1755
    1W        W43769  26.027   0.325   8.686 -0.0478 -0.0331  0.0933
    1W        W43770   6.607   9.729   8.083  0.0505 -0.0768 -0.0179
    1W        W43771  12.631   7.378   3.278  0.2169  0.3129 -0.1136
    1W        W43772  17.634  24.598   0.405  0.1799 -0.1688 -0.4216
    1W        W43773  14.096  27.183   2.720  0.0243 -0.0309  0.1759
    1W        W43774  28.096   3.364   2.906 -0.0914  0.1126 -0.1097
    1W        W43775  11.363  18.924   0.328  0.4293  0.0056 -0.0736
    1W        W43776  10.908  27.258   1.650  0.2631  0.1086 -0.0367
    1W        W43777  15.703   1.978   0.617 -0.0917 -0.0877 -0.1033
    1W        W43778  15.670  15.150   2.017 -0.1126  0.1449  0.1920
    1W        W43779   4.002  22.168   0.981  0.1605  0.0656 -0.1329
    1W        W43780  20.822   7.728   7.437 -0.1994  0.2970 -0.0528
    1W        W43781   7.861  21.759   8.684 -0.0333 -0.1139  0.0633
    1W        W43782  12.105  24.730   9.725 -0.1690 -0.0044 -0.1023
    1W        W43783   8.371  24.480   2.091  0.0928  0.3206  0.1602
    1W        W43784  22.098  21.368   3.718  0.0578 -0.0482  0.2239
    1W        W43785   5.836  14.914   7.854  0.0104 -0.2429 -0.0726
    1W        W43786   4.395   3.932   0.136 -0.3156 -0.0144  0.0194
    1W        W43787  18.994  13.973   0.673 -0.2222  0.1155  0.3101
    1W        W43788  22.516  12.962   3.422 -0.2755 -0.0106  0.0660
    1W        W43789   5.874  20.134   1.328  0.0469  0.1625  0.1620
    1W        W43790  21.295   2.510   7.360 -0.3250  0.4044 -0.1065
    1W        W43791  10.634  17.383   1.350  0.1096 -0.0184  0.0422
    1W        W43792  23.738   9.207   8.728 -0.2060 -0.0628 -0.2252
    1W        W43793  14.111  10.901   3.744 -0.1239 -0.1748 -0.1947
    1W        W43794  11.987  21.909   8.143  0.1367 -0.1289  0.1338
    1W        W43795   1.888   5.160   0.694 -0.0606  0.1389  0.0566
    1W        W43796  21.295   6.778   9.167  0.0454 -0.0617 -0.1752
    1W        W43797  20.571  16.169   9.611  0.0228  0.0946  0.1719
    1W        W43798  16.083  24.183   8.630  0.0539  0.0007  0.1573
    1W        W43799  22.156  20.545   3.658 -0.4535 -0.0175 -0.2065
    1W        W43800  11.811   1.217   2.926  0.1058  0.0059  0.0015
    1W        W43801  27.797  23.251  10.115  0.1545  0.0676 -0.1820
    1W        W43802  27.311  22.048   0.332  0.2458  0.0269 -0.3040
    1W        W43803  19.207  17.470   1.658 -0.2042  0.0626  0.0656
    1W        W43804  24.384  19.835   2.036  0.1603 -0.1166 -0.1317
    1W        W43805   6.927   7.198   1.191 -0.0608  0.4106 -0.0095
    1W        W43806   4.198   6.571   9.252  0.1771 -0.2044  0.0108
    1W        W43807   6.954   4.382   9.595 -0.0132  0.1122  0.1167
    1W        W43808   5.599   1.940  10.130 -0.0056 -0.0615 -0.3575
    1W        W43809   5.741  16.805   7.247  0.0012 -0.3574  0.0193
    1W        W43810   2.376  12.021   8.057 -0.2021 -0.1625  0.2268
    1W        W43811   3.746  17.484  10.311  0.1880 -0.0626 -0.0093
    1W        W43812  14.929   2.659   9.040  0.1622  0.0990 -0.2415
    1W        W43813   3.985  16.395   8.079 -0.0125  0.0511  0.1492
    1W        W43814  13.107  11.714   1.802  0.3000 -0.2789  0.1834
    1W        W43815  22.103   3.788   8.989  0.0540 -0.1906  0.2616
    1W        W43816   9.600  19.886   0.383  0.0438 -0.2174  0.2726
    1W        W43817  28.048  12.537   6.287  0.0845  0.0876  0.1736
    1W        W43818  12.949   8.148   2.059  0.0518 -0.0433 -0.0315
    1W        W43819  22.243  11.501  10.255 -0.1238 -0.0307 -0.0905
    1W        W43820  16.721  26.326   2.414  0.1459  0.2467  0.0355
    1W        W43821   0.557   7.597   7.583 -0.0478 -0.0584  0.1079
    1W        W43822   5.447  13.511   2.638 -0.1283 -0.2764 -0.1355
    1W        W43823  17.803  13.007   3.059 -0.2303  0.0470 -0.1647
    1W        W43824   8.338  25.511   8.070  0.0742 -0.1706 -0.0054
    1W        W43825  23.537  14.403   0.819 -0.1796  0.1041  0.0288
    1W        W43826   9.903  20.497   2.594  0.3424 -0.2152 -0.0595
    1W        W43827   4.217   9.308   1.171 -0.2709 -0.0082  0.1069
    1W        W43828  25.636  23.275   1.174  0.0728 -0.1535  0.0260
    1W        W43829  18.746  12.166   0.489 -0.1043 -0.2080  0.1200
    1W        W43830  13.435   5.033   8.464  0.0576 -0.1285 -0.3302
    1W        W43831   8.919   2.996   0.237  0.1858  0.1177  0.0199
    1W        W43832   3.859  19.596   2.030 -0.2504 -0.1414 -0.2431
    1W        W43833   0.658   6.929   7.051  0.0147  0.0650  0.3648
    1W        W43834   1.692  17.011   0.638  0.0996  0.0092  0.1663
    1W        W43835   1.620  18.054   7.555 -0.2220  0.1718 -0.1163
    1W        W43836  11.558  18.238   3.750 -0.0558 -0.4595  0.0693
    1W        W43837  21.670  25.629   3.311  0.0972 -0.0332 -0.0206
    1W        W43838  20.263  23.675   8.381  0.1377 -0.1003  0.2882
    1W        W43839   9.218  19.071   3.082 -0.0674 -0.1109  0.0796
    1W        W43840  26.983  27.639   0.966  0.1371  0.1699  0.0752
    1W        W43841   7.595  18.478   1.298  0.0965  0.1443 -0.0800
    1W        W43842   8.655  15.144   7.808 -0.0253  0.0762 -0.1586
    1W        W43843  18.048   8.788   3.429 -0.0919  0.1365 -0.1337
    1W        W43844  10.084   4.501   9.673 -0.0284  0.0785 -0.0161
    1W        W43845  13.142   5.942   9.285  0.2127  0.0564  0.1140
    1W        W43846  20.206   5.238   2.404  0.1430 -0.1668  0.1698
    1W        W43847  12.944   3.823   8.470  0.2052  0.1306  0.0684
    1W        W43848   3.079  10.388   7.566  0.1755  0.1569  0.2145
    1W        W43849  23.046   7.367   9.832 -0.3876  0.0673 -0.0086
    1W        W43850   2.710   0.949   9.566 -0.1140 -0.4295  0.1794
    1W        W43851  10.321   3.498   0.915 -0.2070 -0.0949 -0.0968
    1W        W43852   3.932  23.108   0.711 -0.3461 -0.1308 -0.0455
    1W        W43853  10.590  12.639   8.405  0.0274 -0.1876 -0.0610
    1W        W43854   5.359  23.953   1.619 -0.2384  0.1282  0.1486
    1W        W43855  12.186  10.702   8.832  0.1090  0.0675 -0.2185
    1W        W43856  21.449  23.348   2.596  0.1340 -0.1411 -0.0891
    1W        W43857  22.018  18.104   0.364  0.1208  0.1717 -0.2533
    1W        W43858   0.636  27.185   8.673 -0.2143 -0.1244 -0.1762
    1W        W43859   1.994  26.118   2.020 -0.1907  0.0301  0.0617
    1W        W43860  26.580  19.993   8.237  0.1545 -0.0401 -0.0308
    1W        W43861   3.043  16.781   8.544  0.1054  0.0412  0.0977
    1W        W43862  15.186  25.160   1.070 -0.0683 -0.1215 -0.0097
    1W        W43863  12.899  27.161   8.563  0.1738  0.4809  0.0410
    1W        W43864  14.605  23.538   2.523 -0.3043  0.0408  0.2073
    1W        W43865   4.084  18.915   1.459  0.0724  0.0231  0.3399
    1W        W43866  22.760  25.642   3.246  0.1443 -0.0716 -0.0640
    1W        W43867  23.243  27.927   0.536  0.0643 -0.1863  0.1620
    1W        W43868  27.845  11.264   2.329 -0.1846  0.1389 -0.0798
    1W        W43869  18.205   3.331   0.489 -0.0420 -0.0295 -0.1703
    1W        W43870   3.566  18.195   7.449  0.1646  0.0213  0.2370
    1W        W43871  27.179  22.333   8.274  0.0560 -0.2340 -0.1078
    1W        W43872  22.032   6.548   7.513  0.1531  0.2625  0.1501
    1W        W43873  16.988  23.126   7.722 -0.3591 -0.1163  0.1133
    1W        W43874   4.418   8.962   9.256  0.1547  0.0154  0.1065
    1W        W43875   8.433  28.000   1.665 -0.1697  0.0799  0.0366
    1W        W43876   0.038  10.827   0.040  0.1763 -0.0519 -0.3356
    1W        W43877   2.550  23.519   0.820 -0.3719  0.1547  0.2007
    1W        W43878  25.718  17.548   8.607  0.0639  0.3283 -0.1475
    1W        W43879  10.642  10.923   9.925 -0.0664 -0.0020  0.1552
    1W        W43880  23.719  16.596   8.091 -0.2340  0.0516  0.0244
    1W        W43881   8.231  14.147   7.537  0.0433  0.0427 -0.0646
    1W        W43882   5.105   7.291   8.666 -0.0895  0.0446 -0.0686
    1W        W43883  21.216  22.706  10.241 -0.2575 -0.1604 -0.0386
    1W        W43884   6.702  16.759   2.055 -0.1953 -0.0761  0.3322
    1W        W43885  15.703  12.667  10.113  0.0309 -0.1158 -0.1231
    1W        W43886   0.371   5.369   0.897  0.0078 -0.1124 -0.2641
    1W        W43887  10.716   9.904   0.677 -0.0413 -0.1280  0.0476
    1W        W43888  18.807  16.255   2.094  0.1379 -0.0171  0.1471
    1W        W43889   6.363  26.418   1.215 -0.0694  0.0840  0.0607
    1W        W43890  12.402   2.627   1.478 -0.0214  0.0768 -0.1235
    1W        W43891  15.711  17.594   8.346 -0.2102  0.0908 -0.0516
    1W        W43892   4.334  14.386   9.627  0.1785  0.0349 -0.4969
    1W        W43893  16.223  27.493   9.270 -0.0434  0.0845  0.1347
    1W        W43894   3.714  26.820   9.847 -0.0977  0.1363 -0.0651
    1W        W43895  15.306   3.203   1.201 -0.4344  0.0141  0.0558
    1W        W43896  21.148  14.975   7.522  0.0298 -0.0295 -0.3679
    1W        W43897  23.283  16.774   9.984 -0.2209 -0.1287 -0.0969
    1W        W43898  12.434  10.763   8.194 -0.1777  0.1222 -0.1635
    1W        W43899   9.197  23.640   3.242 -0.2068  0.0964  0.0318
    1W        W43900  11.825   7.918   2.907 -0.0743 -0.1241  0.0612
    1W        W43901  11.550  11.325  10.283 -0.0311  0.0490  0.2298
    1W        W43902  11.997  24.660   2.937  0.0151 -0.0447  0.0345
    1W        W43903   4.876  11.487   1.443 -0.3597 -0.0757 -0.5313
    1W        W43904  26.252  21.779   0.911 -0.2446 -0.0632  0.3911
    1W        W43905  18.644  27.252   3.069 -0.1121 -0.0327 -0.0959
    1W        W43906  20.659  12.816   9.163 -0.4265  0.0970  0.2498
    1W        W43907  11.432   0.297   9.937 -0.0960 -0.1545 -0.1096
    1W        W43908   6.978   0.265   9.875 -0.2133 -0.1570 -0.2913
    1W        W43909  21.964  25.772   0.740 -0.1813 -0.2814  0.0548
    1W        W43910   9.501  14.106  10.298 -0.1354  0.1558 -0.1525
    1W        W43911  24.378   8.173   0.583  0.2190 -0.0238  0.3158
    1W        W43912  24.805   7.888   0.235  0.1388 -0.2359  0.2738
    1W        W43913  23.728   6.357   0.960 -0.1045 -0.1596 -0.2143
    1W        W43914   7.680   6.692   2.722 -0.2941  0.1269 -0.1034
    1W        W43915  21.933   8.063   1.497 -0.0325 -0.0817  0.4601
    1W        W43916  18.367   6.797   1.994 -0.1677  0.0420  0.1137
    1W        W43917   7.711  18.143   0.934  0.0866  0.0173  0.2269
    1W        W43918   6.777  26.199   2.507  0.0459  0.1582 -0.2348
    1W        W43919  23.475  22.152   9.646  0.2154 -0.3874 -0.1134
    1W        W43920  26.609   3.875  10.088 -0.1284 -0.0057 -0.1605
    1W        W43921  21.783  20.519   7.326  0.0760 -0.0838  0.0484
    1W        W43922  22.759   7.622   8.330  0.0871 -0.1658 -0.0505
    1W        W43923  13.950  20.623   7.843  0.4028 -0.0562  0.0381
    1W        W43924  11.053   7.954   2.742  0.1393  0.0389  0.1297
    1W        W43925   9.084  20.092   0.072  0.0011  0.1127 -0.1401
    1W        W43926  24.951  14.168   1.567 -0.0322  0.1878 -0.2424
    1W        W43927   0.899   5.461   0.361 -0.1862  0.2118  0.2369
    1W        W43928  20.177   0.477   0.643  0.1568 -0.0835  0.0949
    1W        W43929  26.573  22.140   7.035 -0.0231  0.1190 -0.2998
    1W        W43930  22.530   2.254   7.442  0.1370 -0.1072  0.0427
    1W        W43931  20.684  15.564   9.643  0.0191  0.0782  0.6376
    1W        W43932  10.562   8.511   0.234 -0.2273 -0.0188  0.1172
    1W        W43933  24.534  10.693   2.402 -0.1932  0.1802  0.1522
    1W        W43934  27.432  16.942   7.324 -0.1691 -0.3208  0.0096
    1W        W43935   2.504   5.581  10.266  0.0633  0.4242 -0.0244
    1W        W43936   3.063  10.394   0.232 -0.1896 -0.1455  0.0608
    1W        W43937  14.621  11.267   0.700 -0.2224 -0.0024 -0.0195
    1W        W43938  15.684   1.807   1.552 -0.1737 -0.0403 -0.0354
    1W        W43939  16.401   1.322   9.365  0.0574  0.2133  0.1909
    1W        W43940  14.929  18.050   8.017  0.0679 -0.2068  0.1010
    1W        W43941  16.669  25.013   1.629  0.1807 -0.2039 -0.0622
    1W        W43942   2.091  13.275   9.802  0.0471 -0.1495  0.0577
    1W        W43943   9.774   8.812   2.788 -0.0921  0.0886  0.1337
    1W        W43944  19.350  11.117   8.484 -0.2298  0.2590 -0.0887
    1W        W43945  10.659  23.672   2.554 -0.2010  0.0844  0.0572
    1W        W43946   8.939   3.555   7.693 -0.2352  0.0559  0.2393
    1W        W43947  13.175  22.839   7.218 -0.1961  0.2730  0.2364
    1W        W43948  26.883   5.855   0.880 -0.1146  0.2441  0.0224
    1W        W43949  19.701   6.807   0.590 -0.4027 -0.2853 -0.4218
    1W        W43950  15.578  22.241   0.112  0.0644 -0.0968  0.1124
    1W        W43951  12.267  19.763   3.673 -0.0660  0.0616  0.2709
    1W        W43952  22.582  13.866   2.145  0.2207 -0.1034  0.2337
    1W        W43953  23.957   6.069   3.010 -0.0698 -0.0728 -0.1388
    1W        W43954  14.288   0.994   3.144 -0.0086 -0.2410  0.0454
    1W        W43955  24.187  11.774   7.610  0.1956  0.3828  0.2228
    1W        W43956  11.740   2.983   3.347 -0.1314 -0.2149 -0.0622
    1W        W43957  23.898  23.158   7.006  0.0921 -0.2857  0.2929
    1W        W43958  19.515  27.109   8.925 -0.1314 -0.0339  0.0166
    1W        W43959  23.014   3.357   1.891 -0.1151 -0.1806  0.0340
    1W        W43960  13.418  14.391   8.597 -0.2598 -0.2038 -0.0495
    1W        W43961   9.435  24.022   2.318 -0.2153 -0.1945  0.2825
    1W        W43962  16.578   0.959   9.014 -0.1230  0.0026 -0.0226
    1W        W43963  21.157   0.183   2.073  0.0361 -0.1513  0.0977
    1W        W43964  23.693  28.047   9.631  0.1354 -0.1978 -0.0872
    1W        W43965   2.532  26.801   9.222  0.0630  0.2042  0.1495
    1W        W43966   7.701  25.293   2.707  0.0614 -0.0473 -0.1636
    1W        W43967  25.666  11.863   2.753 -0.0075  0.1739  0.2250
    1W        W43968  18.411  11.980   8.296  0.0411  0.2161  0.2522
    1W        W43969   7.998  27.509   7.343 -0.1371  0.3281  0.1696
    1W        W43970  16.943   1.970   0.842 -0.1296  0.2958 -0.1018
    1W        W43971  10.988  24.362   0.004 -0.2088  0.1193  0.1040
    1W        W43972   2.483  15.136   7.648  0.2811  0.0247 -0.1080
    1W        W43973  22.867  23.944   1.672 -0.1385 -0.1641  0.2810
    1W        W43974  19.025   1.275   7.967 -0.1467  0.0413 -0.0387
    1W        W43975   6.611  15.747   3.579 -0.0747 -0.1248  0.0385
    1W        W43976  26.966   9.284   9.162  0.0241  0.1369  0.3009
    1W        W43977   4.287  17.492   0.043  0.0813  0.2296 -0.1539
    1W        W43978   9.117   1.557   9.244  0.2449 -0.0221  0.0084
    1W        W43979  14.081  24.193   0.877  0.0635 -0.1801 -0.1583
    1W        W43980  13.381  25.180   2.089  0.1200 -0.0164 -0.1548
    1W        W43981   8.562  18.216   8.508 -0.1130 -0.4189  0.1165
    1W        W43982  16.757   9.683   0.057  0.0272 -0.2469  0.0493
    1W        W43983  16.402  23.091   2.444  0.0058 -0.2202  0.1689
    1W        W43984  14.280  19.644   3.138 -0.0524 -0.2141  0.1396
    1W        W43985  27.463  17.843   1.141 -0.0486 -0.0085  0.0503
    1W        W43986  25.241  25.012   1.038  0.1068  0.1911 -0.4165
    1W        W43987  24.340  27.440  10.033  0.3629 -0.1803 -0.0327
    1W        W43988  10.435   9.005   3.343 -0.1540  0.0285 -0.0990
    1W        W43989  23.384  17.004   1.062 -0.3303  0.1790 -0.0902
    1W        W43990  20.090   1.625   2.210 -0.2813 -0.0376  0.0650
    1W        W43991  20.291  12.421   2.950 -0.3334  0.0366  0.1389
    1W        W43992  17.311  16.375   9.360  0.0469 -0.0552  0.2292
    1W        W43993  19.897  13.229   8.497  0.1178 -0.1643 -0.2044
    1W        W43994  11.914  15.374  10.054  0.1562  0.2186  0.0149
    1W        W43995   2.313  24.207   1.549 -0.1176 -0.2168  0.0313
    1W        W43996   5.963   3.714   6.358  0.0234 -0.2423  0.1273
    1W        W43997  19.560  24.310   8.869  0.3405 -0.1139  0.1594
    1W        W43998  23.911   7.622   9.664 -0.2128  0.0881 -0.1585
    1W        W43999  16.788  19.811   2.819 -0.3736 -0.0047 -0.1184
    1W        W44000   2.000  11.720   0.293 -0.0974 -0.0643 -0.2648
    1W        W44001  24.438  16.429   1.305 -0.1856  0.0951  0.0235
    1W        W44002   5.315   5.880   0.676 -0.2783 -0.1576 -0.1739
    1W        W44003  25.529  14.566   0.800 -0.2051  0.2618 -0.0512
    1W        W44004  17.214  11.032   2.836 -0.2783  0.1749  0.0818
    1W        W44005   1.920  17.947   9.900  0.2545 -0.1179  0.0907
    1W        W44006  12.080  16.214   3.442 -0.1418  0.1299  0.0238
    1W        W44007   2.812  16.745   8.036 -0.1561  0.2387  0.2446
    1W        W44008   4.989   9.557   9.455 -0.3672  0.0774 -0.1517
    1W        W44009  18.221   5.355   2.018  0.3924  0.0856  0.0053
    1W        W44010   4.510  22.493   7.809  0.1285  0.1204 -0.1073
    1W        W44011  11.137  19.407   1.395 -0.0244  0.1380 -0.2407
    1W        W44012   9.873   1.406   7.739  0.0307  0.1732  0.0125
    1W        W44013  22.588  20.991   3.010  0.1157  0.2592 -0.4087
    1W        W44014  15.043   4.736   7.122  0.0045  0.0697  0.1852
    1W        W44015  26.990  24.712   8.088  0.1642  0.0009  0.2530
    1W        W44016   4.209  26.090   8.127 -0.1215  0.2370  0.0317
    1W        W44017   9.467  13.150   7.851 -0.1348  0.0562 -0.0897
    1W        W44018  16.149   7.497   8.234  0.0315 -0.3194  0.1113
    1W        W44019   9.445   2.922   8.051  0.2999  0.2566  0.3903
    1W        W44020  14.756   6.569   8.529 -0.2482  0.2243 -0.0498
    1W        W44021  22.223  15.901   7.478  0.0323 -0.1950 -0.0311
    1W        W44022   9.280  14.341   0.900 -0.0953 -0.1342 -0.0027
    1W        W44023   9.723  25.175   0.322  0.1240  0.2990  0.1198
    1W        W44024  23.534   9.740   8.997 -0.1868 -0.1367 -0.1243
    1W        W44025  25.033  25.689   1.910  0.2760  0.3973 -0.1561
    1W        W44026   9.167  26.723   8.697  0.1426  0.1817 -0.0687
    1W        W44027  24.683  26.579   0.115  0.0956  0.0162 -0.0505
    1W        W44028  15.318   8.366   7.366  0.0711 -0.0672  0.0853
    1W        W44029  15.062  21.985   0.464  0.1294 -0.0071 -0.1636
    1W        W44030  14.064  10.550   0.582 -0.0251 -0.4201  0.0184
    1W        W44031  19.826  21.853   8.416  0.3966 -0.1367 -0.1119
    1W        W44032   2.319  11.234   6.485  0.2408 -0.2293 -0.1307
    1W        W44033  16.122   7.467   2.559  0.1083 -0.1462 -0.0111
    1W        W44034  13.544   0.086   7.652 -0.0407 -0.0959  0.1053
    1W        W44035  27.134  27.867   9.146 -0.3513  0.0050 -0.4182
    1W        W44036  16.240   5.766   8.700  0.0131  0.3776 -0.2214
    1W        W44037  26.783  24.551   1.458 -0.0522 -0.1205 -0.1711
    1W        W44038   2.434  23.239   1.313 -0.3550  0.2176  0.0707
    1W        W44039  16.423  16.951  10.163  0.3359 -0.0468  0.3198
    1W        W44040  21.838  10.650   7.230  0.2120 -0.2734  0.0356
    1W        W44041  18.749  10.524   1.305 -0.2159  0.0038  0.0861
    1W        W44042   4.272   6.098   9.386  0.0752 -0.0148 -0.0913
    1W        W44043   5.851   5.985   8.634 -0.3625 -0.3456 -0.2219
    1W        W44044  16.841   1.533   8.676  0.2070  0.2510 -0.0499
    1W        W44045   4.287  20.185  10.039 -0.1624  0.2019  0.1208
    1W        W44046   9.105   8.595   2.769 -0.1703  0.2320  0.0688
    1W        W44047  10.314   6.174   3.377  0.1223  0.0252  0.5735
    1W        W44048  22.591  10.138   8.577  0.3133 -0.0901  0.0754
    1W        W44049  13.100   6.278   8.869  0.1512 -0.1158  0.1557
    1W        W44050  14.201  14.129   7.540 -0.2408  0.2421  0.1457
    1W        W44051  13.195  20.016   0.283  0.1715 -0.3528 -0.0100
    1W        W44052  26.450   1.515   0.493 -0.3741 -0.0183 -0.0995
    1W        W44053  27.359  14.437   0.267  0.0966 -0.1065 -0.1037
    1W        W44054   1.826   9.569   8.621  0.1540 -0.1444  0.0376
    1W        W44055  26.610  24.742   8.403  0.0867 -0.3114 -0.0013
    1W        W44056   9.432  22.226   0.640 -0.2209  0.2483  0.1044
    1W        W44057   3.641  18.211   2.896 -0.0979  0.3123 -0.3041
    1W        W44058   1.862  22.621   0.429 -0.1220 -0.2568 -0.3859
    1W        W44059  14.434  13.206   2.196 -0.0790 -0.0709  0.0542
    1W        W44060   8.116  20.978   1.081  0.3951 -0.0118  0.1084
    1W        W44061  23.749  18.240   7.556 -0.2149  0.3064  0.0839
    1W        W44062   4.544  21.982   7.888 -0.1311 -0.2203 -0.4002
    1W        W44063   7.618  11.589  10.155  0.1493 -0.0726  0.0561
    1W        W44064  20.823  11.395   9.455 -0.0319 -0.2735  0.0866
    1W        W44065  20.067  16.570   3.494  0.0468  0.1755  0.1692
    1W        W44066  18.591  11.716   0.634  0.0000  0.0787 -0.0483
    1W        W44067  20.943   6.863   1.411 -0.1063 -0.0490  0.2590
    1W        W44068  17.798  19.271   8.319 -0.0888 -0.0524  0.0394
    1W        W44069   5.516  22.875   0.237 -0.0504  0.1028  0.2822
    1W        W44070  14.077  25.142   7.598 -0.1813 -0.0265  0.1658
    1W        W44071   4.580   4.667   1.335 -0.0336  0.2490 -0.1522
    1W        W44072  16.787  10.730   3.243 -0.5005  0.3052 -0.0714
    1W        W44073  22.881  25.853   3.693  0.1851 -0.1972 -0.1172
    1W        W44074   2.496   9.369   7.896  0.0916  0.4249  0.0739
    1W        W44075  15.969   8.000   7.993 -0.0037 -0.2663  0.0429
    1W        W44076  23.180   6.690   8.216 -0.1417 -0.3112 -0.1947
    1W        W44077  23.228  20.763   8.772  0.1332 -0.2169  0.1508
    1W        W44078  23.957  19.964   0.437  0.2240  0.1323 -0.1668
    1W        W44079   1.857  14.220   9.756  0.0986 -0.2020 -0.0566
    1W        W44080   4.263   5.605   6.995  0.5500 -0.1934  0.0680
    1W        W44081  10.243  16.177   1.057 -0.0062 -0.0670 -0.1260
    1W        W44082  26.820  10.676   9.576  0.0790 -0.0946  0.0453
    1W        W44083  23.095  14.937   3.043  0.0488  0.1889  0.0008
    1W        W44084  11.000  10.417   0.035  0.3223  0.1185 -0.1625
    1W        W44085  22.928  10.812   8.006 -0.0149  0.3062 -0.0899
    1W        W44086  15.458  16.413   7.898  0.0354  0.0662 -0.2911
    1W        W44087   3.282  11.366   7.127  0.2399  0.1590 -0.2614
    1W        W44088  11.561  18.733   9.791 -0.0132  0.1047  0.1244
    1W        W44089   1.453  27.200   1.420  0.0835 -0.1281  0.0137
    1W        W44090  21.804  15.971   2.364 -0.3639 -0.2140  0.3301
    1W        W44091   4.994  28.097   7.836 -0.2288  0.1760 -0.1232
    1W        W44092  15.579  18.542   9.603 -0.1593  0.1344 -0.0867
    1W        W44093  11.538   1.089   7.635  0.0591 -0.2728  0.1172
    1W        W44094  26.741  10.712   8.816  0.1705 -0.6070  0.2078
    1W        W44095  12.623   2.671   7.200  0.0319 -0.2884  0.2869
    1W        W44096  22.463  18.819  10.118 -0.2624  0.2573 -0.2421
    1W        W44097  10.201  23.861  10.258 -0.1014 -0.0616  0.1330
    1W        W44098  14.537  18.955   9.076 -0.1292  0.3784  0.0660
    1W        W44099  21.618   4.108   0.638 -0.0341  0.1556  0.0242
    1W        W44100  13.805   2.789  10.005  0.3287 -0.1260 -0.1475
    1W        W44101   6.087   3.298   8.258  0.1155 -0.2654  0.2564
    1W        W44102  10.410  16.507   8.299 -0.0028 -0.0791  0.0201
    1W        W44103  16.384   9.313   3.810 -0.2877  0.0891  0.4478
    1W        W44104  27.147  24.789   6.483  0.1022 -0.3460  0.1639
    1W        W44105  19.947   3.497   7.254  0.1486  0.2961 -0.0645
    1W        W44106  17.905  13.043   0.818 -0.0050  0.3616 -0.0735
    1W        W44107  13.662   0.128   8.112  0.0326 -0.4381 -0.0261
    1W        W44108   0.196  20.345   9.319 -0.4687  0.3626  0.0650
    1W        W44109   2.743   4.163   9.720 -0.0389  0.0601 -0.0374
    1W        W44110  18.583   2.946   0.327  0.1603  0.0168  0.3510
    1W        W44111  17.795  13.272   6.630 -0.1772  0.1417 -0.1448
    1W        W44112   8.255  21.647   8.366  0.2683 -0.2044  0.1732
    1W        W44113  25.466   8.577   8.312 -0.0038 -0.2848  0.1919
    1W        W44114   6.022  18.040   2.619 -0.1739 -0.4273 -0.1882
    1W        W44115   9.516  24.478   8.976  0.1130  0.0356  0.0933
    1W        W44116  25.813  15.956   1.911  0.0272  0.2859  0.0131
    1W        W44117  25.442  22.684   7.478  0.1646  0.0518 -0.1632
    1W        W44118  19.389  10.943   3.087  0.2496 -0.0292 -0.0665
    1W        W44119   8.219  16.569   9.185 -0.0435  0.0362  0.1607
    1W        W44120   2.579   1.094   2.097  0.1263  0.0942  0.0054
    1W        W44121   1.536  24.781   8.828  0.2550 -0.4612 -0.2462
    1W        W44122   1.489  26.727   2.618  0.1010  0.2425  0.0345
    1W        W44123   6.506  27.525   9.329 -0.0077  0.0546 -0.2327
    1W        W44124  22.933  26.776   2.533 -0.2200  0.4697  0.1051
    1W        W44125  23.445   4.891   8.885  0.2415  0.1354  0.0825
    1W        W44126  18.117   6.672   8.208  0.2177 -0.0918 -0.3350
    1W        W44127  24.571   6.732   3.249  0.1262 -0.1403 -0.1321
    1W        W44128  16.679   2.357   1.128  0.4268  0.0673 -0.3212
    1W        W44129  12.850   3.684  10.043  0.0204  0.1468 -0.1590
    1W        W44130  21.442  12.147   0.374 -0.0111 -0.1793 -0.0353
    1W        W44131  17.851  20.012   2.259 -0.0712 -0.1402 -0.0236
    1W        W44132   2.874   0.598  10.278 -0.1554 -0.3376 -0.1601
    1W        W44133  17.905  12.306   2.330  0.0525  0.2251  0.2641
    1W        W44134   5.336   5.558   7.296  0.0999 -0.0881  0.0145
    1W        W44135   7.987   6.516   3.196  0.0435  0.4202 -0.3773
    1W        W44136  27.784  12.081   2.399  0.0521 -0.1985 -0.1210
    1W        W44137   0.285  20.831   0.547 -0.3395 -0.0765 -0.2554
    1W        W44138  22.501   4.626   3.554 -0.1992  0.0684 -0.0777
    1W        W44139  12.671   6.494   0.240 -0.1569 -0.1755 -0.0852
    1W        W44140   7.501   8.477   3.723 -0.1136  0.0481  0.0560
    1W        W44141  25.560   0.475   0.613  0.2564  0.0409 -0.2116
    1W        W44142  21.695  26.953   0.515 -0.0858 -0.0991 -0.0317
    1W        W44143   7.429  25.400   0.697 -0.0454 -0.1655  0.1329
    1W        W44144   9.543  23.025   1.965 -0.0462 -0.1689  0.0473
    1W        W44145  18.834   4.591   9.863 -0.1395  0.0064 -0.0670
    1W        W44146   5.529  24.198   8.429 -0.1769 -0.5002 -0.4435
    1W        W44147  14.519  17.736   2.913 -0.1434  0.1598 -0.3083
    1W        W44148  27.211  14.599   0.697 -0.0814  0.3366 -0.0520
    1W        W44149  14.208   1.521   9.399  0.2936 -0.2777  0.0523
    1W        W44150  17.733  20.214   9.181 -0.2530  0.2125  0.0810
    1W        W44151   6.771  11.470   3.082 -0.0688 -0.0239  0.1052
    1W        W44152   5.628   9.120   2.640 -0.3512  0.1442 -0.4352
    1W        W44153  20.844  16.055   2.812 -0.1530 -0.2824 -0.0036
    1W        W44154  16.145   3.967   3.673 -0.2662 -0.2765 -0.0116
    1W        W44155  27.261   7.623   0.770  0.0397  0.5065 -0.1388
    1W        W44156  13.225  24.329   2.621 -0.0394  0.0391 -0.1082
    1W        W44157  17.376   3.074   8.682 -0.0729  0.1175 -0.1501
    1W        W44158  23.423  11.744   6.830 -0.1337  0.0092 -0.0718
    1W        W44159  13.561  25.383   9.715 -0.2069  0.0755 -0.0580
    1W        W44160  13.522  12.282   2.205  0.0895  0.0791  0.0818
    1W        W44161  25.516  25.749   8.223  0.2486  0.0324  0.0516
    1W        W44162  14.473   7.826   4.108  0.1859 -0.2795  0.1169
    1W        W44163   6.997  13.453   1.267 -0.3877  0.3114  0.0674
    1W        W44164   1.005   6.772   6.631 -0.2284  0.1737  0.1617
    1W        W44165  22.879  19.341   8.261 -0.1476  0.2225  0.1497
    1W        W44166  13.318  13.450   7.762  0.1531  0.2900  0.1837
    1W        W44167  16.615  19.441   2.181 -0.4501  0.0082  0.0878
    1W        W44168   1.973  27.478   9.223 -0.2865 -0.2169  0.1191
    1W        W44169  15.579  21.576   2.724  0.0094  0.0525  0.0677
    1W        W44170  15.622  22.394   9.136  0.0286 -0.1053  0.1638
    1W        W44171  13.171   8.333   2.526 -0.2812  0.1091  0.2006
    1W        W44172  22.494  22.578   1.774 -0.1102  0.0970 -0.0382
    1W        W44173  22.429  25.909   2.278 -0.1524 -0.0562 -0.3238
    1W        W44174   3.666   2.462  10.330  0.0586  0.1272  0.2755
    1W        W44175  24.192   8.390   7.259 -0.0316 -0.2479  0.2127
    1W        W44176  24.067   0.174   1.571 -0.3668 -0.0953  0.0231
    1W        W44177   2.533  17.019   0.513  0.1821  0.2260  0.0365
    1W        W44178  10.852  13.628   9.137  0.2378  0.0338  0.0475
    1W        W44179  14.191   9.181   2.522 -0.2358  0.2054 -0.4290
    1W        W44180  22.498  23.515   2.532 -0.1853  0.1139  0.0361
    1W        W44181  15.050   6.446  10.016 -0.2295 -0.1540 -0.3441
    1W        W44182  10.859   8.561   8.977 -0.3631  0.1948 -0.2158
    1W        W44183  12.208  22.790   1.662 -0.0946 -0.0838  0.0726
    1W        W44184  20.144   8.884   1.883  0.2520 -0.1127  0.1718
    1W        W44185   9.408  15.033  10.007 -0.0034  0.0647 -0.0511
    1W        W44186   0.011  12.073   1.311 -0.2573 -0.0334  0.0099
    1W        W44187   7.458  26.588   9.001 -0.0381  0.0371 -0.0591
    1W        W44188  12.746   9.860   2.816 -0.0769  0.2354  0.2694
    1W        W44189   4.368  11.056   1.016 -0.1370  0.1243 -0.0426
    1W        W44190   3.369   8.761   0.162 -0.1663 -0.2194  0.3648
    1W        W44191  22.261  12.721   9.685 -0.0971  0.1850 -0.0973
    1W        W44192   5.946   5.402   1.308  0.1823  0.0233 -0.1555
    1W        W44193   3.633  23.387   0.991 -0.0235  0.3955 -0.1359
    1W        W44194  20.666  20.523   7.296 -0.2802  0.1204 -0.0961
    1W        W44195   8.747   9.052   9.638 -0.0862 -0.1258  0.0039
    1W        W44196   0.970   0.671   1.079  0.1349 -0.3351 -0.0085
    1W        W44197   0.886   4.326   6.924  0.3102  0.2611 -0.0906
    1W        W44198  28.120  22.482   7.070  0.1825  0.0979  0.0325
    1W        W44199   6.797   7.092   7.466 -0.1761  0.0792  0.0171
    1W        W44200  24.445  27.038   3.051  0.0178 -0.1513 -0.1571
    1W        W44201  11.863  10.082  10.021  0.3658 -0.0661 -0.4179
    1W        W44202  23.901  24.661   8.105  0.0064  0.0113  0.2301
    1W        W44203   0.307  15.111   8.265 -0.0555 -0.1336  0.2267
    1W        W44204   5.970  26.729   8.975  0.1338  0.1495  0.2356
    1W        W44205  16.619   1.929   2.670 -0.2195  0.2978 -0.1042
    1W        W44206   3.247  18.205   7.825  0.2923  0.0708 -0.1888
    1W        W44207   9.460   6.246   7.535 -0.0284 -0.0043 -0.1839
    1W        W44208  11.857  15.967   9.146 -0.1408  0.0661 -0.1695
    1W        W44209   4.789  21.731   2.334 -0.1018  0.3133  0.2754
    1W        W44210  16.656   9.569   9.919  0.0495  0.1425 -0.0747
    1W        W44211  15.073  17.189   1.783 -0.0915  0.2081  0.0150
    1W        W44212  15.660   2.118   9.074 -0.1472 -0.1764  0.1597
    1W        W44213  19.713  21.365   3.139 -0.1379 -0.0553 -0.1586
    1W        W44214  15.389  19.103   3.453 -0.1502  0.0716  0.1563
    1W        W44215  17.667  18.072  10.266  0.0158 -0.1284  0.1766
    1W        W44216  10.877  13.832   0.002  0.0275  0.2443 -0.0963
    1W        W44217  17.459  10.370   0.863 -0.3037  0.1449 -0.2434
    1W        W44218  27.952  12.871   3.321  0.0068  0.0779 -0.1173
    1W        W44219  24.940  20.094   1.103 -0.0826 -0.2301 -0.1767
    1W        W44220   2.329   9.571  10.345  0.0739  0.0049 -0.0475
    1W        W44221  22.387  10.155   2.888 -0.1840  0.1027  0.1552
    1W        W44222  26.329   8.702   0.040  0.1352  0.2407 -0.1549
    1W        W44223   1.658  27.486   6.784  0.0580 -0.3549  0.0362
    1W        W44224  26.697  21.108   9.125  0.2127  0.4087 -0.1328
    1W        W44225   4.590  14.569   0.198  0.3943  0.2087 -0.0692
    1W        W44226  15.602  14.046   9.723 -0.2477 -0.0548  0.1597
    1W        W44227  14.538  11.753  10.180  0.0105  0.1011  0.0214
    1W        W44228  20.585  22.210   7.672  0.2204 -0.1722 -0.0894
    1W        W44229   6.904  10.605   9.327  0.0825 -0.2607 -0.1078
    1W        W44230  24.521   1.282   0.402 -0.3185  0.1693  0.2065
    1W        W44231  13.126  14.439   9.034  0.2307  0.2290 -0.4178
    1W        W44232  15.470  17.720   7.902  0.1322 -0.0275 -0.1808
    1W        W44233   5.181   4.272   6.559  0.0027 -0.0241  0.0532
    1W        W44234   6.480   6.769   1.224 -0.4085 -0.0775  0.1490
    1W        W44235  20.790   3.810   7.427 -0.0663 -0.0572  0.1141
    1W        W44236  14.628  19.874   8.774  0.0391  0.3427  0.1839
    1W        W44237  26.345  16.044   9.231 -0.3226  0.1476  0.0391
    1W        W44238  15.999  27.682   3.739  0.0279 -0.2925 -0.5390
    1W        W44239   4.773  11.964   9.650  0.0522  0.0546 -0.0320
    1W        W44240   9.352   6.065   3.349  0.1846  0.2723 -0.0832
    1W        W44241  17.460   1.827   0.798 -0.0506  0.2933  0.0050
    1W        W44242   0.504  13.386   9.430 -0.2635 -0.2281 -0.2297
    1W        W44243  27.623  12.409   9.944 -0.0237  0.2417  0.0879
    1W        W44244   9.492   8.608   1.696  0.0275  0.2249  0.1637
    1W        W44245   3.758  16.464   9.979 -0.2935 -0.1226 -0.2212
    1W        W44246  19.641  10.998   1.714  0.1346  0.1989 -0.2591
    1W        W44247   9.677   2.070   2.715 -0.0609 -0.0912  0.2981
    1W        W44248  16.534  27.408   7.211  0.0590  0.0651 -0.1424
    1W        W44249  15.074   3.900   0.480 -0.1508  0.0463 -0.1609
    1W        W44250  10.394  19.632   1.190  0.0042 -0.3626 -0.1244
    1W        W44251   3.781   7.326   0.159 -0.2131  0.2977 -0.0095
    1W        W44252   1.776   2.854   0.035 -0.2498  0.1654 -0.2204
    1W        W44253   9.252   3.278   2.109  0.0016  0.2525  0.2440
    1W        W44254  18.806   1.506   2.851  0.0907  0.0303  0.0622
    1W        W44255   1.358   8.548   7.367 -0.0327 -0.0730  0.2050
    1W        W44256   7.059  20.422   8.188 -0.0225  0.1028 -0.0124
    1W        W44257   5.333  25.155   2.999  0.0969  0.0026  0.1034
    1W        W44258  18.340  15.592   0.882  0.0977 -0.0150 -0.0966
    1W        W44259  14.265  10.956   4.304 -0.0232  0.1207  0.0974
    1W        W44260  15.647   5.489   1.797 -0.0192 -0.0014 -0.1515
    1W        W44261  25.692  17.151   7.560 -0.1103  0.0736 -0.1532
    1W        W44262   6.863   5.195   7.498 -0.0856 -0.1800  0.2293
    1W        W44263  24.840   7.228   0.689 -0.1628  0.0036 -0.1554
    1W        W44264  23.922  23.277   8.942 -0.1147  0.0658  0.2351
    1W        W44265   2.959  18.210   0.476 -0.1785  0.2477  0.1687
    1W        W44266  27.752  24.546   1.512 -0.0928 -0.2103  0.0560
    1W        W44267  13.685  23.415   0.088 -0.0278  0.1090 -0.2555
    1W        W44268  12.852  27.775   1.572  0.2456 -0.0755 -0.0492
    1W        W44269  26.369   4.209   7.356  0.0792 -0.0717 -0.2159
    1W        W44270  18.812  27.455   8.913  0.2084 -0.1008  0.3716
    1W        W44271  21.498  25.794  10.194  0.2507  0.1212  0.1311
    1W        W44272   1.098   8.890   8.716  0.1304 -0.0105 -0.0369
    1W        W44273   6.805   8.884   9.029 -0.1185  0.0213  0.0922
    1W        W44274  18.694   9.747   0.149  0.1820  0.1067 -0.1402
    1W        W44275   6.915  20.010   9.386 -0.0839  0.1714  0.0608
    1W        W44276  13.079   8.145   0.895  0.2203 -0.1100  0.0149
    1W        W44277  12.653  14.121   8.176  0.0183  0.0837 -0.2938
    1W        W44278  18.871  27.296   1.176 -0.1295 -0.1606 -0.0531
    1W        W44279  25.645   3.608   3.458 -0.2204 -0.0871 -0.0437
    1W        W44280  14.258   5.491  10.285  0.1466 -0.0934 -0.1339
    1W        W44281   7.576  15.416   1.775  0.0287 -0.0639 -0.1000
    1W        W44282   5.322   9.079   0.975 -0.1316 -0.1419  0.1885
    1W        W44283  15.384   2.102   2.557 -0.1686 -0.1132  0.0932
    1W        W44284  17.428  12.093   2.144  0.0783  0.5652  0.1045
    1W        W44285   6.040  23.411   0.650 -0.2069  0.0431 -0.2455
    1W        W44286  23.917   9.541   9.325  0.0282 -0.2372 -0.0833
    1W        W44287  17.643  10.517   3.302 -0.0787 -0.0935  0.0819
    1W        W44288  10.270  17.332   8.639 -0.1250  0.0512  0.0936
    1W        W44289   5.176  22.156   7.216 -0.1508  0.1366 -0.2167
    1W        W44290   2.459  25.465   9.039  0.2891 -0.1615 -0.0217
    1W        W44291  25.171  24.643   3.044  0.0643  0.0400 -0.1555
    1W        W44292   3.047  25.690   9.455  0.0528 -0.2337 -0.0377
    1W        W44293  22.961  10.186   3.617 -0.2568 -0.1144 -0.1926
    1W        W44294  25.161  11.612   1.329 -0.1162 -0.1199 -0.0086
    1W        W44295  22.981  27.235   1.304  0.1793 -0.0183  0.1412
    1W        W44296  18.229  12.722   0.597 -0.0015 -0.2021  0.1719
    1W        W44297  16.942  17.089   1.141  0.1109  0.1384  0.1841
    1W        W44298   5.672  26.306   8.994 -0.1557  0.0298 -0.1117
    1W        W44299  19.275  26.645   2.521  0.3751 -0.4228 -0.1282
    1W        W44300  26.949   2.396   8.206 -0.1362 -0.0768  0.0011
    1W        W44301   4.827  22.940   8.642 -0.1373 -0.0717 -0.1966
    1W        W44302  21.359  26.823   0.051 -0.0621 -0.0443 -0.1802
    1W        W44303  20.969  22.250   8.504  0.3127  0.0737  0.2884
    1W        W44304  20.130  25.409   2.155 -0.0346  0.0849 -0.0405
    1W        W44305  27.132   0.458   0.270  0.0477  0.1468 -0.2268
    1W        W44306  27.138  22.856   8.746 -0.0578 -0.2300 -0.2291
    1W        W44307  19.042  16.566   3.002 -0.1782 -0.1334  0.1109
    1W        W44308  22.246  10.857   9.259  0.0782  0.2765  0.1964
    1W        W44309  18.107   2.774  10.171  0.0328  0.0894 -0.0427
    1W        W44310  26.563  16.477   9.928  0.1378 -0.4492 -0.0317
    1W        W44311  14.152   5.249   2.551 -0.0340  0.0646 -0.0490
    1W        W44312  15.907   3.406   3.583 -0.0794 -0.0602  0.1386
    1W        W44313   0.595  27.528   7.844 -0.0349 -0.0461  0.2505
    1W        W44314  12.944  20.120   2.521 -0.1344  0.2214  0.1725
    1W        W44315  24.363  14.632   3.227  0.0191  0.1614  0.0302
    1W        W44316  26.560  27.870   1.416  0.0291 -0.0157  0.1172
    1W        W44317  18.754  17.583   2.359  0.2135  0.0946 -0.0097
    1W        W44318   8.853  17.962   0.133  0.0792 -0.1180  0.3423
    1W        W44319  19.364  23.549   8.114  0.1320  0.1733 -0.0751
    1W        W44320  17.497   2.931   9.265  0.1119 -0.5617  0.0054
    1W        W44321   6.321  19.333   9.509  0.0418 -0.3370  0.0694
    1W        W44322   3.481   0.697   9.483 -0.1393 -0.2075 -0.0287
    1W        W44323   4.727  18.661   3.736  0.1993 -0.0438 -0.2782
    1W        W44324  20.102  21.328   7.295 -0.0777  0.0042  0.0122
    1W        W44325   6.609   5.074   9.746 -0.0318 -0.1169 -0.0633
    1W        W44326   3.260   9.805   9.655  0.4308  0.1162 -0.1347
    1W        W44327  14.504  10.736   9.163 -0.1569  0.2864  0.1960
    1W        W44328  22.776   0.399   6.829 -0.1145 -0.0021 -0.2144
    1W        W44329  15.647  12.988   2.140 -0.1072 -0.0815  0.1911
    1W        W44330  17.517  24.266   8.433  0.0781  0.0064  0.0733
    1W        W44331   9.960  18.575   9.771  0.1419  0.4104  0.1000
    1W        W44332  24.325  11.446   8.923 -0.1573  0.0961 -0.0486
    1W        W44333  21.104   2.490   1.506  0.0945 -0.0649 -0.2672
    1W        W44334  19.055  13.376   3.668 -0.1377 -0.0002  0.1368
    1W        W44335  22.305  20.492   7.189  0.3450 -0.3512  0.2210
    1W        W44336   7.423   6.968   7.726 -0.0069 -0.0327  0.1465
    1W        W44337   8.268  27.919   1.172  0.4306  0.0621  0.0445
    1W        W44338  11.605   7.638   0.833  0.0050  0.0893  0.1454
    1W        W44339  13.366  24.326   1.591  0.2610 -0.1396  0.0568
    1W        W44340  10.597   3.087   8.795 -0.2664 -0.0676 -0.0125
    1W        W44341  23.303   0.849   0.484  0.2446  0.1850  0.0082
    1W        W44342   8.809   2.439   9.438  0.2168  0.0960  0.1059
    1W        W44343  18.650  19.477   9.717  0.1478 -0.1990 -0.3388
    1W        W44344  21.554  27.654  10.277 -0.0309  0.1108  0.3116
    1W        W44345   7.721   2.117   1.669  0.1180  0.2462  0.0667
    1W        W44346   7.292  21.081   0.985  0.0887 -0.1317 -0.0462
    1W        W44347  20.196   0.499   7.760  0.0343  0.0655  0.0740
    1W        W44348   1.209  23.827   1.752 -0.0612  0.0572 -0.1090
    1W        W44349   7.637  21.584   8.250 -0.1736  0.0961 -0.1852
    1W        W44350  22.893  16.771   1.720  0.2383  0.2922  0.0547
    1W        W44351  10.113  15.780   6.963  0.0746 -0.3681 -0.3072
    1W        W44352  23.906   7.087   0.894 -0.0802 -0.0997 -0.2008
    1W        W44353  23.965  10.950   7.063  0.0313  0.0599 -0.1052
    1W        W44354   7.286   9.640   2.776 -0.2647 -0.1415 -0.0276
    1W        W44355  18.070   2.804   2.621  0.1171  0.2908  0.0525
    1W        W44356  22.404  18.729   9.277  0.2487 -0.2473 -0.1815
    1W        W44357  24.933  20.857   6.615  0.3609  0.2881  0.0917
    1W        W44358   4.772  17.724  10.275  0.2390 -0.0454  0.0734
    1W        W44359   0.950  11.252   2.911 -0.4609 -0.1496 -0.0567
    1W        W44360   7.930  13.773   7.880  0.2695 -0.1157  0.0020
    1W        W44361  20.225  19.644   2.886 -0.4177  0.4178 -0.0777
    1W        W44362  15.462   1.891   2.007  0.2874  0.0856  0.2801
    1W        W44363   5.528  16.404   9.864  0.0449  0.1827 -0.1658
    1W        W44364   9.418  10.682   2.092 -0.3377 -0.0065 -0.2489
    1W        W44365   6.593   2.879   7.825 -0.1863 -0.1220  0.0987
    1W        W44366   9.040  12.694   2.879 -0.1879  0.0626 -0.0868
    1W        W44367  23.195  21.328   0.603 -0.1827 -0.1450 -0.1272
    1W        W44368  24.046  26.683   8.716 -0.1631  0.0041  0.0168
    1W        W44369   2.655  27.815   8.657 -0.2086 -0.2050  0.0973
    1W        W44370  11.232   5.156   9.447  0.1561  0.0934  0.0643
    1W        W44371  13.813   3.697   8.529  0.0027 -0.2374 -0.1179
    1W        W44372  21.041   2.027   2.593 -0.0545  0.0911 -0.1634
    1W        W44373   2.947  22.853   1.487 -0.0337 -0.2783  0.1842
    1W        W44374   8.666   0.630   1.095 -0.0412 -0.2224 -0.1059
    1W        W44375  26.941  24.723   9.435  0.2232  0.0458  0.0704
    1W        W44376  16.266   3.424   7.543  0.0558 -0.2449 -0.2522
    1W        W44377  14.031  23.331   0.856  0.1564 -0.1495 -0.2583
    1W        W44378   2.425  11.350   9.819 -0.2282  0.1769 -0.0810
    1W        W44379  17.118  10.575   0.198  0.0449 -0.0432 -0.0950
    1W        W44380   9.245  10.454   9.827  0.0080  0.0692  0.3562
    1W        W44381   9.863  14.024   7.436 -0.0291  0.3854 -0.0744
    1W        W44382   0.943  19.869   7.617 -0.0094 -0.2880 -0.0280
    1W        W44383   2.607  15.390   2.115 -0.1110  0.0633 -0.3178
    1W        W44384  20.840  21.293  10.330  0.2190  0.0330 -0.1270
    1W        W44385  24.594  13.564   0.865 -0.0932  0.0865 -0.1851
    1W        W44386  13.079   4.604  10.040  0.2540  0.0626 -0.2299
    1W        W44387  13.325  10.982   1.864  0.1799 -0.1012  0.1611
    1W        W44388  13.214  22.480   0.948 -0.6450 -0.3056  0.0323
    1W        W44389   2.986   1.692   8.264 -0.1030 -0.1751 -0.1454
    1W        W44390   2.245   4.819   6.002  0.2010  0.0184 -0.1669
    1W        W44391   4.227   0.540   8.842  0.0304  0.0222 -0.1196
    1W        W44392  19.965   1.103   2.166 -0.0851  0.3076  0.3011
    1W        W44393  21.773  11.387   2.047 -0.0004 -0.2291 -0.0240
    1W        W44394  16.647   6.701   0.803 -0.0994 -0.2536  0.0821
    1W        W44395  22.595   4.198   1.620 -0.0212 -0.1609  0.1957
    1W        W44396  18.937  18.700  10.221 -0.0412 -0.1864  0.0152
    1W        W44397  27.073   3.661   8.291  0.3273  0.1296  0.2288
    1W        W44398   8.225   8.884   8.146  0.1198 -0.0940  0.0046
    1W        W44399  17.922  23.477   9.006  0.2316 -0.1701  0.3351
    1W        W44400  23.048  26.627   1.562  0.0913  0.1147 -0.1941
    1W        W44401   4.431  24.694   1.116  0.0963  0.1145 -0.0320
    1W        W44402   3.747   5.320   1.802 -0.1398 -0.1671  0.3740
    1W        W44403  14.350  15.249   8.786  0.0987  0.0366 -0.0836
    1W        W44404  16.599  20.706   2.195  0.2002  0.2078 -0.1721
    1W        W44405   7.026   8.040   6.794  0.4625  0.0908 -0.1584
    1W        W44406  16.980   1.793   9.017 -0.2578 -0.0797  0.0144
    1W        W44407   5.200  19.913   1.874  0.2028  0.0092 -0.1882
    1W        W44408  19.558  19.265   2.396  0.1226  0.0456 -0.1484
    1W        W44409   9.092  17.914   8.277  0.0933 -0.3393  0.3700
    1W        W44410  11.552  11.218   8.126 -0.1198 -0.0299 -0.1221
    1W        W44411  22.606   0.338   1.712 -0.0108 -0.0511 -0.0961
    1W        W44412   5.038  19.819   1.219 -0.1696  0.1294  0.3288
    1W        W44413  14.731   4.800   9.363  0.2448 -0.0567  0.0839
    1W        W44414   0.872   7.758   9.900 -0.2638  0.5179  0.0520
    1W        W44415  19.333  19.877   7.775  0.0375  0.1874  0.1183
    1W        W44416   1.386  23.447   0.752  0.1118 -0.0833 -0.0468
    1W        W44417   1.612   2.001   0.501 -0.1704 -0.0412  0.2790
    1W        W44418   2.882  23.231   2.980 -0.0573 -0.2453  0.0469
    1W        W44419  16.142  20.248   0.059 -0.1241  0.4605  0.1185
    1W        W44420  10.777   0.815   2.306 -0.2625 -0.2563  0.2112
    1W        W44421   7.131   9.350   2.366 -0.5022 -0.2357  0.0419
    1W        W44422   5.125  23.608   1.343 -0.1271 -0.3011  0.4494
    1W        W44423   6.343   0.725   8.302  0.2842  0.2239 -0.1767
    1W        W44424  26.332   0.008   2.110  0.1492 -0.0652  0.1620
    1W        W44425  22.566  24.958   1.561  0.0014 -0.0503 -0.0210
    1W        W44426   7.579  18.636   0.289 -0.1011  0.1250  0.0385
    1W        W44427   0.948  15.952   0.183  0.0348 -0.2099 -0.3713
    1W        W44428  21.281  23.537   9.717  0.1397 -0.0989 -0.1822
    1W        W44429  22.894  27.260   2.367  0.0242  0.2842 -0.0819
    1W        W44430  11.364   2.016   2.928 -0.1856  0.0341 -0.2692
    1W        W44431  19.991   2.978   0.768  0.0008  0.1823  0.0468
    1W        W44432   3.391  19.898   2.213  0.1601  0.1340 -0.1649
    1W        W44433  24.095  14.290   7.483  0.1367 -0.0864  0.2293
    1W        W44434  25.937  22.876   1.050 -0.1135 -0.0667 -0.0142
    1W        W44435  20.998  15.433   8.219 -0.1295 -0.0495  0.3769
    1W        W44436  17.853   4.844   2.023 -0.0530 -0.0152  0.2492
    1W        W44437  20.499  11.659   0.332  0.0312  0.0418 -0.0747
    1W        W44438  16.432  20.047   9.033  0.2560  0.0534  0.0331
    1W        W44439  22.217   7.713  10.063 -0.2266 -0.1087  0.0980
    1W        W44440  23.107  26.640   7.109  0.0497 -0.2672  0.3433
    1W        W44441   8.746  17.401   0.128  0.2097 -0.0412 -0.1911
    1W        W44442  25.008  18.450   2.478  0.1923 -0.0567 -0.2255
    1W        W44443  14.342   6.468   2.277 -0.0770  0.0994  0.1303
    1W        W44444  15.529  11.417   2.130 -0.0687  0.2617 -0.0031
    1W        W44445  19.059   3.849   6.824 -0.1020  0.0285  0.1081
    1W        W44446   4.873  15.998   0.359  0.1722 -0.0623 -0.2413
    1W        W44447  21.756   7.461   0.956  0.0335 -0.0244  0.0628
    1W        W44448   8.999  27.225   7.124  0.3135  0.1286 -0.6389
    1W        W44449  15.231   6.155   8.568  0.2855 -0.1208 -0.1219
    1W        W44450  23.597  19.212   7.769  0.0456  0.0863 -0.0973
    1W        W44451  27.040  17.886   8.527 -0.4689 -0.2502 -0.0420
    1W        W44452  12.228  17.134   3.367  0.0040 -0.0611 -0.4762
    1W        W44453  13.100  24.602   6.860  0.0043  0.0603  0.0287
    1W        W44454  15.163  17.329   0.064  0.1930  0.1422 -0.1662
    1W        W44455  25.942  15.922   0.880  0.0570  0.1351  0.1882
    1W        W44456   3.463  21.481   6.174  0.2965 -0.0443 -0.0461
    1W        W44457   7.638  23.624   8.057 -0.0551 -0.0730  0.2434
    1W        W44458   7.131  11.853  10.323  0.2218 -0.3124 -0.2396
    1W        W44459  24.285  21.134   1.939 -0.1373 -0.0567  0.1532
    1W        W44460   1.716  24.403   2.687 -0.0335 -0.0665  0.1091
    1W        W44461   6.022  23.058   0.327 -0.0520  0.1873 -0.1326
    1W        W44462  25.811  12.463   0.488 -0.1516 -0.0830  0.2277
    1W        W44463  10.315   4.182   1.468 -0.0027  0.1724  0.3109
    1W        W44464  11.570  22.000   9.005 -0.2020 -0.2804  0.0635
    1W        W44465  15.986  26.466   0.550  0.1044  0.0720  0.0761
    1W        W44466   4.878  17.167   8.047  0.0927 -0.2551 -0.0040
    1W        W44467   3.205  27.951   7.835  0.2124  0.0943  0.2885
    1W        W44468  10.907   1.649   2.431 -0.0097  0.0897  0.0773
    1W        W44469  15.763  10.351   2.248 -0.1085  0.2404 -0.2008
    1W        W44470  17.197  23.140   9.466  0.1192 -0.0938  0.1998
    1W        W44471  11.392  27.331   9.203  0.0425 -0.3156 -0.0793
    1W        W44472  12.165  24.844  10.285  0.1233 -0.1196 -0.2718
    1W        W44473  13.278  20.574   3.384 -0.0585  0.3550  0.0212
    1W        W44474  21.240  15.398   9.595  0.2929 -0.2681 -0.4605
    1W        W44475  12.475  17.948   1.428  0.0195  0.1468 -0.0941
    1W        W44476  19.731   5.773   8.061 -0.0915 -0.0771  0.1584
    1W        W44477   7.653   7.323   7.081  0.2916 -0.1449 -0.0693
    1W        W44478   3.165   6.447   1.988  0.0050  0.1365 -0.4131
    1W        W44479   8.600  19.695   2.357 -0.0396  0.2672  0.0195
    1W        W44480  19.844  27.860   0.129  0.0759  0.0446 -0.1591
    1W        W44481  22.342  23.481   9.167 -0.2810  0.1659  0.1585
    1W        W44482   4.719   5.054   7.422 -0.0293 -0.1476 -0.1752
    1W        W44483  12.714  15.479   9.999  0.0230  0.0209  0.1948
    1W        W44484   7.867  27.431   1.716  0.0401  0.0519  0.2468
    1W        W44485  10.074   0.220   2.910  0.1169  0.1623  0.1423
    1W        W44486  15.726  11.427   2.911 -0.1007  0.1804  0.0766
    1W        W44487  22.095   4.733   8.001  0.1417  0.1560 -0.2620
    1W        W44488  12.209  10.572   7.767  0.1579 -0.0798  0.0777
    1W        W44489  18.799  12.212   2.098 -0.2066  0.0733  0.0561
    1W        W44490   2.173   9.158   0.897  0.1691 -0.1326  0.3280
    1W        W44491   1.208   3.535   7.228  0.3466  0.0842  0.1618
    1W        W44492  10.638  11.235   0.023 -0.0716  0.1475 -0.1839
    1W        W44493  20.597  16.530   2.737  0.2265 -0.0289 -0.1136
    1W        W44494   6.380  22.606   7.255 -0.0295  0.0476  0.1009
    1W        W44495  27.732  28.027   1.395  0.2546 -0.3195 -0.1088
    1W        W44496  23.433   9.738   8.496  0.1842  0.2584  0.2778
    1W        W44497   2.945   4.894   0.548  0.2660 -0.0189  0.0152
    1W        W44498   2.613   1.196   7.384 -0.1402  0.1562  0.0541
    1W        W44499   6.520  19.624   1.207 -0.0202  0.0737 -0.0061
    1W        W44500  20.759   6.257   1.310  0.4409 -0.3664 -0.1460
    1W        W44501  11.236  13.676   3.483 -0.0738  0.2757  0.2964
    1W        W44502  20.237  11.235   8.861  0.0518  0.0166 -0.2601
    1W        W44503   5.504   9.808   8.368 -0.0173  0.1878  0.0500
    1W        W44504  26.367  22.337   6.456 -0.3115  0.0758 -0.0790
    1W        W44505   2.111  25.757   6.989 -0.2303 -0.0501 -0.1232
    1W        W44506  18.567   8.468   2.324 -0.2200 -0.0928  0.2918
    1W        W44507  17.853   2.045   3.232 -0.1895 -0.1754  0.0719
    1W        W44508  23.108  27.370   9.885  0.1568  0.1127  0.2235
    1W        W44509  25.337  22.327   0.593  0.1150 -0.0760 -0.1402
    1W        W44510   3.156   5.676   9.181 -0.3110 -0.0444  0.1452
    1W        W44511   2.563   4.527   0.875 -0.1016  0.1916 -0.1310
    1W        W44512   2.387   1.970  10.252 -0.0337  0.1207 -0.2752
    1W        W44513  18.551  16.727   1.926  0.1601  0.0016 -0.0931
    1W        W44514  17.798  16.991   7.540  0.1342 -0.3859 -0.1249
    1W        W44515  18.971  15.332   8.880 -0.3265 -0.0873  0.2969
    1W        W44516  22.933  14.862   0.866  0.1987  0.0114 -0.0675
    1W        W44517   2.054  11.095   2.846  0.3151  0.0044  0.1278
    1W        W44518  21.614  23.391   8.874 -0.0967  0.1416  0.4525
    1W        W44519   0.378  11.362   8.161  0.1624 -0.0410 -0.1497
    1W        W44520  20.690  27.631   7.656 -0.1493  0.0474 -0.3117
    1W        W44521   3.387  26.409   0.290 -0.1636 -0.0830 -0.1980
    1W        W44522  28.115  20.960   0.949  0.0121  0.1392 -0.3024
    1W        W44523   6.619  25.749   7.961  0.1258 -0.1160  0.1953
    1W        W44524  16.581  27.715   0.603 -0.0598  0.0087  0.2311
    1W        W44525  23.382   8.831   8.810 -0.0813 -0.1388  0.2746
    1W        W44526  16.875   3.817   9.051 -0.0745 -0.0669 -0.2405
    1W        W44527   4.534  12.229   9.249 -0.1495 -0.0486 -0.0518
    1W        W44528  25.847  26.549   8.147  0.0179 -0.2317  0.0116
    1W        W44529   3.914  15.121   9.943  0.1429 -0.0063  0.0798
    1W        W44530  13.742  12.624   8.917 -0.2321  0.1654 -0.0470
    1W        W44531   4.225   8.974   7.595  0.1118  0.1104  0.2017
    1W        W44532   4.067  22.580   0.672 -0.3195  0.2000  0.1894
    1W        W44533  16.952  23.313   1.152 -0.1736 -0.2686  0.3209
    1W        W44534  16.798   9.457   1.633  0.1758 -0.0743 -0.0968
    1W        W44535  12.883  20.630   3.682  0.2018 -0.1851 -0.1490
    1W        W44536  22.142   9.739   3.192 -0.1259 -0.1076  0.0084
    1W        W44537  22.740  13.905   0.169  0.1650 -0.1299  0.0654
    1W        W44538  22.260  20.993   0.059  0.2726  0.0447  0.0897
    1W        W44539  27.272   5.039   7.726  0.2778  0.1107  0.1665
    1W        W44540  14.343   9.816   9.537 -0.3104 -0.1847 -0.1983
    1W        W44541   5.859  10.367   1.914  0.1841  0.0764  0.3412
    1W        W44542  21.046   7.613   8.424 -0.1224  0.2656  0.0523
    1W        W44543  20.092  10.902   1.504  0.4891 -0.0865  0.0810
    1W        W44544  15.724   8.949   0.414  0.1126 -0.0166  0.1282
    1W        W44545   6.718  19.540   9.243  0.3382 -0.2820 -0.2054
    1W        W44546  24.851  25.082   0.458 -0.3198 -0.1391 -0.0933
    1W        W44547  14.369  14.893   0.702  0.2064  0.3069  0.0901
    1W        W44548  14.825   5.953   0.092  0.1680 -0.1452 -0.1752
    1W        W44549  13.203   4.939   7.954  0.0164  0.1623  0.0292
    1W        W44550  21.210  11.250   8.777  0.0589  0.1567  0.0438
    1W        W44551  11.493  11.778   8.295  0.0266 -0.0388  0.2294
    1W        W44552  20.160  26.032   0.371  0.3998 -0.2412 -0.4376
    1W        W44553  26.135  24.075   7.195  0.1842  0.0926  0.1671
    1W        W44554   0.712   9.012   8.272 -0.3707 -0.0045 -0.1479
    1W        W44555  22.455   9.776   7.230 -0.1534  0.0944 -0.0467
    1W        W44556   2.743  10.788   0.182  0.2292  0.2577  0.1055
    1W        W44557  27.491   7.790   7.724 -0.0905  0.1926  0.0152
    1W        W44558  27.144   6.309   2.716  0.0657 -0.0960  0.0398
    1W        W44559  24.285  26.105   0.358  0.0742  0.4233  0.1611
    1W        W44560  18.003  15.034   2.325  0.1184 -0.2378  0.2058
    1W        W44561  13.296  12.478   1.020  0.0309  0.2049 -0.2855
    1W        W44562   1.254  19.919   8.449  0.1090 -0.0815  0.0326
    1W        W44563   0.500   9.619   8.967 -0.1522 -0.2601 -0.0044
    1W        W44564   9.064  20.272   2.165  0.0933  0.0599 -0.2355
    1W        W44565   5.043  22.927   7.682  0.0030 -0.1201 -0.4411
    1W        W44566   8.784   7.655   9.407 -0.2661  0.1091  0.3282
    1W        W44567  23.407  25.060   0.485  0.0604 -0.0262  0.3220
    1W        W44568  13.822   4.130   7.643 -0.3732  0.2629  0.0175
    1W        W44569  26.264   7.895   7.178  0.5817 -0.1212 -0.0002
    1W        W44570   5.913  21.239   8.046  0.1619 -0.0867 -0.0813
    1W        W44571  14.400   1.721   0.885  0.1676  0.0121 -0.1386
    1W        W44572  19.611   9.096   7.425  0.3014  0.1096  0.0037
    1W        W44573  23.791   1.880   8.198  0.3467  0.2047 -0.1198
    1W        W44574   4.435   9.420   0.215 -0.1209 -0.0299 -0.0811
    1W        W44575   0.319   5.979   9.332  0.1144  0.0252 -0.0739
    1W        W44576  24.740   9.009   9.665  0.1773 -0.0776 -0.3427
    1W        W44577  22.733  12.852   1.081  0.0584  0.0422  0.2260
    1W        W44578  15.819  15.111   1.262 -0.2146 -0.1857 -0.0394
    1W        W44579  27.727   0.900   0.096  0.0522  0.2113  0.1562
    1W        W44580  20.893  23.352   1.068 -0.4897  0.2221  0.0018
    1W        W44581   9.150   9.931   9.755  0.1790 -0.1779  0.2600
    1W        W44582  20.511  27.687   2.638 -0.0082  0.0231  0.1915
    1W        W44583  18.645  24.738   3.532 -0.1211 -0.0567 -0.0040
    1W        W44584  17.838  27.975   3.011 -0.1339  0.0490 -0.5001
    1W        W44585  25.560   0.994   2.733 -0.1297 -0.2102  0.0213
    1W        W44586   5.165   2.240   9.361  0.1558 -0.0572  0.0524
    1W        W44587  10.160  11.159  10.198 -0.3845 -0.0259 -0.1391
    1W        W44588  17.104  15.857   0.095  0.0731 -0.1935  0.1773
    1W        W44589  24.934   4.195   1.369 -0.1758  0.2322 -0.1616
    1W        W44590   8.720  19.501   9.247  0.1592 -0.0320  0.0849
    1W        W44591  15.995   3.470   8.164  0.0166 -0.2119 -0.3420
    1W        W44592   7.745   1.402   2.718 -0.2284  0.2441  0.0650
    1W        W44593   0.751  10.096   1.350  0.2241  0.2111  0.3062
    1W        W44594   4.027  19.849   1.177  0.2145  0.0057 -0.4642
    1W        W44595  16.098   6.511   1.034 -0.0346 -0.2264  0.0362
    1W        W44596  21.914  19.339   9.567  0.1092 -0.5207 -0.0442
    1W        W44597   3.662  11.115   0.014  0.1081  0.0019  0.0275
    1W        W44598   1.141   0.960   7.006 -0.1965 -0.1889  0.0630
    1W        W44599  22.110  23.435   1.365  0.0598 -0.1333 -0.0835
    1W        W44600   6.554   5.222  10.229  0.0127 -0.0126 -0.0036
    1W        W44601  26.268   8.652   9.897  0.0637 -0.0167  0.1262
    1W        W44602   7.628   2.875  10.015  0.3656  0.1297 -0.0405
    1W        W44603   2.702   7.615   3.057 -0.0390  0.0517  0.2466
    1W        W44604  24.589  18.462   7.891 -0.1408  0.2154 -0.4681
    1W        W44605   5.205   8.762   8.692 -0.1166  0.0659 -0.1256
    1W        W44606   0.067  20.107   9.758  0.2573 -0.1391 -0.0781
    1W        W44607  11.395  20.743   9.276 -0.0916  0.1758  0.4744
    1W        W44608   0.031   4.000   6.954  0.1176 -0.1644  0.0113
    1W        W44609   7.246  20.148   8.990 -0.1847  0.3518 -0.0782
    1W        W44610  13.776  22.915   0.066  0.2873 -0.1206  0.4668
    1W        W44611   4.532  27.449   2.344  0.1004  0.2099 -0.1413
    1W        W44612   8.536   6.175   1.091  0.2661 -0.3467  0.4630
    1W        W44613   7.453   3.377   6.706  0.0385  0.2315  0.4080
    1W        W44614   5.756  11.830   1.811  0.0997  0.3883 -0.1075
    1W        W44615   4.328  15.737   2.027 -0.2363 -0.1611  0.2144
    1W        W44616  17.819  21.583   0.454  0.2070  0.0502  0.0417
    1W        W44617  13.036  17.694   8.543  0.3084  0.0854 -0.0078
    1W        W44618   7.171  25.840   8.104  0.1377 -0.3190  0.0075
    1W        W44619  12.962  16.395   9.938 -0.1142  0.1157  0.0704
    1W        W44620  20.913  25.401   9.410  0.0486 -0.1543  0.3370
    1W        W44621  21.940   3.446   0.815 -0.0442 -0.0573  0.0834
    1W        W44622  21.781   3.774   7.393  0.1022  0.2808 -0.1029
    1W        W44623  27.950  10.163   1.258 -0.2801  0.1300  0.1123
    1W        W44624  20.657   0.684   8.577 -0.1414 -0.0177 -0.1488
    1W        W44625   8.073   0.603   2.649 -0.0711 -0.2228  0.1291
    1W        W44626  16.417  18.999   9.716 -0.0526 -0.2593 -0.1471
    1W        W44627  10.863   0.694   2.957  0.0777 -0.2823  0.3353
    1W        W44628   0.778  25.725   6.973  0.0586 -0.1363  0.1438
    1W        W44629  23.924   7.769   2.226  0.2884 -0.0373  0.1002
    1W        W44630  10.234  18.298   2.658  0.3356 -0.1296 -0.1042
    1W        W44631   7.624   7.296   0.538  0.2652  0.1799  0.0051
    1W        W44632  16.595  21.768   2.827  0.3810 -0.0663  0.0503
    1W        W44633  10.156   5.709   1.312  0.4836  0.0508 -0.0877
    1W        W44634  22.996  15.479   0.325 -0.0074 -0.1277 -0.1645
    1W        W44635   8.180  18.109   3.271 -0.1144  0.1653 -0.0901
    1W        W44636  12.235  20.191   3.043  0.0941  0.1230  0.1163
    1W        W44637  24.131   0.696   1.122  0.0528  0.1683  0.3624
    1W        W44638   9.034  26.516   0.227  0.2912 -0.0424 -0.0559
    1W        W44639  14.184  16.574   1.806  0.1409 -0.2164  0.2868
    1W        W44640   4.196   7.985   2.338  0.1575  0.2318 -0.0591
    1W        W44641  20.741   4.327   1.212  0.2193  0.0876  0.2778
    1W        W44642   7.511  19.153   1.847 -0.0084 -0.3804 -0.0114
    1W        W44643   4.547  27.800   1.380 -0.1666 -0.0507 -0.0623
    1W        W44644   0.252   5.495   6.751  0.0311  0.0331  0.0532
    1W        W44645  26.107  19.366   8.338 -0.4059 -0.2083 -0.1835
    1W        W44646   7.189  22.462   2.173  0.3382 -0.2498 -0.1183
    1W        W44647   9.859  27.873   9.977 -0.2280  0.1553 -0.2392
    1W        W44648  13.139  10.003   8.347  0.2946  0.0509  0.2069
    1W        W44649  25.557  15.083   0.535 -0.0763 -0.1112 -0.0149
    1W        W44650   1.311  11.790   8.018  0.0029 -0.0257 -0.0132
    1W        W44651   6.599  27.280   0.009  0.0133 -0.0960  0.0571
    1W        W44652   5.111  15.743   9.428 -0.2690 -0.1418 -0.3916
    1W        W44653   8.110   0.071   1.968  0.0560 -0.2430 -0.2251
    1W        W44654  23.731  15.573   8.579  0.0462 -0.2455  0.0134
    1W        W44655  22.912   4.635   7.615  0.1156 -0.0238 -0.2301
    1W        W44656  15.828   7.204   3.502 -0.0595  0.4723 -0.2269
    1W        W44657  20.238   6.709   0.948  0.2206 -0.0736 -0.4049
    1W        W44658  10.674  28.080  10.348 -0.2224 -0.0095 -0.0403
    1W        W44659  21.448  17.471   8.665  0.0793  0.0736 -0.0250
    1W        W44660  10.083  17.714   2.054  0.3848 -0.1583 -0.1633
    1W        W44661  11.869   6.433   9.824  0.0053 -0.0294 -0.1660
    1W        W44662   5.330  15.467   1.126  0.1214 -0.2902  0.0759
    1W        W44663  18.837  19.234  10.099 -0.0974  0.1308  0.1323
    1W        W44664   9.856   3.087   7.055  0.0730  0.2027 -0.1667
    1W        W44665   5.484   5.814  10.118 -0.0896  0.2106  0.1879
    1W        W44666  17.935  24.088   1.405  0.5080 -0.1611 -0.1318
    1W        W44667   2.017   4.157   7.724  0.1690 -0.4174  0.0457
    1W        W44668  22.664  21.077   9.297  0.2751  0.1814  0.1036
    1W        W44669  26.581  16.523   9.416 -0.0738 -0.0606  0.2299
    1W        W44670  11.096   5.137   2.810  0.1049 -0.0858 -0.0591
    1W        W44671  23.917  16.382   1.670 -0.1658  0.1101  0.1853
    1W        W44672  17.713  13.441   0.482 -0.0768  0.0013  0.1055
    1W        W44673   6.560   9.541  10.085 -0.1935  0.1784  0.1611
    1W        W44674  26.749  22.494   8.723 -0.3597 -0.0404  0.1491
    1W        W44675  12.672  13.925   2.280  0.1249  0.0011 -0.3096
    1W        W44676   2.645   3.592   7.414 -0.3518 -0.0554  0.1415
    1W        W44677  18.872  18.536   9.369  0.0100 -0.1723 -0.2255
    1W        W44678   5.223  23.090   7.275 -0.2267 -0.0566 -0.0516
    1W        W44679  19.010  16.493   9.828 -0.0951 -0.0087 -0.0998
    1W        W44680  11.410   1.051   1.263 -0.1583  0.1264 -0.2248
    1W        W44681  21.879   6.872   0.475 -0.1628 -0.2045 -0.0759
    1W        W44682   1.882  22.493   2.635 -0.2425 -0.2309 -0.0097
    1W        W44683  16.395  20.893   0.756  0.0609 -0.1446 -0.1507
    1W        W44684  26.684  21.488   1.623  0.0242 -0.1037  0.0630
    1W        W44685  11.156  12.286   9.177 -0.2291 -0.0446 -0.1625
    1W        W44686  16.685   4.900   8.244  0.0958  0.0722 -0.2425
    1W        W44687  22.199  19.965  10.252  0.0331 -0.1520 -0.2125
    1W        W44688  13.109  25.984   7.506  0.0352  0.2525 -0.1121
    1W        W44689   0.680   5.166   6.055 -0.0267 -0.2112 -0.0506
    1W        W44690   7.176   6.218   1.647  0.1422  0.5772 -0.1725
    1W        W44691   1.238  18.177   9.407  0.0521 -0.3029 -0.1573
    1W        W44692   4.256  10.288   9.674  0.1871  0.1195  0.0996
    1W        W44693  26.228   3.445   0.917 -0.1891 -0.1870 -0.1415
    1W        W44694   2.180  26.092   8.538 -0.2161  0.0824 -0.0797
    1W        W44695  23.012  22.607   0.303 -0.1086 -0.1357 -0.0953
    1W        W44696   9.507  27.950   7.992  0.3000  0.1419  0.0639
    1W        W44697   2.567  21.585   2.452  0.1879  0.1685 -0.1072
    1W        W44698  16.816  16.758   9.991 -0.4367 -0.2108  0.1339
    1W        W44699   5.305  11.696   0.557  0.0970  0.1786 -0.1833
    1W        W44700  16.664   7.478   2.342 -0.2086  0.0075 -0.1095
    1W        W44701  21.263   1.870   8.145  0.4756 -0.0432  0.2226
    1W        W44702   3.853  24.992   0.546  0.0199 -0.0777 -0.2582
    1W        W44703  25.364   2.750   8.221  0.0390 -0.0027 -0.0755
    1W        W44704   8.383   6.688   8.481  0.0593 -0.1551  0.2672
    1W        W44705   4.931   8.284   6.913  0.0395  0.1821  0.1201
    1W        W44706  24.035   9.198  10.156 -0.2153 -0.0294 -0.0175
    1W        W44707   4.167  27.386   2.706 -0.2639 -0.1284 -0.3597
    1W        W44708   3.580   1.577   0.290 -0.1311 -0.1020 -0.1350
    1W        W44709  10.935   6.694   2.911  0.1295  0.4230  0.0805
    1W        W44710  25.956   2.955   7.017  0.0648  0.0943 -0.1092
    1W        W44711   2.794   3.894  10.180  0.0762 -0.0616  0.0742
    1W        W44712  22.826  27.419   1.912 -0.3524  0.2444  0.3431
    1W        W44713  22.317  17.630   8.325  0.0007  0.0891  0.0725
    1W        W44714   4.982  10.237   2.077  0.2388 -0.0234 -0.0108
    1W        W44715  11.757  14.937   3.066 -0.2502 -0.0767 -0.0384
    1W        W44716  23.805  24.277   1.031  0.0250  0.1535  0.0533
    1W        W44717  20.233   9.256   2.685  0.1692  0.2828 -0.0491
    1W        W44718  27.690  21.624   1.848 -0.2051 -0.1128  0.1460
    1W        W44719  17.459   9.441   2.393  0.1883  0.0816  0.1709
    1W        W44720   2.028  15.428   8.982 -0.1282 -0.1166 -0.0510
    1W        W44721   0.284  23.570   0.330  0.1215  0.0779 -0.1086
    1W        W44722  27.677  10.599   2.888 -0.0551 -0.1310 -0.0172
    1W        W44723  14.464   8.415   1.252  0.0627 -0.2288 -0.2137
    1W        W44724   2.011  25.607   9.406  0.1899 -0.1950  0.3467
    1W        W44725   7.158   8.238   7.267 -0.0488  0.0974  0.1015
    1W        W44726  15.203  19.758  10.210 -0.0233  0.1791 -0.0546
    1W        W44727  10.860  25.153   2.373  0.0096 -0.1065  0.2241
    1W        W44728   9.908  13.639   3.507  0.1105 -0.0297 -0.1207
    1W        W44729  10.966  12.563   0.654  0.0064 -0.5982 -0.0688
    1W        W44730  20.073   9.393   8.130  0.1786  0.0206  0.0266
    1W        W44731  19.751  14.939   1.902 -0.1666 -0.0792 -0.0382
    1W        W44732  13.835   7.988   1.776 -0.1592  0.1860  0.1396
    1W        W44733  25.527   9.009   8.072  0.0590  0.1416 -0.2048
    1W        W44734   8.105  20.925   0.573 -0.0648  0.2492  0.0125
    1W        W44735  19.256  22.134   2.280  0.1346 -0.3806 -0.3693
    1W        W44736  10.703   5.777   0.333  0.0806  0.0674 -0.2626
    1W        W44737  21.653  27.030   7.882 -0.2139 -0.0623  0.1933
    1W        W44738  25.503   3.055   7.872 -0.2200  0.2095  0.0178
    1W        W44739  20.194   9.086   0.808 -0.1409  0.1080 -0.3897
    1W        W44740  23.175  14.271   8.534  0.2126 -0.1122 -0.0517
    1W        W44741  11.358  27.952   8.265 -0.0954 -0.0418 -0.1113
    1W        W44742   7.124  11.902   9.357 -0.0885 -0.1762  0.0209
    1W        W44743   4.569  23.956   8.249 -0.1896  0.1499  0.1016
    1W        W44744   9.940   9.694   9.570 -0.1395  0.0284  0.1306
    1W        W44745   0.095  16.186   8.680 -0.2842  0.3790  0.2841
    1W        W44746  24.543  20.018   9.267  0.1967 -0.0780 -0.0378
    1W        W44747   6.663   6.467   9.403 -0.2888 -0.2557  0.1174
    1W        W44748  18.898  15.646   3.768  0.1346 -0.1514  0.5472
    1W        W44749   6.527  10.015   9.848 -0.0445  0.3314  0.1131
    1W        W44750  21.707  17.039   2.385  0.0960  0.1489  0.2633
    1W        W44751  18.537   4.204   2.100  0.1124  0.0519 -0.0668
    1W        W44752  21.702  20.130   2.438 -0.2916 -0.1776  0.2820
    1W        W44753  11.295  15.275   1.230 -0.3465  0.1689 -0.2589
    1W        W44754  17.141   6.914   9.918  0.3520 -0.0742  0.0036
    1W        W44755  11.137  21.862   7.623 -0.1346 -0.0382 -0.1204
    1W        W44756  26.311  13.418   1.410  0.1509  0.0879 -0.1507
    1W        W44757  16.310  14.788   1.234 -0.1905 -0.3713 -0.0436
    1W        W44758  19.261  27.877   9.345 -0.0038 -0.1876 -0.2203
    1W        W44759  15.054   2.579   1.797  0.2560  0.2955  0.1077
    1W        W44760  25.942   0.554   9.166 -0.0913 -0.0620 -0.0239
    1W        W44761  23.006   6.576   1.865 -0.1509  0.0499 -0.3745
    1W        W44762  17.534   0.770   8.856  0.0368 -0.0884 -0.2813
    1W        W44763  19.507   1.330   8.809 -0.2899  0.0089 -0.1129
    1W        W44764   3.590   2.218   1.611 -0.1809  0.0327  0.1859
    1W        W44765  20.943  24.659   0.100 -0.1215  0.1560  0.0277
    1W        W44766   5.174   5.287   9.150 -0.1732  0.0345  0.0519
    1W        W44767  17.155   4.028   9.911 -0.0415 -0.1119  0.1501
    1W        W44768  21.071  21.786   7.081  0.0275  0.0757 -0.0023
    1W        W44769  26.442   2.920   8.804 -0.3524 -0.0100 -0.2148
    1W        W44770   8.477  16.694   9.569 -0.0823  0.6263  0.2912
    1W        W44771   7.687  10.980   9.427  0.1816  0.1676  0.2037
    1W        W44772  26.382  17.835   0.050  0.2232 -0.1700  0.0555
    1W        W44773  12.747  18.685   9.468 -0.3568  0.1306 -0.2440
    1W        W44774   6.041   4.962   0.071  0.4119 -0.0264  0.1553
    1W        W44775  13.511   3.541   1.979  0.3324 -0.0063 -0.1639
    1W        W44776   3.521  11.252   1.711 -0.1855  0.3064 -0.0642
    1W        W44777  24.464   8.701   2.346  0.1334 -0.1165 -0.0225
    1W        W44778  19.861  13.017  10.346 -0.0874  0.0032 -0.2162
    1W        W44779   0.664  26.813   0.901  0.0783 -0.0603 -0.2993
    1W        W44780   3.085  24.289   9.283  0.0528  0.0062  0.1774
    1W        W44781  19.077  25.049   9.079 -0.0541 -0.1094 -0.1495
    1W        W44782  22.732  17.789   0.859  0.1374 -0.0074  0.0851
    1W        W44783   0.296  20.448   7.450  0.1110 -0.1411  0.1382
    1W        W44784  27.216   1.200   0.036 -0.2412 -0.3839 -0.0869
    1W        W44785   6.313   5.898   0.724 -0.3050 -0.1701 -0.1982
    1W        W44786  26.179  19.890   9.450  0.1755 -0.0211 -0.0212
    1W        W44787  10.749  22.392   8.482 -0.0352 -0.1347 -0.3003
    1W        W44788  27.632  13.887   2.328  0.1294  0.2530  0.1738
    1W        W44789   6.047  18.804   8.415 -0.1934 -0.0120 -0.1958
    1W        W44790  12.583  21.597   1.937  0.0532 -0.2419 -0.2322
    1W        W44791   3.306   0.427   9.042 -0.4623 -0.1455 -0.0479
    1W        W44792   4.682  23.246   1.934  0.0969  0.1073  0.0758
    1W        W44793  14.209  14.805   3.300  0.0935 -0.4863 -0.0183
    1W        W44794  23.195   9.338   8.899  0.1983 -0.0038 -0.2186
    1W        W44795   3.945  12.552   7.548  0.1465  0.0269 -0.3540
    1W        W44796  27.116  17.185   8.259 -0.2490  0.4256  0.3052
    1W        W44797   4.001   1.314   7.149  0.2391 -0.1803 -0.0469
    1W        W44798  10.400  16.403   3.231 -0.1123 -0.0688 -0.1223
    1W        W44799   5.482  14.417   2.626 -0.1355 -0.2527  0.3621
    1W        W44800  25.060  16.877   0.743  0.2793 -0.2295 -0.1602
    1W        W44801  19.109  11.600   3.617 -0.0418  0.0488  0.0572
    1W        W44802  10.189  16.563   0.634  0.1051 -0.1611  0.2232
    1W        W44803  10.677  14.275   7.867 -0.1843 -0.1264 -0.2846
    1W        W44804  26.139   6.281   0.618 -0.0298  0.0732 -0.0468
    1W        W44805  25.622  20.717   2.156 -0.1535  0.0739 -0.1455
    1W        W44806  20.260  22.583   7.246  0.2223  0.1295  0.0199
    1W        W44807  24.811  27.383   7.077  0.1175  0.0163  0.1398
    1W        W44808  10.290  18.227  10.042 -0.3210 -0.0379 -0.3652
    1W        W44809  16.007  19.536   7.699 -0.0596  0.1945  0.0912
    1W        W44810  21.166  25.401   1.660  0.1030  0.3998 -0.0997
    1W        W44811  19.383   2.060   1.790 -0.3217 -0.1920  0.0131
    1W        W44812   9.193  13.325   9.696  0.0057 -0.0466 -0.0419
    1W        W44813   8.496  23.258   8.343  0.2713  0.0973  0.0131
    1W        W44814  25.734  10.751   7.448  0.1419  0.0576 -0.1453
    1W        W44815   7.561  19.656   2.456  0.0834  0.2650 -0.1655
    1W        W44816  13.869  23.083   1.300  0.1982  0.3193 -0.0743
    1W        W44817  15.134   3.531   8.919  0.2813  0.3997  0.1475
    1W        W44818  13.847   6.517   0.805  0.2585 -0.1061 -0.2251
    1W        W44819   4.220  22.795   8.172  0.0806  0.0541  0.4709
    1W        W44820   3.481  19.190   7.405  0.0444 -0.0579  0.1741
    1W        W44821   3.679  10.067   6.970 -0.0547 -0.2916  0.2065
    1W        W44822  16.629   2.692   3.390 -0.0871 -0.1995 -0.1215
    1W        W44823  17.686   8.031   1.973  0.0236 -0.0062 -0.1169
    1W        W44824   4.368  20.321   8.196  0.2958 -0.0515 -0.0455
    1W        W44825   3.758   2.135   8.485 -0.1024 -0.1004  0.1915
    1W        W44826  11.300   5.710   8.471  0.3285  0.1235  0.1765
    1W        W44827   0.533  12.069  10.049  0.2503  0.1243 -0.0567
    1W        W44828  28.044  24.032   2.172 -0.2344 -0.1220  0.0590
    1W        W44829  18.086  24.001   9.201  0.0109 -0.1235  0.0215
    1W        W44830  20.952  13.032   8.062 -0.0141 -0.2445  0.1192
    1W        W44831  13.404   4.082   8.567  0.0736  0.0423  0.1816
    1W        W44832  13.653  14.226   9.590 -0.2964  0.2581  0.2821
    1W        W44833  13.852  20.124   6.439 -0.3571 -0.0292  0.2969
    1W        W44834   2.963  11.691   8.083  0.0329 -0.0303  0.2816
    1W        W44835  21.500  24.682   7.246 -0.1370 -0.0541  0.3472
    1W        W44836  27.373  21.386   7.848 -0.1494  0.0029  0.0049
    1W        W44837  10.967   4.141   2.178  0.4437  0.2927 -0.1732
    1W        W44838   7.942  24.533   1.152  0.2175 -0.2140  0.0766
    1W        W44839   4.950  13.852   8.386  0.2178 -0.2406  0.0474
    1W        W44840  12.624  26.043   8.780 -0.2689 -0.0423 -0.2847
    1W        W44841  25.664  23.680  10.081 -0.0518 -0.3725 -0.0004
    1W        W44842   7.504   9.170   1.274  0.0294  0.0680  0.0126
    1W        W44843  25.421  10.726   0.009  0.0714  0.0987  0.2650
    1W        W44844   4.580  15.577   0.381 -0.0909  0.0490 -0.0176
    1W        W44845   0.228  12.996  10.168 -0.0564  0.1569  0.2694
    1W        W44846  11.698   6.135   1.880  0.3125 -0.2403 -0.0642
    1W        W44847  12.961  22.049   7.802  0.0780  0.6148 -0.0109
    1W        W44848   0.817  27.014   9.535  0.2354  0.2657 -0.0882
    1W        W44849   3.100  24.268   2.060 -0.4101  0.1082  0.0162
    1W        W44850   7.144  18.518   0.459 -0.1257  0.0178  0.0732
    1W        W44851   0.282  17.978   9.478  0.3165 -0.1763 -0.4124
    1W        W44852  14.682  13.344   8.175 -0.2864  0.1834 -0.0619
    1W        W44853  17.129  18.108   2.373  0.0064 -0.2705 -0.2025
    1W        W44854  10.383   9.060   2.860  0.0617  0.0098  0.1020
    1W        W44855  10.233  20.170   1.905 -0.0004  0.1774 -0.1187
    1W        W44856  15.962   4.528   7.360 -0.2584  0.0108 -0.1213
    1W        W44857  27.078  20.198   8.584  0.2437  0.1582 -0.1447
    1W        W44858  18.290  14.724   8.893 -0.0723  0.2497 -0.0122
    1W        W44859  12.605  12.570   1.803 -0.2357  0.1480 -0.0499
    1W        W44860  26.716   5.458   0.535 -0.1897  0.1277  0.1671
    1W        W44861  19.757  11.639   1.408 -0.2527 -0.2886  0.0945
    1W        W44862  22.826   5.377   0.847 -0.1412 -0.0497 -0.0016
    1W        W44863  13.262   7.829   0.151 -0.0697  0.0084 -0.2757
    1W        W44864  22.305  18.665   0.292  0.1594  0.0042  0.1118
    1W        W44865   7.007  21.235   9.700  0.1592 -0.1950  0.0327
    1W        W44866   8.860  24.198   9.727  0.0103 -0.0190  0.0728
    1W        W44867   4.669  10.944   0.601 -0.0976 -0.2148 -0.4112
    1W        W44868  10.845   2.402   9.292 -0.0448  0.0042 -0.0444
    1W        W44869   1.568  17.530   0.813  0.1734  0.2930 -0.0748
    1W        W44870  15.234  10.200   2.453  0.0361 -0.0681  0.1691
    1W        W44871  18.929  11.435   0.366 -0.0094 -0.0474 -0.1961
    1W        W44872   7.271   5.384   1.532 -0.0565 -0.2109  0.1603
    1W        W44873  11.203  24.806   6.554 -0.0078  0.1130 -0.0396
    1W        W44874  19.076  14.284   1.455  0.0257  0.0154 -0.1226
    1W        W44875  22.892  27.807   7.408  0.0748  0.1865 -0.1575
    1W        W44876  19.610  21.028   0.838  0.0583 -0.0933 -0.3001
    1W        W44877  12.992  13.707   8.538 -0.0540  0.1362 -0.0753
    1W        W44878   5.591   1.940   1.872  0.1651 -0.0364 -0.0966
    1W        W44879   5.267  20.648   0.207 -0.2627 -0.0415 -0.0997
    1W        W44880  13.375   6.441   2.598 -0.4142  0.2327  0.3244
    1W        W44881   6.880  11.061   9.541 -0.2020 -0.0954  0.2458
    1W        W44882  14.741   9.744   9.799 -0.0693  0.2722  0.0812
    1W        W44883  21.976   6.060   8.286 -0.1742  0.2504  0.1472
    1W        W44884   1.502   2.600   8.420 -0.0629 -0.0147  0.2630
    1W        W44885  10.589  16.999   2.019  0.1841  0.2249 -0.1865
    1W        W44886  22.337  26.136   2.742 -0.1067 -0.0025  0.3117
    1W        W44887   0.581  24.471   0.011 -0.2076 -0.3110  0.3286
    1W        W44888   0.651   2.683   8.340 -0.3093 -0.0481  0.1295
    1W        W44889  19.118   7.100   3.345 -0.0612 -0.1409 -0.0831
    1W        W44890   2.843   4.840  10.354  0.2406  0.1826  0.0839
    1W        W44891  18.890  27.106   1.650 -0.2965 -0.1673 -0.2577
    1W        W44892  14.676   2.848   9.615  0.0998 -0.1529  0.2181
    1W        W44893  12.333  24.516   0.245  0.5247  0.0290  0.1433
    1W        W44894   3.922  15.939   8.008 -0.1206 -0.1020  0.3594
    1W        W44895  15.759   1.511   3.971  0.2470 -0.0025 -0.0340
    1W        W44896  19.273   4.804   9.854  0.0690 -0.1278  0.0841
    1W        W44897   1.227  11.625   8.564  0.1715  0.1178  0.3684
    1W        W44898  22.005   2.811   2.503 -0.3374 -0.0874 -0.0555
    1W        W44899   2.811   5.305   0.288  0.1781 -0.0515 -0.2197
    1W        W44900  11.567  17.306   1.993 -0.1034 -0.0153 -0.2523
    1W        W44901  24.834  19.535   8.276  0.0414  0.0561  0.0086
    1W        W44902  22.149   2.158   8.351 -0.4292  0.4320  0.0268
    1W        W44903  22.685  20.757   2.568  0.0618 -0.2075 -0.0858
    1W        W44904  11.079  16.939   8.837  0.1572 -0.0338  0.0251
    1W        W44905   8.482   7.149   9.494 -0.0768  0.2389  0.1401
    1W        W44906  13.970   0.906   7.420 -0.2177 -0.1652  0.0907
    1W        W44907   7.505   8.440   2.743 -0.0827 -0.1583  0.0525
    1W        W44908  22.828   4.170   7.962 -0.0083  0.1554 -0.3411
    1W        W44909   6.440   2.603   2.304 -0.2605  0.0181  0.0562
    1W        W44910  23.964   0.382   7.920  0.0594 -0.0592 -0.0708
    1W        W44911  14.425  26.137   2.928  0.0619  0.6435  0.0461
    1W        W44912  22.923  13.748   1.753  0.0882  0.0552 -0.2938
    1W        W44913   8.508   5.207   7.922  0.0358 -0.2130 -0.0036
    1W        W44914   3.090  10.693   2.752  0.0387 -0.2615  0.1057
    1W        W44915  14.521  17.477   3.379 -0.4313 -0.1402  0.2941
    1W        W44916   1.403  14.633   9.029 -0.1993 -0.2301 -0.4441
    1W        W44917   8.563   3.514   8.771  0.2977 -0.0728  0.2724
    1W        W44918  12.184  15.640   9.157 -0.1007  0.4107 -0.1272
    1W        W44919   8.445  27.299  10.322 -0.1402 -0.1091 -0.0413
    1W        W44920  12.228  27.601   6.691  0.0807  0.2531 -0.0183
    1W        W44921  14.673  24.872   0.831 -0.0640 -0.2077  0.3885
    1W        W44922   5.187  28.064  10.120 -0.1480  0.0857 -0.3787
    1W        W44923  14.343   0.472   3.126 -0.2318 -0.3270 -0.0770
    1W        W44924  24.807   9.441   7.779  0.0220  0.2353  0.1689
    1W        W44925   5.630  16.857   1.925  0.0745  0.1009  0.1554
    1W        W44926  21.143   2.599   1.969 -0.0750 -0.2332  0.2249
    1W        W44927   2.426   6.964   7.434 -0.1722 -0.4273 -0.1210
    1W        W44928   5.185  18.655   8.541 -0.2669  0.1524 -0.2482
    1W        W44929  11.830  16.014   0.929  0.0849 -0.0573 -0.0240
    1W        W44930  15.357  13.573   9.656 -0.0453 -0.2663  0.0344
    1W        W44931   7.728  12.507   9.739  0.0899 -0.4134 -0.0842
    1W        W44932  18.563   4.016   9.722  0.0495  0.0344 -0.2982
    1W        W44933  19.494  19.131   8.095 -0.3070 -0.0222 -0.3158
    1W        W44934   9.802   5.490   2.190  0.2752  0.2401 -0.4226
    1W        W44935  13.656  20.767   1.999  0.0010 -0.0354  0.0713
    1W        W44936   6.713  27.944   2.094 -0.1954 -0.1335  0.1209
    1W        W44937  25.367   5.476   6.748  0.2500  0.3698 -0.0034
    1W        W44938   5.113  16.087   0.829  0.0717  0.0049 -0.2309
    1W        W44939  19.200  13.949   7.353 -0.2260 -0.1847 -0.0031
    1W        W44940   8.982   0.386   6.874 -0.0157 -0.1898 -0.3054
    1W        W44941   7.255   2.282   9.568 -0.5162 -0.0094  0.1200
    1W        W44942  26.744   9.567   7.631  0.1201  0.1634  0.2711
    1W        W44943  19.827   1.803   1.789 -0.1046  0.3543  0.0908
    1W        W44944   6.784  10.426   1.000  0.2504  0.0302 -0.1749
    1W        W44945   6.769  18.562   3.122  0.2418  0.1056 -0.1572
    1W        W44946  14.180  16.878   9.180  0.2184  0.0399  0.1491
    1W        W44947  22.508  19.464   7.989  0.1358 -0.2498  0.2402
    1W        W44948  24.742  17.717   1.987 -0.0744 -0.2116 -0.3727
    1W        W44949   9.902  10.573   2.747 -0.0233  0.2939 -0.1629
    1W        W44950   4.515  24.536   9.384  0.1121  0.0256 -0.0398
    1W        W44951  11.416  23.714   0.005 -0.0724  0.2091  0.2363
    1W        W44952   0.752  18.176   9.380  0.0233  0.2248 -0.1753
    1W        W44953   8.135  12.776   9.112  0.2460  0.2079 -0.0383
    1W        W44954   4.053  23.421   1.343 -0.4372  0.1368  0.2199
    1W        W44955   7.903   4.278   1.205  0.2204 -0.1470 -0.1750
    1W        W44956   8.524  10.371   1.837  0.3068 -0.0411  0.1172
    1W        W44957   0.048   3.301   9.777 -0.0629 -0.1549  0.0569
    1W        W44958  25.094  20.183  10.139 -0.0040  0.1109  0.2957
    1W        W44959  22.344   3.838   2.492 -0.1955 -0.2083  0.1185
    1W        W44960  11.502   0.885   1.933  0.1214 -0.2809 -0.1418
    1W        W44961  25.582  21.492   8.417 -0.0357 -0.4541 -0.0589
    1W        W44962   9.599  27.692   9.064  0.2561  0.0033 -0.0701
    1W        W44963  19.572   2.026   0.742 -0.0701  0.0818 -0.0260
    1W        W44964   4.637   7.314   8.951 -0.1722 -0.1825  0.1813
    1W        W44965  20.745  18.166   7.689 -0.0949  0.0579 -0.0598
    1W        W44966   2.979   2.931   7.062  0.0372 -0.2716 -0.0851
    1W        W44967  12.584   5.629   8.327 -0.1802  0.0405 -0.0569
    1W        W44968  19.886  17.884   8.142  0.0472 -0.2058 -0.1749
    1W        W44969  11.843  19.826   1.075 -0.0189 -0.0105  0.0078
    1W        W44970  13.137   1.396   2.600  0.2407 -0.1715 -0.3914
    1W        W44971   8.896  21.867   1.410 -0.1078  0.1173  0.0340
    1W        W44972   8.408   8.026   9.299  0.0721 -0.0511 -0.2920
    1W        W44973  12.025  10.189   0.906  0.1546  0.3667 -0.1024
    1W        W44974  22.116  27.059  10.276 -0.0912  0.0267 -0.0671
    1W        W44975   6.629   6.248   0.873 -0.0615 -0.2590 -0.3697
    1W        W44976  17.543   6.498   1.263  0.1344  0.1917 -0.0105
    1W        W44977  20.088   0.628   8.258 -0.0977 -0.2125 -0.2066
    1W        W44978  27.449  23.548   1.089  0.0421  0.2074 -0.0012
    1W        W44979   2.208   9.994   2.232 -0.1103  0.1135  0.1788
    1W        W44980   2.206  17.387   6.856  0.1764 -0.0042  0.0686
    1W        W44981  19.704   4.472   8.798 -0.0985 -0.2498 -0.0033
    1W        W44982  11.444  10.578   8.147  0.1086 -0.0932  0.0320
    1W        W44983  17.031  11.744   3.275  0.0000  0.4250  0.1285
    1W        W44984  24.866  21.730   1.749 -0.0721  0.2135  0.1256
    1W        W44985   9.781  10.389   8.870  0.3384  0.0736  0.0059
    1W        W44986  15.541  15.992   8.043  0.0672  0.2240 -0.0839
    1W        W44987  24.380   6.128   2.692 -0.0943  0.4478  0.0079
    1W        W44988  21.516   3.346   7.827 -0.1029 -0.0208  0.2168
    1W        W44989  13.765   0.327   3.758 -0.0921 -0.0857  0.1735
    1W        W44990  24.211  19.133   7.122 -0.2360  0.3295  0.3268
    1W        W44991  22.615   5.820   2.046 -0.0113 -0.1707 -0.2856
    1W        W44992  26.825  22.932   1.680  0.0511 -0.1040  0.2440
    1W        W44993  15.227   5.455   0.069  0.3338  0.0590 -0.1192
    1W        W44994   2.007  19.517   0.994 -0.1006 -0.0161  0.2151
    1W        W44995   4.864  17.499   2.280  0.0358 -0.1432 -0.0230
    1W        W44996  14.635   5.011   0.669  0.1667 -0.3442  0.2651
    1W        W44997  22.831  22.760   7.800  0.6835 -0.0660  0.0565
    1W        W44998  22.723  18.253   1.022 -0.0008 -0.0737  0.1561
    1W        W44999  18.218  16.530   1.609 -0.0684 -0.1128  0.1977
    1W        W45000  15.109  22.536  10.335 -0.1130 -0.0597 -0.1186
    1W        W45001  11.101   3.338   1.690 -0.1009  0.2369 -0.1144
    1W        W45002   7.204   1.952   0.883  0.2675  0.0135 -0.1234
    1W        W45003   6.726   4.470   9.125  0.0522  0.0165 -0.0864
    1W        W45004  20.321  21.384   0.086 -0.0673  0.0462  0.0345
    1W        W45005  17.331  16.196   1.627  0.1419 -0.2404 -0.0763
    1W        W45006  16.824  21.303   9.863 -0.1631  0.1803  0.0374
    1W        W45007  22.436   1.356  10.158  0.1180 -0.0565 -0.2587
    1W        W45008  18.293   3.596   3.527 -0.1738 -0.0825 -0.0470
    1W        W45009   3.862   7.388   7.836 -0.2029  0.0957  0.2328
    1W        W45010  22.330  17.008   2.507  0.0114  0.0364 -0.1372
    1W        W45011   8.683  14.491   2.873  0.1273 -0.5082 -0.0724
    1W        W45012   6.354  26.349   8.500 -0.1087 -0.0253  0.0470
    1W        W45013  10.622   4.255   8.167  0.0086  0.1976  0.0587
    1W        W45014  20.619  21.486   0.796 -0.0742  0.1210  0.0984
    1W        W45015   1.202   4.347   1.329  0.0004  0.2354 -0.3818
    1W        W45016   5.431  26.088   8.235 -0.0242  0.0511 -0.1298
    1W        W45017  12.429  24.109  10.321 -0.0606  0.3679 -0.1667
    1W        W45018  10.199   9.140   7.648 -0.0034 -0.3298 -0.1516
    1W        W45019  15.860  27.749   8.996 -0.5192 -0.1998  0.2148
    1W        W45020  12.495  17.781   9.957 -0.2122  0.1248 -0.0348
    1W        W45021   6.015   3.720   2.288 -0.1636 -0.0256 -0.0777
    1W        W45022  15.381  16.409   0.440 -0.0519 -0.1609  0.1176
    1W        W45023   2.631  22.307   2.596 -0.1606  0.1419 -0.3174
    1W        W45024  21.379   0.304   7.569 -0.0026  0.0302  0.0498
    1W        W45025  13.220  19.629   7.643 -0.0097 -0.0789 -0.0735
    1W        W45026  22.805   4.690   1.534 -0.2674 -0.0805  0.1405
    1W        W45027   2.085   6.290   6.576  0.0118 -0.0566 -0.0773
    1W        W45028  17.558  18.016   9.760  0.0282 -0.0007  0.4215
    1W        W45029  16.032  16.686  10.360 -0.1909  0.0632  0.2069
    1W        W45030  19.365   2.759   1.313  0.0720  0.3035 -0.2763
    1W        W45031  10.092  13.855   9.280 -0.1227  0.4183  0.1027
    1W        W45032  21.200  17.063   7.894  0.0267 -0.1613  0.0474
    1W        W45033  17.217  14.226   0.961  0.0598  0.1939  0.0553
    1W        W45034  26.712  15.897   1.501  0.1685  0.1345  0.0253
    1W        W45035  25.010  18.329   3.035  0.1446 -0.1595  0.0742
    1W        W45036  19.612  12.016   2.705 -0.2040 -0.0460  0.2924
    1W        W45037   0.155   6.885   0.028 -0.1883 -0.1209 -0.2307
    1W        W45038   4.963  27.088   8.764  0.1255 -0.1239 -0.2430
    1W        W45039   0.271  26.720   2.197 -0.1951  0.0588 -0.1016
    1W        W45040  26.546   1.719   9.360  0.3115  0.0457  0.1447
    1W        W45041  16.977   5.021   7.765  0.0145  0.1754  0.0106
    1W        W45042   9.782  13.185   0.166  0.2570  0.0305 -0.2515
    1W        W45043   1.639  18.474   0.345 -0.0347  0.0437  0.1720
    1W        W45044   1.321  23.142  10.162  0.1108  0.1065  0.4265
    1W        W45045   8.109   2.718   2.286 -0.2748 -0.0043 -0.1484
    1W        W45046   5.484  23.306   0.543  0.0293 -0.1814 -0.0312
    1W        W45047   8.282  14.610   9.767 -0.0699 -0.0298  0.1522
    1W        W45048  23.892   7.841   2.753 -0.1371 -0.0867 -0.0422
    1W        W45049  24.168  22.295   1.328 -0.2882  0.0639  0.0146
    1W        W45050  15.086  21.390   2.351 -0.0196 -0.5045  0.0801
    1W        W45051  19.182  12.072   2.389  0.0011  0.1695  0.0420
    1W        W45052  26.975  14.213   6.458  0.1006  0.2414 -0.1994
    1W        W45053  25.263   7.951   0.332  0.0794  0.2393  0.2525
    1W        W45054   1.385  20.861   7.847 -0.1249 -0.1596 -0.1108
    1W        W45055  23.574   7.917   0.303  0.2033  0.2001  0.2398
    1W        W45056  21.522  12.093  10.266 -0.5233 -0.2609 -0.1914
    1W        W45057  18.999  10.772   3.405 -0.1316 -0.2997  0.0305
    1W        W45058  22.775  25.305   0.284  0.0387  0.0990  0.0838
    1W        W45059  12.658   6.045  10.344 -0.1269  0.2846 -0.2887
    1W        W45060  17.772  14.736   1.913  0.0927 -0.2765 -0.3511
    1W        W45061  23.044  18.625   3.392 -0.1258  0.2026  0.2922
    1W        W45062   1.678  22.432   9.339 -0.3052  0.1003 -0.0111
    1W        W45063  10.270  16.429   9.318 -0.0723 -0.2107 -0.1289
    1W        W45064   7.794  24.120   8.733 -0.0795 -0.3457  0.0795
    1W        W45065  14.504   5.899   3.702 -0.2562 -0.1027  0.0894
    1W        W45066   3.502   8.142   9.550  0.0411 -0.1595 -0.0839
    1W        W45067   6.959   0.144   7.047 -0.4077 -0.1719 -0.1071
    1W        W45068  10.564  19.796   0.154 -0.3157  0.0250  0.0617
    1W        W45069   0.865  24.517   2.915 -0.1121 -0.2625 -0.2799
    1W        W45070  10.904   5.286   0.357  0.1677 -0.1355 -0.0991
    1W        W45071  26.418  10.025  10.338 -0.1398 -0.1201 -0.0067
    1W        W45072  12.287  13.184   9.001  0.2280  0.0352  0.0337
    1W        W45073  19.399  12.831   3.333 -0.2585  0.0705  0.0141
    1W        W45074  15.956  21.940   9.449  0.0378  0.0631  0.0946
    1W        W45075  23.926  11.204   8.813 -0.1496  0.1547  0.2044
    1W        W45076  12.773  22.604   3.374  0.0397 -0.0926  0.0255
    1W        W45077  10.462   8.728   1.723  0.2256 -0.3980  0.1711
    1W        W45078  10.877  17.152   3.639 -0.0146  0.2023  0.0924
    1W        W45079  10.746   5.105   9.178  0.0189  0.2610 -0.1315
    1W        W45080   5.005   2.224   2.410 -0.3200 -0.2739  0.0011
    1W        W45081   7.874  14.347   1.798  0.0004  0.0966 -0.2161
    1W        W45082   5.524  12.388   9.331  0.1712  0.0091 -0.0706
    1W        W45083   1.741  19.195   1.142  0.1600 -0.1805  0.1100
    1W        W45084   6.176   9.053   0.557  0.0192 -0.0184 -0.1437
    1W        W45085  20.647   1.871   9.311 -0.1974  0.2648 -0.1892
    1W        W45086  13.531  26.428   7.039  0.0792  0.2387  0.1124
    1W        W45087  14.821   6.044   9.899  0.1575  0.1054  0.1799
    1W        W45088   5.723   8.071   8.203 -0.1151 -0.1259  0.0033
    1W        W45089   6.764   7.766   9.619 -0.1352 -0.4844  0.0501
    1W        W45090  26.376   6.676   0.658 -0.2155  0.0129  0.0388
    1W        W45091  25.028  11.233  10.235  0.3536 -0.2932  0.0441
    1W        W45092  25.871   4.746   7.020 -0.0510  0.1877 -0.1742
    1W        W45093  22.448  25.187   1.952 -0.1509 -0.2072  0.0890
    1W        W45094  26.378   1.600   2.109  0.2010 -0.1723 -0.0006
    1W        W45095   1.925  20.829   9.971  0.0073  0.0047 -0.3538
    1W        W45096   9.284  19.876   4.142 -0.1976  0.1893  0.3765
    1W        W45097   3.490   8.191   0.048  0.0479  0.0167 -0.0020
    1W        W45098  15.727  25.388   2.739  0.0054  0.3931 -0.3170
    1W        W45099  18.671  22.088   0.382  0.1122  0.0549  0.1542
    1W        W45100  15.291   4.633   9.551  0.0058  0.0461  0.1380
    1W        W45101  11.568   7.913  10.068 -0.1745  0.0743 -0.1418
    1W        W45102   6.241  26.309  10.306 -0.0420  0.0078 -0.0744
    1W        W45103  12.305   2.138   1.186 -0.3457 -0.1112  0.2316
    1W        W45104  17.577   4.421   2.033  0.2330  0.0391  0.1266
    1W        W45105  13.251  14.274   3.310 -0.0394 -0.3114  0.0556
    1W        W45106  25.543  23.194   1.658 -0.0166 -0.0080  0.0666
    1W        W45107  20.416  27.660   2.085 -0.0782 -0.0587 -0.0981
    1W        W45108  27.354   3.918   0.243  0.2242  0.0032 -0.1696
    1W        W45109   8.479   8.055   7.875 -0.0133  0.2226 -0.0188
    1W        W45110   3.597  14.876   2.812  0.1372 -0.0367 -0.2483
    1W        W45111  22.682  19.737   7.589  0.0476  0.0722 -0.0090
    1W        W45112   0.570  26.468  10.020 -0.1932  0.1285 -0.1488
    1W        W45113  24.632  20.145   1.488 -0.0561 -0.0608 -0.1622
    1W        W45114   5.566  14.419   1.133 -0.2769  0.1412  0.0781
    1W        W45115  21.694   3.354   9.058 -0.0083  0.1610 -0.5098
    1W        W45116  10.702  18.576   7.765 -0.0390 -0.1267  0.0457
    1W        W45117   6.292   9.464   1.304 -0.0155 -0.1042  0.1675
    1W        W45118  24.783  10.026   0.164 -0.0990 -0.1185 -0.0782
    1W        W45119   9.362  16.768   1.593 -0.0637  0.1623  0.0008
    1W        W45120  27.550   1.670   1.224  0.0489 -0.0846  0.0796
    1W        W45121   5.294  23.051   1.402  0.2016 -0.3932  0.1271
    1W        W45122  11.354  10.277   3.102  0.0078  0.0731 -0.0578
    1W        W45123  22.996   6.713   7.709 -0.1174 -0.2847  0.1977
    1W        W45124  10.409   9.509   2.473 -0.2137  0.3503  0.0273
    1W        W45125  15.214   9.012   3.836  0.0148 -0.1475 -0.2169
    1W        W45126  15.466   8.575   3.003 -0.1514 -0.1343  0.0813
    1W        W45127  16.774  18.889   2.716  0.1031 -0.1087 -0.2830
    1W        W45128   7.863  19.458   9.762  0.1040  0.3407 -0.1723
    1W        W45129   3.333   2.824   8.680  0.0535  0.2539  0.0959
    1W        W45130  18.993   6.353   0.664 -0.1640 -0.2873  0.0941
    1W        W45131   3.250  21.062   7.922  0.0106 -0.1591  0.0700
    1W        W45132  12.436  11.116   8.960  0.0606 -0.3811  0.1524
    1W        W45133  12.208   8.811   0.735 -0.3970 -0.0496  0.0980
    1W        W45134   3.557  25.670   2.146 -0.2410 -0.2479  0.2143
    1W        W45135  26.375  16.828   8.135 -0.0601 -0.0288 -0.0941
    1W        W45136  19.513  23.423   9.418  0.1196 -0.0556 -0.0092
    1W        W45137  11.976  27.309   8.880  0.2640 -0.2046 -0.2008
    1W        W45138  22.733  16.101   8.693 -0.2840  0.0892  0.1345
    1W        W45139  16.458   0.091   8.205  0.0296  0.1298  0.0037
    1W        W45140  11.488   6.541   2.857  0.1179 -0.3810  0.2420
    1W        W45141   8.626   6.732   8.892  0.0572 -0.0794  0.0462
    1W        W45142  13.530   2.629   1.031 -0.0112  0.2200  0.1887
    1W        W45143  11.698   5.941   9.701 -0.0522  0.0996  0.0154
    1W        W45144  18.930  19.901   8.043  0.3671 -0.1609 -0.0902
    1W        W45145   0.791  19.846   1.899 -0.2390 -0.1708  0.1930
    1W        W45146  14.776  15.982   9.979 -0.3540  0.2430  0.3103
    1W        W45147  18.510  20.897   8.016 -0.1945 -0.2558  0.0053
    1W        W45148   2.202  11.813   9.025 -0.0628  0.2830  0.1665
    1W        W45149  13.463  13.142   0.131  0.0119 -0.3453  0.0498
    1W        W45150   2.840  27.865   2.064  0.4841  0.2032  0.2156
    1W        W45151   5.619  25.478   2.108 -0.1298  0.0893 -0.1650
    1W        W45152  15.249   5.294   2.021 -0.2577 -0.1702 -0.2975
    1W        W45153  23.870  17.397   7.640 -0.0374  0.0185 -0.2102
    1W        W45154  21.054  16.569   8.534  0.0978  0.3484 -0.0822
    1W        W45155  14.369  10.088   0.511  0.0479 -0.1217  0.1513
    1W        W45156  25.610  13.217   9.873  0.0517  0.0107  0.1521
    1W        W45157  23.190  13.707   1.355 -0.0809  0.2372 -0.0475
    1W        W45158  23.549  10.033   8.076  0.1960 -0.1932 -0.0683
    1W        W45159  25.544  20.707   7.462 -0.2701 -0.0943 -0.0918
    1W        W45160   8.088  25.724   7.241 -0.6005 -0.1544  0.0934
    1W        W45161  19.871  20.594   0.764 -0.0612  0.4208  0.1606
    1W        W45162  20.303  17.809   3.464 -0.1085 -0.3271  0.2681
    1W        W45163   6.829  20.373   3.394 -0.0070 -0.0243 -0.1128
    1W        W45164   6.938  20.360   8.625 -0.0670  0.2828 -0.2704
    1W        W45165   5.891  12.231   2.168 -0.0340 -0.3296 -0.0489
    1W        W45166   9.089  23.235   7.175 -0.0769  0.2605  0.0249
    1W        W45167   0.568  19.967   2.519 -0.3068 -0.0630  0.3503
    1W        W45168  13.317   9.601   2.582 -0.0921  0.5218 -0.0133
    1W        W45169  18.183  13.332   8.785 -0.0159 -0.1270 -0.1322
    1W        W45170  23.355   5.180   6.649 -0.3395 -0.2123 -0.0938
    1W        W45171  19.788  10.857   8.354 -0.0165 -0.1532 -0.0639
    1W        W45172   8.965  25.487   9.150 -0.1636  0.1942  0.0037
    1W        W45173  20.644  14.807   9.435 -0.0065  0.0393  0.2619
    1W        W45174   7.196   0.215   8.471 -0.0080  0.1355 -0.2349
    1W        W45175   2.042  18.271   7.112  0.0011  0.2453 -0.0218
    1W        W45176  23.598  25.216   3.457  0.3180  0.2088  0.0518
    1W        W45177   6.131   5.472  10.244 -0.0817  0.0568 -0.3079
    1W        W45178  20.400   9.397   1.109 -0.0730 -0.0600 -0.1199
    1W        W45179   1.861   2.973   6.657  0.0904 -0.1967  0.0212
    1W        W45180  27.074   0.944   8.225  0.2821  0.3100  0.0456
    1W        W45181   6.811  17.211   1.073 -0.0409 -0.1743  0.0975
    1W        W45182   6.130  26.829   8.329 -0.0851 -0.1153 -0.0398
    1W        W45183  15.442  25.828   2.557  0.1101 -0.1269  0.1747
    1W        W45184   2.898  20.825   9.349  0.2347 -0.0254 -0.2714
    1W        W45185  27.612  25.139   0.256  0.0893 -0.1905 -0.1580
    1W        W45186  14.942  22.289   8.520  0.0632 -0.0797 -0.1122
    1W        W45187  15.664  22.154   0.967  0.1695 -0.2973  0.2509
    1W        W45188   2.203  22.166   2.855  0.0009 -0.2840  0.1504
    1W        W45189  22.223  10.950   2.167  0.3271  0.0829 -0.0400
    1W        W45190  13.783  26.174   2.082  0.2537  0.2039 -0.2801
    1W        W45191  24.910   4.061   8.550 -0.0774 -0.2255  0.4308
    1W        W45192   3.253   9.671   7.164 -0.5427  0.3210  0.3546
    1W        W45193   3.231  10.176   1.189 -0.1482  0.2340 -0.3554
    1W        W45194  18.204  12.619   1.615  0.5434  0.0900 -0.1418
    1W        W45195   5.512   9.169   3.671  0.1987  0.1706 -0.0947
    1W        W45196  11.151   8.230   8.572 -0.3340 -0.0683 -0.2405
    1W        W45197  20.473   8.130   0.330 -0.0784  0.0043 -0.0867
    1W        W45198   5.498  10.180   8.942  0.1497 -0.1209  0.0127
    1W        W45199  26.185  26.396   9.065  0.0646 -0.0366 -0.2082
    1W        W45200  25.962  12.981  10.235  0.2960  0.1131  0.2649
    1W        W45201   8.124   3.431  10.217 -0.1324 -0.0389  0.0951
    1W        W45202   3.176  27.276   7.619  0.1255 -0.0730  0.1811
    1W        W45203   1.024  23.469   9.795  0.2107 -0.2209 -0.1208
    1W        W45204  16.743  27.629   2.463 -0.0240  0.0554  0.1634
    1W        W45205   7.049  18.139   8.413  0.0684 -0.0709  0.1874
    1W        W45206  19.915  17.530  10.234  0.0331  0.0696  0.1111
    1W        W45207  14.327  25.019   8.663 -0.0380 -0.0199 -0.1611
    1W        W45208  14.199  10.543   9.514  0.0452 -0.0345 -0.1451
    1W        W45209  26.043  19.077   7.959 -0.2429 -0.1091  0.0073
    1W        W45210   9.458   1.647   7.236 -0.1736  0.2202  0.0237
    1W        W45211  18.917   8.301   0.591 -0.1009  0.4565 -0.0589
    1W        W45212  20.684  18.444   4.041 -0.0133 -0.5512  0.0052
    1W        W45213   1.923  15.370  10.054  0.0852  0.3338  0.2346
    1W        W45214  22.870   9.630   0.509  0.0129  0.1297 -0.0127
    1W        W45215  26.653  17.788   1.748 -0.1183  0.1049 -0.1084
    1W        W45216   2.673  21.592   7.604  0.1218 -0.0870 -0.1771
    1W        W45217  16.376   1.659   2.280  0.1748 -0.1367  0.0838
    1W        W45218   8.833   0.416   3.168  0.1222  0.3206 -0.1225
    1W        W45219   4.269  17.671   1.315  0.1434 -0.0367  0.0007
    1W        W45220  11.734  17.566   2.516  0.0427  0.1427 -0.0829
    1W        W45221  16.282  19.538   1.326 -0.0472 -0.3197  0.0561
    1W        W45222  25.621  12.809   1.845 -0.1230  0.0909  0.2021
    1W        W45223   8.514  21.993   3.326  0.1594 -0.2357  0.2647
    1W        W45224  22.526  26.557   1.691  0.1709  0.1475 -0.2917
    1W        W45225  13.106  17.893   7.428 -0.2946  0.1029 -0.2001
    1W        W45226  14.239  15.098   2.116 -0.1764  0.1645 -0.0358
    1W        W45227  22.652  17.750   7.950  0.0940 -0.0667 -0.1130
    1W        W45228  24.623  24.447   0.914  0.1211 -0.3331  0.1593
    1W        W45229  28.040   4.605   0.627 -0.0978  0.0301 -0.2221
    1W        W45230   0.073  14.031   0.111 -0.0314 -0.0682  0.0985
    1W        W45231   2.033  13.656   2.463  0.1229 -0.1692  0.1490
    1W        W45232  20.082  25.337   0.118 -0.0477 -0.0198 -0.2329
    1W        W45233  11.373  15.994   9.684 -0.1012 -0.0453  0.2749
    1W        W45234   8.268  23.279   0.233 -0.0660  0.0189 -0.0883
    1W        W45235   5.206  13.617   0.447 -0.0521 -0.0038 -0.0925
    1W        W45236  11.721  18.557  10.246  0.1924 -0.0428  0.0446
    1W        W45237  14.589   1.624   0.007  0.2615  0.1262  0.0331
    1W        W45238  12.561  23.346  10.234 -0.2127  0.0507  0.2004
    1W        W45239   3.994  12.922   2.011  0.2322  0.1138 -0.0050
    1W        W45240  24.113  24.094   7.314  0.1906 -0.1500 -0.3464
    1W        W45241  13.386   9.049   1.962  0.0369  0.2690 -0.0934
    1W        W45242  24.827  19.787   1.947 -0.1455 -0.0939 -0.2027
    1W        W45243   6.018  27.513   7.649  0.1056 -0.2240  0.0214
    1W        W45244   8.651  27.634   1.032 -0.2665 -0.1326 -0.2406
    1W        W45245  18.733  11.094   9.158 -0.2461 -0.2037  0.2183
    1W        W45246  20.892  28.093   0.997  0.3051  0.0683 -0.0310
    1W        W45247  13.103  12.235   2.766  0.1067 -0.0167  0.0767
    1W        W45248   6.954  13.171   8.603  0.2223  0.1528 -0.2289
    1W        W45249  13.808  13.912  10.217 -0.2901  0.1259 -0.0482
    1W        W45250   5.652  20.359   2.373  0.1407  0.0832  0.1753
    1W        W45251  18.747   8.845   7.426 -0.2566 -0.2317 -0.0295
    1W        W45252  24.251  12.760   7.477 -0.2491  0.1570 -0.0313
    1W        W45253  25.145  26.260   2.132  0.2307 -0.0235 -0.2759
    1W        W45254  17.359  17.435   8.594  0.2247  0.2345  0.2232
    1W        W45255  24.244  22.049   0.853 -0.0492  0.3946  0.5234
    1W        W45256  12.366  19.008   0.078 -0.2322  0.1675 -0.1232
    1W        W45257  14.882   9.389   3.694  0.2116 -0.0846  0.4586
    1W        W45258  15.029  12.047   0.973 -0.2073  0.1313  0.1801
    1W        W45259   7.786   5.362   9.785  0.0937  0.0666  0.2061
    1W        W45260  18.079   8.324   2.335 -0.4068  0.0868  0.0894
    1W        W45261   4.872  15.226   2.384  0.0159 -0.0605  0.1374
    1W        W45262  10.650  19.440   3.518  0.2179  0.1337 -0.1134
    1W        W45263  17.931  17.654   9.992  0.0219 -0.1107  0.1796
    1W        W45264   0.825  23.262   3.181 -0.0803 -0.1561 -0.1536
    1W        W45265  27.403   9.303   2.978 -0.1049  0.0902  0.0862
    1W        W45266  27.210   3.179   8.253 -0.1180 -0.1582 -0.0106
    1W        W45267   2.383  27.004   7.960  0.0008  0.3406 -0.0106
    1W        W45268  17.899   0.181  10.081  0.1304  0.0670 -0.0881
    1W        W45269   8.680   0.268   0.775 -0.2915  0.0900  0.4495
    1W        W45270   5.062   4.454   1.233 -0.1003  0.4005  0.1156
    1W        W45271   8.166  26.139  10.146  0.0359  0.0474  0.2491
    1W        W45272  17.043   3.152   9.465  0.1671 -0.0104 -0.0932
    1W        W45273  25.583   8.988   1.562 -0.0226 -0.1183  0.4102
    1W        W45274  18.260   0.593  10.099  0.1096 -0.0037  0.0457
    1W        W45275   2.460   9.348   6.839  0.0101 -0.2332 -0.2465
    1W        W45276  18.929  14.450  10.047  0.1848 -0.1803 -0.1076
    1W        W45277  23.778  21.033   1.741 -0.0849 -0.1168 -0.1165
    1W        W45278   4.340  19.854   0.781  0.1316 -0.1131  0.0035
    1W        W45279  26.882  26.446   9.095 -0.1156 -0.2998  0.0715
    1W        W45280  16.205  13.370   0.651  0.2084  0.2368  0.2308
    1W        W45281  26.293   6.803   8.810  0.2127 -0.0192 -0.0543
    1W        W45282  14.042   4.761   9.221  0.0355 -0.2798  0.0536
    1W        W45283  25.953  24.839   8.547 -0.2798  0.0412 -0.0334
    1W        W45284  20.001  21.229   1.125  0.2780 -0.2429 -0.1579
    1W        W45285  28.020  22.604   9.169  0.0901 -0.2231 -0.2340
    1W        W45286  23.862  11.835   3.056  0.4135  0.1287  0.0994
    1W        W45287   0.486  27.096   7.000  0.0616 -0.2096  0.3582
    1W        W45288  18.838   8.996   7.914  0.0946 -0.0094  0.0197
    1W        W45289  21.380   8.767   2.361  0.0150 -0.0894  0.2224
    1W        W45290  10.121   4.524   0.187  0.0374 -0.0979  0.0996
    1W        W45291  22.632   8.976   9.705 -0.2501  0.0061 -0.3947
    1W        W45292  27.005  25.788   7.496  0.1809  0.3335  0.2611
    1W        W45293  16.005  26.678   2.795  0.0638  0.0970  0.0249
    1W        W45294  17.665  17.804   8.860  0.6054 -0.1839  0.1280
    1W        W45295   2.349  22.708   2.693  0.0103  0.3643  0.0084
    1W        W45296  23.031   2.896   9.027 -0.2909  0.2899 -0.2318
    1W        W45297  27.890  22.647   8.627 -0.3236 -0.0624  0.0990
    1W        W45298  18.666  24.951   9.440  0.0570 -0.4898  0.0977
    1W        W45299  14.476  20.256   8.547 -0.0251 -0.2247 -0.3039
    1W        W45300   4.360   9.229   0.683 -0.1378 -0.1435 -0.0672
    1W        W45301  22.132   3.447   7.195 -0.4728  0.0839  0.3045
    1W        W45302   4.412  19.858   9.147  0.3172  0.1320 -0.0523
    1W        W45303   7.208   8.068   0.675  0.1535 -0.0166  0.4590
    1W        W45304   2.519  10.138   0.734  0.1596 -0.0802 -0.1856
    1W        W45305   6.073  16.220   7.815 -0.0884 -0.1436 -0.1806
    1W        W45306  26.810  16.879   7.868 -0.0155  0.0882 -0.0045
    1W        W45307  15.198  26.328   2.416  0.5546 -0.1860  0.2762
    1W        W45308  19.755  21.534   9.638  0.1466 -0.1826 -0.0601
    1W        W45309   6.028  13.541   6.655  0.2702 -0.0852  0.0883
    1W        W45310   3.084  25.741   2.382 -0.0896  0.3234  0.1163
    1W        W45311  13.285   4.948   2.035  0.3000 -0.2633  0.0247
    1W        W45312   3.045  20.197   1.642  0.0168 -0.0472 -0.0347
    1W        W45313  28.047  13.347   0.995  0.0524 -0.1811 -0.5346
    1W        W45314  20.222  17.723   9.489  0.1154  0.0357  0.1037
    1W        W45315   1.683   3.432   6.547  0.0673 -0.1074  0.4261
    1W        W45316   5.177  26.515   7.329 -0.1541 -0.1535  0.0792
    1W        W45317   1.958  19.335   0.103  0.1171  0.1268  0.3020
    1W        W45318   5.447  26.303   1.830  0.2432 -0.0085  0.1054
    1W        W45319  18.074  25.438   9.769 -0.0778  0.0934  0.1735
    1W        W45320  23.028   7.353   1.234 -0.1514 -0.0762 -0.0266
    1W        W45321  21.847  13.586   8.518  0.2999  0.0225  0.3759
    1W        W45322   1.697   0.932   9.875  0.1141  0.1237 -0.1670
    1W        W45323  19.201  18.375   1.460 -0.1784  0.0475  0.1428
    1W        W45324  15.738  14.582   1.728  0.1941 -0.0498  0.1456
    1W        W45325  13.685  21.223   9.994 -0.1383  0.0579  0.1381
    1W        W45326  12.982  26.528   7.693 -0.0511  0.1219 -0.0637
    1W        W45327   9.969  11.590   1.323 -0.1173 -0.1327 -0.3181
    1W        W45328   5.013   7.449   2.309 -0.0941 -0.1764 -0.3106
    1W        W45329  27.923   9.272   1.513 -0.2254 -0.0920  0.5595
    1W        W45330  19.221  13.865   1.145  0.2103  0.1523  0.1538
    1W        W45331  17.817   9.163   8.363  0.1409 -0.0490 -0.1378
    1W        W45332  17.449  20.531   8.917  0.1654 -0.0826  0.0930
    1W        W45333  24.317  22.128   9.548  0.0543  0.2771  0.1042
    1W        W45334  20.650   8.964   0.053  0.3156  0.0707 -0.1085
    1W        W45335  16.583  21.955   8.378 -0.0809  0.0634 -0.2203
    1W        W45336  10.564   2.752   9.148 -0.1162  0.1099  0.1557
    1W        W45337   6.510  19.394   1.714 -0.1342  0.0255  0.1944
    1W        W45338  27.103   0.029   9.560  0.2795  0.1420 -0.0191
    1W        W45339   7.157  11.132   3.039  0.2172 -0.0056 -0.1083
    1W        W45340   4.731  20.372   2.044  0.4555 -0.1963  0.2553
    1W        W45341  21.689  19.387   3.287 -0.0538 -0.1164 -0.2564
    1W        W45342   4.669  18.240   9.299  0.1670 -0.0646 -0.1464
    1W        W45343   7.415   4.059   7.907  0.4292  0.1623  0.0499
    1W        W45344  18.716   0.714   8.684  0.0274  0.2387 -0.2607
    1W        W45345  16.462  24.209   9.549 -0.0777  0.0783 -0.2724
    1W        W45346  26.110   9.646   9.488 -0.3541  0.2086  0.1042
    1W        W45347   0.970  22.901   0.113 -0.1683 -0.0425 -0.0608
    1W        W45348   2.078   7.334   9.151 -0.1199 -0.1814 -0.2185
    1W        W45349  23.978  17.679   0.748  0.0915  0.1105 -0.0092
    1W        W45350   1.634  16.547   0.252  0.2360  0.2620  0.3150
    1W        W45351  15.696   8.244   7.002  0.0357 -0.1591  0.0616
    1W        W45352  16.487  19.605   7.593 -0.1833 -0.3716  0.0073
    1W        W45353  10.440  23.130   9.292  0.3767 -0.1142 -0.0084
    1W        W45354  22.278  11.304   2.488 -0.0385  0.0401 -0.1347
    1W        W45355  16.256  14.771   2.656 -0.1874 -0.3972  0.2203
    1W        W45356  13.544   0.724   9.284  0.2638 -0.1021 -0.0189
    1W        W45357  16.751  25.941   2.112 -0.1492  0.2615 -0.2218
    1W        W45358   1.654  17.317   1.652 -0.0710 -0.3201 -0.0276
    1W        W45359   8.974   7.191   0.538 -0.0832  0.1925  0.1601
    1W        W45360   8.471  25.858   0.262 -0.1422 -0.1178 -0.0288
    1W        W45361  20.546   9.022   7.468 -0.0582  0.1573 -0.3253
    1W        W45362  22.511  25.621   7.256 -0.0996  0.2440 -0.2812
    1W        W45363  22.759  17.997   3.477 -0.0334  0.2802  0.1056
    1W        W45364  24.616  26.667   3.874  0.2470  0.1062  0.0736
    1W        W45365  21.002   5.063   8.032  0.1733 -0.1105  0.1172
    1W        W45366   0.624   6.355   0.329 -0.2200  0.2047 -0.1409
    1W        W45367   7.754   5.822  10.003 -0.0580  0.1611  0.0699
    1W        W45368   2.147   9.044   8.336  0.0054 -0.0222 -0.0381
    1W        W45369  15.627   3.423   1.865  0.3322 -0.2864  0.2504
    1W        W45370  20.573   0.390   9.036 -0.0718  0.0142  0.2101
    1W        W45371  21.479  19.679   9.601 -0.2358 -0.0612  0.0820
    1W        W45372  25.698  21.640   9.275 -0.0966 -0.0889 -0.1879
    1W        W45373   4.130  12.381   2.700 -0.2800 -0.1035  0.0142
    1W        W45374  16.593   1.540   3.087  0.0283 -0.1109 -0.1966
    1W        W45375  15.842   5.611   3.525 -0.2235 -0.0394  0.0021
    1W        W45376  21.001   7.299  10.171 -0.1089  0.2932  0.3310
    1W        W45377   7.830  16.985   9.332  0.1426 -0.1313  0.2025
    1W        W45378  11.617  27.974   9.986  0.2457 -0.2165 -0.3328
    1W        W45379   6.710   8.741   7.609 -0.2895  0.2986  0.2508
    1W        W45380  17.715  21.775   7.559 -0.1694  0.2823  0.0332
    1W        W45381  20.914   6.329   0.440 -0.0501 -0.2642 -0.1795
    1W        W45382  23.241   1.831   0.126 -0.1898  0.0852 -0.1624
    1W        W45383  10.004  20.991   2.665 -0.1999 -0.3240  0.2570
    1W        W45384  16.343  12.462   1.027 -0.2126  0.0800  0.0625
    1W        W45385   1.265  15.846   8.838 -0.0723 -0.2740 -0.1748
    1W        W45386   8.443  22.484   8.388  0.3065  0.1443 -0.0387
    1W        W45387  22.382  16.563   9.008  0.0609 -0.1065  0.1920
    1W        W45388   6.105   7.539   8.882  0.0144  0.0014 -0.1541
    1W        W45389   4.912   3.465   0.945 -0.4642  0.1664 -0.0608
    1W        W45390  27.983   5.582   1.097 -0.0625 -0.2802  0.1102
    1W        W45391   2.105  24.627   8.971 -0.0377  0.2307  0.3344
    1W        W45392   1.315  10.455   2.936  0.0586  0.1302  0.0863
    1W        W45393   4.853  15.766   7.520  0.0817  0.1655  0.1921
    1W        W45394  21.736  24.665   7.833 -0.0490  0.0285  0.0059
    1W        W45395  26.680   2.780   8.429  0.4312  0.0185  0.0057
    1W        W45396  23.679  17.875   0.380 -0.0285 -0.2987 -0.1638
    1W        W45397   3.451   7.607   8.320 -0.2011 -0.1369 -0.2259
    1W        W45398  22.493   2.882   8.630  0.1544 -0.0286  0.0868
    1W        W45399  23.518   9.220  10.308 -0.1020  0.0467 -0.1911
    1W        W45400  12.935  21.388   9.061 -0.3227 -0.0399  0.0395
    1W        W45401  18.751  20.149   1.557  0.1773 -0.0630 -0.1030
    1W        W45402  17.910  14.461   9.124 -0.0127 -0.1172 -0.1480
    1W        W45403   6.883  16.421   1.730  0.2343 -0.0106  0.0559
    1W        W45404  14.949   8.644   0.250 -0.1904 -0.4865  0.1759
    1W        W45405   5.314  14.890   0.835  0.1207  0.0100  0.0153
    1W        W45406  18.125   1.260   1.352  0.0170  0.3492  0.0647
    1W        W45407  17.840   6.955   1.290 -0.1905 -0.1096 -0.2610
    1W        W45408  27.097  11.966   8.473  0.1990  0.0464 -0.2026
    1W        W45409  15.228   8.464   1.600 -0.0564  0.0870 -0.3594
    1W        W45410  27.427  22.839   9.984  0.2401 -0.0040  0.0941
    1W        W45411  15.283  17.887   8.338  0.3421  0.0950  0.1818
    1W        W45412  21.764  17.118   9.879  0.0726  0.1515  0.0417
    1W        W45413  15.829  15.351   8.894  0.1375 -0.1421 -0.0130
    1W        W45414   0.430  20.694   0.984 -0.4003 -0.1421  0.0900
    1W        W45415  17.531   8.953   2.218 -0.2227  0.0045  0.2712
    1W        W45416  26.876  24.490   0.129  0.2204  0.1486 -0.0122
    1W        W45417  17.637   5.401   2.744 -0.1936 -0.3363 -0.0487
    1W        W45418  18.601  23.813   2.822  0.1082  0.1536  0.1241
    1W        W45419  27.822   2.298   0.133 -0.2832  0.0250 -0.2593
    1W        W45420  14.135   6.617   1.283 -0.3803  0.1177  0.3739
    1W        W45421  23.686  25.195   2.947  0.3318 -0.2298  0.2853
    1W        W45422   0.317   4.108   9.292 -0.3471 -0.0598 -0.0725
    1W        W45423   4.606   3.602   6.563 -0.1723  0.2752  0.2164
    1W        W45424  11.041   8.654  10.344 -0.1580 -0.1860 -0.1602
    1W        W45425   1.838  12.421   1.365 -0.1417 -0.1509 -0.1407
    1W        W45426  21.822  10.547   0.738 -0.4172 -0.0288  0.0577
    1W        W45427  23.918  10.441   0.655 -0.0805  0.0194 -0.0421
    1W        W45428  11.422   9.703   7.558 -0.2880  0.1029 -0.1390
    1W        W45429  10.916   5.260   9.819  0.0873 -0.0750  0.1244
    1W        W45430   4.491  11.971   2.728  0.0418 -0.0220 -0.2057
    1W        W45431   1.627  24.798   1.876  0.2024  0.0579  0.2319
    1W        W45432  24.591  26.622   2.811 -0.0405  0.0902  0.1802
    1W        W45433   2.439  18.470   7.313  0.0739 -0.0647 -0.2230
    1W        W45434  14.744   7.441   3.117  0.2706 -0.3301  0.2784
    1W        W45435  13.242  26.046   0.745 -0.1164  0.1226 -0.0101
    1W        W45436  12.927   9.645   9.369  0.0680 -0.2220  0.0166
    1W        W45437   0.480  15.831   0.085 -0.0979  0.0231 -0.0814
    1W        W45438  20.321  11.712   8.365 -0.1827 -0.1904 -0.1804
    1W        W45439   6.146   7.868   7.171  0.2043  0.2803 -0.1317
    1W        W45440  16.215   2.521   3.230 -0.4180 -0.2463 -0.1082
    1W        W45441   7.189   5.364   8.861  0.2589  0.1038  0.2796
    1W        W45442  16.741  15.231   3.316  0.2866 -0.0587 -0.2423
    1W        W45443   8.399   0.325   2.344 -0.1095  0.3005 -0.1982
    1W        W45444  17.607   9.593   3.046 -0.2180 -0.1424  0.1529
    1W        W45445   3.099  19.876   1.265 -0.2331 -0.0672 -0.5029
    1W        W45446  15.317  26.004   1.114  0.1007  0.0114  0.1333
    1W        W45447  12.967  21.986   9.136  0.2139  0.2560  0.3591
    1W        W45448   2.775  22.566   0.529  0.0240  0.3612 -0.0667
    1W        W45449   2.116  15.263   2.149 -0.1868 -0.0623 -0.0849
    1W        W45450   2.769   4.835   9.142  0.1159  0.2874 -0.0645
    1W        W45451  15.877  10.845   9.362  0.1655  0.1698 -0.0283
    1W        W45452  26.167  14.554   9.701  0.1929  0.3010  0.1862
    1W        W45453  25.706   5.446   1.066  0.3348  0.0364  0.1133
    1W        W45454  21.435   3.419   0.519 -0.0473  0.0691 -0.0058
    1W        W45455  16.599  24.646   8.590 -0.0763  0.2101  0.0047
    1W        W45456  22.265  14.858   0.814  0.2201  0.2489  0.1917
    1W        W45457  16.140  17.353   7.360 -0.1440 -0.1653  0.5264
    1W        W45458  14.295  12.115   3.443 -0.0234  0.1122  0.0908
    1W        W45459  20.963   2.530   7.740 -0.1138 -0.2681  0.1271
    1W        W45460  23.980  16.959   7.928 -0.1013 -0.3040 -0.1648
    1W        W45461  15.333   8.592   9.187 -0.2368  0.0006 -0.1115
    1W        W45462   4.852  21.414   2.757 -0.0645 -0.2881  0.1018
    1W        W45463   9.558   1.882   1.229 -0.1125  0.0527  0.1845
    1W        W45464  21.990  15.804   9.561 -0.0119 -0.0877 -0.0889
    1W        W45465  20.032  23.294   0.358 -0.0745 -0.0704 -0.0954
    1W        W45466   5.071  10.127   9.363  0.2114 -0.1556 -0.0205
    1W        W45467   7.124   8.178   0.126  0.4019  0.1122  0.0300
    1W        W45468  12.638  21.611   7.700  0.1910 -0.0289 -0.1554
    1W        W45469  24.258  24.299   9.965  0.0811  0.0408  0.1210
    1W        W45470   2.910  10.244   1.624 -0.2617  0.0101  0.0622
    1W        W45471  25.736  23.670   0.881  0.1128 -0.0123  0.0900
    1W        W45472  12.037  17.450   7.002  0.1679  0.2067  0.2126
    1W        W45473  21.424   5.582   8.608 -0.0717 -0.0777  0.0497
    1W        W45474  16.608   7.027   4.169  0.0511  0.0221  0.0724
    1W        W45475  14.542   9.427   3.297 -0.1595  0.0572 -0.0958
    1W        W45476  21.653  10.359   2.711  0.1840 -0.2975  0.1126
    1W        W45477   8.751  19.033   9.081  0.5859 -0.1293 -0.0275
    1W        W45478  17.780  26.526   0.574 -0.1135 -0.2602 -0.4102
    1W        W45479  19.737   2.008   8.890  0.0390  0.4144  0.0676
    1W        W45480  20.502   7.195   2.220  0.4780 -0.0653 -0.1965
    1W        W45481  16.465  26.844   0.392  0.0036  0.1457  0.2039
    1W        W45482  11.266  15.237   2.843  0.1201  0.1445 -0.3378
    1W        W45483  19.615  12.681   0.316 -0.3174  0.1822 -0.2164
    1W        W45484  11.931  10.440   3.804 -0.0417  0.4245  0.0086
    1W        W45485   9.161  14.142   3.018  0.1217 -0.0195 -0.2409
    1W        W45486   8.166  20.463   0.980  0.4074 -0.1148  0.0984
    1W        W45487  18.683  19.995   0.764  0.0091  0.1628 -0.1217
    1W        W45488  11.593  23.287   0.801  0.0154 -0.4217  0.0593
    1W        W45489  26.496  13.115   7.346 -0.0368 -0.1131  0.0474
    1W        W45490  20.121   5.619   2.687 -0.1041 -0.1400  0.3489
    1W        W45491  19.057   4.449   0.627  0.1432  0.2110 -0.3249
    1W        W45492  11.636  24.785   1.136 -0.1880  0.1933  0.0418
    1W        W45493  11.156   1.670   8.943  0.0862 -0.0671 -0.1308
    1W        W45494  24.001  10.638   1.525  0.1348 -0.0926  0.0382
    1W        W45495  16.048   6.823   7.098  0.0422  0.1096  0.2013
    1W        W45496  26.868  10.894   6.772 -0.2467  0.1380  0.0892
    1W        W45497   5.051   4.125   9.914 -0.0180 -0.0551  0.0663
    1W        W45498  25.359   7.901   6.493 -0.1293  0.1077 -0.3701
    1W        W45499   8.134  21.255   3.834 -0.1408 -0.2014  0.1542
    1W        W45500   3.582  12.366  10.222  0.0615 -0.0743 -0.0584
    1W        W45501  16.435  24.477   2.953  0.0967  0.0042  0.0005
    1W        W45502  18.431  27.129   1.489  0.1864  0.1124 -0.0820
    1W        W45503  20.062   4.505   7.903  0.1079 -0.0916 -0.2125
    1W        W45504   1.345  15.293   8.352  0.0815 -0.0732 -0.1040
    1W        W45505  24.489  24.518   9.385  0.1229 -0.0854  0.0413
    1W        W45506  18.367  20.027   8.377  0.2066 -0.0110  0.0881
    1W        W45507  12.794   4.324   9.796 -0.0177 -0.2420  0.2228
    1W        W45508   0.465   5.918   1.990 -0.2396  0.4162  0.0923
    1W        W45509   2.698   0.140   8.451  0.0633  0.2125 -0.1259
    1W        W45510   2.376  19.208   1.812 -0.1670  0.0210  0.2226
    1W        W45511  19.236  10.719   1.525  0.3676  0.0374 -0.0551
    1W        W45512  21.986   5.705   8.776  0.0376  0.0093 -0.1322
    1W        W45513  12.256  26.555   7.561  0.0911  0.1050  0.0827
    1W        W45514  10.364  18.237   1.719  0.1436  0.2948  0.1161
    1W        W45515  22.423  26.614   9.757  0.2483 -0.0473  0.3402
    1W        W45516  14.188  19.160   2.294 -0.1739 -0.0019  0.3608
    1W        W45517  17.775  17.389   3.508 -0.0611  0.1521  0.0151
    1W        W45518   3.484  10.020   7.471  0.0574 -0.1775  0.1604
    1W        W45519  18.613   3.228   3.560 -0.1425  0.2558  0.0944
    1W        W45520  12.842  15.686   2.522  0.0240  0.0747 -0.1334
    1W        W45521  25.331  12.200   8.095  0.1627  0.0295 -0.0648
    1W        W45522  26.450  20.948   0.182 -0.1731 -0.2189 -0.0080
    1W        W45523  24.716  16.410   7.663 -0.2165  0.0129 -0.1596
    1W        W45524   5.175  17.998   7.859 -0.1540  0.0832 -0.4232
    1W        W45525  25.163  12.818   2.001  0.3936 -0.1695 -0.0836
    1W        W45526  18.646  22.109   7.799  0.0662 -0.0724 -0.2215
    1W        W45527  25.814  13.393   7.436 -0.2270  0.1511 -0.1762
    1W        W45528  15.560  19.441   2.480 -0.0141  0.2971  0.2080
    1W        W45529  14.669  16.496   8.553  0.5468 -0.1669 -0.0067
    1W        W45530   0.615  12.684   0.674  0.3268  0.0850  0.1971
    1W        W45531  25.396  15.561   2.686  0.1970 -0.1278 -0.1064
    1W        W45532  15.601  15.405   2.460 -0.1906 -0.3452 -0.0776
    1W        W45533  11.579  20.605   9.947 -0.1214  0.0514 -0.2359
    1W        W45534  26.105   8.309   1.002 -0.1004 -0.1547 -0.0464
    1W        W45535   0.941   4.536   9.749  0.2133  0.2740  0.1548
    1W        W45536  21.359  22.344   9.006  0.5398 -0.2416  0.2102
    1W        W45537  15.412  22.136   8.701  0.1920 -0.1817  0.1678
    1W        W45538  17.593  18.264   8.718  0.1099 -0.0892 -0.1216
    1W        W45539  14.427   8.086   1.656  0.2340 -0.3932 -0.0309
    1W        W45540  25.664   6.534   8.270  0.1735 -0.1042  0.1472
    1W        W45541  25.528   8.157  10.210  0.4149  0.1253  0.2401
    1W        W45542  22.194   8.862   9.990 -0.0764  0.2197 -0.0472
    1W        W45543   2.635  21.981   0.173  0.0205  0.1412 -0.1370
    1W        W45544  17.807   0.720   9.910  0.1739  0.0414 -0.4360
    1W        W45545   3.110  17.719   1.529 -0.1247 -0.1112 -0.0483
    1W        W45546  10.692   4.581   8.989 -0.0624  0.1645 -0.0046
    1W        W45547  26.082   9.240   2.195 -0.0431  0.0100  0.2357
    1W        W45548  15.118  15.307   1.968  0.0340  0.1022  0.0687
    1W        W45549   7.228  22.730   0.815 -0.2819 -0.3494  0.0290
    1W        W45550   9.023  16.574   9.605  0.2196 -0.3445  0.1384
    1W        W45551  26.375  22.661   0.918 -0.3033  0.0824 -0.1901
    1W        W45552  14.785   0.148   9.884 -0.1053  0.1107 -0.3269
    1W        W45553  11.565   8.515   3.019 -0.0947 -0.0380 -0.0338
    1W        W45554   3.506   7.155   8.130 -0.0079 -0.3223  0.0414
    1W        W45555  20.175  20.942   9.093 -0.1855 -0.1748  0.1434
    1W        W45556  17.611  16.123   9.681 -0.0400 -0.1661  0.1220
    1W        W45557  26.021  11.503   6.494  0.1351  0.5145  0.0909
    1W        W45558  17.354   3.270   3.286  0.4508 -0.2149 -0.3038
    1W        W45559  17.982  23.012   7.855 -0.0385 -0.1158  0.0794
    1W        W45560   1.878  16.065   0.424 -0.0771 -0.1024  0.0773
    1W        W45561   7.164   9.689   8.860 -0.0457  0.1569  0.0088
    1W        W45562   4.508  19.817   1.308 -0.1850  0.3874  0.0460
    1W        W45563   2.623  18.430   8.573  0.3352 -0.0330  0.0618
    1W        W45564  22.538  26.662   9.279  0.3455 -0.1308  0.3548
    1W        W45565  22.692  21.288   2.554 -0.2405 -0.1814  0.0893
    1W        W45566  21.496  11.024   1.527  0.0754  0.4203 -0.0514
    1W        W45567  10.145  10.712   8.612 -0.1168  0.3939  0.0824
    1W        W45568  21.094   6.283   9.282  0.1655  0.0388  0.1070
    1W        W45569   0.384  28.059   2.294 -0.0294  0.0533  0.1886
    1W        W45570   4.331  10.721   9.939  0.1864 -0.0825 -0.0067
    1W        W45571   9.044  23.768   8.761  0.1278 -0.0241 -0.1540
    1W        W45572   8.532   5.407   3.119  0.0870  0.0583  0.2839
    1W        W45573  26.628  26.728   2.173  0.1664  0.2664 -0.0357
    1W        W45574  22.006  19.733   2.555  0.0939 -0.2613 -0.1071
    1W        W45575  13.364  12.037   8.720 -0.0895  0.2186  0.0247
    1W        W45576  24.506  27.783   8.248  0.0926  0.1297 -0.5175
    1W        W45577  12.926  11.547   2.505 -0.1454  0.2733  0.3130
    1W        W45578  21.245   0.729   2.887  0.0033 -0.0509 -0.2550
    1W        W45579  13.406  11.758   8.279 -0.1736 -0.1120 -0.2080
    1W        W45580  12.364  27.272  10.151 -0.1316 -0.1868  0.0933
    1W        W45581  12.420  15.533   0.580  0.2846  0.1148 -0.1171
    1W        W45582  11.388   5.537   2.857 -0.1897  0.0894  0.1211
    1W        W45583   9.780  10.494   8.376 -0.1836 -0.0571  0.0830
    1W        W45584   9.632  25.181   1.654 -0.0354  0.1028 -0.0254
    1W        W45585  15.543  24.067   2.473  0.1494  0.2983  0.0706
    1W        W45586  14.132   3.302   7.768 -0.2603  0.3097  0.0184
    1W        W45587  20.801   7.826   0.600  0.3364  0.1366 -0.3239
    1W        W45588   7.003  25.518   7.739 -0.3338  0.2696  0.1099
    1W        W45589   6.042  16.571   1.242  0.1268 -0.0465  0.0890
    1W        W45590  26.198   0.648   9.612  0.2746  0.0015  0.1043
    1W        W45591   5.811  25.341  10.183 -0.2201  0.0505  0.2297
    1W        W45592   1.009   0.816   1.547  0.2635  0.3877  0.0073
    1W        W45593  26.499  15.526   6.699  0.2307  0.2884 -0.2597
    1W        W45594  21.555  12.096   6.879  0.1327  0.2318  0.0562
    1W        W45595  12.124   5.319   8.429 -0.0029  0.1963  0.1551
    1W        W45596  13.769  13.729   9.740  0.0887  0.1083 -0.0918
    1W        W45597  10.677  20.427   3.230 -0.1681 -0.1307 -0.2646
    1W        W45598   3.100  15.796   8.757  0.2245  0.0469  0.0466
    1W        W45599  18.757   1.481   0.324  0.1271  0.0124  0.0333
    1W        W45600  13.618  16.324   0.734 -0.0662 -0.0905  0.1454
    1W        W45601  22.860   7.272   7.863  0.1178  0.0359 -0.2078
    1W        W45602  19.425  14.426   8.510 -0.1602 -0.0753 -0.0719
    1W        W45603   5.807  15.036   9.533 -0.0860 -0.1008  0.0745
    1W        W45604  26.350  21.911   0.374  0.0914  0.0457 -0.4835
    1W        W45605  19.079   1.530   8.816 -0.2049 -0.2744 -0.1554
    1W        W45606   0.918  25.931  10.301 -0.0471 -0.1229  0.1600
    1W        W45607   8.962   3.751   9.100 -0.2284 -0.0601 -0.6178
    1W        W45608  22.414  16.533   0.559  0.2264  0.0188 -0.1706
    1W        W45609  16.672   0.986   7.906 -0.0932  0.1484  0.0194
    1W        W45610   5.692   4.524   8.247  0.4282  0.0390 -0.3343
    1W        W45611  23.333  11.872   2.259 -0.2521 -0.4089  0.1129
    1W        W45612  18.765  10.322   9.918 -0.0084  0.1625  0.0747
    1W        W45613  10.427  26.409   3.245  0.2616 -0.3101  0.1115
    1W        W45614   9.350  23.153   1.086 -0.2393 -0.0797  0.0181
    1W        W45615  23.526  19.557   8.720  0.0509  0.4259 -0.2076
    1W        W45616   7.391   5.096   9.594  0.0737  0.1294 -0.1504
    1W        W45617  12.525   4.530   0.778 -0.2360  0.7757  0.0120
    1W        W45618   4.118  18.865   8.831 -0.2090  0.0370  0.1994
    1W        W45619  23.191  11.153   1.923 -0.1579  0.0332  0.0922
    1W        W45620  14.569  15.379   8.028 -0.2307  0.1255  0.0637
    1W        W45621   7.459   1.455   2.284  0.1534 -0.2053  0.0554
    1W        W45622  16.363  27.841   7.481 -0.0427  0.3303 -0.2088
    1W        W45623  10.944  20.627   0.786  0.0617  0.0217 -0.3121
    1W        W45624   0.703   3.878   9.088 -0.0978 -0.1045 -0.1682
    1W        W45625  24.966   5.441   9.148  0.3012  0.0786 -0.1516
    1W        W45626  19.050   7.651   0.572  0.1768  0.1337  0.2458
    1W        W45627   7.587   8.711   9.907  0.1928  0.2748  0.2253
    1W        W45628  21.584  18.654   7.558  0.1273 -0.4207 -0.4019
    1W        W45629  19.939  20.438   3.327  0.1165 -0.0121 -0.1963
    1W        W45630  25.901   4.852   7.597 -0.1239 -0.0199 -0.4501
    1W        W45631  15.245  17.857   8.925  0.1277 -0.3339 -0.0157
    1W        W45632  26.498   8.224   0.171  0.0316  0.1186 -0.0821
    1W        W45633  19.769   7.626   9.365 -0.1273  0.0401 -0.0227
    1W        W45634  10.961  13.208   9.453 -0.1487  0.2121  0.2694
    1W        W45635  19.631  24.948  10.360  0.1224  0.1501  0.2826
    1W        W45636   8.990   3.069   7.850  0.1358 -0.2913  0.1052
    1W        W45637   0.259   2.102   0.903 -0.0561  0.0323  0.0532
    1W        W45638  13.783   4.374   3.766 -0.1126 -0.3380 -0.0250
    1W        W45639  16.301   9.274   1.605 -0.0715 -0.1096  0.1738
    1W        W45640   9.458  13.019  10.070 -0.1367  0.3782  0.0948
    1W        W45641   1.086   3.861   8.525  0.0852  0.0052  0.0264
    1W        W45642   7.488   4.150   2.294 -0.0295 -0.2411  0.0763
    1W        W45643  13.938   6.217   3.923  0.1758  0.0769 -0.2520
    1W        W45644  15.228   6.688   8.341  0.1638  0.1128 -0.4260
    1W        W45645   9.994  22.329   0.099  0.1068 -0.0604  0.2366
    1W        W45646  11.439  15.662   1.615 -0.0801  0.0861 -0.1272
    1W        W45647  23.296  12.264   8.698 -0.1832 -0.1260 -0.1482
    1W        W45648  17.459  15.631   8.310  0.0525 -0.2265 -0.0242
    1W        W45649  17.517  22.661   2.108 -0.2902  0.1604 -0.0426
    1W        W45650  20.405  16.988   8.450  0.1713  0.2884  0.0407
    1W        W45651   7.702   9.657   7.015 -0.3201 -0.0509  0.2247
    1W        W45652  14.637   3.393   9.120 -0.4125 -0.1633 -0.0085
    1W        W45653  25.866   7.911   8.019  0.2898 -0.1806 -0.3450
    1W        W45654   7.752  14.351   1.286  0.1392  0.0002  0.2037
    1W        W45655  12.482  26.531   1.275 -0.1416  0.1119  0.0247
    1W        W45656   8.838   4.454   0.838  0.2768  0.0925 -0.0138
    1W        W45657   9.533  22.647   1.509  0.0856 -0.1943 -0.0476
    1W        W45658  18.698  21.351   3.465 -0.1257  0.1900 -0.3855
    1W        W45659  19.668   4.411   7.598 -0.0465 -0.0918  0.1349
    1W        W45660  10.369   4.741   9.305 -0.0786 -0.1027 -0.0307
    1W        W45661  12.599  10.358   2.979  0.1002  0.1361  0.0199
    1W        W45662   3.967   6.916   0.850 -0.2955 -0.0743  0.1981
    1W        W45663   4.863   8.205   6.422 -0.0171 -0.0074  0.1547
    1W        W45664  19.232  20.090  10.020 -0.2811 -0.0211  0.0732
    1W        W45665  19.075   3.258   9.455 -0.1873 -0.3514 -0.1430
    1W        W45666  11.103  11.606   0.138  0.0327 -0.1457  0.1132
    1W        W45667  20.227  20.407   8.318  0.1898 -0.0903 -0.1491
    1W        W45668  17.314   6.729   7.870  0.0986  0.1088  0.0325
    1W        W45669   0.827   9.098   0.421  0.0292 -0.5544 -0.2744
    1W        W45670   6.703  17.727   3.871  0.2570  0.2965 -0.1369
    1W        W45671  21.002  18.216  10.352 -0.3021 -0.0249 -0.1271
    1W        W45672  18.527   6.766   7.999  0.1605  0.1056 -0.1945
    1W        W45673  15.529   0.296   0.236  0.2157 -0.1436 -0.4033
    1W        W45674  23.593   3.282   7.440 -0.1288  0.0680 -0.0801
    1W        W45675  17.330  14.269   8.573  0.0056  0.0630 -0.0093
    1W        W45676   7.480  23.522   2.188  0.1260 -0.1963 -0.0419
    1W        W45677  12.664  15.645   0.112  0.0048 -0.1410  0.3047
    1W        W45678   2.146  25.458   0.552  0.1027  0.1014 -0.0380
    1W        W45679  25.000  15.963   1.849 -0.0276 -0.3318  0.0454
    1W        W45680  25.452  18.420   6.679  0.2831  0.2387 -0.0430
    1W        W45681  11.601   0.200   0.820  0.0113  0.2449 -0.0159
    1W        W45682   4.329   4.991  10.349  0.1698 -0.0064  0.0200
    1W        W45683  21.582  26.427   9.246  0.1154 -0.4199 -0.1382
    1W        W45684   0.620   8.928   1.821  0.0543  0.1160 -0.2427
    1W        W45685   9.987   9.197   8.174 -0.3786  0.4901  0.0511
    1W        W45686   4.469   0.120   1.160 -0.0664  0.1749  0.1597
    1W        W45687  19.686   3.812   6.419  0.4397  0.1341 -0.2312
    1W        W45688   7.501   2.340   8.146  0.1166 -0.1033 -0.1865
    1W        W45689  19.805   5.962   2.027  0.2655  0.1452 -0.1698
    1W        W45690   9.276   7.534   9.361 -0.0855  0.1286 -0.0522
    1W        W45691  17.622   2.019   9.112 -0.0567 -0.1042  0.1045
    1W        W45692  27.762   8.763   6.862  0.2285 -0.1989 -0.0217
    1W        W45693  19.841  22.659   1.229  0.0896 -0.2357 -0.2110
    1W        W45694  24.788  25.988   0.263 -0.1646 -0.2909  0.0543
    1W        W45695  10.869  27.669   9.623 -0.1678  0.1677 -0.1961
    1W        W45696  20.205   9.280   3.195 -0.2214  0.2870  0.1557
    1W        W45697  16.194  18.684   2.237  0.1112 -0.1696  0.2034
    1W        W45698   2.371   4.869   1.937 -0.0191  0.0640  0.2418
    1W        W45699   9.829  10.946   0.700  0.0623 -0.0925  0.1637
    1W        W45700  15.236   0.654   8.683  0.0347  0.2074 -0.0152
    1W        W45701  14.017  16.862   2.165  0.1158 -0.1581  0.0489
    1W        W45702  16.356  12.161   9.381 -0.0363 -0.0332  0.3660
    1W        W45703  19.721  15.796   9.479 -0.1259  0.0973 -0.0675
    1W        W45704  28.118  23.747   0.000  0.0963 -0.0057 -0.0390
    1W        W45705  11.522  21.183  10.093  0.1290 -0.2939  0.0623
    1W        W45706  25.520  16.883   0.475  0.0060 -0.1345  0.1829
    1W        W45707   3.932  10.871   0.985 -0.0650 -0.0504  0.0533
    1W        W45708   3.153  28.071   0.888  0.0612  0.0928 -0.1881
    1W        W45709   2.098  10.883   2.376  0.1667 -0.0026 -0.1148
    1W        W45710   8.275   1.236   6.705 -0.1793  0.2215  0.0288
    1W        W45711   9.904   3.131   8.425  0.1677 -0.2698 -0.1962
    1W        W45712   2.731  23.085   0.459 -0.2466 -0.1201  0.1043
    1W        W45713   5.368   8.590   1.803 -0.2807 -0.1063 -0.2512
    1W        W45714  24.106   6.891   9.054  0.0044 -0.2474 -0.1930
    1W        W45715   7.654   7.417   1.226 -0.0577  0.2077 -0.0692
    1W        W45716  23.681  21.376   0.378  0.2154 -0.1231  0.0851
    1W        W45717  11.398  12.488   1.745  0.0625 -0.0066 -0.0013
    1W        W45718  23.190  22.191   0.657 -0.1611  0.1265 -0.2119
    1W        W45719   9.019  21.468   7.797 -0.5031 -0.0845  0.1465
    1W        W45720   5.621  21.993  10.093  0.2563  0.2378  0.1348
    1W        W45721  17.166  18.156   2.883  0.0436  0.0033 -0.2128
    1W        W45722  24.529  17.463   0.232  0.3918  0.3156 -0.0983
    1W        W45723  26.757  11.189   7.634 -0.2319 -0.0537 -0.2202
    1W        W45724  17.753  13.161   9.697  0.1223 -0.0119 -0.0827
    1W        W45725   0.477  12.098   1.418 -0.2254  0.0430 -0.1758
    1W        W45726  13.861   4.664   1.211 -0.4895 -0.2319 -0.0331
    1W        W45727   3.613  11.893   0.708  0.0639  0.1617 -0.0401
    1W        W45728  21.767   1.156   9.994 -0.0591  0.0183 -0.1269
    1W        W45729  20.341   0.598   0.148 -0.2823 -0.2057  0.0856
    1W        W45730   1.656  20.582   8.938 -0.2685 -0.1015  0.0876
    1W        W45731  12.648  18.084   0.975 -0.3263  0.2721 -0.1722
    1W        W45732  10.235   2.382   8.445  0.0352  0.0581 -0.3471
    1W        W45733  12.598  16.768   2.161  0.0929  0.0396 -0.0643
    1W        W45734   8.587  22.126   0.930 -0.0797  0.2300  0.2530
    1W        W45735   9.882  15.764   9.402  0.2217 -0.1976  0.1529
    1W        W45736  22.646   9.932   1.452  0.0034  0.4759 -0.0180
    1W        W45737  10.207  20.615   1.581 -0.1752 -0.1132  0.0517
    1W        W45738  18.600  27.348   0.783  0.1255 -0.0529  0.2876
    1W        W45739  16.229  22.212   7.677 -0.1268  0.1366  0.0114
    1W        W45740  27.538  13.171   9.579 -0.1294  0.1196  0.0912
    1W        W45741  21.379   0.401   0.532 -0.0994  0.0610  0.3055
    1W        W45742   6.644   7.212  10.137  0.1183  0.0191 -0.0043
    1W        W45743  15.895  14.832  10.318  0.0242 -0.2133 -0.1083
    1W        W45744  24.602  21.705   8.930 -0.1575 -0.1315  0.1133
    1W        W45745  10.292  16.171   0.371  0.2530 -0.2971 -0.1211
    1W        W45746   5.919   6.890   7.265  0.0725 -0.1793 -0.0910
    1W        W45747   6.195   8.389   6.309  0.0165 -0.1850  0.0371
    1W        W45748  14.058  27.133   9.638 -0.2568  0.0649 -0.5039
    1W        W45749  20.552   3.203   7.496 -0.1010 -0.2309  0.5071
    1W        W45750  15.154  23.573   2.515  0.1423 -0.1645  0.2585
    1W        W45751   6.712  10.102   0.515  0.0204  0.0077 -0.3569
    1W        W45752  15.463  26.951   8.263  0.2023  0.1525  0.1428
    1W        W45753   4.693   9.190   7.352 -0.0591  0.0641 -0.1364
    1W        W45754  18.567  11.568   8.914  0.0815  0.3384 -0.2647
    1W        W45755  12.650  21.024   2.774 -0.1965 -0.1209 -0.1078
    1W        W45756   7.501  11.138   1.042 -0.2526 -0.0788  0.1036
    1W        W45757  27.048  19.665   0.679 -0.1905 -0.0461 -0.2586
    1W        W45758   3.753  14.710   2.224  0.0434 -0.1407 -0.0838
    1W        W45759  21.313  16.995   2.934  0.1134  0.0511  0.2658
    1W        W45760  22.665  13.426   2.453 -0.1443 -0.1066 -0.1822
    1W        W45761   7.396  21.516   9.402 -0.2687 -0.2460 -0.1367
    1W        W45762  21.696  25.190   8.581 -0.3877 -0.1962  0.2347
    1W        W45763   8.468  15.692   3.934  0.1342  0.0970  0.2560
    1W        W45764   8.573   9.091   1.219 -0.0604  0.1950  0.1967
    1W        W45765  19.513   9.468   6.846 -0.0257 -0.0517  0.1165
    1W        W45766   4.428   4.459   8.530  0.1699  0.1574  0.0636
    1W        W45767  15.246  15.254   3.422 -0.1590 -0.2107  0.0584
    1W        W45768   8.551  15.600  10.082 -0.1328 -0.0229 -0.0312
    1W        W45769  25.797   6.691   0.631  0.1027 -0.0362  0.3319
    1W        W45770   7.652  20.918   1.333 -0.2336 -0.0812 -0.0112
    1W        W45771  12.647  20.524   7.629  0.0828  0.0879  0.1064
    1W        W45772   3.317  27.079   9.733 -0.1200  0.0500 -0.1464
    1W        W45773  25.807  11.689   9.684 -0.0938  0.0466  0.2712
    1W        W45774  24.585   5.375   8.170  0.0260  0.2524 -0.0621
    1W        W45775   1.267   8.402   8.663 -0.0183 -0.1655 -0.0371
    1W        W45776   7.730  16.117   3.488 -0.2451  0.2394  0.0858
    1W        W45777   9.627  20.876  10.223  0.0467 -0.0908 -0.2417
    1W        W45778   6.032  20.588   2.704  0.0302  0.2870  0.0540
    1W        W45779   2.304  13.417   8.516 -0.2809 -0.1309 -0.2155
    1W        W45780   5.955  14.141   1.946  0.2054 -0.0970 -0.0639
    1W        W45781   6.025  23.794   8.565 -0.0355 -0.1995 -0.0417
    1W        W45782  15.982   4.978   7.535  0.1038  0.2025 -0.0090
    1W        W45783   9.965  19.111   0.485  0.0812 -0.1469 -0.3256
    1W        W45784   5.103  24.903   1.487 -0.0802  0.1735 -0.1738
    1W        W45785   7.927  22.336   8.723  0.3138  0.1497  0.2700
    1W        W45786  13.964   1.903   2.259 -0.0715 -0.1090 -0.0560
    1W        W45787  16.025  19.745   8.951 -0.0723  0.0060  0.1218
    1W        W45788  14.082   8.925   9.986  0.0457  0.0034  0.2606
    1W        W45789   6.718  12.589   0.145  0.1875  0.1423 -0.1799
    1W        W45790  11.870  10.213   2.282 -0.3810  0.1906  0.0560
    1W        W45791   8.267   3.756   9.818 -0.2397  0.0578  0.0107
    1W        W45792   1.736   6.918   1.067 -0.1682  0.2350 -0.0635
    1W        W45793  19.042  18.600   8.848 -0.4342  0.1196  0.1958
    1W        W45794  13.074   9.194   0.139 -0.0427  0.1522 -0.2193
    1W        W45795  15.385  25.490   7.385 -0.0253 -0.1622 -0.1798
    1W        W45796  16.505  12.084   8.831  0.0253 -0.1040  0.1622
    1W        W45797  16.814  27.819   8.391 -0.0381 -0.1181  0.1974
    1W        W45798   1.648   4.799   0.900 -0.1185 -0.2449  0.0528
    1W        W45799  11.414  21.165   0.377  0.1693 -0.0330 -0.0321
    1W        W45800  19.388   9.391   1.000 -0.2945 -0.0709 -0.3254
    1W        W45801  18.546   8.360   1.593 -0.0306 -0.0153 -0.2611
    1W        W45802   7.060  20.714   1.247  0.2670  0.0560  0.1250
    1W        W45803   9.386  25.894   7.690  0.3144  0.1406 -0.3089
    1W        W45804  19.889   3.329   6.474  0.0763 -0.1655 -0.2615
    1W        W45805   3.036  22.704   6.339 -0.1810  0.0974  0.1322
    1W        W45806   4.654   5.672   6.658 -0.0353 -0.1812 -0.0401
    1W        W45807  16.772  11.086   6.918  0.0699 -0.0204 -0.1541
    1W        W45808  21.247  22.310   9.547 -0.2059 -0.2490  0.0884
    1W        W45809  18.475   6.187   8.092 -0.0172  0.1184  0.0537
    1W        W45810  26.687  14.679   8.936 -0.0139 -0.3762 -0.0447
    1W        W45811   4.392  25.064   6.597 -0.2419 -0.0618  0.0618
    1W        W45812  18.939  23.103   9.342 -0.1039 -0.1216  0.3484
    1W        W45813   5.365   1.553   8.784  0.0840 -0.2723  0.0617
    1W        W45814   1.832  22.023   1.406 -0.0504  0.2901 -0.0824
    1W        W45815  10.174   4.012   3.000 -0.1329  0.1312 -0.0034
    1W        W45816  15.713  21.017   1.434  0.0520 -0.2109 -0.1319
    1W        W45817  12.920  10.255   2.186  0.3497 -0.0801 -0.1367
    1W        W45818  13.898  27.702   7.336  0.1178  0.0379  0.0190
    1W        W45819  19.226  22.558  10.181  0.3406 -0.0430  0.0869
    1W        W45820  18.384   4.828   0.483  0.1802 -0.0031 -0.1716
    1W        W45821  24.853  22.654   9.035 -0.1510 -0.0737 -0.2115
    1W        W45822  23.806  26.730   9.762 -0.2353  0.0491 -0.0090
    1W        W45823   1.917  26.855   9.908 -0.1705  0.2750 -0.1062
    1W        W45824  18.600  26.356   2.086 -0.2573 -0.1191  0.0245
    1W        W45825   2.089  12.767   9.715 -0.2960  0.0024  0.1474
    1W        W45826  27.375  14.266   7.732 -0.3576 -0.1689  0.0563
    1W        W45827  24.924  26.036   2.898 -0.0582 -0.1018 -0.3641
    1W        W45828  26.328  20.411   8.118 -0.2540  0.3787 -0.0641
    1W        W45829  18.135  21.229   2.440 -0.0590 -0.1230 -0.3694
    1W        W45830   9.430  15.982  10.277  0.0274  0.1628 -0.0563
    1W        W45831   6.576  13.356   8.888  0.1062  0.2593 -0.2276
    1W        W45832   0.173  27.658   1.910 -0.0442 -0.2472 -0.1558
    1W        W45833  23.372   3.050   1.910 -0.2221  0.1596  0.0259
    1W        W45834   6.671   1.800   0.861 -0.0900  0.2102 -0.3556
    1W        W45835   3.474  15.344   9.697 -0.1298 -0.2143 -0.1707
    1W        W45836   8.459  21.290   9.015  0.2039 -0.1621 -0.0741
    1W        W45837  22.240  24.268   2.274  0.3527  0.1195  0.2963
    1W        W45838  21.333  18.262   0.917 -0.2777 -0.6518  0.0732
    1W        W45839   8.658   3.475   1.068 -0.0006  0.2293  0.0380
    1W        W45840   1.078   1.108   9.993  0.0455  0.0440  0.0350
    1W        W45841  15.544  25.509   0.884  0.0300 -0.0933  0.6723
    1W        W45842  26.297   2.173   2.337  0.0892 -0.1667  0.2406
    1W        W45843  26.140   7.013   9.644  0.2055 -0.1051 -0.0436
    1W        W45844  12.349   4.838   2.237 -0.1013 -0.1690 -0.0456
    1W        W45845  26.577   8.619   8.215  0.4582 -0.0250  0.1764
    1W        W45846   0.327  21.185   1.387 -0.0576  0.2326  0.0992
    1W        W45847  21.306   4.536   9.527 -0.2117  0.1320  0.2754
    1W        W45848  16.739   1.521   0.722 -0.0122  0.2734  0.3649
    1W        W45849  11.160  27.412   0.160  0.0886  0.0497  0.1683
    1W        W45850  16.730  10.990   3.690 -0.0372  0.2695 -0.0822
    1W        W45851   1.880  27.562  10.361 -0.0532 -0.2818 -0.4470
    1W        W45852  17.504   4.138   1.593  0.1346  0.0742  0.0367
    1W        W45853   6.088  27.447   9.712 -0.1992  0.0556 -0.1248
    1W        W45854  18.139   8.354   2.830  0.1823 -0.0695 -0.0007
    1W        W45855   4.807  15.486   1.894  0.2223  0.2176  0.3057
    1W        W45856  25.937  23.748   2.346  0.2934 -0.1065  0.2292
    1W        W45857   1.617  19.420   2.833  0.0508  0.4102  0.0834
    1W        W45858  25.567  16.408   0.093  0.1473  0.3105  0.1259
    1W        W45859  13.676   8.969   3.041  0.2383  0.1509  0.3284
    1W        W45860  17.783  15.093   4.024 -0.1012 -0.0258 -0.2611
    1W        W45861   3.726   2.223   2.208 -0.1027  0.1107 -0.2563
    1W        W45862  12.278  10.520   1.423 -0.2795 -0.0804  0.1680
    1W        W45863  19.649   2.659   2.160  0.0624 -0.2106 -0.3507
    1W        W45864  23.113  16.600   1.313  0.3105  0.2306  0.1687
    1W        W45865  26.408  25.611   7.994 -0.0248 -0.2345 -0.4568
    1W        W45866  18.768  14.809   9.671  0.3215 -0.0179 -0.1277
    1W        W45867   8.347  25.911   8.374 -0.2671  0.1639 -0.0217
    1W        W45868  17.362  15.028   7.840  0.3550  0.0775 -0.1081
    1W        W45869  14.288  22.160   9.109  0.0060 -0.2415 -0.0597
    1W        W45870  27.438  17.916   8.885  0.0162 -0.2742  0.1052
    1W        W45871  22.197  20.251   7.620  0.0282  0.2026  0.1677
    1W        W45872  27.226  24.143   0.265 -0.0738  0.0491  0.1830
    1W        W45873  19.299  24.304   8.376 -0.1730  0.0485 -0.0015
    1W        W45874  11.749  26.218   8.431 -0.0819 -0.1434 -0.0625
    1W        W45875   7.851  23.977   0.406 -0.0052 -0.1950 -0.1583
    1W        W45876   4.196  25.679   1.938 -0.1888 -0.2461 -0.1028
    1W        W45877   6.422  19.611   8.890  0.0588  0.0824  0.0956
    1W        W45878  19.602  18.720   1.532  0.0420  0.1404 -0.0018
    1W        W45879   2.110  12.822   1.501 -0.0006  0.1135 -0.1299
    1W        W45880  15.179   9.312   1.496 -0.0814  0.2061 -0.4710
    1W        W45881  13.037  25.570   2.621 -0.1000  0.2002  0.0910
    1W        W45882   0.297  25.476   9.212  0.1817  0.2297  0.1951
    1W        W45883   8.278  21.088   8.327 -0.0895  0.2033 -0.1086
    1W        W45884   2.992  14.563   9.175  0.1606 -0.4380 -0.4335
    1W        W45885  20.965   3.797   9.330 -0.0578  0.0621  0.0708
    1W        W45886  11.265   2.500   2.742 -0.0070 -0.0407 -0.0115
    1W        W45887  16.541   8.638   8.956 -0.2644 -0.0420 -0.1020
    1W        W45888  17.101  12.633   9.414 -0.0679  0.1452  0.1066
    1W        W45889  13.508  21.045   9.182  0.2323 -0.1759  0.2076
    1W        W45890  25.175  15.163  10.124  0.4559 -0.5133  0.1376
    1W        W45891  23.296  16.283   7.831 -0.1579  0.0909 -0.0916
    1W        W45892  22.203  18.897   8.772  0.2356 -0.1519 -0.1697
    1W        W45893  22.585   1.448   7.924  0.2679 -0.0094  0.1497
    1W        W45894  20.784  24.301   8.413  0.1656  0.1702 -0.1303
    1W        W45895   3.578  17.347   7.926  0.2054  0.1677 -0.1704
    1W        W45896   6.551  19.725   9.723  0.0728  0.4034  0.1860
    1W        W45897   4.676  15.704   2.416 -0.1196 -0.0987  0.2860
    1W        W45898  23.959  22.870   9.211  0.0034  0.0686  0.1522
    1W        W45899  16.322   0.507   2.581  0.2656 -0.2396  0.0047
    1W        W45900  27.159  13.964   9.948  0.0932 -0.0017  0.2631
    1W        W45901  25.138  25.486   1.427  0.1002 -0.1998 -0.2813
    1W        W45902   1.408  24.043   2.184 -0.1263  0.1380  0.1095
    1W        W45903  14.625   2.201   2.769  0.0094  0.0026 -0.1484
    1W        W45904   6.344   7.282   1.209  0.0249  0.0925 -0.0551
    1W        W45905  22.233   7.629   6.517  0.0908  0.1160 -0.0547
    1W        W45906  26.028   2.573   0.597 -0.2939 -0.1771 -0.2120
    1W        W45907  27.888  10.558   0.974  0.0592 -0.0860  0.0938
    1W        W45908  20.369  18.319   9.037  0.0396 -0.0916  0.4618
    1W        W45909  17.383  14.537   2.160 -0.0940 -0.2363 -0.0929
    1W        W45910  19.363  27.216   1.800 -0.1884  0.0014 -0.1341
    1W        W45911   3.657  14.710   0.059 -0.0405  0.0820 -0.1130
    1W        W45912  25.495  21.573   6.116 -0.1243  0.2365 -0.1806
    1W        W45913   2.573  16.100   1.421  0.1869  0.1058  0.1345
    1W        W45914  12.615  26.021   0.067  0.1733  0.1911 -0.4496
    1W        W45915  25.587  20.962   0.525  0.2505  0.1138 -0.2119
    1W        W45916  18.216   2.368   0.630 -0.1086 -0.0188  0.2043
    1W        W45917   3.790  15.681   9.438 -0.0764  0.1547  0.0425
    1W        W45918   3.208  26.197   9.229 -0.1228 -0.1595 -0.1260
    1W        W45919   0.859  13.758   8.767 -0.1024 -0.0758  0.1332
    1W        W45920   7.892  22.642   8.270  0.2256 -0.1260  0.0928
    1W        W45921  12.473  12.919   1.081  0.0440 -0.3708  0.1573
    1W        W45922  13.816  23.790   2.202 -0.3158 -0.1328 -0.2186
    1W        W45923   9.795  15.779   8.437  0.1585  0.2379 -0.0612
    1W        W45924  16.438  10.064   9.640 -0.2147 -0.0389  0.4856
    1W        W45925  21.073   3.223   8.524  0.0769 -0.2414 -0.1371
    1W        W45926  22.479  12.555   2.894 -0.3242  0.2667  0.1829
    1W        W45927  15.694  27.385   8.362 -0.6609 -0.0212 -0.0852
    1W        W45928  10.543   6.623  10.026 -0.2797  0.2065  0.1190
    1W        W45929   8.057  16.136   9.051 -0.1145  0.0052  0.1016
    1W        W45930  13.298  10.478   1.976  0.0687  0.0656 -0.0186
    1W        W45931  15.560   8.758   1.863  0.0970  0.3758  0.1695
    1W        W45932   1.894  26.558   7.341 -0.0947  0.0872  0.2647
    1W        W45933  11.673   1.568   8.766 -0.1738 -0.1171  0.1821
    1W        W45934   0.071  11.342   1.909 -0.2107  0.0642 -0.3064
    1W        W45935   2.429  24.369   0.321  0.1697 -0.2434  0.2317
    1W        W45936  24.791  19.999   6.710 -0.1614 -0.0286 -0.2947
    1W        W45937  21.915  22.854   9.464 -0.0378 -0.1570 -0.0557
    1W        W45938  12.155  12.326   1.879  0.0851 -0.0099 -0.0409
    1W        W45939  24.823  11.999   1.057 -0.0374  0.3387 -0.0732
    1W        W45940  12.847  15.660   9.460  0.2544 -0.1691 -0.0755
    1W        W45941   0.380  18.185   6.701 -0.0136 -0.1940 -0.1528
    1W        W45942   0.671  14.529  10.165  0.1246  0.0338 -0.1333
    1W        W45943  13.240  16.501   7.957  0.0495 -0.1625 -0.1792
    1W        W45944  12.234  27.626   7.794  0.1556 -0.2093 -0.1452
    1W        W45945  21.725  24.894   2.759  0.2296  0.0352 -0.0602
    1W        W45946  22.710  27.948   0.620  0.0214 -0.1557 -0.1937
    1W        W45947   5.723  21.336   1.835 -0.2783 -0.3237  0.3173
    1W        W45948   1.786   4.036   7.271  0.0231  0.0411  0.0964
    1W        W45949  13.475  17.332   2.542 -0.1854 -0.0055  0.1352
    1W        W45950  24.440   9.652   9.194 -0.0977  0.1349 -0.0071
    1W        W45951  27.139  18.330   3.094 -0.1689 -0.0179  0.3481
    1W        W45952  14.358   9.647   2.631 -0.0636  0.2447 -0.3521
    1W        W45953   5.569  11.961   9.112 -0.1278 -0.0481 -0.1491
    1W        W45954  12.998   7.374   1.564  0.1195 -0.0007 -0.3766
    1W        W45955   9.088   6.017   9.997 -0.1873 -0.2115 -0.0679
    1W        W45956  21.589  26.058   2.560 -0.0335  0.1411 -0.1260
    1W        W45957  24.087   1.932   0.980 -0.0272 -0.0264 -0.0281
    1W        W45958  27.036  22.455   7.766 -0.1063 -0.0421  0.1871
    1W        W45959   4.100   1.845   2.240 -0.1145 -0.0676 -0.0030
    1W        W45960  25.125  25.206   8.313  0.3319 -0.1068  0.1760
    1W        W45961  21.597   4.093   2.237 -0.3617 -0.0889  0.3290
    1W        W45962   9.838  26.454   2.546 -0.4181  0.1420  0.0968
    1W        W45963  26.475  23.552   0.104  0.0380 -0.0835  0.4182
    1W        W45964  21.002   9.902   8.857 -0.0824  0.3274 -0.0051
    1W        W45965   9.218  11.725   8.051 -0.1680 -0.1732  0.1026
    1W        W45966  16.250  23.742   8.769 -0.0771  0.2970 -0.2216
    1W        W45967   3.257  25.041   8.772 -0.0613 -0.2500 -0.1248
    1W        W45968   9.679  19.204   0.941  0.2226  0.0161 -0.1046
    1W        W45969  20.024   8.858   2.342  0.0716 -0.0560 -0.1571
    1W        W45970   7.957   8.445  10.209 -0.0675 -0.1500  0.2875
    1W        W45971  22.566   4.222   9.186 -0.1300 -0.2899 -0.2285
    1W        W45972   9.945   1.874   2.216 -0.1985 -0.0615  0.2917
    1W        W45973   8.328  23.788   7.601  0.2748 -0.2940 -0.1649
    1W        W45974  27.945  27.692   1.128 -0.1410  0.1984 -0.1158
    1W        W45975   9.045  14.163   1.434  0.1280 -0.1237  0.2992
    1W        W45976  18.166   7.513   7.595 -0.2461  0.1341  0.2422
    1W        W45977  22.172  26.574  10.154 -0.0972 -0.1914  0.0731
    1W        W45978  16.458   1.752   9.646 -0.0415  0.1486  0.1712
    1W        W45979  15.379  22.685   8.771  0.0744 -0.0891  0.0392
    1W        W45980  23.214  13.011   0.900 -0.1678 -0.2676  0.4815
    1W        W45981   2.528  19.091   2.342 -0.0222 -0.2464 -0.1948
    1W        W45982   8.763  23.354   2.585  0.0066  0.3145 -0.0250
    1W        W45983  16.685   6.248   8.305  0.2023 -0.1952  0.3248
    1W        W45984  17.226   9.289   3.063 -0.1032  0.0695  0.2542
    1W        W45985   2.775  13.222   9.696  0.0220  0.0792  0.1626
    1W        W45986  26.021  23.323   2.120 -0.1863  0.2811  0.1027
    1W        W45987   8.004  16.075   1.940  0.0758  0.0313 -0.1865
    1W        W45988  11.590  21.460   7.793  0.1475 -0.1242  0.0707
    1W        W45989   2.647   6.091   7.260 -0.0389  0.1128 -0.2093
    1W        W45990   4.898  15.206   1.490  0.3136  0.1281 -0.0206
    1W        W45991  22.353  18.270   1.969 -0.3393 -0.1980 -0.1089
    1W        W45992   1.126  15.105   0.595  0.0398 -0.0334 -0.0989
    1W        W45993  21.380   1.239   2.128 -0.0547 -0.3012 -0.2804
    1W        W45994  26.483  20.000   0.039 -0.1276  0.0111  0.0440
    1W        W45995  24.088  26.163   0.852 -0.0369 -0.0473 -0.0241
    1W        W45996  25.939  12.277   2.633 -0.1679 -0.0722  0.0758
    1W        W45997  14.161   2.257   2.593 -0.1392  0.0123  0.0376
    1W        W45998  21.326   5.570   9.820 -0.0646 -0.0577 -0.3459
    1W        W45999  24.827   7.897   8.266  0.1270  0.1855 -0.3080
    1W        W46000   8.197   8.423   8.067  0.0942 -0.2885  0.1121
    1W        W46001   0.995  13.856   2.011 -0.0877  0.1240  0.0140
    1W        W46002  15.902  17.348   4.151  0.0510  0.0117 -0.2099
    1W        W46003  20.990  15.802   1.169  0.2994  0.0543 -0.2092
    1W        W46004  26.432  15.230   2.062  0.1266 -0.0871 -0.3192
    1W        W46005   3.802   3.429   7.111 -0.3519 -0.0625  0.0871
    1W        W46006  17.399  27.704   1.450  0.1213 -0.1152  0.0520
    1W        W46007   2.468   0.787   6.312 -0.0350 -0.3378 -0.1630
    1W        W46008  23.085  16.974   3.737 -0.0585 -0.2864  0.2694
    1W        W46009  13.403  12.884   0.782  0.0798 -0.0041  0.1120
    1W        W46010   1.443  12.919   0.133 -0.0423  0.1222  0.2927
    1W        W46011  18.979  10.410   7.086 -0.2012 -0.1661  0.0729
    1W        W46012  12.137  11.017  10.101 -0.1994  0.0612  0.0857
    1W        W46013  18.371  23.147   9.168 -0.2078 -0.1029 -0.2623
    1W        W46014  24.292  22.638   2.843 -0.0721  0.0028 -0.0028
    1W        W46015  21.170   2.900   8.152  0.0796 -0.2057 -0.1134
    1W        W46016  20.451  14.192   1.590  0.2104  0.1930 -0.3451
    1W        W46017   8.950  24.780   0.635  0.2637  0.3563 -0.1139
    1W        W46018   9.134   5.531   8.084 -0.4557  0.3346  0.0302
    1W        W46019  21.913  11.030   1.795 -0.1510 -0.0964 -0.3692
    1W        W46020   6.877  13.080   3.165 -0.0544  0.1911 -0.0298
    1W        W46021  10.224  25.686   6.643 -0.0455 -0.3039 -0.1341
    1W        W46022   0.607  17.057   7.338 -0.1979  0.0735  0.1785
    1W        W46023  24.618  17.008   0.573  0.0972 -0.1867  0.1033
    1W        W46024  17.382  14.279   9.895 -0.2185  0.2365  0.1119
    1W        W46025   0.335   3.620   7.153  0.0949  0.2837  0.0216
    1W        W46026   7.390  18.011   1.275 -0.1020 -0.2843  0.3367
    1W        W46027   3.154   3.986   7.002 -0.1541  0.0149  0.0211
    1W        W46028   4.097  15.975   0.798 -0.0796 -0.0935  0.0262
    1W        W46029   3.793  10.525   6.937 -0.0553  0.0146 -0.0758
    1W        W46030   5.177   8.326   9.011  0.1645  0.1145 -0.2512
    1W        W46031  17.548  27.984   9.812 -0.0844 -0.0518 -0.0039
    1W        W46032   4.841   6.031   7.476  0.1841 -0.0222  0.0377
    1W        W46033  21.140  12.725   3.422  0.0578  0.1914  0.1019
    1W        W46034  20.489  12.333   0.376  0.0504  0.1050  0.2655
    1W        W46035  23.373  20.444   1.969 -0.0884 -0.0670 -0.1196
    1W        W46036  11.443  10.663   8.904  0.0113 -0.0620  0.3377
    1W        W46037   6.689  27.301   2.647  0.0871  0.0883  0.1324
    1W        W46038  15.109  26.594   8.164  0.1456 -0.0503 -0.0741
    1W        W46039  11.163  22.927   2.579 -0.0442  0.1876 -0.0790
    1W        W46040   1.689  27.453   2.320 -0.1864 -0.0531 -0.1216
    1W        W46041  10.893  13.425   3.740  0.1091  0.0160  0.1820
    1W        W46042   8.935  23.164   8.099 -0.1602  0.0806 -0.1710
    1W        W46043   3.886  14.624   9.974 -0.1521  0.0953  0.0137
    1W        W46044  19.243   7.038  10.158 -0.3808  0.1992 -0.0929
    1W        W46045  20.154  23.196   2.069 -0.2795  0.0987 -0.2647
    1W        W46046  21.346  19.557   1.344 -0.2671  0.0936 -0.0222
    1W        W46047   9.201  10.914   1.719 -0.2379 -0.3196  0.1542
    1W        W46048   5.338   2.043   1.413  0.0466  0.1065 -0.1402
    1W        W46049  16.902  12.850   7.364  0.1472  0.0550 -0.0376
    1W        W46050  26.374   3.029  10.183 -0.1516 -0.1548  0.1908
    1W        W46051  21.079   3.769   0.555  0.0871  0.0371  0.0149
    1W        W46052  24.053  11.655  10.194  0.0815 -0.1159 -0.3067
    1W        W46053  19.843   0.640   9.328 -0.1123  0.1712 -0.1372
    1W        W46054   6.270  17.915   8.338  0.2495  0.0264 -0.0481
    1W        W46055  15.806  19.337   7.255 -0.1330  0.1424 -0.0152
    1W        W46056  20.950  14.578   7.792 -0.4635 -0.2823  0.1376
    1W        W46057   8.383  26.175   8.829 -0.0437 -0.1114 -0.1969
    1W        W46058   9.576  17.255   1.383  0.2282  0.5814  0.0548
    1W        W46059  24.733  12.873   7.669  0.2676 -0.2702  0.1929
    1W        W46060   5.178  13.855   0.941 -0.2864  0.0271  0.1786
    1W        W46061   5.636   9.771   0.538 -0.0225  0.1987 -0.1250
    1W        W46062   4.921  14.627   7.259  0.1402  0.0773 -0.2271
    1W        W46063  11.873  19.094   8.538  0.0822 -0.3968 -0.0188
    1W        W46064  20.058   6.978   1.387  0.0263 -0.0469 -0.3178
    1W        W46065   3.127   9.541   1.370 -0.1295  0.4715 -0.2292
    1W        W46066  21.514   4.498   9.015  0.1834  0.0260 -0.1991
    1W        W46067  19.633   4.155   8.276 -0.0048 -0.1226  0.0489
    1W        W46068  20.089  15.608   1.997 -0.0478  0.1925 -0.1344
    1W        W46069   8.705  25.979  10.171  0.0858  0.2473  0.0698
    1W        W46070  10.990   6.317   1.214 -0.0091 -0.1754  0.0837
    1W        W46071  19.077  17.820   9.983  0.1039  0.0598 -0.1767
    1W        W46072  23.625   4.357  10.131 -0.0093 -0.1963  0.0386
    1W        W46073  15.172  26.535   0.343  0.2605 -0.1238  0.0646
    1W        W46074   9.003   0.932   1.261 -0.1483 -0.0282  0.2125
    1W        W46075  10.441  19.205   2.807 -0.1037  0.0527  0.0750
    1W        W46076  25.169   1.434  10.343  0.0833  0.0665 -0.1039
    1W        W46077  21.742   4.283   9.439 -0.0897  0.0189  0.1540
    1W        W46078  11.121  11.442   3.446 -0.1483  0.1263  0.1541
    1W        W46079   9.434   8.950   1.371 -0.2333  0.0509  0.1782
    1W        W46080   2.686  19.118   8.462 -0.1089 -0.0822 -0.1651
    1W        W46081  10.909   5.094  10.286  0.1325 -0.0208 -0.1105
    1W        W46082   3.546  24.762   8.403 -0.2759  0.0804 -0.1848
    1W        W46083  26.041  19.193   2.860 -0.0464  0.3354 -0.2557
    1W        W46084  21.692   8.625   7.617 -0.2955 -0.2566  0.1457
    1W        W46085  13.065  24.600   1.207  0.0651 -0.1468  0.2389
    1W        W46086   0.714  17.805   1.117  0.0903 -0.2423  0.3294
    1W        W46087  26.948   6.893  10.151 -0.0102  0.1901  0.0871
    1W        W46088   9.439   3.841   9.775  0.1453  0.1359 -0.0094
    1W        W46089  14.925   9.584   1.916 -0.1896  0.0649  0.3886
    1W        W46090   2.271   1.258   9.324  0.1768 -0.1524 -0.3612
    1W        W46091  25.818  21.008   8.450 -0.3378  0.3004 -0.0061
    1W        W46092  25.845  20.585   8.203  0.3429  0.1965  0.1225
    1W        W46093  13.755   1.039  10.116 -0.0074  0.3200  0.3214
    1W        W46094  19.836   1.456  10.225 -0.1275 -0.0710  0.0265
    1W        W46095   9.809   7.099   7.524  0.4844 -0.3144  0.0054
    1W        W46096  25.886   8.225   8.998 -0.0834  0.0728  0.0024
    1W        W46097  17.605  21.323   2.186 -0.3220  0.1332  0.0189
    1W        W46098   0.900   9.206   7.776  0.0492 -0.2190  0.2718
    1W        W46099   0.223  24.681   7.772  0.3114  0.3483  0.3105
    1W        W46100  17.473  20.809   2.087 -0.3432 -0.0293  0.0395
    1W        W46101  25.572  24.961   2.703 -0.1932 -0.2469 -0.0483
    1W        W46102  23.732   3.960   9.807 -0.2821  0.0616 -0.1417
    1W        W46103  20.792  26.521   1.562  0.2069 -0.2815 -0.1111
    1W        W46104  23.763  24.093   1.911 -0.0726 -0.1615 -0.1325
    1W        W46105  24.390  18.416   1.398 -0.1474  0.3250  0.0364
    1W        W46106   0.018   3.587   0.588  0.4140 -0.0745 -0.0082
    1W        W46107  19.958  27.695   1.929  0.1017  0.0006  0.1045
    1W        W46108  24.147   5.102   7.520  0.0344  0.1745  0.1245
    1W        W46109  15.950   2.271   9.891  0.0233 -0.0955  0.0654
    1W        W46110  10.740   3.248   7.715 -0.3515  0.1130  0.0251
    1W        W46111   9.894  17.766   2.684 -0.1639  0.1386  0.1531
    1W        W46112  22.486   9.436   9.876 -0.2067 -0.2556  0.1647
    1W        W46113   8.053  21.147   7.596 -0.0193 -0.1079 -0.1693
    1W        W46114  17.748  15.312   7.768 -0.0354 -0.1098 -0.0314
    1W        W46115   6.453   6.077   9.715 -0.1522 -0.2050 -0.3665
    1W        W46116   2.295  27.105   9.574 -0.0751 -0.1148 -0.1583
    1W        W46117   8.937  17.368   8.386 -0.2334 -0.1204  0.1007
    1W        W46118  13.422   6.871   0.906  0.0337  0.1652  0.2171
    1W        W46119   2.376  22.343   6.925 -0.1622  0.3557 -0.2366
    1W        W46120  24.494   4.048   1.603  0.0121 -0.4134  0.3041
    1W        W46121   5.970  24.469   2.587 -0.2154  0.0182 -0.0202
    1W        W46122   5.391  18.981   0.724 -0.1114  0.2927  0.1049
    1W        W46123   2.235   5.777   9.861  0.1404 -0.4902  0.1691
    1W        W46124   5.962  14.687   1.196 -0.0434  0.3087 -0.2475
    1W        W46125  20.874  20.241   3.111 -0.3166 -0.2603 -0.3316
    1W        W46126  14.068  21.335   7.053  0.2685 -0.2458 -0.1755
    1W        W46127   2.633  16.250   8.000 -0.1952  0.0011  0.2328
    1W        W46128   9.367  16.221   2.836  0.0358 -0.0470 -0.0456
    1W        W46129  27.834  19.607   6.055 -0.2219  0.1080 -0.2330
    1W        W46130  14.774   5.463  10.148  0.1343 -0.1507 -0.0458
    1W        W46131  10.038  12.349   0.239 -0.2435  0.2462 -0.0688
    1W        W46132  18.466  12.990   9.507  0.5125  0.1994  0.1577
    1W        W46133  25.491  27.444   1.494  0.2150 -0.1956  0.1186
    1W        W46134  25.356  13.416   8.491 -0.0855 -0.1845  0.0971
    1W        W46135   3.372  17.218   8.834 -0.0196 -0.0622 -0.0301
    1W        W46136  14.092  21.074   0.004 -0.1932  0.2250 -0.1639
    1W        W46137  26.256   8.584   1.424 -0.0958  0.1191 -0.2486
    1W        W46138   5.594  10.250   9.498 -0.1453 -0.0639 -0.0339
    1W        W46139  10.070   7.567   2.906 -0.1802  0.3374 -0.1545
    1W        W46140  15.276   5.993  10.202  0.2630 -0.2041  0.2189
    1W        W46141  13.676   7.326   8.033 -0.0189 -0.1761  0.0356
    1W        W46142   9.805  10.924   0.042  0.0041  0.3146  0.0698
    1W        W46143   3.372  11.220   9.579 -0.2720 -0.2233  0.2468
    1W        W46144  24.778  15.929   8.507  0.0328  0.1704 -0.2635
    1W        W46145  27.230  19.886   9.970  0.1584 -0.2897 -0.1860
    1W        W46146  12.765  26.304   0.528  0.0904 -0.1794  0.1568
    1W        W46147   6.507  16.569   9.641  0.2166 -0.0066  0.1879
    1W        W46148  21.663   3.930   8.218 -0.0797 -0.1925 -0.0122
    1W        W46149  14.177  17.700   1.874 -0.0485 -0.2724 -0.1345
    1W        W46150   4.217   1.645   6.828  0.0610 -0.0423  0.1424
    1W        W46151  21.025  23.679   2.523 -0.1025  0.0008 -0.0056
    1W        W46152   1.217  19.710   8.900  0.0654  0.0909 -0.1333
    1W        W46153   4.762   2.488   9.171  0.0075 -0.0400  0.2155
    1W        W46154  24.904  13.434   8.289 -0.0214 -0.1639 -0.1596
    1W        W46155   1.998   2.490   6.644 -0.0074 -0.0318  0.0174
    1W        W46156  21.001  22.397   7.787 -0.2085 -0.1418 -0.0464
    1W        W46157  20.978   3.279   0.288  0.1214  0.1388  0.0781
    1W        W46158  26.871  23.482  10.098 -0.0870  0.1273 -0.1005
    1W        W46159  18.462  24.797   2.228  0.1661 -0.0545 -0.0022
    1W        W46160  17.046  22.515   8.798  0.2022  0.1752  0.3297
    1W        W46161  20.688  27.244   6.792  0.2222 -0.0211  0.2723
    1W        W46162  26.022  17.793   8.296  0.1355  0.0326  0.1547
    1W        W46163   0.814  15.469   6.901 -0.0695  0.2457  0.1348
    1W        W46164   5.139  13.407   8.305  0.1192  0.0926 -0.0945
    1W        W46165   1.530  24.344   0.997  0.0649 -0.2369 -0.2857
    1W        W46166  23.740  15.092   7.693 -0.2229  0.0290  0.2220
    1W        W46167  20.030  25.745   9.196 -0.4504 -0.5772  0.0075
    1W        W46168  25.053   4.710   1.383  0.0415  0.1394 -0.1546
    1W        W46169  12.778   9.679   8.471  0.0040 -0.2088  0.0748
    1W        W46170  19.349  28.124   3.679 -0.2530 -0.4141 -0.1577
    1W        W46171  16.055  27.802   1.152  0.1249  0.1531  0.0121
    1W        W46172  16.963  25.491  10.311 -0.3136 -0.1111 -0.1049
    1W        W46173  27.906  13.807   8.568  0.0032  0.1263 -0.1262
    1W        W46174  11.582   6.008   2.839 -0.1078  0.0682 -0.3200
    1W        W46175   3.927   4.587   8.444  0.1959 -0.2256 -0.3139
    1W        W46176   3.515  26.181  10.260 -0.0719  0.1289 -0.0499
    1W        W46177  24.774   5.269   0.553  0.1177  0.1643 -0.3734
    1W        W46178  16.064   7.310   0.551 -0.1763  0.0368  0.1029
    1W        W46179  22.311   2.761   2.107 -0.2424  0.2825  0.2773
    1W        W46180   7.971   9.977   8.306  0.4499  0.1096  0.2573
    1W        W46181  20.648  15.069   2.437 -0.1481  0.0403 -0.0659
    1W        W46182  17.034   5.891   0.281  0.0929  0.1289 -0.1630
    1W        W46183  18.452  19.644   4.026  0.0706 -0.2432  0.4123
    1W        W46184  18.567  10.605   9.589 -0.0224 -0.1795  0.1909
    1W        W46185   6.792   8.779   3.084  0.0747  0.0039 -0.2003
    1W        W46186   7.159  28.095   1.705 -0.3548  0.0446 -0.0911
    1W        W46187  20.367   6.422   7.645  0.1737 -0.0376 -0.0203
    1W        W46188  26.180   1.622   9.888 -0.0421 -0.1544  0.1707
    1W        W46189   3.304   5.954   7.813 -0.0749 -0.3514  0.2865
    1W        W46190  22.407   4.758   9.754  0.0308 -0.2707  0.0922
    1W        W46191  19.305  10.315   8.176  0.2927 -0.1109 -0.5145
    1W        W46192  10.985  22.523   1.304 -0.3597  0.0118  0.4158
    1W        W46193  15.816  10.377   3.122  0.1078 -0.0754  0.0755
    1W        W46194   2.177  23.606   7.563  0.1627 -0.0356  0.1592
    1W        W46195  25.397  14.096   0.817  0.0452  0.0074  0.1124
    1W        W46196   9.088   0.772   6.532  0.2840 -0.0310 -0.0272
    1W        W46197  13.076  20.823   0.780 -0.1142 -0.2612 -0.0409
    1W        W46198  15.445   6.454   1.180 -0.0307 -0.0514  0.0305
    1W        W46199  11.474   7.301   3.303 -0.1519  0.1161 -0.3266
    1W        W46200  27.736   2.270   7.177  0.0068  0.0622  0.2206
    1W        W46201   3.015   4.431  10.022  0.1390 -0.3525 -0.1007
    1W        W46202   7.766  27.574   1.155 -0.1214  0.1845 -0.3672
    1W        W46203   0.503   1.525   9.602 -0.2940  0.1301  0.4284
    1W        W46204  13.811  24.052   1.353 -0.0324 -0.0659 -0.0085
    1W        W46205   3.131   3.770   0.554  0.1147  0.1271  0.2254
    1W        W46206  16.582  27.555   4.223 -0.0686 -0.1877  0.1232
    1W        W46207  17.753   8.393   3.170  0.1549  0.2032  0.1829
    1W        W46208  10.421   5.763   0.776  0.2632  0.4393 -0.2086
    1W        W46209   3.276  11.047   7.593  0.1085  0.2716  0.1934
    1W        W46210   4.044  14.123   1.405 -0.3784  0.0540  0.3165
    1W        W46211   2.025  21.450   8.013 -0.0023 -0.0250  0.2244
    1W        W46212   0.489  12.877   0.252 -0.0368  0.1211  0.3072
    1W        W46213  24.645  19.814   6.277 -0.4010 -0.0224  0.0748
    1W        W46214  27.635   0.712   6.971 -0.2002 -0.3501 -0.0078
    1W        W46215   3.773  15.410   2.739 -0.1021  0.0337  0.0562
    1W        W46216  10.205   7.061  10.226  0.0229 -0.2092  0.0006
    1W        W46217  12.977   5.073  10.159  0.4586  0.1261 -0.3954
    1W        W46218  13.164  12.952   9.115 -0.3057 -0.0278 -0.1088
    1W        W46219  18.457  18.456   2.731 -0.4040 -0.2826  0.1563
    1W        W46220  27.809  26.163   7.715 -0.1782  0.1378  0.1913
    1W        W46221  21.437  20.991   2.102  0.2309  0.0761 -0.2131
    1W        W46222  12.165  14.237   4.385 -0.0064 -0.1729  0.1168
    1W        W46223  10.061  23.881   0.353 -0.0071 -0.2280 -0.5785
    1W        W46224   5.044   2.329   8.381  0.2067  0.1234  0.2575
    1W        W46225   2.155  17.886   2.319  0.1637 -0.0721  0.0095
    1W        W46226   5.020   1.587   7.219 -0.0910  0.0861 -0.1163
    1W        W46227   5.940  13.627   2.822  0.0323  0.0339  0.0981
    1W        W46228  22.734  18.190   0.506  0.2809  0.3012 -0.1941
    1W        W46229   4.562  25.245   8.014  0.2262 -0.0313  0.4281
    1W        W46230   2.806  19.614   2.965 -0.4505 -0.1021  0.1645
    1W        W46231   5.179   3.048   1.047  0.1512 -0.0017  0.3810
    1W        W46232  20.306  19.940   2.478 -0.1747 -0.1260 -0.0726
    1W        W46233  16.472  24.882   2.665 -0.2278 -0.0419 -0.2283
    1W        W46234  15.348   7.486   3.635  0.1688 -0.2248 -0.1889
    1W        W46235  22.421  16.747   7.856 -0.0582  0.2355 -0.1467
    1W        W46236  27.201  18.111   1.477 -0.1583  0.1604 -0.0855
    1W        W46237  22.032  26.276   2.298  0.0438  0.2777 -0.1800
    1W        W46238   9.897  10.581   7.898  0.0719  0.1472 -0.0184
    1W        W46239   3.031  27.494   0.911 -0.0306  0.0145 -0.0723
    1W        W46240  18.807   2.610  10.223 -0.2262 -0.1469 -0.3646
    1W        W46241  18.365  26.520   0.463  0.1811 -0.0151  0.1521
    1W        W46242   1.850  10.507  10.202  0.2084 -0.0014  0.1011
    1W        W46243  17.795  10.326   7.725 -0.0238 -0.0262 -0.3895
    1W        W46244  10.149  18.692   2.132  0.2291 -0.3895 -0.0141
    1W        W46245   6.637  20.630   0.334 -0.1092  0.3245 -0.6204
    1W        W46246  12.506  27.462   1.303 -0.0439  0.1852  0.3010
    1W        W46247  22.797  13.599   8.027 -0.1827 -0.0586 -0.2498
    1W        W46248   8.790  22.527   0.021  0.2828  0.3340  0.1255
    1W        W46249  13.857   3.348   8.172  0.4159 -0.2477 -0.1364
    1W        W46250  24.710   7.775   0.778  0.2631  0.3215 -0.1518
    1W        W46251  25.899   3.938   3.078 -0.1047  0.0745 -0.0355
    1W        W46252  19.205  12.494   2.082  0.0489 -0.1727 -0.0126
    1W        W46253  28.009  10.039   1.735  0.0482  0.2335  0.3884
    1W        W46254   6.273  25.213   9.986 -0.1883 -0.0103 -0.1718
    1W        W46255  28.034  17.484  10.352  0.2229 -0.0751 -0.1994
    1W        W46256   0.046  12.105   7.095 -0.0752  0.0946 -0.1631
    1W        W46257   0.685   0.293   9.582 -0.1594 -0.2027  0.0249
    1W        W46258   6.982   5.983   0.603  0.1525 -0.2133 -0.0455
    1W        W46259  13.868  24.969  10.126  0.1606 -0.0793  0.1294
    1W        W46260  25.611  21.293   3.087  0.1627  0.1873 -0.2973
    1W        W46261  15.315  22.125   1.735 -0.1628 -0.0045 -0.1146
    1W        W46262  26.425  19.833   7.821  0.0038  0.1653 -0.0444
    1W        W46263   0.980  15.963   0.823  0.0505 -0.1567  0.3918
    1W        W46264   7.840  11.581   8.147  0.0876  0.2282 -0.0431
    1W        W46265   5.907   2.455   0.119 -0.0019 -0.1936  0.0475
    1W        W46266   7.186   2.127   9.080  0.0404 -0.0146 -0.1933
    1W        W46267  10.465  24.040   2.244  0.0118  0.2595  0.0885
    1W        W46268   9.604  22.569   0.326 -0.1083  0.0948 -0.0739
    1W        W46269  12.397  22.139   7.014  0.0060  0.1892 -0.1010
    1W        W46270  19.381  24.869   8.328 -0.3035 -0.1985  0.1651
    1W        W46271  11.859  10.397   0.082 -0.4186 -0.4743  0.4886
    1W        W46272   5.199   9.168   7.994  0.0155  0.3646 -0.2938
    1W        W46273  11.844  12.344   0.515 -0.3726  0.0732  0.0197
    1W        W46274   3.579  12.632   2.579 -0.0041  0.1656 -0.0752
    1W        W46275  16.829  25.177   2.838  0.0905 -0.0177  0.0328
    1W        W46276  25.555  13.803   8.770 -0.2154  0.0256 -0.3849
    1W        W46277   2.316  14.571  10.045  0.0328  0.2043  0.0049
    1W        W46278  14.265   8.284   0.748  0.0344  0.0333 -0.0610
    1W        W46279   4.468  27.967   9.722 -0.1691  0.0956  0.0416
    1W        W46280  21.236  23.647   2.981 -0.1030 -0.0036 -0.3598
    1W        W46281  23.692   9.444   8.217 -0.3271  0.1855  0.3264
    1W        W46282  11.422   6.555   0.419 -0.0861  0.1808 -0.0157
    1W        W46283  17.818  15.237   0.066  0.0343  0.0466  0.0591
    1W        W46284  17.514  16.415  10.341 -0.0945  0.0782 -0.1678
    1W        W46285  12.294  25.356   7.202 -0.2590 -0.1085  0.1276
    1W        W46286  17.499   6.737   2.287 -0.2164 -0.0845 -0.4625
    1W        W46287  19.692   3.189   0.405 -0.2333 -0.0643 -0.1765
    1W        W46288  17.825  12.239   1.800  0.1279 -0.0272  0.0024
    1W        W46289   3.338  21.894   0.419  0.1990  0.1288 -0.0086
    1W        W46290   6.426  12.925   0.521 -0.0582  0.0532  0.1377
    1W        W46291   7.167  18.295   0.932  0.1643  0.2797  0.1835
    1W        W46292  18.886  12.451   2.544  0.5610  0.1239  0.0619
    1W        W46293  27.271   1.083   9.189 -0.2101 -0.0819 -0.2086
    1W        W46294  16.362  14.236   8.586  0.0611  0.0774  0.0303
    1W        W46295   0.799  12.507   7.375 -0.0177  0.2980 -0.1678
    1W        W46296  17.573  17.191   1.686 -0.1036  0.0777  0.3444
    1W        W46297   5.942   6.576   2.464 -0.0736 -0.0728  0.1276
    1W        W46298  27.245   2.877   9.179  0.0843 -0.2094  0.0047
    1W        W46299   1.265  23.374   8.468 -0.2617 -0.3453 -0.4131
    1W        W46300  13.882  13.761   1.085 -0.2852  0.2400  0.2239
    1W        W46301  21.472  27.616   2.873  0.2798  0.0067  0.1325
    1W        W46302  13.422   0.534   7.964  0.0890  0.1770  0.0659
    1W        W46303  19.973  14.367   9.296  0.1806 -0.1598 -0.0086
    1W        W46304  10.625  21.107  10.183 -0.0358 -0.1717  0.0552
    1W        W46305  15.524   4.979   8.581 -0.0488  0.1993 -0.3322
    1W        W46306   8.864  15.015   1.490  0.1447 -0.1973  0.1082
    1W        W46307  13.161  10.868   7.916  0.2471 -0.0384  0.2467
    1W        W46308   1.975   5.586   8.019  0.0852 -0.0879 -0.3694
    1W        W46309  26.224  27.713   1.811  0.1262  0.2388  0.0388
    1W        W46310  16.842  13.064   8.779  0.0391  0.0597 -0.0901
    1W        W46311  10.375   9.953   3.177  0.1306  0.0220 -0.2319
    1W        W46312  18.380  24.890   1.152  0.0391  0.2653 -0.0977
    1W        W46313   6.820  17.772   8.077  0.1884 -0.0187 -0.0243
    1W        W46314  18.623   8.921   1.616  0.0766 -0.2180  0.0755
    1W        W46315   4.007  21.662   9.232  0.1533 -0.1787  0.0811
    1W        W46316  19.639  22.648   0.756 -0.0985 -0.1751 -0.0723
    1W        W46317  18.132   8.103  10.112 -0.2540  0.1160  0.2767
    1W        W46318  26.446   9.147   6.400 -0.1549  0.1330  0.0968
    1W        W46319  10.319  27.841   8.790  0.2173 -0.1423 -0.0748
    1W        W46320  14.950   0.186   3.084  0.1123 -0.1672 -0.2477
    1W        W46321  10.748   8.931   2.166  0.0422  0.3575 -0.2195
    1W        W46322  16.723   4.613   7.783  0.2212  0.1339  0.2350
    1W        W46323  18.553   8.774   3.519 -0.0614  0.0151  0.0739
    1W        W46324  19.860   9.508   8.582 -0.2987  0.1203 -0.0861
    1W        W46325  28.046   0.925   7.790 -0.0815  0.1051  0.0333
    1W        W46326   0.306   0.571   8.093  0.0604  0.0300 -0.3550
    1W        W46327  12.597   4.436   8.443 -0.1647  0.2746 -0.1894
    1W        W46328   8.040  26.236   7.196  0.0185 -0.0802  0.0712
    1W        W46329   7.023  17.040   1.809 -0.3124  0.0686  0.2103
    1W        W46330   9.261  16.599   2.115 -0.0560  0.2402 -0.1583
    1W        W46331  10.598   1.888   8.183  0.2312 -0.0000  0.1144
    1W        W46332   2.427  19.999   2.233 -0.1798  0.1042  0.2204
    1W        W46333  14.520   1.699   9.015 -0.1015  0.0680  0.0859
    1W        W46334   3.667   5.184   1.310  0.0318 -0.2096  0.0826
    1W        W46335   9.744  24.851   8.660  0.0388 -0.0901  0.1505
    1W        W46336  21.873  17.761   7.972 -0.0568 -0.2457  0.3407
    1W        W46337   3.715  26.383   7.510 -0.2407  0.0207  0.3464
    1W        W46338  18.913  19.043   0.267  0.0253 -0.1919  0.1205
    1W        W46339  20.220   6.063   8.431 -0.1383  0.0347 -0.1944
    1W        W46340   4.783  13.449   2.060  0.1480  0.4727  0.0474
    1W        W46341   6.910  15.952   0.530  0.4592 -0.1997  0.1240
    1W        W46342  28.040  25.188   7.973 -0.1573  0.1998 -0.0946
    1W        W46343  21.928  22.944   2.733 -0.2585  0.0037 -0.0577
    1W        W46344   3.212  26.951   9.217 -0.0178  0.1244  0.2522
    1W        W46345   5.990   4.178   7.764 -0.0587  0.1164  0.0821
    1W        W46346  27.068  19.529   1.208  0.4155 -0.0026 -0.0287
    1W        W46347  11.398  16.289   9.273 -0.1539 -0.0457 -0.0264
    1W        W46348  13.064  20.225   7.499  0.0100 -0.1288  0.1583
    1W        W46349  24.669  24.802   2.983  0.1203 -0.0469 -0.0562
    1W        W46350  16.910  18.716   0.823 -0.1888 -0.0758 -0.0059
    1W        W46351   1.390  11.525   0.505 -0.0021  0.7197 -0.2873
    1W        W46352  23.071   8.990   7.951  0.0744 -0.0494 -0.0891
    1W        W46353   6.653   6.697   7.853  0.1154  0.0818 -0.1325
    1W        W46354  26.321  12.346   0.450  0.0936  0.2561 -0.0621
    1W        W46355  21.518  19.251   2.327  0.1661  0.2755 -0.0455
    1W        W46356  24.446  24.362   8.569  0.2961  0.1972 -0.0692
    1W        W46357  11.206   8.688   2.014  0.2093 -0.2451 -0.0002
    1W        W46358   1.602  14.502   8.166  0.2684  0.3413 -0.0945
    1W        W46359  20.955  19.261   1.614 -0.3329  0.1780 -0.1017
    1W        W46360   7.070   8.361   9.898  0.3015  0.3366  0.2355
    1W        W46361  12.019  16.671   3.199 -0.0026  0.1520  0.1843
    1W        W46362  18.548  20.522   1.279 -0.0450 -0.1042 -0.0479
    1W        W46363  15.504  19.145   2.926 -0.0270 -0.2608 -0.1336
    1W        W46364   9.746  26.561   1.032  0.2231 -0.0079  0.1820
    1W        W46365  13.996   1.838   0.606  0.2593 -0.0392  0.1752
    1W        W46366  23.079   5.512   9.297 -0.1430 -0.1196 -0.0570
    1W        W46367   9.878   5.015   2.561  0.0203  0.0511 -0.0983
    1W        W46368  14.307   2.361   8.608 -0.0104  0.1150  0.0510
    1W        W46369   9.263  27.597   1.663  0.1939  0.2162 -0.0277
    1W        W46370  26.460  21.202   1.938 -0.2132  0.0125 -0.0568
    1W        W46371   7.412  24.654   7.622  0.0560 -0.3848  0.0840
    1W        W46372  16.751  22.442   8.315  0.2741 -0.2470 -0.1463
    1W        W46373  27.793  22.212   0.471 -0.2541  0.1436  0.4627
    1W        W46374  26.550   6.871   1.058  0.3199 -0.1596 -0.1971
    1W        W46375  13.685  17.198   3.046  0.3200 -0.1617  0.3876
    1W        W46376  20.805  17.534   1.092 -0.1847 -0.1640 -0.0521
    1W        W46377  15.536  23.106   9.282 -0.3484 -0.2611  0.3188
    1W        W46378   7.627   2.003   8.600  0.1394 -0.0587 -0.3219
    1W        W46379  13.014   3.647   1.931  0.2411  0.2857 -0.3013
    1W        W46380   1.590  25.872   1.785 -0.0112  0.1381  0.0040
    1W        W46381  13.597   4.546  10.190  0.0109 -0.0887 -0.2808
    1W        W46382  10.543  21.228   0.297  0.2515  0.1056  0.0778
    1W        W46383   5.090  18.576   0.464  0.0158  0.2134  0.0389
    1W        W46384  19.160  12.601   7.877  0.2007  0.3189 -0.1256
    1W        W46385  26.966   3.831   1.382 -0.1100 -0.0408  0.0974
    1W        W46386   1.771   8.262   8.755 -0.1749  0.0386  0.1680
    1W        W46387  13.073  15.045   9.065 -0.0231  0.0251 -0.0846
    1W        W46388   3.204  23.387   0.022  0.1993  0.1886 -0.0186
    1W        W46389  22.287   8.610   9.566 -0.0444  0.1256 -0.4277
    1W        W46390  17.394  15.702   1.380  0.0036  0.0268  0.3574
    1W        W46391  18.527  15.837   2.054 -0.2477  0.1245  0.0157
    1W        W46392   0.052  14.554   6.987 -0.0867  0.3547  0.2442
    1W        W46393   0.380   8.713   2.358 -0.1485 -0.0598 -0.1611
    1W        W46394  27.121  27.335   8.106 -0.2939 -0.0039 -0.0179
    1W        W46395  10.107  14.059   9.740 -0.1659 -0.1384 -0.1761
    1W        W46396  24.605   1.749   0.270 -0.0090  0.3184  0.0600
    1W        W46397  26.443  20.034   0.553  0.1268 -0.1631  0.1718
    1W        W46398   3.558  20.891   3.223 -0.0373 -0.2119 -0.1041
    1W        W46399  20.918  15.494   1.639 -0.0022 -0.0608 -0.3885
    1W        W46400   2.469  19.395   0.731 -0.2700 -0.0912 -0.1142
    1W        W46401   3.717  20.842   0.335 -0.2140 -0.5241 -0.2121
    1W        W46402   2.827   7.023   6.982  0.1061 -0.2997  0.3324
    1W        W46403  27.279  12.213   2.276 -0.3572 -0.1773 -0.0569
    1W        W46404  20.212  10.053   7.622  0.0008  0.1579  0.2130
    1W        W46405  17.059  12.086   3.701 -0.3189  0.2411  0.3644
    1W        W46406  13.378  12.209   3.232  0.0253  0.2103 -0.4859
    1W        W46407   6.305  26.863   0.996  0.3962  0.2614 -0.0441
    1W        W46408  10.926   8.654   1.550 -0.0312  0.1745 -0.0119
    1W        W46409   2.574  20.261   1.802 -0.2176 -0.0801 -0.2162
    1W        W46410  11.733  18.227   8.206 -0.0316 -0.2331  0.1521
    1W        W46411   8.729  23.687   3.070  0.1830 -0.2645  0.2298
    1W        W46412   6.298   0.253   1.950  0.0073  0.2385  0.2493
    1W        W46413  20.110  10.831  10.317 -0.2244 -0.1883 -0.2762
    1W        W46414  18.369  23.060   2.543 -0.0287 -0.0793 -0.2072
    1W        W46415  14.885  24.680   7.853  0.3203  0.0018 -0.1832
    1W        W46416  18.966  27.290   0.413  0.1918  0.2171  0.4561
    1W        W46417   8.689  27.250   1.459  0.0645  0.0094 -0.0272
    1W        W46418  16.313   2.744   4.172 -0.2590  0.1178  0.1151
    1W        W46419   1.511   6.425   1.064 -0.2567 -0.2043  0.0918
    1W        W46420  17.292  14.158   7.567 -0.0830 -0.1153  0.2202
    1W        W46421  14.302  16.419   2.816 -0.1816  0.1711  0.2766
    1W        W46422  21.934   7.091   8.420 -0.0152  0.3321 -0.2960
    1W        W46423   4.508  27.743   8.665 -0.1015 -0.0006 -0.0549
    1W        W46424  20.565  10.124   1.815  0.0092  0.1374  0.0552
    1W        W46425  16.234  21.611   6.741 -0.2589  0.0391 -0.1753
    1W        W46426  12.408  20.030   0.526  0.3774  0.1863 -0.0772
    1W        W46427   3.202   9.455   8.535 -0.2048 -0.0868  0.2554
    1W        W46428  27.017  18.843   9.825  0.3741 -0.3785  0.2862
    1W        W46429  21.925  26.667   1.980 -0.2550  0.3141  0.0405
    1W        W46430   6.507   2.992   9.823 -0.2122  0.3351 -0.1561
    1W        W46431  14.382  25.111  10.122 -0.0155 -0.3151 -0.0205
    1W        W46432  14.204   4.268   1.143  0.0144 -0.1155 -0.1108
    1W        W46433   7.644  17.330   2.329 -0.0947  0.0899 -0.1187
    1W        W46434  22.647  10.604   0.175  0.1744  0.3215  0.0640
    1W        W46435  28.076   0.967  10.150  0.1109 -0.1048  0.0996
    1W        W46436   3.911  11.513   9.609  0.0313  0.2624  0.2011
    1W        W46437   0.877  27.211   7.475  0.0555  0.2706  0.1006
    1W        W46438   5.047  25.534   1.409  0.0401  0.3215 -0.1681
    1W        W46439   0.077   7.435   7.709 -0.1228 -0.0884  0.1401
    1W        W46440  20.560  14.324   9.471  0.1528  0.0739 -0.2753
    1W        W46441  14.798  27.652   2.498 -0.0551 -0.0086  0.2248
    1W        W46442  19.099  19.017   2.369 -0.2615  0.3998 -0.1802
    1W        W46443  24.399   0.045   7.461  0.1157  0.0351 -0.2303
    1W        W46444   6.447   0.796   7.482 -0.1200  0.1331 -0.0654
    1W        W46445  15.863  15.128   3.618 -0.0777  0.1454  0.1654
    1W        W46446  14.654   8.274   8.022 -0.1894 -0.2073  0.0313
    1W        W46447   2.132  17.095   0.870 -0.3378  0.0319  0.1053
    1W        W46448   4.349  12.708   2.361 -0.3048  0.0890 -0.1756
    1W        W46449  27.339  13.271   9.142  0.2549  0.0109  0.1443
    1W        W46450  26.427  10.584   9.799 -0.1537  0.0245  0.3860
    1W        W46451   7.998   3.307   7.578 -0.0030 -0.0361  0.2581
    1W        W46452  25.728  15.780   1.450 -0.2419 -0.0108 -0.2620
    1W        W46453   9.449  27.846   3.354  0.2529  0.0342  0.0737
    1W        W46454  24.590  19.872   2.449 -0.0160 -0.7164  0.2357
    1W        W46455  18.690  18.919   8.733  0.0953 -0.1132  0.1093
    1W        W46456  27.613   2.047   1.635  0.0560  0.0326 -0.0077
    1W        W46457   0.691  13.482   3.201 -0.0282 -0.1612 -0.0517
    1W        W46458   2.151   3.745   1.077 -0.0239 -0.2862 -0.0011
    1W        W46459  27.698  14.824   0.333  0.1486 -0.0573  0.3616
    1W        W46460  27.335  25.875   8.119  0.0420  0.2155 -0.2364
    1W        W46461   3.661  28.053  10.160  0.1686 -0.1538  0.2398
    1W        W46462  11.305  18.549   7.892  0.2594  0.1576  0.0111
    1W        W46463  12.204  24.597   8.427  0.0396  0.1730 -0.1032
    1W        W46464   2.795   2.654   1.570  0.2471  0.0739 -0.1176
    1W        W46465  25.753   7.405   1.032 -0.2080 -0.2678 -0.1116
    1W        W46466  14.243  21.286   0.420 -0.0408 -0.0460  0.0219
    1W        W46467   8.806  22.504   9.811 -0.2362 -0.0959 -0.2132
    1W        W46468   5.768  19.208   0.875 -0.1363  0.2555 -0.2347
    1W        W46469  15.032  27.865   2.867  0.0574 -0.1556 -0.0652
    1W        W46470  14.975  16.854  10.261 -0.1669 -0.0239  0.0130
    1W        W46471  19.812  27.846   7.199 -0.1656 -0.1332 -0.2776
    1W        W46472  25.480  16.855  10.245 -0.2696 -0.1245  0.1752
    1W        W46473  25.681  20.952   1.763  0.0105 -0.0951  0.0099
    1W        W46474   1.717  27.011   8.947  0.0655  0.1531  0.0955
    1W        W46475  13.332   5.002   2.834  0.2529 -0.1665 -0.0178
    1W        W46476  21.059  27.798   2.193  0.0027  0.0315 -0.3079
    1W        W46477  16.122  10.582   2.566  0.1281 -0.1916 -0.1359
    1W        W46478  20.265   3.838   8.173 -0.2459 -0.0044  0.0528
    1W        W46479  14.648   8.923   2.163  0.2715  0.1897  0.0387
    1W        W46480  24.146  14.151   2.451  0.0106  0.3320  0.0355
    1W        W46481  25.771  20.505   0.544  0.1709 -0.1676 -0.1565
    1W        W46482  23.260  21.360   2.457  0.0260 -0.0980  0.1190
    1W        W46483  25.132  10.981   9.370 -0.0597  0.0111  0.0188
    1W        W46484  12.226  20.471   9.159 -0.0524 -0.1432  0.4421
    1W        W46485   2.592  12.460   3.416  0.0144 -0.0436  0.0666
    1W        W46486   7.872   3.996   2.590 -0.1641 -0.0275 -0.3193
    1W        W46487   7.828   2.362   2.619  0.0472  0.4512 -0.3168
    1W        W46488  27.689   3.360   1.840  0.1040  0.1470  0.1296
    1W        W46489  23.152  27.653   2.717  0.4281  0.1892  0.2075
    1W        W46490  17.371   5.388   8.497 -0.1276 -0.1358 -0.1400
    1W        W46491   0.572  24.436   8.971 -0.0448 -0.1507 -0.2261
    1W        W46492  19.520   8.106   7.786 -0.0684  0.1066  0.2595
    1W        W46493  19.224   6.442   7.558  0.0032  0.3182  0.1713
    1W        W46494   2.523  11.269   6.932  0.0626 -0.1391 -0.1700
    1W        W46495  24.012  18.769  10.350  0.0585  0.0219  0.1926
    1W        W46496   1.344   8.714   8.283  0.0467  0.2118  0.1621
    1W        W46497  10.189   7.724   8.857  0.0001 -0.3017 -0.0330
    1W        W46498  12.086   7.772   0.253  0.1157 -0.0480  0.1865
    1W        W46499  20.815  12.571   0.701  0.0935 -0.4220  0.0511
    1W        W46500  19.742  13.111   1.955 -0.0799 -0.1429  0.2705
    1W        W46501  23.985  11.687   8.594 -0.1589 -0.1701  0.3088
    1W        W46502  19.993  12.441   2.584  0.2622 -0.1320  0.2332
    1W        W46503   8.153   7.450   9.302 -0.2297 -0.0164 -0.2178
    1W        W46504  17.674   4.451   8.028  0.2127 -0.0568 -0.3050
    1W        W46505  22.755   1.120   2.472 -0.1707 -0.2302  0.1070
    1W        W46506  10.098  25.180   9.842 -0.1026 -0.0353  0.1292
    1W        W46507  12.431  13.184   8.056  0.1741  0.1969  0.2398
    1W        W46508   2.373  20.703   2.014 -0.2186  0.0242  0.2852
    1W        W46509  17.812   2.737   0.788 -0.1003 -0.2457 -0.3913
    1W        W46510   2.345   6.110  10.312 -0.0319 -0.1904  0.1436
    1W        W46511   6.417  12.930   8.037 -0.0068  0.0828  0.2100
    1W        W46512  25.173  26.099   7.507  0.0633  0.1407 -0.1566
    1W        W46513   8.677  21.040   3.057 -0.2591  0.0854 -0.0416
    1W        W46514  27.918  12.214   9.480 -0.0452  0.0452  0.1404
    1W        W46515  27.924   8.215   0.189  0.0364 -0.1604 -0.2047
    1W        W46516  15.967  15.251   7.731  0.0077  0.1263 -0.2013
    1W        W46517  24.032   8.507   9.452 -0.0799  0.1609  0.0810
    1W        W46518  22.430   8.082   1.354 -0.0932  0.0776  0.1580
    1W        W46519   8.062  17.637   2.378 -0.1993  0.1784  0.2235
    1W        W46520   8.901   7.417   0.069  0.1851 -0.2381 -0.0228
    1W        W46521  12.637  15.257   2.766  0.1933  0.2068 -0.1650
    1W        W46522   7.305  20.196   1.873  0.2047  0.1603  0.0099
    1W        W46523   6.716   4.444   7.328 -0.1960 -0.1960 -0.1529
    1W        W46524  18.510  23.024   2.020 -0.2801 -0.2642  0.2107
    1W        W46525  12.844   3.818   2.582 -0.0768 -0.0412 -0.0088
    1W        W46526   1.758  26.066   1.280  0.0972 -0.0242 -0.2529
    1W        W46527  10.942  10.245   2.731 -0.1706  0.0536  0.0976
    1W        W46528  11.640   0.454   8.805 -0.1553 -0.3984 -0.2035
    1W        W46529   6.648   5.632   0.469 -0.4718 -0.1080 -0.2611
    1W        W46530   3.780   1.564   9.728  0.0459  0.1676 -0.1467
    1W        W46531  20.723  14.602   9.889  0.0048 -0.0241 -0.0065
    1W        W46532  14.456  24.433   8.852  0.1536 -0.1693  0.0014
    1W        W46533  16.575  14.763   0.762 -0.0644  0.0943 -0.2602
    1W        W46534  14.785  20.622  10.167  0.4234  0.2629 -0.0036
    1W        W46535  13.089  19.387   1.844  0.4151  0.2295  0.3413
    1W        W46536  15.666  27.272   7.814  0.0222  0.0534  0.3833
    1W        W46537   6.418  20.073   3.412  0.0637  0.1753  0.0938
    1W        W46538  26.195  26.224   1.339  0.0977  0.0017 -0.1258
    1W        W46539   0.031  16.055   2.488  0.3008 -0.3300  0.1367
    1W        W46540  21.335  13.881   1.171 -0.1455 -0.0065  0.1111
    1W        W46541   1.256  24.375   2.561  0.1266 -0.2207  0.0307
    1W        W46542  10.530  10.897   8.343 -0.0717 -0.0732 -0.0216
    1W        W46543  26.871  14.439   8.511 -0.3296 -0.0851  0.1218
    1W        W46544   0.732   9.582   9.867 -0.1079 -0.0207  0.0057
    1W        W46545   1.406  19.762   1.298 -0.0149 -0.2674 -0.3356
    1W        W46546  10.676  12.227   1.282  0.0501  0.2998  0.3141
    1W        W46547  22.533  20.574   9.525  0.5143  0.0242 -0.1118
    1W        W46548  23.268  10.644   7.630 -0.0774 -0.0391  0.1366
    1W        W46549   8.395   3.466   1.588 -0.0248  0.3440 -0.2592
    1W        W46550   6.464  11.798   2.924 -0.2849  0.0069 -0.2632
    1W        W46551   3.304   4.162   7.956  0.3213 -0.0685  0.1409
    1W        W46552   8.445  24.077   0.862  0.1707 -0.3034  0.0887
    1W        W46553  28.035   0.200   9.993 -0.1330  0.4061 -0.1574
    1W        W46554  20.218   4.398   8.964 -0.2852 -0.2354  0.2274
    1W        W46555  17.604  16.909  10.097 -0.1425  0.1244  0.0639
    1W        W46556  20.909  15.929   8.004 -0.1189  0.0456 -0.1050
    1W        W46557  24.335   9.904   0.383  0.0992 -0.0975  0.0967
    1W        W46558   1.568  19.478  10.174 -0.0808  0.1505 -0.0016
    1W        W46559  18.762  19.983   9.832 -0.0209 -0.1217  0.2794
    1W        W46560  19.176  17.317   2.115  0.0730  0.0110 -0.2225
    1W        W46561  17.247  15.223   9.047 -0.1633  0.0196 -0.1074
    1W        W46562   4.594   5.346   1.383 -0.0894 -0.1377 -0.0623
    1W        W46563  18.649  19.262   3.314  0.2106 -0.2843 -0.0727
    1W        W46564   0.916   7.290   6.622  0.1707 -0.1527  0.4596
    1W        W46565   4.790  13.825   9.476  0.0873  0.1663 -0.0082
    1W        W46566   0.141   5.093   8.867  0.0715 -0.0418  0.1428
    1W        W46567   8.309  21.806   7.058 -0.0983 -0.0718 -0.0432
    1W        W46568   5.116  27.544   8.879  0.1020 -0.1006 -0.1699
    1W        W46569  22.193  22.877   2.163 -0.0214  0.0296 -0.0104
    1W        W46570  23.997  25.769   9.376 -0.1398 -0.4472 -0.2044
    1W        W46571  26.136  14.047  10.359 -0.0695  0.0065 -0.2943
    1W        W46572  20.070  19.035   9.891  0.3119  0.2723  0.0447
    1W        W46573   6.847  15.262   3.249  0.1144 -0.0311  0.3650
    1W        W46574   0.125  11.953   0.807  0.3051 -0.4386  0.0821
    1W        W46575  11.024  15.776   0.721  0.0979  0.1716  0.1201
    1W        W46576   0.654  25.665   1.960  0.2543  0.1139 -0.2115
    1W        W46577  11.968  11.152   1.230  0.2342  0.0556  0.2699
    1W        W46578  12.609  26.786   7.291 -0.1164 -0.2007  0.1028
    1W        W46579  26.703  11.059   2.037  0.0563 -0.2447  0.3620
    1W        W46580  27.714   0.231   7.078  0.1916  0.0498 -0.1457
    1W        W46581   2.278  25.115   2.845 -0.0496  0.0829  0.0059
    1W        W46582  17.522  20.294   0.253 -0.1283 -0.2027 -0.1824
    1W        W46583  10.481  26.636   7.108 -0.1454 -0.2595 -0.3043
    1W        W46584  16.173  17.432   1.067  0.0868 -0.0239  0.2789
    1W        W46585  19.332   4.660   1.068 -0.2931  0.3925  0.0002
    1W        W46586  18.672   4.618   9.398 -0.2652 -0.2572 -0.2211
    1W        W46587  19.989  22.112   8.862  0.2972  0.0411  0.0771
    1W        W46588   0.998   9.903   3.229 -0.0772 -0.0186  0.2199
    1W        W46589  26.395  20.871   7.236 -0.0311 -0.0487 -0.1735
    1W        W46590  16.433  10.047   8.926 -0.1287  0.4271  0.0923
    1W        W46591  10.457  18.870   3.562 -0.1854 -0.0194  0.0207
    1W        W46592   8.704   6.726   1.274  0.0969  0.2791 -0.2170
    1W        W46593  26.343   8.350   6.953 -0.0718  0.3140 -0.1335
    1W        W46594  27.049   4.416   2.700 -0.2548 -0.2382  0.2192
    1W        W46595  27.879  11.662   8.802 -0.1394  0.0499  0.1492
    1W        W46596   5.735  10.344   9.961  0.1959  0.0902 -0.2926
    1W        W46597   0.541   0.852   1.337 -0.2096  0.1403  0.0282
    1W        W46598  15.636  24.525   2.236 -0.0167  0.1740 -0.0603
    1W        W46599  27.039  19.997   1.994  0.2705  0.0881  0.1172
    1W        W46600  18.573  18.222   9.032  0.2767 -0.3174  0.5233
    1W        W46601  10.451  15.555   1.859 -0.0409  0.1343  0.2034
    1W        W46602   0.499  23.802   6.751 -0.0400  0.1782  0.2260
    1W        W46603   4.007   4.709   6.383  0.3541  0.2314  0.1379
    1W        W46604   5.356   9.482   1.883  0.2147  0.1365  0.2227
    1W        W46605   2.862  26.386   2.442  0.3426 -0.0528  0.1453
    1W        W46606  23.658  18.116   2.987 -0.0362  0.1163  0.0799
    1W        W46607  12.588   5.611   1.584  0.0873 -0.1234 -0.1294
    1W        W46608   8.740   5.417   8.845 -0.1112  0.1787 -0.1273
    1W        W46609  16.510  27.842   3.324  0.1350  0.2689  0.5792
    1W        W46610  27.819  25.504   9.318  0.1235 -0.2251 -0.3887
    1W        W46611  19.618  27.896   2.293 -0.0683 -0.0388 -0.1936
    1W        W46612   9.595  27.820   9.534 -0.3592  0.1666  0.0042
    1W        W46613  27.541  24.225   8.516 -0.1825 -0.1777 -0.0560
    1W        W46614   9.097  20.029   8.086 -0.0518 -0.1431  0.2008
    1W        W46615  22.128  16.919  10.086  0.1997  0.0468 -0.3035
    1W        W46616   6.151  10.000   0.428 -0.2598  0.0271 -0.1685
    1W        W46617   0.471  22.843   0.259 -0.0731  0.0293  0.0924
    1W        W46618  15.425  25.677   7.990 -0.1898 -0.0562 -0.0519
    1W        W46619  10.185   5.448   1.807  0.1239 -0.2440 -0.0917
    1W        W46620   7.589  11.693   3.139  0.1497 -0.0011  0.2195
    1W        W46621  22.769  24.168   7.667  0.0299 -0.2372  0.3033
    1W        W46622  19.646   9.440   9.029  0.1118  0.3737 -0.1160
    1W        W46623  14.961   5.577   3.680 -0.2513 -0.0149 -0.0314
    1W        W46624   7.998   6.361   9.274 -0.2404  0.0371  0.0253
    1W        W46625   5.103   6.596   7.551  0.1991 -0.1530 -0.1631
    1W        W46626   1.515   4.828   6.570  0.1557 -0.0315  0.0268
    1W        W46627  26.632   6.142   2.936  0.1056 -0.3211 -0.0955
    1W        W46628  18.761  16.010   4.062 -0.1144 -0.0795  0.0473
    1W        W46629  15.574  17.448   1.663  0.0213  0.1013 -0.0328
    1W        W46630   7.178  14.900  10.299  0.0841  0.1195  0.0836
    1W        W46631   1.211  19.409   7.393  0.3306  0.0779 -0.2542
    1W        W46632  10.798  25.291   8.866 -0.2179  0.3289 -0.3044
    1W        W46633   4.550   6.390   2.062  0.0631  0.0200  0.1918
    1W        W46634  27.975   2.686   9.299  0.2796  0.0614  0.1697
    1W        W46635  15.478   3.578   0.477  0.0910 -0.2626  0.0409
    1W        W46636   7.986   1.443   7.283 -0.0240  0.0809  0.0339
    1W        W46637  15.666  22.473   6.907  0.1332 -0.1237 -0.1851
    1W        W46638   2.356  23.074   9.156  0.3093 -0.0701  0.1129
    1W        W46639  13.090  13.157   2.434 -0.0951  0.1536  0.0456
    1W        W46640   2.332  26.863   0.450  0.1256 -0.0784  0.2344
    1W        W46641   0.632   6.920   8.011  0.1268  0.4079 -0.0292
    1W        W46642   9.321  17.750   1.450 -0.1614  0.2059 -0.1638
    1W        W46643   8.625   6.920   1.698  0.1383 -0.1438  0.1096
    1W        W46644   2.216   2.053   7.550 -0.0349  0.0599 -0.1979
    1W        W46645  23.817   5.574   1.409 -0.0177  0.0468  0.5400
    1W        W46646  14.911  25.173   9.970  0.0491 -0.2311  0.0478
    1W        W46647  27.238  10.430   9.668  0.3076 -0.2574 -0.0324
    1W        W46648  13.579   0.205   9.374 -0.1589 -0.5986  0.4388
    1W        W46649   8.238  13.234   0.247 -0.0318  0.0088  0.0375
    1W        W46650  24.231  16.527   8.185 -0.1827  0.1099 -0.0451
    1W        W46651   7.334  27.221   0.400 -0.0438  0.0156  0.0873
    1W        W46652  25.351   1.342   9.086 -0.0216 -0.0721  0.0006
    1W        W46653  25.991  19.892   0.700  0.3533  0.0457 -0.2320
    1W        W46654   8.728  10.284   2.315 -0.0360  0.1590  0.2480
    1W        W46655  27.816  11.621   2.686  0.0451 -0.0630 -0.0004
    1W        W46656   4.036   4.378   0.500 -0.0067 -0.4615 -0.0021
    1W        W46657   8.809  11.607   8.444 -0.0158  0.0977  0.4444
    1W        W46658  19.279  18.179   8.519  0.0798  0.1106 -0.0668
    1W        W46659   6.079  15.795   2.274 -0.0527  0.2413  0.2093
    1W        W46660  18.158   4.860   9.709 -0.1123 -0.0419 -0.1843
    1W        W46661  25.752   2.202   2.703 -0.1637  0.2917 -0.0339
    1W        W46662   8.868  26.733   0.790  0.3241 -0.1427  0.0948
    1W        W46663   8.291   2.052   0.826  0.1674 -0.0102  0.2284
    1W        W46664  25.043  25.323   6.997 -0.1304  0.0292 -0.1843
    1W        W46665  27.949  22.580   1.357 -0.3132  0.2264 -0.3115
    1W        W46666  20.183  19.698   0.754  0.0538  0.1278  0.2458
    1W        W46667  17.529  13.170   1.948 -0.0721 -0.3173 -0.0112
    1W        W46668   9.503  15.421   3.334 -0.1286 -0.0722  0.1207
    1W        W46669   6.191  15.663   8.745  0.0015 -0.0126  0.1676
    1W        W46670   7.242  18.494   2.499 -0.0275 -0.0803  0.1095
    1W        W46671  19.367   4.937   8.564  0.1911 -0.2219  0.1557
    1W        W46672  18.374  16.242   1.049  0.2283 -0.1944  0.4486
    1W        W46673  13.266  18.177   7.863  0.0717 -0.1351 -0.1528
    1W        W46674  14.016  15.057   2.673  0.1543 -0.4467 -0.1880
    1W        W46675   9.737   8.277   2.524 -0.0327  0.0487 -0.0323
    1W        W46676   5.689   7.031   2.482 -0.3392 -0.2557  0.1859
    1W        W46677  12.838  13.120   4.145 -0.2071 -0.0943  0.4082
    1W        W46678  25.321  19.880   7.614  0.1701 -0.0055 -0.1078
    1W        W46679  17.336  21.680   9.360 -0.2420 -0.1947 -0.0044
    1W        W46680   6.014   2.971   9.364 -0.0542  0.2339  0.1301
    1W        W46681   9.611  18.346   0.701  0.0683 -0.2808  0.2579
    1W        W46682   2.309  12.225   0.318  0.2642  0.0601 -0.1607
    1W        W46683  15.054  13.914   8.846 -0.0825 -0.1045 -0.1953
    1W        W46684  18.327   0.725   7.862  0.1729  0.1764  0.1398
    1W        W46685  10.680  23.586   3.467 -0.0762  0.0023  0.0153
    1W        W46686   2.917  12.598   6.812 -0.2886  0.0068 -0.1178
    1W        W46687   7.981   5.676   1.957 -0.2005  0.0744  0.0961
    1W        W46688  24.558  16.047   7.970  0.0720 -0.2812 -0.2085
    1W        W46689  14.053   5.991   2.031 -0.2343  0.2042  0.2761
    1W        W46690   2.795   5.952   0.113 -0.0733 -0.1695  0.2040
    1W        W46691   5.377   9.764   9.226  0.1520 -0.1899  0.1460
    1W        W46692  21.347  24.049   3.328  0.1028  0.1707 -0.1751
    1W        W46693  23.277   4.246   2.759 -0.2139 -0.0753 -0.0610
    1W        W46694  12.018  11.251   3.989 -0.3985  0.3813 -0.3916
    1W        W46695  26.304  11.051   2.704  0.1782 -0.1615  0.1584
    1W        W46696  17.711  18.312   8.183  0.0862  0.0583 -0.2307
    1W        W46697  19.724  11.791   0.041 -0.4355  0.0847  0.1960
    1W        W46698   7.771   6.998   1.567  0.0575 -0.0119  0.1494
    1W        W46699  10.784  24.317   8.519  0.1295 -0.0394  0.0907
    1W        W46700   1.179  15.259   2.100  0.0158 -0.3080 -0.0418
    1W        W46701  21.552  16.892   1.360 -0.2687 -0.2332 -0.1016
    1W        W46702  19.568  24.916   1.995  0.0128  0.2788 -0.0668
    1W        W46703  26.743  10.413   2.854 -0.1756 -0.1419  0.4156
    1W        W46704  25.655   7.176   0.624  0.1256 -0.2253  0.1497
    1W        W46705   5.562  14.299   7.743 -0.2972 -0.0218 -0.0415
    1W        W46706  18.767  27.184  10.329 -0.1510 -0.0424 -0.1130
    1W        W46707  23.503  25.283   3.982  0.0974 -0.7007 -0.1395
    1W        W46708   1.675   9.203   0.045  0.2711 -0.0961  0.0102
    1W        W46709   5.627   8.236  10.188  0.1111  0.0081  0.0140
    1W        W46710  25.353  24.966   1.667  0.1158 -0.0663  0.0098
    1W        W46711  21.548   0.348   1.764 -0.1432 -0.0903  0.2429
    1W        W46712  19.919  21.790   2.788 -0.0559 -0.0848 -0.2968
    1W        W46713  20.764  26.959   7.649 -0.1423  0.2266  0.1587
    1W        W46714   8.562  23.214   8.921  0.3571  0.0143  0.1076
    1W        W46715  21.737  26.831  10.016 -0.0406 -0.1551 -0.0385
    1W        W46716   9.679  14.895   9.026  0.0282  0.1539  0.1013
    1W        W46717  18.105  24.899   9.638 -0.3005 -0.0752  0.4231
    1W        W46718  20.114   5.241   3.073  0.4532  0.2327  0.2778
    1W        W46719  12.767  15.135   8.643 -0.2536  0.0508  0.1492
    1W        W46720  23.648  21.775   1.870  0.0085  0.0073  0.1157
    1W        W46721  17.538  20.060   7.687  0.1371  0.2106 -0.2058
    1W        W46722  19.353  19.267   9.297 -0.0850 -0.1230  0.2318
    1W        W46723   3.229  17.584   1.043  0.1866  0.1475 -0.2907
    1W        W46724  12.305   7.362   8.986  0.0329 -0.1004 -0.0390
    1W        W46725   1.075   2.614   0.895  0.2301  0.0370 -0.1207
    1W        W46726  22.774  22.661   0.758  0.2509  0.0227  0.1423
    1W        W46727  21.762  20.364   7.825  0.1948 -0.1985  0.2649
    1W        W46728   0.545  18.261   7.977 -0.0178  0.1106 -0.2173
    1W        W46729  16.895  11.419   7.792  0.1071 -0.0343  0.0461
    1W        W46730   7.696  26.848   9.373  0.0570  0.2406 -0.2105
    1W        W46731  19.737  14.724   7.396 -0.1812 -0.0601 -0.1065
    1W        W46732   8.712  24.582   7.155  0.2537 -0.1150  0.0704
    1W        W46733  21.999   1.577   0.529 -0.0516  0.1992  0.1553
    1W        W46734   1.820  22.003  10.192 -0.0536 -0.0080 -0.0011
    1W        W46735  21.427  23.172   3.053  0.2514  0.1882 -0.0911
    1W        W46736  27.054   9.408   0.589  0.3115  0.1241 -0.0946
    1W        W46737  21.266  11.084   7.813 -0.1129 -0.0978 -0.0389
    1W        W46738   9.418   0.281   7.804 -0.0257 -0.1102  0.1080
    1W        W46739  21.045   7.377   0.561 -0.2176  0.1305 -0.0651
    1W        W46740   0.432  18.858   8.723  0.1155  0.1677 -0.2265
    1W        W46741  26.610   8.670   7.266  0.6545 -0.0848  0.1425
    1W        W46742  19.202  27.389   7.961  0.1721  0.1896 -0.0692
    1W        W46743  13.603  12.581   3.475 -0.0073  0.0823 -0.1994
    1W        W46744   4.132   3.826   7.365  0.1651 -0.2164  0.2042
    1W        W46745  17.662  15.800   1.777  0.0279  0.0131 -0.0605
    1W        W46746  24.299  17.054   8.386 -0.2556  0.1349 -0.1372
    1W        W46747  24.336  22.947   2.448 -0.1480 -0.3071 -0.1514
    1W        W46748   2.225  18.908   7.430 -0.2038 -0.0407 -0.0968
    1W        W46749  13.286  16.595   2.325  0.1799 -0.2154 -0.0407
    1W        W46750  20.443  24.662   2.340 -0.0555 -0.4591 -0.1568
    1W        W46751  10.513  23.451   7.815  0.3836  0.5846 -0.1957
    1W        W46752  18.018   4.517   0.516  0.1553 -0.1639  0.3667
    1W        W46753  11.103   3.798   3.035 -0.1180 -0.2189 -0.4670
    1W        W46754  24.825  16.838   2.518  0.0158 -0.0087 -0.4003
    1W        W46755   2.541  23.378   8.361  0.0281 -0.2097  0.0819
    1W        W46756  16.642  18.813   7.303  0.1456  0.1817  0.3205
    1W        W46757  10.033   2.113   9.744 -0.2574 -0.2006  0.0319
    1W        W46758   5.032  27.102   1.513 -0.3412  0.0851 -0.0861
    1W        W46759  11.150  13.718   1.796  0.0913 -0.1948 -0.1943
    1W        W46760   8.608  17.736  10.118  0.0020 -0.2582  0.0507
    1W        W46761   6.172  26.885   2.071 -0.2798 -0.1329 -0.1981
    1W        W46762   0.245  27.259   0.232  0.1245 -0.1177  0.1907
    1W        W46763   7.628  11.969   9.713  0.2935 -0.0875  0.0071
    1W        W46764  14.466   2.266   1.632  0.2237  0.2820  0.0114
    1W        W46765  19.644  17.612   0.254  0.3238 -0.0189  0.1142
    1W        W46766  11.657   8.914   0.748 -0.0747 -0.2188 -0.0088
    1W        W46767  15.836   2.761   0.968  0.0241  0.2079  0.0945
    1W        W46768  27.990  23.347   2.324 -0.0184 -0.2241 -0.0068
    1W        W46769   4.043  18.873   2.932  0.3430  0.2814  0.1330
    1W        W46770  15.676  11.573   1.694 -0.2420  0.0081  0.0494
    1W        W46771  14.998  21.660   8.920 -0.0246 -0.0181  0.0257
    1W        W46772  14.500  20.995   7.351  0.3713 -0.0368  0.0820
    1W        W46773   4.112  27.001   7.822  0.1901  0.0754  0.3458
    1W        W46774  24.459   8.154   8.724  0.0842  0.0751  0.0852
    1W        W46775   2.641   8.772   6.034  0.2934  0.0336  0.0391
    1W        W46776   9.417  13.512   0.566  0.0124  0.4330  0.0590
    1W        W46777  22.464  22.174   1.478  0.0378  0.1237 -0.3265
    1W        W46778  24.101   8.186   0.133  0.0418  0.4444  0.0055
    1W        W46779   1.639   4.423  10.333  0.2543 -0.2251 -0.3479
    1W        W46780   2.148   6.069   8.872  0.0651 -0.1311 -0.0038
    1W        W46781  20.641  14.291   3.075 -0.3437 -0.2692 -0.1634
    1W        W46782  18.754  16.913   1.427 -0.2733 -0.5089  0.1121
    1W        W46783  20.037   6.408   8.106  0.2836 -0.0525  0.0034
    1W        W46784  24.674   5.939   9.116 -0.2881 -0.0008  0.0648
    1W        W46785  14.091  23.140   0.402  0.0136 -0.0039  0.1133
    1W        W46786  18.465  24.644   0.304 -0.3212 -0.2903 -0.3073
    1W        W46787   6.615  20.515   1.467 -0.0307 -0.1564 -0.1254
    1W        W46788   0.131  14.753   9.521 -0.1831  0.0163  0.4161
    1W        W46789  27.955  23.325   0.249 -0.0735 -0.5235 -0.3197
    1W        W46790  16.494   1.858   9.013 -0.2517  0.2087  0.1084
    1W        W46791  27.441  27.423   9.444  0.0359 -0.1360 -0.1163
    1W        W46792  10.138  23.963   8.787  0.0887  0.0772  0.1472
    1W        W46793   3.696   9.407   8.644 -0.3861  0.1344 -0.1037
    1W        W46794   5.888   9.898   9.181 -0.0653  0.2574 -0.1040
    1W        W46795  27.259  20.524   7.574  0.0752 -0.1121 -0.3983
    1W        W46796  19.535   2.010   2.314 -0.0562 -0.0943  0.0367
    1W        W46797   6.530  18.152   3.599  0.1715  0.1005  0.1150
    1W        W46798   8.652  26.743   2.379 -0.0408  0.2511 -0.0512
    1W        W46799  17.199   8.460   1.206  0.0284  0.0834  0.0003
    1W        W46800  11.192  11.336   7.060 -0.1359  0.0762  0.3583
    1W        W46801   9.814  22.759   8.197 -0.1361  0.0637  0.1758
    1W        W46802  24.025  26.678   1.708 -0.0513  0.3009  0.2466
    1W        W46803   0.906   2.139   9.936 -0.1277 -0.2367 -0.2306
    1W        W46804  24.888  27.002   2.871  0.3784  0.0934  0.2126
    1W        W46805  25.987   8.014   1.543 -0.2581 -0.0466  0.1475
    1W        W46806   8.343  14.316   8.059 -0.3520  0.1063 -0.0220
    1W        W46807  22.756   6.591   9.457  0.2157  0.1768 -0.0254
    1W        W46808  26.836  24.641   8.900  0.2162  0.0052 -0.3081
    1W        W46809  22.560  26.195   1.307  0.0862 -0.1478 -0.0684
    1W        W46810  16.524   1.367   2.638 -0.3530  0.2250  0.1633
    1W        W46811  15.576  26.294   0.203 -0.0982 -0.1530  0.0420
    1W        W46812  14.803  23.820   9.620 -0.3155  0.0667  0.3048
    1W        W46813  21.198  24.880   0.456 -0.0410  0.0635 -0.0328
    1W        W46814  14.537   6.856   1.074  0.2391  0.0284 -0.1469
    1W        W46815  27.893   6.506   2.122  0.1557 -0.1474 -0.0615
    1W        W46816   2.846   3.667   7.929 -0.2253  0.0108  0.0561
    1W        W46817   4.174  21.575   0.926 -0.3086  0.0655 -0.1884
    1W        W46818   8.898  23.934   0.273 -0.1965 -0.6121 -0.0391
    1W        W46819  26.061  19.470   1.584 -0.4933  0.0648  0.2803
    1W        W46820  12.066  19.357   9.655  0.1926 -0.0656 -0.0076
    1W        W46821   1.915   6.930   8.600 -0.1864  0.0529  0.1834
    1W        W46822  23.155  13.114   8.093  0.0071  0.3116  0.0588
    1W        W46823  16.958   0.743   2.698  0.1391  0.1624  0.2960
    1W        W46824   0.746  27.047   7.973  0.3092  0.0232 -0.0268
    1W        W46825   2.948   4.327   8.742  0.1483  0.1473  0.1384
    1W        W46826   4.041  23.347   9.476  0.2209  0.2922  0.0357
    1W        W46827  19.185  20.589   1.500  0.2011 -0.0034 -0.1065
    1W        W46828  13.767   7.755   9.431  0.2073  0.2091  0.2655
    1W        W46829  24.729  26.259   7.867 -0.1680  0.0745  0.3465
    1W        W46830  27.026  13.639   8.935  0.0061 -0.0880 -0.2103
    1W        W46831   6.302  21.887   8.146 -0.2167  0.1322  0.0392
    1W        W46832  10.922   7.004   0.795 -0.0390  0.1321  0.2118
    1W        W46833  25.874   7.119   6.418 -0.0896  0.1318 -0.0672
    1W        W46834  19.989   1.819   9.897  0.1018 -0.1896 -0.0389
    1W        W46835  14.573   9.111   0.109  0.0816 -0.2185 -0.0850
    1W        W46836  24.433  13.204   1.379 -0.0305 -0.0914  0.1926
    1W        W46837  10.410   2.021   7.766  0.0596  0.0519  0.1264
    1W        W46838   5.961   7.675   8.436  0.1367  0.0047 -0.0025
    1W        W46839   5.172  21.894   8.472 -0.1619 -0.2515  0.0815
    1W        W46840   9.124  18.759   0.168  0.1736 -0.0938  0.0698
    1W        W46841  26.061  24.452   1.890 -0.2256 -0.0685  0.1899
    1W        W46842  24.964  19.428   2.326 -0.0117 -0.0034 -0.0284
    1W        W46843   0.625  26.839   9.105  0.0777  0.2498  0.0907
    1W        W46844  23.889   7.065   1.421 -0.0027 -0.2658  0.3537
    1W        W46845  19.315   0.476   7.931 -0.0233  0.0645 -0.0980
    1W        W46846  21.352  16.059   7.839 -0.2181  0.0706 -0.2886
    1W        W46847   3.365   1.033   1.625  0.3307  0.1043  0.1591
    1W        W46848  20.780   5.924   9.141 -0.0289 -0.2238  0.1697
    1W        W46849  10.463   1.464   1.104 -0.1610  0.0102 -0.0034
    1W        W46850  21.867  11.584   2.614  0.1368  0.1567 -0.2108
    1W        W46851  19.133  10.026  10.313  0.0900 -0.2061 -0.0025
    1W        W46852  26.835  25.022   1.591 -0.1010 -0.0233 -0.1180
    1W        W46853  11.586   6.686   2.049  0.2152 -0.1717  0.0702
    1W        W46854   8.960  23.041   0.823  0.0282 -0.0686  0.1745
    1W        W46855  20.954  10.364   0.305 -0.1464 -0.0123 -0.0576
    1W        W46856   8.544  10.480   9.278  0.2114  0.1773 -0.0547
    1W        W46857  15.312  24.277   0.455  0.0938  0.0659  0.0302
    1W        W46858  10.169  26.932   9.967 -0.0142 -0.0758  0.1453
    1W        W46859  10.528   5.355   7.896  0.3105 -0.0204 -0.0829
    1W        W46860   0.447  13.383   7.489  0.0048 -0.4529 -0.1009
    1W        W46861  20.540   6.373   9.111  0.0698 -0.0088 -0.1345
    1W        W46862   5.456  19.878   1.441  0.0568 -0.1013 -0.0714
    1W        W46863   1.350  22.555   2.116 -0.3518  0.2379 -0.3425
    1W        W46864  13.074  22.168  10.203 -0.5343  0.0227 -0.0235
    1W        W46865  20.673  18.093   3.134 -0.0754  0.0378  0.0030
    1W        W46866  12.690   8.988   8.465  0.2070 -0.0753 -0.1418
    1W        W46867  17.034  19.796   7.813 -0.1711 -0.0074 -0.1277
    1W        W46868   7.062  11.260   2.179  0.2186 -0.0089 -0.2653
    1W        W46869  23.361  12.164  10.167  0.0188  0.0823  0.0659
    1W        W46870   2.282   9.731   0.441 -0.2085  0.3263 -0.0984
    1W        W46871  20.389  23.210   0.746  0.1978 -0.7035 -0.3759
    1W        W46872  14.122  10.957   8.287  0.0530  0.3868  0.0872
    1W        W46873  17.958  10.525   0.812  0.2438  0.2090 -0.2343
    1W        W46874  22.732   2.492   2.210  0.0305  0.1530 -0.2180
    1W        W46875  12.185   5.995   9.574 -0.0417  0.0611  0.0247
    1W        W46876  16.444  23.479   0.874  0.1290 -0.1821 -0.1076
    1W        W46877  11.532  13.429   8.580  0.1551 -0.1897  0.0879
    1W        W46878  16.677  22.711   1.295  0.1281  0.3236 -0.0262
    1W        W46879  19.631  19.777   2.500 -0.1437 -0.1947 -0.4456
    1W        W46880   1.575  11.724   8.952 -0.1347  0.0720 -0.4414
    1W        W46881   5.864  23.686   9.566  0.2845 -0.0354 -0.0433
    1W        W46882   8.580   0.955   9.511 -0.2080  0.0940  0.0736
    1W        W46883  27.392  22.173   7.494 -0.2402 -0.0152  0.0796
    1W        W46884  23.441  20.887   2.091  0.1964  0.2425 -0.0192
    1W        W46885  20.865  26.074   9.678  0.2197  0.2835  0.1136
    1W        W46886  27.799  27.542   6.813 -0.0613  0.0664 -0.1805
    1W        W46887   2.761  14.301   7.228  0.0537 -0.4285  0.4046
    1W        W46888  23.416   9.460   1.000  0.1731 -0.3279 -0.2467
    1W        W46889   0.177  28.036   8.609  0.1753 -0.1395 -0.0072
    1W        W46890   2.122  10.610   1.912  0.4006 -0.0005  0.0858
    1W        W46891   2.449   8.619  10.320  0.1218 -0.1445 -0.1308
    1W        W46892  23.283  20.190  10.050 -0.0217 -0.1877  0.3835
    1W        W46893   4.862  27.460   8.444 -0.0105 -0.0459  0.1807
    1W        W46894   3.125   7.149   7.850 -0.3052  0.1209  0.0468
    1W        W46895  25.341  21.629  10.169 -0.1540  0.0450 -0.2569
    1W        W46896   9.068  17.003   0.147 -0.0029 -0.0074  0.0567
    1W        W46897  23.879   7.883   1.411 -0.2957  0.3449 -0.3755
    1W        W46898  25.329  15.823   0.403 -0.1223  0.1118 -0.1068
    1W        W46899  21.842  23.150   7.753  0.1527 -0.3440  0.1237
    1W        W46900  19.666  20.410   1.705 -0.1380 -0.0998 -0.1575
    1W        W46901   8.414  19.693   7.278 -0.2432  0.0329  0.1889
    1W        W46902  12.608   3.439   1.679 -0.2903 -0.1319  0.3558
    1W        W46903   7.521   8.244  10.091 -0.1184 -0.0814  0.0242
    1W        W46904   3.239   2.705   6.636  0.0351 -0.1127 -0.1093
    1W        W46905   5.363   1.228   0.656 -0.0186  0.1400  0.2685
    1W        W46906  12.287  23.556   9.234  0.0164  0.1567 -0.0242
    1W        W46907  19.295   3.925   3.078 -0.0138 -0.2803 -0.2441
    1W        W46908   6.507  22.150   9.890 -0.2801  0.3355 -0.0389
    1W        W46909  23.002  13.489   8.472 -0.0633  0.2812  0.1147
    1W        W46910  13.881  16.436   4.173  0.2323 -0.0815  0.0156
    1W        W46911   5.104  14.575   1.732  0.0283 -0.0118 -0.0454
    1W        W46912  20.017  21.310   8.236 -0.0115  0.2245  0.2762
    1W        W46913  22.430   7.134  10.197  0.0039 -0.1682 -0.2179
    1W        W46914   8.782   8.387   2.406 -0.0562 -0.0007  0.0748
    1W        W46915   8.979  14.703   0.541 -0.1478  0.0068  0.1162
    1W        W46916  20.631   3.089   0.555 -0.2803 -0.1236 -0.1574
    1W        W46917   6.768  28.023   8.443  0.1943 -0.4102 -0.3235
    1W        W46918   7.145  12.596   8.638 -0.0159  0.4568  0.0015
    1W        W46919   4.724   5.121   9.380  0.1348  0.0344  0.1869
    1W        W46920  20.800   5.494   1.244  0.1229 -0.1066  0.1152
    1W        W46921  25.491  17.470   9.428 -0.1068  0.1294 -0.0219
    1W        W46922   1.613  25.245   6.057  0.0735 -0.2078  0.5363
    1W        W46923  16.984   7.604   2.721  0.0571 -0.0313  0.1251
    1W        W46924  25.961  25.763   8.524 -0.0255 -0.0125 -0.4386
    1W        W46925   9.361   6.024   8.505 -0.1067  0.3803 -0.2906
    1W        W46926  22.249  27.483   2.699 -0.1483 -0.0027  0.1229
    1W        W46927   6.667  12.064   3.272 -0.0528 -0.0053  0.0847
    1W        W46928  12.310  22.550   0.861 -0.0959  0.1240  0.1030
    1W        W46929  18.156   0.818   1.616  0.0529  0.1745  0.0988
    1W        W46930  18.802  26.334  10.070 -0.1805  0.1732 -0.0718
    1W        W46931   1.219  13.297  10.173  0.0056  0.1556  0.0560
    1W        W46932   1.681  22.452  10.314 -0.3720 -0.1436 -0.2525
    1W        W46933  21.775   8.513  10.053  0.1717  0.0616  0.2132
    1W        W46934  26.099  27.068   1.108 -0.0524 -0.2054  0.1429
    1W        W46935   7.244   7.870   8.681 -0.0957  0.0313  0.0012
    1W        W46936   9.079  24.481   8.104  0.0019  0.0384 -0.0140
    1W        W46937  10.242   0.481   8.170  0.0261  0.0035 -0.0563
    1W        W46938   3.900  20.803   8.130  0.0592  0.0224  0.2466
    1W        W46939  22.454   0.339   8.083  0.2982  0.1593 -0.0390
    1W        W46940   3.121  16.344   2.058  0.0044 -0.1110  0.0664
    1W        W46941   0.840  11.433   9.656  0.2904 -0.4739  0.1267
    1W        W46942   9.621  21.430   0.041  0.0731 -0.1404  0.3204
    1W        W46943  25.279   8.176   8.073 -0.2963 -0.0681  0.2202
    1W        W46944  11.214   6.697   2.418 -0.0052  0.2876  0.1031
    1W        W46945   6.096  19.026   1.614 -0.0193  0.0492 -0.1017
    1W        W46946  16.683   9.602   3.298 -0.0558 -0.0569  0.0691
    1W        W46947   2.578  15.301   6.403 -0.0620  0.0124  0.1858
    1W        W46948  11.183  20.254   9.355  0.0404  0.0348  0.0820
    1W        W46949   6.384  10.235   1.855  0.0415 -0.1046 -0.2206
    1W        W46950  15.924  16.665   3.330 -0.1482 -0.0782  0.0039
    1W        W46951  24.164  15.764   9.836  0.1699 -0.0284  0.0820
    1W        W46952   5.701   1.818   7.050  0.2131  0.3179  0.2994
    1W        W46953  16.981  26.830   9.114 -0.1136  0.0087 -0.0239
    1W        W46954  24.290  21.162   6.158  0.2447  0.0522 -0.0001
    1W        W46955   4.617   4.356   9.758  0.1541  0.0442 -0.1087
    1W        W46956  12.432  25.482   7.705 -0.1105  0.0496 -0.0233
    1W        W46957  26.062  26.154   0.654  0.0462 -0.0295  0.2107
    1W        W46958  13.837  17.167   1.241  0.2400  0.0727 -0.2919
    1W        W46959  13.205   8.395   8.936 -0.4516 -0.3002 -0.0366
    1W        W46960   8.137   0.050   9.533 -0.2412  0.3698  0.0604
    1W        W46961  13.809   4.976   8.109  0.1930 -0.1265  0.2709
    1W        W46962  17.515   6.870   3.238  0.0745 -0.0174 -0.1364
    1W        W46963  25.057  19.096  10.014  0.0314 -0.1765 -0.3459
    1W        W46964   8.482  24.677   0.527  0.2231 -0.0243 -0.0373
    1W        W46965   3.275   1.529   7.357  0.1152 -0.0532 -0.1847
    1W        W46966  12.504   9.242   9.401  0.2590  0.2834 -0.0782
    1W        W46967  18.934  24.664   8.377  0.0458 -0.1195  0.0689
    1W        W46968   1.146  20.723   9.071 -0.0598  0.1117 -0.0916
    1W        W46969   8.002  14.529   0.427 -0.1621  0.3708 -0.0563
    1W        W46970   1.987   8.480   2.117 -0.0682 -0.0989  0.1192
    1W        W46971   4.095  25.846   2.761  0.1161  0.2355 -0.2139
    1W        W46972   1.999  19.155   8.912  0.0081  0.2222 -0.2111
    1W        W46973  14.719  18.094   0.329  0.0533  0.0106 -0.0885
    1W        W46974  16.003  22.269   2.138 -0.0519  0.1239  0.1177
    1W        W46975  22.831   7.259   8.808 -0.1606 -0.2272 -0.2477
    1W        W46976   5.964   7.565   9.354 -0.0869  0.0258  0.3625
    1W        W46977   1.949  10.378   2.397 -0.3240  0.1822 -0.0753
    1W        W46978   6.198  21.501   1.746  0.2143 -0.2878 -0.1283
    1W        W46979   5.768  20.220   3.250 -0.1215 -0.2026 -0.2566
    1W        W46980  25.814  13.120   0.570  0.0517  0.2063  0.1643
    1W        W46981   0.836  14.218   1.697 -0.0744  0.0252 -0.0321
    1W        W46982  20.531   4.731   0.583 -0.0944 -0.0686  0.1947
    1W        W46983  25.188  17.793   7.277  0.2109 -0.0110 -0.5179
    1W        W46984  14.275  15.627   2.150 -0.4269  0.4846 -0.1654
    1W        W46985  11.099  14.205   0.844 -0.1183 -0.0656 -0.1813
    1W        W46986   6.857  19.707   2.057  0.0668  0.1009  0.1827
    1W        W46987  23.333  13.998   2.984  0.0090  0.0914 -0.0481
    1W        W46988  21.715  16.448   1.166 -0.2024  0.1448  0.1411
    1W        W46989  17.520  17.089   1.074  0.1955 -0.0596  0.1419
    1W        W46990  15.192   0.073   7.890  0.3343 -0.0639  0.6459
    1W        W46991   5.971  12.682   8.511 -0.0922  0.0168 -0.0941
    1W        W46992  20.621   7.374   3.498  0.2367  0.1011 -0.1014
    1W        W46993  22.215  26.330   8.513 -0.1326 -0.1297 -0.2039
    1W        W46994   0.896  11.820   2.278 -0.2541 -0.1375  0.3090
    1W        W46995  18.550  14.773   8.148  0.0282 -0.1877 -0.2307
    1W        W46996   9.469  14.015   7.704 -0.2327  0.2157  0.1762
    1W        W46997   6.736  27.187   7.875 -0.0130 -0.2076 -0.1361
    1W        W46998   7.904  11.557   9.707 -0.3058 -0.2528  0.0132
    1W        W46999  14.948  10.424   1.054 -0.1600 -0.0411 -0.1097
    1W        W47000  23.474   5.591   2.394 -0.0786  0.0315  0.0470
    1W        W47001  22.648   1.922   7.943  0.0142  0.0250 -0.2781
    1W        W47002   3.150   7.445   1.420 -0.0254  0.0218 -0.1052
    1W        W47003   4.877  22.818   9.177 -0.0484  0.2257  0.0374
    1W        W47004   4.414  24.721   8.873 -0.0708  0.2439 -0.1643
    1W        W47005  20.211   1.918   9.058  0.3695  0.2264  0.0194
    1W        W47006  22.472   9.229   2.238 -0.0610 -0.1157  0.0080
    1W        W47007   0.214  15.083   1.490  0.1747 -0.0756 -0.1720
    1W        W47008  22.519  17.661   9.711 -0.1359  0.2762 -0.2857
    1W        W47009  24.928  13.798   2.352 -0.1553 -0.0976  0.4512
    1W        W47010  10.611   6.531   8.306  0.0253  0.0793  0.1472
    1W        W47011   7.118   9.375   9.300 -0.0427  0.1244 -0.0731
    1W        W47012  22.987   4.192  10.001 -0.0943  0.1414  0.4076
    1W        W47013  10.816   1.874   0.902  0.0793  0.0163  0.0865
    1W        W47014  19.666  21.416   2.550  0.2099 -0.0832  0.0558
    1W        W47015   6.881  12.376   7.251 -0.0208 -0.1673 -0.0777
    1W        W47016   9.690  22.608   7.708  0.1241  0.1515 -0.1186
    1W        W47017   7.462   9.650  10.074  0.0312  0.0098  0.1238
    1W        W47018  26.052  18.608   8.109 -0.1991 -0.2549 -0.3078
    1W        W47019  27.273  25.865   7.060  0.2390  0.2124  0.1675
    1W        W47020  26.528   9.400   9.347  0.0755  0.3076 -0.1987
    1W        W47021   3.964   0.377   8.429  0.3463  0.2539  0.2208
    1W        W47022  22.595  12.328   9.800 -0.1436 -0.0240 -0.0640
    1W        W47023  25.942  17.120   9.891 -0.1255 -0.1031 -0.1325
    1W        W47024   6.927  19.886   0.236 -0.0909 -0.1988 -0.0639
    1W        W47025   0.216  18.566   0.699  0.2788  0.1362 -0.2655
    1W        W47026   0.762   9.613   1.427 -0.0878 -0.0491  0.2218
    1W        W47027  14.407  12.837   8.500 -0.0496  0.0568  0.1454
    1W        W47028   1.604  20.546   7.482 -0.0009  0.0233  0.0268
    1W        W47029  25.417   9.533   0.190  0.0004  0.1069 -0.0704
    1W        W47030   5.660  26.213   9.637  0.1625 -0.1890  0.2927
    1W        W47031   8.237  25.207   8.996 -0.2371  0.1825  0.0023
    1W        W47032  14.249   2.984   3.378 -0.1028 -0.1865 -0.2506
    1W        W47033  17.513   5.106   3.115 -0.2429  0.1047 -0.2824
    1W        W47034  13.213  27.164  10.024 -0.1077 -0.2250  0.3806
    1W        W47035   7.906  27.930   1.478  0.3435  0.2686  0.0607
    1W        W47036   5.349  11.396   1.151 -0.0598  0.0282  0.2243
    1W        W47037   5.080   1.109   1.151 -0.2856  0.0020 -0.0951
    1W        W47038   1.348  16.178  10.203 -0.1352 -0.0541 -0.1528
    1W        W47039   4.707  15.933   9.687  0.1035  0.0185 -0.2478
    1W        W47040   8.525   3.869   7.788 -0.0668  0.1903  0.1162
    1W        W47041  23.317   0.125   9.893 -0.1402  0.2090  0.2047
    1W        W47042   0.200   4.253   8.287 -0.0814  0.0538  0.0764
    1W        W47043  24.525  11.917   8.546 -0.0315 -0.0862  0.1026
    1W        W47044  11.780  10.395   0.535  0.0418  0.0281  0.1713
    1W        W47045   2.770  28.115   0.068  0.0437 -0.0587 -0.0239
    1W        W47046   2.267  18.793   8.550  0.2088 -0.0926 -0.0823
    1W        W47047  25.622  14.822   1.302  0.0170  0.2564  0.2079
    1W        W47048   9.453   0.590   9.341 -0.0241  0.3353 -0.1516
    1W        W47049  20.368   9.244   3.833 -0.1983  0.0322  0.0811
    1W        W47050  27.632  17.415   2.454  0.2018  0.1162 -0.2380
    1W        W47051   6.843  20.517   9.158 -0.1657  0.2325  0.0852
    1W        W47052  17.629   4.590   0.123 -0.2125 -0.1522 -0.2491
    1W        W47053  10.773  21.755   2.529  0.1672 -0.1760  0.1377
    1W        W47054  12.328  27.408   1.745  0.1418  0.0483 -0.3935
    1W        W47055   5.376  15.149   7.704 -0.0093 -0.0865 -0.0696
    1W        W47056   8.581   1.941   1.594  0.2911  0.4274 -0.0092
    1W        W47057  26.522   2.376   1.893 -0.2765  0.3054  0.0934
    1W        W47058   3.317  10.299   9.278 -0.0923  0.0910  0.0552
    1W        W47059   4.484  18.104   0.040 -0.0652  0.0759 -0.1965
    1W        W47060   3.987  22.917   8.890 -0.0091  0.2834  0.1620
    1W        W47061   3.534  20.933   8.805  0.4178 -0.2083 -0.1951
    1W        W47062  27.232   2.865  10.073 -0.3626 -0.0320 -0.2339
    1W        W47063   9.174   1.840   2.967 -0.1650  0.2924  0.1467
    1W        W47064   9.273   5.813   2.876 -0.1910  0.0109  0.3316
    1W        W47065  21.156   1.500   1.255  0.0607 -0.0339  0.0671
    1W        W47066  23.867   8.342   8.944 -0.0290 -0.0026 -0.0584
    1W        W47067   9.672  26.085   7.316  0.1221 -0.1598 -0.0509
    1W        W47068  23.907  18.992   0.999  0.1658  0.1179  0.1833
    1W        W47069  24.422  24.510   7.394 -0.3162 -0.0750 -0.1710
    1W        W47070  19.485  16.938   2.048 -0.1712  0.1523  0.0773
    1W        W47071  16.003  13.908   1.258  0.3571 -0.1063 -0.0257
    1W        W47072  18.051  26.637   1.371 -0.0861 -0.1928 -0.1549
    1W        W47073   0.830  16.810   9.508 -0.1558 -0.1054 -0.0574
    1W        W47074  20.644  21.112   2.923  0.0737 -0.0163 -0.1180
    1W        W47075   0.550  28.008   9.195  0.1111 -0.2434 -0.5119
    1W        W47076   5.041  14.261   7.550  0.0611  0.0987  0.0534
    1W        W47077  13.631  10.530   1.017  0.0156 -0.1734 -0.0678
    1W        W47078  13.705  22.424   0.979  0.1972  0.1249  0.2441
    1W        W47079   1.661  15.856   7.025  0.2953  0.2158  0.0529
    1W        W47080  24.483  21.885   9.986 -0.0518  0.1530 -0.3542
    1W        W47081  12.611  21.378   9.689 -0.0886  0.3178  0.0048
    1W        W47082   4.865   8.001   1.313 -0.3394  0.0511  0.3244
    1W        W47083   0.780   5.764   1.643 -0.4541 -0.0844 -0.0479
    1W        W47084  27.381   6.937   7.360  0.2812  0.4517 -0.1685
    1W        W47085   5.912  19.545   2.550  0.1892 -0.2352 -0.0227
    1W        W47086  18.523   8.361   0.142  0.2668 -0.0384 -0.2403
    1W        W47087  23.463  17.416   3.468  0.2764 -0.3193  0.0704
    1W        W47088  27.314  26.301   9.676 -0.1617 -0.4080  0.1592
    1W        W47089   7.030   9.228   8.710 -0.0248 -0.1887  0.2844
    1W        W47090  12.146   7.279  10.081  0.1288  0.1269  0.0539
    1W        W47091  15.605  18.084   0.161  0.0137 -0.2421  0.3754
    1W        W47092  26.225  21.298   8.432 -0.3080 -0.0408  0.3207
    1W        W47093   4.301  18.300   8.899 -0.3839 -0.3424  0.1389
    1W        W47094   8.623   5.880  10.225 -0.0335  0.0026  0.1859
    1W        W47095  24.359  15.225   6.573 -0.0857  0.0944  0.0163
    1W        W47096   6.661   0.182   1.653 -0.0135  0.1084 -0.1244
    1W        W47097   5.113  24.890   2.665  0.1925 -0.0194  0.0953
    1W        W47098  27.037   0.778   1.410 -0.0469  0.1815  0.1515
    1W        W47099  12.168   5.505   9.582  0.0603  0.1557  0.3309
    1W        W47100   8.973   5.555   7.227  0.2970  0.2156  0.0815
    1W        W47101   8.180  13.573   2.860  0.1912  0.1362 -0.1688
    1W        W47102   2.700  26.996   0.134  0.1379 -0.4395  0.2277
    1W        W47103  21.860  18.180   3.598  0.1778 -0.2804  0.1705
    1W        W47104  11.512  10.608   1.972 -0.0784  0.0855 -0.2949
    1W        W47105  14.756   7.515   9.771  0.0527  0.0936 -0.1079
    1W        W47106  21.017  22.658   0.426 -0.0611 -0.1978 -0.3633
    1W        W47107  20.433  23.007   9.871  0.1642  0.3019 -0.2690
    1W        W47108   6.085  20.313   9.440 -0.0608  0.1419 -0.0222
    1W        W47109  13.882  21.124   3.745 -0.1220  0.2175 -0.0185
    1W        W47110  21.356  16.705   1.818 -0.0651 -0.1829  0.1581
    1W        W47111  16.501  20.574   9.868  0.0702 -0.0464 -0.2786
    1W        W47112  16.393  24.378   0.493  0.0006 -0.2447  0.0456
    1W        W47113  24.205  21.478  10.312 -0.1271  0.2536 -0.2119
    1W        W47114  16.373   9.276   2.853  0.1983  0.2007 -0.0843
    1W        W47115   7.060  13.783   0.838  0.1151 -0.2294  0.0983
    1W        W47116  20.807   5.205   0.467  0.2888  0.1712  0.0738
    1W        W47117  25.877  11.223   1.029 -0.0141  0.2999  0.2850
    1W        W47118  24.320  27.712   8.724  0.1559  0.0260  0.0419
    1W        W47119  20.516   4.268   2.106  0.2111  0.1718  0.1219
    1W        W47120   3.836  15.903   1.791  0.3074  0.0559  0.0571
    1W        W47121  12.780  26.658   1.699  0.1179 -0.0142  0.1680
    1W        W47122  13.475   5.457   8.669  0.0856 -0.3904  0.0931
    1W        W47123   7.098   9.365   1.481  0.1478 -0.1980 -0.2279
    1W        W47124  11.854   1.747   1.575  0.0929  0.0749 -0.2203
    1W        W47125  19.453  11.365   9.272 -0.2394  0.1272  0.2480
    1W        W47126   8.820  15.184   9.353 -0.2616 -0.1119  0.0366
    1W        W47127   9.512   8.524   1.158  0.0492 -0.0268 -0.1702
    1W        W47128  27.774   1.133   1.800  0.0877 -0.1152 -0.5642
    1W        W47129   2.860  18.639   2.389 -0.0258 -0.1204  0.1762
    1W        W47130  19.378  27.952   0.233  0.2379  0.1504  0.1105
    1W        W47131  19.519   5.160   1.848 -0.0361  0.2936  0.0279
    1W        W47132   8.412   9.894   2.090  0.1495 -0.0968  0.0620
    1W        W47133   2.258   4.941   9.725  0.0548 -0.0821  0.2278
    1W        W47134  17.390   0.559   7.859  0.0271 -0.1020 -0.1235
    1W        W47135   1.751   8.710   6.190 -0.0772 -0.1431 -0.2088
    1W        W47136   5.650  14.026   0.743  0.1479  0.1709  0.4061
    1W        W47137  20.802  20.926   0.880  0.1868  0.3916  0.1790
    1W        W47138   5.648  11.070   0.928  0.1500  0.1188 -0.1367
    1W        W47139   9.414   0.678   1.457 -0.1085 -0.1220  0.0752
    1W        W47140  26.470  10.664   9.257  0.0613 -0.2051 -0.3038
    1W        W47141  14.218  18.209   7.022  0.4546  0.0657  0.0761
    1W        W47142  13.918  24.353   2.220  0.0937 -0.1686  0.1300
    1W        W47143  10.404  14.424   8.193  0.2353 -0.3343 -0.0720
    1W        W47144  13.457  11.485   2.151  0.1236  0.3798  0.2423
    1W        W47145  26.007   1.702   7.617  0.2675  0.1391 -0.2700
    1W        W47146   7.748  21.228   0.809  0.2062  0.4321  0.0037
    1W        W47147  15.975   8.928   4.599 -0.0887 -0.2154  0.1865
    1W        W47148  10.787   8.091   3.162 -0.2818  0.1942 -0.4114
    1W        W47149  18.076   2.099   2.757  0.1880 -0.2484 -0.0945
    1W        W47150  16.199   5.520  10.331  0.1298  0.3330 -0.0371
    1W        W47151   2.144   8.210   8.277  0.1725  0.1415  0.1471
    1W        W47152   0.953  15.984   7.548 -0.0305 -0.2208  0.1072
    1W        W47153  22.843   0.139  10.170  0.0231 -0.1449  0.3374
    1W        W47154  26.015   0.701   0.460  0.1861  0.0026 -0.3843
    1W        W47155  17.901   7.238   0.897 -0.0035  0.0659  0.1380
    1W        W47156  25.821  25.139   2.179  0.3457  0.0860 -0.0316
    1W        W47157  15.796  25.848   1.094  0.4028 -0.1992  0.0255
    1W        W47158  27.840  27.727   1.761 -0.3088 -0.0180 -0.0946
    1W        W47159  10.826  18.182   0.655  0.0501  0.2500  0.1044
    1W        W47160   2.966   5.292   9.446 -0.2775  0.5222 -0.1037
    1W        W47161  14.725  15.697   0.848 -0.1106 -0.0367 -0.2588
    1W        W47162   8.893   6.646   9.302 -0.0212 -0.1538  0.1410
    1W        W47163   6.238  14.693   3.677  0.1083  0.2478 -0.2963
    1W        W47164   1.681  16.979   3.000  0.4866 -0.0703  0.0738
    1W        W47165  18.907  20.513  10.000  0.0773  0.0082 -0.0992
    1W        W47166  26.146  17.086   7.750 -0.0294  0.0310 -0.0105
    1W        W47167  19.812  11.231   6.658 -0.0472  0.0272  0.0108
    1W        W47168   1.644   8.490   1.760  0.0947  0.2167  0.0576
    1W        W47169  15.903  12.723   8.982  0.2466  0.4491 -0.1260
    1W        W47170   7.678  17.876   9.434  0.1849 -0.0374  0.0500
    1W        W47171   1.842  12.472   9.307  0.0196  0.1476 -0.2758
    1W        W47172  23.171  17.441   7.591  0.1510  0.1614 -0.2418
    1W        W47173  24.051  22.365   7.831  0.2020  0.3209  0.1790
    1W        W47174  22.836  22.575   8.551 -0.1393 -0.1533  0.3805
    1W        W47175  15.547  11.785   2.534 -0.0100  0.0211  0.0888
    1W        W47176  16.367  23.391   1.900 -0.1994  0.0696 -0.0448
    1W        W47177   8.504  15.220   3.212 -0.1541 -0.0019 -0.0303
    1W        W47178  16.325  24.801   7.506  0.1666  0.1592  0.3342
    1W        W47179   7.385  27.824   9.304  0.2924 -0.0254  0.0349
    1W        W47180  13.468  20.687   1.538 -0.3491  0.4569 -0.0580
    1W        W47181  22.828  19.769   8.761 -0.1719  0.0854  0.1823
    1W        W47182   7.011   3.034   1.376  0.4803 -0.1225 -0.1859
    1W        W47183   4.082   4.593   8.957  0.1125  0.1055  0.2995
    1W        W47184  14.222  12.202  10.317  0.2285 -0.1418  0.0966
    1W        W47185   8.540  13.213   0.796  0.1137  0.0610 -0.0275
    1W        W47186  12.470  10.715   7.295  0.1589  0.1654 -0.0605
    1W        W47187  13.540  17.961   8.277 -0.3993 -0.1129  0.2605
    1W        W47188   4.293  14.515   1.237  0.2766 -0.1046 -0.0984
    1W        W47189  17.161  10.360   4.401  0.0837 -0.0700 -0.2817
    1W        W47190   2.024  17.366   3.031 -0.1345  0.1435  0.0653
    1W        W47191   1.146  11.685   0.071 -0.2234 -0.0538 -0.1165
    1W        W47192  17.588   1.174  10.112 -0.0235  0.1706 -0.2960
    1W        W47193   8.174   7.708   7.649 -0.0011  0.1487  0.0876
    1W        W47194  14.218  13.306   3.230 -0.1885  0.0310 -0.2048
    1W        W47195   9.944  15.984   0.118  0.1235  0.3005  0.0763
    1W        W47196  11.393  13.811  10.258  0.1365  0.0634  0.3575
    1W        W47197   8.009  17.648   7.529 -0.0450  0.0957  0.1617
    1W        W47198  20.570  18.756   9.991 -0.2334  0.1142 -0.0754
    1W        W47199  24.347  21.574   1.049  0.0534  0.1107  0.3572
    1W        W47200  20.773  12.395   3.322 -0.2153  0.1021 -0.0006
    1W        W47201  16.020  16.138   1.513  0.1188  0.3104 -0.2123
    1W        W47202  23.973  14.699   9.591 -0.2043  0.0883 -0.1338
    1W        W47203  24.369  18.496   9.517  0.2059 -0.0812 -0.2075
    1W        W47204   6.717  10.528   2.162  0.1740  0.0710 -0.0529
    1W        W47205   6.035   0.475   7.914  0.0018 -0.0348  0.3059
    1W        W47206  14.057  11.787   0.239  0.0079 -0.1193  0.0175
    1W        W47207  18.323  18.696   1.002  0.1821 -0.0555  0.0426
    1W        W47208   8.666  26.211   2.131 -0.0555  0.0670 -0.2428
    1W        W47209  24.752   4.926   1.989  0.1873  0.1556 -0.1160
    1W        W47210  11.177   3.762   8.754  0.1772 -0.2055  0.3370
    1W        W47211  25.519  18.221   3.119 -0.1678 -0.0590  0.0759
    1W        W47212  21.358   3.836  10.351  0.4238  0.0621 -0.0243
    1W        W47213   5.579   9.945   0.034 -0.1884  0.1919  0.0754
    1W        W47214  18.072   6.190   8.483 -0.0896 -0.0120  0.0518
    1W        W47215   3.932   0.490   9.575 -0.0606  0.1563  0.3036
    1W        W47216   3.999  19.779   9.856  0.2817 -0.1716 -0.0296
    1W        W47217   4.994  12.075  10.095  0.3864  0.0728 -0.1239
    1W        W47218  27.724   8.137   9.013 -0.0197  0.2272  0.0756
    1W        W47219   2.676  14.684   0.031 -0.0275 -0.0320 -0.2942
    1W        W47220   6.109   5.784   2.259 -0.0085 -0.1538  0.1977
    1W        W47221   9.292  15.951   2.404 -0.1594  0.0776  0.0008
    1W        W47222  12.659  21.996   1.562  0.0310  0.3996  0.3750
    1W        W47223  23.731   7.850   0.840  0.0681 -0.0095 -0.1123
    1W        W47224  21.454   5.535  10.352 -0.1879 -0.0693 -0.1445
    1W        W47225  24.343  19.717   0.975  0.3903  0.0772 -0.3800
    1W        W47226  21.569   1.197   1.089 -0.1177  0.0380  0.0524
    1W        W47227   7.426   7.714   1.572  0.0606 -0.3345 -0.0032
    1W        W47228  15.652   0.553   9.001  0.1519 -0.0135  0.1169
    1W        W47229  18.075   0.029   8.380 -0.2541 -0.1493  0.1326
    1W        W47230   8.394  19.187  10.141  0.0961  0.0339  0.2341
    1W        W47231  11.186  14.170   0.212  0.2319  0.3314  0.3418
    1W        W47232  21.110  12.545   7.539  0.3331 -0.1361  0.2823
    1W        W47233  20.007  11.322   1.876 -0.1699 -0.1590 -0.1551
    1W        W47234  22.588   3.182   2.054 -0.0927  0.0085 -0.1612
    1W        W47235  19.203  12.422   0.138 -0.0779  0.1321  0.0894
    1W        W47236   9.003   9.658  10.166 -0.1275 -0.1940  0.0930
    1W        W47237  18.957  13.064   1.199 -0.0717 -0.0059 -0.1137
    1W        W47238   9.412   7.420   0.464 -0.1576 -0.1884 -0.1437
    1W        W47239  18.993  25.584   2.082 -0.0430  0.1909  0.1074
    1W        W47240  19.255   3.563   9.063  0.0185  0.1662  0.2076
    1W        W47241  16.434  17.899   3.040  0.0401 -0.2441  0.2075
    1W        W47242   2.309  18.819   9.202  0.1307 -0.1771 -0.2522
    1W        W47243  22.649  22.791   2.828  0.1002 -0.0300  0.2054
    1W        W47244  17.220   1.557   0.001  0.0331  0.0980 -0.1951
    1W        W47245   7.790  22.137  10.145 -0.0124 -0.0564  0.1884
    1W        W47246  20.755  17.153   7.582 -0.1950 -0.2866 -0.1264
    1W        W47247  14.102   6.314   2.958  0.1344 -0.4527 -0.0044
    1W        W47248  25.112  15.113   0.257 -0.0898 -0.0666 -0.3411
    1W        W47249  23.465  10.494   8.275 -0.0217 -0.2691  0.2119
    1W        W47250  27.869   2.220   8.489  0.0824  0.0741 -0.0748
    1W        W47251   3.144  12.279   7.097 -0.4192 -0.2531 -0.0702
    1W        W47252   8.319   9.537   7.981  0.3348  0.1140 -0.0433
    1W        W47253  10.518   8.436   9.253 -0.2284 -0.0034  0.2582
    1W        W47254  14.913   8.512   9.445  0.1975  0.2576 -0.0503
    1W        W47255  20.304   1.364   0.779 -0.0778 -0.2120  0.3451
    1W        W47256  21.713  20.708   8.134  0.0033 -0.1442 -0.0163
    1W        W47257  23.813  24.270   0.014  0.0786 -0.2061 -0.0032
    1W        W47258   0.746   6.373   9.442 -0.2064 -0.0335  0.1533
    1W        W47259  11.298  25.385   8.805 -0.1052 -0.0407 -0.1400
    1W        W47260   9.836  24.716   9.772  0.3667 -0.2217  0.2488
    1W        W47261   1.883  13.920   1.520 -0.1027  0.0056  0.3264
    1W        W47262   3.202  19.057   3.438 -0.0980 -0.0201  0.1057
    1W        W47263  25.441   7.006   6.659 -0.1529 -0.4336  0.2592
    1W        W47264  18.710  27.358   9.400  0.3527  0.2082 -0.2510
    1W        W47265  27.280   5.306  10.240 -0.0797  0.2074 -0.3383
    1W        W47266  24.351  21.096   3.321 -0.1234  0.2259 -0.3804
    1W        W47267   4.595  27.544   9.528 -0.0116  0.1085 -0.4103
    1W        W47268  16.713   4.165   0.538 -0.4588 -0.0121  0.0515
    1W        W47269  13.979  21.006   9.069  0.2248 -0.1814 -0.0344
    1W        W47270   2.301  12.103   2.534  0.1456  0.2255  0.0704
    1W        W47271  22.274  28.033   9.669 -0.0273 -0.2212 -0.1166
    1W        W47272  25.897  15.209   8.897 -0.0647 -0.4879  0.0454
    1W        W47273  26.924  21.774   9.901  0.4024 -0.1043 -0.2685
    1W        W47274  20.686   9.316   2.502  0.1014  0.0373 -0.1025
    1W        W47275  19.566  10.771   9.234 -0.0064 -0.0460 -0.1563
    1W        W47276   5.418  11.728   2.219  0.1389 -0.2573 -0.0770
    1W        W47277  24.894  20.418   2.298 -0.0585  0.2483 -0.1725
    1W        W47278   9.237   6.931   2.399 -0.0581 -0.3750 -0.1729
    1W        W47279  16.969  23.640  10.275  0.1874 -0.3010 -0.1491
    1W        W47280   6.607  13.466   9.369  0.1734 -0.0933 -0.1686
    1W        W47281   6.172  17.091   9.054 -0.0557  0.0932  0.1096
    1W        W47282  16.901   2.124   2.115 -0.4129 -0.2770  0.3429
    1W        W47283  11.373  23.984   7.904  0.0213 -0.0421 -0.3471
    1W        W47284   3.772  18.588   9.053 -0.1939 -0.0912 -0.1615
    1W        W47285  26.432  18.309   0.138  0.1595  0.1804 -0.1171
    1W        W47286  13.373   1.947   2.687  0.0996 -0.2963  0.1482
    1W        W47287  27.801  21.528   8.172 -0.1171  0.1891  0.0732
    1W        W47288  17.479   4.972   8.058 -0.1142 -0.0961 -0.0382
    1W        W47289  13.961  14.911   8.213  0.1055 -0.2324  0.1819
    1W        W47290  17.458   7.339   8.398 -0.0640 -0.1789 -0.0556
    1W        W47291  13.500  21.796   0.058  0.1120 -0.2283  0.1204
    1W        W47292  18.900  11.792   3.204 -0.0307  0.0796  0.2227
    1W        W47293   9.567   7.224   9.660 -0.2114  0.1903 -0.1456
    1W        W47294   9.816  10.170   7.130 -0.1525  0.0633 -0.3814
    1W        W47295  28.064   7.229   7.126  0.2425 -0.3438  0.1010
    1W        W47296  12.302   1.616   8.618 -0.0952  0.1379 -0.1264
    1W        W47297  26.878  19.540   1.774  0.0998 -0.0687 -0.1594
    1W        W47298  27.106  15.249   9.067 -0.0931 -0.0414 -0.3067
    1W        W47299  22.161  22.475   9.213 -0.0321 -0.2150  0.2261
    1W        W47300  13.465   8.228   8.581  0.0996  0.1652  0.1347
    1W        W47301  22.371  11.780   7.485  0.2707  0.1554  0.3316
    1W        W47302   2.194   8.388   2.866 -0.1388 -0.0161 -0.1705
    1W        W47303  10.904  20.905   2.506 -0.1969 -0.2029 -0.0242
    1W        W47304   4.843   5.479   9.659 -0.0093  0.1810 -0.3035
    1W        W47305  24.275  26.862   2.110  0.2505  0.1372  0.2103
    1W        W47306  21.529   9.773   8.533  0.1954 -0.2867  0.2990
    1W        W47307   6.441   3.393   8.712  0.0908  0.0278 -0.0642
    1W        W47308  16.950   0.263   2.495  0.1575  0.1648 -0.0968
    1W        W47309  23.626   6.976   3.281 -0.2416 -0.2604  0.0877
    1W        W47310  14.702  26.368   8.220  0.2244  0.0102 -0.0326
    1W        W47311   7.658  10.833   2.841 -0.1056 -0.3930  0.2035
    1W        W47312  14.980   1.848   9.245  0.1920 -0.1230 -0.4768
    1W        W47313   6.042  17.024   2.717 -0.2482  0.0700  0.0878
    1W        W47314  13.912   3.999   0.109  0.1182  0.2563 -0.0110
    1W        W47315  13.530  17.870   0.395  0.0291 -0.1327  0.1913
    1W        W47316  10.500   7.977   0.171  0.0290  0.0337  0.3283
    1W        W47317   8.881  25.593   7.714 -0.4342 -0.1260  0.0718
    1W        W47318   4.887  15.093   1.004  0.1609 -0.1454  0.0736
    1W        W47319  13.310  16.605   0.183 -0.0502 -0.2242  0.0899
    1W        W47320   3.781  16.121   9.033 -0.0579  0.0303 -0.2091
    1W        W47321   3.236   8.717   8.118  0.0573 -0.0818 -0.1572
    1W        W47322  12.442  16.732   2.947 -0.1869  0.0651 -0.1373
    1W        W47323  15.365  15.003   1.624 -0.2425 -0.1828  0.1098
    1W        W47324  10.717  18.982   3.136  0.0727 -0.0188 -0.3743
    1W        W47325  20.547   7.153   1.684  0.2574 -0.1379  0.4272
    1W        W47326  17.239   4.718   2.267  0.0898 -0.1071 -0.0109
    1W        W47327   8.433  16.852   1.919  0.1105 -0.0426  0.0327
    1W        W47328  16.829   3.052   8.809  0.2571  0.0517 -0.2438
    1W        W47329  18.123  23.312   0.121  0.1754  0.4423 -0.2199
    1W        W47330   8.251  27.596   8.192  0.0083 -0.1976 -0.1877
    1W        W47331  24.988   2.681   8.976  0.1574  0.1753 -0.1102
    1W        W47332  19.552  26.617   1.857  0.0046  0.1066  0.2932
    1W        W47333  24.503  25.968   9.163  0.0198  0.0641  0.3088
    1W        W47334  24.596  26.810   8.593  0.2174 -0.3130 -0.3071
    1W        W47335  25.562   7.673   0.676 -0.0887  0.1775  0.1375
    1W        W47336   4.613  21.501   7.471 -0.1333  0.4028 -0.2144
    1W        W47337  17.025  11.765   0.995 -0.1784  0.0740 -0.2340
    1W        W47338  11.282   1.052   8.139  0.0362 -0.3024  0.0441
    1W        W47339  18.558   6.494   9.726 -0.1446 -0.0482 -0.1334
    1W        W47340   2.722  26.693   3.186 -0.2157  0.2565 -0.3830
    1W        W47341  12.431   1.597   9.129  0.4183 -0.1053  0.2284
    1W        W47342   0.106  11.819   9.676  0.0871 -0.1082 -0.1024
    1W        W47343  27.339   9.313   1.586 -0.2107  0.2944  0.2888
    1W        W47344   0.105   8.121   8.936  0.0132 -0.0331  0.0865
    1W        W47345   8.460   6.130   2.510 -0.1317  0.3625  0.3874
    1W        W47346   6.450  23.399   7.483  0.2077  0.0994 -0.1333
    1W        W47347  10.316   0.163   1.715  0.1208 -0.0402 -0.3533
    1W        W47348  19.167  14.365   0.893  0.1869  0.1269 -0.0675
    1W        W47349  18.612   4.512   7.516 -0.1681  0.4073 -0.0211
    1W        W47350   6.511  25.865   2.171 -0.1229 -0.1580  0.0898
    1W        W47351  20.420   3.358   7.998  0.1901 -0.1807 -0.1016
    1W        W47352  20.405   4.411   2.552 -0.4164  0.1813 -0.0606
    1W        W47353   7.559  13.569   0.808  0.0678 -0.1108 -0.2023
    1W        W47354   7.885  19.732   1.813  0.1481  0.1254  0.2768
    1W        W47355  21.021  20.356   9.385  0.0947 -0.0769  0.1081
    1W        W47356  10.493  11.004   9.392 -0.1004 -0.1865  0.0546
    1W        W47357  21.947   3.669   2.268 -0.0463 -0.1365 -0.1703
    1W        W47358   0.073  12.517   1.501  0.4202 -0.0302  0.0261
    1W        W47359   2.673  24.411   2.377  0.0722 -0.0746 -0.2154
    1W        W47360   1.876  23.047   1.574  0.0507  0.2423  0.1425
    1W        W47361  12.595   1.715   0.589 -0.0341 -0.0342 -0.4546
    1W        W47362  14.173  14.441   8.944  0.0917  0.0760  0.1021
    1W        W47363  20.678  23.944   7.280 -0.2478 -0.2222  0.1924
    1W        W47364  22.340  23.030   0.955 -0.0467 -0.3736 -0.0171
    1W        W47365  27.014  22.282   9.674 -0.0841 -0.0557 -0.3088
    1W        W47366  22.650  24.244   3.157 -0.0080  0.0273 -0.0742
    1W        W47367   8.129  21.445   7.969 -0.0682  0.2210  0.1207
    1W        W47368   8.583  23.695   8.094 -0.0387  0.0018  0.2034
    1W        W47369  13.954   5.794   3.621  0.1279  0.1145 -0.3474
    1W        W47370  26.744   6.994   8.783  0.2211  0.0692  0.0135
    1W        W47371   6.564   1.766   9.062  0.0018 -0.0707 -0.2919
    1W        W47372  12.101   4.788   9.198 -0.1304  0.2486  0.0297
    1W        W47373   5.176   2.736   7.118  0.0057 -0.0315 -0.4512
    1W        W47374  17.011   4.024   0.002  0.0655  0.0683 -0.2401
    1W        W47375   6.554  12.893   8.553  0.1387  0.4411  0.0792
    1W        W47376   9.275  27.869   2.864 -0.1241  0.2271 -0.3231
    1W        W47377   4.309   3.088   1.615  0.1525 -0.1261  0.0196
    1W        W47378  10.376  15.878   8.413  0.1312  0.1754  0.1328
    1W        W47379   9.777   4.650  10.123  0.1473 -0.4062  0.0451
    1W        W47380   6.996   0.660   2.470  0.0857  0.1204 -0.1310
    1W        W47381   7.862  20.076   8.509  0.0312 -0.1326  0.1097
    1W        W47382  26.323   9.889   2.334  0.0922  0.2175 -0.1299
    1W        W47383   9.372  13.586   9.310 -0.2271 -0.1666  0.2989
    1W        W47384  10.190   3.509   2.227  0.2277  0.0537  0.1206
    1W        W47385  26.404   9.373   6.868 -0.0992 -0.1443  0.1215
    1W        W47386  24.835  21.799   2.276  0.2451 -0.1222 -0.0708
    1W        W47387   8.602  20.266   1.743 -0.0699 -0.2178 -0.1623
    1W        W47388  27.765  25.539   3.461 -0.4205  0.0816 -0.3266
    1W        W47389   2.199   4.615   6.647 -0.0724 -0.0038  0.0583
    1W        W47390  19.266   2.840   7.706 -0.2418 -0.1302  0.2241
    1W        W47391   6.859  19.237   8.867  0.1031 -0.0258 -0.2768
    1W        W47392  18.032  14.157   0.867 -0.2796 -0.2432  0.1065
    1W        W47393  26.466  24.879   1.127 -0.4123  0.0930  0.0331
    1W        W47394  12.682   9.935   0.651  0.1887  0.0091 -0.2800
    1W        W47395   6.966  27.518   0.467 -0.0981  0.0342 -0.4052
    1W        W47396  17.957  26.953   0.435  0.0407  0.0112  0.4148
    1W        W47397   3.053  15.303   8.436 -0.3390  0.1415 -0.3705
    1W        W47398  23.251  25.371   3.085  0.0322  0.2964 -0.1462
    1W        W47399  15.436  25.271   8.885  0.1449 -0.2275  0.0121
    1W        W47400   6.906   1.021   2.765 -0.1767  0.1902  0.1618
    1W        W47401   2.458   7.521  10.135 -0.1576  0.0313 -0.1427
    1W        W47402  24.148   9.987   9.571  0.0240  0.0853 -0.0515
    1W        W47403   5.209  22.081   3.081  0.1628  0.0728  0.2527
    1W        W47404   7.718  21.676   7.732  0.0320 -0.1961 -0.0905
    1W        W47405  21.977  11.341   3.467 -0.1173  0.2299 -0.1079
    1W        W47406  13.734  15.230   0.690 -0.0936  0.4568 -0.2005
    1W        W47407  15.028   3.295   7.839 -0.0500 -0.0843 -0.4564
    1W        W47408   7.363   0.560   9.852  0.0436 -0.2034  0.0302
    1W        W47409  17.436  19.384   0.304 -0.1722  0.1867 -0.2897
    1W        W47410   3.751   4.318   0.884  0.2023 -0.0849  0.2874
    1W        W47411   2.353  28.114   9.931 -0.0998  0.0483  0.1945
    1W        W47412   2.192  24.701   2.035 -0.2028 -0.0875  0.0455
    1W        W47413  11.303  13.693   0.995  0.3144 -0.2265  0.0917
    1W        W47414  12.270  25.183   2.832 -0.1143 -0.1464 -0.0839
    1W        W47415  20.483  16.082   8.156  0.0245  0.0949  0.0896
    1W        W47416  10.914  14.578   0.395 -0.2446  0.1007  0.0626
    1W        W47417   5.528   7.635   8.056  0.1345  0.1580 -0.0942
    1W        W47418   5.349  20.054   4.121  0.3470 -0.0449  0.0011
    1W        W47419  17.852  21.803   1.031 -0.0378  0.0792 -0.0458
    1W        W47420   6.908  25.325   0.249 -0.0272 -0.0335  0.2041
    1W        W47421   8.366  25.517   9.539 -0.1059 -0.1346 -0.0626
    1W        W47422   7.912   7.407   1.900 -0.2358 -0.1786 -0.0946
    1W        W47423   3.552  24.049   9.610  0.1997  0.2723  0.0835
    1W        W47424   1.354  20.237   1.088 -0.1909 -0.0991 -0.1768
    1W        W47425  15.948   4.380   0.900 -0.0537 -0.0724  0.1110
    1W        W47426   9.932  10.152   3.058 -0.0687 -0.4102 -0.1812
    1W        W47427  22.388   8.078   8.607  0.1327  0.0351 -0.1346
    1W        W47428  13.527   1.337   1.049  0.0753 -0.3473 -0.4116
    1W        W47429  24.292   7.373   0.756  0.0701 -0.0018 -0.0583
    1W        W47430  25.136   9.463   2.173 -0.0629 -0.0101 -0.1720
    1W        W47431   2.246  27.760   1.614 -0.1673 -0.1266  0.0414
    1W        W47432  13.216  27.111   9.553 -0.0328  0.2079 -0.1322
    1W        W47433  15.896   1.825   1.043 -0.3298  0.1541  0.0267
    1W        W47434  26.041  27.346   9.633  0.1081  0.0260  0.0465
    1W        W47435   4.001  16.274   1.264 -0.0156  0.2591 -0.1725
    1W        W47436   8.823  24.284   0.591  0.0768  0.0710 -0.2462
    1W        W47437  11.450  26.134  10.142 -0.0153  0.2236  0.0768
    1W        W47438   9.897  18.948   8.735  0.0687  0.2390  0.3044
    1W        W47439  12.545  21.684   8.908  0.0200 -0.0439 -0.0121
    1W        W47440  11.439   8.514   8.891  0.3150  0.0485 -0.0785
    1W        W47441   9.574  18.224   9.994  0.3110 -0.1937  0.1143
    1W        W47442  19.153   4.264   8.364 -0.3625 -0.0221 -0.2024
    1W        W47443  18.847  15.337   0.029 -0.2572 -0.1182  0.2187
    1W        W47444   9.801  21.450   1.728 -0.0210 -0.0218  0.1138
    1W        W47445  15.350  12.958   9.869  0.0982 -0.3012  0.4295
    1W        W47446   6.453  26.534   2.387  0.1618 -0.0484  0.0712
    1W        W47447   7.927  20.055   9.514 -0.0062 -0.2634 -0.0608
    1W        W47448  16.585   5.594   9.945 -0.1847 -0.2370 -0.2106
    1W        W47449  22.955   4.953   6.867 -0.2453  0.0341 -0.1819
    1W        W47450  19.320   8.927   8.154  0.0811 -0.0146 -0.0133
    1W        W47451  24.002   8.313   0.919  0.0366 -0.1659  0.1589
    1W        W47452   0.946   1.831   9.471  0.1840  0.1431  0.0454
    1W        W47453  24.957  25.555   7.954  0.0375  0.0952  0.2336
    1W        W47454   7.694  19.006   9.901  0.0954 -0.0912 -0.0517
    1W        W47455   9.009  17.687   0.625 -0.2551 -0.1449  0.2346
    1W        W47456   6.898  22.658   7.589  0.3015  0.0942  0.0003
    1W        W47457   5.240  17.543   7.544 -0.0131  0.2560 -0.1373
    1W        W47458   4.466  14.400   7.402  0.1158  0.2182 -0.1894
    1W        W47459   1.301   3.937   1.629  0.0147  0.3254  0.2031
    1W        W47460  19.229  15.085   0.158  0.1396 -0.0035  0.0100
    1W        W47461   3.395  10.743   1.854  0.0631 -0.0202 -0.0240
    1W        W47462   3.216  26.477   8.301  0.1620  0.0355 -0.0983
    1W        W47463  15.637  19.954   0.198 -0.0477 -0.2358  0.0672
    1W        W47464   1.416  18.018   1.499 -0.1480  0.3316 -0.1183
    1W        W47465  11.610   2.679   9.825  0.1370  0.0973 -0.3223
    1W        W47466  15.512  18.894   9.223 -0.1406 -0.0872 -0.1874
    1W        W47467  12.575   7.650   9.288 -0.0995 -0.1449 -0.1411
    1W        W47468  24.821  27.690   8.622  0.0961  0.3419  0.0965
    1W        W47469   2.482  18.043   9.123 -0.1243  0.0486  0.0040
    1W        W47470  18.900  24.315   6.923 -0.0214  0.0410  0.1294
    1W        W47471  21.933   7.492   8.914 -0.1661 -0.0600 -0.1262
    1W        W47472  12.340  18.399   3.229 -0.3008 -0.0346 -0.2603
    1W        W47473   5.366  25.636   0.509 -0.1610 -0.0649  0.1348
    1W        W47474  20.856   4.287   7.849 -0.0760  0.1076 -0.2983
    1W        W47475  16.590   3.339   9.269  0.0688 -0.0457  0.0220
    1W        W47476  20.742   9.813   9.539 -0.2184 -0.2277  0.1594
    1W        W47477   1.423  13.615   7.026 -0.0667 -0.2686  0.2017
    1W        W47478   4.573   3.871   9.973 -0.3719 -0.2558 -0.1359
    1W        W47479  14.737  15.237   3.389  0.4457  0.0149 -0.0474
    1W        W47480   5.747  10.873   1.874 -0.0659 -0.0641 -0.0183
    1W        W47481  20.894   1.922   0.393  0.2446  0.1201  0.2720
    1W        W47482  19.528  24.293   0.721  0.1948 -0.5291 -0.2155
    1W        W47483   9.891  25.817   8.630 -0.2177  0.1007 -0.1838
    1W        W47484   2.587  19.185   9.528 -0.0574 -0.1546  0.2080
    1W        W47485  15.996   5.250   2.555 -0.1075  0.1624  0.1370
    1W        W47486  19.928  25.941  10.300 -0.2302  0.0003  0.2714
    1W        W47487  27.684  23.680   8.545 -0.3032 -0.1562  0.1200
    1W        W47488  12.506  19.532   9.749 -0.1734  0.4583  0.0901
    1W        W47489  24.430   3.095   3.323  0.1165 -0.1185 -0.0154
    1W        W47490   8.330  12.761   8.205  0.0307 -0.0468  0.1481
    1W        W47491  24.697  15.620   2.523 -0.0572  0.0340  0.1971
    1W        W47492  24.154   8.607   1.741 -0.4017  0.1419 -0.0590
    1W        W47493  14.091   2.358  10.216  0.0462  0.0595 -0.1078
    1W        W47494   9.186   4.384   7.696  0.0410 -0.1356  0.1242
    1W        W47495  23.342   9.479   0.389  0.0035  0.2820 -0.0925
    1W        W47496  24.200  24.410   8.989  0.0345  0.0385  0.0076
    1W        W47497  22.386  19.132   9.635 -0.3049  0.3046  0.1043
    1W        W47498  12.028  11.381   1.688 -0.1487  0.2801 -0.2369
    1W        W47499   1.874  22.499   1.455  0.0059  0.2115 -0.2026
    1W        W47500  27.660  10.816   2.467 -0.0878  0.1938  0.0277
    1W        W47501  16.250  12.584   2.565 -0.0996  0.0798  0.0422
    1W        W47502  27.767   9.868   8.464 -0.0196  0.0143  0.1206
    1W        W47503  19.016  17.873   8.961 -0.1897 -0.2279 -0.2519
    1W        W47504  22.384  10.876   1.670 -0.2827  0.2380 -0.0685
    1W        W47505  27.052  12.799   8.308 -0.0099 -0.2049 -0.0686
    1W        W47506  22.301  13.136  10.271 -0.1371 -0.1640 -0.1752
    1W        W47507   9.427  12.394   7.421  0.0676  0.2821 -0.1137
    1W        W47508   3.100  18.672   8.518 -0.3553  0.2968 -0.1487
    1W        W47509  10.749  23.785   0.839  0.2742  0.0272 -0.0518
    1W        W47510  28.107  17.797   7.212 -0.0036  0.2504 -0.1447
    1W        W47511   5.008  27.859   1.728  0.1881  0.3169 -0.2432
    1W        W47512  13.431  22.940   1.002  0.0486 -0.1775  0.0364
    1W        W47513  24.533  27.246   7.961  0.4438  0.0260  0.0846
    1W        W47514  27.721  22.113   1.728  0.0919  0.3133  0.0610
    1W        W47515   5.247   3.724   8.111  0.1514  0.3524  0.2179
    1W        W47516   5.382  17.005   7.741 -0.0504  0.4335 -0.1100
    1W        W47517  27.354  10.104   8.863  0.2601 -0.0890  0.0290
    1W        W47518  16.904  20.644   0.819 -0.0362  0.1826  0.0883
    1W        W47519  17.846   8.945   9.746  0.2406 -0.0763 -0.1115
    1W        W47520  18.406  20.164   0.216  0.2153 -0.2052 -0.1226
    1W        W47521  22.841  22.983   9.002 -0.0740  0.1485  0.2495
    1W        W47522  20.816  14.561   8.368  0.0600 -0.1384  0.1238
    1W        W47523  16.198  14.309   8.098  0.0097  0.0488  0.0757
    1W        W47524  14.128  21.477   8.426 -0.0141  0.1588 -0.0006
    1W        W47525   0.241  19.778   9.347 -0.1101  0.0823  0.1157
    1W        W47526  18.097  14.738   2.811 -0.0840  0.0635 -0.1727
    1W        W47527   6.985   3.276   0.798  0.1989  0.2944 -0.0371
    1W        W47528  11.959  12.998   1.263  0.0354 -0.1253  0.3587
    1W        W47529  19.342  19.779   1.118  0.3176  0.3406 -0.0573
    1W        W47530   0.850  10.570   2.459 -0.2923  0.2767 -0.4536
    1W        W47531   9.043  16.877   7.683  0.1013 -0.0190  0.0478
    1W        W47532  17.640  15.405   3.131  0.1832 -0.0603  0.1429
    1W        W47533   2.547   4.988   6.409 -0.0305  0.0146 -0.0663
    1W        W47534  21.702  22.421   9.388 -0.1342 -0.2394  0.0445
    1W        W47535   4.227   8.803   8.039  0.3297  0.1043 -0.2300
    1W        W47536  16.001  14.433   1.288 -0.3124  0.0740  0.0924
    1W        W47537  15.576  26.427   7.923 -0.2305 -0.4002  0.0097
    1W        W47538   7.952  24.968   9.434 -0.4173 -0.0780  0.1111
    1W        W47539  27.303   0.335   2.150 -0.3105  0.1028 -0.1246
    1W        W47540   3.726   5.594   7.823  0.4592  0.0819  0.2362
    1W        W47541   9.430   4.646   8.673 -0.2005 -0.1854 -0.0445
    1W        W47542  20.215  11.394   3.208  0.0212  0.0623  0.1780
    1W        W47543   0.543  12.145   7.099  0.0038 -0.1496 -0.0511
    1W        W47544  14.649   6.619   9.123  0.3850 -0.1200  0.3770
    1W        W47545  18.062  16.786   2.038  0.3407 -0.0087  0.1235
    1W        W47546   6.598  27.784   0.165  0.2014 -0.2142 -0.0315
    1W        W47547  19.329   6.632   9.016  0.3030 -0.1161 -0.0409
    1W        W47548  23.725  16.292   6.710 -0.1735 -0.0277  0.1566
    1W        W47549  14.895  13.262   1.123  0.0188 -0.0874 -0.0825
    1W        W47550  19.972   7.407   7.161 -0.0334  0.5303 -0.1585
    1W        W47551  22.708  23.627   9.770 -0.4865 -0.1575 -0.0809
    1W        W47552  21.690  25.047   0.071  0.0401  0.1190 -0.1099
    1W        W47553  18.797   5.127   9.182  0.1199  0.2337  0.2074
    1W        W47554   5.724  13.981   0.218 -0.0207 -0.4401 -0.3140
    1W        W47555  22.515   6.348   0.340  0.2279  0.2739 -0.2696
    1W        W47556   6.314  15.188   8.747 -0.3063 -0.0182  0.2783
    1W        W47557   3.586   9.392   1.133 -0.1491 -0.0471  0.2027
    1W        W47558  11.064  22.432   0.755  0.2064  0.1379  0.0403
    1W        W47559   6.986  20.922   8.505  0.1380 -0.0215 -0.2359
    1W        W47560  13.841  18.219   7.951  0.0005 -0.2871 -0.0025
    1W        W47561   5.622  25.749   9.912 -0.0649  0.2423  0.0403
    1W        W47562  10.322   2.583   1.770  0.2598 -0.0098  0.0655
    1W        W47563   5.158  20.448   7.891 -0.4439  0.2164 -0.4054
    1W        W47564  23.675   8.624   6.815  0.2907 -0.0938 -0.3103
    1W        W47565  25.854  11.486   8.264  0.1523  0.0217  0.2676
    1W        W47566  23.511  16.559   2.309 -0.1573  0.0134 -0.0199
    1W        W47567   2.462  27.195   0.847  0.1981  0.2250 -0.3270
    1W        W47568   8.120   5.329   1.212 -0.1260  0.0336 -0.0181
    1W        W47569  23.614  17.813   2.564  0.0094  0.0677  0.0377
    1W        W47570   4.853   7.695   8.537  0.4541 -0.0685  0.0034
    1W        W47571   2.559   8.916   8.107 -0.0117  0.2217  0.1316
    1W        W47572  22.706   6.034   9.935 -0.1672 -0.0416  0.4201
    1W        W47573  15.697  13.704   9.277 -0.1726 -0.2320 -0.1586
    1W        W47574   5.671  17.197   9.302  0.1162 -0.2444 -0.0570
    1W        W47575  23.346   8.975   2.041 -0.1746  0.0200 -0.4101
    1W        W47576  26.944  16.118   8.543 -0.0919  0.1515  0.0408
    1W        W47577  16.024  17.654   2.277  0.0001 -0.0131 -0.0359
    1W        W47578  11.298   3.556   9.619 -0.1445  0.1501  0.0688
    1W        W47579   3.630  23.778   1.276 -0.1005 -0.1494  0.0214
    1W        W47580  13.093   8.574   8.465  0.0526 -0.1512  0.1358
    1W        W47581  10.030  14.169   1.214  0.0017 -0.0296 -0.2455
    1W        W47582   9.679  18.885   9.538 -0.5773  0.2912  0.0702
    1W        W47583  22.633  13.418   8.762 -0.0493 -0.1037  0.0557
    1W        W47584   5.081  17.539   0.935 -0.2433  0.1045 -0.1386
    1W        W47585  12.014  13.012  10.307 -0.1110  0.1829 -0.1106
    1W        W47586  20.612   7.438   0.858  0.0022 -0.0533  0.0461
    1W        W47587  12.578  12.979   3.708  0.1354 -0.0208 -0.1532
    1W        W47588   1.074  17.169   1.574  0.0549  0.1256  0.0224
    1W        W47589  18.291  26.154   8.569  0.1056  0.0467 -0.1011
    1W        W47590  13.662  10.987   0.352 -0.3452  0.1465 -0.0941
    1W        W47591  24.319   8.155   8.175  0.1140  0.2614  0.0330
    1W        W47592  17.452  27.553   3.171  0.2603 -0.1272 -0.3692
    1W        W47593  23.294  18.722   9.631 -0.1557  0.0759 -0.1319
    1W        W47594  20.376  16.002   7.580 -0.1159  0.0388  0.0867
    1W        W47595   8.841  11.802   3.096 -0.0628 -0.1914 -0.1644
    1W        W47596  14.065  13.550   3.682  0.3191 -0.4063 -0.0558
    1W        W47597   2.348  15.445   0.009  0.3018 -0.1218  0.2039
    1W        W47598  13.233   7.284   2.337  0.3096  0.2085  0.1067
    1W        W47599   8.755  22.011   8.420  0.1529 -0.3587  0.4967
    1W        W47600  12.250  21.796   7.384 -0.5698 -0.0997 -0.0869
    1W        W47601  12.787   6.153   8.480  0.0244  0.1440 -0.1700
    1W        W47602   4.005   0.674   0.554 -0.3605 -0.2081 -0.2909
    1W        W47603  23.955  27.876   1.891  0.1330 -0.0267 -0.0156
    1W        W47604   8.085   9.062   2.647  0.1341  0.1115  0.0023
    1W        W47605  19.354  26.149   8.549 -0.0306 -0.1077 -0.0179
    1W        W47606   2.701  12.393   2.486 -0.1690  0.2463  0.0420
    1W        W47607  20.080  20.143   0.932 -0.2035 -0.0219  0.2979
    1W        W47608  25.299  13.422   7.960  0.1029  0.1737 -0.1720
    1W        W47609  24.046  13.104   1.749 -0.1453 -0.1125  0.1669
    1W        W47610   2.254   3.345   8.657  0.0120 -0.0271  0.2015
    1W        W47611  18.574   4.549   0.049  0.0574 -0.0222 -0.2286
    1W        W47612  21.256  12.488   6.641 -0.0408  0.2428  0.2115
    1W        W47613  26.575   6.369   1.023 -0.0857  0.0241 -0.2997
    1W        W47614   7.980  19.560   8.587 -0.3583 -0.2679 -0.1623
    1W        W47615   7.725  15.559   0.069  0.0328 -0.1001  0.1826
    1W        W47616   4.109  11.740   8.872 -0.1218 -0.0745  0.2009
    1W        W47617  21.729  13.027   9.257  0.3552 -0.1862 -0.2537
    1W        W47618   3.443  15.418   2.355  0.1894 -0.1717  0.3042
    1W        W47619   4.419  20.692   2.997 -0.1813  0.0927 -0.2361
    1W        W47620  26.784   4.449   1.905  0.0196 -0.2271 -0.1471
    1W        W47621   3.472   3.225   6.555  0.0866 -0.0986 -0.0658
    1W        W47622  12.303  22.592   6.886  0.0215 -0.2225  0.0877
    1W        W47623  25.119  26.075   3.402  0.1622 -0.0601  0.2342
    1W        W47624   4.443   2.628   0.299 -0.1957 -0.1443  0.0296
    1W        W47625  26.784  25.396   1.059  0.2895  0.2493 -0.0145
    1W        W47626   0.577  11.742   7.390 -0.0015  0.2012  0.1677
    1W        W47627  19.754  22.061   9.780  0.2307 -0.0275 -0.1189
    1W        W47628  23.662  27.930   7.859  0.0056  0.0499 -0.0874
    1W        W47629  25.262   6.619   8.728 -0.0071  0.0237  0.2473
    1W        W47630  18.010   3.571   6.935  0.0925 -0.3745 -0.1785
    1W        W47631   0.247  24.371   1.532 -0.3865  0.0271  0.0167
    1W        W47632   7.603  21.394   0.338  0.0106  0.2513 -0.2370
    1W        W47633  17.472   7.357   1.209 -0.0381 -0.1821 -0.5148
    1W        W47634   9.308  18.453   1.711 -0.2446  0.3543 -0.0766
    1W        W47635  25.027  19.369   8.681  0.1293  0.0334 -0.2561
    1W        W47636   9.980  13.870  10.153 -0.2315 -0.1860 -0.1096
    1W        W47637   7.583   8.290   7.541  0.2452  0.1392  0.0871
    1W        W47638   6.423   2.127   0.574  0.1121 -0.2604 -0.2098
    1W        W47639   6.682   4.227   2.040  0.2454 -0.1701 -0.2793
    1W        W47640  10.581   1.918   9.645  0.1480 -0.2570 -0.0045
    1W        W47641   2.138   1.176   7.164 -0.2392  0.0087  0.0984
    1W        W47642  13.625  21.502   7.319 -0.0586  0.0549  0.1382
    1W        W47643   6.319  18.583   0.499 -0.1557 -0.2012  0.0457
    1W        W47644   1.866  27.797   1.982 -0.0607 -0.1785  0.1548
    1W        W47645  19.558   8.254   2.602  0.1400  0.0618  0.1113
    1W        W47646  16.696  23.605   0.314  0.1264  0.3157 -0.0357
    1W        W47647  19.726   0.318   1.569  0.1114  0.0996  0.2258
    1W        W47648  21.714   2.050   9.773 -0.2796  0.2077 -0.1571
    1W        W47649  26.414   5.564   9.857  0.0495  0.0082 -0.0298
    1W        W47650  26.889  19.075   6.766 -0.3406  0.0761  0.2157
    1W        W47651   1.537  25.544   8.068  0.1832 -0.2578 -0.1400
    1W        W47652  15.862  11.670   4.028  0.0160  0.0674  0.2817
    1W        W47653  22.634  24.303   0.111 -0.2437  0.1884 -0.0074
    1W        W47654  14.514  19.800   7.159  0.1118 -0.0828 -0.0921
    1W        W47655   0.103  14.071   2.295  0.0088  0.1105  0.2084
    1W        W47656  25.201   9.094   9.477 -0.0854  0.1322  0.2280
    1W        W47657  20.493  12.270   9.052  0.0291 -0.4070  0.1191
    1W        W47658   9.136  13.106   9.232  0.0969  0.0686 -0.1004
    1W        W47659  13.379  16.907   8.273  0.0884 -0.1236  0.0745
    1W        W47660  24.992   8.181   1.277  0.1114 -0.4092 -0.0052
    1W        W47661  24.695  19.186   9.132  0.3257 -0.2794  0.1913
    1W        W47662  21.893   8.126   7.644  0.1444 -0.1252  0.1537
    1W        W47663  20.487  11.285  10.340  0.4865 -0.0269  0.2473
    1W        W47664  26.340  14.596   7.117  0.0963 -0.4514  0.0458
    1W        W47665   5.426  13.081   7.900 -0.0111 -0.1557  0.0371
    1W        W47666   8.743  20.301   3.121 -0.1547 -0.0185 -0.0245
    1W        W47667  12.927  14.749   9.458  0.0846  0.1051  0.0598
    1W        W47668  10.346  20.782   7.745  0.1163  0.2212  0.1465
    1W        W47669   8.508  12.289   9.088 -0.2835  0.2875 -0.1230
    1W        W47670  23.219  18.425   1.140  0.1970 -0.2664  0.2527
    1W        W47671  25.393  10.454   1.970 -0.4208  0.1735 -0.0766
    1W        W47672  20.355  23.864   2.721 -0.1241 -0.2698 -0.0084
    1W        W47673  15.819  11.625   0.584  0.0839 -0.0977  0.2429
    1W        W47674  13.818   4.741   9.733  0.0124 -0.0193 -0.2009
    1W        W47675   4.985  12.763   7.583 -0.0048  0.1983  0.0427
    1W        W47676  23.517   0.372  10.259 -0.1567  0.0421 -0.1928
    1W        W47677  24.507  21.872   1.445 -0.2542 -0.0805 -0.1641
    1W        W47678  16.911   0.537   7.213  0.4485 -0.0810 -0.1959
    1W        W47679   5.057  14.426   3.021 -0.1834  0.1471  0.0948
    1W        W47680   6.264   5.665   8.775  0.1491  0.1443  0.0527
    1W        W47681  18.605  26.038   6.802  0.1529 -0.3439 -0.0207
    1W        W47682  16.297  11.308   8.822 -0.1222 -0.0679  0.0003
    1W        W47683   9.432  19.911   2.189  0.0618 -0.0859 -0.2589
    1W        W47684  23.170   5.204   2.147 -0.0325  0.1398 -0.0628
    1W        W47685   8.054   0.467   6.533  0.1575  0.1109 -0.2186
    1W        W47686   8.120   8.201   7.553  0.0815  0.0688  0.0976
    1W        W47687  11.578  22.013   8.472 -0.1323 -0.0766  0.0099
    1W        W47688   7.990   7.407   0.161  0.1138 -0.2210  0.1941
    1W        W47689   6.889   6.326   9.917  0.2377  0.0381  0.1611
    1W        W47690  16.134  23.037   1.630  0.1302 -0.1869 -0.1722
    1W        W47691   7.225  16.323   9.040 -0.2175 -0.0156 -0.1023
    1W        W47692  23.239   4.536   8.017 -0.1108  0.0526  0.0702
    1W        W47693  20.002   4.403   0.504  0.0656 -0.2861  0.1221
    1W        W47694  19.001  21.000   3.472  0.1754 -0.0717 -0.2907
    1W        W47695  14.266   5.840   9.050  0.0099 -0.0080  0.2481
    1W        W47696  11.745  23.238   9.239 -0.2017 -0.3118  0.0383
    1W        W47697  25.565  22.177   3.052  0.2596  0.0051  0.0040
    1W        W47698   1.938  24.995   1.553  0.1426 -0.2971  0.0756
    1W        W47699  27.183   0.397   6.220 -0.1772 -0.0691  0.0291
    1W        W47700  25.951  10.131   9.418 -0.0999 -0.1005 -0.1500
    1W        W47701   0.185   4.635   6.500  0.4740 -0.0722  0.0440
    1W        W47702   8.238   5.754   9.925  0.1187  0.0176 -0.0280
    1W        W47703  16.685  15.231   8.330 -0.2317 -0.3015  0.1118
    1W        W47704   4.889   3.799   0.458 -0.0035 -0.0012  0.1831
    1W        W47705   8.920  18.045   1.159 -0.3905  0.1331 -0.1271
    1W        W47706  26.848   0.749   9.100  0.1811  0.1611 -0.2926
    1W        W47707  13.448  22.514   9.533  0.0276  0.1403  0.0793
    1W        W47708  14.213   3.184   8.943  0.0468 -0.1102  0.3669
    1W        W47709  18.655  22.636   8.227  0.0769  0.1312 -0.3309
    1W        W47710  26.504  11.042   9.621  0.0489  0.2768  0.3514
    1W        W47711  24.190   2.187   7.295 -0.0835 -0.0675 -0.0294
    1W        W47712  23.220  21.995   2.125 -0.1149 -0.3349 -0.0415
    1W        W47713  24.272  22.031   2.282 -0.0124  0.0631 -0.1785
    1W        W47714  27.202   1.595   6.984 -0.2665 -0.0050 -0.0680
    1W        W47715  19.435   5.791   8.702  0.2469  0.0120 -0.0467
    1W        W47716  26.135   3.110   2.645 -0.3097 -0.1612  0.0873
    1W        W47717  20.665   4.371   7.384 -0.2790  0.1516  0.0154
    1W        W47718   9.780   0.016   8.773 -0.0445  0.1899 -0.1713
    1W        W47719  10.697  13.265   1.058 -0.0610  0.1406  0.1515
    1W        W47720  10.219   6.407   8.551  0.1120  0.0694 -0.1731
    1W        W47721   1.664  23.581   7.663 -0.1053  0.2087  0.1161
    1W        W47722  21.027  21.342   0.667  0.0838  0.0415  0.1991
    1W        W47723   3.164  21.404   7.593  0.4306 -0.2715 -0.1884
    1W        W47724  22.204  14.607   3.384 -0.5714  0.1752 -0.3118
    1W        W47725  11.433  15.462   3.777 -0.1158  0.1283 -0.0562
    1W        W47726   9.139   7.909   2.360  0.1495 -0.0054  0.1416
    1W        W47727  12.025  27.747   1.986 -0.2287 -0.0144 -0.0179
    1W        W47728   5.055  24.327   9.794  0.2029  0.0749  0.0190
    1W        W47729  13.486  12.656   3.927  0.1182 -0.1672 -0.1820
    1W        W47730  21.283  10.807   7.336  0.3470 -0.2190 -0.0993
    1W        W47731   5.726   3.459   9.493  0.0061  0.2421  0.2279
    1W        W47732  10.382  16.953   1.410  0.2645  0.1014 -0.0092
    1W        W47733   6.163  20.080   2.976  0.1421  0.0987 -0.0867
    1W        W47734  13.079   7.077   3.217 -0.2718  0.1308  0.2407
    1W        W47735  14.034  19.128   8.387 -0.0122 -0.0905 -0.3361
    1W        W47736  11.257  26.183   7.164  0.2121 -0.1437 -0.2902
    1W        W47737  25.926  20.335   9.588 -0.2330  0.0105  0.1023
    1W        W47738  22.368  14.784   7.568 -0.1552  0.1931  0.0973
    1W        W47739   9.867   2.127  10.307 -0.1065 -0.0113 -0.4488
    1W        W47740  14.275  23.819   7.866 -0.1266  0.1780  0.1034
    1W        W47741   4.267  24.262   8.539 -0.0547 -0.2594 -0.0433
    1W        W47742  27.959  25.858   7.269  0.0562  0.1863  0.2331
    1W        W47743  22.562   7.166   1.127 -0.0167 -0.0005 -0.1335
    1W        W47744   8.899  13.043   7.950  0.1303  0.2933 -0.2354
    1W        W47745  12.002   3.456   0.983 -0.1932 -0.1095 -0.4318
    1W        W47746  11.829  10.227   3.257  0.0757 -0.2900  0.1249
    1W        W47747   2.477  26.657   9.771  0.1867 -0.2415 -0.0836
    1W        W47748  19.597   1.314   1.559  0.1485 -0.2603  0.0496
    1W        W47749  10.736  24.423   9.647 -0.3147 -0.2219  0.2694
    1W        W47750  11.439  16.383  10.049  0.0790 -0.1544  0.1118
    1W        W47751  24.948   1.805   2.602 -0.0903  0.1202  0.2790
    1W        W47752   8.544  20.824   2.579  0.0422  0.2186  0.1163
    1W        W47753  27.234  14.465   7.262 -0.2563 -0.1074 -0.0024
    1W        W47754  14.049   3.372   3.003  0.0296  0.0326  0.0117
    1W        W47755  25.437  17.302   0.837 -0.0034 -0.1880  0.2944
    1W        W47756  11.130  26.876   6.819  0.1670 -0.0827 -0.2522
    1W        W47757  12.430  19.964   1.797 -0.1005 -0.1823 -0.3336
    1W        W47758  13.711   3.621   7.776  0.1623  0.2495  0.2262
    1W        W47759  10.497  22.746   2.310 -0.3780 -0.1135 -0.0149
    1W        W47760  26.589  24.310   2.010 -0.0577 -0.2873  0.1829
    1W        W47761  13.742  25.453   2.467 -0.0980  0.1180  0.2222
    1W        W47762  24.161   5.607   9.796  0.0562  0.1000  0.0268
    1W        W47763  27.590   3.538   0.020 -0.1766  0.1074 -0.2415
    1W        W47764  17.399  18.755   7.983 -0.0454  0.0095  0.0607
    1W        W47765   0.629  21.335   7.194  0.2747 -0.0523  0.0627
    1W        W47766   7.267   6.054   6.795 -0.0365  0.1470 -0.0922
    1W        W47767  19.207  10.260   1.289 -0.1165  0.3034 -0.0488
    1W        W47768   9.262  17.162   2.889  0.1749 -0.1435  0.0261
    1W        W47769  19.689  14.640   3.440  0.0480 -0.0608 -0.0795
    1W        W47770  14.556  21.495   8.115  0.0713 -0.2727  0.0521
    1W        W47771  24.745  12.074  10.233 -0.2474  0.0342  0.0249
    1W        W47772   6.414  16.980   0.263 -0.1506  0.0110 -0.0731
    1W        W47773  14.040   8.111   3.521 -0.0548 -0.2404  0.2604
    1W        W47774   7.925   3.654   9.473  0.2076 -0.2122  0.0374
    1W        W47775  12.718  22.206   0.873  0.2318  0.0408  0.1257
    1W        W47776  19.345  11.220   0.591  0.1528 -0.2858  0.3763
    1W        W47777  15.603  15.716   0.319 -0.3589  0.1357  0.2745
    1W        W47778   4.163  25.066   0.945 -0.2001 -0.2323  0.0155
    1W        W47779  25.259  21.921   8.125 -0.1032 -0.0786 -0.0230
    1W        W47780   0.477  18.808   1.630  0.0622 -0.0151 -0.1536
    1W        W47781  24.624  26.207   3.260 -0.2957  0.1607  0.0128
    1W        W47782  24.224  15.068   3.106 -0.0360  0.4564  0.3055
    1W        W47783  23.699   8.481   0.421 -0.1938  0.0198  0.0422
    1W        W47784  20.625  21.091   0.441 -0.0553 -0.2800  0.0814
    1W        W47785   1.502   2.472   7.473 -0.0361  0.1745  0.3404
    1W        W47786   4.311   5.483   7.496 -0.2687  0.0417  0.1895
    1W        W47787  27.875   4.042   8.099  0.0750  0.1359  0.1168
    1W        W47788   6.862  24.821   2.268  0.2075  0.0612  0.0522
    1W        W47789   5.256   4.159   1.639 -0.5187  0.1223  0.2887
    1W        W47790   0.549  13.379   1.800 -0.0440 -0.2984 -0.1909
    1W        W47791  18.018   8.425   9.702  0.0561  0.0226 -0.2152
    1W        W47792  10.948  12.418   2.380 -0.3444  0.0437 -0.1681
    1W        W47793   1.928  22.759   9.017 -0.1010 -0.0035 -0.1921
    1W        W47794   1.572  14.500   2.512  0.0621  0.1097 -0.0069
    1W        W47795  14.473   0.515   9.660  0.1279 -0.1415 -0.2005
    1W        W47796  20.310   8.235   9.601 -0.0530  0.1260  0.0667
    1W        W47797  13.026  24.106   9.204  0.1598  0.0344 -0.1629
    1W        W47798   1.601  21.054   8.646 -0.1877 -0.0111  0.1905
    1W        W47799  13.424  17.272   9.833  0.0926  0.0985  0.0230
    1W        W47800  13.918  11.693  10.116 -0.0316 -0.2686 -0.1569
    1W        W47801  12.951  12.985   8.676  0.0697  0.0900 -0.0859
    1W        W47802  10.575  27.219  10.024  0.3315  0.1348  0.0181
    1W        W47803  27.822   2.853   1.861 -0.0429  0.1376 -0.2917
    1W        W47804   8.418  17.285  10.070  0.3649 -0.1704 -0.1783
    1W        W47805   8.544   2.690   1.933 -0.0537  0.0425 -0.0211
    1W        W47806  22.965  22.333   1.580 -0.1951 -0.1316 -0.3130
    1W        W47807   4.059  24.633   9.223  0.0000  0.0236  0.0495
    1W        W47808   9.816  21.268   2.229 -0.0431  0.0937 -0.0990
    1W        W47809  25.974  18.064   7.920  0.0531 -0.0447 -0.4180
    1W        W47810  11.183  16.956   8.212 -0.0237  0.0176  0.2715
    1W        W47811   2.089   5.439   9.559  0.1057  0.1757 -0.4972
    1W        W47812  18.602  26.909   3.650  0.0439 -0.0861  0.0127
    1W        W47813   9.785  19.488  10.344 -0.0827  0.1648 -0.0427
    1W        W47814  16.534  18.378   3.403  0.3638  0.0950  0.1654
    1W        W47815  10.623   5.286   3.175  0.2692 -0.1896  0.0789
    1W        W47816  21.466   8.724   9.221  0.2190  0.1859 -0.2377
    1W        W47817  21.963  22.678   6.988 -0.0392  0.0105  0.1137
    1W        W47818  12.114   4.393   2.491 -0.0550 -0.2213 -0.0793
    1W        W47819   1.653  21.449   2.765 -0.4681  0.0898  0.0922
    1W        W47820  11.876  11.478   0.782 -0.0126  0.0061 -0.0388
    1W        W47821  16.453  27.686   8.058 -0.0063 -0.1957 -0.1881
    1W        W47822   7.534  21.313   2.278 -0.2629 -0.1009  0.1558
    1W        W47823  23.399   9.725  10.055 -0.0680  0.0476  0.1977
    1W        W47824  19.007   8.658   1.006 -0.0187 -0.1115  0.4605
    1W        W47825  27.553  13.008   3.079  0.0081 -0.2573 -0.0926
    1W        W47826   4.595  19.394   0.254 -0.1367 -0.0275 -0.1259
    1W        W47827  23.215   7.795   9.053  0.1377  0.0339 -0.0309
    1W        W47828  21.206   2.989   9.965  0.1974 -0.0012  0.2109
    1W        W47829  24.858   7.473   7.923  0.1151 -0.0380 -0.4806
    1W        W47830  15.263  20.616   6.995  0.1113  0.1494 -0.1792
    1W        W47831  22.383  20.244   9.869  0.1470  0.1820 -0.4801
    1W        W47832  14.157   8.232   2.879  0.2154  0.2523 -0.2368
    1W        W47833  13.595   4.783   2.433 -0.1194  0.0079 -0.2503
    1W        W47834  27.291   6.631   6.894 -0.0924  0.1004  0.1747
    1W        W47835   4.425   1.506   7.318  0.1685  0.3605  0.0096
    1W        W47836  15.597   8.284   7.850 -0.1590  0.0259  0.1820
    1W        W47837  13.681   8.880   0.843 -0.1518 -0.2175 -0.0089
    1W        W47838  11.667   2.037   3.423 -0.2095  0.2812  0.1731
    1W        W47839  10.264   7.201   2.086  0.0670 -0.0255 -0.2975
    1W        W47840  27.487  27.063   9.163  0.0523 -0.2600 -0.0029
    1W        W47841   0.341  19.488   0.296 -0.0464 -0.2340  0.1267
    1W        W47842  18.033  22.676   1.801 -0.0714  0.2115  0.0045
    1W        W47843  10.794  21.580   8.368  0.0544  0.0552  0.2610
    1W        W47844   8.903   0.560   9.442 -0.1522 -0.0865 -0.1002
    1W        W47845  13.105  21.563   7.561 -0.1067 -0.1819 -0.0949
    1W        W47846   5.160   2.025   0.517 -0.2939 -0.2779 -0.0415
    1W        W47847   9.485   3.344   8.406  0.2170 -0.3097 -0.2213
    1W        W47848  20.472  21.567   7.498 -0.1155 -0.0822 -0.1439
    1W        W47849   8.034  12.913   0.748  0.0800 -0.3366 -0.1755
    1W        W47850  28.049  26.589   0.535  0.0421  0.3108  0.1988
    1W        W47851   7.285  19.952   1.128 -0.0127 -0.3186  0.0960
    1W        W47852  16.863  16.132   9.635  0.1908 -0.0275  0.0502
    1W        W47853  12.064  12.507   2.605  0.1840  0.3044 -0.0088
    1W        W47854   1.683  12.973  10.025  0.2133  0.2115  0.2810
    1W        W47855  24.963  27.883   0.271  0.0827  0.2723 -0.0008
    1W        W47856   5.825   0.662   1.254  0.3375  0.2473 -0.1284
    1W        W47857  12.266  10.030   7.665  0.1013  0.2609  0.1375
    1W        W47858   4.807  27.872   9.122 -0.3008  0.1582 -0.0606
    1W        W47859  17.099  13.486   9.882 -0.2906 -0.1981 -0.0717
    1W        W47860  10.811  22.023   2.077  0.1839 -0.1443  0.1189
    1W        W47861  22.498  10.669   7.850 -0.1012  0.3135  0.4162
    1W        W47862  18.817  18.039   9.418  0.0494  0.0390  0.1323
    1W        W47863  20.471  10.058   0.031  0.0463  0.1762  0.1415
    1W        W47864  13.113   6.272   0.190 -0.0476 -0.4342  0.0727
    1W        W47865  16.554   7.656   3.134 -0.3129  0.0031  0.1056
    1W        W47866   6.356  13.812   9.196 -0.1027 -0.1010  0.0192
    1W        W47867  14.306  19.690   2.097 -0.1982  0.1311 -0.1202
    1W        W47868   7.877  10.657   0.326 -0.0963 -0.0494  0.1718
    1W        W47869  22.335  24.543  10.036 -0.1656  0.1221  0.0985
    1W        W47870   1.230  27.104   0.237  0.2857 -0.0924  0.1724
    1W        W47871  18.574   7.178   7.686 -0.0061 -0.2058  0.3949
    1W        W47872   1.222  19.788  10.325  0.0298 -0.0741  0.0879
    1W        W47873  26.454  11.130   8.546 -0.1446  0.0580  0.1684
    1W        W47874   3.409  21.954  10.011 -0.0053  0.0583 -0.2449
    1W        W47875  16.093  26.059   2.182 -0.1119 -0.2123 -0.3201
    1W        W47876  18.103   5.839   8.088 -0.3303  0.1466 -0.1247
    1W        W47877  10.348  10.834   2.053 -0.1083 -0.3082 -0.0214
    1W        W47878  18.026  24.301   0.476 -0.0062  0.2741  0.3274
    1W        W47879   0.245  10.677   1.286  0.1249 -0.2176  0.2067
    1W        W47880  18.402  18.521   1.778  0.0012 -0.1895  0.1660
    1W        W47881  23.201  13.994   0.887  0.3593 -0.0241 -0.1170
    1W        W47882   8.501   4.659   1.870 -0.2698  0.0007 -0.0981
    1W        W47883  23.911   0.272   0.250 -0.0122  0.2390  0.4333
    1W        W47884   2.905  21.538   7.167 -0.0333  0.0267 -0.0318
    1W        W47885   2.128   2.852   2.072  0.1173  0.0905 -0.0263
    1W        W47886  15.563   6.816   2.590 -0.2341  0.0852  0.1929
    1W        W47887  12.818  12.469   1.094 -0.0384  0.0521 -0.0915
    1W        W47888   1.250  18.436   2.485  0.3312 -0.1883  0.0720
    1W        W47889  12.064  13.563   1.172 -0.0998  0.1201  0.1928
    1W        W47890  26.496   7.163   0.575  0.1558 -0.0043 -0.0655
    1W        W47891  15.892   9.848   2.196 -0.2743 -0.0754  0.2357
    1W        W47892  25.693  23.913   6.986 -0.1568  0.1085  0.0268
    1W        W47893  11.136   4.940   8.915  0.3781  0.0122  0.2538
    1W        W47894   2.100   8.514   1.560 -0.1187  0.1419  0.2477
    1W        W47895   0.792   1.024   7.436  0.0957  0.0464 -0.0740
    1W        W47896   7.989  10.871   6.536 -0.1520  0.1522  0.0236
    1W        W47897  18.214   1.100   2.882 -0.0054  0.1016 -0.0537
    1W        W47898  11.196  18.396   8.406  0.1553 -0.1507 -0.0409
    1W        W47899  10.575   7.981   9.036  0.2751  0.3431  0.0379
    1W        W47900   9.176  19.131   3.590 -0.0951 -0.0759 -0.3785
    1W        W47901   7.493   1.812   8.153  0.3656  0.0033 -0.2949
    1W        W47902  15.915  18.120   9.676 -0.1920 -0.2835 -0.0381
    1W        W47903  24.703   9.462   0.297  0.1817  0.1136 -0.1945
    1W        W47904   8.549  22.344   7.838 -0.1070  0.1306  0.1535
    1W        W47905  23.193   0.721   0.975 -0.2514 -0.2273 -0.2449
    1W        W47906  22.442  23.242   0.488 -0.0100 -0.1978  0.1971
    1W        W47907  13.468  21.638   0.509 -0.1682  0.0262  0.2484
    1W        W47908   1.286   7.848   1.028 -0.2200 -0.0559 -0.2665
    1W        W47909  26.084  12.562   8.937 -0.1432  0.0134  0.2333
    1W        W47910   3.946  18.298   7.784  0.1370 -0.2030 -0.1291
    1W        W47911  16.063   8.520   9.868  0.3199  0.2593 -0.2290
    1W        W47912   9.808  16.246   0.795 -0.0591 -0.0739 -0.0240
    1W        W47913  13.347  20.993   3.618  0.1318  0.1031 -0.1486
    1W        W47914   0.425  24.522   0.523 -0.2064  0.2422 -0.0508
    1W        W47915  16.489  21.732   1.449 -0.0261 -0.1273  0.1252
    1W        W47916  17.012  18.543   0.281 -0.3473 -0.1567 -0.1656
    1W        W47917  27.783  22.648   9.630  0.4794  0.0204 -0.0745
    1W        W47918   1.733  10.213   2.863  0.2585 -0.0169 -0.0476
    1W        W47919  15.445  12.659   9.150 -0.2709  0.1952 -0.0280
    1W        W47920  15.399  14.606   8.989 -0.0800  0.0826 -0.0720
    1W        W47921   8.245  11.823   0.256  0.2714  0.0241 -0.0891
    1W        W47922  14.845  14.769   0.687 -0.0296 -0.1923  0.0280
    1W        W47923  16.148  11.671   9.205 -0.3065  0.0303 -0.0202
    1W        W47924   5.739  14.683   3.400  0.1150 -0.3194  0.0224
    1W        W47925   7.159  17.646   9.613 -0.1023  0.1328 -0.2895
    1W        W47926   6.425  18.698   8.043  0.1787  0.0683 -0.1587
    1W        W47927  24.812  23.228   9.395  0.0322  0.1136  0.0113
    1W        W47928  17.707  17.535   8.143  0.0692  0.0541 -0.0320
    1W        W47929  21.727   6.866   9.774  0.0266 -0.2085  0.0899
    1W        W47930  24.771   9.241   9.222 -0.0174  0.3984  0.2877
    1W        W47931  20.880  17.684   0.070  0.2862 -0.4226  0.0157
    1W        W47932   3.258   7.885   2.144 -0.1012  0.0536  0.1167
    1W        W47933  17.698  27.122   3.463  0.3107 -0.1770 -0.3450
    1W        W47934  22.556   3.206   7.043  0.1473 -0.0339 -0.2099
    1W        W47935   5.029  17.221   3.842 -0.2148 -0.2913 -0.1852
    1W        W47936  19.980  10.740   2.053 -0.1401  0.0428  0.3183
    1W        W47937  15.067  14.331   8.093 -0.1999  0.2210  0.0538
    1W        W47938  10.154   5.509   0.399  0.0792  0.5159  0.1803
    1W        W47939  23.366  24.617   8.352 -0.2467  0.1881 -0.1049
    1W        W47940  27.280  12.251  10.320 -0.0748  0.0265  0.0885
    1W        W47941   3.874  24.383   8.811 -0.1268 -0.0461  0.0376
    1W        W47942  19.688  20.321  10.094  0.0870 -0.0843 -0.2162
    1W        W47943  27.668  21.310   9.744  0.2545  0.1172 -0.0147
    1W        W47944  11.972  26.654   2.114  0.1004  0.1619  0.0342
    1W        W47945  16.374   2.868   1.159 -0.0468  0.2237 -0.1629
    1W        W47946  22.390  19.322   1.112  0.2045 -0.1782  0.1922
    1W        W47947  18.634  23.221   0.249 -0.2072 -0.1718  0.3461
    1W        W47948  27.028  10.554   3.218  0.0265  0.3232  0.0786
    1W        W47949  19.626  22.729   3.370 -0.1109  0.0109  0.0380
    1W        W47950   0.228   1.919   7.202  0.1293  0.0512  0.3293
    1W        W47951  18.743  17.055   2.760  0.0102 -0.2376  0.0672
    1W        W47952   8.730  27.205   2.605 -0.0389  0.1015 -0.0670
    1W        W47953  25.969  12.739   7.575 -0.2135 -0.1213  0.0891
    1W        W47954  22.849  18.501   8.992 -0.2730  0.1203  0.1589
    1W        W47955   2.768  25.074   7.662 -0.2747  0.0616 -0.0107
    1W        W47956  11.162  17.496   8.092 -0.2678 -0.2263 -0.1136
    1W        W47957  18.651  25.004   2.648  0.2541  0.1096 -0.0720
    1W        W47958   3.337   9.050   7.636  0.0656 -0.4936 -0.2046
    1W        W47959  12.620   4.684   0.028 -0.3169  0.0764 -0.0196
    1W        W47960   2.983  13.551   2.606  0.0269 -0.0363  0.3354
    1W        W47961  14.096   0.794   2.749  0.1073  0.1839  0.0508
    1W        W47962   4.797  27.430   1.828  0.1136 -0.0844  0.0749
    1W        W47963   1.198  10.359   1.327 -0.2046  0.0522  0.2519
    1W        W47964  26.580  11.128   9.065  0.1362 -0.3013 -0.1344
    1W        W47965  20.040   8.877   4.081 -0.0318 -0.1417 -0.0828
    1W        W47966   7.996   3.442   8.554 -0.1581 -0.1788  0.1453
    1W        W47967  22.687   8.899   8.229  0.2235 -0.0553  0.0777
    1W        W47968  19.912  11.763   3.439 -0.1010  0.2110 -0.2035
    1W        W47969   8.818  18.486   1.455 -0.3581  0.0008  0.2288
    1W        W47970  10.498   5.991   9.273  0.2970 -0.1099  0.2621
    1W        W47971  22.126  22.884   7.453 -0.1355 -0.0487  0.0482
    1W        W47972  21.676  18.223   1.413  0.3527  0.2491  0.0315
    1W        W47973  15.670   0.455   8.455  0.0516  0.0061  0.2481
    1W        W47974  23.779  13.773   9.024 -0.2008  0.1375  0.2564
    1W        W47975  26.273   0.859   0.077  0.0795 -0.3657 -0.1586
    1W        W47976  13.815   5.268   7.388  0.0377 -0.1006 -0.0108
    1W        W47977   9.918   2.156   0.422 -0.1608 -0.0100 -0.1561
    1W        W47978  18.904   2.620   8.607 -0.1826  0.0023  0.1153
    1W        W47979  18.523  19.206   1.190  0.1343  0.1068 -0.1879
    1W        W47980  16.935   3.592   2.458  0.0178  0.0210 -0.0583
    1W        W47981  19.953   7.843   2.659 -0.2189  0.0288  0.0352
    1W        W47982  27.630   3.763   0.644 -0.2419  0.1085  0.0460
    1W        W47983   3.160  23.219   7.946 -0.1683 -0.1107 -0.1644
    1W        W47984  18.419   7.055   8.349  0.1817  0.1397  0.0427
    1W        W47985   6.466   5.697   7.502  0.0673  0.1521 -0.0952
    1W        W47986  23.314  26.855   1.179  0.0671  0.0934  0.0587
    1W        W47987  19.526  25.668   9.761 -0.0127 -0.0299 -0.2640
    1W        W47988  12.287   6.858   9.729  0.2969 -0.0680 -0.0324
    1W        W47989  17.612   2.326   2.796 -0.0009 -0.0633  0.1230
    1W        W47990  23.231   5.173   7.970 -0.2254 -0.2810 -0.3587
    1W        W47991  20.560  17.337   8.052  0.2174  0.1240  0.1286
    1W        W47992   9.762   3.155   0.480  0.0041 -0.0839  0.0971
    1W        W47993  24.382  22.011   8.641  0.1778  0.0073  0.1971
    1W        W47994  16.992   1.074   0.739  0.1499  0.1169 -0.0111
    1W        W47995   0.656  23.147   7.799  0.2405  0.2535 -0.0785
    1W        W47996   1.030  15.100   7.141  0.1827  0.2048  0.0911
    1W        W47997   6.703  17.346   2.009  0.2254 -0.0683  0.3229
    1W        W47998  15.633   8.075   0.949 -0.2407 -0.1110 -0.0674
    1W        W47999  15.700  25.833   0.009 -0.0857  0.0005  0.0959
    1W        W48000  26.564  26.374  10.187 -0.1348 -0.0178 -0.0785
    1W        W48001  20.769  16.939   7.137 -0.1417 -0.0324 -0.0183
    1W        W48002   2.630   0.424   9.405 -0.0934  0.0130  0.1759
    1W        W48003  27.251   6.320   8.697 -0.2241 -0.1951 -0.0958
    1W        W48004  15.583  15.706   9.156  0.1647  0.0893  0.0598
    1W        W48005  26.312   0.345   0.724  0.2026 -0.1241 -0.3517
    1W        W48006   4.808  11.493   9.802 -0.0280  0.1064 -0.0543
    1W        W48007  26.449   7.345   1.115  0.3238 -0.2659 -0.1560
    1W        W48008  24.905  23.705   2.370  0.3631 -0.2095 -0.1078
    1W        W48009   8.500   6.184   8.425 -0.0646 -0.0228  0.0240
    1W        W48010   7.224  22.389   7.890  0.1163  0.2355  0.2112
    1W        W48011   0.485  21.878   8.124 -0.1125 -0.0774 -0.3893
    1W        W48012  12.766  20.532   9.180 -0.0613  0.0600 -0.0181
    1W        W48013   2.747  23.507   1.625 -0.0319 -0.1265 -0.3346
    1W        W48014  20.874  13.280   0.675 -0.1986 -0.0992 -0.1627
    1W        W48015   4.821  16.480   3.004  0.0734 -0.1769 -0.1608
    1W        W48016   2.914   8.200   1.843 -0.1787 -0.2174 -0.1872
    1W        W48017   6.515   1.128   3.153  0.2925  0.0769  0.1755
    1W        W48018  18.688   1.812   3.328  0.3499 -0.2600  0.3795
    1W        W48019   5.054  19.801   0.009  0.1180 -0.2343 -0.0967
    1W        W48020  21.612  16.107   0.657  0.0432 -0.0329 -0.1624
    1W        W48021  11.530  16.084   2.353 -0.2334 -0.0158  0.0889
    1W        W48022  10.052  25.417   0.020  0.1270  0.0309 -0.0083
    1W        W48023  27.343  14.014   1.964  0.0907  0.0288  0.0021
    1W        W48024   5.498  12.784   9.652  0.2567  0.1287  0.1563
    1W        W48025  12.295  18.006   2.671  0.1002 -0.2158 -0.1906
    1W        W48026  24.947  25.229   3.737  0.2027  0.1380 -0.0073
    1W        W48027   3.280  12.152   3.356  0.0445  0.1895  0.1933
    1W        W48028  17.543   7.101   8.817  0.1290  0.1507 -0.0256
    1W        W48029   0.134   2.219   8.842  0.2690  0.0295  0.2545
    1W        W48030  11.549  27.661   6.821 -0.2643  0.1140  0.2614
    1W        W48031  12.756   1.928   1.091 -0.0459 -0.3689  0.1363
    1W        W48032  22.724  17.316   2.188  0.1373  0.2461 -0.2801
    1W        W48033   8.901  12.505   9.472  0.2335 -0.0983  0.3996
    1W        W48034  27.168   3.747   1.890 -0.1513  0.4283 -0.0560
    1W        W48035  26.826  16.292   7.732 -0.0548  0.0374 -0.0158
    1W        W48036   2.412  18.038  10.264  0.0065  0.0350  0.0807
    1W        W48037  14.642  16.439   9.944  0.1138  0.1153  0.0344
    1W        W48038   3.104  24.253   9.807 -0.1797 -0.0795  0.0945
    1W        W48039  23.033  12.767   9.700  0.0029 -0.0460  0.0594
    1W        W48040  13.887  16.188   3.110 -0.0086  0.1352 -0.0917
    1W        W48041  10.777   5.169   2.188 -0.3486  0.2208 -0.2086
    1W        W48042  18.552   1.260   2.468  0.0284  0.2246 -0.0464
    1W        W48043   9.406  17.305   0.343 -0.1142  0.1002  0.0565
    1W        W48044  17.674  14.635   6.767 -0.0851 -0.1847 -0.4986
    1W        W48045  24.385  17.360   7.940 -0.0449 -0.1258  0.1158
    1W        W48046  22.546  11.142   8.867  0.0685 -0.0347 -0.1343
    1W        W48047  24.886  25.471   2.404 -0.0247 -0.1504 -0.1122
    1W        W48048   3.589  10.523   0.324 -0.1378 -0.0094  0.1744
    1W        W48049  24.185  20.753   0.107  0.0967 -0.2856  0.2060
    1W        W48050   7.712  23.659   9.933  0.2707 -0.0215  0.2099
    1W        W48051  18.923  17.999   1.021 -0.0092 -0.2577 -0.1069
    1W        W48052   5.385   4.804   7.245  0.1864  0.0868  0.5307
    1W        W48053  16.138  18.305   7.997 -0.0957 -0.2113  0.2075
    1W        W48054  24.615  24.242  10.324 -0.2565  0.1017 -0.0836
    1W        W48055  13.634  12.048   0.051  0.1663 -0.2338 -0.0716
    1W        W48056  19.521   6.152   9.661 -0.1247 -0.0060  0.0700
    1W        W48057   6.227  24.258   8.493 -0.1475  0.1453  0.0579
    1W        W48058  10.604   4.939   1.142 -0.4812 -0.3544  0.3012
    1W        W48059   9.366  23.771   0.280 -0.0321  0.0415 -0.1071
    1W        W48060  10.395   9.668   7.797  0.1209  0.1100  0.1863
    1W        W48061  17.588   0.224   7.010 -0.0327 -0.1495  0.1565
    1W        W48062   9.595  19.753   8.144 -0.0830  0.3433  0.1968
    1W        W48063   1.568  11.458   7.736 -0.2343 -0.2988 -0.1003
    1W        W48064   9.419  23.034   8.311 -0.2065 -0.1491  0.1450
    1W        W48065   3.773   5.988  10.060  0.0949  0.0488  0.2641
    1W        W48066  11.860  12.741   3.021 -0.5783  0.0074  0.1482
    1W        W48067   2.395  22.385   9.694  0.1266 -0.0137  0.0617
    1W        W48068  17.244  15.151   3.562  0.3771 -0.0382  0.2077
    1W        W48069  11.090   0.543   2.034 -0.1812 -0.1717  0.0455
    1W        W48070   9.308  27.035   7.525  0.2906 -0.1934 -0.0585
    1W        W48071  12.681  15.622   1.537  0.3196 -0.0037  0.1546
    1W        W48072   4.440  12.651   7.252  0.1567  0.2249 -0.1083
    1W        W48073  18.762  17.024   2.238 -0.2523 -0.1181  0.0183
    1W        W48074  24.433  10.835   1.461 -0.3152 -0.0783 -0.3304
    1W        W48075   8.227   8.527   0.258  0.1611 -0.3321  0.0564
    1W        W48076   8.346   6.659   9.466 -0.2592 -0.2218 -0.1933
    1W        W48077  20.298  14.608   8.507  0.0173  0.1328  0.0243
    1W        W48078   7.214   9.080   0.280  0.0561  0.0128 -0.1340
    1W        W48079  17.775   0.307   0.197  0.0589  0.2098 -0.2342
    1W        W48080  23.258  27.169   1.723  0.1920 -0.2011  0.1435
    1W        W48081  18.350   5.324   7.061  0.0929  0.0205 -0.1675
    1W        W48082   3.927  16.878   8.217  0.0469 -0.3397 -0.0130
    1W        W48083  27.117  27.088  10.303  0.1361  0.1150 -0.1514
    1W        W48084   3.869  27.216   6.695  0.1974 -0.1036  0.1471
    1W        W48085  12.871  27.980   9.750 -0.0688  0.0160  0.0098
    1W        W48086   6.285  15.331   2.265  0.0587  0.1369 -0.1798
    1W        W48087   8.861   8.211   9.429  0.1301  0.2708  0.2477
    1W        W48088   7.827  13.012   3.444 -0.0287  0.0172 -0.3198
    1W        W48089   4.466  21.908   1.366 -0.2137  0.2651  0.0974
    1W        W48090  27.742   3.806   9.788 -0.2159  0.2066  0.1179
    1W        W48091  19.831   7.311   8.459  0.0801 -0.0506 -0.0289
    1W        W48092   8.829  26.381   1.619  0.1965  0.3111  0.0777
    1W        W48093   6.278  17.491   8.651 -0.1451  0.0022  0.0543
    1W        W48094   8.907  15.971   2.831  0.1531  0.2631  0.1840
    1W        W48095   9.372  22.860   8.751 -0.2212 -0.0227 -0.0326
    1W        W48096  13.715  10.824   7.992 -0.1231  0.2414  0.1531
    1W        W48097  27.536  16.910   8.374 -0.1983 -0.1407 -0.1735
    1W        W48098  14.552   9.410   2.231  0.1141 -0.0062  0.0812
    1W        W48099  17.088  22.043   0.725  0.3662 -0.0483 -0.1165
    1W        W48100  18.378  14.253   9.133  0.2667  0.0568  0.1482
    1W        W48101   2.174  12.965   7.847 -0.2122  0.0562  0.1668
    1W        W48102  21.361   8.641  10.352 -0.2530  0.0736 -0.3014
    1W        W48103   9.555  24.354   3.485 -0.1060 -0.1422  0.1490
    1W        W48104  11.495  25.136   9.284 -0.1757 -0.0673  0.1552
    1W        W48105  18.921   6.896   9.816 -0.2861 -0.1028  0.0351
    1W        W48106  27.172   1.487   8.256  0.1118 -0.0807 -0.4139
    1W        W48107  21.311  19.085   0.536  0.0266  0.2600 -0.2526
    1W        W48108  23.003  18.211   3.115 -0.0451  0.0239  0.2712
    1W        W48109   2.450  17.136   0.006 -0.0897  0.0233  0.1773
    1W        W48110  12.309  15.164   8.900 -0.1588  0.0762 -0.0071
    1W        W48111   7.896  23.838   2.347  0.1778  0.0335  0.2796
    1W        W48112  27.949  13.352  10.206 -0.1775 -0.2405 -0.1760
    1W        W48113  12.573  15.944   9.145 -0.0151 -0.1483  0.0817
    1W        W48114  17.380  23.407   0.780  0.1214 -0.0992  0.1445
    1W        W48115  14.398  24.085   0.383  0.1250  0.2469 -0.3399
    1W        W48116   8.583  17.800   3.343  0.3080  0.0678  0.0168
    1W        W48117   5.468  16.221   2.858 -0.1677 -0.0355  0.0087
    1W        W48118   1.392  18.527   7.512  0.0902  0.1462  0.0700
    1W        W48119  22.803  19.796   9.606 -0.1980  0.2017  0.0245
    1W        W48120  25.136  19.423   7.421  0.2509 -0.0228 -0.0443
    1W        W48121  27.394   3.369   8.668 -0.1878  0.0452  0.1042
    1W        W48122  19.188  18.205   2.423 -0.0404  0.2375 -0.3687
    1W        W48123   9.483  21.781   0.856 -0.0438  0.1750  0.3423
    1W        W48124  19.854   6.195  10.011 -0.0571 -0.1891 -0.0313
    1W        W48125  17.271   6.928   1.424 -0.2401  0.1869 -0.1454
    1W        W48126  25.222  17.791   0.799  0.1204 -0.3066  0.4611
    1W        W48127  21.418   7.907   8.275 -0.2838 -0.1404 -0.3459
    1W        W48128  23.669  15.390   0.634 -0.0779 -0.0387  0.3667
    1W        W48129  27.900  15.208   0.574  0.0557 -0.4617  0.1950
    1W        W48130  26.006   8.994   1.186 -0.0227  0.1952  0.1978
    1W        W48131  12.328  26.395   9.004 -0.0017  0.1608  0.3066
    1W        W48132  20.717  22.938   7.868  0.1859  0.0324  0.0087
    1W        W48133   5.889  15.158   0.605 -0.1699 -0.1088 -0.0500
    1W        W48134  18.053  17.146   0.926  0.1581  0.1938 -0.0408
    1W        W48135   2.239  14.451   0.206 -0.0419  0.3257  0.3060
    1W        W48136  21.509  17.158   0.456  0.0618 -0.0159  0.3562
    1W        W48137  17.334   7.829   8.880  0.1637 -0.2636  0.1434
    1W        W48138  19.996  11.979   7.608  0.0894 -0.1615  0.0679
    1W        W48139  11.830  21.911   0.236  0.0113  0.0565  0.0372
    1W        W48140  22.200   8.195   0.389  0.0182  0.0442  0.1070
    1W        W48141   3.366   3.706   7.817 -0.0185  0.5851  0.3933
    1W        W48142  24.570   2.207   7.744 -0.2460 -0.1626  0.1544
    1W        W48143  13.590  12.351   9.542  0.2372  0.0388  0.0175
    1W        W48144   5.404  19.891   2.310  0.0684  0.4041  0.2288
    1W        W48145  23.476   4.697   2.081 -0.0004 -0.0322  0.0527
    1W        W48146  22.036  21.142   2.975 -0.0297 -0.0972  0.2852
    1W        W48147  23.860  19.542   1.251  0.1076 -0.1753 -0.0440
    1W        W48148   5.621   7.468   8.954  0.0845  0.2600 -0.1136
    1W        W48149   0.722  24.508   1.397 -0.0297 -0.1202 -0.0726
    1W        W48150  24.737  23.456   1.090 -0.0847  0.2680  0.0264
    1W        W48151   1.552  26.050   0.813 -0.0519 -0.0122 -0.2491
    1W        W48152  18.646  11.274   2.088  0.0930  0.3384  0.1718
    1W        W48153   6.351  24.682   2.126  0.0796 -0.0764 -0.2480
    1W        W48154  17.633   9.320   8.849 -0.1140 -0.1824  0.1034
    1W        W48155   2.829  16.071   1.828  0.3817  0.1132 -0.1822
    1W        W48156  19.068  20.157   0.419 -0.1616 -0.1555  0.1307
    1W        W48157  10.777   7.820   2.329 -0.2456 -0.1090 -0.0985
    1W        W48158  27.619  17.859   8.360  0.2302 -0.1940  0.1003
    1W        W48159  14.410   0.674   1.339  0.3706  0.0195  0.0578
    1W        W48160  12.786   4.864   9.691 -0.1285 -0.1772 -0.0061
    1W        W48161  19.118   0.502   8.398 -0.4772  0.1096 -0.1422
    1W        W48162   3.590   4.785   1.101  0.2454  0.3772 -0.0076
    1W        W48163  11.532   1.093   2.570 -0.0096  0.4281 -0.0522
    1W        W48164   4.243  26.251   2.023  0.0675 -0.1993 -0.0881
    1W        W48165   6.226  10.586   2.194  0.1133 -0.1230  0.0698
    1W        W48166  17.711  10.995   0.727  0.1201 -0.0086  0.0797
    1W        W48167  10.706  13.164   8.965 -0.2122 -0.0765  0.1045
    1W        W48168   9.927  14.644   2.185 -0.3922 -0.0334 -0.1004
    1W        W48169  22.560  25.997   7.636 -0.2583  0.1684  0.2225
    1W        W48170  18.984  10.463   8.605  0.2172  0.0451  0.0191
    1W        W48171  12.278  25.981   2.896 -0.0349  0.3127 -0.1555
    1W        W48172  15.317  16.144   8.997  0.0854 -0.2325 -0.2874
    1W        W48173  15.527  16.470   3.480  0.1283 -0.0381 -0.4548
    1W        W48174  14.540   3.889   9.980  0.3993 -0.1324  0.0824
    1W        W48175  12.861  14.356   2.603  0.0787 -0.0787  0.2993
    1W        W48176   0.061  18.987   9.686 -0.1194 -0.2420  0.0212
    1W        W48177   3.225  27.476   9.463 -0.1947 -0.5502 -0.3095
    1W        W48178  25.418  13.965   1.319  0.0643  0.0601 -0.0307
    1W        W48179  27.376  20.326   6.568 -0.0899 -0.1232 -0.0039
    1W        W48180   6.125  16.106   8.441 -0.0891  0.1517 -0.0247
    1W        W48181  15.500  24.526   2.800  0.4111  0.1698 -0.0693
    1W        W48182  13.041  25.590   1.916 -0.1999  0.2093 -0.1302
    1W        W48183  20.960  10.841   2.863  0.1474 -0.0031  0.1192
    1W        W48184  19.232  15.665   9.598  0.2416 -0.0672  0.0253
    1W        W48185  20.647  14.899   8.879 -0.1661  0.2674  0.2005
    1W        W48186  19.575  24.841   9.154  0.0854 -0.0432  0.1705
    1W        W48187  17.276  10.797   3.412  0.0940 -0.0920  0.3483
    1W        W48188   9.822   7.450   1.686  0.1372 -0.2151 -0.4995
    1W        W48189  25.221   7.341   0.967 -0.3731  0.1483  0.0610
    1W        W48190  24.808  18.706   7.480 -0.0301  0.0390  0.0952
    1W        W48191  24.541  13.886   8.477 -0.0705  0.5320 -0.3727
    1W        W48192  12.694  16.308   9.488  0.0165 -0.2050  0.1985
    1W        W48193   8.705  10.828   7.319  0.0023 -0.1125 -0.0341
    1W        W48194   3.612   2.361   7.069  0.0541 -0.3352  0.1245
    1W        W48195   9.829  12.672   9.328  0.1648  0.4812 -0.3125
    1W        W48196  27.065  11.572   1.017  0.1040  0.1016  0.1699
    1W        W48197   3.366   5.645   7.436  0.0755 -0.3637  0.0171
    1W        W48198  25.116   6.183   7.113  0.0065  0.0711 -0.0585
    1W        W48199   0.258  15.043   6.787 -0.0287  0.0365 -0.0069
    1W        W48200   4.468   6.482   1.523  0.1976 -0.0927  0.0044
    1W        W48201   5.684  22.418   1.700 -0.3491  0.2348  0.1564
    1W        W48202  26.942   8.294   7.039  0.3082  0.1852 -0.0256
    1W        W48203  22.202  15.074  10.079  0.2370 -0.2593  0.0006
    1W        W48204  24.576  19.602   1.566  0.0756 -0.0855  0.0912
    1W        W48205   5.351   8.376   8.045  0.1324  0.0442 -0.0204
    1W        W48206   2.663  18.679   1.294 -0.0211  0.2117  0.1920
    1W        W48207  18.625  24.524   0.821 -0.0960  0.2409 -0.0516
    1W        W48208  22.906  20.921   8.147 -0.1715  0.1924  0.3542
    1W        W48209  19.750  18.795   0.523  0.0372  0.1681 -0.1035
    1W        W48210  10.088  21.853   8.991 -0.1783 -0.2940  0.0277
    1W        W48211  12.236   9.979   3.063 -0.0659  0.3937  0.2027
    1W        W48212  16.794   2.696   1.483 -0.0168 -0.1253  0.2450
    1W        W48213   2.602  18.728   9.897  0.1407 -0.1368  0.0905
    1W        W48214  20.475  22.049   9.142  0.2325 -0.1518 -0.0198
    1W        W48215  21.574  10.776   9.691 -0.4118 -0.0267  0.0598
    1W        W48216  23.532   3.479  10.055  0.2279  0.0089  0.1395
    1W        W48217   7.996  22.523   7.376  0.0331 -0.1118  0.0420
    1W        W48218   4.444  26.113   6.751 -0.0553 -0.2440 -0.0539
    1W        W48219  14.595  13.491   3.000  0.3094  0.2845  0.3076
    1W        W48220   3.153  24.933   8.011  0.0143  0.0196 -0.0722
    1W        W48221   3.349  18.855   8.946 -0.1738 -0.0363  0.0616
    1W        W48222   6.400  17.190   2.378 -0.1800  0.0038  0.1226
    1W        W48223  27.419  22.904   7.977  0.2496 -0.0451  0.1240
    1W        W48224  20.394   1.884   1.578  0.0552  0.1740 -0.0496
    1W        W48225   6.986  22.619   7.007  0.0713 -0.2217  0.0358
    1W        W48226  23.916  19.213   8.138 -0.1401 -0.2182  0.1315
    1W        W48227  14.834   1.733   1.829 -0.3156 -0.2940  0.2304
    1W        W48228  13.135   5.531   7.690  0.2759  0.0436 -0.4183
    1W        W48229   5.672  11.732   1.310 -0.0823  0.2005  0.0412
    1W        W48230   2.884  23.310   9.868  0.2471  0.1817 -0.0150
    1W        W48231   9.034  21.983   0.476  0.1687  0.1800 -0.0571
    1W        W48232   2.493   3.618   9.672 -0.2222 -0.4555  0.1016
    1W        W48233  12.495   3.802   0.674  0.0898  0.0990  0.0342
    1W        W48234  10.585  19.791   1.916  0.4299 -0.0622 -0.0468
    1W        W48235  19.049  21.701   8.433 -0.1872 -0.3962 -0.1629
    1W        W48236  12.847  26.199   1.812 -0.1030  0.2359 -0.2296
    1W        W48237  20.800   2.767   8.837 -0.0109 -0.2642 -0.4192
    1W        W48238  14.652  24.669  10.009 -0.1338  0.3533 -0.2648
    1W        W48239  11.649  17.686   0.903 -0.1532 -0.4160 -0.0538
    1W        W48240  21.614   0.687   0.817 -0.1495 -0.0793 -0.1481
    1W        W48241   3.189   6.201  10.289 -0.2502 -0.1026  0.0172
    1W        W48242  17.475   5.291   7.658  0.0130  0.4199  0.7275
    1W        W48243  25.631  15.542   0.722  0.3491 -0.0335  0.2713
    1W        W48244  15.555  23.533  10.043  0.1812  0.1212 -0.1027
    1W        W48245  27.746  24.570   1.014  0.1739  0.0925  0.2231
    1W        W48246  11.698  14.133   4.090  0.0327 -0.0653 -0.0026
    1W        W48247  27.502  10.634   1.966  0.2604 -0.0673  0.0342
    1W        W48248  22.977   9.149   9.423 -0.1337 -0.2071  0.3314
    1W        W48249  19.538   5.185   3.202 -0.0222  0.0930 -0.0975
    1W        W48250  17.363   0.767   3.078 -0.0282 -0.1210 -0.1545
    1W        W48251   7.296  11.628   0.647 -0.1180  0.0907 -0.2144
    1W        W48252   7.857  11.517   0.270 -0.0860  0.1993  0.0897
    1W        W48253  16.566  18.090   7.507  0.3557  0.3541  0.0212
    1W        W48254   9.331   0.170   8.590  0.0518 -0.0048 -0.0907
    1W        W48255  17.182   1.369   7.694  0.1040 -0.2349  0.3220
    1W        W48256  14.296  13.081   3.638  0.1297 -0.1271  0.0043
    1W        W48257  25.769  10.580   1.329 -0.1311 -0.1954 -0.1953
    1W        W48258  27.691   9.759   9.463  0.1318  0.0371 -0.5547
    1W        W48259  23.212  16.985   2.232 -0.1125 -0.0939  0.0067
    1W        W48260  27.107  20.887   1.056 -0.1369  0.0947 -0.2264
    1W        W48261  18.273  21.908   0.798 -0.3891  0.1741  0.1312
    1W        W48262   4.597   9.081   2.056  0.1843 -0.0403 -0.4342
    1W        W48263  25.143   8.836   0.381 -0.1775  0.1376 -0.0397
    1W        W48264  17.653  19.217   7.829 -0.1796  0.2079 -0.1965
    1W        W48265  25.109   0.128  10.275  0.0066 -0.2571 -0.2852
    1W        W48266   1.290   3.162   0.956  0.0374 -0.1227 -0.2175
    1W        W48267  13.455   4.399   2.030 -0.3924  0.1162 -0.0931
    1W        W48268  13.947   2.802   7.997 -0.1177  0.1569 -0.1403
    1W        W48269  19.538  16.724   3.109  0.2231 -0.0322  0.0559
    1W        W48270  12.065  24.520   0.764  0.2684  0.0565  0.0881
    1W        W48271   0.854  27.293   2.245  0.0040 -0.0538 -0.2077
    1W        W48272  14.435   0.096   9.102 -0.0438  0.1771  0.0528
    1W        W48273  21.061  22.692   9.241  0.1401  0.2995 -0.1398
    1W        W48274  13.221  24.579   3.506  0.1222 -0.1135  0.2451
    1W        W48275  13.910  26.533   9.346  0.0400 -0.2249  0.1729
    1W        W48276  18.998   0.642   2.755 -0.3671  0.1128  0.2598
    1W        W48277  11.664   8.020   0.195  0.1306 -0.1364  0.0091
    1W        W48278  17.249  16.809   1.411 -0.0910 -0.1336 -0.0514
    1W        W48279  10.817  13.767   0.902  0.0199  0.2426 -0.0847
    1W        W48280  25.642  11.190   9.650  0.1317  0.2994 -0.1523
    1W        W48281  18.432   0.808   2.586  0.0253 -0.1319  0.2212
    1W        W48282  17.511  25.411   7.441 -0.0501 -0.0769 -0.2049
    1W        W48283  18.594   9.633   1.162  0.1188  0.0085  0.1191
    1W        W48284  15.406  18.044   9.721 -0.0648 -0.2775  0.0855
    1W        W48285   5.735  13.544   0.486 -0.0505 -0.0906 -0.0336
    1W        W48286   4.808  19.356   2.014  0.1000 -0.0608 -0.0145
    1W        W48287   9.191  25.305   7.055  0.0694 -0.0676  0.0077
    1W        W48288  22.911  12.605   0.624  0.0985 -0.1209 -0.0900
    1W        W48289   0.235   4.551   9.088 -0.0365 -0.1702 -0.1094
    1W        W48290   6.452  22.735   0.682 -0.2218  0.1224 -0.0894
    1W        W48291   2.534  25.038   1.860 -0.0467  0.1980 -0.1673
    1W        W48292  25.315  19.504   9.696  0.2917  0.1192 -0.1410
    1W        W48293  18.739   7.062   2.976  0.0952 -0.0443  0.0254
    1W        W48294  21.484  23.991   3.843 -0.0644 -0.0606 -0.0774
    1W        W48295   7.637   3.210   2.631 -0.2283 -0.2854  0.0084
    1W        W48296  13.832   2.271   8.947  0.1041 -0.3727 -0.0070
    1W        W48297  22.938  21.751   0.848 -0.0385 -0.0969 -0.0587
    1W        W48298  12.517   2.928   0.553  0.0698  0.0387  0.2265
    1W        W48299  22.911  25.083   3.310  0.0528  0.3997 -0.2662
    1W        W48300   0.959  11.789   9.983  0.0511  0.2092 -0.0153
    1W        W48301  18.308  20.761   2.432 -0.0449 -0.1349 -0.3451
    1W        W48302  26.991  14.512   2.693  0.0250  0.2893 -0.0906
    1W        W48303   8.867  18.281   7.568  0.0578 -0.1272 -0.2437
    1W        W48304   7.654  20.116   0.089  0.1780 -0.0075  0.1403
    1W        W48305   9.567  19.395   2.030 -0.2686  0.2471  0.0195
    1W        W48306  21.605   8.294   9.597  0.0974 -0.1823  0.0607
    1W        W48307  24.958   7.978   1.817 -0.2961 -0.0062  0.0015
    1W        W48308  26.208  12.807   0.320  0.0673 -0.2904  0.0837
    1W        W48309  26.446  15.008   6.764 -0.2624 -0.0418  0.2097
    1W        W48310   3.788   5.719   1.080  0.2757  0.2794 -0.3641
    1W        W48311  25.802   4.201   9.507 -0.2249  0.4611 -0.4157
    1W        W48312  20.629  16.689   0.461  0.3187 -0.2774 -0.0057
    1W        W48313  12.178  22.866   2.742 -0.0633  0.1749  0.0305
    1W        W48314  14.520   0.002   2.873  0.1845 -0.0383  0.1664
    1W        W48315  17.725  23.912   9.687 -0.0466  0.0700 -0.3873
    1W        W48316   6.744   8.246   1.658  0.0035  0.0728 -0.3782
    1W        W48317  17.333  27.123   8.080  0.0954 -0.0510  0.1260
    1W        W48318  18.692  23.786   9.928 -0.1803  0.3065 -0.0295
    1W        W48319  12.762  23.471   6.538 -0.1344 -0.2889 -0.3441
    1W        W48320   9.096   0.797   0.096  0.0383 -0.3549  0.0107
    1W        W48321  22.850   8.284   8.250 -0.0654 -0.1055  0.2120
    1W        W48322  17.690  21.034   2.598  0.3845 -0.2061  0.0799
    1W        W48323   7.719   0.008   9.146 -0.0327 -0.0818 -0.1175
    1W        W48324  15.081  18.380   8.550 -0.1313 -0.0629  0.1445
    1W        W48325  22.769   7.603  10.162 -0.1139  0.2621 -0.2201
    1W        W48326   9.009   1.965   1.317  0.0037  0.0005 -0.5306
    1W        W48327  26.998  11.481   9.034  0.0440  0.2154 -0.0423
    1W        W48328  12.859  16.302   8.226  0.1100 -0.1119 -0.1677
    1W        W48329  13.857   1.389   3.822 -0.0633 -0.2823 -0.1425
    1W        W48330  20.527  25.300   7.836 -0.1589  0.3016 -0.1727
    1W        W48331  14.116   3.687  10.183 -0.2081 -0.0683  0.3358
    1W        W48332  10.302   0.550   2.625 -0.0158 -0.1874  0.1090
    1W        W48333   1.365   7.828  10.060  0.0015 -0.2331  0.0933
    1W        W48334   3.972  17.257   7.481 -0.2789 -0.0456 -0.0968
    1W        W48335  27.693   8.713   9.110  0.1179 -0.0073  0.3476
    1W        W48336  26.113  21.714   1.890  0.1320  0.2262 -0.1730
    1W        W48337  11.698  24.746  10.302 -0.0590 -0.0586  0.1975
    1W        W48338  24.944  17.295   0.006 -0.0367  0.0712 -0.1146
    1W        W48339  13.204  24.519   8.584  0.0189  0.1423  0.3825
    1W        W48340   6.352  10.360   8.027  0.1393 -0.0743 -0.1749
    1W        W48341  14.951  17.066   8.448  0.0117 -0.1875  0.1812
    1W        W48342  15.088  27.065   1.052 -0.0222 -0.2180  0.0268
    1W        W48343  19.345  17.722   2.408 -0.1554 -0.0740  0.3673
    1W        W48344  13.098   5.772   8.671  0.1635 -0.1277  0.2710
    1W        W48345  16.442   4.470   8.226 -0.1265 -0.2448 -0.0352
    1W        W48346   0.441  11.867   8.378 -0.1538  0.0668  0.3753
    1W        W48347   3.748   9.537   9.900 -0.0864 -0.1480 -0.1879
    1W        W48348   0.833   4.460   1.744 -0.1469 -0.0145 -0.3578
    1W        W48349   2.583  10.154   0.235 -0.1355  0.2135  0.0714
    1W        W48350   4.831   4.888   7.866 -0.1082 -0.2483 -0.0634
    1W        W48351   7.623   7.863   8.341 -0.2901  0.1935 -0.1036
    1W        W48352  16.056  10.970  10.303 -0.1493 -0.3384  0.2566
    1W        W48353   5.909  13.069   2.260  0.1193 -0.0412 -0.2672
    1W        W48354  16.918  13.484   9.031 -0.1477  0.1602 -0.1846
    1W        W48355  25.641  18.000   7.582 -0.2298 -0.1723 -0.1136
    1W        W48356   6.852   8.927   2.168 -0.4004  0.0539  0.1575
    1W        W48357   2.440   4.918   0.296  0.0561  0.0906  0.2606
    1W        W48358  11.616  17.761   9.443 -0.1487 -0.1708  0.0637
    1W        W48359   8.069  13.788   9.942  0.1427  0.1072 -0.0159
    1W        W48360  11.201  12.959   1.451  0.5219 -0.1989  0.4182
    1W        W48361  17.310   9.006   9.078 -0.0633  0.2579  0.2040
    1W        W48362  21.543   2.323   1.809 -0.0918 -0.1318 -0.1218
    1W        W48363   0.904   8.539   1.594 -0.0400 -0.3342  0.0160
    1W        W48364  25.860  15.926   7.147 -0.3184  0.0488  0.0699
    1W        W48365  21.097   6.386   1.708 -0.1581  0.3783  0.2298
    1W        W48366  20.705   0.499   1.060 -0.2008 -0.1528 -0.1062
    1W        W48367   9.577  22.367   1.148 -0.0148  0.0125 -0.1722
    1W        W48368   0.646  27.551   9.661  0.0392  0.0236 -0.0758
    1W        W48369  18.004   0.020   9.000 -0.2855  0.1349 -0.0276
    1W        W48370  22.331  14.443   7.201 -0.2050  0.1289 -0.3228
    1W        W48371  12.137   9.258   0.009 -0.1115 -0.0545  0.2370
    1W        W48372   3.366   5.085   0.297 -0.0794  0.2937 -0.1048
    1W        W48373   9.821  27.857   0.304 -0.1646 -0.2879 -0.0750
    1W        W48374  20.215   7.240   8.071  0.5007  0.0366 -0.0020
    1W        W48375  19.577  17.134   8.622  0.1861 -0.0543 -0.1757
    1W        W48376  15.294  10.401   0.635 -0.0060 -0.2702 -0.3039
    1W        W48377  12.959   2.814   2.752 -0.2347  0.0044 -0.1331
    1W        W48378  16.133   3.523   2.608  0.0998  0.3090 -0.0429
    1W        W48379   2.599   2.022   2.142 -0.1700 -0.1576 -0.0357
    1W        W48380   9.643   9.151   9.849 -0.1573 -0.1695  0.0174
    1W        W48381  11.899  22.814   7.086  0.0790 -0.0909 -0.1056
    1W        W48382   9.841  23.350   0.857  0.2465 -0.1493  0.1711
    1W        W48383  12.124   0.267   7.198 -0.2029 -0.2837  0.2113
    1W        W48384  10.306  11.023   7.761  0.0597 -0.0859  0.2684
    1W        W48385   7.732   0.125   8.616 -0.0068 -0.2847  0.2413
    1W        W48386  13.436   1.314   8.092  0.3905 -0.2140 -0.1403
    1W        W48387   6.158   6.068   7.360 -0.0620  0.1642  0.2372
    1W        W48388   4.892  17.028   1.012 -0.0942 -0.0185 -0.0263
    1W        W48389  25.504  24.596   0.736 -0.0459  0.3797 -0.2138
    1W        W48390  19.374  21.673  10.073 -0.0370 -0.1693 -0.2152
    1W        W48391   9.851   5.939   9.643 -0.3036 -0.4128 -0.0731
    1W        W48392   8.036  27.135   9.110  0.0336 -0.2492  0.1595
    1W        W48393  13.186  14.542   0.118  0.1431 -0.0194  0.1325
    1W        W48394  22.622   5.824   0.242  0.1041 -0.0079 -0.0845
    1W        W48395  14.560  16.965   9.914 -0.1921 -0.0271 -0.1958
    1W        W48396   1.611  21.998   7.504  0.0390 -0.0489 -0.2528
    1W        W48397  22.037  24.554   7.253  0.0065  0.1225 -0.0342
    1W        W48398  18.028   4.103   0.829  0.0165  0.2530 -0.0418
    1W        W48399  21.733  25.327  10.005  0.0142  0.0489 -0.3115
    1W        W48400  12.599  19.508   1.972 -0.0939 -0.1150  0.0484
    1W        W48401  17.058  25.404   7.689  0.2813 -0.3522 -0.1859
    1W        W48402  25.787   5.765   1.510 -0.0215  0.0811  0.4535
    1W        W48403   7.930   7.009   9.463 -0.0551  0.0644 -0.1062
    1W        W48404  20.503  15.193   0.322 -0.1850  0.3353  0.3689
    1W        W48405  21.083   9.940   2.131  0.0054  0.0198  0.0150
    1W        W48406   8.854  21.705   0.848 -0.1328 -0.1722 -0.3942
    1W        W48407  10.870  13.890   2.624  0.2316 -0.2486 -0.0559
    1W        W48408   3.163  20.634   7.543 -0.2003 -0.0829 -0.3046
    1W        W48409  14.802  26.121   1.006  0.0732  0.0571 -0.0138
    1W        W48410   9.135   7.156  10.000 -0.0299  0.0088 -0.0803
    1W        W48411  11.111  17.664   3.662  0.1004  0.1053  0.2633
    1W        W48412  18.901  19.659   3.039  0.1099 -0.1220 -0.2497
    1W        W48413  18.669  19.749   0.255  0.1334 -0.4456 -0.1083
    1W        W48414   7.709  25.832  10.197  0.1450  0.1546  0.1471
    1W        W48415  12.213  22.304   1.695 -0.2143  0.1956  0.1222
    1W        W48416  24.404  22.517   8.891 -0.0143  0.0074 -0.2661
    1W        W48417  17.650   4.061   8.401  0.1071 -0.0671 -0.1195
    1W        W48418  21.666  16.604   2.680  0.3211  0.2521 -0.0243
    1W        W48419  17.092  26.802   1.339  0.1401  0.0067  0.1675
    1W        W48420  19.306   3.471   0.526 -0.1405 -0.0074  0.0367
    1W        W48421  25.957  19.257   2.113  0.0280 -0.0035  0.3495
    1W        W48422  12.454   1.770   1.550 -0.2167 -0.0365 -0.0656
    1W        W48423   8.472  12.383   8.544  0.0313  0.0640  0.1367
    1W        W48424   9.205  23.269   2.398 -0.1057 -0.3261  0.0620
    1W        W48425   8.269  18.765   0.045 -0.2038  0.0683 -0.2072
    1W        W48426  14.928  25.739   8.823 -0.1839  0.0136 -0.2774
    1W        W48427  21.526  20.748   8.575  0.0684 -0.1553 -0.0617
    1W        W48428   4.795  25.850   7.518  0.1756 -0.2980  0.0538
    1W        W48429  26.828  12.058   1.166  0.0006 -0.1773 -0.1590
    1W        W48430  27.562   7.844   9.446  0.2742  0.3102  0.2870
    1W        W48431  14.723  27.403   0.149 -0.0591 -0.1887  0.2457
    1W        W48432  13.502  14.652   1.422 -0.0521  0.0250  0.0893
    1W        W48433   4.864  22.340   1.729  0.1224 -0.1268  0.1106
    1W        W48434   4.431  20.776  10.081 -0.0115  0.2546  0.2140
    1W        W48435  17.601   7.517   2.149  0.0884 -0.0439  0.2202
    1W        W48436   3.948   1.312   1.449 -0.0397  0.0498 -0.0386
    1W        W48437  24.340  10.531   7.800 -0.1585  0.1692  0.2469
    1W        W48438   4.892   3.745   1.587 -0.0457  0.0226 -0.1491
    1W        W48439   3.511  17.693   8.987 -0.6265  0.1667  0.5886
    1W        W48440   3.669  24.575   6.808  0.0171  0.0707  0.3515
    1W        W48441   6.647  17.213   8.800 -0.0226 -0.0082  0.0569
    1W        W48442   2.811  26.414   7.136 -0.0058  0.0494 -0.1109
    1W        W48443   7.665   1.882   2.146  0.2701  0.2719  0.0872
    1W        W48444   0.737  11.281   8.591  0.0406  0.1720 -0.1926
    1W        W48445  16.163  10.097   3.907 -0.1135 -0.1504 -0.0382
    1W        W48446   2.566  11.306   8.274  0.1149 -0.4470  0.0728
    1W        W48447  20.684  21.673   9.466  0.1206 -0.0086  0.2282
    1W        W48448   7.716  12.904   6.949  0.1071  0.2760 -0.0852
    1W        W48449  20.656  19.087   8.369  0.1754  0.1151 -0.2625
    1W        W48450   5.502   0.507   7.158 -0.0679 -0.0583  0.5253
    1W        W48451  19.820  24.521   0.131  0.1858 -0.0885 -0.0146
    1W        W48452  19.975  19.078   1.191  0.5006 -0.1666 -0.0686
    1W        W48453   3.979   7.786   3.115  0.1638 -0.0910  0.1757
    1W        W48454  11.552   2.636   8.004 -0.0618  0.0677 -0.2315
    1W        W48455  28.054  22.633   7.522  0.2028 -0.2427 -0.1606
    1W        W48456  19.441  11.669   2.335 -0.0152  0.1286  0.0176
    1W        W48457   4.605   1.045   1.087  0.0134  0.0979 -0.1093
    1W        W48458   5.682  17.924   0.903  0.2985  0.0843  0.0413
    1W        W48459   6.836   2.250   0.918  0.3436  0.1229 -0.0012
    1W        W48460  11.530   2.439  10.307 -0.1237 -0.0874  0.1437
    1W        W48461   2.727  11.059   9.119 -0.1831 -0.4233 -0.0727
    1W        W48462  24.723  14.352   7.031 -0.0807 -0.0449 -0.0177
    1W        W48463  14.061  22.222   2.776 -0.3729  0.0306  0.1793
    1W        W48464  12.818  24.088   7.858 -0.0221 -0.0142 -0.0892
    1W        W48465  18.508  25.179   9.841  0.1921  0.0560 -0.0692
    1W        W48466  15.336   2.103   8.034 -0.4317  0.2169 -0.0456
    1W        W48467  12.406   3.790   0.189  0.1945 -0.0081 -0.0168
    1W        W48468  26.053   4.504   8.193  0.1776  0.1898 -0.0647
    1W        W48469   6.987   1.535   8.149 -0.5568 -0.1350  0.1123
    1W        W48470   0.602   3.725   1.186  0.1232  0.0051  0.0038
    1W        W48471  18.357  21.376   7.997 -0.1664  0.6157 -0.1062
    1W        W48472  20.701   6.096   8.682  0.1573 -0.0639  0.0468
    1W        W48473  17.770   1.421   0.154  0.1128 -0.1682  0.1627
    1W        W48474  10.282  22.489   2.856 -0.2313 -0.0239 -0.1454
    1W        W48475  16.527  25.909  10.238  0.1692 -0.2235 -0.3397
    1W        W48476  17.491   8.921   7.636 -0.2009  0.1225 -0.1054
    1W        W48477  20.291   5.222   1.326  0.2863 -0.0951  0.0572
    1W        W48478  25.384   5.476   8.886 -0.0213 -0.1203 -0.2293
    1W        W48479  24.035  16.320   0.907  0.1472  0.1379 -0.2593
    1W        W48480   4.898   8.282   7.687 -0.0548  0.0647 -0.1798
    1W        W48481  11.788  12.207   2.874  0.4682 -0.1979  0.1251
    1W        W48482  19.015   8.418   0.058 -0.0094  0.1915  0.0468
    1W        W48483  15.359   4.782   0.181  0.0350 -0.0091 -0.1509
    1W        W48484  22.325   8.698   2.100  0.0262 -0.2445 -0.1219
    1W        W48485   5.295  27.063  10.337 -0.0685  0.0421  0.0278
    1W        W48486   3.165  25.321   2.620 -0.2042 -0.1372 -0.2003
    1W        W48487   5.058   7.313   1.805  0.0245 -0.0077 -0.1294
    1W        W48488  27.079  27.612   1.736 -0.1799  0.0477 -0.0963
    1W        W48489  21.223  15.371   1.129 -0.1208 -0.2359  0.1596
    1W        W48490  21.710  22.829   0.148 -0.1219  0.1255 -0.1999
    1W        W48491  27.806  10.080   3.438 -0.0319 -0.0622 -0.3297
    1W        W48492  21.415  26.475   0.372  0.0834  0.1073  0.0221
    1W        W48493  11.286   1.288   8.634 -0.0311 -0.1539 -0.1858
    1W        W48494  18.718  27.607   7.680 -0.2654 -0.0301  0.1905
    1W        W48495  27.059  23.373   1.893  0.0813 -0.1534 -0.1335
    1W        W48496   5.451  20.290   3.700 -0.2565 -0.2206  0.1137
    1W        W48497   2.229  24.254   3.020  0.0115  0.2156  0.0142
    1W        W48498   0.679  28.019   0.058 -0.0105  0.0678  0.0564
    1W        W48499  20.899   0.987   2.142 -0.0612 -0.1560  0.1396
    1W        W48500  16.546   6.178   9.588 -0.1875 -0.1857 -0.1281
    1W        W48501   0.225  20.491   6.939 -0.1147 -0.0631  0.0888
    1W        W48502   4.359  14.339  10.176 -0.1725 -0.0528  0.1161
    1W        W48503  18.822   6.571   3.855 -0.1620  0.1157  0.1315
    1W        W48504  14.746  19.655   0.045  0.0827  0.0773  0.1171
    1W        W48505   0.583  20.219   1.010 -0.2968  0.2230  0.1596
    1W        W48506  17.132   7.907   8.418 -0.1651 -0.2199  0.0630
    1W        W48507  26.331  21.266   7.541  0.2563  0.0709 -0.2427
    1W        W48508  27.641  12.976   2.479  0.0235  0.2023  0.0735
    1W        W48509  24.155  22.645   0.774 -0.2420  0.2959 -0.2559
    1W        W48510  26.671  14.753   9.818 -0.2457  0.0078 -0.0310
    1W        W48511  24.009  25.731   9.952 -0.0886 -0.0175  0.0127
    1W        W48512   1.818   2.377   8.752  0.1783 -0.1144  0.2282
    1W        W48513  21.238  27.108   9.002 -0.1624  0.2440 -0.1478
    1W        W48514  27.248  18.804   2.418  0.1450 -0.0432 -0.0588
    1W        W48515  22.794  27.822   0.168 -0.1159 -0.1138  0.1930
    1W        W48516  14.170  15.871   9.548  0.0073 -0.2717 -0.0478
    1W        W48517  11.968  11.202   9.032  0.1820 -0.0789  0.0828
    1W        W48518  10.885  15.223   8.527 -0.0880  0.1445 -0.0458
    1W        W48519   0.425   4.448   0.746  0.0972 -0.2443 -0.1071
    1W        W48520   0.107  17.367   9.549  0.2547 -0.0789 -0.0966
    1W        W48521   1.414  12.811   9.524 -0.3533  0.0202  0.1799
    1W        W48522   3.173   1.002   1.046 -0.0407 -0.0914 -0.1306
    1W        W48523  11.544  13.875   8.261  0.0649 -0.0159  0.1376
    1W        W48524  15.258  17.248   3.096  0.0824 -0.0344 -0.2343
    1W        W48525  22.188   4.747   0.446 -0.1708 -0.1636  0.0612
    1W        W48526   2.944  19.592  10.067  0.0151  0.0102  0.0864
    1W        W48527  19.366  25.745   8.222 -0.0436 -0.2073 -0.2049
    1W        W48528   6.215   3.816   8.480  0.1968 -0.1107  0.2381
    1W        W48529  25.790   1.636   7.117 -0.1943  0.0324  0.2031
    1W        W48530  25.405   7.653   2.401  0.1261 -0.0338  0.2891
    1W        W48531   3.836   7.530   8.936  0.1714 -0.2118 -0.1598
    1W        W48532  22.038   8.112  10.299 -0.1974  0.0536  0.0987
    1W        W48533   1.602  22.363   8.328 -0.0094  0.1790 -0.1449
    1W        W48534  23.345  20.000   9.587  0.0027 -0.0320 -0.1209
    1W        W48535  27.774  15.875   7.348  0.0909  0.1007 -0.0003
    1W        W48536  21.993   9.109   1.836  0.2218  0.0463 -0.1430
    1W        W48537  24.294   1.946   9.960 -0.0315  0.0063  0.1366
    1W        W48538  27.596   9.888  10.344 -0.1025 -0.0954  0.4797
    1W        W48539  10.522  27.302   9.535 -0.2766  0.3468 -0.0274
    1W        W48540   7.839  15.392   8.888  0.0338  0.1131 -0.4940
    1W        W48541  19.446  18.965   2.890  0.0924 -0.3341  0.1540
    1W        W48542  25.954   9.366   1.639 -0.0806 -0.1615 -0.0871
    1W        W48543  19.277   7.297   2.850 -0.0511 -0.0519  0.2287
    1W        W48544   9.878   8.769   9.716  0.0620 -0.3075  0.0597
    1W        W48545  25.951  13.412   1.858 -0.0188 -0.2735  0.5798
    1W        W48546  15.505  16.140   7.524  0.0546  0.1207  0.0419
    1W        W48547   2.953  23.525   2.111  0.0092  0.0782 -0.0669
    1W        W48548  20.186  23.243   7.817 -0.0522  0.0289 -0.0779
    1W        W48549  11.865  18.236   1.898  0.0062 -0.2920  0.1709
    1W        W48550  15.706  22.855   1.425  0.4578 -0.1695  0.3458
    1W        W48551  24.220   3.368   0.156  0.0195  0.1340  0.3447
    1W        W48552   9.211  27.617   1.038  0.1038 -0.2780 -0.1491
    1W        W48553  28.012   7.141   0.351  0.1656 -0.0585 -0.2230
    1W        W48554  20.195  13.356   2.057  0.0991 -0.1318  0.1700
    1W        W48555  22.503  27.523   2.279 -0.0887 -0.3909  0.2542
    1W        W48556  16.158   0.936   9.633 -0.0069 -0.1070  0.0010
    1W        W48557  10.870   2.395   1.772  0.0364  0.1006 -0.2178
    1W        W48558   0.507  13.716   0.414 -0.0621  0.1814  0.1729
    1W        W48559   4.035   9.723   9.593 -0.1858 -0.0274  0.0247
    1W        W48560   4.955   2.105   0.991  0.2986  0.1598 -0.0333
    1W        W48561  26.792  10.212   8.320 -0.1269  0.0703  0.2384
    1W        W48562   1.222  10.412   7.768 -0.4396  0.0054  0.1533
    1W        W48563   7.362   5.616   8.378 -0.0271  0.2538  0.4825
    1W        W48564  18.343  27.684   9.078  0.1309  0.1862  0.1784
    1W        W48565   4.905  10.573   8.917 -0.1435 -0.1187  0.0599
    1W        W48566  26.991  11.228   8.070  0.1371 -0.0493  0.0774
    1W        W48567  26.283   2.177   2.964  0.0331 -0.2321 -0.1519
    1W        W48568  15.125   5.120  10.137 -0.3711  0.1026  0.2178
    1W        W48569  12.951  21.427   0.775 -0.0327 -0.1277 -0.1290
    1W        W48570  19.273   1.084   7.092  0.0881  0.1204  0.0532
    1W        W48571   9.391  20.489   0.915  0.0607 -0.0154  0.2505
    1W        W48572   7.614   3.936   0.971  0.2034 -0.2299  0.1115
    1W        W48573  21.229  21.475   0.179 -0.2637 -0.1718  0.1372
    1W        W48574   6.190   7.247   7.026 -0.0363 -0.2696  0.1954
    1W        W48575  23.156  25.585   2.597 -0.1786  0.1681 -0.0042
    1W        W48576   9.891  10.566   3.365  0.0879 -0.2423 -0.1266
    1W        W48577  13.263  19.533   1.346  0.1395  0.0842 -0.1847
    1W        W48578  14.097   7.380   3.073 -0.2504  0.2430  0.1634
    1W        W48579  25.035   7.987   9.631 -0.0266  0.2310 -0.0575
    1W        W48580  27.896  10.293   8.957  0.1809 -0.1812 -0.3615
    1W        W48581  21.658  24.843   6.802  0.0524 -0.0895 -0.0537
    1W        W48582  25.974  22.479   2.543 -0.0999 -0.1333  0.2051
    1W        W48583  23.179   7.551   8.641 -0.0051 -0.0661 -0.2741
    1W        W48584   0.469  14.946   0.207  0.0214  0.1758  0.0329
    1W        W48585   7.626  10.570   9.111  0.4240 -0.2086 -0.1955
    1W        W48586  12.967   2.799   9.380  0.0105 -0.1480  0.0921
    1W        W48587   7.827  10.502   2.554 -0.0384  0.0040 -0.2979
    1W        W48588  25.086  19.947   2.378  0.0387 -0.1336 -0.0197
    1W        W48589  14.132  25.821   2.659 -0.3662 -0.1559  0.0945
    1W        W48590   6.782   2.748   1.670  0.0280  0.0356 -0.2824
    1W        W48591  22.000   1.552   1.175  0.3185 -0.2267  0.3892
    1W        W48592   3.955   8.345   6.634 -0.0321 -0.1164 -0.1889
    1W        W48593  16.801  26.085   3.268  0.0687 -0.0944  0.1298
    1W        W48594  27.647  16.526   7.467 -0.1515  0.0959  0.3050
    1W        W48595  13.380   8.518   1.093  0.3445  0.2358 -0.1324
    1W        W48596  21.516  14.248   2.990  0.0793  0.0002 -0.0605
    1W        W48597   8.895  13.250   8.822  0.1333  0.1449  0.1817
    1W        W48598  19.682   5.073   0.461  0.0599 -0.2425 -0.1083
    1W        W48599  20.971   2.306   9.389 -0.1082  0.0700  0.0695
    1W        W48600  22.547  19.035   2.491  0.1925  0.0159  0.1742
    1W        W48601  16.368  25.877   1.830 -0.0442 -0.3088 -0.3287
    1W        W48602  14.199  25.603   7.831  0.2644  0.0570 -0.0995
    1W        W48603   4.129   6.861   9.709 -0.3095 -0.0284 -0.3704
    1W        W48604   9.061  25.486   2.258  0.0613 -0.0631 -0.1526
    1W        W48605  13.015   3.068   0.235 -0.0310  0.0551  0.0109
    1W        W48606  25.620  19.974   9.393  0.0865 -0.0064 -0.0536
    1W        W48607  27.924  18.547   7.714 -0.0555  0.1768  0.2320
    1W        W48608   9.273  27.310   2.648 -0.1300  0.0692  0.0988
    1W        W48609   5.683  20.011   2.751 -0.1727 -0.3139 -0.2951
    1W        W48610   3.781  15.529   7.656 -0.0529 -0.4156  0.2635
    1W        W48611  18.868  16.770   0.919  0.3374  0.0566 -0.0872
    1W        W48612  26.435  16.056   1.052 -0.2739 -0.0376  0.0842
    1W        W48613  15.588  12.738   2.563 -0.0559  0.0025  0.0253
    1W        W48614   7.578  26.077   2.266 -0.0460  0.1753 -0.2495
    1W        W48615  17.548  10.306  10.331 -0.0624 -0.0140  0.1380
    1W        W48616  11.199  22.258   9.956 -0.1240 -0.0569  0.0492
    1W        W48617   6.079   0.169   6.894 -0.1505  0.0197  0.3935
    1W        W48618  11.776   8.371   9.820  0.2572  0.2009 -0.0483
    1W        W48619   8.661  27.305   8.095 -0.0097  0.1867 -0.0694
    1W        W48620   9.211  20.208   2.994  0.0604  0.1183 -0.1655
    1W        W48621  21.724   5.330   9.564 -0.1366 -0.0785  0.1113
    1W        W48622  17.591   3.565   8.314  0.0078  0.1079  0.1969
    1W        W48623  10.766  20.653   1.570  0.1302  0.0990  0.0773
    1W        W48624   0.279   9.306   8.555 -0.2952  0.0619 -0.1859
    1W        W48625  10.855   8.461   7.749 -0.1421  0.0818 -0.0924
    1W        W48626  23.788   2.331   8.441 -0.3516 -0.0335  0.1863
    1W        W48627  17.603   1.386   2.165  0.0950 -0.0677  0.0488
    1W        W48628  26.943  14.957   0.897 -0.2086 -0.3407 -0.0134
    1W        W48629   6.100  22.067   8.619 -0.1242 -0.1847  0.2565
    1W        W48630  19.736  20.319   0.342  0.3221 -0.0340 -0.0517
    1W        W48631  11.811   8.076   0.692  0.0697  0.1331 -0.0683
    1W        W48632  15.909  14.720   2.263 -0.0360 -0.2503  0.1606
    1W        W48633  16.557  11.930   2.920  0.0187  0.0364  0.3183
    1W        W48634   2.726  14.341   0.523 -0.1103 -0.2682 -0.2384
    1W        W48635   7.620   0.062   1.850  0.1660 -0.3255 -0.1294
    1W        W48636  22.805   4.859   8.047 -0.0080 -0.2374  0.2824
    1W        W48637   9.742   5.330   9.273 -0.0784 -0.1698 -0.0857
    1W        W48638   1.669  18.315   9.569 -0.1281 -0.2150 -0.0262
    1W        W48639   0.551  22.806   2.464  0.1953 -0.1257  0.0327
    1W        W48640   1.432   9.826   8.337 -0.2202  0.0245 -0.3404
    1W        W48641   2.686  11.558   3.130 -0.2948 -0.0554 -0.2083
    1W        W48642  17.512  20.108   8.193  0.0858 -0.1606  0.0467
    1W        W48643  15.746  20.048   7.996  0.1233 -0.2908  0.0781
    1W        W48644  18.051  10.925   1.743 -0.4042  0.1400 -0.2015
    1W        W48645  27.859  19.787   8.921 -0.0699  0.0335 -0.0101
    1W        W48646  23.433  15.682   9.022 -0.1870 -0.0761 -0.0746
    1W        W48647   8.052   9.010  10.282 -0.1711  0.2201  0.2706
    1W        W48648   1.478  22.307   1.696  0.3061  0.1754  0.2496
    1W        W48649  20.608  20.604   9.200  0.3100 -0.2460 -0.1920
    1W        W48650  12.884  12.772   8.208 -0.1394  0.1390 -0.1130
    1W        W48651   2.147   2.783   6.992  0.1985  0.0132 -0.0289
    1W        W48652   2.776  11.429   6.531 -0.2700 -0.0319  0.0129
    1W        W48653  20.122   2.794   1.387 -0.1141  0.0505 -0.0505
    1W        W48654  12.998   2.895   3.693  0.3096 -0.1469  0.0260
    1W        W48655  24.942   4.972   8.154 -0.1016  0.0407  0.0963
    1W        W48656  22.004  26.773   2.492 -0.0027 -0.6482  0.1463
    1W        W48657  16.724  14.763   0.232  0.1383 -0.0775 -0.0340
    1W        W48658  19.405  17.688   3.204 -0.0539 -0.0403 -0.1447
    1W        W48659   5.977   6.083   6.865  0.2021 -0.0142 -0.1179
    1W        W48660   7.095   2.736   9.821 -0.0283  0.0982 -0.0220
    1W        W48661  12.655  24.375   8.285  0.0578 -0.3332  0.0934
    1W        W48662  11.328   0.630   0.921 -0.1728 -0.0112 -0.1451
    1W        W48663   3.426   6.102   9.544  0.0211  0.0954  0.0735
    1W        W48664  13.027  23.598   7.956  0.1052 -0.1284 -0.1229
    1W        W48665  14.911  26.503   7.707  0.1026  0.0938  0.1287
    1W        W48666  27.418   5.710   1.754 -0.0009 -0.1563  0.0031
    1W        W48667  25.783   9.276   9.305 -0.0735  0.1941  0.0277
    1W        W48668   7.941  25.676   0.370 -0.0533  0.0093  0.0255
    1W        W48669   8.355   5.998   9.432  0.0909  0.1454  0.1975
    1W        W48670  22.038  25.234   0.824  0.0349 -0.2781 -0.1188
    1W        W48671  19.809   2.243   7.283 -0.2928 -0.0536  0.1395
    1W        W48672  11.241  22.036   0.051 -0.1854  0.1448  0.0717
    1W        W48673   3.553  24.024   7.384  0.0315  0.0945 -0.2134
    1W        W48674   3.891  17.173   1.245 -0.0704  0.0193 -0.0646
    1W        W48675  12.649   7.316   9.902  0.1353 -0.2269  0.0517
    1W        W48676   2.675   4.566   6.831 -0.0100  0.2781  0.4870
    1W        W48677   5.559  21.257   8.981 -0.0704  0.0209 -0.2168
    1W        W48678  22.893  20.630   1.317 -0.1325  0.0525  0.0872
    1W        W48679  17.060  15.460   8.679  0.1739  0.1547  0.0640
    1W        W48680  27.226  26.948   2.200 -0.2148  0.1208  0.0729
    1W        W48681  14.766   2.504   3.900 -0.0073  0.1853 -0.3098
    1W        W48682  18.419   1.488   0.998  0.0283  0.0121  0.0728
    1W        W48683  21.597  16.494   8.418  0.3904  0.2172  0.0732
    1W        W48684  24.638  10.980   3.441  0.3761  0.1180  0.0117
    1W        W48685  23.834  26.495   2.355 -0.1405 -0.0704 -0.0277
    1W        W48686  18.207  15.141   3.250  0.0340  0.0852 -0.1062
    1W        W48687  20.000  18.940   0.057  0.1692 -0.3514 -0.0015
    1W        W48688  23.887  20.511   0.441  0.1311  0.3895 -0.1216
    1W        W48689   6.376  23.947   7.780  0.4149 -0.0300 -0.3765
    1W        W48690  26.793  16.519   1.997  0.3595 -0.1705  0.0344
    1W        W48691  25.213   5.295   0.839  0.0367  0.3563  0.0753
    1W        W48692  12.408   4.009   2.810 -0.0442  0.1868  0.0813
    1W        W48693  25.448  15.456   9.381 -0.0500  0.2295  0.3915
    1W        W48694  28.074  11.231   8.038 -0.0014 -0.0386 -0.0042
    1W        W48695  24.581   8.241   1.641  0.1339 -0.2170  0.1607
    1W        W48696   2.135  18.311   9.489 -0.2492  0.0133 -0.3898
    1W        W48697  13.775  15.879   2.479  0.1069 -0.1912 -0.2429
    1W        W48698   5.251  20.790   9.744 -0.2768 -0.0812  0.1165
    1W        W48699  10.760   0.606   0.733  0.4907  0.2556 -0.1843
    1W        W48700   9.659  11.645   7.830  0.2375 -0.3372  0.0882
    1W        W48701  24.447  20.958   6.836 -0.3641  0.0784 -0.2578
    1W        W48702   6.284  26.122   8.038  0.0558  0.0524  0.1708
    1W        W48703  27.129  15.685   8.714  0.0959 -0.0714 -0.1260
    1W        W48704  27.215  26.942   1.682  0.2059  0.1869 -0.2356
    1W        W48705   5.975  21.308   1.353 -0.1847 -0.3729 -0.2303
    1W        W48706  25.080   7.692   1.448  0.0693 -0.3244  0.1904
    1W        W48707  28.112  12.474   7.732 -0.0885 -0.0275 -0.1028
    1W        W48708  14.601  21.308   1.587 -0.1702 -0.1070 -0.1461
    1W        W48709  27.969  27.376   2.222 -0.1766 -0.0666  0.0495
    1W        W48710  24.610  11.482   2.012  0.3251  0.0691 -0.0820
    1W        W48711  11.897   6.763   0.628 -0.1897 -0.0601  0.0491
    1W        W48712  24.061  18.453   1.014 -0.1793 -0.3795 -0.0165
    1W        W48713  13.986  19.710   1.706  0.2543 -0.0414  0.2006
    1W        W48714  12.560  24.535  10.071  0.0527  0.2283  0.2074
    1W        W48715   3.740  21.868   2.151  0.1616 -0.3708  0.1819
    1W        W48716   7.345  25.862   9.623  0.3804 -0.0691 -0.0721
    1W        W48717  24.727  23.178   2.309 -0.1413  0.0219  0.2681
    1W        W48718   9.564   5.233  10.336  0.0852 -0.0364  0.0326
    1W        W48719  17.943  18.892   2.954 -0.0258  0.2626  0.0227
    1W        W48720   9.081  13.137   3.161  0.1306 -0.2345 -0.1231
    1W        W48721  25.122  27.334   8.885 -0.0843  0.2394  0.2498
    1W        W48722  21.845   1.295   7.475 -0.0004  0.1310 -0.0823
    1W        W48723  15.385  25.076   6.766 -0.0720 -0.0644 -0.1252
    1W        W48724   6.484   6.777   7.316 -0.2243 -0.1592 -0.2891
    1W        W48725  26.454  13.020   2.277  0.0389  0.0304  0.0564
    1W        W48726  17.237  14.982   1.931 -0.1904  0.2190 -0.3480
    1W        W48727  15.299   8.318   9.728 -0.1091 -0.4177 -0.1330
    1W        W48728   8.105  12.566   1.193  0.1761  0.1615  0.1938
    1W        W48729  27.363  23.926   8.180  0.1811 -0.0008 -0.2016
    1W        W48730  17.588   4.523   1.261 -0.1211 -0.0135 -0.1197
    1W        W48731  18.962   6.675   2.782 -0.1462 -0.1867  0.2559
    1W        W48732   1.999   7.390   0.839  0.0991  0.0870  0.0100
    1W        W48733  17.153  13.727   4.070 -0.1438 -0.2856  0.0829
    1W        W48734   7.750  17.012   3.747 -0.0020  0.0367 -0.4322
    1W        W48735  14.877   6.905   9.877 -0.1330 -0.0191 -0.0695
    1W        W48736  10.078  11.718   9.804 -0.0767  0.1439 -0.0310
    1W        W48737  13.503   3.072   0.322  0.2625  0.0007  0.1871
    1W        W48738  25.954   2.357   9.166 -0.3615  0.1062 -0.1504
    1W        W48739   4.888  20.319   0.163 -0.3331 -0.0655  0.2388
    1W        W48740  23.362  15.864   9.933  0.2047 -0.1654  0.2753
    1W        W48741  12.511  22.198   3.419  0.4219  0.0940 -0.1204
    1W        W48742  11.893  21.205   2.378  0.2331 -0.0023 -0.0810
    1W        W48743   5.248  25.294   2.281 -0.1719  0.0643  0.3392
    1W        W48744  10.016   8.456   0.959 -0.1522  0.0339 -0.0170
    1W        W48745  12.516   4.550   9.399  0.0106  0.0016 -0.1660
    1W        W48746  17.988  18.410   1.303 -0.1771  0.2260 -0.0679
    1W        W48747   3.265  14.876   8.676  0.3720  0.1791 -0.0584
    1W        W48748  25.057  13.880   7.698  0.2200 -0.1589  0.2204
    1W        W48749   8.117   3.694   7.969  0.1908 -0.3090 -0.0228
    1W        W48750  20.608   9.827   1.038 -0.1156  0.0649  0.2421
    1W        W48751   7.309  23.325   8.901  0.2008  0.0093  0.0753
    1W        W48752  23.907   9.891   2.093  0.2482 -0.2268  0.1152
    1W        W48753   8.696  20.632   9.207  0.2091  0.3744  0.0276
    1W        W48754  16.566  18.174   1.498  0.1234  0.1312 -0.0594
    1W        W48755  15.070   7.888   3.700  0.1983  0.0480 -0.0213
    1W        W48756  21.512   0.903   9.554 -0.0789 -0.0310 -0.1345
    1W        W48757  27.841  22.340   3.235  0.3272  0.2854  0.1349
    1W        W48758  18.242   9.386   8.234 -0.1154  0.0624 -0.0799
    1W        W48759  16.994  16.815   2.755  0.2142  0.2523 -0.0835
    1W        W48760   1.125  24.387   8.135  0.0993  0.0493  0.0940
    1W        W48761   2.699   8.422   7.904  0.0091 -0.1028 -0.0257
    1W        W48762   4.406  17.133   7.245  0.2600 -0.1847  0.0484
    1W        W48763  12.555  15.426   7.451 -0.0623 -0.0412  0.1868
    1W        W48764  12.009  22.530   1.275 -0.1370 -0.4128 -0.0576
    1W        W48765  26.741  18.872   2.326  0.0056  0.1188  0.2169
    1W        W48766   9.076   5.697   0.600 -0.0841  0.1869 -0.1443
    1W        W48767  25.563  15.756   8.794  0.3355  0.3328  0.1548
    1W        W48768  16.309  16.413   1.242  0.0160 -0.0331 -0.2407
    1W        W48769  13.061  15.878   1.235  0.2153  0.0738 -0.1609
    1W        W48770   2.181   4.098   6.921 -0.1306 -0.0068  0.1011
    1W        W48771  12.851  19.721   9.359 -0.0374  0.0415  0.2144
    1W        W48772  21.790  26.655   8.236  0.1117 -0.1324 -0.0809
    1W        W48773   6.467  18.441   8.481  0.0072  0.0856  0.0695
    1W        W48774   8.625   8.817  10.222  0.1993 -0.1619 -0.0870
    1W        W48775   6.219   0.339   1.457  0.1859  0.1684 -0.1490
    1W        W48776   9.727  18.932   2.009 -0.0128  0.2391  0.0215
    1W        W48777  13.225   6.453   1.088  0.4921  0.1046 -0.4338
    1W        W48778  15.759  19.262   1.445 -0.0586 -0.1377 -0.0396
    1W        W48779  20.438   1.135   8.056 -0.0531  0.2851  0.1285
    1W        W48780  18.986  15.989   9.917 -0.0917  0.0060  0.1037
    1W        W48781  10.196  17.330   9.138  0.0732 -0.0851  0.3197
    1W        W48782   1.052  27.704   9.159  0.1645 -0.1607 -0.0641
    1W        W48783  24.249   0.047   0.640 -0.1843  0.2502 -0.3910
    1W        W48784  10.857  28.125   9.497 -0.1685 -0.0709  0.0858
    1W        W48785   3.280  26.609   2.353  0.1705  0.0485  0.0517
    1W        W48786  20.893  22.421   2.767 -0.2195 -0.0441 -0.2918
    1W        W48787  24.945  14.740  10.156 -0.0284 -0.0973 -0.0090
    1W        W48788   0.922  25.554   2.753  0.0098  0.1645  0.0166
    1W        W48789   3.426  17.307   9.384  0.1297  0.1111  0.1391
    1W        W48790   0.385  18.089   9.002 -0.0107  0.1079 -0.2849
    1W        W48791  15.985   8.444   4.041 -0.2914 -0.1122 -0.0583
    1W        W48792  20.041   0.619   8.797 -0.0050  0.0501  0.3538
    1W        W48793  23.328   8.324   9.017  0.1325 -0.1521 -0.2779
    1W        W48794  20.507   3.574   9.639 -0.2520  0.0764  0.0376
    1W        W48795   2.662  27.420   7.829 -0.1806  0.3881 -0.2385
    1W        W48796  14.236  13.537   2.600  0.3950 -0.1183 -0.2001
    1W        W48797   3.859  10.115   0.202 -0.1847  0.3880 -0.1726
    1W        W48798  14.474  28.039   2.404  0.1543  0.1638 -0.1352
    1W        W48799  24.914  23.662   9.641 -0.1112 -0.0302 -0.1823
    1W        W48800  22.486   7.286   7.212  0.1418  0.0798  0.0650
    1W        W48801  12.448  28.016   8.655 -0.4158  0.3046  0.1996
    1W        W48802  26.454   1.452   1.540 -0.1757  0.2351  0.0512
    1W        W48803  17.093   0.338   3.004 -0.2422 -0.0085 -0.1701
    1W        W48804   9.939   3.765   2.597  0.1155 -0.0770 -0.3162
    1W        W48805  28.044  25.479   2.082 -0.1274  0.0659 -0.5537
    1W        W48806  18.016  20.028   3.209  0.1360  0.2991  0.2553
    1W        W48807  18.422  13.833   0.218  0.2851  0.0667  0.1810
    1W        W48808   4.733   3.767   8.121 -0.3861 -0.1394  0.0764
    1W        W48809   5.416  10.303   1.491 -0.3245  0.0744 -0.2589
    1W        W48810   7.702  21.059   4.049  0.3317 -0.1074  0.1110
    1W        W48811   4.966  26.694   7.878 -0.0257 -0.3212 -0.2301
    1W        W48812   8.758   1.617   7.514  0.0463  0.0714 -0.0562
    1W        W48813   0.855  25.315   2.329  0.0332  0.1012 -0.2113
    1W        W48814  25.356   1.720   2.084 -0.0235 -0.0272 -0.2517
    1W        W48815  20.757  12.268   2.686 -0.1854 -0.1707 -0.0366
    1W        W48816  17.684  19.324   2.855  0.2813  0.2533  0.0294
    1W        W48817   3.905  13.735   0.579  0.1371 -0.0282 -0.1191
    1W        W48818   9.223   2.343   1.090  0.1388  0.1252 -0.0961
    1W        W48819   7.445   7.251   1.937 -0.0331  0.0363 -0.1816
    1W        W48820   8.171  17.856   0.705 -0.0273  0.1049  0.4213
    1W        W48821   6.738  22.436   1.914  0.0104 -0.0200  0.1160
    1W        W48822  13.774   5.448   0.118  0.0760  0.0516  0.1106
    1W        W48823   9.672  17.516   1.805  0.2018  0.0474 -0.0154
    1W        W48824  11.295  26.943   0.277  0.0042 -0.0553  0.0464
    1W        W48825   6.662  26.097   1.620 -0.2420 -0.2962 -0.0414
    1W        W48826  20.722   1.684   7.714 -0.1450  0.3161  0.0475
    1W        W48827  21.783  24.893   0.565  0.1138  0.0497  0.1437
    1W        W48828   3.992   9.950   1.767  0.1331 -0.0387  0.1536
    1W        W48829  13.174  24.360   8.067 -0.1159 -0.0194  0.2112
    1W        W48830   2.224  20.900   1.105  0.1121  0.0203  0.0090
    1W        W48831   0.938  10.358   0.910  0.0146  0.1829 -0.3522
    1W        W48832  25.217   2.977   2.557 -0.1703  0.0926  0.0479
    1W        W48833  12.298  12.594   0.585  0.1625 -0.2339 -0.2205
    1W        W48834   8.130  13.159   6.725 -0.0380 -0.0039  0.0472
    1W        W48835   1.872  25.303   7.797 -0.1792 -0.1720  0.0033
    1W        W48836   0.091  17.937   2.064  0.0791 -0.0965 -0.4612
    1W        W48837   6.853   8.917   8.072  0.2396  0.3123 -0.1907
    1W        W48838   7.993  27.429   8.643  0.1148  0.0683 -0.1864
    1W        W48839  19.663  10.225   9.972  0.0292  0.2009 -0.5832
    1W        W48840  21.495   1.535   9.080  0.0314 -0.1796  0.1268
    1W        W48841  10.727   6.501   2.432 -0.0711 -0.2017  0.0008
    1W        W48842  25.164  18.216   0.607  0.0007 -0.3074 -0.1404
    1W        W48843  24.150  11.515   0.332 -0.2808 -0.1087  0.1397
    1W        W48844  20.182   2.523   7.086  0.0897  0.1198  0.0078
    1W        W48845  20.192  13.955   8.667 -0.2985 -0.0426 -0.1878
    1W        W48846  26.472   1.323   0.974  0.0721  0.2018  0.4052
    1W        W48847  22.402   4.951   8.385 -0.0150  0.1523 -0.1315
    1W        W48848  20.501   7.322   8.997  0.1546 -0.1234  0.2265
    1W        W48849  13.236  22.619  10.019 -0.1330  0.2764  0.1846
    1W        W48850  25.909  25.523   7.932 -0.2270 -0.2903 -0.1944
    1W        W48851  26.305   0.650   7.843 -0.3790  0.2997 -0.0279
    1W        W48852   2.000  15.168   7.091  0.1682  0.0612  0.3535
    1W        W48853  11.339  13.482   2.201  0.2542 -0.0071  0.3837
    1W        W48854  25.568   6.834   2.944  0.0337 -0.2945 -0.0120
    1W        W48855  23.230  24.471   9.425 -0.3039 -0.1040  0.0645
    1W        W48856  17.903  21.813   8.017 -0.1636  0.0062 -0.1843
    1W        W48857  23.556  27.818   2.245 -0.1697  0.1213 -0.4404
    1W        W48858  13.673  27.320  10.009 -0.2499  0.1732 -0.3174
    1W        W48859  26.922  13.290   1.465  0.2172  0.3046  0.4419
    1W        W48860  14.585  24.072   0.946  0.1909  0.6244 -0.2283
    1W        W48861  26.535  24.260   8.521  0.2265  0.0666  0.0680
    1W        W48862  13.514  14.933   2.466  0.0842  0.0396  0.3669
    1W        W48863   6.415   9.614   2.748  0.3033 -0.1998  0.2631
    1W        W48864  15.771  22.333   1.611 -0.0040  0.1178  0.1185
    1W        W48865  10.903  18.164   1.130  0.4088  0.4419 -0.1266
    1W        W48866  14.663   8.938   8.612 -0.1781  0.1411 -0.2318
    1W        W48867   8.986  10.492   1.914  0.0388 -0.3649  0.0245
    1W        W48868   8.743  21.127   8.543 -0.1385  0.0365 -0.0150
    1W        W48869   8.358  17.994   3.754  0.2881  0.1279 -0.2568
    1W        W48870  11.530  23.705   1.056 -0.0111  0.1242 -0.0805
    1W        W48871  17.313   4.076   7.974  0.0042 -0.1750 -0.0296
    1W        W48872   1.781  17.415   6.505 -0.1326  0.0388 -0.2144
    1W        W48873  19.754   6.314   7.431 -0.1722  0.1398  0.3947
    1W        W48874  17.852  18.371   9.422  0.2574  0.1593  0.0383
    1W        W48875  13.430  10.846   3.205 -0.2377 -0.2174 -0.2940
    1W        W48876  19.526   1.120   9.292 -0.0302  0.2579  0.3065
    1W        W48877  16.962  14.954   8.595  0.0684 -0.0834 -0.1312
    1W        W48878  11.912   4.560   9.607  0.0788 -0.1686  0.0721
    1W        W48879   2.646   5.072   8.177 -0.1572 -0.2585  0.1588
    1W        W48880  20.881  23.635  10.122  0.0986 -0.2677 -0.2044
    1W        W48881  24.852  16.017   0.551 -0.0437  0.1852 -0.1009
    1W        W48882  22.657  26.336   8.243 -0.0403  0.0815 -0.0438
    1W        W48883   3.881  15.697   2.276 -0.0352 -0.1918 -0.1529
    1W        W48884  18.073  16.048   9.422  0.2998  0.0239  0.1217
    1W        W48885  12.063  18.663   7.359 -0.0204  0.2008 -0.2060
    1W        W48886   2.370   4.538   5.566 -0.0749  0.0290 -0.4414
    1W        W48887   1.689   8.978   1.573 -0.1101  0.0971  0.2248
    1W        W48888  14.703   5.916   1.057  0.0651 -0.0177  0.2199
    1W        W48889   0.529  17.218   8.664  0.2099  0.0667 -0.1871
    1W        W48890   5.793  26.737   1.295  0.0119  0.1748 -0.1282
    1W        W48891  11.697  15.779   7.777 -0.2022 -0.3096  0.1027
    1W        W48892  20.904  11.261   2.553 -0.0589 -0.2718  0.0185
    1W        W48893  12.315   1.454   2.889 -0.0746  0.1817 -0.1681
    1W        W48894   9.411   3.439   7.898  0.0596 -0.1767  0.4153
    1W        W48895   9.327  24.419   0.831  0.1153  0.0384  0.3580
    1W        W48896   6.234  20.450   7.576  0.0390  0.1639 -0.0826
    1W        W48897   3.356  27.580   8.524  0.2583 -0.0294 -0.0051
    1W        W48898  10.612  26.081   1.519  0.0774 -0.0214  0.0177
    1W        W48899   5.805  26.375   2.869 -0.2255 -0.1590  0.0665
    1W        W48900  25.539   6.965   1.226  0.3612  0.1234  0.2348
    1W        W48901  19.932  18.152   8.575 -0.2044  0.4111  0.1278
    1W        W48902   5.911  10.424   1.416  0.0486  0.0939  0.2432
    1W        W48903  27.171  25.351   0.612  0.0303  0.2095  0.2820
    1W        W48904  20.431   2.162   7.418 -0.1795 -0.0581  0.0745
    1W        W48905   8.781  22.864   2.973  0.2090 -0.0083 -0.0134
    1W        W48906   3.222   7.928   6.768  0.3164 -0.0846 -0.1635
    1W        W48907  16.367  13.366   1.725 -0.2533  0.1991 -0.3339
    1W        W48908  17.695   4.135   0.323 -0.0726  0.1135  0.0001
    1W        W48909  10.310  22.542   1.828  0.1813  0.1028 -0.1230
    1W        W48910  10.359   0.593   3.761  0.4805 -0.0277 -0.0391
    1W        W48911   6.951  27.046   0.159 -0.1343  0.0748  0.0328
    1W        W48912  25.957   9.138  10.323  0.2795 -0.2094 -0.1684
    1W        W48913  12.086  13.071   3.663  0.0357  0.1974  0.1394
    1W        W48914  26.119  13.500  10.124  0.0522  0.1249 -0.0215
    1W        W48915  20.791  26.332   8.993 -0.0495  0.1354  0.0163
    1W        W48916  11.548  24.506   0.672 -0.0238  0.1048  0.0812
    1W        W48917  27.254  14.319   3.105 -0.0159 -0.3125 -0.4158
    1W        W48918  18.955  25.670   0.949  0.0871  0.1019  0.1978
    1W        W48919  15.350   9.451   0.547  0.0065  0.0729  0.1330
    1W        W48920  25.298   9.508   2.830 -0.1765  0.2364 -0.2090
    1W        W48921  24.021  26.373   7.332  0.1033  0.1307 -0.0278
    1W        W48922  23.284   5.720   8.423 -0.2688 -0.0637  0.0537
    1W        W48923  12.506   8.410   3.223 -0.1380 -0.0525  0.0873
    1W        W48924   5.871  19.265  10.301 -0.0268  0.0272 -0.2021
    1W        W48925  22.211  16.317   1.340 -0.0556  0.4633  0.1768
    1W        W48926  16.523  23.386   8.471  0.1558 -0.0992 -0.1118
    1W        W48927  25.051  21.782   9.168  0.3585  0.2400  0.3014
    1W        W48928   2.871  14.845   0.480 -0.3869 -0.1822  0.3103
    1W        W48929  27.385  13.580   9.713  0.1831  0.0264  0.0937
    1W        W48930  16.247  24.007   1.150 -0.1049  0.1112 -0.1478
    1W        W48931  24.117  10.833   6.513 -0.0516 -0.1385 -0.1101
    1W        W48932  13.176  23.764   7.482  0.1420 -0.0676 -0.3785
    1W        W48933  13.686  13.914   2.211 -0.3502  0.1151  0.0295
    1W        W48934  25.126  22.287   9.243  0.1289  0.0321  0.0315
    1W        W48935   5.633  17.421   0.166 -0.1105  0.2036 -0.0105
    1W        W48936   8.466  21.805   7.895 -0.0598  0.1201 -0.1024
    1W        W48937  14.283  22.938  10.352  0.0902  0.1122  0.0185
    1W        W48938  22.368   8.307   0.861 -0.0160  0.2044 -0.3618
    1W        W48939   7.361  12.918   9.544 -0.1147 -0.1387  0.0607
    1W        W48940  15.367   0.102   8.357  0.1020  0.1421  0.0872
    1W        W48941   4.888   1.821   0.130 -0.0448  0.1098  0.0784
    1W        W48942  24.600  12.385   7.620  0.2722 -0.0422  0.0124
    1W        W48943   6.469  20.239   0.133 -0.2562  0.1014 -0.0887
    1W        W48944  19.621  26.440   2.803  0.3045  0.2765 -0.4262
    1W        W48945   4.377   0.337   9.736  0.2415  0.0248  0.3914
    1W        W48946  12.121  12.299   8.875  0.1915  0.2692 -0.0294
    1W        W48947  14.514  10.241   8.209 -0.1648 -0.4204 -0.0255
    1W        W48948  22.490  17.320   1.614 -0.1146 -0.0333 -0.0907
    1W        W48949  23.305  26.054   2.784  0.3181  0.1135  0.1368
    1W        W48950   8.563   9.504   6.963  0.2809  0.2525  0.0211
    1W        W48951   7.136  19.690   8.015  0.0041 -0.3805  0.0530
    1W        W48952  17.454  15.756   8.849 -0.0502  0.2913  0.0730
    1W        W48953  18.025   8.406   1.537  0.1284 -0.2958  0.0827
    1W        W48954   0.638  17.947   1.941 -0.0085 -0.0745  0.1045
    1W        W48955   4.788   4.108   6.825  0.0456 -0.1277  0.0101
    1W        W48956   1.993  20.071   0.605 -0.0461  0.0111 -0.0595
    1W        W48957   3.232  26.584   0.767 -0.1613 -0.1852  0.1907
    1W        W48958  13.573  18.258   0.049  0.0651 -0.3928  0.1147
    1W        W48959  22.930  25.628   7.644 -0.1994  0.1919  0.0914
    1W        W48960   5.697  12.241   1.412 -0.1170 -0.0024  0.0887
    1W        W48961   6.031  10.748   8.186 -0.0889  0.0085 -0.0047
    1W        W48962  20.050  16.012   2.261 -0.1651 -0.0235 -0.0021
    1W        W48963  26.177  28.115   1.096 -0.1228  0.0343  0.2920
    1W        W48964   5.284   2.850   1.777  0.1128 -0.1170 -0.1245
    1W        W48965  25.544   1.743   2.555  0.0355 -0.0186  0.2572
    1W        W48966   0.494  21.743   0.789 -0.0218 -0.1544  0.1322
    1W        W48967  14.015  13.115   2.769  0.0376  0.3288  0.1650
    1W        W48968  10.196  16.692   1.864  0.2146  0.0775  0.0422
    1W        W48969  13.554  15.344   2.772 -0.1428 -0.1535  0.1500
    1W        W48970  11.623  18.718   8.216 -0.1284 -0.0331  0.0269
    1W        W48971   2.099  20.704   0.593  0.3187  0.0355  0.2340
    1W        W48972  17.303   5.634   9.410 -0.0265 -0.3601 -0.0802
    1W        W48973  26.271   8.868   6.985 -0.0411 -0.1542  0.0583
    1W        W48974   2.087  25.684   8.797  0.1384  0.1342 -0.0940
    1W        W48975  21.591  27.982   8.341  0.2138 -0.2683  0.1200
    1W        W48976  16.831   8.217   9.707 -0.2795  0.1226  0.1291
    1W        W48977  13.275   4.679   1.087 -0.1408 -0.1143  0.4519
    1W        W48978  20.910  25.510   8.880 -0.2390 -0.0928  0.2274
    1W        W48979  16.443  17.741   1.716  0.4048 -0.1928  0.0169
    1W        W48980  16.680  11.587   8.565 -0.2091 -0.0640  0.1664
    1W        W48981  11.751  12.811   0.302 -0.0799 -0.3093  0.1698
    1W        W48982  20.789   2.185   0.790  0.1730 -0.1537 -0.1078
    1W        W48983  11.076  13.327   0.151  0.0884 -0.1931 -0.1762
    1W        W48984  15.890  24.838  10.334 -0.0451  0.1740  0.0006
    1W        W48985  14.687  20.938   1.317 -0.1334 -0.0576 -0.0621
    1W        W48986   0.561   9.565   7.681  0.0307 -0.1728 -0.1009
    1W        W48987   2.696  12.124   1.588  0.0999  0.1123  0.1039
    1W        W48988  27.864  15.985   8.372  0.0033 -0.0534 -0.0355
    1W        W48989   9.076   9.803   9.000 -0.0379 -0.3197 -0.1399
    1W        W48990  12.100  19.244   2.882  0.1548 -0.0014  0.0917
    1W        W48991  25.615  26.727   0.461  0.1123  0.1226  0.0448
    1W        W48992   1.868  26.413   0.902 -0.0596 -0.2569 -0.1506
    1W        W48993   5.065   2.841   9.007 -0.1622 -0.2801 -0.0679
    1W        W48994  16.545  26.274   0.616  0.0315 -0.0544  0.0315
    1W        W48995  24.667   2.551   3.110 -0.0074  0.0289  0.1705
    1W        W48996  14.425   7.712   1.193 -0.1354 -0.2714 -0.0068
    1W        W48997  24.972   9.511   9.646 -0.1909 -0.1473 -0.1306
    1W        W48998  25.475  17.379   0.276  0.2979  0.0544 -0.1856
    1W        W48999   1.609   8.030   0.313  0.0422 -0.1693 -0.0232
    1W        W49000  16.267   3.599  10.315 -0.1897  0.2029 -0.0807
    1W        W49001   2.316   6.597  10.118  0.0039  0.1301 -0.2249
    1W        W49002  25.920   3.452   2.938  0.1120 -0.0881  0.0954
    1W        W49003  27.710   8.209   0.820 -0.2784 -0.2882  0.0588
    1W        W49004  18.503  22.475   1.845  0.2314  0.1759 -0.1889
    1W        W49005  20.648   0.907   2.752 -0.1725 -0.2307  0.3271
    1W        W49006  22.587   6.388   2.102  0.0433  0.0624 -0.0121
    1W        W49007  11.832  25.216   3.139  0.1386 -0.2474  0.1126
    1W        W49008  15.063  12.339   3.090 -0.0746  0.2292 -0.2426
    1W        W49009  24.510  13.815   1.338 -0.1134 -0.1910  0.1196
    1W        W49010   5.984  14.829   8.884 -0.1824  0.1645 -0.2489
    1W        W49011  24.864  25.983   7.099  0.0605 -0.1007  0.2629
    1W        W49012  24.014  11.342   9.640  0.0673 -0.0518 -0.2466
    1W        W49013  10.116  14.900   2.684 -0.3351  0.2935 -0.0798
    1W        W49014  14.751  18.605   0.066  0.1187 -0.0522 -0.0926
    1W        W49015  19.671   8.985   0.885  0.1170 -0.2700  0.0159
    1W        W49016  26.209  14.035   7.570 -0.2364  0.0782 -0.0345
    1W        W49017   1.109   4.701   8.654 -0.1872 -0.0513  0.0859
    1W        W49018   6.918  11.474   7.769  0.2133  0.0831 -0.1855
    1W        W49019  19.194  15.363  10.026 -0.5191  0.1776  0.0295
    1W        W49020   1.789   4.869   9.989  0.0260  0.0305  0.1711
    1W        W49021  25.582   0.909   0.107  0.4829  0.0479 -0.1489
    1W        W49022  11.413  20.106   9.754 -0.1020  0.0066  0.0801
    1W        W49023  27.880  17.358   1.068 -0.0306 -0.0015  0.2267
    1W        W49024  12.474   8.136   7.958 -0.3418 -0.1673 -0.0128
    1W        W49025   4.913   4.539   7.508 -0.2768 -0.0475 -0.2229
    1W        W49026  18.783   1.122   9.576 -0.0343 -0.2731  0.1305
    1W        W49027   5.730   4.012   1.977 -0.2206 -0.0654  0.3463
    1W        W49028  19.798  19.162   1.733 -0.1682 -0.1377  0.0661
    1W        W49029  15.268  20.925   2.246 -0.0552  0.1597 -0.0041
    1W        W49030   5.033  14.118   7.083  0.2767 -0.0308 -0.3342
    1W        W49031  25.201  17.135   7.450 -0.0099  0.0489 -0.0139
    1W        W49032   8.969  15.843  10.169  0.2558 -0.2618  0.0524
    1W        W49033   8.266   4.306   0.719 -0.0299 -0.0851 -0.2785
    1W        W49034   1.949  13.818   8.636  0.0084  0.1335  0.1275
    1W        W49035  19.299  26.545   9.299  0.0373  0.0212  0.4569
    1W        W49036   5.429  17.623   8.543 -0.1979 -0.4049  0.0482
    1W        W49037   2.145   9.910   9.804  0.0887  0.1228 -0.1464
    1W        W49038  10.466   2.722   2.593 -0.0948 -0.1862 -0.0426
    1W        W49039   6.707  17.621   1.443  0.1119  0.3133  0.0502
    1W        W49040   5.263   7.299   9.251  0.0456  0.0504  0.0158
    1W        W49041   6.747  13.239   1.686  0.0342 -0.2179  0.0925
    1W        W49042  22.285  10.361   0.886  0.1300 -0.0416  0.1013
    1W        W49043   6.960  17.436   9.183 -0.2175 -0.1600  0.2667
    1W        W49044  12.932  27.901   3.025  0.2425 -0.1826 -0.0522
    1W        W49045   9.944  23.195   3.274 -0.0409  0.1732  0.0390
    1W        W49046  19.326   0.830   0.227 -0.1703  0.1019  0.4684
    1W        W49047  11.140   2.017   9.422  0.0741 -0.0273  0.1027
    1W        W49048  23.078  16.115   7.214 -0.0361  0.2486  0.1053
    1W        W49049   5.996  10.016   2.237 -0.0688 -0.0827  0.1636
    1W        W49050   3.847  17.178   9.088 -0.1756 -0.2701 -0.0038
    1W        W49051  23.885  24.338   3.675 -0.0890  0.2235  0.0332
    1W        W49052   1.989   2.560   8.247  0.3150 -0.0805 -0.0449
    1W        W49053   5.973  12.327   8.978  0.1328  0.1561  0.0619
    1W        W49054  16.906   8.152   1.004 -0.0115  0.1084  0.1068
    1W        W49055   0.961   6.629   8.640 -0.1640  0.3886 -0.1465
    1W        W49056  13.652  15.473  10.293 -0.0274 -0.2481 -0.3656
    1W        W49057  17.993  16.597   2.970 -0.0061 -0.0800  0.0856
    1W        W49058   2.387  11.296   0.314  0.0268 -0.1849  0.2134
    1W        W49059  10.851  22.194   3.005  0.2206  0.2706  0.1198
    1W        W49060  21.876   4.726  10.175 -0.2692  0.0712 -0.0943
    1W        W49061   6.323   9.572   7.365  0.1687  0.2220  0.0805
    1W        W49062  10.426  16.826   8.707  0.1555  0.0482  0.2459
    1W        W49063  17.963   6.383   9.968  0.1874 -0.0198 -0.0198
    1W        W49064  18.672   5.081   7.421 -0.0087 -0.1391  0.1588
    1W        W49065   3.401  10.823   8.055  0.1199  0.0307  0.0206
    1W        W49066   4.645  20.549   9.662  0.2086 -0.0178 -0.1632
    1W        W49067  20.977   6.392   9.829 -0.2180  0.1214 -0.1037
    1W        W49068  10.030   0.342   0.876 -0.0215 -0.1861 -0.0634
    1W        W49069  24.025  24.338   9.482  0.0898 -0.1032 -0.0512
    1W        W49070  20.676  22.202   3.245  0.0036 -0.1272 -0.4692
    1W        W49071  12.158  16.675   2.389  0.0105 -0.0437 -0.0464
    1W        W49072   8.702  22.348   1.358  0.0106 -0.0020 -0.2160
    1W        W49073  16.751  11.672   9.129  0.1054 -0.2997 -0.1371
    1W        W49074   5.945   8.664   1.705 -0.1027  0.0240  0.0889
    1W        W49075  23.052   0.133   7.589  0.1286  0.1456 -0.2287
    1W        W49076  21.060  18.537   7.687 -0.0653 -0.0632  0.0794
    1W        W49077   2.228  18.194   0.861 -0.0333  0.1236  0.0229
    1W        W49078   9.773  12.581  10.186  0.0112 -0.1914 -0.1308
    1W        W49079  19.927  21.733   3.619  0.1988 -0.1864  0.2751
    1W        W49080   3.753  10.060   3.038 -0.4516 -0.5920  0.2048
    1W        W49081  14.091  19.378   8.819 -0.0645 -0.0637  0.4697
    1W        W49082  15.537  23.876   0.493 -0.0673 -0.1388  0.3654
    1W        W49083   5.957  14.644   9.827  0.0899  0.0075  0.0727
    1W        W49084  12.387   5.162   7.856  0.2631 -0.0042  0.1169
    1W        W49085   3.438   7.979   1.311 -0.0796 -0.1060  0.3214
    1W        W49086  21.604   7.898   1.846  0.5708  0.2623  0.2470
    1W        W49087  12.512  20.647   8.795 -0.2069 -0.1087  0.0993
    1W        W49088  11.723   1.599   0.092 -0.0439 -0.0329  0.1352
    1W        W49089  25.052   6.426   0.586 -0.3117  0.1864  0.2355
    1W        W49090  21.701   0.801   0.219 -0.1628  0.1944  0.0064
    1W        W49091  13.144  26.616   0.457  0.0526 -0.1610 -0.4228
    1W        W49092  16.348  26.242   9.090  0.1815 -0.2907  0.3769
    1W        W49093  14.118  20.541   9.295  0.2730 -0.0890  0.0858
    1W        W49094   0.510   1.008   8.361 -0.2564 -0.1821  0.0441
    1W        W49095  16.055  25.010   8.018 -0.1134  0.0759 -0.2650
    1W        W49096   7.540   2.726   9.539  0.1741  0.2528 -0.1526
    1W        W49097  16.876   1.397   9.314  0.1812  0.0761 -0.0342
    1W        W49098  18.579  17.105   3.260  0.2304  0.0301  0.0425
    1W        W49099   1.792   9.350   1.908  0.0073 -0.0477 -0.0407
    1W        W49100  15.224  24.013   3.478 -0.3761 -0.1218 -0.0752
    1W        W49101  10.023  26.790   9.162 -0.0176 -0.1338 -0.3454
    1W        W49102  14.277   7.184   8.395  0.1988 -0.0224 -0.0219
    1W        W49103  22.435  27.433   3.208  0.1021  0.0375  0.0938
    1W        W49104   7.758   6.757   8.456  0.0619  0.2498 -0.1563
    1W        W49105   0.264  16.712   7.355  0.0200  0.2971  0.2813
    1W        W49106  21.222  27.708   9.204  0.3614 -0.0553  0.0021
    1W        W49107  13.396  19.939   7.958 -0.2140 -0.0752  0.0646
    1W        W49108   9.936  10.374   0.195 -0.1883  0.0294 -0.0598
    1W        W49109   8.514   2.142   8.881  0.0064  0.1037 -0.0295
    1W        W49110  28.097  12.668   9.209  0.1527  0.2638  0.2890
    1W        W49111   5.034  17.102   2.496 -0.0352 -0.2025 -0.1728
    1W        W49112   3.176  15.997   6.871 -0.2750 -0.0170  0.1000
    1W        W49113  18.464  11.055   2.565  0.0727  0.1021  0.5169
    1W        W49114   5.691  15.352   8.135 -0.0968 -0.2894  0.2008
    1W        W49115  11.965   4.698   0.816 -0.0023 -0.0503  0.4463
    1W        W49116  14.890   6.503   8.005  0.1004  0.1996 -0.2380
    1W        W49117   0.210  12.346   2.680  0.1087  0.0975  0.0037
    1W        W49118  21.754   2.859   9.254  0.0979 -0.4622  0.1491
    1W        W49119   2.631  16.183   9.727  0.2339  0.2733  0.1866
    1W        W49120  15.378   6.370   6.888 -0.2912  0.0292 -0.2684
    1W        W49121  22.774   4.924   8.704  0.0309 -0.1210 -0.1642
    1W        W49122  14.876  15.742   2.055  0.3470 -0.0251 -0.2206
    1W        W49123  19.763  23.279   8.974 -0.0389  0.1752  0.1096
    1W        W49124  24.715  15.149   0.609  0.0671  0.1019  0.0976
    1W        W49125  15.025  14.185   9.774 -0.0596  0.1730  0.2999
    1W        W49126  27.812   4.575   9.009 -0.0035 -0.2965  0.1737
    1W        W49127  11.039  14.764   8.841 -0.5552  0.2011  0.2472
    1W        W49128  18.544  23.486   9.594 -0.1369  0.1013 -0.0008
    1W        W49129   4.005   6.046   0.297 -0.2335 -0.1643  0.2052
    1W        W49130   6.978  19.560   1.059 -0.3357  0.1720  0.2460
    1W        W49131  18.717   2.496   0.479  0.0726  0.2279  0.1266
    1W        W49132   5.908   2.957   0.018  0.0898  0.1403  0.0485
    1W        W49133  15.097  25.155   8.149  0.0206  0.0878 -0.0577
    1W        W49134  17.189  18.604   2.679  0.1074  0.1971  0.2355
    1W        W49135  21.206  19.563  10.113 -0.0789 -0.1905 -0.1900
    1W        W49136  19.907   9.197   3.689  0.0597  0.1117 -0.1328
    1W        W49137   9.389   9.335  10.303  0.0412  0.1043  0.1345
    1W        W49138   6.022   7.268   2.178 -0.1021  0.0841  0.3411
    1W        W49139  15.062  22.782   9.450 -0.3186  0.0640 -0.0760
    1W        W49140  17.587   9.752   0.096  0.2198 -0.1368  0.2327
    1W        W49141   8.121  19.786   3.592  0.0937  0.2718 -0.1572
    1W        W49142  27.573   9.610   2.520  0.0493  0.4425  0.3532
    1W        W49143   2.213  13.495   9.354  0.2938 -0.0184  0.2060
    1W        W49144   8.426   8.362   9.652 -0.0647  0.0304 -0.0310
    1W        W49145  16.874  17.845   2.097 -0.2883  0.2294  0.3685
    1W        W49146  15.725  23.755   8.585  0.2640 -0.2457 -0.2651
    1W        W49147   3.016  12.802   8.010  0.1640 -0.1193  0.0383
    1W        W49148   8.307   5.232   2.098 -0.0485  0.0201 -0.0735
    1W        W49149  13.980   1.334   7.114  0.1062 -0.1884 -0.0708
    1W        W49150  10.676  14.666   9.391 -0.1081 -0.0408  0.0868
    1W        W49151   2.381   5.932   7.843  0.1472 -0.0819 -0.0614
    1W        W49152  17.827  12.503   0.768  0.0445 -0.2112  0.0585
    1W        W49153  11.272  12.163   2.123  0.0751 -0.1595  0.0554
    1W        W49154   1.492  24.993   9.315 -0.1084 -0.0044 -0.0770
    1W        W49155  17.916  27.619   3.426  0.4190 -0.2184  0.0265
    1W        W49156  27.551  18.452   2.439 -0.0344  0.4260  0.4554
    1W        W49157   4.770  12.096   8.658 -0.1766  0.1065 -0.0053
    1W        W49158  25.046  14.279  10.323 -0.0832  0.0117 -0.2140
    1W        W49159   6.432   1.324   0.141 -0.1526  0.0613 -0.2022
    1W        W49160  14.403   5.500   3.388 -0.1657 -0.0683 -0.1138
    1W        W49161  25.676   3.520   0.386  0.0100 -0.0133 -0.1540
    1W        W49162   0.385  10.541   2.840  0.2378  0.0284 -0.3693
    1W        W49163   6.506   6.272   0.351  0.0448  0.2582  0.1464
    1W        W49164   3.060  27.793   6.917  0.1043  0.2404 -0.0618
    1W        W49165   3.164  13.349   8.111 -0.0296  0.3371  0.0900
    1W        W49166  22.325  13.850  10.351  0.0085 -0.0442  0.3880
    1W        W49167  11.591  24.253   1.108  0.0821 -0.0182  0.0269
    1W        W49168  18.167  18.630   2.285  0.1711 -0.1374  0.1431
    1W        W49169  27.038   9.526   1.141  0.1020 -0.0632 -0.2086
    1W        W49170  26.722  25.208   8.100 -0.1624 -0.1261  0.0293
    1W        W49171  17.440  22.080   8.772  0.0531 -0.0764 -0.1539
    1W        W49172  17.230   2.781   0.604 -0.1623  0.1339  0.0236
    1W        W49173   6.942   3.130   0.356 -0.1586 -0.1906 -0.0225
    1W        W49174  10.761   6.702   7.486 -0.2264  0.2346 -0.0808
    1W        W49175  15.753   1.717   0.160 -0.2634 -0.0997 -0.1376
    1W        W49176   6.867  22.130   8.218 -0.0551  0.3470  0.0652
    1W        W49177   6.900   2.659   2.135 -0.2539  0.2251 -0.2842
    1W        W49178  15.880   5.177   1.392 -0.1679 -0.0075 -0.1080
    1W        W49179  17.186  24.161   2.595 -0.3379 -0.1204 -0.1194
    1W        W49180  18.116   7.954   9.472 -0.0480 -0.0015  0.1564
    1W        W49181  25.769  11.921   7.744 -0.0750 -0.1230 -0.3060
    1W        W49182  21.551  17.834   1.703  0.0834  0.0685  0.3193
    1W        W49183   8.507   3.691   9.332 -0.0792  0.2353 -0.0318
    1W        W49184  13.435   7.392   3.692  0.0292  0.1054  0.5997
    1W        W49185  20.245  11.819   8.895 -0.3619 -0.3021  0.0502
    1W        W49186   9.336   2.831   8.734 -0.0359 -0.2326  0.0188
    1W        W49187   1.261   9.513   7.468  0.0083  0.0823 -0.0121
    1W        W49188  10.561  21.237   2.562  0.2605  0.1909 -0.3274
    1W        W49189  20.145   6.056   2.378  0.1014 -0.1302 -0.0128
    1W        W49190  23.381   4.235   2.258 -0.0449 -0.0267 -0.2553
    1W        W49191  21.844  14.921   2.454  0.1969  0.0726 -0.1063
    1W        W49192  21.458  23.866   7.287 -0.1634 -0.2052  0.1089
    1W        W49193   9.872   4.065   2.196 -0.0632  0.2284  0.0775
    1W        W49194  17.079  16.716   3.239 -0.2048  0.2069  0.4220
    1W        W49195   9.121  14.963   4.045  0.6076 -0.2223 -0.1600
    1W        W49196  10.667   0.555   7.546  0.2764 -0.0688  0.2334
    1W        W49197   6.410  10.730   9.406 -0.1434  0.1183  0.1745
    1W        W49198  12.830   0.980   7.439  0.2152 -0.0429  0.0096
    1W        W49199  21.146   8.906   8.454 -0.1307  0.0009 -0.2286
    1W        W49200  16.719   9.332   9.486  0.0643  0.0551 -0.1376
    1W        W49201  26.259   3.135   9.177 -0.1068  0.3725 -0.1925
    1W        W49202  20.610  25.433   1.071 -0.4026  0.4422  0.0291
    1W        W49203  24.218  23.521   0.538  0.0927  0.2543 -0.0474
    1W        W49204  16.021  15.687   2.502  0.3115 -0.1754  0.0944
    1W        W49205  17.227  20.809   0.132 -0.1574  0.0141 -0.1189
    1W        W49206  25.870   6.012   2.154 -0.5051 -0.2410 -0.0024
    1W        W49207  22.149   0.684   0.493 -0.2116 -0.1136 -0.0352
    1W        W49208   9.659  21.365   2.802 -0.3758  0.0037  0.1996
    1W        W49209  21.568  12.739   0.250 -0.3188 -0.0160 -0.2573
    1W        W49210  11.790  18.212   9.851  0.1111 -0.2625  0.1394
    1W        W49211   7.224   8.181   1.566 -0.0403 -0.1343  0.2691
    1W        W49212   2.368  26.681   6.710  0.0855 -0.3369  0.2427
    1W        W49213  17.235   7.173   3.562  0.3751 -0.0475  0.1223
    1W        W49214  22.024  17.859   2.173 -0.1295  0.4577 -0.1704
    1W        W49215  25.822   8.132   8.503  0.4359  0.1808  0.3558
    1W        W49216  24.153   9.440   2.293  0.1090  0.0828 -0.0450
    1W        W49217   0.163  23.036   6.911  0.1398 -0.2104 -0.1568
    1W        W49218   1.897  24.310   7.053  0.0721 -0.5294 -0.2537
    1W        W49219  17.243   3.258   2.602  0.0756  0.1106  0.1020
    1W        W49220  25.999   3.293   8.702  0.0856  0.0728 -0.2837
    1W        W49221   7.426  19.948   9.425 -0.0008 -0.0853 -0.2077
    1W        W49222  13.587   0.227  10.268 -0.0794  0.0156 -0.2749
    1W        W49223   2.511  12.602   1.768 -0.1244 -0.1083  0.1169
    1W        W49224  22.666  22.673   1.279  0.2872  0.0153  0.1196
    1W        W49225   3.846   3.149   1.824  0.1724 -0.2368 -0.3520
    1W        W49226  10.197  27.251   1.308  0.1504 -0.3512  0.1248
    1W        W49227   6.272   2.158   1.070 -0.1566  0.0239  0.0288
    1W        W49228   8.787  11.197   9.641 -0.1158 -0.3304  0.0081
    1W        W49229   9.834  21.289   9.951 -0.1944  0.2317  0.2683
    1W        W49230  19.347   7.710   9.628 -0.0395 -0.1835  0.1323
    1W        W49231  22.575  14.141   1.699  0.2065  0.0142 -0.0601
    1W        W49232  14.275  21.498   2.324  0.0809 -0.1927 -0.0086
    1W        W49233  18.480  24.088   0.627 -0.0169  0.1562 -0.0976
    1W        W49234  20.078  10.606   0.441  0.0874  0.2690 -0.1724
    1W        W49235  17.139   0.899   8.166  0.1033 -0.1376  0.2090
    1W        W49236  15.730   1.723   2.514  0.1205 -0.2530  0.0476
    1W        W49237  18.134   8.525   7.293 -0.1706 -0.0266 -0.2443
    1W        W49238  11.046  18.823   2.331 -0.1129 -0.1427  0.0609
    1W        W49239  11.048  15.754   2.041  0.0413  0.3330 -0.0588
    1W        W49240  24.260   9.639   0.859  0.0300 -0.2081 -0.3824
    1W        W49241  19.266  25.564   2.864 -0.1097 -0.1657 -0.1882
    1W        W49242  25.213  17.468   8.375 -0.0416 -0.0078  0.0512
    1W        W49243   3.623  22.784   0.459  0.0134 -0.1297  0.0247
    1W        W49244  17.122   3.638   8.084 -0.2425  0.2254  0.2349
    1W        W49245   9.887   0.348   9.170 -0.2940  0.0477 -0.1323
    1W        W49246   6.787   4.594   1.772  0.0202  0.0491 -0.1926
    1W        W49247   7.804   8.056   2.595  0.1452 -0.3640 -0.2165
    1W        W49248  11.283   9.526   8.062 -0.0208  0.1942  0.0098
    1W        W49249   8.538  20.597   1.370 -0.1228 -0.3926  0.1896
    1W        W49250  27.646  18.479   8.170  0.2974  0.0720  0.0838
    1W        W49251  25.652  26.733   7.631 -0.0671  0.1759  0.1492
    1W        W49252  20.977  21.988   9.157 -0.2523  0.1106 -0.3297
    1W        W49253   1.345  10.822   8.057 -0.0292  0.1277  0.0341
    1W        W49254   4.149   1.781   9.428  0.0792  0.1179  0.4016
    1W        W49255  11.819  19.354   2.498  0.0564  0.0867 -0.1452
    1W        W49256   9.436   2.817   0.268  0.1941 -0.0079 -0.1553
    1W        W49257  26.934   6.756   0.752  0.0452 -0.3739 -0.1325
    1W        W49258  16.152   8.865   1.919  0.1477  0.0790  0.1011
    1W        W49259  12.066   1.217   8.862  0.1267 -0.2598  0.1796
    1W        W49260  24.884   9.097   1.387 -0.2722 -0.0474  0.1280
    1W        W49261  16.672   2.869   9.278 -0.0522 -0.1172 -0.4026
    1W        W49262   9.629  14.678  10.351 -0.0394 -0.2751  0.0303
    1W        W49263   0.843   8.235   1.013  0.4856 -0.1725 -0.1601
    1W        W49264  25.915  15.437   1.807 -0.0780 -0.0338  0.1295
    1W        W49265  24.375  24.246   6.908  0.0227 -0.0909 -0.0114
    1W        W49266   4.343  16.570   8.404  0.1915 -0.0536 -0.2238
    1W        W49267   2.888   1.707   1.676 -0.3909 -0.0705 -0.1940
    1W        W49268  26.201  16.313   9.658 -0.2056 -0.2553 -0.0131
    1W        W49269  27.126  25.037   2.195 -0.0736  0.2629  0.2816
    1W        W49270  19.258   5.976   2.097 -0.2235  0.0289  0.1395
    1W        W49271  20.089  21.156   0.587  0.1341  0.0330 -0.0129
    1W        W49272   8.103  20.714   2.308  0.0747 -0.0413 -0.0061
    1W        W49273  16.689  12.150   2.377 -0.0336 -0.0362  0.0961
    1W        W49274   3.538   1.123   8.975 -0.2042  0.0983 -0.0436
    1W        W49275   7.384  26.501  10.253  0.2018  0.0442  0.3494
    1W        W49276   1.719   5.564   0.501 -0.2856 -0.1071  0.2070
    1W        W49277   3.025  21.888   7.529 -0.1869  0.1255 -0.1463
    1W        W49278  19.919  25.287   0.921 -0.2544 -0.1380  0.0688
    1W        W49279  21.281  28.021   8.784 -0.1541  0.0352 -0.1149
    1W        W49280  11.466  20.308   2.670 -0.0209  0.1569 -0.0271
    1W        W49281   0.338  19.975   2.058 -0.0967  0.0466 -0.2675
    1W        W49282  17.920   1.176   9.677 -0.1007  0.2068 -0.2926
    1W        W49283   3.281  24.312  10.322 -0.0830 -0.0161 -0.1066
    1W        W49284   4.605   7.894   7.293  0.0786  0.0561 -0.0333
    1W        W49285  19.326  14.744   1.139  0.0781 -0.2994  0.2056
    1W        W49286  18.554  14.322  10.349 -0.0678  0.0024  0.1752
    1W        W49287  22.479  10.173   2.044  0.0703  0.2344  0.0592
    1W        W49288   1.442  25.341   7.617 -0.2725  0.2556 -0.0621
    1W        W49289   6.226   8.410   7.550  0.0584  0.1058  0.0923
    1W        W49290   0.099  26.811   1.055  0.0081 -0.3452  0.2839
    1W        W49291   8.879  26.348   2.610 -0.0791  0.1369  0.2731
    1W        W49292   7.899   8.210   9.719 -0.3836  0.3066  0.0843
    1W        W49293   7.277   4.361   7.488 -0.0495 -0.1097  0.2212
    1W        W49294   4.021  24.191   9.584  0.0516 -0.0492 -0.0741
    1W        W49295  26.056  15.263   6.960  0.0123 -0.0814 -0.0683
    1W        W49296   3.893  17.190   9.576 -0.3054 -0.1377  0.0528
    1W        W49297  24.926   1.064   8.517 -0.2541  0.1099  0.0711
    1W        W49298  18.539  18.877   3.040 -0.1244  0.0064  0.2294
    1W        W49299  10.573   2.777   8.419 -0.1873  0.1222 -0.0677
    1W        W49300   8.445  16.655   8.215  0.4048  0.0026  0.1951
    1W        W49301  14.841   0.101   9.394  0.0752 -0.1560 -0.0694
    1W        W49302  10.371  24.701   8.465 -0.2827  0.1509  0.2096
    1W        W49303  22.744   8.267   0.519 -0.0888 -0.1914 -0.0073
    1W        W49304  13.951   8.545   9.622 -0.1003 -0.2402 -0.0369
    1W        W49305  10.978  25.803   0.308  0.0613 -0.0926 -0.0444
    1W        W49306  22.082   0.325   8.839 -0.1578  0.2478  0.0719
    1W        W49307  14.138   5.905   1.509 -0.0094 -0.0625  0.3167
    1W        W49308  15.301  11.405   3.169 -0.2474 -0.1519  0.3448
    1W        W49309   3.903  14.067   9.936  0.2232  0.2328  0.0974
    1W        W49310  10.986  15.162   9.371  0.0075  0.1722  0.0501
    1W        W49311   0.892   3.462   6.411 -0.1530 -0.4274 -0.0710
    1W        W49312   5.357  19.926   8.572 -0.2270  0.1832  0.2360
    1W        W49313  24.659   6.117   1.954 -0.0993 -0.0032  0.0398
    1W        W49314  27.163   7.459   8.030 -0.4832 -0.2834  0.1994
    1W        W49315  16.453  23.349   9.667 -0.0485 -0.2909 -0.1937
    1W        W49316  10.439  17.000   2.846 -0.0337 -0.2811 -0.1154
    1W        W49317   1.174   2.551  10.005 -0.0054  0.0375 -0.0027
    1W        W49318  20.280  24.455   1.258  0.0275 -0.4808 -0.1760
    1W        W49319  18.889  22.181   8.223  0.0471  0.1466  0.2258
    1W        W49320  16.192   9.541   9.257  0.2692  0.5401  0.1753
    1W        W49321  11.838   5.728   3.178 -0.0193  0.2092 -0.1203
    1W        W49322  18.046   5.719   2.952  0.3924  0.1757  0.3326
    1W        W49323  24.332   7.895   2.561 -0.0299 -0.1428 -0.1240
    1W        W49324  14.985   5.439   2.983 -0.0301  0.0076  0.1870
    1W        W49325  22.154  13.431   8.883 -0.1263 -0.3338  0.0382
    1W        W49326   4.206   6.089   8.110  0.3919 -0.0907 -0.2684
    1W        W49327   7.148  21.232   0.438  0.0646 -0.1014  0.0594
    1W        W49328  24.437  19.542   9.474 -0.0227  0.1437  0.0047
    1W        W49329  13.037   6.787   1.358 -0.0411  0.1160 -0.0135
    1W        W49330  17.051  11.220   1.251  0.1266  0.0894  0.2929
    1W        W49331  12.396   4.602   9.931 -0.0072 -0.0366  0.1050
    1W        W49332  15.730  22.669   7.443 -0.3078  0.0303 -0.0110
    1W        W49333  27.909   1.866   7.386  0.1334 -0.2429  0.0687
    1W        W49334   2.510   3.619   8.254 -0.1266  0.1101 -0.1261
    1W        W49335  21.132  15.478   7.712 -0.0254 -0.0128 -0.0619
    1W        W49336  25.308   1.912   7.256  0.1361  0.1555 -0.0535
    1W        W49337  22.760  27.158   2.865 -0.1367 -0.0985  0.2370
    1W        W49338   5.196  20.978   0.557 -0.0457  0.1087 -0.1169
    1W        W49339   4.582   2.188   8.400  0.1162  0.3050  0.0177
    1W        W49340  27.894  12.607   2.848  0.0475  0.5232  0.1383
    1W        W49341  13.050  18.671   8.542  0.1242 -0.0322 -0.0623
    1W        W49342  19.285  15.872   9.100 -0.1402 -0.3270  0.3490
    1W        W49343   5.678   5.345  10.091 -0.1539 -0.0982  0.0221
    1W        W49344  12.208  17.649   1.790 -0.1832  0.0692 -0.2804
    1W        W49345  21.062  21.544   8.345 -0.0715  0.1051  0.2348
    1W        W49346  21.095  18.635   4.228 -0.2463 -0.0929 -0.1247
    1W        W49347   5.936  17.848   0.238 -0.3984  0.2699  0.0675
    1W        W49348  23.077   4.248   1.816 -0.0002 -0.1216 -0.0918
    1W        W49349  20.746  25.049   9.141  0.1112  0.0987  0.0311
    1W        W49350  12.149  16.069   3.976  0.1652 -0.1360 -0.3851
    1W        W49351  11.442  22.618   2.191  0.2775  0.1028  0.0378
    1W        W49352  17.636  25.618   3.113  0.0522 -0.0463  0.0464
    1W        W49353  23.706  10.480   7.808  0.0817  0.0969 -0.0842
    1W        W49354   5.826  18.707   3.468  0.1770 -0.0507  0.1953
    1W        W49355  24.874   5.255   1.592  0.0729  0.0033 -0.3173
    1W        W49356   5.895   7.711   1.250 -0.0454 -0.1869 -0.0792
    1W        W49357  19.042   0.445   1.970  0.2434  0.1449 -0.1763
    1W        W49358  16.578  11.306   7.349  0.0875 -0.1658 -0.0524
    1W        W49359  24.249   6.249   8.465  0.0308 -0.2933 -0.0069
    1W        W49360   8.582  14.777   1.899 -0.0372 -0.0524 -0.1163
    1W        W49361   5.539  23.375   7.848  0.0531  0.0811  0.0758
    1W        W49362  18.879  19.510   9.316 -0.0811  0.1128  0.0962
    1W        W49363   8.959  16.053   8.545 -0.0648  0.1646  0.0608
    1W        W49364  18.330   7.614   7.104  0.0414 -0.4311  0.3233
    1W        W49365  14.256  26.640   1.951  0.0401 -0.2541 -0.2750
    1W        W49366  23.519   6.845   0.469 -0.3802  0.1508 -0.1941
    1W        W49367  15.885  13.233   1.717  0.1057 -0.1030 -0.0791
    1W        W49368  18.395  20.015  10.139 -0.3717 -0.0264  0.0142
    1W        W49369  16.871  11.318   0.708 -0.1171 -0.0677  0.0457
    1W        W49370  11.837   9.371   8.374 -0.0159  0.2170  0.0299
    1W        W49371  14.616  23.015   7.265  0.0450 -0.3191  0.3297
    1W        W49372  10.312   4.310  10.120 -0.1515 -0.0413 -0.2639
    1W        W49373  11.729  26.184   7.269  0.1494 -0.0343  0.0025
    1W        W49374  25.672   2.202   9.679  0.3942 -0.0091 -0.0393
    1W        W49375  21.335  11.139   0.577 -0.2440  0.0588  0.0484
    1W        W49376   5.533  15.017   1.920  0.2691  0.0490 -0.1508
    1W        W49377  10.931   1.579   9.456 -0.2002  0.0644 -0.0241
    1W        W49378  19.159  21.609   1.749 -0.3283  0.0978 -0.2110
    1W        W49379  15.350  19.541   9.602  0.4694  0.1522 -0.0501
    1W        W49380  26.702   3.872   0.210 -0.2442  0.2989  0.1069
    1W        W49381   0.938   2.335   0.077  0.0839  0.1847  0.0504
    1W        W49382  14.738   3.061  10.265 -0.1461 -0.1362  0.0451
    1W        W49383  12.947  12.098   8.326  0.4934  0.1302  0.0037
    1W        W49384  17.840   2.824   9.725  0.0525  0.0534 -0.1419
    1W        W49385  27.150   4.761   1.728  0.1835 -0.0184 -0.1718
    1W        W49386  20.472  18.591   7.953  0.1905  0.2439 -0.1375
    1W        W49387  19.398   6.753   3.066 -0.1569  0.0539 -0.0124
    1W        W49388  25.274  26.052   1.639  0.0372 -0.0555  0.0463
    1W        W49389  20.922  18.910   3.193 -0.0381 -0.2967 -0.0714
    1W        W49390   6.153  19.888   7.130 -0.1089  0.0043 -0.0038
    1W        W49391  27.819   8.175   7.544 -0.4539 -0.0302 -0.1519
    1W        W49392  26.753   4.488   7.159  0.1208  0.0969 -0.3513
    1W        W49393   9.938  17.398   8.250  0.0497 -0.1552  0.3749
    1W        W49394   9.944  17.570   0.313  0.3337  0.1203 -0.0983
    1W        W49395   4.219  13.603   7.954 -0.4932 -0.2614 -0.0659
    1W        W49396  10.669  12.184   3.175 -0.2179 -0.1048 -0.1158
    1W        W49397   8.945   1.339   7.139  0.0796 -0.0226  0.4609
    1W        W49398   9.600  26.123   1.230  0.1500  0.1504  0.1452
    1W        W49399   8.627   4.179   1.982 -0.0223  0.2798 -0.5176
    1W        W49400   0.121  14.072   6.778  0.4645  0.0266 -0.2586
    1W        W49401  10.514  26.096   7.268  0.0091  0.0210 -0.0927
    1W        W49402  28.096   4.304   1.066 -0.1377  0.0181 -0.1502
    1W        W49403  26.142   0.302   0.147 -0.0204 -0.2630 -0.2483
    1W        W49404  24.726   8.608   1.304  0.0832 -0.2881  0.1178
    1W        W49405  20.344  22.664   1.147 -0.4017 -0.0684  0.0342
    1W        W49406   0.338  18.642   9.912 -0.2231 -0.1007 -0.0259
    1W        W49407  12.953  11.236   2.040  0.1141 -0.2733 -0.0418
    1W        W49408  24.898  18.090   7.687  0.1632 -0.0992 -0.2731
    1W        W49409  24.988   3.044   7.877  0.2027 -0.0293 -0.3234
    1W        W49410  27.859  13.033   1.951 -0.0954  0.1870  0.1313
    1W        W49411  23.244  23.259   1.402  0.1577  0.2158  0.0319
    1W        W49412   1.231   8.852   0.283 -0.1830  0.0913 -0.0919
    1W        W49413  16.093  18.277   3.093 -0.0717  0.3713  0.0568
    1W        W49414   5.241  11.411   0.121  0.0256  0.1993 -0.2935
    1W        W49415  19.300  14.873   9.259  0.0486 -0.2085  0.3900
    1W        W49416   3.322  12.347   9.766 -0.1971  0.1301 -0.1438
    1W        W49417  25.157  26.014   7.995 -0.1144  0.0830 -0.0375
    1W        W49418   2.332  12.886   3.152  0.0068  0.0472  0.1556
    1W        W49419  20.428  22.093   8.590  0.3207  0.2550 -0.2130
    1W        W49420   7.664   6.154   7.430 -0.0391  0.1779 -0.2701
    1W        W49421  26.162   5.558   1.273 -0.0262 -0.5256 -0.2388
    1W        W49422  16.279  13.391   7.355  0.2035 -0.0258  0.2235
    1W        W49423   5.666   7.838   2.868 -0.1180 -0.1224 -0.2642
    1W        W49424  21.623  23.530   1.210 -0.2875 -0.0399  0.0338
    1W        W49425   7.245  21.053   1.574 -0.0390 -0.1207 -0.1744
    1W        W49426  24.005   0.119   2.571  0.1469  0.0665  0.0012
    1W        W49427  18.253  19.161   9.972 -0.1460 -0.1804 -0.0800
    1W        W49428  12.553   2.419   2.849 -0.1889 -0.0366  0.0622
    1W        W49429  26.011   9.067   7.829  0.4318 -0.1916  0.2123
    1W        W49430  23.502  17.655   0.795  0.0919  0.2344  0.3608
    1W        W49431  24.831  27.496   0.802 -0.0644  0.2517 -0.1028
    1W        W49432  12.375  23.915   7.708  0.0815  0.0244  0.4513
    1W        W49433   8.437   4.812   8.165  0.0210 -0.2928 -0.1116
    1W        W49434   5.898   9.161   0.983 -0.0103 -0.0627  0.2655
    1W        W49435   3.426   6.138   1.024  0.2756  0.0446  0.1551
    1W        W49436   8.140  10.791   9.157  0.0098  0.0814  0.0586
    1W        W49437   5.210   0.559   3.003 -0.0693  0.3673  0.1863
    1W        W49438   7.689  15.834   9.711 -0.1406  0.1824  0.1840
    1W        W49439  17.046   4.461   1.928  0.0847 -0.1962  0.2293
    1W        W49440   9.291   2.900   7.423  0.3478 -0.2727 -0.0854
    1W        W49441  12.204  11.380   2.743 -0.0033 -0.1259  0.2681
    1W        W49442   1.669   7.401   8.610  0.1982  0.1516  0.0456
    1W        W49443   3.824  19.809   8.610 -0.1290 -0.2440 -0.1207
    1W        W49444  16.261  16.834   0.399  0.1365  0.2716  0.1931
    1W        W49445   7.781  26.903   1.917  0.1063 -0.3371 -0.2518
    1W        W49446   4.967   6.366   6.992  0.2241  0.0676 -0.1446
    1W        W49447  19.627  17.029   7.916  0.1888  0.1552  0.0997
    1W        W49448   4.156  11.592   7.557 -0.1338 -0.1515  0.2346
    1W        W49449  26.228  26.068   7.090  0.0369 -0.1419 -0.3136
    1W        W49450   2.843  20.028   9.767  0.0601 -0.3211 -0.1137
    1W        W49451  11.078  19.498   8.065 -0.1019  0.0786 -0.3212
    1W        W49452  24.849   6.974   7.940  0.0016 -0.0949 -0.0805
    1W        W49453  25.003  11.019   1.408 -0.3260 -0.1071 -0.4273
    1W        W49454   2.773  19.648   0.204  0.1837 -0.0006 -0.3882
    1W        W49455   7.685  20.382   8.993 -0.1239  0.1107  0.1103
    1W        W49456  11.932  24.357   2.383  0.1329  0.0740 -0.0172
    1W        W49457  23.372  19.524   1.467  0.1149 -0.3555  0.0105
    1W        W49458   2.021  23.570   1.442  0.1165  0.0412  0.2274
    1W        W49459  21.441  18.036   0.461  0.1990 -0.0345  0.2151
    1W        W49460  17.915  22.253   2.117 -0.1127  0.1330 -0.0755
    1W        W49461  10.470   1.013   7.500  0.1655  0.1772 -0.1558
    1W        W49462  18.701  10.039   1.540 -0.3348 -0.2287 -0.1701
    1W        W49463  16.831   4.205   2.227 -0.2973 -0.0569  0.1381
    1W        W49464   1.721  20.098   8.761  0.0991 -0.1707  0.0951
    1W        W49465   8.192  14.642  10.293 -0.1679  0.3581  0.0455
    1W        W49466  10.676  19.375   1.607 -0.3675  0.0695 -0.0238
    1W        W49467   6.624   8.678   8.503 -0.3850  0.1544  0.2865
    1W        W49468  16.462  26.740   2.585 -0.0078 -0.0598 -0.0218
    1W        W49469  14.917   0.261   8.559  0.0951  0.0270 -0.3614
    1W        W49470  26.408   2.953   7.872  0.0420 -0.0540 -0.2353
    1W        W49471   5.941   8.825   3.701 -0.2037 -0.2032  0.3364
    1W        W49472  16.388   0.951   2.314  0.2441  0.4259  0.2368
    1W        W49473  15.917  12.813   2.914  0.5370  0.1075  0.0334
    1W        W49474   2.038  27.331   9.978  0.1618  0.0063 -0.2477
    1W        W49475   0.597  21.722   0.303  0.1138  0.0851  0.0364
    1W        W49476   7.386   7.002   1.073  0.0081 -0.2399  0.1641
    1W        W49477   1.245  22.312   7.407 -0.1262  0.0065 -0.3410
    1W        W49478   7.654  27.872   7.779  0.1153  0.0574 -0.3603
    1W        W49479  24.553  21.312   9.723 -0.2087  0.4179 -0.3244
    1W        W49480  10.581  22.280   2.536  0.0481  0.2358 -0.1905
    1W        W49481  11.431   1.450   9.402  0.2456 -0.0666 -0.1224
    1W        W49482  17.789  21.525   2.659  0.2070 -0.3408  0.0031
    1W        W49483   7.573  18.902   2.463  0.0230  0.1522  0.0521
    1W        W49484  23.757  14.208   6.670 -0.0158  0.2153  0.0213
    1W        W49485  28.054  20.007   8.406  0.1222  0.1558 -0.2425
    1W        W49486  12.919  25.597   7.764 -0.0857 -0.2261  0.0815
    1W        W49487  23.737  12.025   7.215 -0.1658  0.1914 -0.2847
    1W        W49488  21.286  19.074   3.594 -0.0413 -0.0566 -0.1769
    1W        W49489  17.775   5.763   8.953  0.0831 -0.0959 -0.3426
    1W        W49490   0.786  19.153   7.023  0.0567 -0.0513 -0.1842
    1W        W49491  18.778  18.313   8.526  0.0112 -0.0417 -0.0989
    1W        W49492  26.040  11.566   1.887 -0.1779 -0.0673  0.0055
    1W        W49493  27.392  27.377   8.484  0.0228  0.1085 -0.1474
    1W        W49494  18.042  17.052   7.997 -0.2514  0.4124  0.3061
    1W        W49495  20.762   7.513   2.528 -0.0115 -0.3502 -0.1421
    1W        W49496  18.897  10.538   1.837  0.3895  0.0267  0.1252
    1W        W49497   5.591   0.979   1.637 -0.0185  0.0710  0.2084
    1W        W49498  25.294  12.644   6.428 -0.0173  0.0936 -0.0645
    1W        W49499   4.475  24.178   1.175 -0.1316  0.1973  0.0910
    1W        W49500   0.366   6.246   7.200  0.0670  0.1260 -0.0123
    1W        W49501  20.372  25.092   0.793 -0.1837 -0.0966  0.1550
    1W        W49502  22.977  15.651   8.774 -0.2279  0.0638  0.0798
    1W        W49503   6.835  23.815   7.649 -0.0251  0.2561  0.2044
    1W        W49504  18.917   6.153   2.545 -0.1495 -0.2884  0.3421
    1W        W49505  23.142  10.785   1.015 -0.2106 -0.0578 -0.2608
    1W        W49506  10.809   6.970   2.475 -0.0171  0.0089  0.2893
    1W        W49507  17.523  21.479   8.784  0.2837 -0.0024  0.1646
    1W        W49508  25.579   5.174   8.561  0.0517  0.0810 -0.0250
    1W        W49509   7.217  21.587   1.869  0.2543  0.5309 -0.2647
    1W        W49510  12.563   8.192   9.991  0.0246  0.0416 -0.1690
    1W        W49511  11.962   3.714   2.923 -0.1511  0.3116 -0.1454
    1W        W49512  23.851   9.966   0.643 -0.0551 -0.3658  0.2419
    1W        W49513   5.759  13.098   2.741  0.0215  0.1570 -0.2210
    1W        W49514  16.058  10.149   1.666 -0.0013 -0.1418 -0.1574
    1W        W49515  18.852   6.473   8.957 -0.1154  0.0323 -0.0878
    1W        W49516  10.593  10.373   0.375 -0.0496  0.2937  0.1566
    1W        W49517  25.126  19.102   8.241  0.1304 -0.1820 -0.0583
    1W        W49518  18.655   7.901   3.338 -0.1059 -0.3277 -0.3146
    1W        W49519   8.646  18.818   9.773  0.1207  0.2647  0.0411
    1W        W49520  22.807  16.637   2.222 -0.3056 -0.2144  0.2141
    1W        W49521  27.272   8.262   1.014 -0.1703  0.0670 -0.0903
    1W        W49522  27.678  12.566   0.121 -0.0168 -0.0230 -0.0301
    1W        W49523  27.928  15.141   1.801 -0.1676  0.3088  0.1256
    1W        W49524   4.081  18.211   8.411  0.0386  0.1789 -0.1056
    1W        W49525  14.502  21.101   0.846 -0.0985  0.0291 -0.2773
    1W        W49526   9.570   8.566   7.711  0.0284  0.2288  0.1804
    1W        W49527  21.376  25.448   9.665 -0.0199  0.0035 -0.0844
    1W        W49528   9.222  17.497   9.513 -0.0991  0.0846 -0.2443
    1W        W49529  16.445   7.564   7.640 -0.4018 -0.4198 -0.1477
    1W        W49530   9.924  26.586   0.530  0.2461 -0.1137 -0.3219
    1W        W49531   1.598  19.464   7.671  0.0488 -0.0625  0.0259
    1W        W49532   6.249  22.737   9.261  0.0136  0.0425 -0.0764
    1W        W49533  12.710   5.810   2.025  0.1244  0.1768 -0.0119
    1W        W49534  11.741  13.758   0.831  0.1630 -0.3012 -0.4378
    1W        W49535  10.723  27.815   2.461 -0.1156 -0.0290 -0.1801
    1W        W49536   1.400  22.299   2.619  0.1709  0.0057  0.2445
    1W        W49537  18.582  19.466   0.710  0.2125 -0.4120  0.0921
    1W        W49538  20.397  26.108   8.233 -0.0308 -0.0004  0.0683
    1W        W49539  15.241  10.443   7.787  0.2886  0.1358  0.2674
    1W        W49540  22.036  27.326   2.272  0.0530 -0.0800  0.0347
    1W        W49541  18.338   3.626  10.029  0.1197  0.2937 -0.2293
    1W        W49542  13.117  11.068   2.476 -0.0538 -0.0166  0.1842
    1W        W49543   4.272   7.443   9.193  0.0646  0.2501 -0.0274
    1W        W49544   3.971  19.306   2.498  0.0253  0.0680  0.2690
    1W        W49545   5.507   0.268   8.769 -0.0299  0.1273 -0.0084
    1W        W49546  26.192   3.863  10.349  0.0533 -0.0755 -0.1932
    1W        W49547  17.898  26.641   7.284  0.0481 -0.2192  0.0297
    1W        W49548   4.832   0.562   6.563 -0.0098  0.2284 -0.0764
    1W        W49549  24.701  27.774   6.776  0.1168  0.2674  0.1441
    1W        W49550   5.904  14.912   2.274  0.0085 -0.1923 -0.0770
    1W        W49551   9.242  17.576   8.990 -0.0620 -0.1501 -0.0811
    1W        W49552  17.343  13.373   1.467  0.0032  0.1015  0.0378
    1W        W49553  22.893   9.983  10.132  0.0147  0.0413  0.1746
    1W        W49554  22.122  24.328   7.731 -0.1051  0.0549 -0.0883
    1W        W49555  16.653  16.625   0.131 -0.0603  0.3007  0.0605
    1W        W49556  11.410   3.745   2.300 -0.0406 -0.0296  0.4372
    1W        W49557  13.806   5.685   1.266  0.0645  0.1466 -0.0326
    1W        W49558  23.127  19.739   9.963  0.2238 -0.0621  0.0548
    1W        W49559  23.223   6.251   7.551 -0.1986 -0.2217 -0.1139
    1W        W49560   5.896  26.555   1.792  0.0907  0.2366 -0.2472
    1W        W49561   7.594   3.408   7.220  0.0042 -0.0316 -0.1249
    1W        W49562  27.700   4.465   6.805 -0.3115  0.0764 -0.0104
    1W        W49563  24.389  18.920   7.972  0.0257 -0.1484 -0.1950
    1W        W49564  24.978  17.567   2.398 -0.0695 -0.0584 -0.0209
    1W        W49565  16.683  12.033   0.862  0.0401 -0.0636 -0.0491
    1W        W49566  18.933  20.934   2.549  0.0376  0.1086  0.3728
    1W        W49567  16.537  16.753   0.915  0.1598  0.0576  0.3700
    1W        W49568  22.405  11.092   0.758  0.3123 -0.0119 -0.0233
    1W        W49569   9.567  23.462   9.751 -0.0068 -0.3019  0.2431
    1W        W49570  14.972   2.743   1.330  0.0115  0.2913 -0.2419
    1W        W49571  19.065   3.090   2.065  0.2411  0.2471  0.2679
    1W        W49572  14.950  27.007   2.594 -0.0039 -0.0497 -0.0453
    1W        W49573   0.066   2.559  10.272 -0.3693  0.1512  0.1688
    1W        W49574   5.633  25.201   2.575  0.1808  0.0951 -0.0840
    1W        W49575   0.968  25.746   1.586  0.3841 -0.1915 -0.1694
    1W        W49576  22.152  20.459   8.579  0.1482  0.1151 -0.2013
    1W        W49577   4.317  10.394   8.902  0.2030 -0.0824  0.3201
    1W        W49578  12.717   1.541   9.792 -0.1639 -0.3102 -0.1555
    1W        W49579  16.574   4.086   8.512  0.0601 -0.3050 -0.1046
    1W        W49580  12.484  17.640   1.034 -0.3324  0.1791  0.0885
    1W        W49581  22.038  13.197   2.104  0.2009  0.5022  0.0217
    1W        W49582   6.578  12.292   2.764 -0.1003 -0.1022 -0.2635
    1W        W49583  10.171   5.576   8.541 -0.0703 -0.1081  0.0164
    1W        W49584  25.514  18.448   0.327 -0.1069 -0.0292  0.2511
    1W        W49585  23.960  23.398   9.553  0.0431  0.0776 -0.0721
    1W        W49586  26.708   8.683  10.137  0.1089 -0.0620  0.3182
    1W        W49587   8.809   1.498   1.471  0.3255  0.0171 -0.4423
    1W        W49588   1.566  27.185   2.751 -0.0849 -0.0081 -0.0426
    1W        W49589  14.965   2.137   2.008 -0.2386 -0.1437 -0.2835
    1W        W49590  20.413  19.030   3.219 -0.3604  0.0229  0.0198
    1W        W49591  10.986   9.663   9.671  0.0805 -0.1979 -0.1387
    1W        W49592  15.470   9.734   1.631 -0.0227 -0.2196  0.3027
    1W        W49593   4.889  11.193   2.956 -0.0204  0.0109  0.0920
    1W        W49594  27.360   4.413   9.270  0.0088  0.0460 -0.2572
    1W        W49595   1.821  21.467   9.319  0.1995  0.1107 -0.0372
    1W        W49596  24.812  21.048   1.137  0.0987 -0.0864 -0.1289
    1W        W49597  10.899  10.532   8.075 -0.0231 -0.1023  0.0927
    1W        W49598  13.870  11.939   9.528  0.1198  0.1773  0.4593
    1W        W49599  17.337  22.154   9.305 -0.1526  0.3409 -0.1551
    1W        W49600   6.400   0.032   9.253  0.0273 -0.2729  0.0101
    1W        W49601   6.447   7.021   8.205 -0.2033  0.1498 -0.0512
    1W        W49602  27.214   5.732   8.503  0.0896  0.1953  0.2096
    1W        W49603  16.974   2.926   3.116  0.1597 -0.0738  0.3033
    1W        W49604   4.958  25.038   3.308 -0.0555 -0.1036  0.3293
    1W        W49605  20.868  11.997   0.301  0.0728 -0.2449 -0.0636
    1W        W49606   6.906  21.603   0.941 -0.0619  0.0715  0.1094
    1W        W49607  26.255   1.344   9.476 -0.1247 -0.0229  0.0088
    1W        W49608  16.630   7.773   3.653 -0.0906  0.1317  0.3133
    1W        W49609  14.371  27.690   2.774 -0.5057  0.0613 -0.2110
    1W        W49610  19.862  18.726   8.102  0.3620  0.0047  0.0745
    1W        W49611   6.875  26.856   1.583  0.1917 -0.0148  0.0943
    1W        W49612   9.958   1.554   8.902 -0.0602 -0.1725  0.1410
    1W        W49613  15.860  12.325   9.343  0.1478  0.0343  0.1322
    1W        W49614   2.084  17.662   0.790 -0.1537 -0.1860  0.1026
    1W        W49615  11.403  19.386   0.078  0.2527  0.0193 -0.1045
    1W        W49616   0.129  14.114   1.596  0.2185  0.1175  0.2765
    1W        W49617  27.106  20.852   6.443  0.1022  0.0681  0.1848
    1W        W49618  19.706   3.035   9.957 -0.3497 -0.1011 -0.1633
    1W        W49619   6.185   9.504   8.887  0.1659 -0.0002  0.0019
    1W        W49620   6.330  15.814   1.788  0.0349 -0.2902  0.0488
    1W        W49621   2.844   1.689   8.768  0.1859  0.2292 -0.1501
    1W        W49622  10.048  22.803  10.343  0.5528 -0.1134  0.1749
    1W        W49623  26.236  20.419   0.278  0.0272  0.0301  0.4560
    1W        W49624  24.660  21.635   7.712  0.0721 -0.1506 -0.0135
    1W        W49625  20.685  11.916   0.747 -0.0354 -0.2882 -0.2160
    1W        W49626  18.736  16.185   3.143  0.2335 -0.0580 -0.1117
    1W        W49627  21.914  26.409   0.636  0.0427  0.1102 -0.0565
    1W        W49628   7.797   1.368  10.025  0.1581 -0.0774 -0.1238
    1W        W49629   8.510   8.123   8.422  0.0233 -0.3687  0.0631
    1W        W49630   6.447   2.928   0.119 -0.0256 -0.0301  0.0359
    1W        W49631  16.858  21.908   0.253 -0.0944 -0.0769 -0.0795
    1W        W49632   1.776   7.388   1.311  0.0455 -0.0150 -0.0178
    1W        W49633  11.389   1.384   1.611 -0.1374 -0.1654 -0.2757
    1W        W49634  26.168  27.819   9.331 -0.4013  0.1841 -0.0891
    1W        W49635   2.804   6.552   7.160 -0.2277  0.2056 -0.2621
    1W        W49636  17.825  23.650  10.130  0.3012  0.1501  0.0082
    1W        W49637  18.366  14.458   3.645  0.2709  0.0040 -0.0252
    1W        W49638  14.684   8.213   0.217  0.0374  0.2621 -0.1794
    1W        W49639  12.820   2.057   9.935  0.2468  0.0850 -0.0870
    1W        W49640  22.168  16.298   9.370 -0.2454  0.1001 -0.4163
    1W        W49641   9.530  13.026   8.892 -0.2090 -0.1557 -0.1782
    1W        W49642  12.555  21.431   2.446  0.2286 -0.0608 -0.1836
    1W        W49643  14.556  24.965   0.299  0.0661  0.1467 -0.1485
    1W        W49644   6.592  13.627   1.986  0.0671  0.0494 -0.0778
    1W        W49645  23.326   7.432   2.125 -0.2104 -0.0924  0.1050
    1W        W49646   6.992  24.993   7.702  0.0391 -0.1199  0.1072
    1W        W49647   6.764  10.165   7.441 -0.0836  0.0841 -0.0285
    1W        W49648   3.594  13.209   0.247  0.0637  0.0277 -0.0653
    1W        W49649  23.949  12.220  10.316 -0.0119  0.1041  0.2356
    1W        W49650  24.579  27.601   2.323  0.5582 -0.1012 -0.0236
    1W        W49651  27.002   2.897   6.971 -0.1655 -0.0256  0.1825
    1W        W49652  19.438  20.204   0.784  0.3170  0.2764 -0.2326
    1W        W49653  27.426  15.350   1.078  0.1482  0.1533  0.0200
    1W        W49654   0.258  22.325   2.491 -0.0675 -0.0708 -0.0959
    1W        W49655  19.890   4.787   9.191  0.0976  0.1367 -0.1787
    1W        W49656   4.029  24.406   1.301 -0.1010  0.0402  0.2212
    1W        W49657  16.664  20.551   0.012  0.2120 -0.2321 -0.1898
    1W        W49658   9.555   1.783   0.255  0.0925 -0.1851 -0.0531
    1W        W49659  20.279  27.570   8.510  0.0975  0.5415  0.1445
    1W        W49660  25.653  19.730   7.941 -0.0317 -0.4353 -0.1566
    1W        W49661   1.651  11.520   8.262  0.3568 -0.0779  0.0625
    1W        W49662  15.562  12.171   1.795 -0.0971  0.1922  0.2895
    1W        W49663  15.483  20.036   7.548 -0.0659  0.0183 -0.1495
    1W        W49664  17.138   8.180  10.098 -0.0081 -0.0203  0.1772
    1W        W49665  19.392  23.304   0.664 -0.2286  0.1614  0.1326
    1W        W49666   0.308   2.331   9.851  0.1894 -0.0140  0.2615
    1W        W49667   7.737   3.854   8.326  0.2881 -0.0023  0.1213
    1W        W49668  26.141   6.122   1.377  0.1824 -0.2126  0.1319
    1W        W49669  14.257  22.295   8.089 -0.1970 -0.1621  0.2084
    1W        W49670  25.909  16.912   8.214 -0.2255 -0.0388 -0.0247
    1W        W49671   7.243  27.920   8.246  0.1325 -0.2218  0.2726
    1W        W49672   5.988   0.965   8.666 -0.0271 -0.1077 -0.0816
    1W        W49673  19.554  21.803   3.347  0.2659  0.2174  0.0899
    1W        W49674   9.281  27.976   2.385 -0.0077  0.0862  0.0932
    1W        W49675  22.926   7.155   8.389 -0.0650  0.2662  0.1553
    1W        W49676   3.152  13.063   0.586 -0.0220  0.1706  0.1456
    1W        W49677  19.319  14.468   2.040  0.3258 -0.2181 -0.1772
    1W        W49678   6.792  12.010   8.878  0.0497  0.1987  0.1630
    1W        W49679   3.972  24.273   0.643  0.0909  0.0819 -0.1843
    1W        W49680  12.859  27.147   2.828  0.3590  0.0044  0.0573
    1W        W49681  12.983  24.677   9.916 -0.2857  0.2210 -0.3356
    1W        W49682   2.490  15.605   3.490 -0.0176  0.0206  0.0623
    1W        W49683  10.637   5.571   8.367 -0.0761  0.0703 -0.1316
    1W        W49684  18.855  11.265   7.191  0.2730 -0.1078 -0.1791
    1W        W49685  13.939  25.616   6.894  0.1854  0.2108 -0.3705
    1W        W49686  26.286  20.327   2.016 -0.1364  0.0055  0.1626
    1W        W49687  11.117   7.031   2.020 -0.0878 -0.1891 -0.1170
    1W        W49688  21.079  13.016   3.001 -0.2683  0.0522 -0.0366
    1W        W49689   8.044   9.974   3.359  0.2389 -0.1921 -0.1664
    1W        W49690  22.018  11.952   0.221  0.3774  0.0026 -0.1964
    1W        W49691  26.819  26.584   7.573  0.0643  0.1302 -0.1627
    1W        W49692  25.906  10.598   9.191 -0.0185  0.0039 -0.0507
    1W        W49693  23.525   7.877   7.779  0.0482  0.0249 -0.0338
    1W        W49694  22.537  26.574   8.787 -0.3824 -0.0757  0.1035
    1W        W49695  26.396  25.234   9.902 -0.1734  0.4276 -0.2599
    1W        W49696  19.193  11.850   0.576 -0.0149 -0.0005  0.0107
    1W        W49697  16.288  27.356  10.143 -0.0347  0.1899  0.0299
    1W        W49698   2.338  25.122   8.623 -0.1107 -0.0114  0.1009
    1W        W49699  11.381  25.060   1.962  0.2253  0.0531 -0.0783
    1W        W49700  15.861  20.829   9.910  0.2805 -0.2667 -0.1422
    1W        W49701   0.532  10.346   8.542 -0.1083 -0.1341 -0.0111
    1W        W49702  19.817  19.903   3.034  0.0939  0.1887 -0.0976
    1W        W49703   2.132  14.756   8.270  0.0789 -0.0760 -0.0660
    1W        W49704   1.584  12.470   8.612  0.0779  0.1563 -0.0268
    1W        W49705  24.527   0.417   7.877 -0.1614  0.1927  0.3071
    1W        W49706  27.478  22.485   1.497  0.1814  0.2749  0.2557
    1W        W49707  16.636  21.285   6.788 -0.2597 -0.0405  0.5185
    1W        W49708  21.291   0.599   0.035 -0.4320  0.2162  0.1634
    1W        W49709  22.799  12.703   6.804 -0.0225 -0.2075 -0.0141
    1W        W49710  23.070  18.088   0.116  0.0574 -0.4350  0.2127
    1W        W49711   1.889   4.971   6.972 -0.1861 -0.0003 -0.1931
    1W        W49712  11.610  17.245   8.261 -0.2016 -0.1097 -0.3759
    1W        W49713   3.722  12.890   7.952  0.0808  0.0293 -0.3712
    1W        W49714  19.193   1.377   9.543 -0.1691 -0.0637  0.1711
    1W        W49715  27.653   1.947   8.914  0.1078 -0.0412  0.2283
    1W        W49716  18.613  10.213   0.108  0.4249 -0.1429  0.1682
    1W        W49717  20.608  15.306   9.216  0.2526  0.3450  0.0378
    1W        W49718   0.117  23.532   6.571 -0.1160 -0.0490 -0.0522
    1W        W49719  20.066   9.205   9.438  0.0432 -0.1043 -0.0737
    1W        W49720  13.244  24.883   8.163 -0.0362  0.1642  0.0986
    1W        W49721  23.661   4.842   8.149 -0.0500  0.1780  0.0948
    1W        W49722  25.293  21.583   2.064  0.1793 -0.2362 -0.0700
    1W        W49723  21.188  13.926   2.046  0.1031  0.0717 -0.4206
    1W        W49724  16.446  11.692   7.065  0.0436 -0.2567 -0.1182
    1W        W49725  13.180   1.549   0.262  0.1305  0.1469 -0.0281
    1W        W49726   4.036  14.973   9.043  0.1451 -0.1886 -0.1168
    1W        W49727  13.378  21.714   9.921 -0.2415 -0.0241  0.1185
    1W        W49728   8.766  24.668   7.733 -0.2492  0.0500 -0.1270
    1W        W49729   6.939  14.060   3.765 -0.1619  0.2234  0.5322
    1W        W49730  10.638  13.540   1.578  0.2231  0.1183  0.0770
    1W        W49731  11.003  23.922   0.372 -0.0428 -0.1049 -0.0081
    1W        W49732   9.176   3.829   3.130 -0.4208  0.1590 -0.1576
    1W        W49733  19.383  10.196   0.467  0.1204  0.1616 -0.0373
    1W        W49734  14.530  25.599   2.886 -0.1208 -0.2555  0.3380
    1W        W49735  10.590  25.594   0.094 -0.2858 -0.2395  0.0103
    1W        W49736  25.477  10.445   2.514 -0.1256  0.0475  0.0511
    1W        W49737  17.797  23.144   7.368  0.2012 -0.3346 -0.2132
    1W        W49738  26.293  21.451   0.127  0.1471 -0.1902  0.1574
    1W        W49739  10.903  14.486   2.055 -0.1133  0.0017  0.0063
    1W        W49740  27.537   4.474   1.491 -0.3159  0.1856 -0.2398
    1W        W49741  19.380  23.912   9.225  0.1695  0.0369  0.0433
    1W        W49742  13.337  26.902   1.671  0.2719 -0.1350  0.1942
    1W        W49743   8.631  15.250   2.104  0.1364  0.0224  0.0167
    1W        W49744   5.428  13.502   1.499 -0.1705 -0.1368 -0.1319
    1W        W49745   2.192  23.180   8.711  0.1663 -0.0915  0.2882
    1W        W49746  17.994  11.342   9.775  0.0515  0.1802 -0.2024
    1W        W49747  24.380  25.120   0.141  0.0092  0.1117  0.0212
    1W        W49748  17.027  18.002   0.094 -0.1152 -0.2674 -0.0297
    1W        W49749  27.944  24.555   1.958  0.0404  0.0415 -0.2947
    1W        W49750  18.706  18.670   3.502  0.1012  0.0280  0.1496
    1W        W49751  26.034  24.772   3.500  0.0104 -0.0639 -0.1428
    1W        W49752  15.548  24.953   1.305 -0.1472  0.3296 -0.0199
    1W        W49753  27.975   2.334   1.917 -0.3385 -0.1601  0.2302
    1W        W49754   3.628  25.540   9.575 -0.1578  0.0533  0.2104
    1W        W49755   9.219  21.073   3.293  0.2322 -0.2538  0.1406
    1W        W49756  27.057   1.088   8.679 -0.1559  0.0177  0.0619
    1W        W49757  11.895  13.619   2.100 -0.1218 -0.1423  0.1365
    1W        W49758   5.781  18.348   1.160 -0.1319 -0.2483  0.0552
    1W        W49759   0.767   4.579   6.526  0.2663 -0.0750 -0.2327
    1W        W49760  18.758  21.657   0.762  0.1344  0.1121 -0.2207
    1W        W49761  12.668  12.021   1.944  0.0350 -0.0987  0.0927
    1W        W49762   7.384   8.848   7.885  0.0284  0.1343 -0.2681
    1W        W49763   0.577  27.005   9.978  0.0408 -0.0469 -0.0090
    1W        W49764   7.303  14.743   7.065  0.1865  0.0358  0.1815
    1W        W49765  21.246  13.008   7.262 -0.2641 -0.3355  0.2431
    1W        W49766  25.371   6.981   7.181 -0.2148  0.1441 -0.0540
    1W        W49767  10.408  13.089   8.420 -0.3181 -0.0492 -0.1428
    1W        W49768  14.973  20.643   7.909 -0.0348  0.2912 -0.3864
    1W        W49769  12.088  12.572   9.274 -0.1555 -0.0548 -0.2848
    1W        W49770   7.354  10.341   9.465 -0.3283 -0.0860 -0.0348
    1W        W49771   7.303  13.894   1.239  0.0387 -0.0484  0.2098
    1W        W49772  18.487  10.501   2.529 -0.0468  0.1717  0.1436
    1W        W49773  17.616  24.525   7.529  0.0393 -0.2724 -0.2021
    1W        W49774   2.840  12.281   8.024  0.0731  0.1290 -0.1573
    1W        W49775  17.419  24.483   8.914 -0.1456 -0.1934  0.1494
    1W        W49776  15.825  25.275   3.221  0.0653  0.2295  0.1003
    1W        W49777  13.968   2.298   0.392 -0.2473  0.1052 -0.1333
    1W        W49778  19.544   9.146   8.594  0.1812  0.1826  0.1988
    1W        W49779   3.831   7.988   7.849  0.2548  0.1530  0.1354
    1W        W49780  19.858  12.723   1.650 -0.1442 -0.4092  0.1344
    1W        W49781  24.083  26.805   9.293 -0.2891 -0.3712 -0.1898
    1W        W49782   6.817  21.738   9.790  0.1172  0.1395 -0.0292
    1W        W49783  26.884  25.503   1.544 -0.3655  0.0247  0.1582
    1W        W49784   9.977  27.656   1.047 -0.1181 -0.1514  0.0821
    1W        W49785  14.377  18.241   7.864  0.2112 -0.0705  0.0363
    1W        W49786  22.822  26.246   4.033  0.1843 -0.1651  0.3614
    1W        W49787  12.910   0.374   1.719 -0.2121 -0.0294  0.1710
    1W        W49788  21.968  13.137   9.789 -0.2700 -0.1993  0.1087
    1W        W49789  18.479  22.907   9.629 -0.0808  0.2682 -0.1524
    1W        W49790   7.390  11.070   7.593 -0.1245 -0.1670 -0.0881
    1W        W49791  14.816   8.382   8.520  0.3128 -0.0663 -0.2877
    1W        W49792   3.542  22.984   1.274  0.4997 -0.0644  0.1425
    1W        W49793  15.106  21.688   2.746  0.0112 -0.0644  0.0927
    1W        W49794  11.781   7.572   1.364  0.2546  0.0253 -0.1073
    1W        W49795  21.426  21.600  10.081 -0.1809  0.1236  0.0235
    1W        W49796  17.557  13.971   7.053  0.0288  0.0242  0.0631
    1W        W49797  18.992   7.180   0.633 -0.2170  0.0399  0.0090
    1W        W49798  11.837  25.325   1.827 -0.0441  0.2494  0.3373
    1W        W49799   0.020  21.914   8.329  0.1657  0.3608 -0.0566
    1W        W49800   7.415   2.065   7.691  0.1121 -0.1724 -0.2467
    1W        W49801  16.143  10.413   9.295  0.0428 -0.2860 -0.0870
    1W        W49802  19.469  11.506   0.958  0.2094 -0.2680 -0.2161
    1W        W49803  23.829  21.831   0.160 -0.0427  0.0617 -0.0501
    1W        W49804  21.058  26.525   9.381  0.1003 -0.0939 -0.3740
    1W        W49805  27.391  18.018   9.390 -0.0938 -0.2466 -0.3094
    1W        W49806  10.115  24.923   0.151 -0.0225 -0.0617  0.1641
    1W        W49807  11.044   3.332   2.913  0.0845  0.0490 -0.0998
    1W        W49808  20.515  10.605   0.208  0.0104  0.0436 -0.0285
    1W        W49809  12.384   7.907   3.207 -0.0336  0.1597  0.2451
    1W        W49810  20.279  19.033   0.455 -0.0411 -0.0297  0.3566
    1W        W49811   4.347   3.403   6.929 -0.1059 -0.3499 -0.3430
    1W        W49812   7.253  18.614   3.000  0.2139 -0.2380  0.0728
    1W        W49813  25.353  18.120   7.981  0.3314 -0.0531 -0.0408
    1W        W49814  18.581  17.952   9.804 -0.1788  0.3948 -0.0794
    1W        W49815  27.542  10.213   1.009 -0.1999 -0.2141  0.2088
    1W        W49816   3.973  16.237   2.687  0.1364 -0.4822  0.0039
    1W        W49817  16.419  23.340   7.599 -0.3338 -0.1154  0.1334
    1W        W49818  11.229  25.418   6.845 -0.2481 -0.1228  0.3007
    1W        W49819   2.974  23.028   8.371 -0.0793 -0.0141  0.1658
    1W        W49820   0.530   0.380   7.223  0.3055 -0.1589 -0.0592
    1W        W49821  13.210  10.892   1.088 -0.0500  0.0201  0.1146
    1W        W49822  20.222  28.060   0.470  0.1247  0.1229 -0.2294
    1W        W49823  18.010  21.767   8.703 -0.1595  0.1805 -0.2186
    1W        W49824  16.665   0.171   3.385  0.1855  0.4112 -0.1693
    1W        W49825  27.028  17.636   0.832  0.0293 -0.0563 -0.1911
    1W        W49826  21.065   3.281   0.812 -0.1128 -0.0645  0.1875
    1W        W49827  13.129   0.046   3.431 -0.1378  0.1168  0.1313
    1W        W49828   4.094  14.516   8.530 -0.2918  0.1573 -0.0248
    1W        W49829  23.988  13.872   7.322 -0.1309 -0.0109  0.0702
    1W        W49830   8.807  19.845   2.942  0.1055  0.0236  0.1197
    1W        W49831   9.406   6.820   1.250 -0.1964 -0.0459  0.1853
    1W        W49832   0.977  12.671   2.104  0.0158 -0.0210 -0.2063
    1W        W49833   4.920  23.726   8.824 -0.1053 -0.0994  0.0960
    1W        W49834  19.921  13.832   1.221  0.2272 -0.1956 -0.0861
    1W        W49835  22.427  27.045   2.446  0.0036 -0.3464  0.2248
    1W        W49836   8.156   7.800   2.778 -0.1383  0.4543  0.3426
    1W        W49837   3.350   6.931   2.164  0.3790 -0.2033  0.3372
    1W        W49838  15.740   4.099   7.529 -0.0746  0.2996  0.0878
    1W        W49839  22.785   8.678   0.046 -0.1575 -0.2013 -0.1392
    1W        W49840  23.944  25.866   0.102 -0.2339  0.2251  0.1296
    1W        W49841  16.251   0.510   3.265 -0.1603  0.1499  0.3698
    1W        W49842  22.246   5.345   9.771 -0.0255 -0.0214  0.0309
    1W        W49843  25.795   6.653  10.336  0.1524  0.1624  0.1787
    1W        W49844   9.828   4.776   9.275 -0.1418  0.1510 -0.2353
    1W        W49845  27.505   9.864   1.356 -0.0449  0.1644  0.2777
    1W        W49846   4.235  21.666   8.712  0.3283  0.2890  0.0126
    1W        W49847   7.216  12.838   2.682  0.0954 -0.2019  0.0146
    1W        W49848  22.443  25.280   8.864 -0.1009 -0.0433 -0.2432
    1W        W49849  16.410  13.836   1.614 -0.2291 -0.0288 -0.1218
    1W        W49850   4.781  20.871   0.213  0.0822  0.2112  0.1636
    1W        W49851   6.545   7.722   6.876  0.1144 -0.2825  0.0754
    1W        W49852   0.525  22.567   2.935 -0.1211 -0.2360 -0.0841
    1W        W49853  28.030  19.866   0.440  0.1323  0.2021 -0.1712
    1W        W49854   0.336  18.038   1.535 -0.0736 -0.0832 -0.2107
    1W        W49855  17.577  26.274   7.653 -0.0028  0.2450 -0.0646
    1W        W49856  12.577  13.161   2.712 -0.1531 -0.2572 -0.2656
    1W        W49857  22.336   5.055  10.168  0.0644  0.3505 -0.0180
    1W        W49858  21.060  17.680   1.504 -0.0954 -0.1968 -0.0072
    1W        W49859   8.194  17.169   0.845  0.0951  0.0670 -0.1590
    1W        W49860  26.300  13.847   1.864 -0.0532  0.2894 -0.0589
    1W        W49861  16.627  19.557   0.959  0.0596 -0.2309  0.0232
    1W        W49862  16.510   1.033   0.569  0.0496  0.2503  0.2869
    1W        W49863  22.133  26.202   1.022 -0.1272 -0.0104 -0.1379
    1W        W49864  14.114  16.449   8.334  0.0925 -0.0419  0.3253
    1W        W49865   3.912  10.950   1.869  0.0868  0.0019  0.0294
    1W        W49866  23.571  13.272  10.307 -0.0733  0.1804 -0.3529
    1W        W49867  20.719  22.841   0.946 -0.2295 -0.1490  0.0775
    1W        W49868  21.885  11.219   2.978 -0.2223  0.1472 -0.1059
    1W        W49869   2.947  26.957   7.957 -0.2734 -0.3319  0.1022
    1W        W49870  19.648  26.138   9.024 -0.0435 -0.0486 -0.0179
    1W        W49871  20.741  27.354   1.269 -0.1037  0.0482  0.4196
    1W        W49872  13.471  15.748   7.890 -0.0243 -0.0484  0.2191
    1W        W49873  15.632  22.760   3.443  0.3910  0.0500 -0.0324
    1W        W49874  21.643  15.200   2.829  0.1803  0.2684 -0.0214
    1W        W49875   8.842   3.197   7.346  0.0979  0.1361  0.1907
    1W        W49876  22.489  12.659  10.132 -0.2627  0.1870 -0.1461
    1W        W49877   5.750  18.186   2.123  0.1156  0.1058 -0.0161
    1W        W49878  16.755  12.717   3.181 -0.0581 -0.0723 -0.0147
    1W        W49879  11.760  25.293   7.211 -0.2026 -0.0202  0.1396
    1W        W49880  15.396   3.619   2.724 -0.1461  0.1315  0.0069
    1W        W49881  25.975  16.645   0.237  0.0096 -0.0575 -0.0174
    1W        W49882  26.823   0.025   0.398  0.2362  0.1016 -0.3137
    1W        W49883  26.310   2.907   9.673 -0.1115  0.3635 -0.0822
    1W        W49884   7.078   3.090   8.583 -0.2009  0.3018  0.3009
    1W        W49885  13.129   4.853   8.883 -0.0290  0.2987  0.2247
    1W        W49886   2.431   6.426   8.466  0.1939 -0.1931  0.1038
    1W        W49887  22.649  25.842  10.085  0.0136 -0.1076  0.1877
    1W        W49888  22.877   7.099   9.247 -0.1814 -0.2240 -0.0103
    1W        W49889   0.029  18.416   3.086 -0.1840  0.2837 -0.1594
    1W        W49890  18.254  13.361   0.526  0.2270 -0.0206  0.0367
    1W        W49891  16.003  10.982   2.846 -0.1790  0.0207  0.1058
    1W        W49892  15.751   9.674   8.494 -0.0033  0.0671  0.2371
    1W        W49893  19.331  22.548   1.166  0.0300  0.3030 -0.0337
    1W        W49894  19.978  10.185   3.328 -0.0563 -0.0179 -0.0257
    1W        W49895   2.071  16.696   0.500  0.0837  0.1116  0.1058
    1W        W49896   0.261  18.599   2.590  0.0359  0.1217 -0.3269
    1W        W49897   4.833   2.565   1.121  0.0734 -0.0262 -0.2467
    1W        W49898  11.612   3.933   3.115 -0.1572  0.1888 -0.0879
    1W        W49899  20.683  15.320   1.217  0.1559 -0.0439  0.3361
    1W        W49900  18.071  21.669   2.132  0.2930  0.0409  0.0027
    1W        W49901   4.645  23.318   8.994  0.1108  0.1876  0.1568
    1W        W49902  20.593  21.358   2.368 -0.1410  0.0388 -0.1311
    1W        W49903  25.368  12.350   2.038  0.3338 -0.3846  0.0633
    1W        W49904   0.228  24.831   1.807  0.0516  0.3273 -0.0214
    1W        W49905   6.228  22.240   2.871  0.2062 -0.0015  0.2179
    1W        W49906  23.372  20.350   6.938 -0.0318  0.3320  0.2307
    1W        W49907  25.537  15.597   9.837  0.1295 -0.2884  0.3127
    1W        W49908   2.639  22.688  10.050  0.1200 -0.0692 -0.2516
    1W        W49909  24.375   0.539   7.378 -0.4063  0.0243  0.0583
    1W        W49910  24.712  22.229   2.475 -0.0566  0.2338 -0.0974
    1W        W49911  16.090  20.337   9.895 -0.1917  0.1828 -0.0598
    1W        W49912   3.289  13.184   9.526 -0.1242 -0.0615 -0.2564
    1W        W49913  20.980   5.329   7.653  0.1121  0.1598  0.0269
    1W        W49914  27.197  20.764   8.023 -0.1851 -0.2313  0.1231
    1W        W49915   9.627   0.625   7.352 -0.2169  0.2298 -0.0634
    1W        W49916  22.262   0.591   7.587  0.1232  0.4054  0.1916
    1W        W49917   7.356  18.049   0.547 -0.0313  0.2251 -0.0525
    1W        W49918   0.416   3.002   2.478  0.0949  0.0753 -0.0942
    1W        W49919  16.169  17.758   7.904  0.2148 -0.0042 -0.0601
    1W        W49920  26.744  19.760  10.074  0.2899  0.1503 -0.1949
    1W        W49921  20.716   2.784   1.459  0.0718  0.0121 -0.1940
    1W        W49922  11.201   9.864   2.902 -0.2199 -0.1801  0.2113
    1W        W49923   8.898   9.940   1.928  0.0531 -0.1741  0.0110
    1W        W49924  23.460   4.496   1.585 -0.1422  0.0636  0.0789
    1W        W49925  25.471  21.180   9.965 -0.0660 -0.0786 -0.1351
    1W        W49926   0.822  26.564   0.057  0.0513  0.0170  0.0200
    1W        W49927  20.462  26.732   9.867  0.3603  0.0576  0.1543
    1W        W49928  21.255   6.937   1.747 -0.0136 -0.0903  0.1299
    1W        W49929   0.342  17.200   0.135  0.1805  0.2397 -0.0024
    1W        W49930   2.239   7.316   8.670  0.1672 -0.1760 -0.2468
    1W        W49931   9.349  25.222   1.033 -0.0419 -0.2282 -0.0165
    1W        W49932  22.667  23.874   8.654  0.0209 -0.0576 -0.0719
    1W        W49933  12.456  26.912   1.993 -0.1561 -0.2594  0.1601
    1W        W49934   0.619  17.446   9.554 -0.2176  0.1309  0.0547
    1W        W49935  17.595   5.822   2.450 -0.2197 -0.0405 -0.2870
    1W        W49936   0.203   2.353   0.428  0.0685  0.2517 -0.2543
    1W        W49937   0.833  19.695   9.212  0.0261 -0.1794  0.0059
    1W        W49938  10.648   3.709   3.159 -0.1923  0.0806  0.2615
    1W        W49939  14.569  27.749   3.311 -0.2268 -0.0063 -0.0190
    1W        W49940   0.275  18.207   7.215 -0.0739 -0.2345  0.0696
    1W        W49941  22.441   2.082   2.886 -0.1568 -0.1713  0.1085
    1W        W49942  26.574  11.812   9.537 -0.2915  0.1552  0.5166
    1W        W49943  22.370   3.490   1.166 -0.1577  0.0916 -0.1485
    1W        W49944   4.783  10.446   9.722  0.6713  0.2405 -0.2070
    1W        W49945   9.576  15.582   2.317 -0.0573 -0.1330  0.1134
    1W        W49946  14.125  10.538   1.643 -0.1207  0.3619  0.0562
    1W        W49947  27.206   4.380   7.366 -0.2664 -0.1306 -0.0999
    1W        W49948  12.981  28.039   8.493  0.4642 -0.2082  0.0598
    1W        W49949  11.962  25.078   9.403 -0.0656 -0.1414 -0.0356
    1W        W49950  11.105  24.930   9.118  0.2917  0.3401  0.2661
    1W        W49951   4.627  26.413   7.490 -0.2612  0.0954  0.1022
    1W        W49952  13.781   0.354   3.214  0.0114  0.1018  0.4107
    1W        W49953  24.052  26.180   9.064 -0.0071  0.1414 -0.3604
    1W        W49954  14.423   0.321   7.537  0.2744 -0.0044  0.1755
    1W        W49955  14.054   6.304   8.722  0.2210 -0.0159 -0.1109
    1W        W49956  27.448  22.716   8.414 -0.1998  0.0637  0.0629
    1W        W49957   9.748  11.115   7.677 -0.0572 -0.1629  0.1267
    1W        W49958  23.705   4.484   9.077  0.1304  0.0589 -0.2325
    1W        W49959  10.765   0.871   9.501 -0.1251  0.0634 -0.0742
    1W        W49960   9.558  16.663   9.510  0.2284 -0.0028  0.2567
    1W        W49961  21.481  11.913   7.881 -0.3407 -0.2879  0.1598
    1W        W49962  12.493   7.858   2.050  0.2587 -0.0606 -0.3674
    1W        W49963  20.278  13.433   2.566  0.2669  0.1830 -0.1002
    1W        W49964   7.550  19.486   0.865  0.0798 -0.4045 -0.1879
    1W        W49965  17.480  23.232   7.702  0.0303 -0.0980 -0.0490
    1W        W49966  17.543  21.028   9.043  0.0906  0.1510  0.2228
    1W        W49967  12.270   6.337  10.241 -0.1838  0.3543  0.0023
    1W        W49968   4.574  14.836   1.744  0.1196 -0.3114  0.1012
    1W        W49969  25.463  22.837   0.894 -0.0065 -0.0144  0.0795
    1W        W49970  12.194  20.178   1.382  0.0568 -0.0815  0.0809
    1W        W49971  15.148  27.105   0.324  0.0286  0.1417  0.2018
    1W        W49972  26.783   9.884   1.448 -0.0875 -0.1033  0.1663
    1W        W49973  15.172   9.543   9.936 -0.0750  0.1829 -0.0411
    1W        W49974   2.403  20.659   9.935  0.0222 -0.0815 -0.1239
    1W        W49975   9.416  12.983   0.556 -0.1736  0.0928 -0.1519
    1W        W49976  26.107  27.149   8.307 -0.2073  0.0481  0.0030
    1W        W49977  13.775   2.716   3.229 -0.0586  0.0083 -0.1924
    1W        W49978   5.923   8.470   8.035 -0.0276 -0.0204  0.1980
    1W        W49979   2.080  23.867   0.522 -0.0796 -0.0312  0.1894
    1W        W49980  15.919   1.781   9.857  0.0457  0.2259 -0.0623
    1W        W49981  26.706   2.096   1.327 -0.3774 -0.0108  0.1271
    1W        W49982  27.613  15.952   2.409  0.1181 -0.0745 -0.1439
    1W        W49983  14.242  27.214   8.145  0.1985  0.3325  0.1621
    1W        W49984  17.213  21.723   2.528  0.0227 -0.0710 -0.2547
    1W        W49985  27.562  18.637   1.945 -0.0790 -0.1300 -0.1071
    1W        W49986  20.642  15.875   3.307 -0.0068 -0.1473  0.1820
    1W        W49987   2.043  18.220   2.017 -0.0386  0.0052  0.2121
    1W        W49988   5.095   5.178   7.090  0.0529  0.1841 -0.1098
    1W        W49989  21.500  18.681   9.164  0.0262  0.2587  0.5759
    1W        W49990   0.748  27.994   1.236 -0.3462 -0.1070  0.0795
    1W        W49991  13.184  14.195   2.281  0.0122  0.1705  0.1528
    1W        W49992   7.248  15.034   1.930  0.1048 -0.0413  0.1366
    1W        W49993  11.576   7.540   0.322  0.4244  0.0654  0.1498
    1W        W49994  20.702   7.245   8.533  0.0461 -0.2070  0.0032
    1W        W49995  22.818   4.161   2.326  0.0696  0.2893  0.0852
    1W        W49996  17.833  14.966   8.964  0.2022 -0.1159  0.2439
    1W        W49997  10.772  22.168   9.685 -0.0455  0.1209  0.1167
    1W        W49998  23.417   6.040   2.625  0.0188  0.0942  0.0986
    1W        W49999  15.186   4.294   0.945 -0.0309  0.0588 -0.0053
    1W        W50000   2.935  21.768  10.217 -0.0444  0.2839 -0.2911
    1W        W50001  16.709  18.137   4.018  0.0778  0.3222 -0.1988
    1W        W50002   5.048   9.968   1.553 -0.2150  0.0430  0.0166
    1W        W50003  16.446  16.291   9.188  0.2125 -0.0308  0.4024
    1W        W50004   5.609   9.554   0.972  0.2655  0.0870 -0.0937
    1W        W50005  27.111   4.340   6.835 -0.4220 -0.0589 -0.0850
    1W        W50006   7.671  11.662   0.993 -0.3725 -0.1211  0.2808
    1W        W50007  24.930  25.605   9.271 -0.1798  0.0357  0.2205
    1W        W50008   2.018  13.997   0.250  0.0747  0.0188 -0.2381
    1W        W50009  28.062  23.251   8.050  0.0541 -0.1699  0.2427
    1W        W50010  27.454  20.048   9.149  0.0828  0.1575 -0.1563
    1W        W50011   2.611  16.435   3.152  0.4355  0.1505  0.0720
    1W        W50012   2.438   7.822   1.820 -0.1975  0.0743 -0.0108
    1W        W50013   5.085  14.207   1.363  0.1754  0.1066 -0.1622
    1W        W50014  16.468  27.257   9.669 -0.3373  0.1192 -0.1385
    1W        W50015   4.589  15.858   0.790  0.0097 -0.1386  0.0179
    1W        W50016   3.412  20.915   1.923  0.1728 -0.0413  0.0559
    1W        W50017  25.280  15.936   9.495  0.0149  0.0253  0.0762
    1W        W50018  13.665  19.201   2.567 -0.0235  0.0800 -0.0751
    1W        W50019   8.063  19.966   9.039 -0.4075 -0.1758  0.1314
    1W        W50020  27.964  21.228   1.325  0.1134  0.0254 -0.2374
    1W        W50021  27.357  19.964   0.949  0.1091 -0.0468  0.0296
    1W        W50022  19.544   1.378   7.816 -0.1895  0.1139  0.2256
    1W        W50023  14.863   7.490   8.825  0.0302 -0.1567  0.0291
    1W        W50024  24.895  22.833   9.779 -0.3246  0.0278  0.0107
    1W        W50025   2.969  15.659   2.444 -0.1054  0.1342 -0.0393
    1W        W50026  26.557  13.005   6.461  0.0097  0.2340  0.0013
    1W        W50027  10.042  19.577   1.845 -0.1005 -0.0259  0.1040
    1W        W50028  23.200  25.448   8.533 -0.3068  0.0413 -0.0607
    1W        W50029  12.997  25.055   8.610  0.0689  0.1880  0.2206
    1W        W50030  24.224  27.193   2.561 -0.0031 -0.4368 -0.0291
    1W        W50031  26.621   1.216   9.010  0.2588  0.0070 -0.0523
    1W        W50032  16.324  20.999   1.795 -0.1817 -0.3614  0.2094
    1W        W50033  22.826  24.451  10.034 -0.2950 -0.0199 -0.0669
    1W        W50034   1.828  11.634   3.129 -0.1549 -0.0065 -0.3228
    1W        W50035  25.017   3.296   2.217  0.0641  0.2653 -0.1084
    1W        W50036  15.104  11.733   2.850  0.2419  0.1033 -0.0123
    1W        W50037  16.772   8.487   7.812 -0.1937  0.2545  0.3045
    1W        W50038   6.684  25.234   8.075 -0.0171  0.2242 -0.0722
    1W        W50039  12.894   9.400   8.057 -0.2281  0.0575  0.1725
    1W        W50040  22.333  21.577   2.815 -0.0059 -0.4924 -0.0944
    1W        W50041   4.879   6.860   0.878 -0.1136  0.3242  0.1966
    1W        W50042  13.795   3.962   1.148 -0.0522 -0.1462  0.0039
    1W        W50043   2.681   1.296   2.539 -0.1835  0.0119 -0.3597
    1W        W50044  15.742   9.050   9.237 -0.0615  0.0387 -0.0530
    1W        W50045   4.030  12.309   8.058 -0.0649  0.1021  0.1657
    1W        W50046  18.053   8.506   3.847 -0.1357  0.1721  0.1929
    1W        W50047  21.077  18.738   0.129 -0.0181  0.0242  0.0495
    1W        W50048  25.590  19.597   7.320 -0.1498 -0.0420  0.0534
    1W        W50049   4.312   9.627   7.981 -0.0730  0.0865 -0.0695
    1W        W50050  24.265   0.602   3.350  0.0488  0.0104  0.0133
    1W        W50051  22.479   7.327   2.044 -0.3196  0.1477 -0.2484
    1W        W50052  19.411  25.447   0.944  0.1428  0.3722  0.3362
    1W        W50053   5.449  18.360   0.783  0.0345  0.2499 -0.0267
    1W        W50054   1.710   8.582   2.564 -0.1261 -0.0331  0.0560
    1W        W50055  24.756  13.087   0.985  0.1738 -0.3572  0.1233
    1W        W50056   2.199  18.408   8.897 -0.2140  0.0434  0.2220
    1W        W50057  17.921  22.572  10.280 -0.0075  0.1532 -0.2016
    1W        W50058  23.502  22.093   3.426 -0.3049  0.0662 -0.0175
    1W        W50059   2.943   5.737   7.077  0.3526  0.2958  0.0773
    1W        W50060   7.267   1.008   0.674 -0.3286  0.3847  0.3722
    1W        W50061  10.766   9.675   8.225  0.1992  0.1282 -0.2024
    1W        W50062  10.093  23.389   7.470 -0.1786  0.1504  0.3053
    1W        W50063   9.387  25.689   2.616 -0.1208  0.1232  0.1713
    1W        W50064  19.761   5.508   3.539  0.1691 -0.1294  0.2774
    1W        W50065  12.984  13.010   0.957  0.1346  0.3574  0.2670
    1W        W50066   9.316  25.904   3.355  0.0493  0.0690  0.1059
    1W        W50067  12.685   6.641   8.325 -0.1181  0.4353  0.0511
    1W        W50068   3.716  10.728   8.444  0.1643  0.3433  0.2106
    1W        W50069   3.145  13.677   9.733  0.0553 -0.1969  0.2283
    1W        W50070   1.101   8.011   9.504  0.0173  0.1693 -0.0097
    1W        W50071  20.644  16.796   7.920  0.2948  0.1926  0.0242
    1W        W50072   7.822  18.616  10.235 -0.0226  0.1355 -0.0962
    1W        W50073  23.823   4.416   9.589 -0.2018  0.1923 -0.1414
    1W        W50074   6.914   4.718   7.659  0.2620 -0.3217  0.2546
    1W        W50075  23.914  21.657   6.651  0.0901  0.1070 -0.0560
    1W        W50076   0.185  21.585   1.137 -0.2518  0.3836 -0.1229
    1W        W50077  16.670   3.320   3.176  0.3218  0.0359 -0.1873
    1W        W50078  17.400   0.167   0.671 -0.0524  0.1485 -0.1319
    1W        W50079  20.106  27.504   0.330  0.0960  0.1391  0.0851
    1W        W50080   5.666  23.712  10.147 -0.1219 -0.2334  0.0287
    1W        W50081  14.358   4.887   3.503  0.1574 -0.3077  0.1689
    1W        W50082   0.274  17.598   6.773 -0.0682 -0.1442  0.1465
    1W        W50083  26.428   6.797  10.108  0.1722 -0.1688  0.1350
    1W        W50084   4.416  25.695   2.404 -0.0387 -0.4354 -0.3072
    1W        W50085  15.164  18.787   7.915  0.3360  0.1555  0.2107
    1W        W50086   7.551   4.987  10.136 -0.0099  0.3446 -0.1582
    1W        W50087   3.386   1.413   7.864  0.2654  0.2201  0.1907
    1W        W50088   3.823  27.203   7.212  0.0313  0.3416  0.0788
    1W        W50089   8.478  26.351   0.157 -0.0554 -0.4152 -0.1498
    1W        W50090  26.506   5.252   7.201 -0.0808  0.2733  0.0232
    1W        W50091  11.353  18.925   1.639 -0.4256  0.0415 -0.1354
    1W        W50092  12.950  13.090   9.638  0.0228  0.3065 -0.0419
    1W        W50093  22.690  16.897   0.890 -0.1909  0.0061  0.1084
    1W        W50094  25.624  27.959  10.022 -0.0541  0.0232  0.0685
    1W        W50095  22.189  10.764   6.774 -0.0897 -0.1667  0.2305
    1W        W50096  17.889   3.233   0.901 -0.4754  0.0521 -0.2497
    1W        W50097   9.012  14.320   2.102  0.2623  0.0578 -0.0666
    1W        W50098  19.216   4.810   1.539  0.2717 -0.0140  0.0776
    1W        W50099   8.378   3.645   2.059  0.3556 -0.1597 -0.0846
    1W        W50100  25.367  27.572   7.378  0.0737 -0.0268 -0.2630
    1W        W50101  18.920  14.539   3.026 -0.0040  0.0400 -0.0792
    1W        W50102  13.571  15.730   9.677  0.4356 -0.0140 -0.2182
    1W        W50103  26.210  15.897   8.099  0.2025 -0.1256 -0.2550
    1W        W50104  15.889   0.845   8.650  0.3664  0.2112  0.1306
    1W        W50105  23.360   4.357   9.729  0.0461  0.3586  0.0372
    1W        W50106   1.888  24.414   1.679 -0.4206 -0.2014 -0.1703
    1W        W50107  14.847  18.097   0.825  0.0571 -0.0808 -0.0659
    1W        W50108   2.753  11.033   6.240  0.0065  0.3484 -0.1705
    1W        W50109  24.073  25.499   6.994 -0.0481 -0.0436  0.4108
    1W        W50110  11.977   3.820   0.590  0.2601  0.1378 -0.0416
    1W        W50111   9.671  23.226   1.480  0.0917  0.0753 -0.0246
    1W        W50112  14.302  28.109   9.587  0.4382 -0.0406  0.4825
    1W        W50113  20.625   4.445   8.671 -0.0282 -0.1649  0.2273
    1W        W50114   6.443  22.829   7.836  0.1583  0.1645 -0.0168
    1W        W50115   9.169   0.302  10.347 -0.0064 -0.1350  0.0200
    1W        W50116  22.503  26.654   2.748  0.0158  0.0428 -0.0331
    1W        W50117  17.486   6.659  10.142 -0.1020  0.1231  0.1828
    1W        W50118  22.750   1.562   8.981 -0.0972  0.0435  0.0297
    1W        W50119  10.459  12.684   0.402  0.0584  0.2558 -0.1499
    1W        W50120  26.172  20.972   8.984 -0.3928  0.0685  0.1626
    1W        W50121  14.974  19.857   9.382  0.2777  0.3176  0.3410
    1W        W50122  15.482  11.133   8.058 -0.1178 -0.0430 -0.0147
    1W        W50123  25.102  13.365   2.142  0.0535 -0.3195  0.0886
    1W        W50124   5.725   2.713   0.834  0.0997  0.1887 -0.1783
    1W        W50125   6.273  17.689   2.264  0.2768 -0.0224 -0.1274
    1W        W50126   4.543   2.245   2.043  0.1637 -0.0681  0.0714
    1W        W50127   9.951   0.304   9.703  0.2156 -0.2183  0.0459
    1W        W50128  10.130  21.514   2.695  0.0195  0.2827 -0.2705
    1W        W50129  25.949  22.370   1.156  0.1461 -0.3484  0.1319
    1W        W50130   0.254   8.090   0.052 -0.0723 -0.1801  0.0997
    1W        W50131  25.856   6.933   8.019  0.2334 -0.1130 -0.1538
    1W        W50132   1.453  24.507   9.260 -0.0992 -0.0700  0.1304
    1W        W50133  11.904  16.399   8.385  0.1508  0.1990 -0.1130
    1W        W50134  20.874  22.656   9.782  0.2452  0.2491 -0.0469
    1W        W50135   3.223  10.786  10.354 -0.0112 -0.3422  0.1328
    1W        W50136  12.600   2.148   7.944 -0.0767 -0.2379 -0.1213
    1W        W50137  16.937  23.344   9.806  0.0885 -0.0788  0.3227
    1W        W50138  25.033   4.469   8.880 -0.1691  0.0865  0.0168
    1W        W50139  20.407  26.120   9.494 -0.0831 -0.2910 -0.0639
    1W        W50140  19.827  18.176   9.143 -0.1441 -0.1283 -0.0925
    1W        W50141   9.379   0.026   0.310 -0.0046 -0.0562 -0.2740
    1W        W50142   0.325  19.491   2.229  0.0857  0.2431 -0.0030
    1W        W50143   2.763  17.651   7.761  0.0017  0.0597 -0.1978
    1W        W50144  25.426  12.439   7.023  0.2592  0.1741 -0.0515
    1W        W50145  26.107  11.270   9.367 -0.0614  0.2789  0.1298
    1W        W50146   9.236  12.180   2.072 -0.1000 -0.2578 -0.1056
    1W        W50147  10.646  17.101   9.047 -0.2262 -0.4650 -0.1861
    1W        W50148   5.842  13.919   7.013  0.1579  0.0088  0.1932
    1W        W50149  24.898   3.354   6.735 -0.1525 -0.2015  0.0618
    1W        W50150   4.110  11.044   2.471  0.4567 -0.0221 -0.1760
    1W        W50151  26.172   5.798   8.576 -0.1524 -0.0254 -0.1413
    1W        W50152  15.054  14.864   9.314 -0.0372  0.1055 -0.0415
    1W        W50153  26.050   7.464   8.256 -0.1472  0.1831  0.2470
    1W        W50154   0.244  12.976   1.097  0.1365  0.3906 -0.3625
    1W        W50155  11.583  23.271   8.431 -0.1170 -0.2829 -0.2354
    1W        W50156  21.598  21.141   2.747  0.0334 -0.0048 -0.0613
    1W        W50157  12.864  19.827   1.535 -0.3765 -0.0039 -0.0436
    1W        W50158  17.434  11.407   9.685  0.1381  0.0135 -0.0375
    1W        W50159   0.739   3.005   6.524 -0.1432 -0.0267  0.1918
    1W        W50160   8.404  22.524   3.022 -0.1053  0.0351 -0.2687
    1W        W50161   6.532  23.227   9.217 -0.4272  0.1263  0.1259
    1W        W50162  14.338   7.501   2.249  0.0207  0.0591  0.0746
    1W        W50163  22.920   5.583   7.554 -0.0330  0.1472 -0.0138
    1W        W50164  20.516  26.880   1.423  0.1295  0.0209  0.1673
    1W        W50165   1.941   1.208   6.391 -0.0237  0.0544  0.1296
    1W        W50166   4.527  16.122   3.212 -0.1952 -0.2109 -0.3731
    1W        W50167  12.659  27.961   7.385  0.0068  0.4191 -0.1732
    1W        W50168  18.277  13.611   3.918 -0.0480 -0.1038  0.2521
    1W        W50169   0.178  19.460   7.553  0.0413  0.2139 -0.1621
    1W        W50170  22.653  27.967   1.977  0.2881 -0.0006  0.2274
    1W        W50171  18.843  21.757   2.216 -0.3128 -0.2213 -0.1179
    1W        W50172  27.571  23.619   9.311 -0.1029 -0.3434 -0.0290
    1W        W50173  22.969  12.482   7.194  0.1452  0.0962 -0.1968
    1W        W50174  13.700  12.754  10.120  0.0312  0.0662  0.1980
    1W        W50175  16.714  27.310   9.172  0.1625  0.0157 -0.0235
    1W        W50176   4.324  19.658   8.693  0.0141  0.2565  0.0182
    1W        W50177   4.517  17.054   7.767 -0.0366 -0.1151 -0.0199
    1W        W50178   0.789   3.047   1.003 -0.1699 -0.3200  0.1733
    1W        W50179  11.220   2.873   3.769  0.1449  0.0092 -0.0310
    1W        W50180  13.956   6.079   8.250 -0.4824  0.0471  0.1668
    1W        W50181  10.183  15.408   8.697  0.0982  0.1432 -0.2000
    1W        W50182   7.652   9.653   9.041 -0.3771 -0.0841 -0.1669
    1W        W50183   9.679  27.974   7.466  0.1725  0.1873 -0.1197
    1W        W50184  12.472  27.483   8.646  0.0648  0.0050  0.2421
    1W        W50185   9.481   0.069   9.190 -0.1103  0.1995 -0.3803
    1W        W50186  16.001   1.284   8.469 -0.0380 -0.1122  0.1960
    1W        W50187  27.550  18.384   9.039  0.0952  0.0955 -0.2617
    1W        W50188  20.195  12.866   9.921 -0.1592  0.0100  0.1760
    1W        W50189  19.407  26.599   8.787  0.5239  0.1910  0.1387
    1W        W50190  12.337  13.331   2.248 -0.0010  0.4320 -0.2228
    1W        W50191   7.104  21.852   8.968 -0.1049  0.1328 -0.2653
    1W        W50192  20.586  14.573   2.523  0.2655 -0.2600  0.1768
    1W        W50193   8.601   0.739   7.097  0.0870  0.0865  0.0418
    1W        W50194   8.844  14.647   8.146  0.1898 -0.2439 -0.0989
    1W        W50195  14.171  11.190   7.875  0.0570  0.0696  0.0009
    1W        W50196  20.448  19.247   0.002  0.1126 -0.1003 -0.3091
    1W        W50197  22.874   8.960   8.716  0.3519 -0.1754 -0.0903
    1W        W50198  12.757  12.133   3.110 -0.1245 -0.0595  0.2409
    1W        W50199  20.226  21.689   1.187 -0.4973 -0.2041 -0.0826
    1W        W50200  16.003  21.240   0.876  0.0847  0.0771 -0.0099
    1W        W50201   2.176  10.834   0.596 -0.0945  0.0927  0.1056
    1W        W50202  27.821  23.615   9.771  0.3129 -0.0192 -0.2096
    1W        W50203  10.331  14.590   4.043 -0.1953 -0.0147  0.4506
    1W        W50204   7.222   7.098   1.551  0.0132  0.3485  0.1070
    1W        W50205   5.488  16.953   2.389  0.2163 -0.0325  0.3919
    1W        W50206  26.412  18.373   6.980 -0.0815  0.0304 -0.3755
    1W        W50207  10.907   7.682   9.328  0.4098  0.0512 -0.1015
    1W        W50208  11.604  10.536   2.559 -0.2985  0.0291  0.0487
    1W        W50209  26.500   5.101  10.023  0.0945  0.0265 -0.2641
    1W        W50210  16.710   2.332   2.991  0.1493 -0.0923 -0.3053
    1W        W50211   6.055   2.688   1.291 -0.2349 -0.0568 -0.0145
    1W        W50212  10.566  21.188   1.201 -0.0032  0.0790 -0.2159
    1W        W50213  17.154   6.221   8.601  0.1957 -0.1655 -0.2882
    1W        W50214  18.855  16.783   9.423 -0.5008 -0.2337 -0.0656
    1W        W50215   7.702  16.531   9.032  0.0249  0.3143 -0.0915
    1W        W50216  23.366  12.244   8.198 -0.2491  0.3247 -0.2794
    1W        W50217  12.032  19.609   8.264  0.0840 -0.4073  0.0753
    1W        W50218  14.570   3.750   2.256  0.2086  0.2394  0.0080
    1W        W50219   2.844  26.092   7.532 -0.0898 -0.0236  0.2357
    1W        W50220   5.490  21.007  10.147 -0.1962  0.2848 -0.0060
    1W        W50221   9.580   9.614   1.996  0.1445 -0.1489  0.0652
    1W        W50222  25.068  15.254   2.382  0.0114  0.1802 -0.3491
    1W        W50223   8.779   1.221  10.188  0.1835 -0.0097 -0.2064
    1W        W50224   1.578   1.739   2.840 -0.3990  0.2273  0.1701
    1W        W50225  23.018  25.518  10.015  0.0614  0.1458  0.4879
    1W        W50226  17.702  12.460   3.863  0.0432  0.0066 -0.2415
    1W        W50227   2.217  15.670   0.505  0.2215 -0.1229 -0.0282
    1W        W50228   1.018  18.219   1.258 -0.0285  0.0841 -0.1241
    1W        W50229  27.889  16.142   7.840 -0.3955 -0.0500 -0.0976
    1W        W50230   5.327  16.526   0.518  0.1651  0.1032 -0.0289
    1W        W50231  27.717  21.137   1.782 -0.2091 -0.0169 -0.1196
    1W        W50232   3.210   9.626   6.292 -0.2903  0.0794  0.1626
    1W        W50233   8.837   7.742   6.921  0.2206  0.0234 -0.1205
    1W        W50234  17.903   4.436   1.656 -0.0498  0.0671  0.1048
    1W        W50235  12.226   6.307   7.436 -0.1804  0.4078 -0.0756
    1W        W50236  28.011  23.222   1.810  0.0013 -0.1537 -0.2421
    1W        W50237   1.006   3.587   8.082  0.1276  0.1952  0.0052
    1W        W50238  25.319  25.284   0.553 -0.0817  0.1186  0.0775
    1W        W50239  17.354  12.162   4.108  0.1285  0.0067 -0.0907
    1W        W50240   1.313   5.189   8.805  0.1669  0.0938  0.2927
    1W        W50241  27.050  15.548   9.812  0.1448  0.0337  0.0701
    1W        W50242  21.647  25.630   2.792  0.2772  0.4122  0.1119
    1W        W50243   4.693   8.219   9.300  0.0298  0.0158 -0.0749
    1W        W50244  26.849  25.467   7.132 -0.0095 -0.2772  0.1158
    1W        W50245   2.393  27.588   9.766 -0.2112 -0.3045  0.1349
    1W        W50246   2.919  16.262  10.183 -0.1038 -0.0692  0.0543
    1W        W50247  16.904  24.961   0.154  0.0330  0.0920 -0.0453
    1W        W50248  26.870   7.340   0.873  0.0899 -0.1038 -0.0420
    1W        W50249  20.115  19.573   0.265 -0.0827  0.0849 -0.0170
    1W        W50250  26.332  18.245   8.371  0.3242 -0.4099 -0.0125
    1W        W50251   6.261  15.584   2.716  0.1858 -0.2231  0.2771
    1W        W50252  27.781  12.317   0.730  0.1553 -0.2386 -0.0295
    1W        W50253   8.746  25.313   1.918  0.2293 -0.0877  0.1588
    1W        W50254  13.582   1.739   9.124 -0.0652 -0.1171 -0.3252
    1W        W50255  10.129  15.542   0.366 -0.2744 -0.2556  0.0523
    1W        W50256   3.392  16.765   7.120 -0.0431  0.1884 -0.0131
    1W        W50257  17.605  21.320   7.216 -0.4277  0.1950  0.2016
    1W        W50258  13.204  21.537   1.870  0.2887  0.4573  0.0280
    1W        W50259  22.244  10.931   0.282  0.0035  0.0659  0.1379
    1W        W50260   3.988  13.603   7.543  0.2904 -0.0182 -0.1730
    1W        W50261  27.616  17.583   0.685  0.1823 -0.4382  0.0407
    1W        W50262  27.809   9.853   0.772 -0.2524  0.2286  0.3243
    1W        W50263  24.564  27.279   8.917  0.3045 -0.3563  0.1147
    1W        W50264  23.904  16.119   8.200  0.0300  0.1231  0.3081
    1W        W50265   3.743  16.613   9.113 -0.0719 -0.1958 -0.0327
    1W        W50266   0.159  24.975   7.371 -0.0539 -0.0253 -0.0279
    1W        W50267   7.723  13.160   2.908 -0.1363  0.2648  0.0856
    1W        W50268  27.077   5.444   0.989 -0.1286 -0.1793  0.1285
    1W        W50269  17.581   9.805   3.543 -0.3805 -0.4217 -0.3467
    1W        W50270  12.030  18.417   2.833  0.2637  0.2635  0.0447
    1W        W50271   2.100   7.448   1.824 -0.1656  0.0758  0.6017
    1W        W50272  19.715  27.475   9.220  0.3126  0.0242  0.2422
    1W        W50273  20.204  27.740   7.587 -0.0538  0.0051  0.0948
    1W        W50274   6.977   4.863   8.848  0.0000  0.2382  0.0041
    1W        W50275  22.415  24.253   1.717  0.0034  0.0948  0.0764
    1W        W50276   7.195  22.571   2.682 -0.0041 -0.0648 -0.1049
    1W        W50277  21.850  25.665   7.968  0.1141 -0.1109  0.1525
    1W        W50278  11.636   5.991   1.312 -0.0567  0.1052 -0.2536
    1W        W50279   9.173  24.771   7.385 -0.0856  0.1259  0.1093
    1W        W50280   8.763  12.374   3.178 -0.0705  0.0551 -0.0679
    1W        W50281   6.155  15.428   0.955  0.0165 -0.1204  0.0772
    1W        W50282  10.493  25.161  10.237  0.0925 -0.1907 -0.2673
    1W        W50283   9.149  14.119   8.057  0.0732 -0.2241  0.4265
    1W        W50284  11.228  11.105   0.332  0.0093  0.0651  0.0564
    1W        W50285   5.696  23.508   8.277  0.0651 -0.4120 -0.1308
    1W        W50286  18.569   6.155   0.511 -0.3092  0.2737 -0.0262
    1W        W50287  23.592   2.296   6.876  0.0788 -0.1006 -0.0994
    1W        W50288  14.936   3.482  10.078 -0.2108 -0.2444 -0.3212
    1W        W50289  15.240   1.849   0.135  0.0345  0.0860  0.0868
    1W        W50290  20.307  26.846   9.030 -0.1695  0.0170  0.1197
    1W        W50291  17.144  23.877   3.252  0.3008 -0.1041  0.1150
    1W        W50292   4.448  22.177   2.866  0.0941 -0.1904  0.0474
    1W        W50293  15.577  21.660   7.352  0.4912 -0.0223 -0.1750
    1W        W50294  24.466   2.132   0.035  0.0474  0.1195 -0.1427
    1W        W50295  27.920  21.799   8.812  0.0114 -0.0287  0.1919
    1W        W50296  14.451  11.430   0.204 -0.0028  0.0025 -0.1214
    1W        W50297  26.898  16.744  10.230  0.1096 -0.2002  0.1028
    1W        W50298  12.517  25.527   2.574 -0.1233  0.1843 -0.0524
    1W        W50299  26.948  23.259   6.545  0.1092  0.1418 -0.1415
    1W        W50300  15.507   7.580   1.061  0.2081  0.2700  0.0906
    1W        W50301   0.934  18.933   8.786  0.2051 -0.0549  0.0917
    1W        W50302  14.677  26.331   2.193 -0.1431 -0.4988  0.3122
    1W        W50303  20.801   3.769   7.958 -0.3238 -0.7039  0.1866
    1W        W50304   3.358  11.932   7.384 -0.0453  0.0330 -0.1989
    1W        W50305  16.555   6.773   9.532 -0.0208  0.0995  0.2688
    1W        W50306   6.926   4.014   7.681  0.0903 -0.2763  0.0509
    1W        W50307  17.063   6.231   8.036 -0.4175 -0.0421  0.0824
    1W        W50308   5.415  21.470   8.014 -0.0893  0.4695  0.0878
    1W        W50309   1.303  17.650   7.764  0.2998 -0.1489  0.1495
    1W        W50310  27.324   4.894   9.086  0.0361  0.0285  0.1563
    1W        W50311  17.240  21.684   7.514  0.0685 -0.0825 -0.0815
    1W        W50312  18.798  20.741   8.425 -0.1669 -0.1195  0.0176
    1W        W50313  27.065   2.867   6.450 -0.2082 -0.2868 -0.4038
    1W        W50314   5.579   4.649   6.733  0.0484  0.0678 -0.2827
    1W        W50315  25.682  21.966   1.857  0.1197 -0.0438 -0.1815
    1W        W50316  23.998  13.631   2.999  0.2368 -0.3149 -0.0707
    1W        W50317  13.454  18.892   3.110  0.3144  0.1704  0.0609
    1W        W50318   2.120  18.027   7.597 -0.1418  0.1235  0.1564
    1W        W50319  12.611   7.472   2.405 -0.1142  0.0142 -0.1906
    1W        W50320   3.672  23.551  10.255 -0.2169  0.1033  0.0702
    1W        W50321   2.155  21.602   7.482 -0.1096  0.0724 -0.0649
    1W        W50322   3.639   9.689   1.935 -0.1842 -0.0207  0.0912
    1W        W50323   0.163  16.017   1.359  0.1321 -0.5508 -0.2193
    1W        W50324   3.913   1.062   9.495 -0.0218  0.0385  0.1723
    1W        W50325   6.530  24.741   7.661  0.3392 -0.0183 -0.0616
    1W        W50326   1.159  14.426   7.822 -0.4141 -0.0337 -0.2623
    1W        W50327  20.641   8.402  10.295 -0.0865 -0.1839  0.0155
    1W        W50328   7.070  27.577   9.573  0.2035 -0.2228 -0.1660
    1W        W50329   5.220   9.484   1.307 -0.1675 -0.0066  0.1160
    1W        W50330   7.304  28.043   3.055 -0.1309 -0.2147  0.1112
    1W        W50331   7.975  13.488   7.070  0.1603  0.0672  0.0231
    1W        W50332  26.813  17.390   9.570  0.2118  0.5037  0.2307
    1W        W50333   3.857  22.813   7.865 -0.2499 -0.0225  0.1252
    1W        W50334  22.318   6.716   1.319 -0.1908  0.2889 -0.4378
    1W        W50335  27.085  26.422   2.486  0.0061 -0.2817  0.0606
    1W        W50336  23.647  22.133   8.149  0.0228 -0.1612  0.0473
    1W        W50337   8.303   9.628  10.333 -0.0739 -0.0625 -0.0932
    1W        W50338   7.664   4.601   9.339 -0.3767  0.0679 -0.2034
    1W        W50339   2.279  20.238   8.535 -0.4094 -0.1647 -0.3571
    1W        W50340  21.495   6.438   9.530  0.0235  0.1721 -0.3323
    1W        W50341   5.432  26.153   0.610 -0.0680 -0.1526  0.2583
    1W        W50342  14.664  21.692   7.702  0.0694  0.1972  0.0124
    1W        W50343  27.261  14.089   8.422  0.2137  0.0769 -0.0324
    1W        W50344  27.518   9.368  10.314 -0.0376  0.1415  0.0457
    1W        W50345   9.465  21.897   1.333 -0.0498  0.1972 -0.0804
    1W        W50346  20.045  27.955   1.443  0.0213  0.4116 -0.3439
    1W        W50347  26.818   9.069   8.668  0.0089 -0.1482 -0.0366
    1W        W50348  20.905  17.007   8.343 -0.1046  0.1223  0.0275
    1W        W50349   1.851   6.957   0.487  0.0401  0.0127  0.1740
    1W        W50350  13.078  27.052   7.496 -0.2751 -0.0322 -0.4015
    1W        W50351  27.120  12.490   9.835  0.3166 -0.0731  0.0946
    1W        W50352  25.670  10.576   0.458  0.0615 -0.1116 -0.4179
    1W        W50353   3.903  12.481   2.260 -0.0480 -0.0690 -0.1812
    1W        W50354   2.290  25.842   7.449  0.1808 -0.0624 -0.1643
    1W        W50355  10.562  20.540   1.107 -0.1166  0.3494 -0.1266
    1W        W50356   3.692  25.195   1.027 -0.1893 -0.0453 -0.0261
    1W        W50357  12.920  26.341   9.060 -0.1004  0.1042 -0.1425
    1W        W50358  13.370  27.230   8.433 -0.0727 -0.0210  0.1172
    1W        W50359   9.699   3.897   2.983  0.3417  0.0529 -0.0665
    1W        W50360  19.359  20.653   0.572  0.2986 -0.0632 -0.0892
    1W        W50361  24.159   7.445   1.268  0.1496 -0.2259  0.2734
    1W        W50362  26.131  23.736   7.895  0.0633 -0.1323 -0.1190
    1W        W50363  14.867   3.555   2.969  0.2887  0.0923 -0.1896
    1W        W50364  10.005  18.030   3.075 -0.2082  0.0668  0.1185
    1W        W50365   8.441   3.578   7.373  0.1743 -0.1195 -0.0224
    1W        W50366   1.487  11.065   1.330 -0.0329 -0.0934 -0.0938
    1W        W50367   2.878  26.173   1.494 -0.0553 -0.0847  0.0280
    1W        W50368   0.206  11.617   1.275  0.3136  0.0995  0.1049
    1W        W50369  10.640  19.995   7.927 -0.0807 -0.0406  0.1437
    1W        W50370  19.009  22.769   3.184  0.0269  0.1247  0.0745
    1W        W50371   9.320   3.856   8.344 -0.1038  0.1721  0.0133
    1W        W50372  15.389  16.013   9.496  0.2479  0.0125 -0.0439
    1W        W50373   2.228  25.116   8.101  0.0172  0.0341  0.1208
    1W        W50374   7.548   5.708   7.037  0.1029 -0.1857 -0.0107
    1W        W50375  22.772   1.631   0.321  0.0441 -0.1031 -0.0477
    1W        W50376  22.347  17.751   1.353 -0.0467  0.2244  0.0077
    1W        W50377  18.442   9.226   2.019 -0.2169 -0.1933 -0.0557
    1W        W50378  15.616  17.327  10.271  0.0210  0.0676 -0.0110
    1W        W50379  19.904  24.131   0.365  0.1029  0.2308 -0.0945
    1W        W50380  14.533  20.834   1.784  0.2852 -0.1906  0.0253
    1W        W50381  10.461  22.593  10.343 -0.2876  0.2252 -0.0027
    1W        W50382  15.543  24.070   2.997  0.0376  0.1148 -0.0885
    1W        W50383  13.144   0.436   9.507  0.0370  0.0290 -0.4842
    1W        W50384  26.268  16.898   1.232 -0.0993  0.0428  0.1325
    1W        W50385  25.387  16.537   1.009 -0.0859 -0.0155  0.3937
    1W        W50386  17.636  12.344  10.078  0.1246  0.1780  0.1691
    1W        W50387  22.649  26.350  10.151  0.0919 -0.0890 -0.1695
    1W        W50388   2.482   2.277   6.568  0.3467 -0.1032  0.0800
    1W        W50389  11.829  18.044   2.456  0.0046  0.1671  0.0544
    1W        W50390  21.691  13.545   7.969  0.1648 -0.2264 -0.0657
    1W        W50391  23.826   0.574   6.919  0.2441 -0.0805  0.2657
    1W        W50392  24.733  17.427   8.236 -0.4205  0.2453 -0.1691
    1W        W50393  12.829  24.607   7.802 -0.1819  0.0364  0.1562
    1W        W50394  16.053  20.601   1.492 -0.0067  0.0041  0.0548
    1W        W50395   8.470   8.988   7.007 -0.0469  0.0611  0.1348
    1W        W50396  14.455   2.093   7.672 -0.2881  0.0676  0.0515
    1W        W50397  26.431  24.814   1.705  0.1768  0.3022 -0.0304
    1W        W50398   6.706  25.436  10.175 -0.0783  0.0159 -0.2039
    1W        W50399  13.113   5.200   0.867  0.2568 -0.0474 -0.0766
    1W        W50400  28.089  26.318   0.946 -0.2391 -0.1246 -0.0654
    1W        W50401   8.072   6.544   2.422  0.0368  0.3082  0.2092
    1W        W50402   0.280  23.321   1.545 -0.2028  0.1389 -0.1266
    1W        W50403  20.228  23.719   1.877  0.0588 -0.0401  0.0196
    1W        W50404   4.991   2.163   7.136 -0.1976  0.1473 -0.2595
    1W        W50405   8.698  16.805   9.148  0.0532  0.1745 -0.2749
    1W        W50406  19.313  27.869   3.026 -0.2746  0.0159 -0.2533
    1W        W50407  27.510  15.432   8.882  0.2031  0.0361  0.0044
    1W        W50408  13.873  24.818   7.905 -0.0764  0.1173 -0.1508
    1W        W50409  23.190   1.117   8.891  0.2519 -0.0632  0.0188
    1W        W50410  19.062  21.215   3.058  0.2223 -0.0184 -0.1402
    1W        W50411  21.930  25.290   8.992  0.0173 -0.1839  0.1901
    1W        W50412  11.773  22.572   2.665  0.4519 -0.0917  0.1744
    1W        W50413  12.038  19.706   1.606 -0.0195 -0.0943 -0.0189
    1W        W50414   3.302   1.292   0.652 -0.0505 -0.0850 -0.0107
    1W        W50415  17.901   6.760   2.891  0.4695  0.0748  0.1624
    1W        W50416  23.399   5.047   0.026  0.1311  0.3059 -0.0747
    1W        W50417  13.677  24.266   6.240  0.1837 -0.3947 -0.2099
    1W        W50418  12.115   0.750   9.601 -0.2307  0.0033 -0.1726
    1W        W50419   6.428   7.793   2.608 -0.0050 -0.1716 -0.0355
    1W        W50420   2.000  26.291   7.730  0.0202 -0.2519  0.2933
    1W        W50421   2.562   0.577   9.894 -0.1535  0.3226 -0.0153
    1W        W50422  18.684   0.727   1.622  0.0815 -0.4361 -0.0071
    1W        W50423   7.369  21.187  10.223 -0.1414 -0.1490  0.2726
    1W        W50424   2.486  11.679   2.208  0.1668  0.1100 -0.0491
    1W        W50425   7.988   3.697   3.303  0.1049  0.0853 -0.2576
    1W        W50426   6.521   4.955   1.905 -0.0584 -0.1118  0.1487
    1W        W50427   9.080  25.979   2.318  0.2094  0.0256 -0.0985
    1W        W50428  18.581  28.065   4.202 -0.1514  0.0195  0.1445
    1W        W50429  26.630   3.136   0.469  0.0570  0.0576  0.0465
    1W        W50430  13.373   3.925   0.126 -0.0826  0.2349 -0.1469
    1W        W50431  27.352  18.932  10.184  0.1821 -0.1387  0.0318
    1W        W50432   4.498   0.932   8.836 -0.2017  0.2742 -0.3395
    1W        W50433  18.848  19.520   3.694 -0.2419  0.3733 -0.1861
    1W        W50434   6.542  10.590   7.607  0.2176 -0.0136 -0.0480
    1W        W50435  13.195  20.128   3.562 -0.0963 -0.0346 -0.1120
    1W        W50436  13.457  15.194   9.883 -0.0234 -0.0022  0.0111
    1W        W50437  25.768  10.852  10.060 -0.1517 -0.1480  0.2097
    1W        W50438  21.669   4.223   8.641 -0.1607 -0.1247 -0.1944
    1W        W50439   2.820  25.642   7.492 -0.0195  0.1705  0.3800
    1W        W50440  24.286   2.018   1.455 -0.4151 -0.1912 -0.0659
    1W        W50441  18.407   6.654   8.709 -0.1970 -0.1214 -0.3219
    1W        W50442   6.654  23.499   1.824 -0.0656 -0.0463 -0.2642
    1W        W50443  22.131  28.042   8.551 -0.0871  0.1282  0.0731
    1W        W50444  20.569   7.219   9.968  0.0534  0.0698  0.0183
    1W        W50445  17.206   3.178   0.213 -0.2490 -0.1510 -0.0299
    1W        W50446   4.252   0.732   7.278  0.1051  0.0421 -0.2526
    1W        W50447  21.758   7.552   1.508  0.3147 -0.2357 -0.0816
    1W        W50448   1.710  10.339   1.717  0.2337  0.0576 -0.0375
    1W        W50449  23.357   7.477   6.437 -0.0631 -0.2077 -0.4113
    1W        W50450   4.410  20.431   0.086 -0.4205 -0.1312 -0.2020
    1W        W50451  13.390  18.356   2.993  0.0541 -0.0245 -0.2200
    1W        W50452  10.048   0.467   8.672 -0.0302 -0.1313  0.0241
    1W        W50453  12.648  20.504   0.753  0.1357 -0.2130  0.1780
    1W        W50454   3.478  18.927   8.277 -0.0771 -0.1031 -0.0329
    1W        W50455   4.695   1.943   9.472 -0.1183 -0.0183  0.0824
    1W        W50456  25.813  19.814   1.931  0.3182  0.1636 -0.2060
    1W        W50457  18.066  11.838   1.566 -0.0010 -0.1441 -0.0771
    1W        W50458   8.920  12.138   1.526  0.0962  0.2064  0.0139
    1W        W50459  14.151  24.627   9.882 -0.0042 -0.0464  0.1707
    1W        W50460  21.724  19.328   0.437 -0.2962 -0.1569  0.1052
    1W        W50461   9.065  25.104   7.894 -0.0155  0.3843 -0.1519
    1W        W50462  11.468  22.906   8.859 -0.3484 -0.3802  0.1114
    1W        W50463   2.901   2.620   8.456  0.1735  0.0317  0.4123
    1W        W50464  23.596   8.803   7.316 -0.0250 -0.0125  0.1835
    1W        W50465   3.053  20.180   0.799 -0.0323 -0.1375  0.0165
    1W        W50466  13.034  10.392   0.909 -0.0130  0.0243  0.1948
    1W        W50467  16.600  12.720   4.247 -0.0539  0.0663 -0.3185
    1W        W50468   9.277  15.372   9.100 -0.0339 -0.1198  0.0033
    1W        W50469  25.956  24.999  10.132 -0.0186  0.0134  0.0418
    1W        W50470  10.233  14.043   3.246  0.4010  0.0284 -0.0189
    1W        W50471  10.118  26.458   0.022 -0.1636  0.0073 -0.1210
    1W        W50472  15.226  27.430   8.309 -0.1048  0.1494  0.0813
    1W        W50473   9.729  10.405  10.048  0.0872  0.0795 -0.0090
    1W        W50474   1.770  11.724   6.422 -0.0321 -0.2625 -0.3613
    1W        W50475   6.598   9.593   8.598  0.0389  0.0197 -0.0653
    1W        W50476  22.571  19.722   2.649 -0.2100  0.0434  0.1768
    1W        W50477  10.499  16.014   2.149  0.0425  0.0900 -0.0923
    1W        W50478  27.798  14.307   3.041 -0.1883  0.0924 -0.1523
    1W        W50479  22.714  21.630   9.109 -0.1177  0.4519  0.0145
    1W        W50480   3.221   6.584   6.551  0.4074 -0.2339 -0.0460
    1W        W50481   4.380   0.268   0.593 -0.3113  0.2731 -0.2120
    1W        W50482  15.212   8.035   1.344  0.4545  0.3344 -0.1176
    1W        W50483  18.168   9.887   1.421 -0.2150 -0.3059 -0.1401
    1W        W50484  26.336  19.753   8.647  0.1611 -0.2486 -0.2822
    1W        W50485   9.172   5.393   1.441  0.4913 -0.4159  0.0648
    1W        W50486  12.507   8.223   9.452  0.0807 -0.1297 -0.0104
    1W        W50487  18.522   5.526   8.875  0.2852  0.1021 -0.0697
    1W        W50488   9.345   4.083   3.651  0.0450  0.0555  0.0183
    1W        W50489   1.808   7.044   1.698  0.3211 -0.5650  0.1308
    1W        W50490  15.340  18.303   8.064  0.0866 -0.3614  0.1476
    1W        W50491  25.666   5.636   8.479 -0.0321 -0.1059  0.2930
    1W        W50492  27.317   3.385   2.180 -0.0141  0.1461 -0.2890
    1W        W50493   0.037   0.809   0.988 -0.2694 -0.3338 -0.1071
    1W        W50494  19.311  16.204   3.279 -0.0383 -0.0199  0.2231
    1W        W50495  27.550  14.005  10.265 -0.2175 -0.0909 -0.0866
    1W        W50496  27.899  18.920   8.226  0.3290 -0.0187 -0.4285
    1W        W50497   5.302  18.465  10.281  0.3426  0.2664  0.0095
    1W        W50498  21.952  24.772   8.336  0.0243 -0.0589 -0.2019
    1W        W50499   2.439  16.424   1.851 -0.0949 -0.0076  0.0111
    1W        W50500  25.050   5.188   9.562 -0.1270  0.2763 -0.0084
    1W        W50501  20.491  21.179   1.234  0.1067  0.1250 -0.0631
    1W        W50502  22.125   4.151   2.005  0.2457  0.2718  0.0017
    1W        W50503  27.071   5.722   0.110 -0.4436 -0.1314 -0.0628
    1W        W50504  11.123   4.849   1.458 -0.0859  0.0697  0.0715
    1W        W50505   1.879   3.779   8.095  0.0693 -0.1980 -0.0157
    1W        W50506   3.363  25.679   7.981 -0.1977  0.1482 -0.0920
    1W        W50507  25.013  26.540   3.099  0.0974 -0.1006  0.0786
    1W        W50508  15.615  28.110   4.366  0.0651 -0.1253  0.1577
    1W        W50509   6.240  22.667   1.746  0.0137  0.1971  0.1386
    1W        W50510  11.994  20.201   2.555  0.0738  0.1122 -0.2586
    1W        W50511  22.970  27.857   9.997 -0.0321 -0.1089  0.0155
    1W        W50512  11.326   2.257   1.911  0.1155  0.1401  0.1214
    1W        W50513  10.443  19.752   0.699 -0.2472 -0.0789  0.0728
    1W        W50514  21.500  19.253   9.828 -0.0518  0.0875 -0.2169
    1W        W50515  21.035  23.246   9.275  0.1296 -0.1412 -0.2817
    1W        W50516   6.547   2.806   9.261  0.1215  0.1542  0.1223
    1W        W50517  26.964  15.350   0.254 -0.1742  0.2454 -0.2225
    1W        W50518   7.389  14.536   1.803  0.2426  0.1542 -0.1493
    1W        W50519   6.189   2.653  10.108  0.0048 -0.1780  0.2492
    1W        W50520  15.874  22.408   2.595 -0.1830  0.1286  0.2386
    1W        W50521  20.122   1.017   7.665 -0.0598 -0.0811 -0.1372
    1W        W50522  13.148   1.661   9.467 -0.0830  0.1023  0.0802
    1W        W50523  13.018   6.313   9.661  0.0025  0.0089 -0.2468
    1W        W50524   5.531   1.163   9.451 -0.0381  0.2516 -0.1890
    1W        W50525  13.148  24.515   6.388  0.0195 -0.0877 -0.0785
    1W        W50526  10.624  15.995   1.571  0.0816 -0.0246  0.2469
    1W        W50527  20.895  23.227   0.557 -0.4267 -0.1860 -0.2605
    1W        W50528  25.207   0.172   9.632 -0.0396  0.0813 -0.0198
    1W        W50529   7.897   7.919   1.759  0.1227  0.2735 -0.0352
    1W        W50530  21.659  19.964   1.140  0.1820 -0.0264 -0.0001
    1W        W50531   2.390  13.536   0.994  0.1296 -0.3566  0.2480
    1W        W50532  25.423  14.753   0.042  0.1615  0.0887  0.2290
    1W        W50533  15.742  15.368   8.184 -0.0889  0.1485 -0.0015
    1W        W50534  17.671  21.642  10.176 -0.0284 -0.1794  0.3104
    1W        W50535   1.075  26.517   1.789 -0.1823  0.2135 -0.1107
    1W        W50536  22.044  17.954   1.714 -0.0269 -0.2446 -0.0593
    1W        W50537  23.887   1.455   2.549  0.1383 -0.0162  0.1100
    1W        W50538   2.388  14.498   8.659  0.2145  0.0277 -0.1517
    1W        W50539   9.750  24.117   7.460  0.0351 -0.1994 -0.1576
    1W        W50540  11.885  28.060   6.974  0.1503  0.2254 -0.1092
    1W        W50541  20.789   4.133   2.536  0.0613 -0.2697 -0.2039
    1W        W50542  20.719   9.044   3.522  0.1126  0.1487 -0.0201
    1W        W50543  15.818   4.469   0.386  0.0113  0.2530 -0.2091
    1W        W50544  12.298  19.457   0.332  0.0070  0.0308  0.1338
    1W        W50545  21.414  27.353   1.510  0.0784  0.0069 -0.0331
    1W        W50546   9.282   7.318   1.486  0.3320  0.3338  0.2234
    1W        W50547   2.458  10.432   2.313  0.2257  0.0188 -0.0984
    1W        W50548   6.098  11.990   0.954 -0.1982  0.2028 -0.1629
    1W        W50549  19.069  10.689   9.438  0.0552  0.1315  0.0559
    1W        W50550  10.322  12.570  10.132 -0.1280  0.1076 -0.1581
    1W        W50551   9.108   0.447   0.489  0.2176  0.0642  0.4721
    1W        W50552   9.003  22.362   8.682  0.0577 -0.1750  0.4364
    1W        W50553  20.748  13.978   2.370  0.0623 -0.0537 -0.1535
    1W        W50554  10.328  26.646   2.375 -0.1716 -0.2092  0.4757
    1W        W50555   2.228  13.737   9.830  0.0084 -0.1781  0.2336
    1W        W50556   7.601  19.811   9.916  0.0845 -0.1987  0.3058
    1W        W50557  26.649  19.315   8.488 -0.0350 -0.0229  0.1485
    1W        W50558   5.539   9.914   2.496  0.0570  0.0183 -0.3399
    1W        W50559  25.544   5.437   9.373 -0.0389 -0.1957 -0.1554
    1W        W50560  17.261  26.711   0.668  0.3860  0.1108  0.0284
    1W        W50561  27.493   3.033   0.107 -0.0041  0.2023 -0.0415
    1W        W50562   6.304  23.460   8.865 -0.2775 -0.0238  0.1254
    1W        W50563  17.395  18.211   0.298 -0.1877  0.0626  0.1603
    1W        W50564  17.551   5.338   2.167 -0.0672  0.1797 -0.2679
    1W        W50565   9.167  17.587   0.008 -0.1513 -0.0210 -0.0699
    1W        W50566  18.645  15.351   3.119 -0.0178  0.1643 -0.2785
    1W        W50567  11.616   0.288   1.317  0.1586 -0.0112  0.2167
    1W        W50568   7.659   2.265   3.099  0.3576  0.1019 -0.0232
    1W        W50569  14.828  23.868   8.246 -0.2170  0.5214  0.2668
    1W        W50570  10.935  20.958   0.330 -0.4710  0.2877 -0.1186
    1W        W50571  25.914  17.243   0.511  0.2001  0.0899  0.0006
    1W        W50572  18.251  13.609   1.497  0.0154 -0.2722  0.2841
    1W        W50573   4.832  21.074   9.745 -0.0576  0.3407 -0.3125
    1W        W50574  22.608   5.128   7.656 -0.2029 -0.1012 -0.0011
    1W        W50575  14.462  20.069   2.951  0.0145  0.0860 -0.0068
    1W        W50576  15.762   0.452   0.644  0.1585  0.2493  0.0842
    1W        W50577  25.832  24.637   2.402 -0.1434  0.2226 -0.3036
    1W        W50578   6.159  14.529   7.775  0.1452 -0.3107  0.1128
    1W        W50579  21.364  12.582   0.670  0.2108  0.1305  0.0264
    1W        W50580  11.451   2.930   1.277 -0.0341 -0.2624 -0.2457
    1W        W50581   9.236  14.501  10.007 -0.0579 -0.2024 -0.0284
    1W        W50582   6.135   0.482  10.362 -0.0006  0.0337 -0.0417
    1W        W50583  27.746  24.465   8.907 -0.2293 -0.1158 -0.0176
    1W        W50584  17.998  24.242   8.396  0.4105 -0.0869 -0.0520
    1W        W50585  11.245  23.974   0.806 -0.2544 -0.0029  0.1087
    1W        W50586   2.928   5.399   0.793  0.0564 -0.3195  0.2857
    1W        W50587  22.578  26.416   3.576  0.0036  0.2213  0.1309
    1W        W50588  18.411   9.352   3.320  0.0333  0.3887 -0.3633
    1W        W50589  20.793   3.618   2.466 -0.2330  0.0156  0.2684
    1W        W50590  11.991   7.507   1.940  0.1449 -0.1632  0.3133
    1W        W50591  21.057  13.402   9.705  0.1312  0.2638  0.0820
    1W        W50592  24.636  14.863   6.255  0.0987 -0.0564  0.2233
    1W        W50593  19.037  10.792   7.413 -0.0611  0.2473  0.3774
    1W        W50594  24.958   1.715   9.011  0.1944  0.2213 -0.3223
    1W        W50595  14.852   1.378   1.296 -0.3515  0.1946  0.0365
    1W        W50596   4.098  11.657   2.341  0.2557  0.0924  0.0512
    1W        W50597  12.598  17.407   3.036  0.1932  0.0819 -0.1298
    1W        W50598   1.422  27.357   7.191  0.0604 -0.4236  0.2165
    1W        W50599  22.483   8.919   7.787 -0.3847 -0.1749 -0.1931
    1W        W50600   1.463  24.343   8.584  0.0401  0.0195  0.0861
    1W        W50601  18.195  22.451   9.725  0.2568 -0.2628 -0.4099
    1W        W50602   3.619  19.977   1.698 -0.0923  0.2074 -0.0763
    1W        W50603  19.943   6.842   7.861 -0.0181 -0.0368  0.0031
    1W        W50604  23.781  21.833   9.501 -0.3045 -0.0794  0.2411
    1W        W50605  23.226   2.860   7.486  0.0746 -0.0956 -0.2611
    1W        W50606   0.082  26.635   9.924 -0.3285  0.0251  0.0792
    1W        W50607   8.459  15.700   3.417  0.0105  0.4026 -0.0677
    1W        W50608   1.120  23.018   0.687  0.0375  0.1936  0.1362
    1W        W50609   2.425  19.217   0.213  0.2579 -0.1451 -0.0492
    1W        W50610   3.914  14.375   8.963 -0.0027 -0.2332  0.0950
    1W        W50611  19.015   1.742   7.551  0.1384 -0.1054 -0.0509
    1W        W50612   3.203  13.996   2.473 -0.1704  0.2153 -0.2802
    1W        W50613  13.817   3.539   0.832 -0.0721 -0.2228  0.0164
    1W        W50614  20.284   6.475   8.657 -0.1074  0.1284 -0.3310
    1W        W50615  16.250  25.697   9.184 -0.0221 -0.0663 -0.0813
    1W        W50616   1.192   0.305   7.995  0.3994  0.3013  0.2572
    1W        W50617  21.638  25.734   2.139 -0.0396 -0.4778 -0.0981
    1W        W50618  24.400   4.727   9.537 -0.2395 -0.0677  0.1126
    1W        W50619  16.277  26.567   8.632 -0.1805 -0.1036 -0.1055
    1W        W50620   9.749  20.290   2.138  0.2952 -0.0611  0.1057
    1W        W50621   0.551   3.502   7.829  0.2676  0.0201 -0.3705
    1W        W50622  25.711  22.007   0.791  0.1283 -0.0422  0.1356
    1W        W50623  23.903  26.586   8.242 -0.2677 -0.2555  0.0582
    1W        W50624  22.919  24.993   1.953 -0.1927 -0.0078 -0.1655
    1W        W50625   3.821   0.955   2.728 -0.1690  0.3204 -0.1336
    1W        W50626  10.929   2.115   9.976  0.1861  0.0817  0.0191
    1W        W50627  10.189  21.859   7.198 -0.0578 -0.0140  0.1258
    1W        W50628  20.076  14.774   2.626 -0.0587 -0.0377 -0.3469
    1W        W50629  16.242  14.405   0.853  0.2967  0.1125  0.0641
    1W        W50630  27.369  18.831   7.101 -0.0105  0.2884 -0.0805
    1W        W50631  16.085  17.322   3.679 -0.0460  0.0730  0.0151
    1W        W50632   9.887  25.464   1.269  0.1543  0.0181 -0.1988
    1W        W50633   0.760   7.518   1.738 -0.2371  0.3001  0.0740
    1W        W50634  26.116   3.086   0.617  0.0595  0.4340 -0.0808
    1W        W50635  21.423  15.153   2.278 -0.0281  0.4151 -0.2530
    1W        W50636  13.606  11.095   0.820  0.1145 -0.1373  0.1757
    1W        W50637   1.730  27.764   7.299  0.1093 -0.2191  0.0236
    1W        W50638  17.879  22.276   0.907  0.0862  0.0837 -0.0004
    1W        W50639   0.145  26.815   0.024 -0.2510 -0.0305  0.0443
    1W        W50640  21.068  20.832   2.960  0.1536 -0.0699  0.0983
    1W        W50641   3.143  22.342   2.404 -0.0844  0.0538 -0.0197
    1W        W50642   3.620  17.919   8.142  0.1284 -0.2531  0.0157
    1W        W50643  20.998  15.005   1.443  0.1305 -0.0596 -0.0156
    1W        W50644  21.972   0.976   1.386  0.1883 -0.2461 -0.0455
    1W        W50645   1.427   1.197   2.175  0.2261  0.2231  0.0460
    1W        W50646   4.087   6.948   2.659  0.1946 -0.1927 -0.1761
    1W        W50647  10.732  24.807   8.778 -0.1221  0.2511  0.1022
    1W        W50648  14.585  13.439   3.879 -0.2169 -0.2263 -0.0843
    1W        W50649   3.994  12.687   7.057  0.1606  0.2108  0.0129
    1W        W50650  25.710  16.898   0.951  0.1482  0.2125  0.3500
    1W        W50651  13.813  12.553   1.486  0.0509 -0.2835 -0.2130
    1W        W50652  18.212  23.363   7.615 -0.2305 -0.0832 -0.1029
    1W        W50653   6.402   5.894   0.099 -0.1601  0.0034  0.0861
    1W        W50654  19.106   4.407   6.928 -0.0990  0.1327  0.2832
    1W        W50655   1.436  14.092   9.443 -0.2622  0.3772 -0.0328
    1W        W50656  24.712   6.927   7.436  0.0914  0.0690  0.4431
    1W        W50657  23.858  23.566   0.127  0.0856 -0.0595 -0.0979
    1W        W50658  26.881  12.344   8.179 -0.1198 -0.1258  0.0182
    1W        W50659  25.863   5.910   1.014 -0.1687 -0.0917  0.1808
    1W        W50660  15.753  15.525   1.534 -0.3707 -0.1025 -0.1029
    1W        W50661  13.852   9.606   3.385  0.2909  0.1149 -0.1153
    1W        W50662  24.885   3.138   1.524  0.1189  0.0599 -0.0437
    1W        W50663   1.296   3.663   6.754  0.0396  0.1970 -0.0835
    1W        W50664   5.810  20.768   9.099  0.0617 -0.1586 -0.0876
    1W        W50665  22.338  13.645   8.313 -0.3513  0.0426 -0.1883
    1W        W50666  20.839  17.089   3.304  0.0619 -0.2567 -0.3196
    1W        W50667  16.966   7.855   6.933  0.0793  0.0440 -0.1336
    1W        W50668  11.235   4.267   0.384  0.0554 -0.2308 -0.0967
    1W        W50669   3.803  20.170   9.996 -0.1358  0.0574 -0.1502
    1W        W50670  15.720   9.969   7.405  0.1296 -0.1563 -0.1175
    1W        W50671  12.406  10.067   2.449 -0.2515  0.4012  0.1141
    1W        W50672  23.461   8.721   9.467  0.0089 -0.1806  0.1504
    1W        W50673  26.546  17.547   1.060  0.1505 -0.0609  0.2873
    1W        W50674  20.301   2.999   7.160  0.1604 -0.0587  0.1440
    1W        W50675  23.732  27.006   1.369 -0.0695 -0.1081 -0.0858
    1W        W50676  24.389   5.402   1.400  0.0687 -0.0393 -0.3219
    1W        W50677  17.194  20.246   7.421 -0.1192  0.0664  0.1771
    1W        W50678   5.150  25.245   1.029  0.0023 -0.0406 -0.2158
    1W        W50679  27.293  12.898   1.951  0.1907  0.2050 -0.1646
    1W        W50680   6.720  23.000   7.306 -0.1097 -0.2067 -0.2590
    1W        W50681  14.668   6.377   0.892 -0.1489 -0.1862  0.4187
    1W        W50682  27.136  19.636   9.364 -0.2648  0.0494  0.0319
    1W        W50683  19.013   2.388   9.801 -0.0108  0.0311 -0.2669
    1W        W50684  11.405  15.764   1.087 -0.1648  0.2205 -0.1871
    1W        W50685  14.746  10.514   2.340  0.3398  0.3681 -0.0047
    1W        W50686  21.072  23.405   1.592  0.0907 -0.0683  0.0661
    1W        W50687  20.227  18.963   7.805  0.0211  0.0393 -0.0025
    1W        W50688   6.826  12.582   8.153 -0.0131 -0.3299 -0.2813
    1W        W50689  21.738  13.067   8.288  0.1700  0.0554 -0.0038
    1W        W50690  27.337  12.077   1.014 -0.1023 -0.0499  0.1938
    1W        W50691  12.733  14.898   0.042 -0.1187  0.1297 -0.0378
    1W        W50692   5.681  14.923   8.409  0.2945 -0.1017  0.1649
    1W        W50693  13.922   7.146  10.239  0.0161 -0.1213 -0.3058
    1W        W50694   0.755   0.042   8.656 -0.1329  0.1116 -0.1994
    1W        W50695  13.904  21.502   7.883  0.0304  0.0257 -0.0698
    1W        W50696   6.363  19.787  10.321  0.1311  0.2664  0.1419
    1W        W50697  12.838  10.630   0.327  0.2909  0.2589 -0.1006
    1W        W50698   5.365  14.720   7.543 -0.0819  0.3663 -0.3764
    1W        W50699  22.931  24.802   0.445 -0.1255  0.5025 -0.0048
    1W        W50700   2.584  20.012   8.973 -0.0535  0.1136 -0.0700
    1W        W50701   5.490  24.638   9.802 -0.0521 -0.0256  0.2725
    1W        W50702  15.695  25.857   0.511 -0.1244 -0.1456 -0.3124
    1W        W50703  15.576  18.935   6.871  0.3079 -0.0361  0.0961
    1W        W50704   6.995   2.574   9.216 -0.0936  0.2632  0.4739
    1W        W50705   0.185   9.991   2.255  0.0634  0.0543  0.0048
    1W        W50706  13.457  27.595   0.472  0.1161 -0.1615 -0.1033
    1W        W50707  17.549  13.437   7.884  0.2042 -0.0427  0.0657
    1W        W50708  11.518   4.686   9.337 -0.0180 -0.2104 -0.2078
    1W        W50709  13.790  16.581   7.930  0.1002  0.0093  0.1736
    1W        W50710   7.717   8.807   0.864  0.1096  0.0945  0.0287
    1W        W50711   1.261   9.322   8.968 -0.1302 -0.1465 -0.0364
    1W        W50712  23.646  13.947   2.219  0.0192 -0.0265 -0.0557
    1W        W50713   3.438   3.075   7.059 -0.0445  0.2110 -0.0432
    1W        W50714   3.711   9.778   6.440  0.1942 -0.2065  0.2348
    1W        W50715   0.096  17.132   9.985  0.0022 -0.1283 -0.0852
    1W        W50716  13.719  23.625   9.100 -0.1957 -0.0881 -0.1471
    1W        W50717  21.209   3.467   9.064  0.2747 -0.0879  0.1305
    1W        W50718  27.139   7.439   6.952 -0.0473 -0.0922 -0.0461
    1W        W50719  24.742   6.581   1.846 -0.0915 -0.0939  0.2975
    1W        W50720   3.847  12.753   0.198 -0.0622 -0.0291 -0.0672
    1W        W50721  21.168   6.255  10.336  0.3149  0.2423 -0.1495
    1W        W50722   8.966  26.607   7.516 -0.3290  0.0774 -0.1582
    1W        W50723   2.282   1.500   7.678 -0.2171  0.0943 -0.1361
    1W        W50724  27.824  19.073  10.067  0.2665 -0.0954  0.2427
    1W        W50725  13.917  14.592   8.551 -0.1921  0.1772  0.1104
    1W        W50726  25.698   2.720   7.439  0.1874  0.1491  0.3615
    1W        W50727   9.726  11.428   0.953 -0.1998 -0.1526 -0.0645
    1W        W50728   0.407   8.350   8.540  0.1960  0.0149 -0.0403
    1W        W50729   3.498   3.646   6.776 -0.0443 -0.0043 -0.0628
    1W        W50730  13.383  27.937   8.812 -0.1415  0.3511  0.1407
    1W        W50731  22.650  26.737   1.179 -0.0999 -0.1924 -0.1064
    1W        W50732  11.185  23.849   2.875  0.3168 -0.4777 -0.2188
    1W        W50733  21.761   1.091   6.932 -0.1246 -0.0939 -0.3333
    1W        W50734   0.316   6.779   0.562  0.2931  0.0207  0.0712
    1W        W50735  19.570   5.328   8.802  0.0390 -0.3607  0.1402
    1W        W50736   4.122  15.041   2.465 -0.0798 -0.2256 -0.0831
    1W        W50737  12.610   0.285   2.269  0.0473 -0.2320  0.0785
    1W        W50738  17.968  20.487   6.788 -0.1546  0.1046 -0.1085
    1W        W50739   1.286   0.438   9.215  0.0619  0.4152 -0.3456
    1W        W50740   2.041   9.161   7.062  0.0068  0.2138  0.0149
    1W        W50741  27.586  25.220   8.921 -0.1283 -0.2059 -0.1009
    1W        W50742   9.833  13.630   1.475 -0.0710  0.0561 -0.0437
    1W        W50743  26.696  13.847   9.687  0.4680 -0.3071 -0.0624
    1W        W50744   0.234  14.501   0.134 -0.2143  0.2814 -0.1300
    1W        W50745  12.069  23.133  10.011 -0.2185 -0.1477  0.0152
    1W        W50746  12.123  11.306   7.295 -0.2447 -0.0238  0.0491
    1W        W50747  21.217  26.339   2.696  0.1303  0.0953  0.0244
    1W        W50748  13.550  14.151   1.360  0.0374 -0.1167  0.0481
    1W        W50749  10.150  14.420   2.914  0.3241 -0.0159  0.2663
    1W        W50750   9.506   2.375   2.381 -0.1242  0.0408 -0.0426
    1W        W50751   4.307   3.972   0.734  0.3666 -0.0671  0.0765
    1W        W50752   2.405  22.891   8.308 -0.2932  0.0067 -0.1219
    1W        W50753   4.634  27.032   2.070  0.0451  0.3017 -0.1161
    1W        W50754  25.540   2.441  10.099 -0.1273 -0.3755 -0.1587
    1W        W50755  15.963  17.605   9.657 -0.0755 -0.0416  0.1287
    1W        W50756  23.352  23.694   1.207 -0.1814  0.0632  0.1867
    1W        W50757   3.875   2.872   7.259 -0.1670 -0.1025  0.1703
    1W        W50758  21.424  23.240   0.427  0.0102 -0.1791 -0.0365
    1W        W50759  23.300  22.890   7.087  0.0325  0.1234 -0.3169
    1W        W50760  17.607  12.098   3.584 -0.3733  0.1573  0.1440
    1W        W50761  24.605   4.948   9.929  0.0597  0.3736  0.0969
    1W        W50762   0.370  10.010   0.361 -0.0975 -0.2758 -0.0055
    1W        W50763  15.637  26.842   0.293  0.2106 -0.1852  0.1096
    1W        W50764   7.648  19.941   0.705  0.0158  0.1069 -0.0112
    1W        W50765  25.450   4.120   3.180  0.0474  0.1986  0.1990
    1W        W50766  18.836   5.184   8.366 -0.2581 -0.2275  0.0458
    1W        W50767  11.757  16.489   2.650  0.0507  0.0260 -0.0691
    1W        W50768   2.828  19.218   0.448 -0.0406  0.4484  0.1154
    1W        W50769   1.402   1.067   0.027  0.2683  0.0845  0.0158
    1W        W50770  24.317   9.039   1.994  0.0424  0.0286 -0.1958
    1W        W50771  10.623  18.702   9.246  0.5245 -0.1336 -0.0067
    1W        W50772   4.496   1.629   0.992 -0.2312 -0.3307 -0.0036
    1W        W50773  24.885  20.367   1.826 -0.1150 -0.1196  0.1182
    1W        W50774  12.893  17.168   0.166  0.5645 -0.0592  0.1583
    1W        W50775  14.568   7.693   0.220 -0.2201  0.0642 -0.2627
    1W        W50776  21.955   4.628   2.148  0.0587 -0.0674  0.0993
    1W        W50777  23.944   6.495   7.608  0.0685  0.0719 -0.0871
    1W        W50778  21.037   6.222   6.486  0.1338  0.2278 -0.1682
    1W        W50779  21.944  14.626   0.471 -0.1375  0.4335 -0.4999
    1W        W50780  15.835   8.255   3.194 -0.0839 -0.1369  0.4820
    1W        W50781   5.024   8.769   8.188  0.0029 -0.0175  0.0136
    1W        W50782  26.731  12.623   2.259  0.1697  0.0967  0.1968
    1W        W50783   3.308  17.078   1.200 -0.1866  0.2520  0.2180
    1W        W50784  18.919   9.546   0.789  0.2217 -0.0609 -0.0343
    1W        W50785   8.097   3.081   2.624  0.2084 -0.1443 -0.3271
    1W        W50786   5.162  12.677   0.614  0.1766 -0.0997 -0.0788
    1W        W50787  20.855  21.647   2.669  0.0021 -0.1830 -0.3311
    1W        W50788  16.333   9.444  10.281 -0.0489 -0.2179 -0.0408
    1W        W50789  11.524   4.127   8.615  0.1312 -0.0442 -0.1149
    1W        W50790  27.603  26.090   9.214 -0.1811  0.1160 -0.1458
    1W        W50791  28.095  25.923   9.242 -0.1889  0.2289 -0.1007
    1W        W50792   4.653   1.440   2.904 -0.1277  0.1859  0.0913
    1W        W50793  19.701  21.058  10.158  0.0413  0.0669 -0.1291
    1W        W50794   2.484  27.178   1.312 -0.2476  0.2005 -0.0843
    1W        W50795  12.310  14.594   1.879 -0.1035  0.0730  0.4291
    1W        W50796  27.084  28.002   2.210  0.2363  0.1655  0.3060
    1W        W50797   6.331   3.280  10.192  0.1473 -0.0416 -0.1982
    1W        W50798  10.833  18.186   2.822 -0.0111  0.3601 -0.0759
    1W        W50799   0.539  10.898   2.128 -0.2096 -0.1642  0.0511
    1W        W50800  23.256  18.812   2.531 -0.1561  0.1449 -0.0623
    1W        W50801  17.348   8.969   8.552  0.1227  0.2114 -0.2830
    1W        W50802   0.481   7.242   0.212 -0.1034  0.0447 -0.0298
    1W        W50803  23.537  11.941   7.643  0.0205  0.2103  0.1416
    1W        W50804  20.265  18.703   9.538  0.0913 -0.3142 -0.5865
    1W        W50805   4.721  21.640   9.867 -0.0002  0.0133 -0.0416
    1W        W50806   7.289  20.401   0.940  0.0743 -0.2649  0.0001
    1W        W50807  24.952  24.055   0.925 -0.1050  0.0028  0.0078
    1W        W50808  17.073   5.319   9.980  0.1099 -0.1838 -0.1774
    1W        W50809   3.549  22.895   7.116 -0.1289  0.0755 -0.0150
    1W        W50810  24.821  18.707   9.318 -0.2163 -0.0378  0.3458
    1W        W50811  10.755  16.064   3.009 -0.1953  0.2052 -0.0505
    1W        W50812  10.534  11.465   9.965 -0.0360 -0.1163  0.2420
    1W        W50813  11.484   3.501   1.309 -0.3176 -0.1279 -0.0585
    1W        W50814   5.231   1.442   1.487  0.0553 -0.1494  0.3731
    1W        W50815   2.960  13.464   7.645  0.0739  0.0548 -0.1634
    1W        W50816  22.386   7.572   0.124  0.0056 -0.3320 -0.3846
    1W        W50817   7.135  18.878   2.185 -0.1301  0.2562 -0.1954
    1W        W50818   7.281  23.385  10.117  0.3646 -0.3667 -0.0313
    1W        W50819  20.520   9.775   9.021 -0.0169 -0.0175  0.1073
    1W        W50820  12.496  22.536   2.059  0.2688 -0.2064 -0.3809
    1W        W50821   4.319  25.637   8.377  0.1084  0.0387  0.2121
    1W        W50822  13.548   6.505   3.073  0.0568  0.1951  0.1303
    1W        W50823  18.893   3.739   2.567 -0.0666 -0.0697  0.1437
    1W        W50824  10.718  24.259   0.879 -0.1464 -0.1111 -0.1990
    1W        W50825   3.438  10.332  10.173 -0.1396  0.0261  0.0380
    1W        W50826   5.166   2.605   0.756  0.0382  0.2700 -0.0972
    1W        W50827  16.574  24.691   2.065 -0.0545 -0.0492  0.1447
    1W        W50828   2.156  15.522   8.494  0.0341  0.1865 -0.0838
    1W        W50829   5.590  15.480   9.155 -0.2072 -0.1621  0.2415
    1W        W50830  22.768  21.124   7.710 -0.0989  0.1550 -0.1958
    1W        W50831  16.639  12.678   9.017  0.0820 -0.0688  0.3057
    1W        W50832   8.423  13.478   8.972  0.1581  0.1398 -0.0704
    1W        W50833  14.168  22.653   7.225  0.2472 -0.1393  0.0529
    1W        W50834  17.832  19.460   0.665 -0.0303 -0.2555  0.1501
    1W        W50835   3.688  21.419   7.899 -0.0442  0.2646 -0.0912
    1W        W50836  18.658  28.077   8.946  0.1349 -0.0894 -0.3313
    1W        W50837  27.892   3.618   1.504  0.2461 -0.0784 -0.0776
    1W        W50838  18.103  18.184   2.560  0.0488 -0.0377 -0.2323
    1W        W50839  21.967  18.962   9.240 -0.2629  0.3033  0.0974
    1W        W50840  22.923   4.591   9.587 -0.4340  0.0968 -0.1884
    1W        W50841  15.087  14.254   3.328 -0.2957  0.1019 -0.0393
    1W        W50842  14.353   5.410   7.388 -0.1628  0.0457 -0.2549
    1W        W50843  11.433   8.463   0.415  0.1253  0.0263 -0.1405
    1W        W50844  25.573  12.637   2.401 -0.2980  0.3083  0.0854
    1W        W50845   3.602  25.710   2.635 -0.0601 -0.0556  0.0704
    1W        W50846  13.036   1.656  10.173  0.0254 -0.0549  0.0444
    1W        W50847   6.019   5.473   6.994  0.0049  0.1266  0.2713
    1W        W50848  23.423   9.162   2.518  0.1278 -0.0269 -0.1338
    1W        W50849  25.761  19.270   1.143 -0.0705 -0.1065  0.0486
    1W        W50850   5.046  17.740   8.850  0.2420 -0.5354  0.2132
    1W        W50851   9.368  26.710   0.623  0.0199  0.1413  0.1937
    1W        W50852  13.312   1.990   9.898  0.3310 -0.0420 -0.1273
    1W        W50853  12.574  23.608   8.225  0.0997  0.0092 -0.3813
    1W        W50854   9.499  17.356   9.960 -0.0133 -0.2669 -0.0747
    1W        W50855  15.036  25.655   8.363  0.3499  0.1265  0.0107
    1W        W50856   0.565   0.796   2.298 -0.1972 -0.1025 -0.0175
    1W        W50857  16.592   8.847   1.735 -0.0593  0.0363  0.2960
    1W        W50858  27.140  10.892   7.716  0.1876 -0.0672  0.1016
    1W        W50859  18.578  23.635   8.490 -0.0859  0.2000  0.1702
    1W        W50860   5.744   6.747   9.856  0.0294  0.2209  0.1341
    1W        W50861  10.351  17.046   8.250 -0.4114 -0.1085  0.1120
    1W        W50862  17.496  12.988   2.634 -0.1187  0.0324 -0.1004
    1W        W50863  22.080  21.542   8.125  0.0450  0.2881 -0.1872
    1W        W50864  16.093  11.138   9.746  0.0351 -0.0213 -0.2453
    1W        W50865  10.453  19.090   1.275  0.1193  0.1449  0.0328
    1W        W50866  25.707   8.517   1.266 -0.0775  0.0298  0.2215
    1W        W50867   0.835  19.300   0.128 -0.0706  0.0200  0.0628
    1W        W50868  10.782  12.720   8.807 -0.0599 -0.0902  0.0179
    1W        W50869  23.211  17.032   3.205 -0.1498  0.1104 -0.3420
    1W        W50870   9.279  11.275   7.800  0.0004 -0.1701 -0.3193
    1W        W50871  20.531  18.429   3.454 -0.0369 -0.1563 -0.1464
    1W        W50872   1.619  26.366   1.703  0.3644 -0.2394  0.0950
    1W        W50873  24.472  12.026   7.301 -0.0066  0.0356  0.1238
    1W        W50874  15.093   9.560   3.267  0.1497 -0.0109  0.0858
    1W        W50875   7.710  20.272   1.094  0.0399 -0.0229  0.1957
    1W        W50876   8.605   7.458   2.599  0.2663 -0.1320 -0.1229
    1W        W50877  15.155  17.402   3.573 -0.0635  0.2785 -0.5570
    1W        W50878  26.124  27.744   0.792 -0.0543  0.0153 -0.1082
    1W        W50879  14.230  16.338   0.361 -0.2136  0.1762 -0.0603
    1W        W50880  13.993  12.211   0.528 -0.0963  0.0932  0.1018
    1W        W50881   5.645  19.539   3.709  0.3522 -0.1821  0.2834
    1W        W50882  22.653  22.411   8.100 -0.0108 -0.4979 -0.0870
    1W        W50883  20.234   5.740   2.034 -0.2774  0.1000  0.0646
    1W        W50884   8.477   5.902   8.815  0.2441 -0.0193 -0.0871
    1W        W50885  23.588   5.316   9.235  0.1490 -0.0918 -0.2830
    1W        W50886   0.681  17.064   8.152  0.2068 -0.1250 -0.2583
    1W        W50887  17.346  11.574   1.922 -0.2295  0.1406  0.0210
    1W        W50888   6.653  14.494   7.857  0.2379 -0.1114  0.0198
    1W        W50889  10.633  15.526   2.353  0.1777  0.4156  0.2330
    1W        W50890   9.192  20.196   0.577  0.0870 -0.1659 -0.3715
    1W        W50891  14.768  16.383   2.884 -0.0754  0.1984 -0.0601
    1W        W50892   0.523  25.408   1.299 -0.3007 -0.0886  0.2018
    1W        W50893  10.117  12.362   7.643  0.1092 -0.1826 -0.4879
    1W        W50894   4.023  21.907   6.673 -0.2962 -0.1809  0.0848
    1W        W50895   7.789   3.764   9.998 -0.2057 -0.0162 -0.0126
    1W        W50896  13.974  24.194   3.492 -0.3529  0.0361 -0.0361
    1W        W50897  18.251  23.834   9.774  0.4859  0.0367  0.0130
    1W        W50898  17.214   1.787   7.948  0.1771  0.0383  0.0814
    1W        W50899   3.903   5.142   9.747 -0.1992 -0.1391  0.2135
    1W        W50900  22.937  20.867   9.662  0.2823 -0.0207 -0.1516
    1W        W50901   3.927  26.528   7.973 -0.0428 -0.1135 -0.1545
    1W        W50902  23.553  26.620   0.723 -0.1094  0.1123 -0.1482
    1W        W50903  27.727   6.369   7.212  0.2129 -0.0650 -0.0530
    1W        W50904   8.554  24.937   2.182 -0.2298 -0.2891  0.0212
    1W        W50905   4.080  12.670   9.958  0.1728  0.1143  0.0976
    1W        W50906  26.618  17.547   9.976 -0.1882 -0.1768  0.1126
    1W        W50907  10.157   1.191   0.453  0.1495  0.2165  0.3425
    1W        W50908   3.740   9.440   2.337 -0.0481  0.1235 -0.1178
    1W        W50909   7.404  28.062   7.165 -0.1482  0.3667 -0.3110
    1W        W50910   2.952  19.067   3.021 -0.3319 -0.1270  0.1496
    1W        W50911  15.706   9.609   9.049  0.1503  0.1239 -0.0304
    1W        W50912  15.753   5.914   3.098 -0.0275  0.3182  0.2849
    1W        W50913  15.146  24.402   8.856 -0.1148  0.0112 -0.1626
    1W        W50914  22.738  13.133   7.786 -0.0108  0.0987  0.2057
    1W        W50915  21.838  23.024   1.173  0.2142  0.0740  0.0679
    1W        W50916   5.789  17.342   8.781  0.0695 -0.0443 -0.2763
    1W        W50917  22.398  23.958   3.529 -0.1104 -0.0009  0.0051
    1W        W50918   3.928  27.725   6.313 -0.0877  0.0771  0.2163
    1W        W50919  10.774   4.509   7.478 -0.1634 -0.0446  0.0133
    1W        W50920  15.600  17.242   7.649  0.0066 -0.0127 -0.3043
    1W        W50921  22.141  11.406   0.367  0.1522 -0.2349  0.1887
    1W        W50922  11.196  10.692   2.798 -0.4132  0.0965  0.0547
    1W        W50923   2.629  12.154   0.900 -0.0764  0.1643 -0.1153
    1W        W50924  24.341  27.026   3.607  0.1825 -0.0547  0.1621
    1W        W50925  23.799  22.018   8.600  0.0927 -0.0153 -0.1104
    1W        W50926  26.535  14.111   0.294 -0.1043  0.3135 -0.1009
    1W        W50927   8.072   6.910   1.979  0.1602  0.1112  0.1800
    1W        W50928  14.819  19.179  10.344  0.1376  0.0147  0.0295
    1W        W50929   4.416   1.715   1.612  0.0014 -0.1270  0.3238
    1W        W50930  15.850  16.505   1.061 -0.3041  0.0084 -0.0109
    1W        W50931  27.256  19.352   9.809 -0.0771  0.0350  0.0360
    1W        W50932  26.865  19.729   8.734 -0.2033 -0.2260 -0.2965
    1W        W50933  20.172  12.208   8.612 -0.2535 -0.1369  0.0660
    1W        W50934   4.068   7.951   9.075 -0.3615  0.1591 -0.0985
    1W        W50935   8.165  15.312  10.253 -0.2320 -0.0731  0.1370
    1W        W50936   2.252  14.082  10.144 -0.1530 -0.5258 -0.0317
    1W        W50937   9.051  28.006   8.233 -0.1965 -0.0174 -0.1295
    1W        W50938  12.061  11.936   0.413  0.1412  0.0040  0.1896
    1W        W50939   8.145  26.353   1.175  0.1523 -0.1224 -0.0185
    1W        W50940  27.362   9.993   7.134 -0.1395 -0.0835 -0.0403
    1W        W50941   7.016   7.364   9.835  0.1849 -0.3440 -0.1467
    1W        W50942   5.765  26.437   8.534  0.0189 -0.2786  0.4124
    1W        W50943  21.914  12.649   0.587 -0.0745  0.2334  0.1095
    1W        W50944   4.895  27.760   9.854 -0.1767  0.0335 -0.1209
    1W        W50945   3.625  11.024   0.465  0.1398  0.1962 -0.1790
    1W        W50946   3.092  11.057   3.754 -0.1056  0.3920  0.0620
    1W        W50947   2.262  24.153   2.102 -0.2098 -0.1008 -0.2244
    1W        W50948   7.234  24.871   1.966 -0.1155  0.4131  0.0426
    1W        W50949  16.159  22.629   1.288  0.0107 -0.2719  0.1477
    1W        W50950   5.102  24.717   7.670  0.1359 -0.2481  0.0059
    1W        W50951  18.181   1.618   7.749  0.0134  0.0298 -0.0437
    1W        W50952  22.228  25.169   3.802  0.0028 -0.2819  0.0547
    1W        W50953   0.898  20.494   1.244 -0.0796  0.3783 -0.2774
    1W        W50954  17.916  26.204   0.971  0.3015  0.0781 -0.0253
    1W        W50955  20.270  15.615   2.479  0.1639  0.0738 -0.2029
    1W        W50956  22.883   7.659   6.603 -0.3376 -0.1576 -0.2521
    1W        W50957   7.673  14.063   8.206 -0.1709  0.1541  0.1373
    1W        W50958  27.348  15.655   6.438 -0.1312  0.1363 -0.0653
    1W        W50959  15.136  17.934   7.601  0.1050 -0.0857  0.5228
    1W        W50960  10.891   7.836   7.831 -0.0368 -0.0355 -0.0009
    1W        W50961  11.123  17.413   1.664  0.0483  0.1815  0.2483
    1W        W50962   4.572  10.035   1.161  0.0493 -0.1289 -0.0783
    1W        W50963   4.079   7.030   9.262 -0.0089  0.0968  0.1347
    1W        W50964  15.076  21.075  10.252  0.3225 -0.1947  0.0393
    1W        W50965  15.993  16.041   2.098 -0.0002  0.1292 -0.1114
    1W        W50966  27.331  17.777   2.361  0.2951 -0.2949  0.0333
    1W        W50967   4.832  10.883   7.408  0.0867 -0.1142  0.0056
    1W        W50968  12.236   5.390   2.273  0.3146  0.2022  0.2182
    1W        W50969   3.790   1.550   7.526 -0.0996  0.0718 -0.1750
    1W        W50970  15.531  16.547   9.455  0.0028  0.2048  0.1663
    1W        W50971   6.413  13.592   1.498  0.3507  0.3035  0.0802
    1W        W50972  27.838  14.312   2.512 -0.1909 -0.1686  0.0157
    1W        W50973  27.376  13.354   2.163  0.0352  0.2506 -0.1307
    1W        W50974  19.537  15.332   1.465 -0.0525  0.0716  0.1429
    1W        W50975  24.845   5.605   6.921  0.0306 -0.0394 -0.2874
    1W        W50976  24.566   2.060   1.050  0.3899 -0.3010 -0.1003
    1W        W50977  24.546   1.408   1.729 -0.3854  0.2063  0.1148
    1W        W50978  21.215   5.270   9.019  0.2294 -0.3696 -0.0560
    1W        W50979  16.677  12.498   9.664  0.2082  0.0174 -0.1780
    1W        W50980  23.214   0.024   0.081 -0.2457 -0.1572 -0.2727
    1W        W50981  18.301  26.947   2.751 -0.3135 -0.1628  0.1227
    1W        W50982  26.199  12.024   8.821  0.2470 -0.1305  0.1133
    1W        W50983  24.703   7.380   1.149  0.0098  0.3177  0.0157
    1W        W50984  17.286  26.545   9.725 -0.1355 -0.6390  0.2438
    1W        W50985   8.128  23.489   8.037  0.0947 -0.4154 -0.2024
    1W        W50986  26.086   9.432   1.019  0.4193 -0.1348  0.0519
    1W        W50987   9.104  14.611   1.637 -0.0153 -0.2412 -0.1742
    1W        W50988  27.926  15.624   2.191 -0.2413 -0.0216 -0.1322
    1W        W50989  27.780   4.223   7.225  0.2608  0.0279  0.0644
    1W        W50990   1.917   4.809   1.640 -0.1227  0.2917  0.0223
    1W        W50991   4.462  23.006   6.905  0.0228  0.2538 -0.0268
    1W        W50992  12.086   5.731   1.507 -0.1945  0.0480  0.1912
    1W        W50993  10.204  15.836   0.730  0.0263 -0.0311 -0.2828
    1W        W50994  22.519   0.026   7.731 -0.2832 -0.1056 -0.0318
    1W        W50995   2.951   0.266   8.069  0.0392 -0.0196  0.0467
    1W        W50996  19.011  16.839   1.814 -0.1946 -0.3329 -0.1000
    1W        W50997  11.126  27.417   0.795 -0.1880  0.0341 -0.0392
    1W        W50998  22.685  26.078   0.209 -0.2616  0.1496 -0.1995
    1W        W50999  27.564  27.109   6.983  0.0998 -0.0611 -0.0519
    1W        W51000  17.618   4.203   3.046  0.0513  0.0487 -0.0334
    1W        W51001  18.137   5.222   0.676 -0.0741  0.0489  0.0295
    1W        W51002  17.692   9.997   1.566 -0.0238 -0.2706 -0.0111
    1W        W51003   6.028  23.152   7.661  0.0411 -0.2544  0.2045
    1W        W51004   7.613  25.328   0.103 -0.0472  0.3244 -0.2824
    1W        W51005  19.297  25.974   9.416  0.1481 -0.3802 -0.0429
    1W        W51006   4.023   0.950   8.621  0.1108 -0.1851 -0.0617
    1W        W51007  18.498   8.234   9.603 -0.1477 -0.2316 -0.0011
    1W        W51008   1.872  23.751   9.504  0.1335  0.2231 -0.0460
    1W        W51009  19.697  26.891   2.434  0.0262 -0.1648  0.0243
    1W        W51010  16.788   5.825   7.757  0.1991  0.0031 -0.0534
    1W        W51011  22.006  20.443   9.366  0.1161 -0.1818 -0.1221
    1W        W51012  19.338   6.801   8.446 -0.1286  0.1648  0.1961
    1W        W51013   8.941  21.148   0.690 -0.0750  0.1178  0.0535
    1W        W51014   5.619   9.621   8.825  0.0043  0.0716 -0.0671
    1W        W51015  24.588  25.857   0.737  0.1170  0.3230 -0.1757
    1W        W51016   8.191  14.135   1.427 -0.0582 -0.0777  0.0901
    1W        W51017   9.969   0.968   7.498  0.1323  0.2158  0.0454
    1W        W51018  25.038  21.559   8.620  0.1081  0.1507 -0.1166
    1W        W51019   8.954  21.247   9.900 -0.1974 -0.0159  0.0008
    1W        W51020   3.902   1.880   1.748  0.0134  0.0390 -0.1381
    1W        W51021  24.926  19.928   8.613 -0.3079 -0.2021 -0.4452
    1W        W51022  18.912  11.501   1.729  0.1656 -0.0507  0.2607
    1W        W51023  16.018   3.072   0.595  0.1091 -0.2432 -0.4103
    1W        W51024  24.145  23.931  10.346  0.0465 -0.2366 -0.1535
    1W        W51025  19.510  26.769   0.113 -0.0112 -0.2630 -0.2773
    1W        W51026   5.838  17.176   9.779  0.0052  0.1310  0.1345
    1W        W51027   7.491  17.429   0.200 -0.0587  0.0765 -0.0099
    1W        W51028  13.426   9.734   0.640  0.0595  0.1984 -0.0483
    1W        W51029  27.351   4.776   6.552  0.1392 -0.0981 -0.0424
    1W        W51030  11.836  22.400   8.142  0.2800  0.1536  0.0692
    1W        W51031  10.072   5.451   8.084 -0.4141 -0.3189  0.0561
    1W        W51032   9.119  19.667   9.807 -0.1568 -0.0745  0.0704
    1W        W51033  22.227   4.004   9.411  0.2306  0.1062  0.1647
    1W        W51034   6.805  21.562   0.232  0.3303  0.1765  0.0477
    1W        W51035  12.047   8.284   8.263  0.0596 -0.0591 -0.0347
    1W        W51036  22.276  11.305   8.399 -0.1404 -0.2308 -0.0872
    1W        W51037  17.435   8.230   1.536 -0.1896 -0.1288 -0.1210
    1W        W51038   2.206  18.463  10.042 -0.3238  0.0011 -0.2483
    1W        W51039   7.954  24.003   8.097 -0.1667 -0.3273  0.1575
    1W        W51040  23.199  14.112   9.042  0.0770  0.1339  0.0095
    1W        W51041   6.508   7.441   7.334  0.0633  0.2042 -0.0282
    1W        W51042   0.202  25.761   1.131  0.1841  0.1986 -0.0308
    1W        W51043   2.560  24.024   9.942 -0.3063  0.3343 -0.2532
    1W        W51044   1.172  14.279   1.108  0.2377 -0.1102  0.1359
    1W        W51045  15.611   2.642   7.805  0.1666  0.1368  0.0115
    1W        W51046   6.762   8.964   0.612  0.1093  0.1549  0.0022
    1W        W51047  25.133  20.121   0.679  0.1479 -0.1275  0.1118
    1W        W51048  11.263   0.635   8.398  0.3516 -0.2812 -0.0901
    1W        W51049  18.832  10.933   8.677  0.0733 -0.0285 -0.2376
    1W        W51050  10.160   4.420   1.883 -0.1691  0.0857  0.0974
    1W        W51051   0.480   3.275   6.125  0.0300 -0.1162  0.0992
    1W        W51052  26.161  22.598   7.811  0.2242  0.2130 -0.2107
    1W        W51053  10.638  11.778  10.355 -0.0342  0.2033  0.1276
    1W        W51054  16.716  10.867   0.533  0.1825  0.3675  0.0078
    1W        W51055  20.601  19.789   8.825 -0.0033  0.1042  0.0493
    1W        W51056  16.717  16.690   1.400  0.2440  0.1571  0.1375
    1W        W51057  24.373   0.417   1.956 -0.0423  0.1991  0.0474
    1W        W51058   4.547  16.347   9.451  0.0519  0.0698 -0.0655
    1W        W51059   2.140  10.763   7.620  0.0263  0.3449 -0.0853
    1W        W51060   6.346   7.126   7.749 -0.0353  0.2067  0.1805
    1W        W51061  25.631  13.934   9.260  0.0244 -0.0496 -0.0168
    1W        W51062  18.277  10.275   1.146 -0.1708  0.1156  0.2678
    1W        W51063  20.183  17.329   2.170  0.0278 -0.0196  0.2888
    1W        W51064   0.347   3.953   0.883 -0.3164  0.1205  0.2988
    1W        W51065  15.176  22.491   7.854 -0.1341  0.0880 -0.0471
    1W        W51066  12.522   9.076   2.580  0.0145 -0.0174  0.0683
    1W        W51067  21.477  15.340   8.905  0.2961  0.1687 -0.0989
    1W        W51068   9.271   0.166   3.216  0.0693 -0.1174 -0.1727
    1W        W51069  22.193   3.910   1.539 -0.0768  0.1650 -0.2363
    1W        W51070  22.292  12.378   8.713  0.0476  0.2161 -0.0033
    1W        W51071   1.102  13.928   2.566 -0.0934  0.0083 -0.2544
    1W        W51072  26.205  18.963   1.740 -0.0416  0.0700  0.0085
    1W        W51073  11.435  15.916   0.078 -0.0485 -0.0063  0.0597
    1W        W51074   1.671  27.171   8.077  0.3545  0.0826 -0.1754
    1W        W51075  10.861  14.008   3.579 -0.0242 -0.0249 -0.3080
    1W        W51076   7.986  24.356   2.366 -0.1210 -0.3965  0.4676
    1W        W51077  18.521  12.905   2.731  0.1561 -0.0469 -0.0876
    1W        W51078   6.514  25.927   9.274  0.0316 -0.0386  0.1687
    1W        W51079  19.365  25.383   0.145  0.0957 -0.0475  0.0162
    1W        W51080   1.174  14.717   0.934  0.1450 -0.0915 -0.0155
    1W        W51081  24.646   6.905  10.251 -0.1265 -0.1852  0.2227
    1W        W51082   1.034   0.300   1.868 -0.0497  0.3269  0.0387
    1W        W51083  18.967  18.215  10.331 -0.2984 -0.0147  0.2213
    1W        W51084  13.227  16.380   1.113  0.0113  0.0990 -0.1581
    1W        W51085  13.820  13.593   8.381 -0.0958  0.1303  0.2478
    1W        W51086  25.493  27.143   1.932 -0.0331  0.0457  0.0256
    1W        W51087  26.302   7.814   2.042  0.1424  0.4858 -0.1676
    1W        W51088   5.588  15.891   2.471 -0.2767  0.5574 -0.1519
    1W        W51089  15.597   8.736   7.126  0.1117 -0.0540  0.2449
    1W        W51090  23.855  14.216   9.245 -0.1739 -0.0777 -0.0850
    1W        W51091  24.058   5.558   2.206 -0.0095 -0.0819 -0.0710
    1W        W51092   2.324  16.809   2.427 -0.0990  0.1093 -0.0110
    1W        W51093  17.057  15.532   0.988 -0.0991 -0.0879 -0.1292
    1W        W51094  14.460  13.722   3.404  0.0599  0.3031  0.0382
    1W        W51095  11.015   2.924   7.366  0.2103  0.2213 -0.1322
    1W        W51096  16.185  12.751   9.848  0.2097 -0.2297  0.0909
    1W        W51097   4.482  17.198   2.369 -0.0257 -0.0193  0.1654
    1W        W51098  16.572  24.844   0.555 -0.0430  0.0955 -0.1463
    1W        W51099  13.366  14.024   9.224  0.1095  0.0889  0.1553
    1W        W51100  27.082  21.275   8.850  0.2949  0.1090 -0.0204
    1W        W51101   7.310  19.413   8.642  0.3593 -0.0304 -0.3677
    1W        W51102   0.194  13.022   1.832 -0.1141  0.1507  0.0515
    1W        W51103  16.274  12.770   3.247 -0.3074  0.1603 -0.0715
    1W        W51104  23.261  17.269   0.513  0.1360 -0.3289  0.2404
    1W        W51105  25.277   9.462   7.911  0.1797  0.0217 -0.3082
    1W        W51106  14.584  26.907   7.962 -0.0158 -0.1162  0.0113
    1W        W51107  19.806   1.664   2.658  0.1333 -0.1624  0.0145
    1W        W51108   4.380   9.968   0.263 -0.0687 -0.1875  0.0652
    1W        W51109   4.470   9.912   2.049  0.2725 -0.0058  0.1710
    1W        W51110   7.299  27.455   8.563  0.3002  0.1452  0.1113
    1W        W51111  23.896  13.573   1.998  0.1882  0.1407 -0.0711
    1W        W51112   2.346  20.045   7.716 -0.0317  0.0309  0.3758
    1W        W51113  14.612  16.548   8.075  0.1045 -0.0550 -0.0116
    1W        W51114  14.697   7.997   0.875 -0.0698 -0.2169 -0.2649
    1W        W51115  18.720  22.479   9.988 -0.1556  0.1733  0.1937
    1W        W51116  10.079   9.966   2.070 -0.0356 -0.2133 -0.1666
    1W        W51117  26.639   1.997   6.729 -0.0873 -0.0112 -0.1345
    1W        W51118  21.373  17.812   0.013 -0.3336 -0.0184 -0.1012
    1W        W51119  15.471  15.048   7.968 -0.0288 -0.0932  0.2859
    1W        W51120  10.394  26.661   9.570 -0.0859 -0.2490  0.0392
    1W        W51121  10.421   5.926   1.697 -0.1389 -0.0704 -0.1042
    1W        W51122   3.935  22.097   8.799 -0.0395  0.0273  0.1948
    1W        W51123   0.193  15.324   2.094 -0.0800  0.0599 -0.0028
    1W        W51124   9.797  11.455   0.326 -0.0785 -0.2412 -0.0197
    1W        W51125   6.996  26.299   0.840  0.1526  0.5065 -0.0359
    1W        W51126  25.488   4.611   8.667 -0.0404  0.2840 -0.1622
    1W        W51127  15.837  27.042   2.406 -0.1279 -0.1736  0.2497
    1W        W51128  26.402   9.062   8.109 -0.1424 -0.2076 -0.0957
    1W        W51129   4.419   7.978   7.732 -0.2528 -0.2999  0.1087
    1W        W51130  22.718   2.093   8.818  0.5244  0.0207  0.0353
    1W        W51131  24.847  10.491   1.727  0.1178 -0.0769 -0.3684
    1W        W51132   8.862   6.896  10.347  0.2185  0.3843 -0.0632
    1W        W51133   8.987  10.892   7.796  0.3803 -0.3495 -0.4002
    1W        W51134   6.999   9.682   9.831 -0.5252 -0.0199  0.1384
    1W        W51135  19.882  24.030   7.692 -0.1297 -0.2264 -0.0747
    1W        W51136  10.706  15.859   3.858  0.0442 -0.1388 -0.0904
    1W        W51137  20.765  12.917   7.550 -0.1873  0.0822 -0.0682
    1W        W51138  25.743  23.661   9.185 -0.1288  0.0666  0.0197
    1W        W51139  25.894  27.255   0.656 -0.0850  0.4655 -0.2753
    1W        W51140  15.022  12.796   9.506 -0.0963 -0.0956 -0.0482
    1W        W51141  27.117  21.265   1.751 -0.1718 -0.0751 -0.0142
    1W        W51142   9.944   0.583   6.874  0.3038  0.1445 -0.0524
    1W        W51143  22.053  16.189   0.847 -0.0071  0.1171  0.1762
    1W        W51144  23.326   6.261   8.893 -0.0797 -0.1242 -0.2449
    1W        W51145  16.230  12.624   9.393  0.0104  0.0294 -0.1309
    1W        W51146  23.596  26.216   9.985  0.1225  0.1605 -0.0147
    1W        W51147   8.480  23.299   7.763 -0.2801 -0.3499  0.0525
    1W        W51148  11.054  26.980   8.146  0.3358 -0.0972 -0.0811
    1W        W51149  10.144  27.564   2.180  0.1965 -0.2855  0.2913
    1W        W51150  11.213   0.124   3.532 -0.2934  0.0967  0.0366
    1W        W51151  21.415  14.409   9.131 -0.1563 -0.1992  0.1157
    1W        W51152  24.214   2.242   8.688 -0.0885 -0.0012 -0.1838
    1W        W51153  22.170   8.650   1.613 -0.1107 -0.1429 -0.3017
    1W        W51154  18.459   9.128   9.362  0.0111  0.2973 -0.0702
    1W        W51155  27.705  16.605   7.929  0.3171  0.0676  0.0676
    1W        W51156   3.871  25.408   6.834  0.1102  0.0617 -0.1654
    1W        W51157  10.402  24.369   7.522  0.2859 -0.1939  0.0012
    1W        W51158  18.868   7.418   9.961 -0.0355 -0.1054  0.0571
    1W        W51159   7.071  15.018   9.251  0.2090 -0.3011  0.2486
    1W        W51160  13.506  14.367  10.061 -0.1026  0.1837  0.0469
    1W        W51161   1.688  20.444   0.757  0.1880  0.0250  0.0407
    1W        W51162  10.516   2.465   7.548 -0.0589  0.2178 -0.0153
    1W        W51163  10.347  26.764   2.863 -0.1121 -0.0745 -0.2937
    1W        W51164  27.638  10.974  10.363 -0.0245  0.1047 -0.0965
    1W        W51165   2.519  23.564  10.120 -0.0086  0.2066  0.0367
    1W        W51166  17.562  25.680   2.196  0.0641 -0.0239  0.0439
    1W        W51167   5.211  27.458   7.001 -0.3521 -0.2874  0.2274
    1W        W51168  15.894   3.257   2.252 -0.2726  0.1023 -0.0207
    1W        W51169   9.084  24.978   2.104  0.1030  0.0062  0.0118
    1W        W51170   2.025  25.406   7.333 -0.1252  0.3607  0.0408
    1W        W51171  15.832   6.526   1.445 -0.1814 -0.7014  0.1012
    1W        W51172  26.082  22.990   8.283  0.0801  0.1211  0.1322
    1W        W51173  13.791  20.383   0.656  0.0694 -0.0374 -0.2341
    1W        W51174  18.369   4.436   9.996  0.0383  0.0441  0.2894
    1W        W51175  15.704  20.400   2.311 -0.2163 -0.2433  0.0816
    1W        W51176  11.947  27.315   1.343 -0.0655 -0.1414 -0.2213
    1W        W51177   4.375  24.008   0.545  0.0583  0.0091  0.1518
    1W        W51178   2.723   4.352   0.063 -0.0676 -0.2953 -0.1448
    1W        W51179  19.131  13.497   7.126 -0.1241  0.0693 -0.2633
    1W        W51180   5.719  15.587   0.848 -0.1657 -0.1332 -0.0162
    1W        W51181   5.406   4.655   0.502 -0.1729 -0.3039  0.1653
    1W        W51182  18.607   3.992  10.227 -0.0633  0.0899 -0.2114
    1W        W51183   0.957  12.280   2.482 -0.0265  0.1964 -0.0945
    1W        W51184   4.203  19.374   1.141  0.0937  0.1023  0.1122
    1W        W51185  27.703  14.699   2.170 -0.0449 -0.2658  0.0455
    1W        W51186  20.858  19.678   0.069  0.0806  0.1089  0.1687
    1W        W51187  27.685  25.660   0.379 -0.2342  0.2833  0.0400
    1W        W51188   1.653   8.513   0.218  0.1034 -0.3042  0.0275
    1W        W51189  18.007  23.035   9.635  0.0967 -0.2431  0.1458
    1W        W51190  22.755   0.702   0.485 -0.0680 -0.1568 -0.0595
    1W        W51191  12.531  13.663   1.823  0.1291  0.0765 -0.0013
    1W        W51192   7.372  20.569  10.224  0.0214  0.0152  0.1389
    1W        W51193   9.020  20.234   9.135  0.1195  0.0973  0.1965
    1W        W51194   5.278  20.371   8.397 -0.6759 -0.0850  0.0543
    1W        W51195  22.826  18.619   2.343  0.0593  0.2600  0.2454
    1W        W51196  21.520  26.607   3.802 -0.0654 -0.1318  0.2207
    1W        W51197  17.654  10.834   2.953 -0.3864  0.1363 -0.1273
    1W        W51198  17.263  18.778   1.148  0.0798 -0.0509  0.0740
    1W        W51199  26.202  15.108   1.568 -0.1177 -0.2296  0.2949
    1W        W51200   2.789   5.495   1.360 -0.0677 -0.0523 -0.1498
    1W        W51201   5.071  11.431   2.502 -0.1426  0.1265  0.1143
    1W        W51202   6.574   2.528   1.327 -0.1707 -0.0289  0.2103
    1W        W51203   8.485  13.004   8.670  0.2398  0.3450 -0.2735
    1W        W51204  18.576   5.999   9.997 -0.0505  0.3764  0.0350
    1W        W51205  15.395   3.213   2.275  0.0814  0.1770  0.1705
    1W        W51206  21.558  20.384   1.931 -0.0655 -0.2323 -0.3400
    1W        W51207  11.779  26.919   9.148  0.1341  0.2159  0.0220
    1W        W51208  11.609   0.308   7.212 -0.1124 -0.2028 -0.1894
    1W        W51209   9.504  11.813   1.758 -0.0091 -0.2431 -0.1290
    1W        W51210  15.442  13.000   2.960  0.1390 -0.5256  0.1101
    1W        W51211  13.186  14.083   8.260  0.1806  0.2518  0.0473
    1W        W51212   3.824  22.254   1.455 -0.0249  0.0743  0.1330
    1W        W51213  11.621  17.549   1.512 -0.1303 -0.0473  0.2183
    1W        W51214  21.993   8.991   2.341  0.1362 -0.1558 -0.0122
    1W        W51215   1.012  16.457   0.156  0.0811 -0.2433  0.1918
    1W        W51216  26.205  23.309   0.880  0.2470  0.1080  0.0825
    1W        W51217   8.783  13.417   9.322 -0.2494  0.1496 -0.2926
    1W        W51218  28.049  26.387   1.921 -0.3743 -0.1848  0.2053
    1W        W51219  14.440  27.788   8.193  0.1006  0.0220 -0.1191
    1W        W51220  23.694  26.962   1.975 -0.1293 -0.2986 -0.0470
    1W        W51221   8.234  11.611   3.771 -0.0650 -0.1648 -0.3623
    1W        W51222  22.944  11.945   8.335 -0.2775  0.4899 -0.1655
    1W        W51223  11.761  27.437   2.261  0.2072  0.1184  0.0924
    1W        W51224  24.244  20.213   2.738  0.0810 -0.2824 -0.1648
    1W        W51225   6.801  26.007   6.543  0.0637 -0.3804 -0.0001
    1W        W51226   6.050  19.015   9.829  0.2549 -0.3654  0.1671
    1W        W51227   4.279  26.086   7.617 -0.0008  0.1074 -0.0376
    1W        W51228  11.594  16.473   0.217 -0.1710  0.2588 -0.2857
    1W        W51229   2.037  23.269   9.726  0.1226  0.0999  0.1907
    1W        W51230  15.530  27.159   1.482  0.2513 -0.4437  0.1241
    1W        W51231  12.134  24.945   6.972 -0.0325  0.2765  0.0337
    1W        W51232  22.968  25.871   7.236 -0.1479  0.0873 -0.0067
    1W        W51233  22.747  14.053   2.588 -0.1779  0.0356  0.0313
    1W        W51234  16.593   7.729   4.391 -0.1045  0.0965 -0.0259
    1W        W51235  11.477  19.776   0.412  0.1486 -0.1883  0.2348
    1W        W51236  27.906  12.108   2.888  0.0798  0.2256  0.0754
    1W        W51237   7.974  27.128   0.048 -0.0133 -0.0348  0.2546
    1W        W51238  15.952   1.025   1.189 -0.1926  0.1856 -0.1974
    1W        W51239  24.162  12.913   8.853 -0.1074  0.0325 -0.3072
    1W        W51240  12.189  23.281   1.703  0.0542 -0.0128  0.2492
    1W        W51241   9.522   5.677   9.985  0.1763 -0.0278 -0.0932
    1W        W51242  12.943  17.145   9.545  0.0255  0.2073 -0.0575
    1W        W51243  27.684   2.703  10.150 -0.0312  0.1677  0.1281
    1W        W51244  19.570   8.986   9.513 -0.3002  0.2473 -0.0435
    1W        W51245  23.657   1.123   9.067  0.0450 -0.1573  0.0358
    1W        W51246  12.086  13.756   1.640  0.1107  0.1962  0.1588
    1W        W51247  14.360   7.844   3.211 -0.4310 -0.1078  0.0555
    1W        W51248   8.596  23.647   1.309  0.1566 -0.2903  0.1327
    1W        W51249   1.685  18.017   0.039 -0.2132 -0.2387  0.0830
    1W        W51250  28.012  11.179   8.555  0.0910 -0.1641 -0.0474
    1W        W51251  14.866  13.513   8.610  0.1442  0.2293 -0.3501
    1W        W51252   3.928  17.014   7.067 -0.1048 -0.4577  0.3489
    1W        W51253  27.363  28.081   1.795  0.0030 -0.0638  0.0962
    1W        W51254   7.218  18.026   2.326 -0.1774  0.0420 -0.1829
    1W        W51255   8.385   4.468   2.681  0.1757  0.0403 -0.4955
    1W        W51256   9.453  19.788   2.997  0.0445  0.1540  0.0292
    1W        W51257  19.808  21.575  10.136  0.0512 -0.0489  0.2328
    1W        W51258  12.258  14.677   9.404 -0.0205  0.0809  0.0266
    1W        W51259  18.803  10.861   2.933  0.0508  0.0518 -0.1878
    1W        W51260  16.696  16.458   3.495  0.0258 -0.1218 -0.0099
    1W        W51261  17.299  17.822   0.956 -0.0061 -0.2474 -0.0744
    1W        W51262  13.701  17.961   1.801  0.0453 -0.0780 -0.0456
    1W        W51263  19.949  17.286   8.220  0.1839  0.0170 -0.2676
    1W        W51264  16.932  26.893   9.686 -0.0571 -0.2252 -0.2706
    1W        W51265   7.551  26.446   1.959 -0.0429  0.1537  0.4061
    1W        W51266   0.645   5.291   7.073  0.1582 -0.0772 -0.4305
    1W        W51267  27.050   9.074   1.267  0.0424  0.0342 -0.1434
    1W        W51268  24.914  15.516   2.017 -0.2481  0.0671  0.3216
    1W        W51269   4.146   3.146   0.334 -0.0616  0.0777  0.0076
    1W        W51270  24.268   9.130   8.914 -0.0188 -0.1302  0.1258
    1W        W51271   1.826  12.352   7.338  0.6090  0.4281  0.1442
    1W        W51272  14.898   2.420   7.285  0.0345  0.1499  0.0318
    1W        W51273   0.347   4.700  10.294  0.1198 -0.5640  0.0225
    1W        W51274  27.514   0.578   8.354 -0.0575  0.0760 -0.0097
    1W        W51275   8.917  20.656  10.012 -0.0908  0.2610  0.0261
    1W        W51276   3.077  17.794   8.085 -0.2181 -0.2360  0.1991
    1W        W51277  24.123  27.290   9.157 -0.1953 -0.1114 -0.0300
    1W        W51278  20.482  10.008   0.540 -0.0136  0.3546 -0.1978
    1W        W51279  24.900   6.925   1.074 -0.2005  0.0867 -0.1172
    1W        W51280  17.281  22.850   2.506 -0.0744 -0.2130 -0.0544
    1W        W51281   4.791  19.398  10.125 -0.6093 -0.0959  0.1524
    1W        W51282   6.377   3.352   7.758 -0.0634  0.3983  0.4228
    1W        W51283  25.855   5.867   0.506 -0.0021 -0.1983 -0.2995
    1W        W51284   6.844  26.760   7.028 -0.0016 -0.1764  0.2612
    1W        W51285   3.399  20.584   8.358  0.1060 -0.1897  0.1266
    1W        W51286   9.377  24.767   2.709  0.0886  0.3522 -0.0464
    1W        W51287  23.937  19.371   2.221  0.1794  0.3752 -0.2107
    1W        W51288  24.377  16.135   2.851  0.2976 -0.0399  0.2806
    1W        W51289  26.426  22.267   2.508 -0.2783  0.2519  0.1908
    1W        W51290  21.500  12.712   8.936 -0.0960  0.3010 -0.2378
    1W        W51291  12.685  23.346   0.792 -0.1088 -0.0556 -0.1227
    1W        W51292  22.399  16.974   9.297  0.2727 -0.1948  0.0000
    1W        W51293  15.909  21.367  10.279 -0.0987  0.2540  0.0612
    1W        W51294  24.822  14.893   2.149  0.0434  0.2175 -0.0927
    1W        W51295  20.808  10.253   9.178  0.0881  0.0630  0.3873
    1W        W51296  14.305   1.768   2.687 -0.0867 -0.1211 -0.0095
    1W        W51297  25.149   3.420   0.919  0.3467  0.0121  0.2329
    1W        W51298   5.858  24.979   9.803 -0.0143  0.2875 -0.0607
    1W        W51299  24.236  21.627   0.539 -0.0525  0.0005 -0.2685
    1W        W51300   9.196  14.659   3.169 -0.0854 -0.0521  0.0664
    1W        W51301   3.865  26.729   3.216 -0.1586 -0.0457  0.3988
    1W        W51302  14.825   8.428   8.994  0.2758 -0.2484 -0.0325
    1W        W51303  20.594  16.034   7.056 -0.3281  0.0053 -0.3431
    1W        W51304   3.357  12.982   8.406 -0.0834 -0.0465  0.2303
    1W        W51305  19.039  26.928   8.963 -0.0657 -0.1500  0.0048
    1W        W51306  24.870   8.221   0.659  0.2062  0.3347  0.1085
    1W        W51307  11.799   4.041   2.610  0.1313 -0.0332 -0.4456
    1W        W51308  11.776  15.642   9.541  0.0148 -0.1536  0.1359
    1W        W51309  18.968  26.905   9.473 -0.1207 -0.4751 -0.1084
    1W        W51310  24.256   3.145   2.399 -0.2478 -0.0541 -0.3057
    1W        W51311  14.541  20.584   0.707  0.2258  0.4018  0.5109
    1W        W51312  11.592  12.326   3.687  0.0925 -0.2126 -0.2151
    1W        W51313   5.096  21.729   7.666 -0.0462  0.2276 -0.1829
    1W        W51314  22.417  13.829   7.766 -0.0767 -0.2352 -0.0546
    1W        W51315   6.305  10.870   6.856  0.0498 -0.2816 -0.0343
    1W        W51316  20.363  12.808   0.744 -0.2259 -0.1875 -0.0356
    1W        W51317   2.524   0.472   6.796  0.0733  0.0718  0.0795
    1W        W51318  25.843  13.967   1.700  0.1918  0.1629  0.1621
    1W        W51319  21.956  12.590   2.845  0.1220 -0.0309 -0.1204
    1W        W51320  20.609   0.144   9.622 -0.2349  0.0515  0.0704
    1W        W51321   5.896  24.561   8.320 -0.0040  0.1378  0.1702
    1W        W51322  15.430   6.913  10.199 -0.1287  0.0637 -0.2029
    1W        W51323  10.363  18.807   0.316 -0.2752 -0.0578  0.2204
    1W        W51324   0.233  18.966   1.075  0.2288 -0.1082  0.1604
    1W        W51325  15.189  24.358   1.848 -0.1813  0.0304  0.0258
    1W        W51326  17.840  10.621   1.302  0.3787  0.1010 -0.1187
    1W        W51327   3.172   7.441   6.937 -0.1894  0.0494 -0.0480
    1W        W51328  24.822  24.427   2.695 -0.0387  0.0118  0.0085
    1W        W51329  16.540   4.485   1.578  0.2436  0.2560 -0.0839
    1W        W51330  25.647  10.386   7.128 -0.0061  0.2686  0.0703
    1W        W51331  22.485  14.378   9.036 -0.1379  0.1661  0.1887
    1W        W51332   5.789  19.165   8.748 -0.0070 -0.3209 -0.2291
    1W        W51333  14.548   8.047   3.651 -0.0248 -0.0966 -0.1242
    1W        W51334  13.017   7.706   0.697 -0.0604  0.0076 -0.2093
    1W        W51335   3.724   7.377   0.656 -0.0888 -0.3167 -0.1504
    1W        W51336  15.805  27.601   2.515 -0.1036  0.0197  0.2141
    1W        W51337  18.285   5.137   9.273 -0.2580  0.2371  0.1678
    1W        W51338  18.917  18.696   2.719  0.4626  0.0822 -0.0288
    1W        W51339   4.980  12.047   2.030 -0.0964 -0.2690  0.0679
    1W        W51340   2.169  10.495   0.961  0.1600 -0.1913  0.3530
    1W        W51341   4.029   9.571   2.812  0.3555 -0.0605 -0.2860
    1W        W51342  27.835  22.247   8.367  0.3993  0.0742 -0.1962
    1W        W51343   6.356   6.518   2.789 -0.1372  0.1378 -0.2862
    1W        W51344  22.506  18.657   7.617 -0.1334 -0.3636 -0.3188
    1W        W51345   7.278  16.894   9.072  0.2741  0.1829  0.1198
    1W        W51346   6.545   6.813   9.748 -0.0152 -0.4164  0.1595
    1W        W51347  14.033  14.572   9.513 -0.0558 -0.1628  0.0446
    1W        W51348  13.616  20.484   9.313 -0.0573 -0.0989 -0.0191
    1W        W51349   8.920   9.222   1.514  0.0559  0.2344 -0.1181
    1W        W51350  16.711  26.743   0.802  0.0541 -0.1565  0.1706
    1W        W51351   7.254   6.412  10.199  0.1875 -0.3706 -0.0129
    1W        W51352  13.024  23.972   8.354  0.3646  0.2004 -0.0523
    1W        W51353  19.425   7.791   2.855  0.2282  0.1357 -0.3882
    1W        W51354  24.169  13.244   0.838  0.1486 -0.2363  0.0374
    1W        W51355  21.036  14.754   2.352  0.2096 -0.0566  0.1493
    1W        W51356  13.064  15.302  10.343 -0.0932 -0.0262  0.1072
    1W        W51357  24.186  24.963   2.984 -0.1911  0.0100 -0.1102
    1W        W51358  12.549  24.908   7.576  0.1065 -0.0151 -0.0397
    1W        W51359  16.903  18.618   9.703  0.0610  0.0265 -0.0344
    1W        W51360   5.092  22.993   2.184  0.0708 -0.0417 -0.2796
    1W        W51361  26.543   4.832   0.175 -0.0533  0.2799 -0.2905
    1W        W51362   7.800  22.678  10.095  0.0759  0.0773  0.0522
    1W        W51363  22.102  15.455   0.076 -0.4073 -0.1085  0.1027
    1W        W51364  22.033  11.480   9.788  0.0250 -0.4098 -0.1160
    1W        W51365  12.013  25.783   7.184 -0.0582 -0.1235 -0.1116
    1W        W51366  24.263   9.357   7.726 -0.0072  0.1052 -0.0460
    1W        W51367  12.267  15.939   1.284 -0.0536  0.2500  0.1114
    1W        W51368  27.490   9.554   3.413 -0.0853 -0.0097 -0.0452
    1W        W51369  26.281  21.659   1.430 -0.0211 -0.2071  0.0164
    1W        W51370   7.102  22.277   7.311  0.0656  0.0637  0.0592
    1W        W51371  16.347  13.100   9.010  0.0297  0.0368 -0.1357
    1W        W51372   4.428  25.233   8.593  0.2212  0.1462 -0.0576
    1W        W51373  21.628  27.220   0.107  0.1239  0.0272  0.0556
    1W        W51374   2.798   8.448   8.810  0.0642  0.0020  0.1883
    1W        W51375  21.081  26.922   2.474 -0.3299 -0.3419  0.0476
    1W        W51376   9.690   8.731   3.393 -0.0405  0.2571 -0.0440
    1W        W51377  11.044  15.934   1.376 -0.1006 -0.0206 -0.0102
    1W        W51378  25.159  22.564   7.945 -0.0227  0.0247  0.2660
    1W        W51379  27.620   1.498   7.353 -0.2798  0.0918  0.1790
    1W        W51380  19.857  16.998   7.475 -0.0922 -0.0635  0.0252
    1W        W51381   4.987  13.361   2.514  0.4971  0.3056  0.1776
    1W        W51382  23.591  11.688   1.285 -0.2528  0.0645 -0.2563
    1W        W51383  14.389   7.274   1.431 -0.1294 -0.1312 -0.5404
    1W        W51384  27.764  19.265   9.581 -0.1155 -0.0355  0.2091
    1W        W51385   4.034  10.837   8.910 -0.1622  0.1335  0.3117
    1W        W51386  21.379  13.150   7.761  0.0101 -0.2281 -0.1929
    1W        W51387  26.803  17.544   6.649  0.3536 -0.1509  0.0907
    1W        W51388   6.931  20.935  10.153 -0.1935  0.1565  0.0516
    1W        W51389  25.656  21.547   7.914  0.0391 -0.2658  0.0013
    1W        W51390  18.209  10.073   8.676 -0.0619 -0.1015 -0.3180
    1W        W51391  18.856   7.166   0.132 -0.2422  0.1926  0.0943
    1W        W51392   5.853  26.925   7.847  0.1010  0.1056  0.2156
    1W        W51393  13.901  19.825   0.780 -0.0791  0.3806 -0.2004
    1W        W51394  12.426  15.079   9.928 -0.0382  0.0331 -0.1675
    1W        W51395  18.408  21.003   1.386 -0.0693 -0.2178  0.0552
    1W        W51396  23.226  14.863   9.623 -0.0703  0.2112  0.1219
    1W        W51397  10.007  25.282   7.426  0.0278 -0.1290  0.0324
    1W        W51398  24.740   0.028   8.755  0.0011  0.0517  0.0809
    1W        W51399  16.421  19.483   9.868  0.0518  0.0335  0.1207
    1W        W51400   2.503  15.619   7.513  0.3229  0.3911  0.2052
    1W        W51401  22.114  26.860   1.532 -0.0817 -0.0204 -0.2146
    1W        W51402  22.945  16.652   3.066  0.1952 -0.0976 -0.2162
    1W        W51403   2.057   0.623   9.923  0.3508 -0.0861  0.0843
    1W        W51404   0.453   7.555   9.622 -0.0572  0.1013 -0.0124
    1W        W51405   8.891  23.868   2.619  0.0745 -0.0439 -0.4564
    1W        W51406   7.137   0.700   8.646 -0.1004  0.0002  0.4846
    1W        W51407  24.431   8.989   1.492  0.0279 -0.1738 -0.3626
    1W        W51408  15.463   0.485   7.994  0.1408 -0.0583 -0.1568
    1W        W51409  18.330  18.816   7.611 -0.0607 -0.2491  0.0287
    1W        W51410   8.764  14.004   2.690  0.0380 -0.0375  0.3218
    1W        W51411  20.602   1.814   2.311  0.3010  0.2337 -0.0112
    1W        W51412  20.569   2.778   6.784  0.6782 -0.0967  0.2442
    1W        W51413  23.681  25.668   8.461 -0.2239 -0.1307  0.2392
    1W        W51414   6.540  10.591   2.685  0.2407 -0.2475  0.1662
    1W        W51415  18.358  26.333   1.094  0.1653 -0.1707  0.1967
    1W        W51416  26.876   5.017   0.694 -0.0144  0.0130  0.0940
    1W        W51417   2.910  11.547   9.965 -0.2775  0.1209  0.2311
    1W        W51418  18.715  24.667   8.935  0.2052 -0.0416 -0.0829
    1W        W51419  25.842   1.249   8.978  0.0004  0.1255 -0.0001
    1W        W51420   7.684   1.222   7.611 -0.2796  0.2363  0.0678
    1W        W51421  15.364  23.274   6.591  0.0002  0.0973 -0.1808
    1W        W51422  14.056  18.925   0.292 -0.0499  0.0640 -0.3441
    1W        W51423  11.498   5.029  10.218 -0.0514 -0.0602 -0.0359
    1W        W51424  17.710   6.938   8.165 -0.1681 -0.2948 -0.1695
    1W        W51425  21.394  12.245   8.461 -0.0455  0.0204 -0.0436
    1W        W51426   7.644  12.615   9.228 -0.0730 -0.1385  0.1370
    1W        W51427  20.627  20.797   7.735  0.1351 -0.2202  0.1500
    1W        W51428   2.275  16.259  10.076  0.1234  0.1860 -0.1724
    1W        W51429   5.793   7.731   9.992 -0.0467 -0.1361  0.2105
    1W        W51430  28.116  25.436   0.367 -0.0092  0.2628  0.1555
    1W        W51431   6.036  26.453   9.417  0.3398 -0.3255  0.3211
    1W        W51432  21.238   1.362   9.517  0.0767 -0.3500 -0.0125
    1W        W51433  20.671  14.973   0.731  0.1816 -0.1306  0.4570
    1W        W51434  19.492  22.684   0.219  0.2470  0.2361  0.1227
    1W        W51435  26.322   3.468   7.942 -0.2537  0.1020 -0.2688
    1W        W51436   0.862  21.843   6.499  0.1790  0.1045  0.2415
    1W        W51437   2.191  18.793   6.950 -0.0088 -0.5126  0.2503
    1W        W51438   7.771  14.930   7.916  0.0005  0.1693 -0.1169
    1W        W51439  21.110  24.316   1.316 -0.2175  0.0775  0.0084
    1W        W51440   8.535  20.778   0.793  0.1382  0.1404 -0.0615
    1W        W51441   9.897  14.175   8.048 -0.1362 -0.0247 -0.1179
    1W        W51442  17.196  13.980   9.563  0.1735  0.1773 -0.0961
    1W        W51443  12.008  17.239   2.227 -0.0104  0.4616  0.0128
    1W        W51444  10.546   9.402   8.627  0.0798  0.2544  0.1721
    1W        W51445   6.127  11.181   0.836 -0.0265 -0.1261  0.2941
    1W        W51446  18.414   7.459   8.609 -0.2585  0.2946  0.0759
    1W        W51447  20.580  10.305   1.368  0.4485  0.2120  0.0711
    1W        W51448   9.079  10.539   0.626  0.1872 -0.2384  0.0981
    1W        W51449  26.082  24.177   9.828 -0.2458 -0.2574  0.5340
    1W        W51450   7.402  27.140   8.055 -0.0960 -0.0286  0.0677
    1W        W51451  13.089  22.479   9.157 -0.2194 -0.0822  0.1340
    1W        W51452   9.731   1.584   3.323 -0.2747 -0.0830  0.1957
    1W        W51453   1.586   9.398   2.417 -0.0095  0.2645  0.3436
    1W        W51454  27.547  11.461   1.061  0.4341 -0.0836 -0.1490
    1W        W51455  23.129  11.219   7.637  0.2998  0.0333 -0.0475
    1W        W51456   6.065  13.183   8.663  0.1387 -0.2660 -0.0038
    1W        W51457  20.514   2.615  10.250  0.0551  0.1812  0.0626
    1W        W51458  19.974  14.156   1.741 -0.1480  0.1944  0.0141
    1W        W51459  12.280   6.451   0.848 -0.0454  0.3861 -0.1324
    1W        W51460  21.114  11.002   9.595 -0.0269 -0.4465  0.1007
    1W        W51461   1.803  19.247   0.586  0.1491  0.2962  0.2176
    1W        W51462  24.385   7.813  10.304  0.1706 -0.0359 -0.1114
    1W        W51463  11.054  27.422   7.457 -0.1870  0.0047  0.0815
    1W        W51464   5.410  26.284   0.109  0.0224  0.2688  0.0332
    1W        W51465  26.756  11.535   8.613  0.0718  0.0337  0.2015
    1W        W51466   3.924  21.521   7.024 -0.0691 -0.1210 -0.2509
    1W        W51467  27.723  22.850   0.138 -0.0259  0.1820  0.1498
    1W        W51468  23.867   3.596   3.051 -0.5882  0.1597 -0.0807
    1W        W51469  25.187   1.419   2.456 -0.0761 -0.1147 -0.1998
    1W        W51470  24.933   9.422   7.121 -0.2187  0.1164 -0.1331
    1W        W51471   2.471   5.855   0.916  0.0351 -0.0590  0.1744
    1W        W51472  11.197  20.292  10.116 -0.0762 -0.2931  0.1330
    1W        W51473   7.192   8.803   1.462 -0.0845  0.2370 -0.1473
    1W        W51474  13.022  12.592   0.586  0.0768 -0.1108  0.0977
    1W        W51475   9.699   7.888   9.021  0.0178  0.3005 -0.0412
    1W        W51476   1.907  12.102   2.184  0.2237  0.0519  0.1231
    1W        W51477  14.715   5.516   8.323  0.5228 -0.0471  0.0697
    1W        W51478  15.457   7.510   7.471  0.0476  0.0100 -0.0468
    1W        W51479  23.626   7.904  10.040 -0.1728 -0.2208  0.1264
    1W        W51480   4.117  20.533   0.515  0.2537  0.1325 -0.1751
    1W        W51481  27.554   6.485   7.672 -0.0521 -0.3003 -0.1361
    1W        W51482  16.407  21.496   1.915 -0.0412  0.0419  0.2703
    1W        W51483  17.675  20.726   9.423  0.0840  0.2031 -0.0176
    1W        W51484  14.400  23.888   1.479 -0.2916 -0.1641  0.0627
    1W        W51485   4.211   5.589   8.015 -0.0663 -0.1000 -0.0688
    1W        W51486  20.824   5.623   7.280  0.0883  0.0129  0.0618
    1W        W51487  21.217   2.062   2.124  0.1777  0.0575  0.0240
    1W        W51488  12.047  23.858   2.472  0.0389 -0.0090 -0.0092
    1W        W51489   4.460   5.785   9.793 -0.2478  0.1894  0.0479
    1W        W51490  24.344  20.380   7.787 -0.1116  0.2068 -0.1120
    1W        W51491   0.280  17.082   9.109 -0.0310 -0.2348  0.0002
    1W        W51492   8.720   8.668   9.311  0.1541  0.1464  0.1362
    1W        W51493   9.013   8.407   8.491  0.0705 -0.1892  0.0357
    1W        W51494   2.639  10.869   8.676  0.2692  0.2707  0.0528
    1W        W51495  10.712   7.255   9.578 -0.0291 -0.3342  0.1624
    1W        W51496   0.591   9.166  10.243  0.2217  0.0692 -0.2684
    1W        W51497   4.546  26.069   0.760 -0.1567 -0.0350 -0.0902
    1W        W51498   5.132   5.709   1.745  0.0193  0.4763  0.0886
    1W        W51499   1.222   1.569   9.109  0.2677  0.1227 -0.2192
    1W        W51500  22.863  14.461   7.472 -0.1718  0.2215  0.2915
    1W        W51501  26.703  18.290   1.120 -0.1003  0.0589  0.1660
    1W        W51502  24.253   1.439   7.887 -0.1612  0.1419 -0.2301
    1W        W51503   3.493  22.003   2.606 -0.1018 -0.2170 -0.1061
    1W        W51504  26.998  13.042   1.039 -0.1522 -0.0909  0.1921
    1W        W51505  18.563  14.925   2.862  0.0777 -0.5247  0.0812
    1W        W51506  27.220   6.282   1.491  0.3059  0.0911 -0.0617
    1W        W51507  20.093  18.197   3.193 -0.2228  0.1933 -0.1310
    1W        W51508  20.020   4.852  10.044  0.1130 -0.0143 -0.0777
    1W        W51509  14.507   8.385   9.781 -0.1101 -0.4364 -0.0206
    1W        W51510   9.793  13.455   9.070  0.3987 -0.1319 -0.3186
    1W        W51511   1.686   8.187  10.135  0.1794  0.1135  0.1845
    1W        W51512  26.214   2.630   1.626  0.1137 -0.0449  0.0585
    1W        W51513  17.818  15.426   8.711 -0.0748 -0.1358 -0.1316
    1W        W51514   7.419   1.861  10.115 -0.3153 -0.2768  0.1354
    1W        W51515   2.969  19.002  10.322  0.0671 -0.0174 -0.1668
    1W        W51516  24.023  27.068  10.152 -0.0956 -0.1382  0.1530
    1W        W51517  22.354  10.467   7.194  0.2058 -0.2503 -0.2330
    1W        W51518   1.091  23.893   0.906  0.3341 -0.0436  0.0511
    1W        W51519   0.555  16.331   9.689  0.0909 -0.0131 -0.0770
    1W        W51520  27.847  10.208   6.848 -0.0536  0.2473  0.1099
    1W        W51521  25.318  16.632   9.626  0.0749 -0.0670  0.1530
    1W        W51522   0.923   4.017   6.468  0.2910  0.3150 -0.1134
    1W        W51523  11.148  25.928   6.731 -0.1394 -0.3025 -0.1406
    1W        W51524  22.093   0.293   3.003  0.0977 -0.2765  0.2563
    1W        W51525   2.068  24.484   1.143 -0.0696  0.1165 -0.0085
    1W        W51526  15.021  16.795   2.940  0.1048  0.2201 -0.1063
    1W        W51527  22.437  16.526   8.527  0.0490  0.4996  0.1539
    1W        W51528  15.336   9.913   7.713 -0.2104  0.0525 -0.1893
    1W        W51529  23.507  23.762   2.171 -0.1331  0.0676 -0.1296
    1W        W51530  13.088   2.313   1.100  0.0729  0.0990 -0.0897
    1W        W51531  19.125  24.557   9.229 -0.3947 -0.3728  0.0336
    1W        W51532  10.248   5.243   2.342 -0.3546 -0.0130  0.0922
    1W        W51533  17.385  19.034   2.489  0.4038 -0.4226  0.0059
    1W        W51534   8.135   9.087   1.007  0.1456  0.0651  0.1501
    1W        W51535  17.453  23.304   2.669  0.2389  0.0415  0.2503
    1W        W51536  21.166  10.575   8.000  0.1291  0.2824 -0.1166
    1W        W51537   9.515  27.860  10.288 -0.0984  0.1138 -0.0152
    1W        W51538  12.411  25.914   9.243  0.1650  0.1473 -0.0491
    1W        W51539  14.370  23.991   8.532  0.1320 -0.1758  0.2962
    1W        W51540  27.231   3.042   1.770  0.0354 -0.0513 -0.1831
    1W        W51541  17.548  22.829   1.634 -0.1780 -0.0526  0.1102
    1W        W51542  13.244  18.090   8.839  0.3011 -0.0873  0.3331
    1W        W51543   4.168   8.911   0.376  0.2226 -0.2003 -0.1688
    1W        W51544   9.566  26.744   6.561 -0.0892 -0.0242 -0.2435
    1W        W51545  24.321   1.801   8.365 -0.0206  0.0329  0.1799
    1W        W51546  22.060  23.092   3.783 -0.3317  0.2175  0.0805
    1W        W51547  10.802  11.045   2.524  0.0039 -0.2199  0.1642
    1W        W51548  22.998  26.708   8.503  0.1394  0.1313  0.2257
    1W        W51549   5.312  19.713   2.791  0.0068  0.2334  0.0985
    1W        W51550  22.193   4.573   1.683 -0.0571  0.0941 -0.1762
    1W        W51551   2.473  10.927   9.567 -0.1250 -0.2581 -0.3803
    1W        W51552  24.026   1.566   1.607  0.0057 -0.3752 -0.1938
    1W        W51553  13.341  14.237   7.215  0.3921  0.1195 -0.1065
    1W        W51554  18.848   7.668   8.419  0.2192  0.0125 -0.2385
    1W        W51555  12.316   8.644   2.752  0.0015  0.2383  0.5459
    1W        W51556  26.353   8.944   8.581  0.1604 -0.1249 -0.1260
    1W        W51557   7.591  19.074   8.397  0.1145 -0.2244 -0.0557
    1W        W51558  14.840   3.814   9.313 -0.0305  0.2669  0.2499
    1W        W51559  21.792  26.851   9.056 -0.1304  0.2008 -0.0661
    1W        W51560  18.621  11.534   7.899  0.2073 -0.0762 -0.1449
    1W        W51561  13.783  24.510   9.563  0.4205  0.0326  0.2487
    1W        W51562  26.170   5.255   8.565  0.1098 -0.1591 -0.0225
    1W        W51563  23.991   6.615   8.104  0.0151  0.0248  0.0078
    1W        W51564   6.534   1.249   1.199 -0.1807 -0.0454 -0.0424
    1W        W51565  16.824   2.788   9.865  0.0185  0.0260 -0.1217
    1W        W51566   1.601   5.586   7.691 -0.0601 -0.5007  0.0797
    1W        W51567   9.980  19.454   2.846 -0.1110  0.0212 -0.0661
    1W        W51568   4.466  27.843   0.829 -0.0937 -0.2079 -0.0294
    1W        W51569  13.938   0.701   0.883  0.0637 -0.0325 -0.2477
    1W        W51570  27.963   3.851   7.612  0.1122 -0.0055  0.4100
    1W        W51571   5.344  11.034   6.477  0.1807  0.1870 -0.1179
    1W        W51572  16.049   5.226   9.971 -0.1355 -0.1290 -0.1151
    1W        W51573  18.760  11.897   2.663  0.0900 -0.0834 -0.0391
    1W        W51574   6.745  26.624   8.670 -0.1880  0.0496 -0.2510
    1W        W51575  16.681  19.123   1.673  0.2361  0.0563  0.0483
    1W        W51576  14.372   5.565   0.825  0.2699  0.0144  0.0480
    1W        W51577   7.780  17.685   1.596 -0.1273  0.0151  0.0475
    1W        W51578  18.334   1.617   0.001 -0.2204  0.0178 -0.3942
    1W        W51579  20.613  23.747   1.542 -0.2036  0.0797  0.0863
    1W        W51580  21.443  10.664   1.913  0.1564 -0.1017  0.0325
    1W        W51581  18.327  25.176   8.730 -0.1888  0.0697 -0.0648
    1W        W51582  16.777  10.095   3.378  0.1264  0.1140 -0.0001
    1W        W51583  15.616   5.366   8.136  0.0750 -0.6392 -0.0395
    1W        W51584   4.456  21.977   9.099 -0.1128 -0.1374 -0.0004
    1W        W51585  11.966  15.276   0.455  0.0994  0.3172  0.2502
    1W        W51586  24.964   5.714   0.620  0.1980  0.0035 -0.2417
    1W        W51587   0.479   1.728   6.301  0.1383 -0.0349  0.1317
    1W        W51588  24.728   9.342   1.764 -0.0429 -0.0422  0.2393
    1W        W51589   2.373   8.799   6.877  0.3080  0.0239  0.1827
    1W        W51590  25.341  12.132   6.652  0.1841  0.2372  0.1464
    1W        W51591   9.433  26.366   9.668 -0.0596 -0.0433 -0.0731
    1W        W51592  26.244  22.640   6.840  0.1629 -0.0853 -0.0508
    1W        W51593  25.825   7.807   7.478 -0.1662  0.2347 -0.1662
    1W        W51594  16.028  11.842   8.018 -0.3120  0.1046  0.3189
    1W        W51595   2.731  10.810   2.446  0.0993 -0.1988 -0.1745
    1W        W51596  20.417  24.079   8.665  0.1017  0.2643 -0.3127
    1W        W51597  12.521  26.859   8.338  0.1999 -0.3724 -0.1663
    1W        W51598  22.241  15.910   1.671  0.0488 -0.1203 -0.0697
    1W        W51599  17.846   2.841   7.440  0.3237  0.0593 -0.4478
    1W        W51600   3.224   7.353   0.527  0.0927  0.1517  0.3059
    1W        W51601   4.834  10.468   7.020  0.0271  0.1177 -0.0867
    1W        W51602  19.430  27.601   2.635  0.0791  0.3875 -0.2535
    1W        W51603   0.809   8.576   7.367  0.1703  0.0078  0.0879
    1W        W51604   8.935   8.775   8.793 -0.0066  0.0129  0.1335
    1W        W51605   8.878   5.369   7.717  0.2582  0.0785  0.0401
    1W        W51606   1.890  23.479   6.678  0.3882  0.0674 -0.0856
    1W        W51607   5.337   6.045   7.272  0.0634  0.1409  0.1219
    1W        W51608   9.979  14.523   7.249 -0.2165  0.0047  0.2758
    1W        W51609  16.447  24.151   2.091  0.0532  0.3648  0.1456
    1W        W51610   8.906   8.968   8.317 -0.1970 -0.2599 -0.0002
    1W        W51611   2.423  21.275   2.081 -0.1206 -0.4295  0.0051
    1W        W51612  22.793  12.716   7.592  0.1602  0.1858  0.1401
    1W        W51613   0.250  12.074   7.557  0.1535 -0.1937 -0.0529
    1W        W51614  16.979  22.906   0.169 -0.0408 -0.0188 -0.1844
    1W        W51615  23.349  15.946   9.443  0.0173 -0.2876  0.1957
    1W        W51616  11.408  12.422   0.932  0.0694 -0.3038 -0.1049
    1W        W51617   5.750   6.123   2.416 -0.0166 -0.3382  0.2873
    1W        W51618  17.110  12.597   4.079  0.0884 -0.1756 -0.2010
    1W        W51619  18.876  11.771   8.259  0.1351  0.3083  0.3899
    1W        W51620  18.996   6.374   9.912 -0.2348 -0.2701  0.1236
    1W        W51621   6.089   9.497   0.256 -0.0139 -0.2058  0.0401
    1W        W51622   0.031   9.732   8.747  0.0197 -0.0712  0.0350
    1W        W51623  14.585  19.658   2.533  0.1290  0.1368  0.0476
    1W        W51624   2.903  25.712   6.619  0.0250 -0.0801 -0.1538
    1W        W51625   4.147  26.617   7.478 -0.0169 -0.1262 -0.0321
    1W        W51626  23.815  21.802   0.756 -0.1322 -0.0519  0.0553
    1W        W51627  15.696   4.477   8.304  0.0058  0.1444 -0.2865
    1W        W51628  16.523   2.343   1.773 -0.1799 -0.1398 -0.2877
    1W        W51629  26.029  14.135   7.967 -0.1980 -0.0745 -0.1099
    1W        W51630  22.691  16.327   1.561 -0.0335  0.3899 -0.3995
    1W        W51631  14.948  24.707   3.007 -0.2152 -0.4317  0.2270
    1W        W51632  14.376   1.020   9.453 -0.3490 -0.1386  0.2397
    1W        W51633   8.323   1.076   9.989 -0.1770  0.1369 -0.0624
    1W        W51634  23.953  15.307   2.045  0.1366 -0.2428  0.1758
    1W        W51635  17.598  15.286   2.144  0.1452  0.1422 -0.0619
    1W        W51636   8.715  23.695   1.807  0.1393  0.1099  0.3329
    1W        W51637   9.223   9.649   2.903  0.2453 -0.2718  0.0574
    1W        W51638  15.972  11.840   2.960  0.0779 -0.0560 -0.1252
    1W        W51639  20.426  14.132   1.042  0.1254 -0.0908 -0.2163
    1W        W51640  21.401  23.892   8.632 -0.2791  0.0547  0.1298
    1W        W51641  17.124  23.351   0.321 -0.1796  0.1599  0.2556
    1W        W51642  22.366  20.317   1.756 -0.0879  0.2028 -0.1698
    1W        W51643   6.450  10.967   3.493  0.1865  0.4127  0.2005
    1W        W51644  10.420   2.456   8.032 -0.0367  0.0162 -0.0957
    1W        W51645  23.840   4.752   1.364 -0.2179 -0.1726  0.0739
    1W        W51646  17.858   7.798   7.830  0.0237 -0.0384  0.0494
    1W        W51647   0.818  25.115   0.173 -0.1894  0.1549 -0.2409
    1W        W51648  21.903  13.096   0.274 -0.0429 -0.0599  0.1133
    1W        W51649  13.226  10.453   3.363 -0.1504  0.2405 -0.1180
    1W        W51650   8.913   2.746   2.751  0.1717 -0.1998 -0.0255
    1W        W51651  18.224  15.948   0.544  0.0658 -0.0337  0.0302
    1W        W51652   5.085   7.882   8.108 -0.0722  0.0638  0.0080
    1W        W51653   1.690  10.154   0.409 -0.2053  0.0039  0.0135
    1W        W51654  11.642   6.267   3.266  0.2112 -0.0531 -0.0753
    1W        W51655   6.567   4.022   0.982  0.0490  0.0009 -0.0723
    1W        W51656  11.853  20.630   7.996  0.0052  0.1983  0.0482
    1W        W51657  23.087  26.300   0.031 -0.2026 -0.1059 -0.0334
    1W        W51658   0.101  22.993   1.082 -0.1004 -0.0128 -0.0502
    1W        W51659  12.222  26.396   8.487 -0.0609  0.1685  0.2251
    1W        W51660  24.073  24.376   2.246  0.0280  0.1065  0.1861
    1W        W51661  20.691   8.094   2.059  0.2133  0.2303  0.0931
    1W        W51662   8.985  22.042  10.028 -0.1791  0.0712  0.2614
    1W        W51663   2.965   7.867   5.821  0.2095  0.1935 -0.0344
    1W        W51664  24.103   6.592   9.573 -0.3017 -0.2113 -0.1542
    1W        W51665  24.051  23.563   7.257  0.4256  0.0712 -0.2234
    1W        W51666  20.603   1.810   8.751 -0.1939  0.0645 -0.3337
    1W        W51667  14.336  16.500   2.280 -0.1169  0.0572  0.2585
    1W        W51668  18.905  14.760   1.371 -0.0019 -0.1190  0.1630
    1W        W51669   7.656  23.584   1.367 -0.1548  0.0450  0.0909
    1W        W51670  22.506  16.729   1.343  0.2506  0.1758 -0.0699
    1W        W51671   2.856  17.889   3.439  0.1752  0.1145  0.0998
    1W        W51672  23.071  11.498   1.384  0.1455 -0.2281 -0.1240
    1W        W51673  15.767  18.049   8.226 -0.1766  0.0862  0.2814
    1W        W51674  13.327  23.098   0.175  0.2062  0.0635  0.3378
    1W        W51675   2.377  25.191   1.379 -0.1141  0.0395  0.0097
    1W        W51676  16.103   7.960   2.824  0.1366 -0.2016  0.2663
    1W        W51677  23.651  10.216   2.467  0.2657 -0.1265 -0.1565
    1W        W51678   5.644  22.944   7.030  0.1972  0.0024 -0.1416
    1W        W51679   2.326   4.450   0.360  0.0549 -0.0890  0.1877
    1W        W51680  12.611  24.723   8.699  0.1420 -0.2863 -0.0628
    1W        W51681  13.402  26.816   7.828  0.0528  0.3630 -0.1107
    1W        W51682   4.022  25.148   1.917 -0.2564  0.2172 -0.1744
    1W        W51683   3.349   2.410   0.424 -0.0167  0.2102  0.0545
    1W        W51684   4.631  10.977   8.967 -0.1128  0.3823  0.2974
    1W        W51685  24.813  10.537   9.086  0.1677  0.1808  0.3079
    1W        W51686   2.158  10.351   0.415  0.4853  0.1275 -0.1080
    1W        W51687   9.951   4.285   9.217 -0.2567 -0.0579  0.1094
    1W        W51688  11.821  11.404   8.516 -0.3431  0.0686  0.0104
    1W        W51689  19.500  17.829   3.950  0.1238  0.3956  0.0215
    1W        W51690  14.129  15.603   2.706 -0.0260  0.2593  0.1013
    1W        W51691  19.547  22.798   2.860 -0.0369 -0.2549 -0.1768
    1W        W51692   3.138  15.280  10.146  0.3084  0.1163  0.2095
    1W        W51693  12.893  20.010   0.751 -0.1079  0.0479 -0.0517
    1W        W51694   7.754   6.509  10.191 -0.2053  0.1625 -0.0017
    1W        W51695   6.364  10.360   1.283 -0.1185 -0.1243  0.1255
    1W        W51696   6.784  21.494   9.084  0.1419 -0.1792 -0.0531
    1W        W51697  24.467  25.341   0.611 -0.2568 -0.0822 -0.0277
    1W        W51698  12.728  15.427   9.058  0.3398 -0.2664 -0.0769
    1W        W51699   1.387  12.038   2.420 -0.3280 -0.0949 -0.2305
    1W        W51700   0.123   7.922   8.428  0.4182 -0.1009  0.1615
    1W        W51701  12.830  20.810   0.346 -0.3806 -0.1820 -0.3199
    1W        W51702   9.264   5.251   0.386 -0.1305  0.2759 -0.1901
    1W        W51703  23.191  16.148   6.719 -0.0982 -0.0270 -0.0817
    1W        W51704   1.433  22.899   0.322  0.1085 -0.0844  0.0265
    1W        W51705  27.283  12.120   8.019 -0.2098 -0.1542  0.1661
    1W        W51706  14.427  10.161   1.548  0.3291  0.4612 -0.1174
    1W        W51707   1.204  22.551   8.074 -0.1649 -0.0287  0.2173
    1W        W51708   1.336  21.262   1.080  0.1511 -0.0485 -0.0601
    1W        W51709  14.479  10.658   8.574 -0.0317 -0.2620 -0.0869
    1W        W51710   2.786   6.312   6.373  0.0830  0.1075 -0.0790
    1W        W51711  23.347  14.773   8.661 -0.0765  0.1516  0.3891
    1W        W51712  26.591  24.907   6.260  0.0023  0.4275  0.1021
    1W        W51713  15.366  26.845   9.728 -0.1857  0.0593 -0.2813
    1W        W51714  11.442   8.454   9.416  0.3259  0.0316  0.2122
    1W        W51715   8.275   1.784   8.512 -0.0276 -0.1153 -0.0279
    1W        W51716  23.940  24.374   8.532 -0.0999 -0.2084  0.1130
    1W        W51717  23.599   0.539   8.274  0.0274 -0.2343  0.1339
    1W        W51718   7.315  23.912   2.467 -0.0278 -0.2258 -0.3871
    1W        W51719   2.948  21.482   0.274  0.0756  0.2534 -0.0457
    1W        W51720   8.016  18.437   3.657  0.3000  0.0746  0.2406
    1W        W51721  11.405  17.998   1.270 -0.0199 -0.1581 -0.0345
    1W        W51722   5.836   8.881   9.406  0.1045  0.0598  0.2913
    1W        W51723  16.978  25.584   8.552  0.1503 -0.1880 -0.1704
    1W        W51724  15.709   0.127   9.295 -0.1294 -0.1926  0.2205
    1W        W51725  27.419  20.481   8.970  0.0679  0.3327  0.0094
    1W        W51726   9.843   0.800   8.372 -0.1426  0.1253  0.1191
    1W        W51727  23.825  13.189   2.671 -0.1154 -0.0202  0.3363
    1W        W51728   5.560  26.984   1.717  0.1491 -0.1765 -0.0892
    1W        W51729  22.332  21.815   3.583 -0.1618  0.2765 -0.0889
    1W        W51730   8.252  11.160   1.563 -0.0070  0.0238 -0.2468
    1W        W51731  21.724   3.519   6.718  0.0255  0.1265  0.0544
    1W        W51732   0.676   8.278   0.287  0.0895 -0.1759 -0.2361
    1W        W51733  17.743  16.755   1.352 -0.1192  0.0637  0.0207
    1W        W51734   1.225  25.504   9.837  0.0786 -0.0339 -0.0115
    1W        W51735   3.209   3.087  10.139  0.0640 -0.1011  0.2520
    1W        W51736   8.207   4.642   0.287 -0.1060 -0.1937  0.3104
    1W        W51737  18.196  19.917   0.634 -0.2632 -0.0076 -0.1794
    1W        W51738   7.419  11.536   7.781  0.1782 -0.0392  0.1576
    1W        W51739  27.028   6.222   6.699  0.3638 -0.2290 -0.0138
    1W        W51740   1.502   0.858   2.490 -0.1703 -0.1294 -0.0526
    1W        W51741  12.127  15.342   2.823 -0.0291 -0.0997 -0.4222
    1W        W51742  20.630   4.828   8.214 -0.2683 -0.3177 -0.0962
    1W        W51743   1.623  21.440   7.674 -0.1022  0.1499  0.1684
    1W        W51744  18.588  12.790   1.292  0.0628 -0.0106 -0.1491
    1W        W51745   9.541  25.996   8.313 -0.1436  0.0619 -0.1128
    1W        W51746  21.459  14.502   8.064  0.1516 -0.1910  0.0865
    1W        W51747  13.801   8.622  10.255 -0.0851  0.0819  0.0333
    1W        W51748  10.154  15.127   2.152 -0.0463 -0.0440 -0.2178
    1W        W51749  18.124  10.988   0.442  0.0633  0.0587  0.0025
    1W        W51750  16.098  12.801   4.244 -0.2897  0.1392  0.1997
    1W        W51751   5.343  19.301   7.427  0.1487 -0.2319  0.3131
    1W        W51752  18.070   6.178   8.994  0.0006  0.3180  0.0800
    1W        W51753  14.313  21.926  10.114  0.1539  0.1621  0.1634
    1W        W51754  21.510  24.229   1.687  0.1904 -0.1527  0.0742
    1W        W51755   2.096  12.012   1.523 -0.0352 -0.1635  0.0003
    1W        W51756   9.540   5.628   3.621 -0.1518 -0.1140  0.0004
    1W        W51757   6.320  16.354   2.060  0.0149 -0.2654  0.1839
    1W        W51758  24.996   5.844   8.741 -0.1943 -0.0224  0.2343
    1W        W51759  27.796  28.020  10.252  0.0240 -0.2017  0.0423
    1W        W51760   1.569   7.200   7.868  0.4736  0.1184  0.1819
    1W        W51761   6.919   3.723   1.917 -0.0204  0.0687  0.3005
    1W        W51762  11.725  19.281   1.579  0.1826  0.0607 -0.2373
    1W        W51763   9.496  10.864   1.303  0.0509  0.1972 -0.2628
    1W        W51764   2.510  20.987   1.570  0.2248  0.0678 -0.0180
    1W        W51765  23.005   8.677   9.653 -0.3423  0.0752  0.3852
    1W        W51766  24.480  24.815   0.602 -0.0179 -0.0191 -0.1719
    1W        W51767  11.164  12.924   2.541  0.0117 -0.1423 -0.2054
    1W        W51768  24.510   6.423   9.760  0.2538  0.0182  0.2609
    1W        W51769  25.046  12.370   1.586  0.4001 -0.0612 -0.0159
    1W        W51770  25.093  12.572   7.422 -0.1719 -0.2874 -0.2927
    1W        W51771  26.838  21.412   7.456  0.1827  0.0667  0.1198
    1W        W51772   8.210  22.379   1.214  0.3486 -0.0099  0.2215
    1W        W51773  11.592  26.614  10.328 -0.2257  0.1699 -0.4163
    1W        W51774  11.546   1.208   9.852  0.1428  0.2850 -0.1904
    1W        W51775  15.958  24.058   2.296 -0.1113 -0.0206 -0.2738
    1W        W51776   9.945   2.653   8.057 -0.0821  0.4259 -0.0143
    1W        W51777  18.669  12.652   0.299  0.1137  0.4549  0.1541
    1W        W51778   1.950  17.498   2.038  0.1854  0.2482 -0.0908
    1W        W51779  22.801  25.324   1.252  0.1605 -0.2857 -0.0579
    1W        W51780  10.520   1.186   2.043  0.1846 -0.0938  0.2291
    1W        W51781  26.807  17.754   2.556 -0.0534  0.0775  0.2095
    1W        W51782  18.806  14.353   3.480 -0.0191  0.1479 -0.0901
    1W        W51783  24.414  14.196   1.626  0.1017  0.1820  0.0533
    1W        W51784  13.856   1.502   0.235  0.1101  0.0913 -0.0294
    1W        W51785  15.395   7.995   3.363  0.2042  0.0553 -0.3711
    1W        W51786  16.743  14.321   3.289  0.2387 -0.0958  0.2153
    1W        W51787  22.481  24.050   2.714  0.1056 -0.1275 -0.1013
    1W        W51788  25.952   2.121  10.096 -0.0921  0.0056  0.0393
    1W        W51789   0.672  24.783   9.466  0.0212  0.0770 -0.1495
    1W        W51790  19.512  17.851   1.459  0.1331 -0.1252  0.1414
    1W        W51791   2.883  13.688   0.376 -0.1600 -0.0519  0.1208
    1W        W51792   6.827   1.729   7.332  0.0361  0.3598  0.0258
    1W        W51793  26.940  22.325   2.383 -0.5249 -0.0264  0.0494
    1W        W51794  25.808   8.325   9.775 -0.1019  0.2479 -0.1637
    1W        W51795  13.139  24.085   1.218 -0.5274 -0.3582  0.0563
    1W        W51796  26.323  16.728   2.162 -0.2786  0.0987  0.2595
    1W        W51797  10.473   7.742   3.765  0.1439  0.0056 -0.1421
    1W        W51798  10.608  17.283   7.443  0.1107 -0.1812  0.1098
    1W        W51799  12.493  14.469  10.319 -0.2043 -0.2285 -0.1426
    1W        W51800  27.220   4.506   7.826  0.2694 -0.2752  0.1160
    1W        W51801  13.198  25.285   8.993  0.0011 -0.1201  0.0211
    1W        W51802  25.464   5.788   0.768  0.3131  0.0739 -0.3435
    1W        W51803  18.696  14.172   0.991  0.0432 -0.3158  0.0211
    1W        W51804  11.507  27.148   1.520 -0.3852 -0.1813  0.2591
    1W        W51805  24.320  21.004   7.684 -0.1367  0.2110 -0.0520
    1W        W51806  12.597   6.933   1.497  0.2032 -0.0183 -0.0342
    1W        W51807   4.606  16.916   8.810 -0.2296  0.0572 -0.2346
    1W        W51808  14.791  10.453   0.548 -0.0292 -0.1694  0.2313
    1W        W51809  17.031  22.362   1.224  0.3249 -0.0873  0.2980
    1W        W51810   8.820   2.255   8.121 -0.0281 -0.0118 -0.1584
    1W        W51811  26.951  15.744   6.916 -0.3775 -0.0183  0.0874
    1W        W51812   1.799  26.978   2.256 -0.1724 -0.0649 -0.0012
    1W        W51813  12.457  21.368   3.640 -0.1058  0.0953  0.0208
    1W        W51814  21.456  15.196   8.414  0.2106 -0.1229 -0.0704
    1W        W51815   4.406  19.113   3.209  0.1816 -0.3973 -0.3953
    1W        W51816  11.995  25.432   9.048  0.2206 -0.0861 -0.1243
    1W        W51817  23.268   8.620   8.234 -0.3976 -0.1364 -0.0473
    1W        W51818  11.936   9.654   2.744  0.1494  0.0922  0.1023
    1W        W51819   4.683  28.022  10.226  0.0222 -0.3272  0.0339
    1W        W51820  19.641  20.148   1.264  0.1702  0.0668 -0.0283
    1W        W51821  27.866  12.584   7.195 -0.0966  0.0669  0.0459
    1W        W51822   3.760  19.793   8.078 -0.0352 -0.2808  0.1634
    1W        W51823  16.189   4.072   2.907 -0.3254 -0.4751 -0.1448
    1W        W51824  15.403  10.207   1.192  0.0328  0.1750 -0.4017
    1W        W51825  15.691  23.550   2.395 -0.0640  0.2351 -0.4614
    1W        W51826  27.056  17.696  10.230 -0.0868 -0.0548  0.1038
    1W        W51827  16.123  10.920   8.103 -0.1456 -0.1255 -0.0514
    1W        W51828  26.424  23.610   2.198  0.1847 -0.0222  0.0692
    1W        W51829   5.240   9.783   7.958 -0.0082 -0.1086  0.1290
    1W        W51830  15.911   2.174   2.398  0.0367 -0.3811 -0.0803
    1W        W51831  15.810  13.320   7.569  0.1271  0.1298  0.0160
    1W        W51832  10.557  23.692   0.342  0.0317 -0.0892  0.0429
    1W        W51833  18.541   3.309   1.019  0.0135  0.2020  0.1383
    1W        W51834  21.583   6.339   8.183 -0.2089 -0.3303  0.2104
    1W        W51835  26.987  16.059   1.941  0.2539  0.0918  0.0837
    1W        W51836  14.153  20.490   2.702  0.0122 -0.2334 -0.0774
    1W        W51837  16.475  17.611   8.796  0.0329 -0.1285  0.0493
    1W        W51838   6.447  16.065   2.471 -0.1776 -0.0136  0.1971
    1W        W51839   8.211  12.566  10.015  0.0294  0.2979  0.0256
    1W        W51840  27.733  22.266   0.993 -0.3795 -0.0861  0.1095
    1W        W51841   7.275   8.944   9.144 -0.1401 -0.2140  0.0637
    1W        W51842   8.749  26.489   9.053 -0.0989 -0.1230  0.2076
    1W        W51843   6.842  12.609   9.945 -0.1241 -0.4279  0.2590
    1W        W51844   7.761   4.117   7.559  0.0462  0.0306 -0.0573
    1W        W51845   6.355   9.721   1.878  0.0896 -0.2577 -0.0303
    1W        W51846  12.986  22.185   1.276 -0.2677 -0.0247 -0.2887
    1W        W51847   0.854  21.292   9.821  0.2567 -0.0733  0.2099
    1W        W51848  18.976   4.032   1.610 -0.1203  0.1554  0.2169
    1W        W51849   7.353  19.417   9.617 -0.0318 -0.2022  0.0044
    1W        W51850  27.730  12.620   1.725  0.0892 -0.3104  0.0801
    1W        W51851   2.091  12.583   8.656  0.1285  0.2198 -0.1009
    1W        W51852  23.011  19.053   9.401  0.1930  0.1329 -0.0202
    1W        W51853  18.157  21.352   2.953  0.0065 -0.0379 -0.1396
    1W        W51854   1.379  14.844   8.563  0.0615  0.3033 -0.0011
    1W        W51855   1.059  10.788   7.244 -0.0725  0.0893 -0.2297
    1W        W51856  15.963  26.847   7.891 -0.1264 -0.0016  0.0782
    1W        W51857  27.504  16.459   7.004 -0.1051  0.2781 -0.1471
    1W        W51858  21.018   5.814  10.137  0.0015  0.2416  0.0099
    1W        W51859   0.922   3.830   9.946  0.0945 -0.0526  0.0309
    1W        W51860  16.031  26.282   1.247  0.0248 -0.3678  0.0261
    1W        W51861   3.777  22.423   8.425  0.0184  0.0539 -0.0570
    1W        W51862   8.917  19.818   0.871 -0.3500  0.0273  0.1739
    1W        W51863   2.494  14.850   6.534  0.0345 -0.0128 -0.0860
    1W        W51864   9.771   7.238   2.103  0.1855  0.1343 -0.1483
    1W        W51865  12.769   2.072   8.399 -0.5854 -0.1101 -0.0500
    1W        W51866  10.992  17.297   2.264  0.1293  0.0837 -0.0802
    1W        W51867  13.598  22.731   8.081 -0.0686  0.0386 -0.1781
    1W        W51868   4.841  14.765   8.979  0.0819  0.3592  0.4224
    1W        W51869  21.534   5.507   0.535  0.1502  0.3624 -0.4854
    1W        W51870  15.600  18.313   3.622  0.0182  0.0282  0.1030
    1W        W51871   3.383   4.392   8.354  0.0286 -0.1227 -0.0636
    1W        W51872  15.855  12.662   3.425 -0.0498 -0.1402 -0.0794
    1W        W51873   4.235   4.981   7.235 -0.0251 -0.0934  0.1522
    1W        W51874  23.080  11.280   8.167  0.0911 -0.2290  0.0680
    1W        W51875  22.806  26.280   2.591 -0.0152 -0.0515 -0.1985
    1W        W51876  11.002   6.611   1.878 -0.1136  0.2749 -0.1595
    1W        W51877  11.567  26.512   0.474 -0.0700 -0.0019 -0.0742
    1W        W51878  15.405  25.540   1.332  0.0273 -0.1452 -0.0338
    1W        W51879  27.853  22.173   7.345 -0.0149  0.0470  0.1225
    1W        W51880  15.133  13.932   1.544 -0.0131 -0.0140 -0.1414
    1W        W51881  19.496   2.238   1.308 -0.2497 -0.2451  0.3507
    1W        W51882   3.517  24.754   1.302  0.0022 -0.1173  0.0622
    1W        W51883  19.851   3.265   2.157 -0.1761 -0.0309  0.1120
    1W        W51884  26.568  12.126   2.197 -0.1312  0.1486  0.0622
    1W        W51885  22.028  14.623   2.132 -0.1209 -0.0543  0.1300
    1W        W51886  15.395   5.796   7.751 -0.1577  0.5344  0.1841
    1W        W51887  25.066  16.748   7.801 -0.0949 -0.0220 -0.1629
    1W        W51888  10.133   8.202   9.088 -0.1012 -0.0412  0.0805
    1W        W51889  20.327  23.153   3.267 -0.0983  0.3299 -0.1486
    1W        W51890  23.604   4.543   2.985 -0.0115  0.1448 -0.0376
    1W        W51891   9.198   6.597   1.661  0.3108  0.3945  0.1727
    1W        W51892   0.427  26.739   0.468  0.1463  0.1228 -0.2217
    1W        W51893   8.599   3.031   1.324 -0.0265 -0.0079  0.2965
    1W        W51894  14.676  15.739   2.499 -0.2836 -0.1149 -0.0368
    1W        W51895  25.249  14.195   9.039  0.0876  0.0178 -0.1799
    1W        W51896  19.593   9.822   8.251  0.2111  0.0865  0.0147
    1W        W51897   4.535  22.747   0.842 -0.1223 -0.0454  0.0296
    1W        W51898  16.209   6.910   3.284 -0.3485 -0.1828  0.1750
    1W        W51899  16.246   0.020   3.554 -0.1713  0.0541 -0.1731
    1W        W51900  17.354   7.736   7.941  0.0283 -0.0151  0.0785
    1W        W51901   2.216   2.035   9.718 -0.2473 -0.0189 -0.0224
    1W        W51902   9.236  18.168   2.137  0.1235  0.2549  0.1606
    1W        W51903   2.229  23.131  10.173  0.2666  0.3656  0.2909
    1W        W51904  14.614  19.031   0.871 -0.2902 -0.3314  0.1853
    1W        W51905  22.738  22.177   1.981 -0.0325 -0.1540  0.0849
    1W        W51906  15.803  11.526   8.391 -0.0720 -0.2074  0.0010
    1W        W51907   7.972  15.694   1.096  0.2809  0.0609 -0.0958
    1W        W51908  16.271   6.001   2.945  0.2597  0.3026  0.4987
    1W        W51909   1.651  24.679   1.333 -0.0412 -0.2947 -0.0618
    1W        W51910  18.846   7.723   9.554 -0.1139  0.4019 -0.2008
    1W        W51911   1.050  12.142   0.057 -0.0799  0.1019 -0.0169
    1W        W51912  12.717   0.319   8.733 -0.0665 -0.1104  0.1092
    1W        W51913  10.338   2.920   7.602  0.1832 -0.1374 -0.2590
    1W        W51914   7.578  19.833   8.876 -0.2930 -0.4689  0.2312
    1W        W51915  16.860  17.531   0.397  0.0897  0.2671  0.1288
    1W        W51916  27.138  10.505   9.148 -0.1171 -0.0600 -0.0043
    1W        W51917  21.900   6.674   1.015  0.0098  0.1782  0.2191
    1W        W51918  14.873  11.334  10.211 -0.0832 -0.0143 -0.1315
    1W        W51919   4.014  15.486   8.120 -0.1844  0.0123 -0.1716
    1W        W51920  26.940   7.076   7.182  0.1928 -0.1611  0.3564
    1W        W51921  13.710  15.662   8.289 -0.0316  0.2510 -0.1504
    1W        W51922  19.689   9.338   9.888  0.0671 -0.1028  0.0279
    1W        W51923   6.444  18.262   2.434  0.0525  0.5119 -0.0672
    1W        W51924  15.873   9.280   3.106 -0.1074  0.0515  0.1357
    1W        W51925   2.443   2.483   8.144 -0.0764 -0.0125  0.1551
    1W        W51926  26.891  10.376   2.388 -0.0723 -0.0274 -0.4207
    1W        W51927  14.948   7.879  10.239  0.2175 -0.0581  0.2021
    1W        W51928  25.980  17.116   0.059 -0.3376 -0.0577 -0.0474
    1W        W51929  22.449  14.896   7.106  0.0326  0.0611  0.0599
    1W        W51930  13.245  27.909   7.347 -0.0439  0.0558  0.0286
    1W        W51931  25.203  20.025   9.632  0.0471  0.2533 -0.0014
    1W        W51932  14.460   6.207   9.356 -0.1066 -0.0302  0.0905
    1W        W51933  23.454  20.909   2.611 -0.0664 -0.1289 -0.1787
    1W        W51934  26.187   9.086   9.684 -0.2305  0.2556 -0.3064
    1W        W51935  18.117  24.470   7.320 -0.2081  0.1298  0.0446
    1W        W51936  21.405  18.576   1.673  0.2495 -0.1399 -0.3674
    1W        W51937   8.941  19.082   8.024 -0.1631  0.1341  0.2149
    1W        W51938   5.480   0.118   7.905  0.1345 -0.1448 -0.1844
    1W        W51939   3.040  19.414   7.250  0.0190 -0.0614  0.0518
    1W        W51940   3.473   6.651   0.923  0.0359 -0.2516 -0.1332
    1W        W51941  20.817  12.420   9.839 -0.0217  0.0985  0.0277
    1W        W51942   8.870   3.843   7.287  0.3470  0.1115 -0.4217
    1W        W51943   7.555   6.468   7.867 -0.0745  0.1924  0.2666
    1W        W51944   5.580  27.430   9.412 -0.0593  0.1604  0.0382
    1W        W51945  11.796  27.415   9.482 -0.1934 -0.0049 -0.1314
    1W        W51946  25.169   6.508   2.073 -0.4660  0.2823 -0.5051
    1W        W51947   0.101   2.818   1.588  0.2517  0.1036 -0.1175
    1W        W51948   8.572  26.431   7.842 -0.1156 -0.0744  0.2760
    1W        W51949  24.277   6.129   0.044  0.2513  0.2845  0.2172
    1W        W51950   4.246  21.891   9.569  0.0140 -0.3684  0.2701
    1W        W51951  17.481  18.088   9.208  0.3137 -0.0084  0.0661
    1W        W51952  22.184   1.210   9.700 -0.3330  0.1439  0.0904
    1W        W51953  14.946   2.388   2.451  0.2277  0.0799  0.1798
    1W        W51954  16.182  13.376   7.890 -0.3867  0.2445 -0.0660
    1W        W51955   2.886   5.476   6.368  0.0483  0.1670  0.0136
    1W        W51956  14.005  25.538   0.554  0.2943  0.0782  0.0463
    1W        W51957   4.114  25.197   8.212  0.0095  0.0124 -0.0040
    1W        W51958   8.973  12.222   0.215 -0.1802 -0.1627 -0.1225
    1W        W51959  23.168  27.526   0.025 -0.2515 -0.1298 -0.2004
    1W        W51960  19.118  10.143   9.553  0.0437  0.4042  0.0020
    1W        W51961   5.869  17.476   2.616  0.2487 -0.1714 -0.3857
    1W        W51962  15.976   9.961   9.382  0.0332 -0.2204 -0.0319
    1W        W51963  20.860  11.297   2.097 -0.0451 -0.3557 -0.0764
    1W        W51964  13.029  20.366   8.745  0.0332 -0.2368  0.0194
    1W        W51965  10.028  19.987   1.176 -0.1014  0.2622  0.0370
    1W        W51966  15.956   9.928   1.194  0.1376  0.1570 -0.1102
    1W        W51967  17.177   8.920   0.955  0.1784  0.1486 -0.1921
    1W        W51968  19.966  12.967   9.473  0.0503 -0.1629 -0.0846
    1W        W51969   1.649   1.623   2.254 -0.1346  0.0886  0.0704
    1W        W51970  20.217   7.751   8.933  0.0108  0.0113 -0.1251
    1W        W51971   4.914  16.257   3.585  0.0088  0.1064  0.0671
    1W        W51972  16.648  11.107   1.530  0.5434  0.0565  0.0837
    1W        W51973  25.946   3.481   2.351  0.0138  0.1751  0.1039
    1W        W51974  22.022   6.045   9.443 -0.0607  0.3603  0.0790
    1W        W51975   9.138  19.317   0.749 -0.2356  0.3081 -0.0508
    1W        W51976   2.943  23.580   8.775 -0.2149  0.2610  0.0727
    1W        W51977  19.887  12.142   3.174 -0.0441 -0.2329 -0.3513
    1W        W51978  16.419  10.736   9.570 -0.1809 -0.2164  0.2118
    1W        W51979  15.935   1.372   9.041  0.0806  0.1835 -0.0870
    1W        W51980  11.324  24.229   8.311 -0.0501 -0.0701  0.2322
    1W        W51981  13.113  16.142   2.465 -0.3464  0.1523  0.0146
    1W        W51982  22.499  14.273   2.970 -0.1496  0.0654 -0.0319
    1W        W51983  12.665   0.077  10.166  0.0356  0.0967  0.5186
    1W        W51984   5.376  26.549   2.677 -0.1853 -0.0579  0.0729
    1W        W51985   7.311  16.726   2.088  0.1370  0.2688 -0.0135
    1W        W51986  12.718  10.366   1.727  0.1963 -0.0949  0.2068
    1W        W51987  14.051  22.238   9.783 -0.1770 -0.1570  0.1337
    1W        W51988   3.604   5.110   7.096 -0.2018 -0.3096  0.1841
    1W        W51989  23.219  16.125   8.970 -0.2360  0.2106  0.0244
    1W        W51990  11.348   8.918   1.355  0.0526  0.1128  0.3513
    1W        W51991   6.509   3.755   2.249 -0.1622  0.1037 -0.0157
    1W        W51992   8.637   0.482   8.869  0.3244 -0.0795 -0.4407
    1W        W51993   7.908  25.261   7.353  0.3053 -0.0951  0.0010
    1W        W51994  14.170  10.743   2.156  0.1314  0.0265  0.0629
    1W        W51995   0.664   2.272   9.015 -0.0054  0.2353 -0.1251
    1W        W51996   0.700  23.238   0.470 -0.0375 -0.3028  0.1503
    1W        W51997  15.091  14.191   0.652  0.0354  0.0336  0.1103
    1W        W51998  14.672  10.481   7.798 -0.2261 -0.2480 -0.4508
    1W        W51999   3.419   5.583   8.194  0.0815 -0.0129  0.0004
    1W        W52000  19.555  15.755  10.015 -0.2787  0.0063  0.1514
    1W        W52001  27.013   7.018   9.237 -0.2638  0.0683  0.3270
    1W        W52002  16.445  21.358   0.549 -0.1611 -0.0371 -0.3754
    1W        W52003  13.632   3.641   3.130 -0.2432  0.0631  0.1011
    1W        W52004  19.350   8.494   1.782  0.3897  0.0445 -0.2873
    1W        W52005  18.127  15.030   7.390  0.2657 -0.1440 -0.2854
    1W        W52006   8.511  15.929   8.820  0.1381 -0.2434  0.0491
    1W        W52007  16.843   7.609   8.158  0.0031  0.1585 -0.0840
    1W        W52008  25.959   3.576   6.412  0.1616  0.1477  0.0966
    1W        W52009  20.774  25.172   1.497  0.2932  0.1012  0.3509
    1W        W52010  21.110   4.224   2.134  0.4120  0.1765 -0.2117
    1W        W52011  12.115  15.067   1.901  0.0756 -0.1671  0.1629
    1W        W52012   3.253   6.824   8.391  0.1016  0.1297  0.2405
    1W        W52013   9.829  20.697   8.257  0.0880 -0.0290 -0.2484
    1W        W52014   8.449  21.873   0.506 -0.1128 -0.3308 -0.0305
    1W        W52015   8.742  27.514   9.950  0.0310  0.0886 -0.3149
    1W        W52016  23.886  21.232   3.179  0.2446  0.0066  0.0747
    1W        W52017  22.088   6.133   8.974 -0.2560  0.1981  0.2098
    1W        W52018  12.914  13.788   9.024  0.1503  0.4305  0.3547
    1W        W52019   5.541  13.357   3.114 -0.2756 -0.0591 -0.0331
    1W        W52020   6.120   6.707   6.113 -0.3466 -0.3668 -0.0939
    1W        W52021  22.331  12.447   6.910  0.2228 -0.2369  0.1155
    1W        W52022  22.194   0.138   1.967 -0.2533  0.2119 -0.0513
    1W        W52023   1.634   0.063   8.116 -0.2060 -0.3136 -0.0776
    1W        W52024  10.143  16.500   1.429  0.0146  0.1538 -0.3030
    1W        W52025  12.511  21.897   3.850  0.1736  0.2388  0.2324
    1W        W52026  24.572  21.090  10.184 -0.0888  0.2323 -0.1183
    1W        W52027   7.821  11.305   7.571 -0.0356  0.0797 -0.1148
    1W        W52028  27.917  20.274   8.824  0.0892 -0.0872 -0.1759
    1W        W52029  24.069  17.214   0.005 -0.0980 -0.0189  0.1508
    1W        W52030   5.633   9.419   7.229 -0.1040  0.0703 -0.0856
    1W        W52031  24.538   9.069   1.020  0.2528 -0.1294  0.0756
    1W        W52032  26.894  17.773   1.312 -0.4241 -0.1486  0.0003
    1W        W52033  17.144  20.289   7.919  0.0376 -0.3189  0.1759
    1W        W52034  25.696  11.064   0.536  0.1147  0.1076 -0.2186
    1W        W52035   0.937  16.160   8.062 -0.1080 -0.1149 -0.1248
    1W        W52036   7.276  11.097   1.467 -0.1541  0.2482 -0.0682
    1W        W52037  23.211   3.127   9.767  0.1107  0.2791 -0.0629
    1W        W52038  20.245  17.294   7.634  0.0538  0.3773 -0.2912
    1W        W52039   7.299  13.355   9.155  0.0424  0.1484 -0.0154
    1W        W52040   7.048  25.437   9.705 -0.2244  0.0043 -0.0462
    1W        W52041  26.371   9.222   0.275  0.3261  0.0713 -0.0960
    1W        W52042   4.701   2.404   0.664  0.2242 -0.1193 -0.0437
    1W        W52043  12.573  21.041   1.125 -0.0558 -0.1744  0.1866
    1W        W52044  23.380   9.009   1.091 -0.1604 -0.0133 -0.2704
    1W        W52045  27.616  20.805   7.752 -0.4201 -0.3089 -0.1420
    1W        W52046  10.925  13.123  10.018  0.0884  0.0024 -0.1636
    1W        W52047  11.769   2.211   8.289  0.3690  0.0373 -0.0544
    1W        W52048   6.572   9.272   1.773 -0.1007 -0.1860 -0.2886
    1W        W52049  11.856  11.409   3.467  0.1777 -0.0040 -0.1064
    1W        W52050  23.186   7.499   8.170 -0.1149 -0.0201 -0.0374
    1W        W52051   1.097  10.858   9.061  0.2046  0.2589  0.1728
    1W        W52052   9.271  21.815   2.561 -0.2720  0.1829  0.2796
    1W        W52053  16.542  26.892   7.489 -0.1795  0.0472  0.3073
    1W        W52054  14.224  14.997   1.607 -0.0612 -0.1953  0.0894
    1W        W52055  17.262   1.145   2.530 -0.0472 -0.2732 -0.1614
    1W        W52056  11.996  25.954   1.053 -0.2504  0.3360 -0.1797
    1W        W52057  27.384  19.640   8.782 -0.0589 -0.2835 -0.1303
    1W        W52058   3.244   4.106   9.519 -0.2539  0.1164  0.1060
    1W        W52059   7.286   9.006   8.318 -0.0132 -0.1013  0.2811
    1W        W52060  25.098  18.183   0.136  0.1470  0.1228  0.0585
    1W        W52061  15.791   6.739   4.068  0.0042  0.1579 -0.1545
    1W        W52062  26.506  10.933   1.598  0.0939  0.2970 -0.3037
    1W        W52063  20.805  24.267   0.404 -0.0611  0.0366 -0.1075
    1W        W52064  27.443  23.481   1.590 -0.0119  0.0292 -0.2149
    1W        W52065  17.422  14.780   9.988 -0.1336  0.2380 -0.4385
    1W        W52066  15.559  20.599   7.994  0.0806  0.1740 -0.0485
    1W        W52067  17.785   1.555   9.026 -0.0870 -0.0461 -0.2519
    1W        W52068  10.706  10.776   1.605 -0.0509 -0.0531 -0.0360
    1W        W52069   1.636  17.244   8.551 -0.0390  0.3286  0.1077
    1W        W52070  16.572   6.611   3.542 -0.2122 -0.0052 -0.4742
    1W        W52071  24.633  15.067   0.053 -0.0800  0.0889 -0.1578
    1W        W52072   7.697  16.179   9.388 -0.0087 -0.2531  0.0209
    1W        W52073  23.952  16.506   8.573  0.0236  0.1172 -0.0013
    1W        W52074  27.317   0.698   7.883  0.4738 -0.1089  0.1339
    1W        W52075   7.295   3.502   0.153  0.3175 -0.0817 -0.2494
    1W        W52076  13.486  10.061   2.582 -0.4388 -0.0684  0.1298
    1W        W52077  23.753  26.254   2.795 -0.0184 -0.0474 -0.0099
    1W        W52078  21.107  12.901   0.403  0.3295 -0.0115  0.0702
    1W        W52079  26.794  13.158   0.539  0.1256  0.1765 -0.1235
    1W        W52080   4.095   0.008   6.940 -0.1936  0.0302 -0.0276
    1W        W52081  27.675   9.594   1.864 -0.2020 -0.2275  0.1023
    1W        W52082  25.667   1.974   0.197  0.0549 -0.1682 -0.1128
    1W        W52083  15.165  11.073   2.203 -0.1069 -0.1744  0.1629
    1W        W52084   4.136  13.179   0.341  0.2480 -0.0854  0.3118
    1W        W52085   5.704  14.868   0.287  0.1921 -0.1626  0.1990
    1W        W52086  18.485   0.054   7.326  0.0627  0.0424  0.0627
    1W        W52087   2.066   8.755   0.259 -0.0466 -0.1010 -0.1159
    1W        W52088  22.289   5.176   8.847 -0.1064 -0.0042  0.1134
    1W        W52089   4.384   4.462   0.049 -0.2257 -0.0864 -0.0312
    1W        W52090  23.726  15.642   2.358  0.0062  0.3448 -0.0643
    1W        W52091  26.723  13.821   7.622 -0.0959 -0.1554 -0.1261
    1W        W52092  27.517  25.771   7.588  0.1152 -0.1604  0.1534
    1W        W52093   7.780   0.855   9.902  0.5440 -0.1310  0.1411
    1W        W52094  14.390  15.771   0.419  0.1663 -0.0575  0.0109
    1W        W52095  14.560  27.873   1.232 -0.1298 -0.1408  0.1118
    1W        W52096  14.393  13.183  10.257  0.1505 -0.1548 -0.1632
    1W        W52097  22.849  24.901   7.178  0.0573  0.2373 -0.0990
    1W        W52098   5.258  19.290   1.080 -0.3994 -0.1605  0.0596
    1W        W52099   8.920  26.870   7.931  0.0666 -0.1337 -0.1941
    1W        W52100  22.014  24.385   2.817 -0.0182 -0.0427 -0.3008
    1W        W52101  21.238   2.979   7.077  0.1497 -0.0811  0.0577
    1W        W52102  15.731  27.291   9.159 -0.1630 -0.0147 -0.0178
    1W        W52103  23.534   1.010   8.477  0.0625  0.0795  0.3919
    1W        W52104  17.757  11.420   1.698 -0.2877  0.0855 -0.2035
    1W        W52105  25.321  24.642   2.393 -0.0608  0.1264 -0.3607
    1W        W52106  21.185  26.507   1.227  0.1354  0.1294 -0.1034
    1W        W52107   3.299   3.590  10.360  0.2086 -0.0805 -0.0309
    1W        W52108   1.195  17.350  10.204  0.0675  0.0311  0.2294
    1W        W52109  24.569  12.042   6.799 -0.1630  0.2827  0.3428
    1W        W52110  24.734   1.882   1.488 -0.2180  0.2171  0.1208
    1W        W52111  21.062   9.054   9.430 -0.1465  0.1159 -0.2689
    1W        W52112  24.358  22.686   7.486  0.0656  0.4319 -0.0064
    1W        W52113  26.667   0.811   8.582  0.1571  0.0299  0.1275
    1W        W52114   4.847  18.504   0.923  0.1088 -0.0002 -0.0829
    1W        W52115  14.139   9.383   1.505 -0.2347  0.1613 -0.1613
    1W        W52116  14.128  23.019   3.914  0.0969  0.2239  0.1046
    1W        W52117   7.658  11.395   2.754  0.0166  0.0240  0.1135
    1W        W52118   0.573  27.579  10.165  0.2593 -0.1922  0.1216
    1W        W52119  20.949   9.352   1.429 -0.0671 -0.0848 -0.0899
    1W        W52120  27.181  13.919   7.433 -0.0118 -0.1081  0.0272
    1W        W52121  24.909  19.586   9.428  0.1720 -0.1760  0.1213
    1W        W52122  15.158  16.863   7.763 -0.2555 -0.3704 -0.2849
    1W        W52123  19.185   6.536   9.485 -0.1403  0.1927 -0.1164
    1W        W52124   5.100  15.646   2.669  0.0556  0.1717 -0.2615
    1W        W52125  23.403   0.199   2.422 -0.3632  0.2829  0.1486
    1W        W52126   9.733  23.897   0.763 -0.4079 -0.2609 -0.2699
    1W        W52127  20.122   0.943   6.865 -0.2083  0.1376  0.0752
    1W        W52128  21.316   0.684   2.137 -0.2657 -0.1040  0.0874
    1W        W52129  11.376  23.262   2.236  0.3180 -0.0247 -0.0547
    1W        W52130   9.885  26.560   3.051  0.0709 -0.2156 -0.1550
    1W        W52131   7.517  27.681   0.707 -0.0005  0.2454 -0.5743
    1W        W52132  12.197   0.171   2.017 -0.1991  0.2273 -0.4604
    1W        W52133  21.844  18.482   8.764 -0.0381  0.1497 -0.0119
    1W        W52134   7.166   6.157   7.314  0.0332  0.0970  0.0946
    1W        W52135  20.566   1.716   7.224  0.0324  0.2156  0.0129
    1W        W52136  19.078  25.084   2.020 -0.2748 -0.0176  0.1209
    1W        W52137  24.519  24.115   2.443 -0.0113  0.2698 -0.2773
    1W        W52138   7.888  12.988   9.574  0.0582  0.1218  0.0054
    1W        W52139   9.971   0.800   2.891  0.0565 -0.1637  0.2632
    1W        W52140  16.836   9.219   0.201  0.2855 -0.2485 -0.1756
    1W        W52141   1.295  18.720  10.054 -0.1856  0.3427  0.0575
    1W        W52142   2.368   7.739   9.285 -0.3500 -0.4234 -0.0657
    1W        W52143  21.885   5.811   1.383  0.1767  0.2242  0.0458
    1W        W52144   9.677  19.131   9.103 -0.0211  0.1437 -0.0253
    1W        W52145   3.233   5.827   6.414  0.0064 -0.0578  0.2653
    1W        W52146  18.561  10.825   8.230  0.0485 -0.2006  0.0075
    1W        W52147  10.836   0.072   1.764  0.3214 -0.3675 -0.1681
    1W        W52148  26.426  19.361  10.283 -0.1571 -0.2383  0.1733
    1W        W52149  16.961  21.147   0.770 -0.1631 -0.1271  0.1431
    1W        W52150   2.718   5.325   7.280  0.3626 -0.1263 -0.1176
    1W        W52151   3.306  13.533   0.861 -0.0632  0.1739 -0.2011
    1W        W52152   1.055  20.077   1.542  0.2458 -0.1027 -0.1378
    1W        W52153  21.654  16.138   3.394 -0.3521  0.1569  0.2004
    1W        W52154   8.872  16.968   2.098 -0.1335  0.1095  0.1634
    1W        W52155  15.612   0.399  10.099  0.1343 -0.0595 -0.3245
    1W        W52156  19.051   7.883   8.834 -0.0153  0.0277 -0.1317
    1W        W52157  11.595  16.129   8.722  0.2322 -0.1341 -0.0859
    1W        W52158  27.496  19.283   8.190  0.0555 -0.1604 -0.0155
    1W        W52159  21.829   0.707   9.091  0.2657 -0.3171  0.1675
    1W        W52160   2.391  10.513  10.292  0.0334 -0.0996 -0.2074
    1W        W52161   3.687  12.036   8.828  0.2692  0.1008 -0.0437
    1W        W52162   1.213   5.639   1.304  0.2405 -0.1228 -0.1448
    1W        W52163  24.874   8.411   8.853 -0.0830  0.0123  0.0296
    1W        W52164   7.518  14.847   1.335  0.3294 -0.5996 -0.0382
    1W        W52165  21.202  19.318   3.125  0.0381  0.2499 -0.0536
    1W        W52166  17.172  21.168   9.386 -0.5631 -0.0878 -0.0448
    1W        W52167  22.989  27.887   8.968 -0.0414  0.2924 -0.0957
    1W        W52168   9.378   9.403   2.465  0.0335 -0.1955 -0.1934
    1W        W52169  24.440  19.251   2.937  0.2460 -0.2605  0.1688
    1W        W52170  13.064  15.267   7.349  0.0686  0.1639  0.0063
    1W        W52171  23.597  10.325   2.968  0.2066 -0.1330  0.4297
    1W        W52172  22.051   6.520   8.046 -0.1436  0.1264 -0.3019
    1W        W52173   9.506   4.012   7.955 -0.1594 -0.0130 -0.2103
    1W        W52174  19.978   8.688   9.535 -0.1383  0.1330 -0.1917
    1W        W52175  19.337   0.081   8.257 -0.0664  0.1732  0.4230
    1W        W52176  20.159   3.260   9.796  0.2453  0.0859  0.0031
    1W        W52177  18.433  10.556   8.615 -0.1393 -0.1133  0.1735
    1W        W52178  26.518  13.185   0.017  0.4216 -0.4245 -0.0774
    1W        W52179   2.681  18.345   0.933  0.1057  0.1298 -0.1811
    1W        W52180  18.606   0.792   9.166  0.3341 -0.2258  0.2801
    1W        W52181  12.470   2.235  10.267 -0.0693 -0.2116  0.1859
    1W        W52182   7.488  13.602   8.006  0.0337  0.3691  0.1981
    1W        W52183  18.971  10.515   0.399 -0.1840 -0.2671 -0.0884
    1W        W52184  13.846  23.090   8.391  0.0847 -0.2184  0.4100
    1W        W52185  24.222   8.678   0.493  0.0420  0.1111  0.0498
    1W        W52186  15.791  13.137   3.267  0.0046 -0.1429 -0.0918
    1W        W52187  15.240   8.002   2.406 -0.4710 -0.1839 -0.0316
    1W        W52188   7.081  18.220   7.899 -0.0623  0.1074 -0.1553
    1W        W52189   5.304   8.359   7.409 -0.0783  0.2021  0.3366
    1W        W52190  15.541  15.641   3.609  0.0739 -0.1806 -0.1826
    1W        W52191   2.356  13.781   8.986  0.0559  0.1517  0.1007
    1W        W52192   1.841   8.497   9.708  0.2227 -0.0129 -0.1097
    1W        W52193   3.565  24.289   1.119 -0.0212  0.1023 -0.0527
    1W        W52194   2.706  22.164   2.024  0.0732  0.2300 -0.0148
    1W        W52195  16.177  11.738   0.197  0.1588  0.1695  0.0363
    1W        W52196  20.548  15.645   2.877  0.2010 -0.0070  0.0247
    1W        W52197   9.448   4.041   1.231 -0.4215  0.4212 -0.1479
    1W        W52198   5.308   6.431   1.704 -0.2597 -0.0861  0.0111
    1W        W52199   0.100  18.947   2.045 -0.0913 -0.1623 -0.1266
    1W        W52200  14.902  17.127   2.238 -0.1391  0.1832 -0.2375
    1W        W52201  24.593   5.478   8.867 -0.1516 -0.2069  0.2898
    1W        W52202   4.735  19.280   7.353 -0.0041 -0.3112  0.1522
    1W        W52203   9.102   2.868   1.253 -0.1117  0.0355  0.2921
    1W        W52204  13.455   4.359   1.456 -0.0420 -0.1483 -0.0649
    1W        W52205  25.831   0.778   2.344 -0.3059  0.1685  0.3091
    1W        W52206  23.657  12.313   0.455 -0.3904 -0.0881 -0.2382
    1W        W52207  20.068  18.437  10.123  0.0774 -0.0245 -0.0883
    1W        W52208  22.982   4.613   2.102  0.1015  0.2670 -0.1884
    1W        W52209  27.937   6.790   7.543 -0.2273  0.0579  0.0052
    1W        W52210   9.610   3.443   3.223 -0.0778  0.2196 -0.0120
    1W        W52211   7.227  12.689   7.804  0.1143 -0.0540 -0.0079
    1W        W52212  19.313   0.156   0.606  0.2592 -0.0758  0.2897
    1W        W52213  15.814  16.070   3.478 -0.1047 -0.2925  0.3497
    1W        W52214  13.981   9.703   8.558  0.0847 -0.0169  0.1780
    1W        W52215  22.267  23.508   7.453 -0.0335  0.0541 -0.0513
    1W        W52216  26.107  27.012   7.781 -0.4283  0.0715 -0.1180
    1W        W52217  10.609  10.511   0.905 -0.1330  0.0107  0.2213
    1W        W52218   7.958   9.185   1.540 -0.2277  0.4026  0.1862
    1W        W52219   4.652  11.753   7.051  0.1341  0.0498  0.1811
    1W        W52220   0.673  25.599  10.027  0.1094 -0.1835 -0.1111
    1W        W52221  20.006   5.467   0.897  0.1480 -0.0604 -0.3080
    1W        W52222   8.523  24.618   8.199 -0.2203  0.0729 -0.1588
    1W        W52223   5.010  18.594   1.580  0.0098  0.1083  0.0178
    1W        W52224  20.841   9.262   9.779 -0.0626  0.0990 -0.1894
    1W        W52225  16.165   4.275   9.429 -0.2215  0.0540  0.0376
    1W        W52226   1.226  21.497  10.097 -0.1963  0.4061  0.0416
    1W        W52227  24.293   3.823   3.166  0.1800  0.2164  0.1045
    1W        W52228   9.039   9.154   2.769  0.0344 -0.0260  0.0920
    1W        W52229  13.868   8.732   2.606 -0.0559 -0.2044  0.1654
    1W        W52230   9.199  14.840   9.216  0.0738  0.2916 -0.0197
    1W        W52231   4.705  28.085   0.355  0.0697  0.1258  0.1327
    1W        W52232  12.129  15.977   7.827  0.1248  0.0229  0.1859
    1W        W52233  14.610  27.256   9.973  0.1796 -0.1165  0.3567
    1W        W52234  26.562  24.013   2.456  0.0205 -0.2177  0.0418
    1W        W52235  22.313  23.080  10.296 -0.0779  0.0521  0.0044
    1W        W52236  20.501  25.975  10.043  0.2769  0.0935  0.2831
    1W        W52237  24.385   4.208   0.434 -0.0116  0.0406  0.0751
    1W        W52238  11.954   8.655   7.393  0.1616  0.0901 -0.1994
    1W        W52239  21.281   7.474   1.032 -0.1847  0.0732  0.0218
    1W        W52240   6.751  25.484   2.998  0.0450 -0.0462 -0.4073
    1W        W52241  17.098  15.946   8.451 -0.3135 -0.0094 -0.2951
    1W        W52242  21.528  22.680   1.423  0.3417  0.0306  0.0591
    1W        W52243  28.036   7.499   1.620  0.1149  0.1442 -0.0087
    1W        W52244   8.487   4.968   8.677 -0.2297 -0.1249  0.0824
    1W        W52245  15.947  21.768   7.733  0.2801 -0.0720 -0.1189
    1W        W52246  18.903  16.112   0.019 -0.0075  0.1180  0.0563
    1W        W52247  11.758   3.662   1.932  0.4130 -0.3171  0.0702
    1W        W52248   9.856  12.591   3.932  0.2087  0.1970 -0.1884
    1W        W52249  24.109  24.901   9.441 -0.0177  0.1098  0.3316
    1W        W52250   5.885   0.596   1.793  0.0090 -0.0892  0.1941
    1W        W52251  15.069  20.580   1.275 -0.1323  0.3079 -0.0540
    1W        W52252  14.756  25.957   1.835 -0.0324  0.1731  0.0164
    1W        W52253  22.943  18.824  10.041  0.3570 -0.2154 -0.3406
    1W        W52254   5.156  19.324   2.482 -0.0561  0.0332  0.0745
    1W        W52255   0.683  21.210   1.701  0.2198 -0.0977  0.1657
    1W        W52256   3.102   4.912   6.214  0.1278 -0.1595  0.0187
    1W        W52257  23.704  15.081   8.322  0.0728 -0.3308 -0.1135
    1W        W52258  12.236  17.985   9.525  0.2215 -0.0289  0.1170
    1W        W52259  27.120   8.967   9.482  0.0999  0.0593  0.0633
    1W        W52260  20.364  16.460   0.813  0.1090 -0.6006 -0.0585
    1W        W52261  14.866  11.449   8.644 -0.1553  0.1545  0.5617
    1W        W52262  13.136  22.250   2.209  0.0911  0.3057  0.2051
    1W        W52263   1.353  21.576   9.164  0.1028  0.3232 -0.0919
    1W        W52264   8.037  20.482   9.738 -0.2096 -0.0426 -0.2467
    1W        W52265  20.550  14.665   1.163 -0.5097 -0.0205  0.1889
    1W        W52266  27.878   2.396   9.723 -0.1351  0.0514 -0.3042
    1W        W52267  13.499   0.758   1.111 -0.0187 -0.0379  0.0004
    1W        W52268  25.059  16.392   2.346  0.1174 -0.1398  0.2624
    1W        W52269   9.999  27.666   7.835  0.2544  0.0412 -0.0795
    1W        W52270   4.979  13.203   0.748  0.1206 -0.0183  0.0241
    1W        W52271   8.853  20.137   9.917  0.1911 -0.0926 -0.1638
    1W        W52272   6.821   1.288  10.138  0.0623  0.3457  0.0194
    1W        W52273  11.324  17.658   2.245  0.0135 -0.1302  0.1982
    1W        W52274  27.046  10.330   1.840 -0.0541  0.0498 -0.1059
    1W        W52275  23.739  17.386  10.017 -0.0334  0.0493 -0.1062
    1W        W52276  13.331   4.137   3.871 -0.4607  0.0098 -0.1001
    1W        W52277  15.455   9.916   0.300  0.1557  0.0833 -0.3092
    1W        W52278  25.074  20.399   6.865  0.0366  0.1736 -0.1040
    1W        W52279  18.072  27.558   2.795 -0.0842  0.1017 -0.1598
    1W        W52280   9.134  21.259   2.856  0.1384 -0.0350  0.1445
    1W        W52281  26.728  26.909   1.695 -0.1777  0.0217  0.2911
    1W        W52282  27.966  27.231   8.398  0.0806 -0.1447 -0.2479
    1W        W52283  27.886  11.707   1.565  0.0437  0.0605 -0.2296
    1W        W52284  17.795  18.175   1.984 -0.1338  0.0197 -0.2053
    1W        W52285   5.941  25.474   9.434  0.2040 -0.1055 -0.0824
    1W        W52286  16.513  18.206   1.992  0.0965 -0.0352 -0.5110
    1W        W52287  10.545  25.202   6.837 -0.0002 -0.1752 -0.1302
    1W        W52288  27.064  11.986   9.025  0.0167 -0.0619 -0.2181
    1W        W52289  16.317   5.125   0.658  0.2220  0.1571  0.1248
    1W        W52290   4.173  18.032   2.594  0.3293  0.0452  0.2213
    1W        W52291   2.758   9.663   0.224 -0.0558 -0.1802  0.0662
    1W        W52292  12.036  13.528   3.345 -0.0612 -0.0276  0.0216
    1W        W52293  12.030  15.683   3.166 -0.1581  0.0816  0.0607
    1W        W52294  14.441  15.708   8.993 -0.0359  0.1135 -0.0641
    1W        W52295   7.492  26.794   9.820 -0.1278 -0.2774 -0.2265
    1W        W52296  10.085  16.040   3.017  0.0151 -0.1947  0.1267
    1W        W52297  19.759  16.238  10.231  0.0291  0.2064  0.0032
    1W        W52298   5.820  13.644   9.529 -0.0621  0.1716 -0.1829
    1W        W52299  11.351  27.885   0.851 -0.1757  0.0080  0.2550
    1W        W52300   7.330  20.307   0.403 -0.1226 -0.1065 -0.1585
    1W        W52301   3.199  15.627   1.942  0.4567 -0.1316 -0.0083
    1W        W52302   4.716  21.412   1.923  0.0566  0.3224  0.0653
    1W        W52303  22.258  18.337   0.717  0.1109 -0.3116 -0.0753
    1W        W52304   5.541   8.387   3.523  0.1110 -0.4466 -0.0898
    1W        W52305  16.071   3.865   7.812  0.3436  0.3837 -0.0468
    1W        W52306  27.828  17.622   2.936 -0.1393 -0.1747  0.1765
    1W        W52307   6.930   4.212   2.494  0.0278 -0.4043  0.1719
    1W        W52308  13.434  19.730   1.817  0.1140  0.0479 -0.0224
    1W        W52309  23.527   3.095   0.700 -0.1268 -0.3068  0.1582
    1W        W52310  22.102   9.371  10.219 -0.1416 -0.1474  0.1735
    1W        W52311  11.825  22.882   8.445 -0.0101 -0.0637  0.0676
    1W        W52312  19.365  13.467   1.870 -0.0701 -0.0897 -0.0090
    1W        W52313  27.128  13.924   9.432  0.2473  0.0756  0.1390
    1W        W52314   4.710   2.259  10.350 -0.0336  0.0039 -0.0225
    1W        W52315  24.953  13.200   8.752 -0.0666 -0.0017 -0.1126
    1W        W52316  25.937  18.307   2.147 -0.1893 -0.0157 -0.0803
    1W        W52317  10.317   3.826   9.859  0.1312  0.0934 -0.0697
    1W        W52318  26.858   3.351   7.915 -0.1127  0.1521 -0.3598
    1W        W52319   2.606   1.378   1.281 -0.2564  0.0825  0.2316
    1W        W52320   9.180  24.400   2.082 -0.1807  0.1824  0.1784
    1W        W52321  18.779  12.637   0.890 -0.0230 -0.0567  0.1912
    1W        W52322  20.395  23.626   1.113  0.3290  0.0237  0.0823
    1W        W52323   6.004   0.923  10.237 -0.0392  0.0795  0.3747
    1W        W52324   8.581   4.775   2.329 -0.2001  0.0681  0.2628
    1W        W52325  19.251  19.089   8.789  0.1783 -0.0063  0.0818
    1W        W52326  26.890   4.192   2.313 -0.2120 -0.1160 -0.1320
    1W        W52327  11.844   1.150   9.442 -0.0656  0.4177  0.3262
    1W        W52328  11.003   0.679   9.974  0.4317 -0.0413 -0.0564
    1W        W52329   6.472  11.470   7.364 -0.4017  0.0767 -0.1042
    1W        W52330  15.642   6.279   0.317 -0.2338 -0.0668 -0.1454
    1W        W52331   9.592  24.454   2.409 -0.0715 -0.0270  0.0763
    1W        W52332  12.820   7.760   9.752  0.1226 -0.0326 -0.0758
    1W        W52333  17.298   3.403   9.061 -0.1739  0.0050  0.0103
    1W        W52334  14.261  18.662   2.638 -0.1348 -0.2016 -0.1069
    1W        W52335   9.495  18.836   0.627 -0.2401  0.3109 -0.0008
    1W        W52336  18.858  19.030   9.211 -0.0959 -0.2190 -0.0682
    1W        W52337   8.728  27.223   6.640 -0.1304 -0.1508 -0.2526
    1W        W52338  20.575   2.217   0.196  0.1572  0.2473 -0.0067
    1W        W52339   6.033   2.034   9.233  0.3812  0.2226 -0.2681
    1W        W52340  12.236   8.530   9.767 -0.0611  0.0831 -0.4886
    1W        W52341   0.213  16.137   8.174  0.1353 -0.0750  0.0013
    1W        W52342  21.617  24.713   8.710 -0.0440 -0.0106  0.2243
    1W        W52343   0.326  14.599   6.494  0.2201 -0.2456  0.0744
    1W        W52344   8.215  26.080   7.689  0.2485 -0.1980 -0.0693
    1W        W52345   0.280  18.793   8.246  0.1969  0.0079 -0.1538
    1W        W52346  10.487  26.203   0.221  0.1175  0.0690  0.4922
    1W        W52347  16.246  27.766   2.252  0.1350  0.0945 -0.3794
    1W        W52348   0.868   2.960  10.020  0.2369  0.0389 -0.2836
    1W        W52349  13.171   2.364   3.419  0.1504  0.1371  0.2053
    1W        W52350  16.430  19.703   1.773  0.0522 -0.0838  0.0900
    1W        W52351  20.031   8.395   2.542  0.2007 -0.2427 -0.2455
    1W        W52352  10.278  24.756  10.043  0.2597 -0.1622 -0.0773
    1W        W52353  17.512  11.240   3.244 -0.0272 -0.0899 -0.0322
    1W        W52354  22.062  14.856   9.641  0.0959 -0.1515  0.3596
    1W        W52355  14.410  21.823   9.627 -0.1266  0.1821  0.1246
    1W        W52356  20.508  26.855   2.887  0.0356 -0.2734  0.1167
    1W        W52357  18.689  16.674   3.493  0.1757  0.0157 -0.1338
    1W        W52358   2.753  24.007   7.638 -0.0788 -0.0532  0.0521
    1W        W52359  13.189  27.205   0.343  0.3345 -0.3846  0.2295
    1W        W52360  24.338  27.721   0.915  0.0281  0.3320 -0.0960
    1W        W52361   8.434  12.059   2.955  0.1658 -0.1888  0.1942
    1W        W52362  21.139  26.872   6.990  0.2090  0.1565 -0.1378
    1W        W52363  16.106   1.694   2.845 -0.0299  0.2877  0.2245
    1W        W52364  14.283  24.543   0.548  0.0176 -0.1732  0.2329
    1W        W52365  24.231  25.981   2.958  0.4853 -0.3048 -0.0031
    1W        W52366  19.933  25.108   3.169  0.0256  0.0961 -0.1554
    1W        W52367  24.560  21.176   8.504 -0.0007 -0.2496  0.1328
    1W        W52368  15.996  17.740   1.477 -0.3108 -0.2604 -0.1744
    1W        W52369  14.220  12.509   8.820  0.2791 -0.1917 -0.1327
    1W        W52370   9.570  13.617   7.409  0.0295  0.0717  0.2139
    1W        W52371   4.019  17.434   2.403  0.0807 -0.0562  0.1033
    1W        W52372  17.829   0.380   8.619  0.2568 -0.0262 -0.0605
    1W        W52373   0.481   0.003   2.888 -0.0167  0.0909  0.0819
    1W        W52374   5.834  11.653   7.097 -0.0453  0.1207  0.2294
    1W        W52375   5.051  16.735   0.036 -0.1964 -0.2153  0.0575
    1W        W52376   0.591  17.384   0.753  0.0466 -0.0282  0.0567
    1W        W52377   2.405   5.682   7.096  0.2844 -0.0624  0.1838
    1W        W52378  20.958   8.461   2.235  0.0438 -0.1377 -0.2526
    1W        W52379  10.559  17.451   2.164  0.3655 -0.2554 -0.2944
    1W        W52380   6.981  15.430   3.761  0.0804 -0.2993  0.1140
    1W        W52381  18.894  17.733   8.477 -0.0815 -0.0407 -0.1172
    1W        W52382  27.312  24.731   1.785 -0.0402 -0.0035 -0.0444
    1W        W52383  11.060  26.069   2.121  0.1649 -0.0441  0.1178
    1W        W52384   7.916  14.516   8.163  0.0006  0.0925 -0.0135
    1W        W52385  23.896  16.793   2.535 -0.1897 -0.0361  0.4377
    1W        W52386  15.111  13.703   2.210  0.1488  0.1890  0.0076
    1W        W52387   0.769  15.073   9.264  0.2606  0.1337 -0.0847
    1W        W52388   7.557  27.376   9.421  0.2869  0.4604 -0.0221
    1W        W52389   3.687  10.125   2.190 -0.1360  0.1368  0.0981
    1W        W52390  25.983  11.473   2.584  0.0963  0.2731 -0.1776
    1W        W52391   3.470  13.888   8.395 -0.4110 -0.1755 -0.1156
    1W        W52392   4.833  19.755   8.988 -0.0446 -0.2655  0.5192
    1W        W52393  14.909  10.664   3.124 -0.3448 -0.0770 -0.0244
    1W        W52394   4.881  26.682   2.402  0.5183  0.0502 -0.1869
    1W        W52395   1.409  20.133   0.491 -0.2006 -0.1029 -0.0143
    1W        W52396  20.553   1.266   2.446 -0.0968  0.0963  0.0605
    1W        W52397  15.386  24.730   7.774 -0.0177 -0.1034 -0.0484
    1W        W52398  21.569   0.098   2.956  0.0084 -0.2442  0.0077
    1W        W52399  13.516   1.619   0.604 -0.0192 -0.2233  0.0124
    1W        W52400  25.123   1.658   8.098  0.1668 -0.1801 -0.2499
    1W        W52401  15.133  21.141   9.673 -0.0872 -0.2225  0.2391
    1W        W52402  24.106  15.089   9.288  0.0457  0.1125  0.1333
    1W        W52403  26.722   3.964   2.695 -0.4645 -0.2117 -0.0577
    1W        W52404   5.903  12.687   1.928 -0.0569  0.0529  0.2571
    1W        W52405   6.650  21.072   0.637 -0.2194 -0.0219 -0.0435
    1W        W52406  22.371  17.922   2.573  0.3312 -0.4556  0.0003
    1W        W52407  10.227   0.963   7.930  0.0339  0.0228 -0.0473
    1W        W52408  26.092   4.426   7.719 -0.0970 -0.1135  0.1169
    1W        W52409   4.933  15.143   8.671  0.4670 -0.1936 -0.0469
    1W        W52410  24.448  25.627   0.230  0.0952  0.1681 -0.2512
    1W        W52411   0.178  19.089   2.550  0.2110  0.1332  0.2053
    1W        W52412  19.513   1.858   7.688 -0.1856 -0.0555 -0.0120
    1W        W52413  19.159   7.239   7.656  0.0857  0.0332 -0.1839
    1W        W52414  20.354  25.635   0.689 -0.1092  0.0760  0.2531
    1W        W52415  26.193  27.286   3.237  0.0995 -0.0411 -0.4699
    1W        W52416  10.413   5.103   8.313 -0.0565  0.3913  0.0876
    1W        W52417  27.403  24.034   0.984  0.0073  0.0027  0.2496
    1W        W52418   9.386  17.888   0.954 -0.0797  0.0024 -0.2040
    1W        W52419  17.622  23.344   0.254 -0.6112 -0.0931 -0.2101
    1W        W52420  14.892  23.947   6.365  0.4397  0.0812  0.0685
    1W        W52421   3.386   4.084   6.432  0.4330  0.2726  0.0612
    1W        W52422  22.973  15.626   3.607 -0.1474 -0.1177 -0.1406
    1W        W52423   0.646  19.318   8.877  0.0365  0.0464  0.0690
    1W        W52424   6.872  19.832   3.507  0.1194  0.0484  0.1696
    1W        W52425  19.857  25.241   9.131  0.0225  0.1977  0.0533
    1W        W52426   4.091  10.702   2.829 -0.5165 -0.0153  0.1798
    1W        W52427   9.206   1.695   6.838 -0.3098  0.0951 -0.1506
    1W        W52428  28.041   3.791   9.410  0.1031 -0.1271  0.2761
    1W        W52429  19.242  21.550   7.991  0.0202 -0.1541 -0.1245
    1W        W52430  18.172  16.770   8.447  0.2840 -0.0254  0.1897
    1W        W52431   5.901   2.290   9.968  0.0790  0.3129  0.0098
    1W        W52432  18.855  10.856   2.294  0.0808  0.2656 -0.1801
    1W        W52433   9.955  13.637   0.530 -0.3599 -0.0994  0.0205
    1W        W52434  27.382  24.654   9.192 -0.1900  0.1373  0.0488
    1W        W52435  21.614  16.617   0.622  0.0148 -0.3489  0.0686
    1W        W52436   6.251   3.735   9.022  0.0097  0.0544  0.2274
    1W        W52437  15.273  26.213   2.884  0.0085  0.0293 -0.1461
    1W        W52438  12.150  14.974   7.974 -0.1835  0.0044 -0.1042
    1W        W52439  24.106  19.907   9.542 -0.0278 -0.0191 -0.4247
    1W        W52440  13.379   4.359   9.697 -0.0360  0.2062  0.0998
    1W        W52441  19.778  17.727   1.969 -0.1840 -0.0155  0.0065
    1W        W52442   1.221  27.995   2.756 -0.2541  0.1633 -0.2853
    1W        W52443  26.647  22.083   0.839 -0.3213 -0.4677 -0.1473
    1W        W52444   0.637   5.339   1.317 -0.1350 -0.0220  0.1594
    1W        W52445  22.080  26.841   8.621 -0.0761 -0.2181 -0.3096
    1W        W52446   0.785   3.024   8.717  0.2074  0.1126  0.0272
    1W        W52447   2.444  23.599   8.805  0.5023 -0.0490  0.1383
    1W        W52448  20.783  19.313   9.950 -0.1309  0.1242 -0.2706
    1W        W52449   0.650  14.307   8.806  0.2054  0.0867 -0.1310
    1W        W52450   5.882  16.981   0.899 -0.1351  0.1032 -0.2280
    1W        W52451  20.395  26.181   1.624  0.1620 -0.1883 -0.3921
    1W        W52452   1.429   2.492   1.363  0.0008  0.3199  0.0628
    1W        W52453   6.994  16.111   7.915 -0.0827  0.1273  0.0956
    1W        W52454  20.011  20.515   9.508 -0.0255 -0.0049 -0.0840
    1W        W52455   4.196   3.702   9.696 -0.3217 -0.0837  0.1063
    1W        W52456   7.481   1.519   7.275 -0.0759 -0.1157  0.0312
    1W        W52457  16.768  11.151   9.639 -0.0132  0.2302  0.0431
    1W        W52458   3.233  15.374   2.770 -0.0237 -0.0304 -0.0843
    1W        W52459  24.789   9.998   1.220  0.1805  0.1588 -0.2038
    1W        W52460  23.482  18.772  10.099  0.0531 -0.2893  0.1732
    1W        W52461  14.496  19.392   7.450 -0.1710  0.1002  0.0116
    1W        W52462   6.974   9.559   6.647 -0.2140  0.2403 -0.0946
    1W        W52463  28.107  15.019   0.024  0.0180 -0.0022  0.2062
    1W        W52464  24.065  25.258   1.004 -0.1630 -0.0807 -0.1554
    1W        W52465   9.183  14.007   8.707 -0.2923  0.0902  0.0748
    1W        W52466   2.881  13.699   2.145  0.1063 -0.0025 -0.0985
    1W        W52467  11.540  20.216   3.605 -0.2699  0.0224  0.3261
    1W        W52468  26.668  23.056   6.863  0.0475  0.0412 -0.1867
    1W        W52469   4.988   4.657   1.673  0.2768  0.1644  0.0417
    1W        W52470  17.596  25.214   6.955 -0.3151 -0.1669 -0.2901
    1W        W52471  16.260   5.482   0.954  0.1032  0.2757  0.0814
    1W        W52472  27.420   5.533   9.814  0.0123 -0.0950 -0.1086
    1W        W52473  26.172  22.685   1.975 -0.0008 -0.1473  0.0620
    1W        W52474   8.369  12.656   9.534 -0.2074  0.0084 -0.1266
    1W        W52475  16.039   1.814   9.359 -0.0456 -0.1572 -0.0201
    1W        W52476   3.071  25.268   9.219 -0.2010 -0.2719 -0.0020
    1W        W52477   3.578  11.250   2.234 -0.4379  0.0281  0.1300
    1W        W52478  16.981  14.003   2.729 -0.0646  0.0467  0.0814
    1W        W52479  19.970   0.952  10.210  0.1355 -0.4036  0.0235
    1W        W52480  16.603   6.520   7.725 -0.0263  0.1216  0.0035
    1W        W52481   7.714   0.429   0.875  0.0758  0.0362  0.0724
    1W        W52482   6.988   1.554   9.127  0.0337  0.1269  0.0095
    1W        W52483  14.712   1.429   9.371  0.0888 -0.1415 -0.0028
    1W        W52484   7.283  21.044   2.622 -0.0979 -0.3089 -0.0999
    1W        W52485   1.221  27.140   7.843  0.3415 -0.1933  0.0770
    1W        W52486   6.079  16.720   3.771  0.3190 -0.0871  0.0528
    1W        W52487  23.993  19.456   7.593  0.2130 -0.1425  0.2847
    1W        W52488  12.934  16.583   2.807  0.2847  0.2845  0.2321
    1W        W52489   5.236  20.291   9.751 -0.0762 -0.1071 -0.3290
    1W        W52490  10.034   8.487   3.076 -0.0521  0.2713 -0.2513
    1W        W52491   1.311  19.651   1.873  0.0957  0.0307 -0.3473
    1W        W52492  19.621  22.395   2.566  0.0856 -0.0567  0.2119
    1W        W52493  11.412   5.960   8.969 -0.1171  0.3131  0.1224
    1W        W52494   9.294  18.867   1.070  0.0339  0.0571 -0.1452
    1W        W52495   4.002  10.442   0.622 -0.1591  0.0832  0.1324
    1W        W52496   6.055   0.036   0.735  0.1177  0.0703 -0.1415
    1W        W52497  19.161  17.073   3.156 -0.1734 -0.0149  0.2621
    1W        W52498  24.779  20.155   7.679  0.1796 -0.5511  0.1538
    1W        W52499   2.446  26.491   7.542  0.1707  0.1756 -0.0431
    1W        W52500   3.709  11.897   9.810  0.3137 -0.1796 -0.1818
    1W        W52501  24.339  20.481   8.287  0.1226 -0.1738  0.1268
    1W        W52502   1.334  18.100   3.276  0.0141  0.0886  0.2784
    1W        W52503  11.327   5.780   3.249  0.1656 -0.0973 -0.1522
    1W        W52504   1.656  11.919   1.198 -0.0260  0.0346  0.2166
    1W        W52505  10.870   2.004   2.126  0.2362  0.0647  0.0981
    1W        W52506   6.903   2.178   7.557 -0.1542 -0.2735  0.4246
    1W        W52507   5.017  16.655   2.192 -0.0602  0.0714 -0.2420
    1W        W52508   3.633   3.486   9.941  0.2551 -0.0389 -0.0445
    1W        W52509  25.768  21.207   7.529  0.1060  0.1196 -0.0638
    1W        W52510   8.872   4.850   0.468 -0.1284  0.0267 -0.1992
    1W        W52511  19.437  17.517  10.145 -0.3861  0.0527  0.0054
    1W        W52512  18.252  19.722   2.037  0.1419 -0.0791 -0.0998
    1W        W52513  20.115  20.901   0.052 -0.1553 -0.1919  0.1196
    1W        W52514  19.169  17.935   2.840  0.1644 -0.2481 -0.1117
    1W        W52515  21.010   5.569   9.357  0.0166 -0.0722  0.1983
    1W        W52516  24.333  16.741  10.019 -0.0161 -0.2863  0.1482
    1W        W52517   9.956  21.446   1.242  0.0629  0.6508  0.1993
    1W        W52518  20.602   6.862   8.849  0.1351 -0.0384  0.1114
    1W        W52519  14.893  14.820   8.835 -0.0544  0.1361 -0.0355
    1W        W52520   8.166  13.473   2.084  0.0808  0.0590 -0.2190
    1W        W52521  17.586  16.735   1.886  0.1143  0.0011 -0.1515
    1W        W52522  18.225   3.688   9.568 -0.0399  0.3342 -0.1733
    1W        W52523  27.870  18.734   0.891 -0.2551 -0.0897 -0.1628
    1W        W52524  20.377  17.617   8.433 -0.1705  0.1442  0.1912
    1W        W52525   7.540   6.122   8.283 -0.0347  0.3247 -0.0652
    1W        W52526   4.450   9.457   9.509  0.0984  0.3007 -0.1078
    1W        W52527  11.619   2.057   9.533  0.2207 -0.1493  0.0446
    1W        W52528   0.221  21.455   8.242 -0.2988  0.1208  0.0918
    1W        W52529   7.191   7.967   8.168  0.0545 -0.3802 -0.0476
    1W        W52530  20.388  19.997   0.399 -0.4170  0.5636 -0.0279
    1W        W52531   7.399  23.783   0.911  0.3209  0.3357 -0.0431
    1W        W52532  22.548   7.950   9.278 -0.1376  0.1885  0.1131
    1W        W52533   6.243   3.459   6.642  0.5524 -0.0550 -0.1106
    1W        W52534  19.054  12.687   3.009 -0.1967  0.0219 -0.0091
    1W        W52535   1.400  22.930   1.738  0.0032 -0.1727 -0.0578
    1W        W52536  23.090  23.211   8.061  0.0562 -0.2051  0.2929
    1W        W52537   5.027  11.296   8.917  0.2700  0.2182  0.2886
    1W        W52538  21.749  17.634   3.293  0.2083 -0.0343 -0.0916
    1W        W52539   6.411  25.182   2.440  0.1433 -0.2921  0.0090
    1W        W52540   8.940  13.466   2.143  0.1263 -0.1000  0.1758
    1W        W52541  15.599  14.133   1.473  0.0503 -0.2488  0.0298
    1W        W52542  23.361  24.650   1.325  0.1411  0.1114  0.0011
    1W        W52543  20.505  17.132   4.158 -0.1151 -0.1135  0.0991
    1W        W52544   8.649  20.210   8.205 -0.0670 -0.1103  0.0876
    1W        W52545  16.760  12.214   3.278 -0.0555 -0.2577  0.5069
    1W        W52546  15.052   5.843   2.205 -0.3620  0.1090  0.1188
    1W        W52547   4.038  16.661   9.573  0.2171  0.1628 -0.1170
    1W        W52548  18.453  16.527   9.082 -0.0737 -0.3047  0.1471
    1W        W52549   9.405  17.450   3.595 -0.1813  0.2087  0.2002
    1W        W52550  20.922  11.141   3.271  0.3616  0.1040  0.2773
    1W        W52551  17.546  21.223   0.259 -0.2742  0.1415 -0.1616
    1W        W52552  22.262  26.151   9.866  0.0676 -0.0542  0.0157
    1W        W52553  22.561  11.304   1.368 -0.1633  0.1102 -0.1927
    1W        W52554  21.525  18.556   0.531  0.1164 -0.0077 -0.0807
    1W        W52555  25.674  24.159   9.521  0.2477 -0.2293 -0.1663
    1W        W52556  11.029  17.886   8.374 -0.2148  0.0114 -0.0379
    1W        W52557   1.117  22.982   2.234 -0.3814  0.0871 -0.1396
    1W        W52558  27.135  14.381   9.704  0.1518 -0.2391 -0.2509
    1W        W52559   0.532   0.394  10.187 -0.2076 -0.1979 -0.0849
    1W        W52560  17.069  26.145   7.875  0.1812  0.5598 -0.1064
    1W        W52561  17.001  21.376   0.319  0.1710  0.1156 -0.0713
    1W        W52562  10.216  15.089   0.556 -0.0145  0.2102  0.1808
    1W        W52563  14.338  15.324   3.046 -0.1463  0.2450 -0.0862
    1W        W52564  14.648  17.433   1.734 -0.1228 -0.0813  0.0499
    1W        W52565  11.532   2.462   8.661  0.2157  0.2311 -0.0403
    1W        W52566  15.070  14.719   1.183 -0.0823  0.0027  0.0995
    1W        W52567  11.120   7.368   1.638 -0.0136  0.1338 -0.0920
    1W        W52568  23.145  10.182   7.857  0.0148  0.2603  0.0870
    1W        W52569   3.740  19.455   9.612  0.3527  0.0713 -0.0075
    1W        W52570  26.020  23.605   0.438 -0.1950  0.0918  0.0520
    1W        W52571  27.424  13.301  10.110 -0.1642  0.0699  0.2359
    1W        W52572   8.061   1.054   1.279 -0.0630 -0.1616 -0.4642
    1W        W52573  15.235  20.615   0.027 -0.1084  0.0310  0.1847
    1W        W52574   6.678  13.953   8.229 -0.0195 -0.1659 -0.1676
    1W        W52575   8.391  16.604   3.173  0.1228 -0.1982  0.0432
    1W        W52576  14.463   6.164   0.501 -0.2635 -0.3103 -0.2313
    1W        W52577   0.863  12.968   6.659 -0.1222  0.2066  0.0777
    1W        W52578  12.395   9.371   8.451 -0.0504  0.0177  0.0650
    1W        W52579  28.018  14.698   2.838 -0.1868 -0.2033  0.2048
    1W        W52580  15.788  18.154   6.807  0.2675 -0.0206  0.2069
    1W        W52581  14.919  27.800  10.270 -0.0266  0.0940  0.1169
    1W        W52582  12.075  17.895   0.999 -0.0241 -0.2388  0.0455
    1W        W52583  15.459  21.597   9.618  0.2357  0.0106 -0.0198
    1W        W52584  18.124  12.152   7.883  0.0453  0.1195 -0.1275
    1W        W52585   4.166  25.117   7.731  0.1674  0.2221 -0.1223
    1W        W52586  17.785  26.634   2.585  0.2434  0.1546 -0.0019
    1W        W52587  13.805   1.407   1.977 -0.0948 -0.0297 -0.3060
    1W        W52588   7.508  14.934   8.941 -0.1664 -0.1224  0.3641
    1W        W52589  11.387  18.092   0.806 -0.1693  0.0497  0.1533
    1W        W52590   4.968  10.288   1.217 -0.2489 -0.1549 -0.2601
    1W        W52591   7.241   6.933   9.957 -0.4135 -0.2755 -0.0812
    1W        W52592  24.051   1.077   9.418 -0.0338 -0.0069 -0.0572
    1W        W52593  10.672  20.321   7.495  0.0822  0.1577 -0.1727
    1W        W52594  26.029   6.082   7.004  0.3796 -0.3149 -0.0262
    1W        W52595  12.016  24.351  10.119  0.2633 -0.3242  0.0938
    1W        W52596  20.995  11.949   9.220  0.0170 -0.2011 -0.2374
    1W        W52597  13.485   5.776   0.379 -0.0159  0.1181  0.1039
    1W        W52598  14.776   6.729   7.601 -0.0154 -0.0194  0.0551
    1W        W52599  16.972  15.095   1.505  0.0887  0.1447  0.1063
    1W        W52600  17.046  27.332   8.593  0.0266 -0.3586 -0.3701
    1W        W52601  11.946  20.008   0.264  0.1696 -0.2256  0.0573
    1W        W52602  21.627   6.971   2.113  0.4117 -0.1021  0.0256
    1W        W52603  13.503   8.973   0.159 -0.3435  0.0912 -0.0633
    1W        W52604   5.241  25.662   8.472  0.1111  0.3308 -0.1504
    1W        W52605  13.737  17.905   9.370 -0.1176  0.3507  0.0657
    1W        W52606   1.092   8.693   6.912 -0.0161  0.3507 -0.0077
    1W        W52607   1.237  11.159   9.415  0.0047 -0.1377 -0.1075
    1W        W52608  14.202  13.270   8.235  0.1207 -0.0889  0.1635
    1W        W52609   6.761  14.709   0.233  0.2446  0.0362 -0.3536
    1W        W52610  15.273  25.367   2.175  0.0274  0.1853 -0.0986
    1W        W52611  17.808  21.250   0.768  0.0005 -0.0489 -0.0191
    1W        W52612  22.288  27.509   1.824  0.3437 -0.3645  0.0369
    1W        W52613   8.697  11.799   1.015 -0.1799  0.1946 -0.2362
    1W        W52614   5.619  26.109   1.334 -0.1351 -0.2090 -0.0787
    1W        W52615  26.951  19.068   8.162  0.1344 -0.0903 -0.1466
    1W        W52616  16.635  13.587   2.894  0.0323  0.0166 -0.2112
    1W        W52617  16.825  25.076   2.297 -0.1488  0.0383  0.0049
    1W        W52618  20.001  10.744   0.879  0.0933  0.2591 -0.1807
    1W        W52619  11.125   2.697   8.233 -0.0369  0.1058 -0.4514
    1W        W52620  23.110  18.371  10.023  0.0723 -0.2738 -0.3461
    1W        W52621  26.445   3.221   2.192 -0.0478  0.2454 -0.2508
    1W        W52622  21.137  26.769   9.880 -0.1412  0.1039  0.0606
    1W        W52623  24.843  17.360   7.705 -0.3592 -0.2220  0.0448
    1W        W52624   9.011   3.422   8.201 -0.1321  0.1176 -0.5722
    1W        W52625  10.718  11.018   3.374  0.1429  0.0233  0.0417
    1W        W52626  12.941   8.901   8.947  0.0251 -0.0063  0.1462
    1W        W52627  10.220  27.455   9.148 -0.0986 -0.0728  0.4297
    1W        W52628  25.766  14.193   9.743 -0.1038  0.1171 -0.4226
    1W        W52629  26.587  25.729   9.870  0.0688 -0.3685 -0.4499
    1W        W52630   9.650   5.634   1.159 -0.1570 -0.0521 -0.1175
    1W        W52631  26.516  21.276   1.167  0.4781 -0.3493 -0.1981
    1W        W52632   8.845  23.751   9.357  0.2838  0.2192 -0.1006
    1W        W52633  20.715  11.483   7.046 -0.0361 -0.1561  0.1608
    1W        W52634   0.406   6.028   6.768  0.0843  0.0178 -0.1797
    1W        W52635   2.166   6.174   9.381  0.0081  0.1511  0.0077
    1W        W52636  23.640  10.904   1.873 -0.0782  0.0330 -0.0231
    1W        W52637  16.324  15.546   8.100  0.1292 -0.0540  0.0874
    1W        W52638   0.067   9.475   8.157  0.2882  0.0174 -0.3373
    1W        W52639  26.569   3.469  10.353 -0.0962  0.0171  0.2109
    1W        W52640   4.476  20.996   8.281  0.3258  0.0818  0.1290
    1W        W52641  22.859   1.026   7.742 -0.1554  0.2439  0.2683
    1W        W52642  26.843   4.901   7.974  0.0831  0.2314  0.0041
    1W        W52643   1.054   8.829   0.982 -0.0351  0.3792 -0.0133
    1W        W52644   9.764   2.870   9.052 -0.0545 -0.0573  0.0761
    1W        W52645   1.863  17.908   1.150  0.2440 -0.0153 -0.2426
    1W        W52646  22.683   5.304   7.135  0.0028 -0.2139 -0.0086
    1W        W52647  17.895  16.364   8.312 -0.2983 -0.1731  0.3113
    1W        W52648   8.048   3.770   0.671 -0.0325  0.0142 -0.0167
    1W        W52649  16.465   4.221   0.971 -0.0277  0.2229  0.1205
    1W        W52650   2.992  15.082   2.088  0.0257 -0.0610 -0.0366
    1W        W52651   5.289  19.621   9.358 -0.3520 -0.2428  0.0868
    1W        W52652  22.440   7.719   2.350 -0.0564 -0.1288 -0.1113
    1W        W52653  25.135  26.761   2.235  0.0306 -0.2036  0.3198
    1W        W52654  26.720   2.960   9.329  0.1444 -0.0152  0.1575
    1W        W52655   0.434  22.056  10.309  0.1474  0.0639  0.1475
    1W        W52656  21.989  10.203  10.020 -0.3540  0.0721 -0.0691
    1W        W52657   5.940  24.593   1.462  0.1285 -0.4144  0.0330
    1W        W52658   1.456  23.196   9.607  0.1323  0.0405  0.1187
    1W        W52659  19.445  16.694   8.446 -0.0640  0.1526 -0.0134
    1W        W52660  11.025  21.432   1.214 -0.3113  0.1080  0.1018
    1W        W52661   2.035  25.794   7.992  0.1434 -0.1691  0.0484
    1W        W52662  12.485   5.661   9.217  0.2233  0.1884 -0.2885
    1W        W52663   2.223  20.360   1.018 -0.1580 -0.2044 -0.0218
    1W        W52664  26.757   1.975   7.254 -0.0150 -0.2738 -0.2062
    1W        W52665  15.403   9.163   8.906  0.4499 -0.0737  0.0261
    1W        W52666   8.378  26.747   9.302 -0.4160 -0.1632 -0.0672
    1W        W52667  24.083  18.482   7.894 -0.1153 -0.2840 -0.0152
    1W        W52668   3.324  24.535   8.880 -0.2471  0.3412 -0.1300
    1W        W52669   0.451  12.042   0.280  0.3238 -0.0860  0.0200
    1W        W52670   1.062  14.676   9.907 -0.0512 -0.2610 -0.1487
    1W        W52671   1.331   5.645   6.811 -0.0936 -0.1175  0.0756
    1W        W52672  20.039   2.404   0.019 -0.2335 -0.6686  0.1493
    1W        W52673   0.519  16.561   8.037 -0.1081 -0.1577  0.1610
    1W        W52674  20.543  18.551   8.571 -0.0374  0.3634  0.1010
    1W        W52675   2.293  10.120   2.733  0.0762 -0.1468 -0.1470
    1W        W52676  26.537  23.976   1.469 -0.2013 -0.3268 -0.1495
    1W        W52677   3.901  10.264   8.503 -0.0769 -0.3071  0.0883
    1W        W52678  12.296  21.201   7.509 -0.0762 -0.2298 -0.0058
    1W        W52679  12.633   7.901   8.372 -0.2021  0.0126  0.3672
    1W        W52680  14.064  20.197   7.436 -0.1138  0.1014  0.3817
    1W        W52681  19.970  15.909   8.973  0.0215 -0.2784  0.1280
    1W        W52682  14.931  25.219   3.108 -0.1189 -0.2672 -0.1946
    1W        W52683  15.808  26.885   9.977  0.0540  0.1142  0.1922
    1W        W52684  16.136  19.603   9.424 -0.1692 -0.1368  0.3007
    1W        W52685   9.180   2.587   9.105  0.1458  0.0464  0.1044
    1W        W52686  15.321  26.443   1.886  0.3267  0.1830 -0.0754
    1W        W52687   9.706   2.485   9.501 -0.0305 -0.1292  0.0465
    1W        W52688   6.800  24.115   0.414 -0.0171  0.1616 -0.0364
    1W        W52689  16.201   7.111   9.123 -0.0452  0.3570  0.2360
    1W        W52690  22.000  18.420   2.434  0.2345  0.4820  0.1303
    1W        W52691   0.958  20.087   6.124  0.0478 -0.0047  0.4388
    1W        W52692  17.455  11.624   1.254 -0.1749  0.2638 -0.2194
    1W        W52693  14.555  15.191   0.380  0.0065  0.0289 -0.0171
    1W        W52694  22.769   0.148   9.700 -0.1119  0.0935 -0.2181
    1W        W52695  27.595  18.956   7.790 -0.0267 -0.0700  0.1081
    1W        W52696   0.064  11.375   0.838  0.1273  0.3024  0.2155
    1W        W52697   5.949  17.649   9.181 -0.2390  0.0351  0.0032
    1W        W52698   6.582   2.542   9.689 -0.5206  0.2361 -0.0285
    1W        W52699   6.799   4.405   0.018 -0.1396 -0.1788  0.1746
    1W        W52700  13.032  13.049   2.915  0.1228 -0.0242  0.0170
    1W        W52701  23.605   0.375   2.908 -0.2714  0.0479  0.3406
    1W        W52702  20.672  19.002   9.491  0.4438 -0.1498  0.0552
    1W        W52703   5.834  12.650   2.460  0.2681  0.1500  0.0069
    1W        W52704   5.747  10.558   8.665 -0.1791  0.3483  0.0658
    1W        W52705  25.086  26.843   8.525 -0.2411  0.1701  0.3813
    1W        W52706   2.627  17.400   0.874  0.0931  0.0359 -0.2282
    1W        W52707   4.139   5.486   1.532 -0.0189 -0.0703  0.1107
    1W        W52708  27.150  25.889   1.728 -0.0901  0.2687 -0.0797
    1W        W52709   9.752   7.253   1.234 -0.3087  0.0181  0.1305
    1W        W52710  23.244  17.506   2.283 -0.2963 -0.2140 -0.0705
    1W        W52711   0.969   2.810   1.372  0.0134  0.0756  0.1288
    1W        W52712  17.769   7.585   8.695  0.1355  0.0081  0.1214
    1W        W52713   2.707   7.469   8.695  0.3620 -0.0225  0.0619
    1W        W52714  14.125  24.079   1.841 -0.0740  0.0772 -0.0842
    1W        W52715  10.263   0.054  10.057 -0.2422 -0.1314 -0.0296
    1W        W52716   3.482  14.827   8.206 -0.2946 -0.1226 -0.1203
    1W        W52717  11.045  20.022   0.103 -0.2223 -0.1001  0.1005
    1W        W52718  22.419   9.926   2.436 -0.2118 -0.3065  0.1087
    1W        W52719  15.585  16.850   4.342 -0.0104  0.0824  0.1715
    1W        W52720  23.336   3.845   0.418 -0.1219 -0.1419 -0.0462
    1W        W52721   9.150   4.033   0.816  0.3373  0.3392  0.0283
    1W        W52722  20.856   2.157   8.461  0.0869  0.5173 -0.1088
    1W        W52723   5.024   6.087   8.273  0.0702 -0.0197 -0.0897
    1W        W52724  12.608   9.408   0.815 -0.1931  0.2931 -0.1077
    1W        W52725   8.861   7.202   1.206  0.0592  0.0427  0.1028
    1W        W52726   9.610  24.247   1.825  0.0112  0.1034  0.0149
    1W        W52727   0.522   9.019   9.594  0.2052 -0.1600 -0.1186
    1W        W52728  15.263   6.568   2.251 -0.3109 -0.0510  0.1355
    1W        W52729  13.826   7.390   2.056  0.0060  0.0685 -0.2375
    1W        W52730  22.732  23.697   7.384 -0.1313 -0.0995 -0.1896
    1W        W52731  14.047  19.588   7.259  0.0764  0.1823  0.0172
    1W        W52732  21.812  17.040   1.875  0.1379 -0.0526  0.3110
    1W        W52733   4.967   8.672   0.135 -0.1563 -0.0196  0.4571
    1W        W52734  12.952   7.577   1.990  0.1352  0.1871 -0.0450
    1W        W52735  23.298   3.340   2.327 -0.1353 -0.2018 -0.0971
    1W        W52736  24.542  15.850   2.024 -0.0335  0.2529 -0.0128
    1W        W52737  17.637  14.588   0.936 -0.1610 -0.0398  0.2816
    1W        W52738   0.697  12.867   1.685  0.1107  0.2036 -0.1108
    1W        W52739  13.198  26.290   2.724  0.0671 -0.1052 -0.2827
    1W        W52740  21.393  15.708   1.500  0.0052 -0.0080 -0.2804
    1W        W52741  19.293  18.279   9.205  0.1852 -0.2598  0.1081
    1W        W52742  22.709  25.804   2.694  0.2563  0.3015 -0.0923
    1W        W52743  14.833   9.445   8.819 -0.0141 -0.0548 -0.0780
    1W        W52744  15.590  21.448   7.767  0.1017  0.1311 -0.1347
    1W        W52745  11.415  17.737   0.431 -0.1385 -0.1075 -0.2699
    1W        W52746  25.927   7.058   9.123 -0.2463 -0.2611  0.1540
    1W        W52747  16.567  19.173   7.774 -0.0394 -0.1832 -0.2120
    1W        W52748   2.025  15.362   9.490 -0.2831 -0.0278 -0.0363
    1W        W52749  12.106  17.429   0.777 -0.1472  0.3519  0.0239
    1W        W52750   1.450   7.033   8.337  0.2211  0.0828  0.2356
    1W        W52751  24.697  23.975   8.404  0.0264 -0.2168  0.1223
    1W        W52752  26.088  23.592   1.330  0.0358  0.1087 -0.0748
    1W        W52753  27.946   9.920   7.985 -0.0999 -0.1859 -0.1862
    1W        W52754  19.528  13.865   2.674 -0.1668  0.0991 -0.0942
    1W        W52755  18.888  20.236   3.029  0.0151  0.2354  0.1848
    1W        W52756  19.899   9.445   1.130  0.3815  0.2098  0.1631
    1W        W52757  24.557   7.069   2.042  0.0921  0.0771  0.2228
    1W        W52758   8.446  22.726   7.545 -0.0008 -0.1213 -0.1157
    1W        W52759   6.152   9.106   6.865 -0.2118 -0.1470 -0.1817
    1W        W52760  20.552  20.308   0.990  0.2216  0.0510  0.1156
    1W        W52761  27.516   9.090   2.521  0.1435  0.2953 -0.1998
    1W        W52762  26.654  11.351   7.030  0.1172 -0.0209 -0.3435
    1W        W52763  21.917  19.847   9.500 -0.3503  0.0405  0.1270
    1W        W52764  24.203  18.081   2.193  0.0079 -0.0848 -0.2364
    1W        W52765  23.255  27.082   3.755  0.1253  0.2294 -0.0401
    1W        W52766  15.081  27.623   1.047  0.0622  0.0019 -0.2176
    1W        W52767   7.005   6.914   8.987  0.3040 -0.1975  0.1287
    1W        W52768   8.247  10.907   0.124  0.0299 -0.0924 -0.0222
    1W        W52769  27.906  16.729   8.726  0.1204  0.1889  0.1924
    1W        W52770  27.722  21.601   2.669  0.0331 -0.3825 -0.1139
    1W        W52771  20.507  10.527   2.064 -0.0390  0.0823 -0.3847
    1W        W52772   5.204  23.760   0.723 -0.0596  0.1988  0.2701
    1W        W52773  25.324  17.939   8.571  0.0649  0.1378  0.0700
    1W        W52774  22.125  10.568   3.744 -0.0116  0.0801  0.0133
    1W        W52775  24.176  13.606   1.624 -0.0823 -0.1224 -0.0124
    1W        W52776  12.463  23.540   1.359 -0.0056  0.2691  0.1793
    1W        W52777  10.636  13.579   2.264  0.1029  0.0926 -0.1079
    1W        W52778   7.128  25.840   8.645 -0.0404  0.1485  0.1320
    1W        W52779  22.414  16.723   9.715  0.0567  0.0598  0.1219
    1W        W52780  24.350  15.636   1.244  0.3107 -0.0838  0.1095
    1W        W52781  15.653   0.763   0.137 -0.1132 -0.1208 -0.2262
    1W        W52782  27.367  10.509   0.255  0.0997 -0.2036 -0.0807
    1W        W52783  12.835  19.285   1.424 -0.2406  0.2222  0.0498
    1W        W52784  19.111  13.004   8.187  0.0988  0.1818 -0.0477
    1W        W52785  12.656  27.828   7.976 -0.0676  0.2890  0.0195
    1W        W52786  19.540  12.110   0.360  0.1543  0.3135 -0.0286
    1W        W52787  25.363  21.943   6.922  0.1146 -0.0836  0.2271
    1W        W52788   2.747   1.452   7.854 -0.1057 -0.3936 -0.1424
    1W        W52789  11.240  21.345   1.765 -0.0304  0.1291  0.3378
    1W        W52790   9.491  26.091   0.515 -0.0401  0.0150 -0.5273
    1W        W52791  15.841   4.218   1.971  0.1805  0.2072  0.0311
    1W        W52792  20.589  17.985   9.311  0.1865  0.2136  0.1249
    1W        W52793  13.759  19.044   0.739  0.1816  0.0442  0.0831
    1W        W52794   0.840  13.633  10.219 -0.0175  0.0935 -0.0628
    1W        W52795  18.119  14.973   8.483  0.3427 -0.1353  0.1872
    1W        W52796  19.630   6.931   2.600 -0.0832  0.0425  0.1617
    1W        W52797   1.823  26.109   7.264  0.1568  0.1780 -0.2740
    1W        W52798  20.911   2.375   3.429  0.1247 -0.2557  0.0662
    1W        W52799  11.839  20.518   1.276  0.2253 -0.0908 -0.0536
    1W        W52800   7.773   9.109   9.215  0.0612  0.2187 -0.0975
    1W        W52801  14.796  20.367   3.245  0.1655 -0.0809 -0.0682
    1W        W52802  26.970  25.798   2.580 -0.4617 -0.1075 -0.3364
    1W        W52803  15.781   1.218   1.591  0.1995 -0.0238  0.4683
    1W        W52804  21.682  11.424   7.901  0.1480  0.0865  0.2128
    1W        W52805   5.869  19.244   8.252 -0.0246 -0.0226  0.1772
    1W        W52806   3.769  18.108   9.189  0.2228 -0.0144  0.0060
    1W        W52807  19.030  14.036   3.824  0.1551  0.0996  0.0587
    1W        W52808  16.819  12.387   2.808 -0.2577 -0.0493  0.0029
    1W        W52809   3.885   7.893   0.940 -0.0209  0.3203  0.2246
    1W        W52810   1.827  26.573   6.862  0.1288 -0.1719  0.1695
    1W        W52811  22.827  23.110   9.895  0.0457  0.0212  0.0299
    1W        W52812  13.076  18.297   0.181 -0.1714  0.2125 -0.3918
    1W        W52813  24.172  13.683   0.612  0.1391  0.2927  0.1237
    1W        W52814  13.620  26.933   9.220  0.1135 -0.1699  0.2539
    1W        W52815  27.346   9.314   9.772 -0.1271 -0.0682  0.5721
    1W        W52816   4.665   3.627   7.258 -0.4589  0.1202  0.1185
    1W        W52817  16.488  22.201   1.363 -0.0861 -0.0547  0.1418
    1W        W52818   5.018  23.469   2.327  0.0310 -0.0100  0.0198
    1W        W52819  15.174  18.401   1.441 -0.0572  0.0725  0.0842
    1W        W52820  22.159  24.690   6.766 -0.0072  0.1600  0.1272
    1W        W52821  25.016   1.483   7.548  0.0658  0.1385 -0.2386
    1W        W52822  24.700  11.008   8.759 -0.3650  0.0579 -0.1986
    1W        W52823   5.092   3.388   9.376 -0.2946  0.1562 -0.0945
    1W        W52824   6.333   5.318   9.377  0.1917 -0.1546 -0.3635
    1W        W52825   8.618  11.464   4.078  0.0050  0.1900  0.0586
    1W        W52826   3.866  18.419  10.150  0.1493  0.1796 -0.3492
    1W        W52827  12.077  12.526   1.093 -0.1724 -0.0080  0.2147
    1W        W52828  25.680  17.453   8.098  0.0639 -0.1988 -0.1380
    1W        W52829   4.194   1.846   8.413 -0.0448  0.0281  0.1276
    1W        W52830   0.787   8.609   2.587 -0.0226  0.2337  0.1025
    1W        W52831   7.718  26.292   7.679 -0.2830  0.0228 -0.1880
    1W        W52832   1.843   2.802   7.359  0.1116 -0.1783  0.1042
    1W        W52833  11.931   4.836   3.153 -0.2189 -0.0929 -0.0110
    1W        W52834  25.110   6.522   8.250  0.0788 -0.0404  0.0685
    1W        W52835   9.160  15.034   8.764 -0.1258 -0.1830  0.0345
    1W        W52836  15.035  19.370   0.955 -0.0785  0.0083 -0.2676
    1W        W52837   5.064   7.373   8.175  0.1954  0.2435 -0.1585
    1W        W52838  13.766  14.788   0.966  0.0721 -0.0240  0.1379
    1W        W52839  20.009  24.219   8.996  0.0155 -0.1268  0.0004
    1W        W52840  21.565  13.499   9.766 -0.2200  0.0015 -0.0838
    1W        W52841  24.522  18.111   9.802 -0.1112 -0.1494 -0.2663
    1W        W52842  15.999  21.933   2.762 -0.0040 -0.3103  0.3286
    1W        W52843  23.614  15.079   2.352 -0.1120  0.2841 -0.1206
    1W        W52844  22.445  27.487   8.307  0.2672 -0.2065  0.1896
    1W        W52845  13.696  10.567   9.504  0.0146  0.3040  0.0052
    1W        W52846   4.577  20.189   7.782 -0.2183  0.0414 -0.1144
    1W        W52847  16.328   2.045   3.099  0.0147 -0.3250  0.0070
    1W        W52848  26.632  10.148   0.447  0.1520  0.2125 -0.1556
    1W        W52849  27.395   4.485   8.727  0.1083 -0.1135 -0.1480
    1W        W52850  24.268  11.190  10.121 -0.0093  0.0792 -0.2681
    1W        W52851  27.347  25.670   2.942 -0.1347  0.1872 -0.2370
    1W        W52852   2.689  11.115   0.680 -0.0564  0.1471  0.2273
    1W        W52853  24.237  17.754  10.105 -0.1243 -0.4411 -0.0287
    1W        W52854  12.943   9.592   0.419 -0.0160 -0.2091 -0.0511
    1W        W52855  22.227  23.328   7.967 -0.0503  0.2991 -0.3046
    1W        W52856   2.996  12.250   9.313  0.4522  0.1456 -0.1867
    1W        W52857   6.285   8.853   7.833 -0.0808  0.2125 -0.0729
    1W        W52858  13.367  20.128   2.177  0.0764  0.1054 -0.2782
    1W        W52859  26.947  15.758   7.640  0.2022  0.0196  0.3000
    1W        W52860  25.980  17.769   2.379 -0.0629 -0.0291 -0.0271
    1W        W52861  19.756  27.261   2.770  0.1915  0.0565 -0.0421
    1W        W52862   0.222  14.520   2.490 -0.0853  0.0494 -0.0573
    1W        W52863  18.864  13.862   9.045  0.1577 -0.0243 -0.2425
    1W        W52864   2.505   7.940   8.058  0.0837  0.1557  0.1153
    1W        W52865   6.880   2.230   7.081  0.0674 -0.3096 -0.1573
    1W        W52866  26.954   3.295   7.326  0.2520  0.1513  0.0656
    1W        W52867  27.194  19.808   7.171  0.1247 -0.0995  0.0010
    1W        W52868   0.161   1.672   9.134 -0.3457  0.0270  0.2106
    1W        W52869  11.248   5.813   1.034 -0.3079 -0.2630  0.1313
    1W        W52870  21.164  17.604   0.473  0.1769 -0.3825 -0.0307
    1W        W52871  11.113  18.658   2.748  0.0714  0.2523 -0.2791
    1W        W52872  25.908   2.850   8.973  0.2482  0.1066  0.0613
    1W        W52873  11.514  25.747   1.163  0.1194 -0.1427  0.1358
    1W        W52874  23.590   2.716   2.950 -0.0619 -0.0430 -0.0350
    1W        W52875   4.142   8.855   0.919  0.3763  0.0643 -0.2570
    1W        W52876  17.945   8.452   0.142 -0.2013  0.3996  0.0063
    1W        W52877  27.983  21.217   8.570  0.0204  0.0666  0.1792
    1W        W52878  26.665   4.881   9.612 -0.1033  0.4843 -0.0766
    1W        W52879   9.197  16.910   9.167 -0.0942  0.0813  0.3443
    1W        W52880  12.981  18.984   9.060  0.0097  0.0039  0.3307
    1W        W52881  26.286   7.790   1.035 -0.0434  0.0020  0.0298
    1W        W52882  18.699  14.942   8.632 -0.1343  0.1200 -0.2068
    1W        W52883  12.879  10.958   1.610  0.0450 -0.0177 -0.1907
    1W        W52884  21.024  23.807   7.631 -0.1675  0.4055  0.2659
    1W        W52885   4.936  13.678   7.492  0.0652 -0.4182  0.2869
    1W        W52886   8.606  19.423   1.091  0.0710 -0.0744  0.0815
    1W        W52887   3.442   0.736   2.011  0.0194  0.0091  0.1564
    1W        W52888  19.668  20.163   9.572  0.0401 -0.3063  0.1883
    1W        W52889  14.548  17.735   0.739  0.0489  0.1683 -0.0461
    1W        W52890   7.822   5.131   7.258  0.0877 -0.2737  0.1675
    1W        W52891   7.325  27.934   1.206 -0.1010  0.0823  0.2023
    1W        W52892  19.770   8.395   0.675  0.0574 -0.2467 -0.0536
    1W        W52893  10.575  14.413   0.146 -0.0976 -0.1865 -0.1537
    1W        W52894   1.735  10.669   1.323  0.0285 -0.1885 -0.3411
    1W        W52895  23.136  26.054   9.931 -0.0465  0.3353  0.2584
    1W        W52896  27.340  27.952   6.712  0.2577 -0.0646 -0.0381
    1W        W52897   9.535  21.990   3.400 -0.2140  0.2094 -0.1027
    1W        W52898  18.359   1.063   9.817  0.2694 -0.0314  0.0838
    1W        W52899  12.962  16.283   3.452  0.0130  0.0600  0.0817
    1W        W52900  26.921  18.106   6.822 -0.3721 -0.1075 -0.3536
    1W        W52901  13.263  13.726   2.412  0.3511  0.0688  0.2216
    1W        W52902  11.533  23.918   7.136  0.1178  0.2523  0.2071
    1W        W52903  19.256  14.891   1.722 -0.2206  0.0935  0.0703
    1W        W52904  13.797  15.086   9.522  0.1100 -0.0771 -0.1800
    1W        W52905  11.064  21.722   3.058  0.3648  0.0280 -0.0440
    1W        W52906  17.037   8.847   0.006  0.0042  0.1882  0.1800
    1W        W52907  22.030  11.366   7.395 -0.2079 -0.0927  0.0298
    1W        W52908   1.085  27.562   1.486 -0.0916 -0.1056  0.2358
    1W        W52909  21.565  15.795   1.008 -0.1209  0.2142  0.0288
    1W        W52910   5.049  23.466   7.609  0.5029 -0.2626 -0.1194
    1W        W52911  10.822  23.239   8.990  0.3292  0.1708  0.1522
    1W        W52912  23.401  17.929   9.384 -0.2722 -0.1212 -0.0724
    1W        W52913  25.565   3.718   9.445  0.4415 -0.0609 -0.0171
    1W        W52914  19.802  16.654   0.085 -0.0043  0.0399 -0.1351
    1W        W52915  24.354  10.581   1.898  0.1090 -0.4040 -0.1590
    1W        W52916  19.524   0.031   2.709 -0.1770  0.1860 -0.1230
    1W        W52917  14.930  26.099   0.129 -0.0841 -0.0850 -0.0365
    1W        W52918  13.654   1.132   1.636  0.0831 -0.2064  0.0223
    1W        W52919   1.157  26.688   9.391 -0.0727  0.0599  0.1612
    1W        W52920  23.253  22.910   7.574  0.1540  0.1223  0.0988
    1W        W52921   0.808  20.351   7.687  0.0190 -0.2206 -0.1938
    1W        W52922  22.300  14.575   2.675 -0.1169 -0.3250  0.2748
    1W        W52923  27.854  28.106   8.162  0.2117 -0.2077  0.2192
    1W        W52924   3.546  17.438   9.859  0.2571 -0.1395  0.4093
    1W        W52925   7.447  27.630   1.576  0.2649 -0.0611 -0.2826
    1W        W52926   5.036  11.945   2.507 -0.0765 -0.2932 -0.0509
    1W        W52927  22.397   2.430   0.812  0.1012  0.1338 -0.1836
    1W        W52928  25.522   8.608   7.262 -0.0286  0.1492 -0.1694
    1W        W52929   8.360   5.398   1.671  0.1640  0.3691  0.1093
    1W        W52930  12.037   0.021   0.578 -0.1301 -0.0377  0.0216
    1W        W52931  13.102   3.928   0.595 -0.2522 -0.1136  0.0085
    1W        W52932  20.656  21.566   3.179  0.0355  0.1079  0.3287
    1W        W52933  10.324  10.213  10.301 -0.0110 -0.3260  0.0746
    1W        W52934  28.091  11.592   7.289  0.0115 -0.1656  0.1273
    1W        W52935  12.737  21.752   2.775  0.1172  0.1560  0.1892
    1W        W52936  19.389   3.847   8.583  0.1147 -0.2758 -0.1197
    1W        W52937   9.918   3.682   0.503 -0.0507  0.0885  0.0927
    1W        W52938  14.427  17.299   2.156  0.0700  0.1830 -0.0847
    1W        W52939   5.918  23.687   2.203 -0.6330  0.0388 -0.1862
    1W        W52940  15.520  10.260   1.713  0.0708 -0.0680 -0.0209
    1W        W52941  14.087   7.663   0.033 -0.1416  0.2142 -0.0433
    1W        W52942  27.021   4.062  10.219  0.0427  0.0208 -0.1631
    1W        W52943   9.511  26.065   8.882  0.0017  0.2308 -0.2659
    1W        W52944  18.602  16.927   8.813 -0.0084 -0.2325 -0.0414
    1W        W52945   5.603   0.600  10.320  0.0567 -0.0864 -0.0223
    1W        W52946  22.138   3.264   9.311  0.2902 -0.2286 -0.0826
    1W        W52947  26.700   4.463   7.737  0.1964 -0.1707  0.1469
    1W        W52948   8.061  19.758   2.284 -0.1264 -0.1754 -0.1503
    1W        W52949  17.131  21.227   7.200 -0.1190 -0.2159  0.0778
    1W        W52950  27.364  11.373   7.757 -0.0606 -0.2353  0.0910
    1W        W52951  15.864  14.315   0.549 -0.3755 -0.0722 -0.1021
    1W        W52952   1.382  19.555   6.939 -0.0323 -0.3469 -0.1868
    1W        W52953  11.125  14.262   1.662 -0.1600 -0.0204  0.0897
    1W        W52954  21.955  18.958   2.492 -0.0342 -0.0488  0.1174
    1W        W52955  10.735  22.243   0.400 -0.0093  0.1922 -0.0930
    1W        W52956   8.887   3.105   0.755  0.2427 -0.1079 -0.2608
    1W        W52957  11.486  16.522   3.179 -0.0203 -0.4437  0.1519
    1W        W52958   3.741  22.218   0.583 -0.0025  0.1734 -0.2385
    1W        W52959   3.760  12.510   1.795 -0.1178  0.0212  0.1626
    1W        W52960  16.833  21.392   7.534 -0.0189  0.2832 -0.4071
    1W        W52961  23.860  11.196   0.135 -0.1107  0.0921 -0.2466
    1W        W52962   4.204   9.391   8.579 -0.0648  0.1277  0.2392
    1W        W52963  18.422  10.746   2.042  0.0092 -0.3574 -0.0841
    1W        W52964  19.492  27.671  10.181  0.2534 -0.1704 -0.2083
    1W        W52965  19.755   6.361   0.985 -0.0589  0.2121 -0.0516
    1W        W52966   8.878   6.156   9.457  0.1588  0.0096 -0.0753
    1W        W52967   0.366  26.272   0.674  0.1481  0.0910 -0.3201
    1W        W52968  12.626  27.824   0.972  0.4991 -0.0235 -0.2002
    1W        W52969   6.026  28.108   7.808  0.3119  0.0831  0.1307
    1W        W52970  12.964  24.206   9.790  0.0387 -0.0402 -0.1119
    1W        W52971  15.833   3.804   0.909 -0.0985  0.0076 -0.0608
    1W        W52972  27.347  18.296   8.549  0.0040  0.1697 -0.0877
    1W        W52973  22.626  12.909   0.186 -0.0158  0.1908 -0.1467
    1W        W52974   5.105   5.927   9.818  0.1909 -0.1059  0.1956
    1W        W52975  16.548  21.476   8.101  0.3386 -0.2056 -0.0729
    1W        W52976  26.444  13.202   3.170 -0.2545  0.2581  0.1320
    1W        W52977  10.036  21.128   7.787  0.2098  0.0714  0.0816
    1W        W52978  19.254   5.303   9.685  0.2010  0.0275  0.0435
    1W        W52979  21.858   7.913   9.826  0.0206 -0.0637 -0.1515
    1W        W52980  21.064   4.703   7.649  0.0926  0.0574  0.2596
    1W        W52981  14.681  16.733   2.551 -0.1460 -0.1367  0.0215
    1W        W52982  16.885  16.088   1.459  0.0851 -0.1291 -0.0053
    1W        W52983   8.034  11.280   1.084 -0.1222 -0.2507  0.0296
    1W        W52984  17.237  26.049   9.960  0.3852 -0.5639  0.3680
    1W        W52985  16.139  27.214   1.104  0.2295  0.0108  0.1727
    1W        W52986  26.528  27.007   7.482 -0.1783 -0.1404  0.0992
    1W        W52987  22.915   1.023   1.202 -0.0170  0.0343  0.0804
    1W        W52988  11.563   8.403   7.369  0.1094 -0.0600  0.3223
    1W        W52989  20.919  13.381   2.599 -0.0773  0.0150 -0.1722
    1W        W52990  17.757  26.969   4.001 -0.2682  0.0508  0.0621
    1W        W52991  11.634   4.596   7.687 -0.2137  0.0291  0.0645
    1W        W52992  15.361  17.263   8.144 -0.1393  0.0362 -0.0203
    1W        W52993   0.296  18.996   9.177 -0.0469  0.3771 -0.0806
    1W        W52994  19.762  11.067   8.855  0.0094 -0.3137  0.1608
    1W        W52995  21.484  13.815   8.795  0.0348  0.1549  0.2551
    1W        W52996   1.172  12.998   6.265 -0.1378 -0.2792  0.0547
    1W        W52997  24.128   4.773   8.424  0.1754  0.0619 -0.3265
    1W        W52998  22.108   2.302   1.580 -0.1965  0.3775 -0.2092
    1W        W52999   1.397   8.433   0.970 -0.0082 -0.0781  0.1626
    1W        W53000   8.883   5.686   2.376 -0.0325 -0.0262  0.1490
    1W        W53001  27.564  18.595   6.258 -0.1887  0.0796  0.2749
    1W        W53002  11.858  10.313   9.125  0.0263  0.2933 -0.0884
    1W        W53003   7.110  11.161   0.593 -0.1516  0.3056 -0.0207
    1W        W53004   9.646  26.713   8.846 -0.0249  0.1006 -0.0283
    1W        W53005   8.533  13.587   0.473 -0.2140 -0.0181 -0.0538
    1W        W53006  24.729  14.235   7.487 -0.1375  0.2103 -0.0723
    1W        W53007  23.465   5.222   1.373 -0.1631 -0.0137  0.3432
    1W        W53008  13.100  25.155   6.846 -0.1576 -0.2216  0.0171
    1W        W53009  27.459  24.933   1.297 -0.4135 -0.4343  0.0597
    1W        W53010   4.925   8.405   1.599  0.1765 -0.1037 -0.1517
    1W        W53011   3.721   8.787   7.466  0.0470 -0.0284  0.2943
    1W        W53012  20.517  10.655   9.062  0.1347  0.2307  0.1134
    1W        W53013   4.500   8.505   9.627  0.1925  0.3016 -0.0131
    1W        W53014  15.405   3.377  10.097  0.0644 -0.0281 -0.2046
    1W        W53015  19.646  15.859   0.246  0.1385 -0.0950  0.2853
    1W        W53016  23.315  24.433  10.191 -0.1086  0.0877  0.0540
    1W        W53017  17.138   4.959   8.470 -0.3258 -0.1486 -0.1690
    1W        W53018  24.469  24.463   8.086  0.2199 -0.3037  0.0757
    1W        W53019  11.566   7.195   1.740  0.1576  0.1070 -0.2652
    1W        W53020  13.872   5.153   1.512  0.0392  0.1667  0.1184
    1W        W53021  13.982  17.625   8.136 -0.3007 -0.2203  0.0306
    1W        W53022  18.219  26.788   0.912 -0.0248 -0.3926  0.0448
    1W        W53023  16.769   4.589   0.758  0.1039  0.0459  0.0879
    1W        W53024   7.556   9.745   0.636 -0.0015 -0.3258 -0.3664
    1W        W53025  20.094   6.598   9.879  0.1983 -0.6373  0.0254
    1W        W53026   0.275   0.061   9.555  0.0937  0.1714  0.0651
    1W        W53027   6.908  16.796   7.914 -0.0530  0.1704  0.1731
    1W        W53028  26.711   0.134   3.368  0.3063  0.1957 -0.2269
    1W        W53029  12.868  19.418   2.366  0.0930  0.0794 -0.0325
    1W        W53030   7.958  17.560  10.074 -0.0990 -0.1136 -0.0189
    1W        W53031  11.312  12.077   2.564 -0.2877 -0.0044  0.0058
    1W        W53032   6.485  21.541   1.175 -0.1145  0.1166 -0.0398
    1W        W53033  10.333  25.977   8.831 -0.0377  0.0475 -0.2454
    1W        W53034  10.451   3.641   2.617 -0.0964  0.2211  0.1076
    1W        W53035  26.264   2.560  10.160  0.1395  0.3003 -0.0121
    1W        W53036  16.438   9.440   0.920  0.0719  0.3103  0.2603
    1W        W53037   3.743  12.215   0.348  0.0818  0.0469  0.1351
    1W        W53038  21.490  13.769   0.325 -0.1765  0.2513  0.4361
    1W        W53039  17.064   7.823   0.066 -0.1635  0.0439 -0.0296
    1W        W53040  21.234  24.398   7.819  0.0824 -0.0890  0.0699
    1W        W53041  14.418   5.385   9.815  0.0884 -0.0952  0.0165
    1W        W53042   7.206  13.977   8.136  0.0985 -0.1237 -0.1340
    1W        W53043   9.286   3.314   0.448 -0.0625 -0.2729  0.0275
    1W        W53044  27.096   6.378   9.158 -0.2553  0.0183  0.1523
    1W        W53045   3.799   3.337   9.400 -0.0455 -0.2123 -0.1648
    1W        W53046  24.795  17.314   7.206 -0.0429  0.2904  0.5082
    1W        W53047   6.105   1.501   7.076 -0.0511  0.1216  0.2117
    1W        W53048   5.864   8.804   5.895 -0.0148 -0.1402 -0.1979
    1W        W53049  24.205  13.875  10.055 -0.1421  0.0571 -0.0919
    1W        W53050  23.616  10.654   0.145  0.0160  0.0783  0.1304
    1W        W53051   7.376   3.583   0.663 -0.1785 -0.1265  0.1168
    1W        W53052  17.302  27.752  10.193  0.6637  0.0132 -0.1035
    1W        W53053  26.016   8.849   1.823 -0.0029 -0.2496 -0.1481
    1W        W53054  10.822  28.011   7.475 -0.3758 -0.0170  0.1341
    1W        W53055  16.076   2.958   1.860  0.0884 -0.0207 -0.2925
    1W        W53056   8.245  19.230   9.140 -0.0010  0.1485  0.0511
    1W        W53057   7.727  21.835   1.653 -0.1768  0.1603  0.0186
    1W        W53058   1.542  23.670   6.387  0.1043  0.4310  0.1767
    1W        W53059  12.356   7.257   3.674 -0.0982  0.0484 -0.0597
    1W        W53060  10.525  21.710   3.018 -0.0085 -0.0789 -0.0168
    1W        W53061   3.172   6.921   9.329 -0.0786 -0.0436  0.2454
    1W        W53062  16.917  19.355   3.115  0.0585 -0.1833  0.3139
    1W        W53063   2.769  15.188   0.080  0.1349 -0.0646  0.0880
    1W        W53064  13.482   8.550   2.921 -0.1900 -0.3349 -0.1928
    1W        W53065   9.099  14.846  10.362  0.1249  0.0477 -0.2684
    1W        W53066   9.659  15.132   2.093  0.1716 -0.2072 -0.2347
    1W        W53067   1.272   9.301   8.334  0.1875 -0.0488 -0.0513
    1W        W53068  16.124   9.090   0.754 -0.3513  0.3055 -0.4295
    1W        W53069  14.780  12.945   0.197  0.1670 -0.1253  0.4514
    1W        W53070  13.917  11.953   1.479 -0.4022  0.2759  0.0412
    1W        W53071   7.290   9.918   2.385  0.1145 -0.1172 -0.1235
    1W        W53072  26.204  18.851   9.683 -0.0618 -0.1828 -0.1595
    1W        W53073  12.237   3.125   8.863  0.0946  0.1608 -0.1312
    1W        W53074  15.623  24.669   8.186 -0.1188 -0.0477 -0.0347
    1W        W53075   4.609  14.357   1.565 -0.0821  0.2143  0.1119
    1W        W53076   7.489  18.582   1.961 -0.1789  0.1243 -0.2694
    1W        W53077  23.842   2.297   9.109 -0.3722 -0.3625  0.0349
    1W        W53078  27.733  22.787   1.905  0.3052  0.0380  0.0680
    1W        W53079  13.809   3.942   3.578 -0.0875  0.0466 -0.0035
    1W        W53080   7.994  10.479   9.469 -0.1211  0.6699  0.0901
    1W        W53081   4.771  17.025   2.011 -0.2711  0.1799  0.1024
    1W        W53082  27.501  26.053   0.822  0.1526 -0.0500 -0.1732
    1W        W53083   3.783   1.868  10.089  0.1282 -0.0528 -0.0216
    1W        W53084  24.751  14.210   8.131 -0.2867 -0.2808 -0.2164
    1W        W53085   5.091  23.954   8.417  0.0216  0.1126  0.2114
    1W        W53086  14.234   3.961   8.453 -0.0376 -0.1132 -0.0973
    1W        W53087  18.868   7.495   7.376 -0.1233  0.0632 -0.1285
    1W        W53088  14.365   3.205   9.482 -0.1999 -0.0146 -0.3653
    1W        W53089  17.627  10.757   2.156 -0.2424 -0.1729  0.0679
    1W        W53090   8.933   7.921   8.228  0.2270 -0.0616 -0.1556
    1W        W53091  12.411  21.916   2.424  0.1654 -0.5067 -0.1591
    1W        W53092   4.033  10.864   8.063 -0.1108 -0.0285 -0.0192
    1W        W53093  16.798   9.025   8.985 -0.0828  0.1415 -0.0492
    1W        W53094  13.933   1.522   1.514 -0.1259 -0.2504  0.0929
    1W        W53095  20.282   7.552   8.494 -0.1024 -0.0607  0.4239
    1W        W53096  22.035  23.289   2.347  0.0680  0.1137  0.1590
    1W        W53097   5.719   3.731   8.413 -0.0786 -0.1042 -0.0532
    1W        W53098  24.453  22.166   7.622 -0.1267  0.0616  0.1078
    1W        W53099   2.543   3.473   6.425  0.2554  0.2993  0.1645
    1W        W53100  13.397   8.777   2.374  0.1251  0.1555 -0.0599
    1W        W53101  23.351  10.140   1.570 -0.2161 -0.0302 -0.0369
    1W        W53102   5.755  15.412   2.392 -0.4499 -0.0366  0.0139
    1W        W53103   6.732  24.200  10.242  0.0763  0.0338  0.1494
    1W        W53104   3.452  13.475   9.163 -0.1669 -0.1955  0.1070
    1W        W53105  10.283  11.861   8.953 -0.1996 -0.2536  0.0796
    1W        W53106  21.688  26.480   8.685 -0.0451  0.2357 -0.2470
    1W        W53107  20.490   3.139   0.091 -0.2381 -0.1206  0.1706
    1W        W53108  26.743  14.251   9.984 -0.0901  0.2073 -0.1077
    1W        W53109  21.432  13.260   0.295 -0.0368  0.1931  0.4023
    1W        W53110  16.142   1.417   0.920  0.0774  0.3093  0.0993
    1W        W53111  23.514  14.228   1.327  0.0048  0.0319 -0.0424
    1W        W53112  20.470  15.693   0.314  0.0179 -0.3023 -0.0913
    1W        W53113  19.465  15.422   8.708  0.0635  0.1795 -0.0025
    1W        W53114  13.297  14.305   4.270 -0.1875  0.2654  0.1313
    1W        W53115   8.842   9.848   8.532  0.0979 -0.2240 -0.0425
    1W        W53116   7.452  14.195   9.664  0.1567 -0.0410  0.1735
    1W        W53117   0.054   1.984   1.650  0.1179  0.0748 -0.0090
    1W        W53118  22.587   9.198   0.577 -0.1610 -0.1993 -0.1843
    1W        W53119  25.544   3.907   0.041  0.1432 -0.0685  0.1838
    1W        W53120  22.337  23.786   2.105  0.1506  0.0914  0.1093
    1W        W53121   0.083  15.628   7.392 -0.1748 -0.0383  0.0220
    1W        W53122  16.082   3.942   8.335 -0.1427  0.1394 -0.2084
    1W        W53123   6.075  11.388  10.099  0.0647 -0.1044  0.2792
    1W        W53124   1.919  18.840   2.227 -0.3160 -0.2243  0.1694
    1W        W53125  27.229   2.716   1.387 -0.0395 -0.0697  0.0512
    1W        W53126  22.160   7.881   8.973  0.0261 -0.0278  0.1304
    1W        W53127  20.930   1.411   8.137  0.0301 -0.4884  0.0174
    1W        W53128  24.304  16.939   2.259  0.1258 -0.0612 -0.0414
    1W        W53129  18.630  14.388   2.664 -0.0838  0.1067  0.1311
    1W        W53130   1.024   9.753   9.171 -0.0028  0.4099 -0.0894
    1W        W53131   7.823   7.627   9.619  0.0450 -0.1476  0.0818
    1W        W53132  21.977   9.031   7.888  0.0513  0.0229 -0.2239
    1W        W53133   1.700  19.545   9.141  0.0215  0.0359 -0.1904
    1W        W53134  13.779   8.013   0.244  0.0625  0.0171  0.2479
    1W        W53135   2.099  11.464   6.861 -0.0511  0.1261  0.0462
    1W        W53136  19.218  24.286   7.546  0.2901  0.2636 -0.0172
    1W        W53137  22.523  12.145   2.446 -0.2141 -0.0319 -0.1873
    1W        W53138  16.442  14.248   1.274 -0.0541 -0.1298  0.2710
    1W        W53139  23.175   8.293   0.281 -0.0758  0.1686 -0.0880
    1W        W53140   6.346  15.052  10.006  0.1207  0.3200 -0.4040
    1W        W53141  12.255  24.783   2.529  0.2138 -0.0625 -0.2768
    1W        W53142  17.547  24.193   9.285  0.0394  0.0723 -0.1868
    1W        W53143   5.704   3.812   0.999  0.1193  0.0583 -0.0430
    1W        W53144  16.567  18.644   0.470  0.2065  0.3521  0.0496
    1W        W53145  26.902   5.090   9.187  0.1220 -0.1657  0.1509
    1W        W53146  19.097  27.328   8.486  0.1039  0.0540 -0.1093
    1W        W53147   5.809  19.297   7.683 -0.1766 -0.0783 -0.3649
    1W        W53148  24.878  16.388   2.792  0.1273  0.0404  0.2108
    1W        W53149  18.210  28.020   2.634  0.1446 -0.1415 -0.3015
    1W        W53150  12.362  27.759  10.324 -0.0429 -0.0787  0.0235
    1W        W53151  18.721   3.092   2.941  0.0692 -0.1601 -0.5187
    1W        W53152   1.380  10.916   6.547  0.0969  0.1430  0.4823
    1W        W53153  17.537  18.041   1.388 -0.0734 -0.2821  0.1836
    1W        W53154   5.340  17.127   7.076  0.1672 -0.1085  0.0028
    1W        W53155  22.397  17.286   7.801  0.2315 -0.0902 -0.1273
    1W        W53156  21.144   2.979   7.575  0.3732 -0.1400 -0.1160
    1W        W53157  15.780  10.512   1.228  0.0456 -0.0384 -0.2066
    1W        W53158   3.423  14.693   9.079 -0.1104 -0.0259 -0.0722
    1W        W53159  20.557   0.457   8.128  0.1541  0.1292  0.0944
    1W        W53160  21.037  13.650   0.378  0.0005 -0.0837  0.0524
    1W        W53161  26.043   3.354   0.028  0.1216  0.0204  0.4641
    1W        W53162   1.246  17.213   3.095 -0.0876  0.2854 -0.1851
    1W        W53163  11.134   2.780   0.929 -0.1774  0.0576  0.3358
    1W        W53164  22.078  12.522   1.542  0.0328 -0.0088  0.0469
    1W        W53165  17.444  16.279   8.752  0.1623 -0.1151 -0.0413
    1W        W53166  18.024   1.740   7.284  0.0059  0.0544 -0.0056
    1W        W53167  18.623   0.990   8.242  0.3411 -0.2076 -0.1399
    1W        W53168  19.441  10.356   3.150 -0.0004  0.1074  0.0386
    1W        W53169   0.706   4.718   1.129  0.0685 -0.2134 -0.0990
    1W        W53170  19.172  22.891   0.833 -0.3417 -0.1235  0.1726
    1W        W53171   4.264  27.307   1.850  0.0362  0.1625  0.0813
    1W        W53172  14.660  10.968   2.165 -0.0706  0.1466 -0.0982
    1W        W53173   2.643  24.184   9.480  0.0398 -0.0687  0.2259
    1W        W53174  15.557   9.960   0.817 -0.1235  0.4492  0.2928
    1W        W53175  20.961  23.280   8.331  0.0567  0.0588 -0.1640
    1W        W53176   3.026  15.765  10.310  0.2070 -0.0861 -0.0186
    1W        W53177  20.969   5.298   2.656  0.0011 -0.0204 -0.1854
    1W        W53178   0.798  15.405   0.160  0.1872 -0.1190  0.0182
    1W        W53179  17.675   4.531   7.141  0.0490  0.0988  0.2604
    1W        W53180  12.548  17.558   4.058  0.0302  0.0943  0.0097
    1W        W53181   8.499   0.856   0.094  0.0411 -0.2202 -0.1089
    1W        W53182  15.352  22.388   7.310 -0.3694  0.1069 -0.1469
    1W        W53183  10.851  14.288   9.060 -0.0218 -0.0604  0.2576
    1W        W53184  27.703  17.095   0.598 -0.1622 -0.0651 -0.2095
    1W        W53185   6.189   1.492   8.955 -0.0010 -0.1011 -0.1103
    1W        W53186   0.635  17.579   8.995 -0.2369 -0.0247  0.0354
    1W        W53187  13.165  14.290   0.560 -0.0419  0.0907  0.1404
    1W        W53188  21.401  11.364   1.138  0.0714  0.0071  0.1110
    1W        W53189  19.618  18.264   1.788 -0.1228  0.0646  0.1850
    1W        W53190  11.811   1.634   0.652 -0.2630 -0.1284  0.0621
    1W        W53191  15.269  12.820   0.671  0.2236 -0.2308  0.0871
    1W        W53192  13.601   9.904   3.068  0.1341  0.0519 -0.1155
    1W        W53193  24.287  24.923   8.919 -0.0745 -0.0728  0.2508
    1W        W53194   5.205  15.672  10.297 -0.1756 -0.0586  0.0230
    1W        W53195  13.278  19.107   1.107 -0.0653  0.1579  0.1391
    1W        W53196  10.587  25.015   8.132  0.0001 -0.2122 -0.4875
    1W        W53197   6.413  17.227   0.695 -0.0161 -0.0106 -0.2458
    1W        W53198  11.437   6.825   0.964  0.6997  0.2539 -0.0509
    1W        W53199  13.400  19.887   0.746  0.1520  0.0960  0.2442
    1W        W53200  22.614  10.812   1.189 -0.3292 -0.1115 -0.0167
    1W        W53201  21.230  16.898   7.174  0.1381  0.2291  0.1645
    1W        W53202  17.457  21.758   7.062 -0.0485 -0.0934  0.1579
    1W        W53203  23.390  23.826   3.568 -0.0562 -0.2492  0.1807
    1W        W53204  27.206  11.114   0.873 -0.1603 -0.0029  0.0670
    1W        W53205  24.062  20.475   7.390  0.0017 -0.1231 -0.2249
    1W        W53206  10.452   9.656   9.603 -0.1362 -0.1096 -0.0251
    1W        W53207   2.899  24.706   9.618  0.2013  0.0560 -0.0587
    1W        W53208   5.377  12.650   2.083  0.2174 -0.0853 -0.0647
    1W        W53209   4.035  15.328   1.234  0.2488  0.1633 -0.0944
    1W        W53210   7.578  24.601   2.183 -0.0887  0.1561  0.2218
    1W        W53211  23.295  23.699   1.711 -0.3483  0.0967  0.2297
    1W        W53212  22.835  16.448   0.228  0.2094  0.3997 -0.0244
    1W        W53213   4.979   2.642   0.301 -0.1183  0.2912 -0.1386
    1W        W53214  26.097   2.144   1.733 -0.0640  0.0452 -0.1462
    1W        W53215  27.660  10.102   2.681 -0.1509 -0.1282 -0.1896
    1W        W53216  12.210   5.706   8.751 -0.0146  0.2033  0.0365
    1W        W53217  15.115  19.487   2.696  0.1316 -0.3439 -0.3952
    1W        W53218   4.722   2.360   1.589  0.0794 -0.0324  0.0689
    1W        W53219  17.868   0.833   1.201  0.1624  0.0769  0.0350
    1W        W53220  11.596   7.677   8.729  0.0909  0.0145  0.2474
    1W        W53221  22.291   6.061  10.220  0.1789 -0.0524  0.0815
    1W        W53222   1.791   2.908   0.989 -0.1165  0.3030  0.1989
    1W        W53223   3.341   1.790   8.610  0.0300  0.0124  0.3922
    1W        W53224  25.270  10.908   9.917  0.0102 -0.3208 -0.0007
    1W        W53225  14.526  16.781   3.036 -0.1442 -0.0582  0.0172
    1W        W53226  22.186  11.477   7.940  0.1087  0.3081 -0.0860
    1W        W53227  26.320  12.220   6.899 -0.0624  0.1649 -0.5811
    1W        W53228   7.665   6.795   0.599 -0.3345 -0.0364 -0.1787
    1W        W53229  20.646  13.743   2.789 -0.4776  0.1193  0.1033
    1W        W53230   5.085   2.970   7.635  0.0567  0.0167  0.1387
    1W        W53231   9.373  15.592   9.894 -0.0967 -0.2768  0.1121
    1W        W53232   8.215   4.424   2.217  0.0521  0.0663  0.2062
    1W        W53233  11.440  16.747   9.111  0.1847  0.0400  0.2082
    1W        W53234  22.853   1.010   3.363 -0.3584  0.2944 -0.1742
    1W        W53235  26.059  12.038   0.821 -0.1099  0.1241  0.4184
    1W        W53236  16.407  18.450   7.079  0.1313  0.0891 -0.1902
    1W        W53237  13.900   5.085   2.112 -0.1530 -0.0103 -0.0584
    1W        W53238   9.513  10.806   2.565 -0.4362 -0.3311 -0.0152
    1W        W53239   3.707  14.686   7.034  0.0219 -0.0452 -0.1315
    1W        W53240  10.241  26.457   7.996 -0.1968 -0.3340  0.3257
    1W        W53241  21.913  22.375   7.468 -0.0228 -0.1052 -0.0934
    1W        W53242  10.505   6.732   2.070  0.1030 -0.2832  0.1368
    1W        W53243  21.397   6.102   9.895 -0.0980 -0.0021  0.1570
    1W        W53244  25.128   7.196   1.454  0.0882 -0.2093  0.0431
    1W        W53245  15.341  18.620   8.874 -0.1881 -0.2558 -0.0968
    1W        W53246  27.226  11.078   7.271  0.0904  0.1633  0.1062
    1W        W53247   7.210  23.075   7.377  0.0817 -0.0878  0.0370
    1W        W53248  25.401  11.419   7.558 -0.2138 -0.1031 -0.0639
    1W        W53249   0.123   5.513   1.976 -0.1546 -0.1541 -0.0711
    1W        W53250  20.633  13.533   2.212  0.1694  0.1367  0.1166
    1W        W53251  16.861  20.738   3.514  0.3872  0.0920 -0.0977
    1W        W53252  11.287  22.452   8.163 -0.1732 -0.1394 -0.0874
    1W        W53253  26.536   9.450   1.263 -0.0777 -0.5330  0.2231
    1W        W53254  10.412   5.994   8.765  0.1317  0.2311 -0.0301
    1W        W53255   5.387   4.863   8.368 -0.1462  0.1063 -0.1435
    1W        W53256   2.792   3.355   9.415  0.0922  0.1041 -0.0183
    1W        W53257  19.982  12.008   0.929  0.5191 -0.1843 -0.3257
    1W        W53258   4.639  16.303   8.744 -0.0160  0.0376  0.0507
    1W        W53259  19.685  24.393   9.380  0.2181 -0.0017 -0.0056
    1W        W53260  12.127   1.445   1.880  0.0234 -0.1429 -0.1024
    1W        W53261  26.043   0.258   7.524 -0.0680  0.2536  0.2114
    1W        W53262  10.344  17.230   9.998 -0.2534  0.1195 -0.0606
    1W        W53263   7.357  12.682  10.038  0.2416 -0.0495  0.2293
    1W        W53264  10.302   4.279   8.841  0.0632 -0.1947  0.0478
    1W        W53265  12.447  11.019   1.415  0.0489  0.1538 -0.0334
    1W        W53266  26.026  21.224   7.983  0.1047 -0.0736 -0.1438
    1W        W53267   4.452  19.083   7.729  0.1732 -0.2995  0.1347
    1W        W53268  24.632   9.482   2.261  0.1452  0.2604  0.1173
    1W        W53269  23.275  27.142   2.670 -0.0513 -0.0060  0.1753
    1W        W53270  23.842  20.529   8.427 -0.0616  0.3010 -0.1001
    1W        W53271  27.729   1.160   1.165 -0.1513  0.4269 -0.2920
    1W        W53272  13.016   0.392  10.042  0.0049  0.0654 -0.2700
    1W        W53273  10.234  12.444   3.198  0.0844 -0.2839  0.0295
    1W        W53274   6.889  24.432   1.910  0.2857  0.0731  0.2687
    1W        W53275  23.935   9.237   7.344  0.3266 -0.0591  0.2016
    1W        W53276  20.430   2.431   1.207 -0.0216  0.3789 -0.2086
    1W        W53277   2.628   1.903   1.258 -0.0604  0.0223  0.0364
    1W        W53278   7.121  18.843   7.892 -0.3906  0.2361  0.1098
    1W        W53279  23.503   9.196   9.270 -0.1402  0.0682  0.1413
    1W        W53280  13.466  15.162   1.147 -0.2334  0.1852 -0.2440
    1W        W53281  21.054  22.098   0.385  0.0325  0.0247  0.1040
    1W        W53282   4.785  22.796   8.108  0.4245  0.0133  0.0493
    1W        W53283   6.977  15.931   0.050 -0.3480  0.0330 -0.0010
    1W        W53284   7.247   3.318   9.967 -0.1605 -0.0314  0.0871
    1W        W53285  22.350  24.783   8.782 -0.0615 -0.1620  0.2067
    1W        W53286  17.834   2.879   8.924  0.3585 -0.0205  0.1018
    1W        W53287   7.299  26.500   7.375 -0.0604  0.1290 -0.0754
    1W        W53288  24.546  22.506   6.552 -0.0273  0.0705  0.3075
    1W        W53289  18.629  10.596   3.671  0.2049 -0.0997 -0.1168
    1W        W53290   6.513  16.928   2.926  0.0888 -0.1649  0.0196
    1W        W53291  28.123  26.211  10.156  0.4044  0.0521 -0.0774
    1W        W53292  17.129  11.214   0.267 -0.3367 -0.0610 -0.0475
    1W        W53293  16.692  18.074   8.838 -0.0225  0.0924 -0.2491
    1W        W53294   1.951  11.291   9.733  0.0977  0.1678  0.2166
    1W        W53295  23.345   7.110   1.673 -0.2418  0.4022 -0.2289
    1W        W53296  13.715  17.641   0.823 -0.0813 -0.0652 -0.1606
    1W        W53297  18.870  21.450   9.311 -0.0043  0.2007 -0.0160
    1W        W53298  12.942  17.821   8.052  0.1079  0.3274  0.0054
    1W        W53299   9.431  20.096   9.835 -0.0073  0.0149 -0.1071
    1W        W53300  23.731  26.820   7.662 -0.0653 -0.1973 -0.1098
    1W        W53301   5.455  13.112   0.647 -0.1567  0.2496  0.1357
    1W        W53302  15.677  19.517   8.056  0.2865  0.1398 -0.0740
    1W        W53303   8.607  14.569   7.672  0.1189  0.1485 -0.0092
    1W        W53304  26.115   4.021   1.685  0.0467 -0.0629  0.3637
    1W        W53305   1.863  24.977   8.509  0.1019  0.4187 -0.1197
    1W        W53306  20.607   8.863   4.082 -0.1183 -0.3272 -0.2095
    1W        W53307  22.207   4.061   3.577  0.0364 -0.0472  0.0173
    1W        W53308   1.906   5.621   8.501 -0.1885 -0.3114 -0.0247
    1W        W53309   5.193  26.269   2.244  0.2731 -0.0056  0.1904
    1W        W53310  14.733   1.186   3.260 -0.1482 -0.2110 -0.1379
    1W        W53311  14.399   8.651   8.925 -0.2885 -0.1361  0.0764
    1W        W53312   9.389   6.476   7.060  0.0524 -0.0257 -0.0258
    1W        W53313  17.302  11.509   8.084 -0.0929 -0.2174  0.0754
    1W        W53314  19.383  22.849   7.676 -0.0538  0.1871  0.3876
    1W        W53315  24.780  20.832   3.054 -0.0037 -0.0767 -0.1351
    1W        W53316  26.755  20.942   9.867  0.1219  0.2357 -0.1932
    1W        W53317  16.607  13.787   8.727 -0.4693  0.3029 -0.2480
    1W        W53318   4.412   4.710   0.506 -0.0102  0.0155  0.1558
    1W        W53319  18.101   4.713   2.639 -0.2114  0.0340  0.0174
    1W        W53320   6.387  14.450   7.351 -0.0375 -0.0217  0.0158
    1W        W53321  25.895  24.058   0.665 -0.1054 -0.1470  0.3595
    1W        W53322  25.059  20.584   1.237 -0.0918  0.0622 -0.1455
    1W        W53323   1.422  10.102   8.770  0.2860  0.4628  0.0056
    1W        W53324  16.935  13.817   3.292 -0.0119 -0.6260 -0.0700
    1W        W53325  10.843  22.672   8.074  0.3185 -0.0326  0.0739
    1W        W53326  21.842  12.393   2.116 -0.0955  0.1622  0.1796
    1W        W53327   0.756  11.379   9.073  0.2461  0.3304 -0.1104
    1W        W53328  20.054  16.848   2.032  0.0722 -0.1635 -0.0892
    1W        W53329   7.704   2.483   7.095 -0.0015 -0.1981  0.1639
    1W        W53330   2.739   0.937   6.869 -0.0550 -0.2988  0.0023
    1W        W53331   4.473  15.253   8.951  0.1528 -0.3190 -0.0070
    1W        W53332  24.618  26.541   2.291 -0.0322 -0.0087  0.0135
    1W        W53333  13.601  18.650   0.983  0.2757 -0.1436 -0.2967
    1W        W53334   1.876  26.876   3.006 -0.0356  0.0087 -0.0616
    1W        W53335   6.777  19.503   3.166  0.2141  0.0906 -0.1328
    1W        W53336   9.757  17.309   7.697 -0.1981 -0.2642 -0.1578
    1W        W53337  21.357   7.083   0.254  0.2027  0.2332  0.1724
    1W        W53338   3.205  13.964   7.150 -0.3390 -0.1892  0.1548
    1W        W53339  15.255  11.241   1.092 -0.0098  0.1153  0.0637
    1W        W53340   0.798  24.550   7.793  0.1151  0.0025  0.0417
    1W        W53341   0.563  14.616   1.702  0.0607 -0.0807 -0.0302
    1W        W53342  13.916  20.236   9.753  0.0259  0.2388  0.0132
    1W        W53343  11.958   4.545   1.989  0.0760  0.0721  0.0337
    1W        W53344  26.704  18.796   1.250 -0.0508 -0.1156  0.0352
    1W        W53345  15.632   7.291   2.866 -0.4255 -0.0811 -0.2585
    1W        W53346  26.813  26.166   9.750 -0.2013 -0.1731  0.0055
    1W        W53347  27.352   7.103   0.886  0.1085  0.3656  0.2277
    1W        W53348   2.153   5.323   7.341 -0.2260  0.0760 -0.0530
    1W        W53349  19.892   7.281   7.677 -0.2555 -0.1901 -0.0444
    1W        W53350   9.735  21.955   8.696 -0.0730  0.1526 -0.1693
    1W        W53351  11.859  15.314   3.472  0.4757  0.1674  0.3181
    1W        W53352   2.001  12.664   0.982  0.0421  0.2006  0.3217
    1W        W53353  13.466   4.492   2.909  0.0976  0.1910  0.0831
    1W        W53354  21.214  17.589   3.737 -0.0929 -0.1297 -0.1159
    1W        W53355   6.446   1.136   0.664  0.0897 -0.0859  0.0184
    1W        W53356  17.478  11.620   2.405 -0.1535 -0.0910 -0.1504
    1W        W53357   8.020  20.655   8.548 -0.1934  0.1238 -0.2127
    1W        W53358   9.568  15.744   8.910 -0.0255  0.1248  0.2957
    1W        W53359  10.263  18.800   3.125 -0.2831 -0.0897 -0.2766
    1W        W53360  27.410   4.230   1.884  0.0801 -0.0800  0.1054
    1W        W53361  18.046   2.833   0.333  0.3458  0.2422 -0.2110
    1W        W53362  19.607  20.975   7.299  0.0151  0.3366  0.3597
    1W        W53363  11.537  13.200   1.098 -0.0080 -0.1270 -0.0770
    1W        W53364   9.172   9.849   2.432  0.0979 -0.0871  0.1831
    1W        W53365   8.502   4.059   8.974 -0.3792 -0.1045 -0.2248
    1W        W53366  18.585  26.913   8.483 -0.2319  0.2138  0.0059
    1W        W53367   9.182   7.052   1.910  0.1320  0.3697 -0.0097
    1W        W53368  13.179  17.021   9.164 -0.1948  0.0798  0.0932
    1W        W53369  10.989   0.089   8.023 -0.0104  0.3367  0.2821
    1W        W53370   1.523  11.072   0.765  0.2208 -0.0502  0.0169
    1W        W53371  20.145  15.133   2.270  0.0512 -0.1747 -0.1619
    1W        W53372  18.560   1.812   8.824  0.3475  0.0278 -0.0718
    1W        W53373  17.105  12.796   8.439 -0.0527  0.0475  0.2341
    1W        W53374   6.685  28.041  10.086 -0.1548  0.0865  0.0318
    1W        W53375   0.678  17.321  10.134 -0.2987  0.1221 -0.1308
    1W        W53376  15.498   3.119   9.632 -0.1237  0.2515  0.0794
    1W        W53377  10.834  23.241   2.287 -0.1170 -0.1440  0.3169
    1W        W53378   4.097  10.453   7.815  0.0001 -0.0217 -0.0657
    1W        W53379  10.182  25.742   7.592 -0.2030  0.0803 -0.1513
    1W        W53380  23.404  23.357   0.203  0.1413 -0.0382 -0.0326
    1W        W53381  27.686  11.818   8.002 -0.1317 -0.0600  0.1315
    1W        W53382  22.890  23.987  10.196 -0.0244  0.2834 -0.0512
    1W        W53383  13.116  13.789   0.537  0.0364  0.2187  0.0213
    1W        W53384  19.513   7.398   7.339  0.0718 -0.2364 -0.2908
    1W        W53385  13.569  27.706   1.080 -0.2687 -0.0694  0.1991
    1W        W53386   2.985  10.673   7.172 -0.0149  0.3065  0.0807
    1W        W53387  10.284   8.064   2.324  0.1534  0.0436 -0.2818
    1W        W53388  13.202  19.234   2.800  0.0527 -0.2235 -0.2175
    1W        W53389  23.737   2.962   8.559 -0.3001 -0.0203  0.2520
    1W        W53390  22.065  26.744   7.731  0.0337  0.1247 -0.1982
    1W        W53391  23.739   7.572   1.744  0.2006  0.1415  0.3191
    1W        W53392   1.986  27.347   7.219  0.0125  0.3454  0.0605
    1W        W53393  21.112   1.185   1.678 -0.0403  0.1036  0.3354
    1W        W53394  10.678  25.740   7.719 -0.2298 -0.0016 -0.3258
    1W        W53395   9.978   5.972   0.944  0.1514  0.0687  0.3621
    1W        W53396  22.592   5.339   9.331 -0.3144 -0.1956 -0.0441
    1W        W53397  19.259  18.879   0.593 -0.0383  0.0527  0.0269
    1W        W53398  13.042   4.574   9.275  0.2280 -0.1984  0.2102
    1W        W53399   4.453   8.359   6.744  0.0345  0.1820  0.1975
    1W        W53400   7.335  10.179   7.620 -0.3170  0.2516  0.0432
    1W        W53401   6.426  19.105   3.927 -0.0632  0.2852 -0.0854
    1W        W53402  19.331  13.164   0.845  0.1037 -0.3731  0.2363
    1W        W53403  26.793  24.647   9.969  0.1413  0.1836 -0.1690
    1W        W53404   7.940  20.130   2.631  0.2632 -0.1767 -0.1913
    1W        W53405   8.466  11.604   2.781  0.0299  0.0441 -0.1254
    1W        W53406   0.702  13.136  10.042 -0.1638  0.1239  0.2246
    1W        W53407  18.411  19.545   1.570  0.0466 -0.0650 -0.0996
    1W        W53408   5.322   1.813   2.348 -0.2276 -0.0619  0.0041
    1W        W53409  24.640  12.616   7.143 -0.0876 -0.2100  0.3291
    1W        W53410  18.217   2.794   9.300  0.2527  0.1177  0.1686
    1W        W53411  19.991   1.787   0.786 -0.1638 -0.1101  0.2329
    1W        W53412   7.357   0.893   1.608 -0.0487 -0.0087 -0.0914
    1W        W53413   0.779  21.001   2.459  0.0172 -0.1412  0.0658
    1W        W53414  22.958  14.243   2.015 -0.0347  0.0776  0.1732
    1W        W53415  11.460  22.493   8.643 -0.0420 -0.1267 -0.1819
    1W        W53416  23.117  25.685   6.834 -0.1116  0.0112  0.0287
    1W        W53417  22.845  25.413   2.231 -0.0661  0.1896  0.0850
    1W        W53418   7.365  15.206   3.273 -0.4381 -0.0808 -0.0247
    1W        W53419  26.244   7.803   9.071 -0.2806 -0.0421  0.2470
    1W        W53420  21.433  21.906   2.074 -0.0227  0.1532 -0.0677
    1W        W53421   9.541   1.268   1.341 -0.1607  0.0943  0.4063
    1W        W53422  13.118   8.190   9.799 -0.0850  0.0572 -0.3404
    1W        W53423  18.753  18.059   2.627  0.0541  0.0575  0.0627
    1W        W53424  28.006  25.001   9.099  0.0430 -0.2152  0.0718
    1W        W53425   9.402   8.915   2.488 -0.2739 -0.1635  0.0791
    1W        W53426  26.758  18.065   8.155 -0.1418  0.1347  0.0108
    1W        W53427  22.398  23.056   2.550  0.0761  0.1144 -0.4295
    1W        W53428  22.906  10.123   0.549  0.1005  0.0067 -0.1132
    1W        W53429  21.682   7.825   3.192 -0.1737  0.0928 -0.1732
    1W        W53430  12.982   8.204   8.186  0.2307  0.0209 -0.1610
    1W        W53431  15.021   3.692   2.468 -0.2245  0.2895  0.2887
    1W        W53432  14.549  19.527   9.546 -0.1044 -0.0362  0.2514
    1W        W53433  25.633  17.948   2.021  0.4019  0.0629 -0.0707
    1W        W53434  24.695  10.967   1.878  0.2256 -0.0183 -0.1715
    1W        W53435   7.937  26.578   0.808 -0.0392  0.2612 -0.1320
    1W        W53436  17.817   2.311   0.362 -0.1758  0.0557  0.3455
    1W        W53437  21.829   4.112   7.773 -0.0039 -0.1172  0.3904
    1W        W53438   8.499  22.427   0.454 -0.4228 -0.2449 -0.1766
    1W        W53439   6.625  27.060   8.372  0.0899 -0.1577  0.0375
    1W        W53440   2.290   7.244   0.210  0.1163 -0.2329  0.2225
    1W        W53441  18.657   1.648   7.905  0.0079 -0.0461  0.3399
    1W        W53442  20.459  11.066   0.460  0.2107  0.3945 -0.3334
    1W        W53443   5.653   8.240   2.610 -0.1100 -0.0287 -0.0337
    1W        W53444   0.429   4.943   7.387  0.3403 -0.0970 -0.0898
    1W        W53445  27.020  21.910   2.753 -0.0872 -0.1530 -0.0025
    1W        W53446   3.981  12.075   1.533 -0.1395  0.0363 -0.2319
    1W        W53447  15.857  22.330  10.086 -0.1041  0.1971  0.0268
    1W        W53448   5.831   8.751   9.887  0.1577  0.0384  0.2380
    1W        W53449  22.239  20.473  10.356  0.1488  0.1109  0.1656
    1W        W53450   7.870  12.199   3.200 -0.0886 -0.0322 -0.0187
    1W        W53451   3.250  18.837   2.181 -0.0726 -0.0918 -0.1999
    1W        W53452  20.682  21.721   2.002  0.4377 -0.2732  0.1731
    1W        W53453   2.871  16.149   0.285  0.3431  0.0832  0.1988
    1W        W53454   4.968   6.899   7.131 -0.0774  0.0772  0.0369
    1W        W53455  27.351   5.678   8.022 -0.0478  0.1345 -0.0241
    1W        W53456   1.643   2.657   9.936 -0.2446 -0.0594 -0.0325
    1W        W53457  10.617  19.763   8.377 -0.3333  0.3302  0.0829
    1W        W53458  20.633   0.813   7.696 -0.4085  0.2892 -0.0520
    1W        W53459   3.316   7.104   0.948  0.5179 -0.0657 -0.0931
    1W        W53460  13.614  18.196   1.292 -0.0389 -0.0128 -0.1570
    1W        W53461  16.514  13.380   0.198  0.2079  0.0759  0.2423
    1W        W53462  22.505  14.522   9.514  0.1477  0.1805  0.1964
    1W        W53463  10.482  26.371   8.467 -0.0872  0.2618  0.0408
    1W        W53464   1.372   8.857   6.475  0.2494  0.1151 -0.0537
    1W        W53465   2.826   4.603   1.311 -0.0820  0.1857  0.2056
    1W        W53466  18.363   1.924   0.774  0.1847 -0.2052  0.0970
    1W        W53467  10.240   8.576   2.630 -0.0154  0.1734 -0.2933
    1W        W53468   1.016  12.652   0.067 -0.2076  0.0734  0.3029
    1W        W53469   7.178  25.392   8.846  0.1294  0.0279 -0.0957
    1W        W53470   4.345   9.706   1.433  0.0908 -0.3684  0.0432
    1W        W53471   6.276   2.535   7.738 -0.1220 -0.1379  0.1106
    1W        W53472   3.600  15.714   8.299  0.0376  0.0998 -0.2486
    1W        W53473  22.129  19.062   0.117  0.2804 -0.1641  0.1557
    1W        W53474  24.066   2.667   8.799 -0.1001 -0.0622  0.0494
    1W        W53475   5.474  27.665   6.549  0.2296  0.0442 -0.0985
    1W        W53476  10.639   3.139   0.215  0.1265 -0.1274  0.0481
    1W        W53477  12.715   3.046   1.380  0.4901  0.0054 -0.1653
    1W        W53478  11.658   8.488  10.297  0.0649  0.2555  0.0079
    1W        W53479  20.619   6.850   7.170 -0.1521  0.0319  0.2937
    1W        W53480   0.700  23.611   7.139  0.1324 -0.0994 -0.2866
    1W        W53481   8.689   2.148   7.599  0.2054 -0.3351 -0.0275
    1W        W53482  15.072   3.501   1.997  0.2187 -0.0840  0.0465
    1W        W53483   3.017  21.886   2.574  0.1545 -0.1113 -0.3767
    1W        W53484   0.902   6.555   7.271 -0.1578 -0.2045 -0.2209
    1W        W53485   1.335   9.966   0.097 -0.0490 -0.1326 -0.0097
    1W        W53486  21.710  12.560   9.846 -0.1019  0.1350  0.0796
    1W        W53487   3.201  24.469   1.549 -0.1829  0.2727  0.1036
    1W        W53488  16.944  15.659   3.211  0.2097  0.2560 -0.1578
    1W        W53489   9.211  22.903   9.769 -0.0242 -0.2864  0.0191
    1W        W53490   7.423  22.952   2.313 -0.2186  0.4279 -0.1599
    1W        W53491  18.286  23.286   8.673 -0.0849  0.0835  0.2500
    1W        W53492  17.514   5.792   1.106  0.0141 -0.4500  0.2385
    1W        W53493   1.047  12.085   7.296 -0.0774  0.1436  0.0794
    1W        W53494   2.647  13.078   1.780 -0.1260 -0.2172  0.0722
    1W        W53495   7.145  16.633   7.136 -0.2389 -0.0846 -0.1648
    1W        W53496  11.617   8.910   2.688  0.0655  0.0376  0.0196
    1W        W53497   5.777  19.025   2.452 -0.1370 -0.2108 -0.0325
    1W        W53498   6.611  18.217   8.061 -0.3653  0.1473  0.0445
    1W        W53499  17.586   0.686   3.733  0.0811  0.3840  0.0013
    1W        W53500   1.893  18.519   7.575 -0.1594  0.2700 -0.4683
    1W        W53501   2.557  11.038   2.927 -0.0616 -0.0023  0.0229
    1W        W53502   1.288  24.353   0.540  0.0024  0.1255  0.0830
    1W        W53503   0.954   8.957   2.273 -0.0887 -0.0141 -0.0620
    1W        W53504  22.652  15.052   1.289 -0.0383 -0.1111  0.0003
    1W        W53505   2.413  20.452   2.859  0.0121 -0.1116  0.1617
    1W        W53506   7.435   8.299   8.527  0.2024  0.2965  0.1212
    1W        W53507  26.409  24.891   8.854  0.1469 -0.2060 -0.0873
    1W        W53508   2.109  14.210   8.954  0.2301  0.0293  0.0791
    1W        W53509  18.191  26.577   2.310 -0.0379 -0.5271 -0.0432
    1W        W53510  21.547  18.385   0.076 -0.2294 -0.0092  0.0255
    1W        W53511   6.920  27.910   0.826 -0.3474  0.2185 -0.4437
    1W        W53512   3.915   8.432   8.229 -0.1474 -0.3801 -0.1122
    1W        W53513  13.055   5.177   3.246  0.1608  0.0002 -0.1964
    1W        W53514   8.761   1.304   2.249 -0.1249 -0.0107  0.0487
    1W        W53515   7.547  15.066   9.454  0.0143 -0.0231 -0.0441
    1W        W53516  20.102  25.790   1.706  0.3689  0.2085  0.1365
    1W        W53517   6.883   3.123  10.240  0.1736  0.0496  0.0166
    1W        W53518  25.672  21.866   7.356 -0.1387 -0.2988 -0.3505
    1W        W53519  21.879  25.315   2.468  0.0525  0.0281  0.0084
    1W        W53520   6.243  21.660   0.292  0.1018 -0.1110  0.1710
    1W        W53521  11.650  25.935   2.695 -0.0352 -0.0098  0.0664
    1W        W53522  20.419   1.700   6.332  0.2163 -0.0624  0.1721
    1W        W53523   2.064  18.938  10.213  0.0731  0.6312  0.1970
    1W        W53524  12.173  22.501   3.054  0.2042  0.1495  0.0548
    1W        W53525  27.726  26.110   1.303  0.1759  0.0853 -0.3128
    1W        W53526  18.682  10.426   3.158 -0.1635 -0.0028  0.3778
    1W        W53527   0.951  21.707   1.773  0.1570  0.0597  0.2004
    1W        W53528  15.891  19.677   1.640 -0.3317 -0.1270  0.0231
    1W        W53529  12.086  23.746   6.951 -0.0383  0.1580  0.2359
    1W        W53530  27.520  20.906   9.302  0.0457  0.2738  0.0068
    1W        W53531   2.338  21.200   7.745  0.0958  0.0326  0.0902
    1W        W53532   6.791  27.919   8.970 -0.0724 -0.1819  0.1239
    1W        W53533   0.781   4.018   8.122 -0.0683 -0.1839  0.4821
    1W        W53534  25.716  13.058   7.824 -0.0548 -0.0112  0.1567
    1W        W53535  11.912  15.830   2.702 -0.1964 -0.0850 -0.1596
    1W        W53536   4.654   7.214   8.456 -0.0045  0.0597  0.1418
    1W        W53537  15.853   8.704   7.849 -0.0307  0.0384 -0.4101
    1W        W53538  11.851   8.418   7.819 -0.0560 -0.2223 -0.2120
    1W        W53539  21.089   8.520   9.475 -0.1629  0.2465 -0.1278
    1W        W53540  11.398  25.902   8.482 -0.0163 -0.0129 -0.1087
    1W        W53541  17.540  20.198   3.138  0.0836 -0.1964  0.1854
    1W        W53542   2.281  19.323   7.113  0.1952 -0.1486  0.0425
    1W        W53543  23.821  10.104   1.623 -0.0708  0.0307 -0.0872
    1W        W53544  18.015  24.128  10.209  0.2746 -0.1492  0.2188
    1W        W53545  16.956  23.355   8.229 -0.0530 -0.0671 -0.0725
    1W        W53546  28.039  24.714   3.008  0.0252 -0.4089 -0.1014
    1W        W53547  11.924  18.024   1.429 -0.1002 -0.1591 -0.0733
    1W        W53548  21.081  16.799   9.948 -0.2848  0.0368  0.0318
    1W        W53549  16.855  18.785   8.187  0.0756  0.0093  0.0103
    1W        W53550   9.632  12.661   0.981 -0.0116  0.2542  0.3894
    1W        W53551   6.591  22.586   2.708  0.0984 -0.2907 -0.1204
    1W        W53552  27.534  12.420   9.027  0.0482  0.0013 -0.0713
    1W        W53553  13.542  10.966   2.767  0.0631 -0.1198 -0.0487
    1W        W53554  16.433  23.981   7.912 -0.3240  0.4488  0.0200
    1W        W53555  14.080  15.754   7.957 -0.2326  0.1163 -0.0271
    1W        W53556  23.096  19.320   8.766  0.0799  0.1026 -0.0401
    1W        W53557  14.952   1.846   2.618  0.3724  0.1467  0.2490
    1W        W53558  11.746  23.929   6.670  0.1394  0.0290 -0.0055
    1W        W53559  15.439   8.576   3.536 -0.0072 -0.5002 -0.0598
    1W        W53560   3.996   6.826   6.095 -0.0964 -0.3756  0.1898
    1W        W53561   9.374  18.590   2.991 -0.0663 -0.2684 -0.1391
    1W        W53562   2.773   7.475   0.181 -0.0569  0.0434  0.1672
    1W        W53563   3.507   2.199   1.127  0.0851  0.2249 -0.0064
    1W        W53564  24.707   5.951   7.323 -0.0269 -0.1079  0.2434
    1W        W53565   1.054  22.459   0.478  0.0184  0.0656  0.1240
    1W        W53566  16.729   3.111   2.595  0.0778  0.0450  0.0460
    1W        W53567   1.063  23.313   1.752  0.1311 -0.2329 -0.1324
    1W        W53568   3.669  13.170   1.708 -0.2315  0.2264 -0.2758
    1W        W53569  16.474  24.134  10.335  0.2818  0.2320  0.1266
    1W        W53570  10.576  17.351   9.470  0.2585  0.1827 -0.2019
    1W        W53571   0.688   1.969   2.694 -0.1930 -0.3207 -0.1651
    1W        W53572  27.366  13.962   1.010  0.1863  0.2297  0.2994
    1W        W53573  26.691  27.847   8.900  0.1958 -0.0447  0.0506
    1W        W53574  11.877  15.543   7.315  0.0035 -0.1029  0.0956
    1W        W53575  13.302  21.313  10.275  0.1932  0.0376 -0.0071
    1W        W53576  21.889   4.775   9.681  0.0771  0.2254  0.0837
    1W        W53577  22.424  19.911   2.218  0.1171  0.1288 -0.1669
    1W        W53578  19.152   2.558   1.744  0.0823  0.1827  0.0856
    1W        W53579   6.156   5.252   7.455  0.1232  0.1472 -0.1672
    1W        W53580   0.862  11.295  10.236 -0.0481  0.0673 -0.0377
    1W        W53581  25.261   5.831   9.207  0.0999  0.0154  0.0072
    1W        W53582  22.890   5.064  10.197  0.0041  0.0203 -0.0032
    1W        W53583  17.367  21.185   7.634  0.1648 -0.1080  0.2217
    1W        W53584  25.929  14.497   8.306  0.0375 -0.1925  0.1510
    1W        W53585  17.486  23.590   3.465 -0.1138  0.1289 -0.0536
    1W        W53586  19.963  23.600   2.737  0.0649 -0.0312  0.2411
    1W        W53587  16.343  18.771   8.102 -0.1984  0.1900  0.1214
    1W        W53588  26.158  21.822   9.157 -0.0042  0.1171  0.2402
    1W        W53589  24.287  20.763   0.826 -0.0816  0.0651 -0.1790
    1W        W53590  11.114   5.301   1.237  0.0889 -0.2495  0.2164
    1W        W53591  27.729   5.420   7.448  0.0293  0.3129  0.0637
    1W        W53592  26.488  22.675  10.253  0.2145 -0.2052 -0.2344
    1W        W53593  25.936  25.455   2.704  0.0991  0.1043  0.0741
    1W        W53594   8.916  10.159   1.428 -0.2057 -0.4338 -0.2092
    1W        W53595  16.701   0.894   9.478 -0.4133  0.2274 -0.0351
    1W        W53596  22.536  17.805   1.822 -0.0774 -0.0389 -0.2332
    1W        W53597   6.589  10.240   9.331  0.2378  0.2277  0.1304
    1W        W53598   1.560  26.556   9.065 -0.1725  0.1033 -0.0613
    1W        W53599  27.431  23.296   0.086 -0.0612  0.1500 -0.2133
    1W        W53600  19.920   6.897   2.200  0.2779  0.2408 -0.1497
    1W        W53601   3.398  23.303   2.020 -0.1153 -0.2694 -0.1750
    1W        W53602  23.168  10.693   0.546 -0.1378 -0.1070  0.0136
    1W        W53603   6.454   9.969   0.951 -0.2101  0.0473  0.0664
    1W        W53604  23.984  23.030   7.456 -0.1572  0.0029 -0.2501
    1W        W53605  10.550  23.585   3.014 -0.0705  0.0159  0.2479
    1W        W53606   1.380  16.571   9.354  0.4423  0.1705 -0.1401
    1W        W53607  14.187  17.047   0.331 -0.3047 -0.0488  0.1575
    1W        W53608   2.832  18.967   0.884  0.0715  0.1835  0.3255
    1W        W53609   4.108  28.084   8.733  0.1614  0.1692 -0.0778
    1W        W53610   3.414  19.516   8.450 -0.1228 -0.2325  0.1021
    1W        W53611  25.896   6.552   1.062 -0.3647  0.1954 -0.1045
    1W        W53612   6.914  22.875   2.324 -0.1133  0.3060  0.1692
    1W        W53613  10.621  26.697   0.264  0.0380  0.2955 -0.1916
    1W        W53614  23.195  17.856   2.807 -0.0194  0.0427 -0.0061
    1W        W53615  14.777  15.201   0.932 -0.2517  0.1722  0.0972
    1W        W53616  11.990  11.484   9.858 -0.0362 -0.0357 -0.0351
    1W        W53617  18.747  11.436   1.229 -0.0192  0.1401 -0.1416
    1W        W53618  16.575   5.196  10.289  0.0985  0.1934 -0.0357
    1W        W53619   2.884   2.918   0.233 -0.3670 -0.0270 -0.3088
    1W        W53620   1.234  16.877   0.433  0.2285  0.0394  0.0331
    1W        W53621  22.463  14.636   1.781 -0.0909  0.1744 -0.1335
    1W        W53622   7.061  15.434  10.277 -0.1522 -0.4269 -0.1069
    1W        W53623  10.052  22.445   1.296  0.2609  0.0413 -0.0503
    1W        W53624  24.248   9.161   0.621  0.3308  0.3417  0.0759
    1W        W53625  22.031  19.527   0.806 -0.1002 -0.1122  0.0230
    1W        W53626   8.817  16.943   3.093  0.1778 -0.3534  0.0477
    1W        W53627  23.846   0.022  10.156 -0.2208  0.3220 -0.1418
    1W        W53628   3.903  16.406   8.603 -0.1945  0.0227  0.0468
    1W        W53629  14.907   2.034   1.411  0.1452  0.4833  0.0239
    1W        W53630   2.316  12.620   9.190 -0.0254  0.2112  0.1132
    1W        W53631  11.923  20.544  10.362  0.0870  0.1633 -0.1822
    1W        W53632   2.202   3.281   0.802  0.1967  0.0134  0.0335
    1W        W53633  13.050   9.769  10.335  0.0832  0.0326  0.0840
    1W        W53634   4.421   7.124   0.596 -0.0845  0.1618 -0.2404
    1W        W53635   1.282   9.964   7.237  0.2257  0.2952  0.1311
    1W        W53636  19.707  25.417   7.400  0.0873 -0.3216 -0.3280
    1W        W53637  16.499  15.443   9.532 -0.2499 -0.1706  0.0611
    1W        W53638   2.061  10.053  10.319 -0.1165 -0.2622  0.2407
    1W        W53639  21.991  18.541  10.298 -0.0095 -0.0101 -0.1611
    1W        W53640   8.894  15.124   0.913 -0.0711 -0.0092  0.1754
    1W        W53641  23.865  14.515   7.890  0.1187 -0.1189  0.1625
    1W        W53642  10.159  11.896   7.828  0.2028 -0.1874  0.1287
    1W        W53643  22.295   0.261   6.971 -0.0347 -0.1058  0.2751
    1W        W53644  11.300  25.331   9.705 -0.0949  0.3424 -0.1716
    1W        W53645  25.535  18.945   9.315 -0.0735  0.0209  0.0819
    1W        W53646  14.083  16.540   8.843 -0.3147  0.0836 -0.0524
    1W        W53647  22.902   0.555   2.917  0.0695 -0.0281  0.0398
    1W        W53648  14.830  14.031   8.409  0.0056 -0.1115  0.2171
    1W        W53649   5.709  20.998   2.654  0.1149 -0.0262  0.0941
    1W        W53650   7.490   6.212   9.662 -0.0270  0.1068 -0.0508
    1W        W53651  28.103  19.643   1.862 -0.3295  0.0711 -0.0309
    1W        W53652  17.604  25.029   0.742 -0.0014  0.0720  0.1715
    1W        W53653   5.813  10.181   0.811 -0.1060 -0.0393 -0.0303
    1W        W53654  21.724  25.045   9.584  0.1523  0.1457 -0.0725
    1W        W53655   8.742  11.632   1.464 -0.3292  0.0949 -0.1905
    1W        W53656  23.708  26.968   2.476  0.0640 -0.1091 -0.2627
    1W        W53657   3.946   0.874   6.934 -0.0682 -0.0976 -0.3561
    1W        W53658  17.482   9.598   7.708 -0.3256 -0.3175 -0.0629
    1W        W53659  25.297  14.281   9.513  0.0029 -0.0303 -0.0825
    1W        W53660  15.405  12.863   3.453 -0.0848 -0.2019 -0.0198
    1W        W53661  11.846   8.720   8.221  0.3303  0.0186  0.3935
    1W        W53662  27.775   8.020   1.639  0.0709 -0.2760 -0.3333
    1W        W53663   6.025  27.242   9.208 -0.0867 -0.1857 -0.2303
    1W        W53664   6.057  16.688   9.410 -0.1207 -0.2901 -0.0543
    1W        W53665   7.038   6.346   7.838  0.3371  0.2188 -0.2953
    1W        W53666  22.085  27.289   7.725  0.2224  0.0555  0.2704
    1W        W53667   2.098   3.371   6.200 -0.1565 -0.1740  0.2835
    1W        W53668  17.381   4.046   2.382  0.1950  0.3582 -0.2973
    1W        W53669  11.879  26.162   1.786 -0.4458 -0.1792  0.1759
    1W        W53670  16.923  23.119   2.611 -0.1602 -0.0883  0.1485
    1W        W53671  18.500   0.477   8.215 -0.3959  0.1732  0.2251
    1W        W53672  27.921  11.925   7.596  0.0161  0.0135  0.0982
    1W        W53673   2.816  17.840   0.131  0.0024 -0.0329 -0.1133
    1W        W53674  13.179   7.626  10.065  0.0254  0.0979 -0.3099
    1W        W53675  20.244   6.298   0.161 -0.0216  0.0199 -0.2300
    1W        W53676  26.750  26.035   8.818  0.1616 -0.1266  0.1210
    1W        W53677  22.743  18.783   8.104  0.4702 -0.2282 -0.2062
    1W        W53678  25.558  19.266   7.666 -0.2415  0.1319 -0.0852
    1W        W53679   5.532  13.124   1.220 -0.2973 -0.2781 -0.0081
    1W        W53680   5.213   4.239   0.774  0.1175  0.1603 -0.3113
    1W        W53681  18.667  25.473   8.490 -0.0665  0.0015 -0.2719
    1W        W53682   9.733  26.206  10.095 -0.2168  0.2739  0.1781
    1W        W53683  23.608   4.836   0.968 -0.2099 -0.3307  0.0456
    1W        W53684  15.264  15.507   1.528 -0.0469  0.0531  0.2561
    1W        W53685   5.016  10.563   0.726 -0.1957  0.1375 -0.2418
    1W        W53686  14.162   3.382   4.286 -0.0388 -0.2203  0.1812
    1W        W53687  23.466   1.496   2.297 -0.2752 -0.1242 -0.0065
    1W        W53688  21.639  25.057   1.570  0.0774  0.2334 -0.0403
    1W        W53689  10.959  25.873   8.242  0.0937  0.0322 -0.0450
    1W        W53690  21.436   7.625   9.889 -0.3060 -0.4557 -0.0140
    1W        W53691  21.533  13.014   0.694 -0.0706 -0.1557 -0.2019
    1W        W53692  10.011   1.681   1.134 -0.1099  0.1693 -0.0795
    1W        W53693  24.542  20.489   1.175  0.1647  0.1131 -0.2393
    1W        W53694  24.424   6.994   9.839 -0.1060 -0.1542  0.0355
    1W        W53695   8.687  13.974   0.135  0.1298 -0.2999 -0.0849
    1W        W53696  16.369   0.370   7.372 -0.2010 -0.2047 -0.0677
    1W        W53697  16.501  15.626   2.497 -0.2540 -0.0670  0.0047
    1W        W53698   7.867  13.910   2.311  0.3001  0.0729  0.0397
    1W        W53699   7.718  12.677   7.965  0.4438  0.2557  0.2318
    1W        W53700  24.078   7.316  10.069  0.1116  0.0129 -0.0008
    1W        W53701  23.890  19.614   0.757  0.0861  0.0605  0.0892
    1W        W53702  15.392  23.016   2.786 -0.0476  0.0574  0.3917
    1W        W53703   4.638  13.600   1.089 -0.0451 -0.1401  0.1148
    1W        W53704  16.871  12.922   0.392 -0.1402 -0.0235 -0.0388
    1W        W53705  25.242   1.385   2.942  0.1977  0.1828 -0.1161
    1W        W53706   4.762   4.518   0.847 -0.0471  0.2091 -0.1385
    1W        W53707   0.053  13.591   6.660 -0.1957 -0.0623  0.2887
    1W        W53708   9.368   8.121   9.377  0.0195 -0.0654  0.2882
    1W        W53709  10.185  10.668  10.148  0.0130 -0.3673  0.1503
    1W        W53710  18.536  27.916   0.874  0.2446 -0.5128 -0.0203
    1W        W53711   0.564   1.757   2.160  0.0881  0.3643 -0.2140
    1W        W53712   6.954   5.316   8.415  0.1201  0.0326 -0.0580
    1W        W53713  22.382   9.429   8.566  0.0068  0.2858 -0.2876
    1W        W53714   6.803  22.922   1.000  0.4655 -0.2311 -0.0260
    1W        W53715  15.237  23.896   2.088 -0.1432 -0.3482 -0.3746
    1W        W53716   4.059   7.433   1.816  0.0279  0.0727 -0.1023
    1W        W53717  12.764   7.833   1.604 -0.0093  0.0750 -0.1371
    1W        W53718  13.783  17.462  10.224 -0.3313  0.0657  0.0326
    1W        W53719  11.786  20.247   6.935 -0.1181  0.0048  0.2911
    1W        W53720  24.563  11.039   0.162  0.0173  0.2798  0.2186
    1W        W53721  21.363  25.969   7.990 -0.1425 -0.4560 -0.0004
    1W        W53722   7.897  24.406   1.836 -0.2497  0.2127  0.0487
    1W        W53723   7.592   9.293   0.750 -0.0850 -0.2325 -0.1098
    1W        W53724  23.065  10.902   6.542 -0.0869  0.2259  0.0281
    1W        W53725  27.689  19.097   0.535  0.0738  0.2865  0.0605
    1W        W53726  18.498  25.460   0.349  0.2252  0.0337 -0.1480
    1W        W53727  13.356  14.380   7.711 -0.4306 -0.0462  0.1747
    1W        W53728   0.642  20.882   7.515  0.2421  0.0390 -0.0308
    1W        W53729   2.340   6.332   0.575 -0.2332  0.4122  0.3864
    1W        W53730  25.352  17.817   2.897  0.0984  0.0856  0.0087
    1W        W53731  17.250  24.950   1.112 -0.0436 -0.1019 -0.1702
    1W        W53732  22.164  23.367   8.621  0.2229 -0.3914 -0.0898
    1W        W53733   7.226   4.814   7.284 -0.1782  0.0743 -0.0188
    1W        W53734  22.238   6.177   2.815 -0.0578 -0.0239  0.0548
    1W        W53735  26.903  18.731   2.794  0.0712  0.0789  0.1046
    1W        W53736   5.533  12.465   6.896 -0.0742 -0.2294  0.0886
    1W        W53737  23.612   5.507   8.089 -0.0931 -0.0351  0.1973
    1W        W53738   7.632  21.392   1.730 -0.1943  0.0763  0.0920
    1W        W53739  13.170  20.417   9.719 -0.1523  0.0020 -0.2155
    1W        W53740  21.088  19.808   3.103 -0.2096 -0.4284  0.0483
    1W        W53741  11.454  24.081   0.339  0.0566 -0.1887  0.1436
    1W        W53742  13.065  13.936   1.859  0.0792  0.1948  0.1751
    1W        W53743   0.621  24.712   6.981  0.1087  0.5722 -0.0703
    1W        W53744  19.889  17.284   1.743  0.0918 -0.3186 -0.0067
    1W        W53745  27.300   9.835   0.772 -0.1799  0.1355  0.1047
    1W        W53746   7.281  21.035   9.343 -0.0892  0.0892 -0.1702
    1W        W53747   1.379   3.046  10.141  0.1236 -0.0286  0.3241
    1W        W53748  22.459  23.774   7.800 -0.0212 -0.1047  0.0355
    1W        W53749  25.362   9.054   2.433  0.0868 -0.1417  0.2530
    1W        W53750   8.235  13.543   7.561 -0.1335 -0.0326  0.0131
    1W        W53751  18.807  19.923   8.550 -0.1901  0.0654  0.2248
    1W        W53752  15.795   9.416   0.255  0.1468 -0.3980 -0.0606
    1W        W53753   6.616  24.393   9.360  0.0446 -0.4158 -0.1865
    1W        W53754   2.425  10.776   7.202  0.0923  0.0134 -0.0769
    1W        W53755   0.092   6.167   9.913  0.4336  0.2779 -0.2133
    1W        W53756  25.125   9.199   6.652  0.4805 -0.1120 -0.2858
    1W        W53757  26.839   6.601   1.530 -0.3254  0.1735 -0.0525
    1W        W53758  24.978  15.670   7.060  0.2394  0.2244 -0.1223
    1W        W53759  17.320  10.244   1.296  0.3693 -0.0522 -0.1086
    1W        W53760  26.801  19.186   0.952 -0.0759 -0.1539 -0.0649
    1W        W53761   8.318   3.938   1.665  0.0776  0.3483 -0.0309
    1W        W53762  27.549   5.114   6.294 -0.1900 -0.0218 -0.1863
    1W        W53763  13.359  26.673   3.570 -0.1689  0.0899 -0.0912
    1W        W53764   7.623   2.746   2.333  0.1596  0.1763 -0.1826
    1W        W53765   8.676   9.109   7.891 -0.0717 -0.1210 -0.0312
    1W        W53766  18.042   8.877   2.917  0.0275  0.3352 -0.0224
    1W        W53767  20.936  21.394   7.341 -0.3452 -0.2157 -0.0343
    1W        W53768  12.216   8.702   3.554 -0.3079 -0.1675  0.1106
    1W        W53769   4.304  26.679   9.916  0.3074  0.4048 -0.2186
    1W        W53770   5.360  17.243   9.764 -0.2171  0.0367  0.2069
    1W        W53771  25.742  25.971   2.620 -0.1005  0.2642 -0.1993
    1W        W53772   0.311   1.675   0.042 -0.3578 -0.1593 -0.1212
    1W        W53773   0.773  11.027   8.143 -0.1523  0.2951 -0.0453
    1W        W53774  17.462  24.263   2.187  0.2399  0.1907  0.3806
    1W        W53775  16.665  12.122   0.311  0.1972 -0.0051  0.2216
    1W        W53776  22.587  27.076   9.848 -0.0207 -0.0326 -0.1064
    1W        W53777  12.881  26.218   1.087 -0.2916  0.2814  0.0873
    1W        W53778  18.540   7.890   0.614 -0.0361  0.0956  0.0774
    1W        W53779  10.966   4.764   1.901 -0.0454 -0.5039  0.2939
    1W        W53780  10.237  25.782   9.494 -0.2666  0.2814  0.2090
    1W        W53781  12.379   8.152   0.134  0.0601 -0.0578  0.0519
    1W        W53782   5.020  15.862   3.963  0.2976  0.0467  0.0607
    1W        W53783  19.223  19.524   2.011  0.0573  0.2554 -0.0718
    1W        W53784   9.725  10.043   1.560  0.0418 -0.1872  0.0848
    1W        W53785   0.950  21.484   0.612 -0.1277  0.0990 -0.2764
    1W        W53786  14.197  26.212   2.356 -0.0348 -0.1287  0.0409
    1W        W53787  13.673   9.234   2.586  0.3669 -0.0884 -0.3582
    1W        W53788   7.125   3.619   8.006 -0.0392 -0.3050  0.2126
    1W        W53789  21.859  16.974   8.537 -0.0458  0.6673  0.0537
    1W        W53790   4.693  21.046   9.247  0.2460  0.3158  0.0054
    1W        W53791  15.576  10.140   2.781 -0.3624 -0.0902  0.0392
    1W        W53792  14.823  21.446   0.684 -0.6383 -0.0792 -0.0488
    1W        W53793  12.245  11.553   8.733 -0.0065  0.2197  0.1822
    1W        W53794   2.270  11.116   1.480 -0.2059  0.1256 -0.1543
    1W        W53795  20.213  21.359   3.305 -0.2153 -0.2567 -0.0438
    1W        W53796   1.381  21.965   8.540  0.0844  0.3730 -0.3568
    1W        W53797   4.267  15.652   9.860 -0.0270 -0.0169 -0.3316
    1W        W53798   4.656  25.053   2.922 -0.2387  0.0314  0.0348
    1W        W53799   6.982  10.984   1.050  0.3102  0.0248 -0.1730
    1W        W53800  14.943   4.315   9.464  0.0031  0.0615  0.0353
    1W        W53801   3.538  21.031   2.371 -0.2495 -0.2022  0.0723
    1W        W53802  19.162  19.585   2.573 -0.0041  0.1630  0.0813
    1W        W53803  27.962  15.299   8.746  0.0172 -0.1845 -0.0850
    1W        W53804  18.757  23.223   8.885 -0.1034  0.0014 -0.2937
    1W        W53805  13.294  16.997   7.805  0.1725 -0.0320  0.1176
    1W        W53806  23.178   4.230   7.585 -0.4707  0.0760 -0.2712
    1W        W53807   0.967  18.729   1.287 -0.0903 -0.0668 -0.2053
    1W        W53808  16.557   6.730   2.948 -0.1216  0.2239  0.2643
    1W        W53809  11.784  28.106   1.663 -0.2699 -0.0613 -0.1379
    1W        W53810  24.235  25.305   6.498 -0.0390 -0.3248 -0.2183
    1W        W53811  12.560   3.328   7.907 -0.0237 -0.2420  0.0803
    1W        W53812   0.277  25.431   1.723 -0.0268  0.0792 -0.0408
    1W        W53813  22.324  21.873   0.451  0.1202  0.0367  0.1807
    1W        W53814  16.387   7.308  10.052  0.0142 -0.2319  0.1805
    1W        W53815   6.325  14.933   7.089 -0.4848  0.1180 -0.1570
    1W        W53816   8.361   3.982   2.454 -0.0362 -0.0522  0.1111
    1W        W53817  21.398  17.328   0.970 -0.0464  0.3042 -0.0419
    1W        W53818  18.040   4.773  10.210  0.1180 -0.3463  0.2814
    1W        W53819  15.768   6.417   9.261  0.0337 -0.0978  0.0473
    1W        W53820  10.672  13.938   1.843 -0.0457 -0.2493 -0.1797
    1W        W53821  17.030  13.440   8.546 -0.0131  0.0189 -0.2433
    1W        W53822  12.952  17.447   9.989  0.1880 -0.0930  0.0141
    1W        W53823  20.912  28.114   9.111  0.2343  0.0141 -0.2585
    1W        W53824   9.181  18.273  10.282  0.0953 -0.1989  0.1061
    1W        W53825  24.546   6.419   0.285  0.3485 -0.2897 -0.1566
    1W        W53826  25.820  20.409   1.823  0.1720  0.0235 -0.2459
    1W        W53827  12.984  17.018   2.435 -0.2185  0.4827 -0.2697
    1W        W53828  24.632   2.188   2.393  0.0189  0.0803  0.0315
    1W        W53829  20.173  14.603   1.728 -0.4785 -0.3107  0.2302
    1W        W53830  17.183   5.182   1.808  0.0486  0.2855  0.1961
    1W        W53831   2.689   6.330   5.887  0.0832 -0.2919  0.0908
    1W        W53832  24.824   7.843   8.786 -0.0895 -0.0533 -0.2590
    1W        W53833   0.786   0.347   1.416 -0.2487 -0.1866 -0.2910
    1W        W53834  21.200  24.326   8.708  0.5063 -0.3559 -0.1363
    1W        W53835   2.464  13.927   8.517  0.1173 -0.1727  0.4875
    1W        W53836  15.340  15.813   4.578  0.1210  0.3217  0.2472
    1W        W53837  22.389  10.142   7.640  0.1880  0.2307  0.1027
    1W        W53838  10.408  20.810   2.357 -0.0329  0.0913 -0.1804
    1W        W53839   9.875  19.476   7.788  0.0069 -0.1762 -0.0585
    1W        W53840  22.539  11.218   9.851  0.1067  0.1919  0.0690
    1W        W53841  26.318  27.655   8.293  0.1795 -0.1210  0.1934
    1W        W53842  27.247   7.252   0.024  0.1533 -0.0641 -0.0876
    1W        W53843  14.860  14.699   9.822  0.2268 -0.2148  0.2511
    1W        W53844   8.445   6.409   7.413 -0.2727 -0.4012  0.0817
    1W        W53845  27.618   2.999   1.429 -0.3065  0.0902 -0.0848
    1W        W53846  22.360  14.977   2.278 -0.1414  0.0150  0.1337
    1W        W53847  26.048  15.385   6.402  0.2609 -0.1257 -0.0880
    1W        W53848   3.412   2.300   9.369 -0.0457 -0.0195  0.1615
    1W        W53849   8.554  11.535   3.360 -0.0060 -0.5064  0.1887
    1W        W53850   2.415  14.221   7.616 -0.1064  0.2431  0.1141
    1W        W53851   1.965  14.171   7.403 -0.3025  0.2352 -0.0999
    1W        W53852  20.549  22.075   2.770 -0.4094 -0.0764 -0.2528
    1W        W53853  16.276  21.733   0.932  0.1742  0.2370 -0.1617
    1W        W53854   6.301  10.968   7.371 -0.1262  0.0840  0.0904
    1W        W53855  26.648  27.954   9.385 -0.1987 -0.2857  0.0598
    1W        W53856   8.929   9.082   7.171  0.1090 -0.0940  0.0270
    1W        W53857   3.267  20.317   1.234 -0.1865  0.2903  0.5175
    1W        W53858  13.979   0.984   0.329 -0.4654 -0.1328 -0.3123
    1W        W53859  25.779  12.258   1.769  0.0074  0.1497 -0.2340
    1W        W53860  28.102   9.759   9.231  0.0232 -0.0359 -0.1547
    1W        W53861   4.233   1.621   9.913 -0.2314 -0.1930 -0.1895
    1W        W53862  17.620   6.112   1.593 -0.1053 -0.1221 -0.1541
    1W        W53863  16.726   3.271   8.351 -0.1097 -0.0985  0.1456
    1W        W53864  25.906  14.369   9.241  0.0151 -0.2774  0.2653
    1W        W53865  12.106   2.433   8.813 -0.0064  0.2032 -0.0992
    1W        W53866  22.629  21.445   8.200 -0.0952 -0.2916  0.0651
    1W        W53867  18.660  21.884   3.371  0.3050  0.1784  0.0345
    1W        W53868  15.294  26.121  10.162 -0.2457  0.0560  0.1974
    1W        W53869   2.599  14.511   1.524 -0.0101 -0.2956  0.4031
    1W        W53870   7.857  21.398   3.068  0.0247 -0.0323  0.0648
    1W        W53871  22.511   6.481   7.733 -0.3048  0.0369 -0.0928
    1W        W53872  22.084   5.450   3.479 -0.0152 -0.3764  0.0416
    1W        W53873   8.871   2.958   1.695 -0.0980  0.0250  0.0091
    1W        W53874   1.847  10.085   8.485  0.2070 -0.2161  0.1339
    1W        W53875  27.702  20.102  10.013  0.0317  0.0245 -0.1746
    1W        W53876  22.223  16.034   8.446  0.0420  0.0344  0.2163
    1W        W53877   6.280  12.738   8.951  0.1386  0.2646 -0.0281
    1W        W53878  20.401  22.138   1.117 -0.0989 -0.1855  0.0742
    1W        W53879  24.476   2.671   2.364 -0.0769 -0.0305  0.0561
    1W        W53880  10.161   8.367   9.629 -0.1092 -0.2283  0.0822
    1W        W53881   9.474  16.256   0.346 -0.2724  0.0894 -0.2883
    1W        W53882  23.762  23.211  10.065  0.0579 -0.0307 -0.0057
    1W        W53883  26.670  14.671   3.258  0.0737 -0.1568 -0.1992
    1W        W53884  14.442   7.670   2.774  0.0160  0.3446 -0.2145
    1W        W53885   9.472  24.494   8.445 -0.1780 -0.0421 -0.1459
    1W        W53886  16.215   5.543   9.565 -0.0897  0.3315  0.2257
    1W        W53887  13.325  12.671   0.192 -0.0333 -0.3564 -0.1210
    1W        W53888  12.453   6.666   2.248 -0.0987 -0.2028  0.0581
    1W        W53889   8.661  15.640   9.220  0.1164  0.0151  0.0621
    1W        W53890  20.327  17.744   1.990  0.1865 -0.4405  0.1032
    1W        W53891  15.451   5.554   8.658  0.3444 -0.0916  0.3750
    1W        W53892  18.014  23.912   0.774  0.0056  0.0816  0.2031
    1W        W53893  23.222   2.574   2.052  0.1339 -0.0259 -0.1006
    1W        W53894  22.386   4.981   1.454  0.5709 -0.0077 -0.0913
    1W        W53895  26.856  21.837   0.444 -0.3659  0.2780  0.1232
    1W        W53896  25.590  15.358   0.030  0.2568  0.1523 -0.2207
    1W        W53897  25.046  22.997   1.796 -0.1085  0.0362  0.0759
    1W        W53898  27.994   9.841   0.246 -0.1171  0.1815 -0.1093
    1W        W53899  24.856  23.383   7.652  0.1563 -0.0840 -0.0823
    1W        W53900  25.534  12.724   0.012  0.0229  0.2957 -0.0948
    1W        W53901  27.434  24.649   2.261 -0.1671  0.1802  0.1377
    1W        W53902  14.095  17.835   3.720 -0.1309 -0.1525 -0.1198
    1W        W53903   2.929   8.013   1.145 -0.0891 -0.3155  0.0858
    1W        W53904  19.101   9.062   1.276 -0.0492 -0.0307 -0.3064
    1W        W53905  27.828  21.668   7.280  0.3242  0.0378 -0.2542
    1W        W53906   8.118  27.080   8.340  0.0701  0.1659 -0.2886
    1W        W53907  21.901  18.032  10.214  0.1408 -0.2864 -0.1390
    1W        W53908  25.989  11.046   1.503 -0.2321  0.1370  0.4610
    1W        W53909  11.354  27.237   2.660  0.2917  0.1520  0.2548
    1W        W53910  14.439  10.611  10.073  0.0384  0.0436 -0.0484
    1W        W53911  16.327  21.755   9.098 -0.1490 -0.0970  0.0412
    1W        W53912   7.817   1.583   8.452  0.0990  0.0746 -0.0127
    1W        W53913  13.821  10.182   8.809 -0.0197 -0.3621  0.1252
    1W        W53914  15.663  20.927   9.439  0.0346 -0.0044  0.1430
    1W        W53915  13.642  20.840   0.568  0.1283  0.2701  0.0929
    1W        W53916  14.868  19.369   9.888  0.0294 -0.0731  0.3141
    1W        W53917   5.606  24.214   2.345 -0.0940 -0.3070 -0.0149
    1W        W53918  27.427  27.570   2.151 -0.2859  0.0353 -0.1353
    1W        W53919  19.567   0.272   0.012  0.0421 -0.6265 -0.1658
    1W        W53920   3.310  13.395   7.257 -0.1370 -0.2009  0.0252
    1W        W53921  24.033  10.352   8.131 -0.0220  0.0743  0.2504
    1W        W53922   1.325  18.779   2.106  0.0929  0.1971  0.1866
    1W        W53923   9.161  27.874   8.845 -0.1162  0.0078  0.0020
    1W        W53924   0.393   9.475   2.268 -0.1047 -0.2394 -0.1606
    1W        W53925   3.043  22.739   7.245  0.0583 -0.0251 -0.0512
    1W        W53926  18.466  22.986   7.776  0.0651 -0.0146 -0.0298
    1W        W53927  20.063  16.445   1.274  0.1289  0.2737  0.0591
    1W        W53928   9.533   2.341   8.893 -0.2051 -0.0389  0.0366
    1W        W53929   9.587  27.428   0.132 -0.3976 -0.2834  0.1500
    1W        W53930   4.809  10.653   2.319  0.2343  0.1626  0.1879
    1W        W53931  21.942   3.113   6.379 -0.2808  0.2039  0.3114
    1W        W53932  27.050  10.944   0.134 -0.4237  0.0374 -0.0931
    1W        W53933   3.175  12.454   1.680 -0.0811 -0.0428 -0.4566
    1W        W53934   5.944   6.749   1.087  0.0098  0.0217 -0.1459
    1W        W53935   2.690  16.558   7.593  0.1521  0.2859 -0.0742
    1W        W53936  11.112   0.433   9.481  0.2521 -0.0222 -0.0387
    1W        W53937  27.127  16.976   8.769 -0.2021 -0.0194 -0.2776
    1W        W53938  13.137   2.775   1.384  0.0440  0.2051  0.0800
    1W        W53939   9.433   3.490   2.779 -0.0041  0.0512 -0.0771
    1W        W53940   7.066  27.228   2.381  0.2674 -0.1121 -0.3981
    1W        W53941  26.569   4.896   2.145  0.0306  0.1511 -0.0997
    1W        W53942  24.622  11.368   8.265  0.1813 -0.2695 -0.0742
    1W        W53943   0.001   2.160   6.858 -0.0603  0.0582  0.0858
    1W        W53944  24.978  11.706   7.469  0.0076  0.0903 -0.2196
    1W        W53945  19.878   9.665   3.396  0.0233  0.1021 -0.1119
    1W        W53946   8.585  10.000   8.057 -0.1653 -0.0316  0.1235
    1W        W53947  18.465  10.531   0.647  0.3749  0.2191 -0.1594
    1W        W53948  11.891  21.520  10.198  0.0028 -0.2676 -0.0038
    1W        W53949   8.927   1.690   1.987 -0.2234  0.0828  0.1243
    1W        W53950   4.623  15.492   9.409  0.1367  0.4409  0.0372
    1W        W53951  13.137  15.658   9.911  0.2345  0.0100  0.0197
    1W        W53952   3.637  21.194   2.853 -0.2912  0.0536  0.0018
    1W        W53953   0.050  26.149   1.491  0.3852 -0.1580 -0.1989
    1W        W53954   3.963  14.972   8.246 -0.4947  0.0826 -0.0507
    1W        W53955   3.187   6.180   1.500 -0.2093 -0.0591  0.2084
    1W        W53956  27.370  12.600   1.025 -0.1287  0.0952  0.1052
    1W        W53957  25.646   3.928   1.639  0.0741  0.2818 -0.0496
    1W        W53958  20.215   9.738   1.950  0.0413  0.0057  0.1248
    1W        W53959  18.650   8.933   4.042  0.0211  0.0196 -0.0518
    1W        W53960   1.938  12.193   2.988 -0.0044  0.1379  0.1778
    1W        W53961  20.481  19.502   7.934 -0.0848 -0.0598 -0.2346
    1W        W53962  18.157   3.808   0.057  0.0276  0.1374  0.1522
    1W        W53963  22.133  24.684   0.850 -0.1031  0.4636  0.0198
    1W        W53964  27.312  21.771   1.556  0.0681  0.1015  0.1776
    1W        W53965  25.308  14.438   1.309  0.2071  0.1699 -0.4528
    1W        W53966  27.719  13.597   9.384 -0.0827  0.0426 -0.2209
    1W        W53967  12.633  16.729   9.896 -0.1695  0.1766 -0.4115
    1W        W53968   5.285  26.661   1.395 -0.0347 -0.1603 -0.0515
    1W        W53969   7.069  12.391   6.736 -0.0372  0.2330 -0.0963
    1W        W53970  27.823  27.018   7.406  0.0713 -0.0568  0.2847
    1W        W53971   0.081  14.026   8.175  0.0294  0.3721  0.1251
    1W        W53972   8.708   8.948   1.913  0.2949 -0.1303  0.2762
    1W        W53973  22.019  13.931   0.408 -0.2457 -0.4303 -0.0556
    1W        W53974   7.784  22.413   1.540  0.0984  0.2113  0.1370
    1W        W53975  12.914  26.192   9.550  0.0261 -0.0990  0.0699
    1W        W53976   5.790   3.717   0.458  0.1346 -0.1217  0.0487
    1W        W53977  16.788   5.862   8.749  0.0357 -0.1441 -0.0067
    1W        W53978  13.261  26.434   1.469  0.0314 -0.3423 -0.0548
    1W        W53979  13.367  25.504   1.543  0.0375  0.1255 -0.1377
    1W        W53980  17.486  12.415   8.588 -0.1771 -0.0982 -0.1910
    1W        W53981   5.520  17.435   0.797 -0.1819  0.1958 -0.0581
    1W        W53982  17.940   0.694   2.781  0.3467 -0.2287 -0.1575
    1W        W53983  17.777  23.846   8.102 -0.1053  0.1282  0.0563
    1W        W53984  19.379  12.960   2.257  0.1734  0.0085  0.2911
    1W        W53985  12.647  19.426  10.322  0.0809  0.1839  0.2994
    1W        W53986  19.203  12.079   6.766  0.1384  0.0077  0.0048
    1W        W53987  19.859  21.414   0.223 -0.4771  0.0766 -0.4311
    1W        W53988   8.108  20.160   1.948  0.3317 -0.2096 -0.1097
    1W        W53989  20.814   7.828   1.606 -0.1710  0.0125  0.0059
    1W        W53990   1.157   7.607   1.439  0.4203 -0.0755 -0.0271
    1W        W53991   3.067  14.779   1.380 -0.1007 -0.0709 -0.1680
    1W        W53992  20.680  20.429   8.034  0.0719  0.0362  0.1084
    1W        W53993   5.232  13.642   1.968 -0.2515  0.1202  0.2834
    1W        W53994  19.047  24.272   8.846 -0.0108  0.0208  0.2504
    1W        W53995  26.490  16.036   6.825  0.0617 -0.1109  0.0794
    1W        W53996   1.960  21.919   7.075 -0.1545 -0.0715 -0.2495
    1W        W53997  25.933   7.101  10.127 -0.1124 -0.1512 -0.1089
    1W        W53998  20.967  15.249   8.718  0.0729  0.3396  0.0118
    1W        W53999   9.623  12.086   2.577  0.0666 -0.1730  0.1270
    1W        W54000   6.825  20.995   2.531  0.2404 -0.0932 -0.0872
    1W        W54001  15.575   3.190   7.984  0.0360  0.0610 -0.0470
    1W        W54002  10.188  19.811  10.142  0.0754  0.1927  0.2721
    1W        W54003   2.411   3.578  10.176  0.1330 -0.3545 -0.1191
    1W        W54004  23.563   4.554   8.562 -0.0591 -0.0428 -0.3795
    1W        W54005  22.726  20.569   3.341 -0.0918 -0.1059 -0.0732
    1W        W54006  24.905  14.481   9.253 -0.2147  0.1133 -0.0586
    1W        W54007  21.718   3.964   2.660 -0.2682 -0.2542 -0.0932
    1W        W54008  27.941   1.560   1.466  0.2963 -0.0888 -0.0138
    1W        W54009   2.760  22.833   9.231  0.1888  0.1035  0.1995
    1W        W54010   5.138  18.633   6.764  0.0944  0.3368  0.2619
    1W        W54011   4.957  18.647   9.479 -0.1518 -0.2723  0.0974
    1W        W54012   3.529   1.999   7.353 -0.3118  0.1994 -0.4074
    1W        W54013   8.814   1.977   8.576 -0.1619  0.1381 -0.2175
    1W        W54014  21.122  16.661   0.434 -0.0837  0.1760  0.1431
    1W        W54015  10.545  14.584  10.001  0.0757  0.0483  0.0529
    1W        W54016  22.857  25.785   9.591 -0.2272 -0.1612  0.0968
    1W        W54017   1.323  17.643   1.861 -0.0485  0.1893 -0.0374
    1W        W54018  17.059   3.195  10.068  0.1659  0.1480  0.1002
    1W        W54019   8.410  10.385   2.682  0.0754  0.1781  0.2705
    1W        W54020  25.180  12.349   9.437  0.0383 -0.1488 -0.0013
    1W        W54021  14.431  10.771   3.330 -0.5375  0.0017 -0.2891
    1W        W54022   0.811  13.234   2.230 -0.0049 -0.1119  0.0199
    1W        W54023   4.714  11.661   8.894 -0.0787 -0.0907 -0.2159
    1W        W54024  27.545  27.605   8.057  0.0169 -0.1316  0.2945
    1W        W54025  27.830   6.857   8.056 -0.1069 -0.3002  0.1668
    1W        W54026   4.466  18.057   1.669  0.1809 -0.1662  0.1371
    1W        W54027   7.339  15.129   7.619  0.0719 -0.0680  0.3722
    1W        W54028  15.005  20.782   1.766 -0.0868 -0.0852  0.3865
    1W        W54029  23.683  13.035   9.729 -0.1183 -0.0623 -0.0699
    1W        W54030   6.239   7.956   1.591 -0.1351  0.1590  0.0082
    1W        W54031  15.694  12.965   8.277 -0.0543  0.0800 -0.0252
    1W        W54032  13.644  21.127   1.214  0.0063  0.0197 -0.0173
    1W        W54033  21.085  26.251   0.748 -0.0055 -0.0083  0.1075
    1W        W54034  14.991   2.360   7.769  0.1327  0.2929 -0.0202
    1W        W54035  11.325   0.116   1.749  0.3648 -0.1403  0.3470
    1W        W54036  26.465  13.399   1.899 -0.1297  0.1022 -0.2295
    1W        W54037   6.545  28.080   6.710  0.1076  0.0883 -0.0883
    1W        W54038   0.838   3.819   6.917 -0.2591 -0.1011  0.0838
    1W        W54039  11.255  25.663  10.255  0.0770  0.0844 -0.1047
    1W        W54040  14.475   3.447   3.339  0.1540 -0.2054 -0.0966
    1W        W54041   1.190  10.872   2.629 -0.4243 -0.3093  0.0468
    1W        W54042   3.283   6.661   7.247  0.2289  0.0134  0.0278
    1W        W54043  15.689   8.460   0.612  0.2020 -0.2007  0.1288
    1W        W54044   5.578   1.266   8.437  0.0001 -0.3179 -0.1431
    1W        W54045   2.075  21.152   1.750  0.1200 -0.0433 -0.0856
    1W        W54046  10.559   2.334   8.830  0.0802 -0.1135  0.6790
    1W        W54047  11.882  23.086   0.498 -0.3846 -0.0654  0.2609
    1W        W54048  11.815  11.249   7.678 -0.0852  0.0485 -0.1573
    1W        W54049  16.875  15.600   1.683  0.0344 -0.1182  0.1573
    1W        W54050  10.827  17.202   0.853  0.0634  0.0870  0.2839
    1W        W54051  13.282  24.701   2.328  0.3025  0.1780  0.0284
    1W        W54052  14.978  11.103   9.062  0.3398  0.3806 -0.0771
    1W        W54053  20.574  26.873   2.364  0.1054  0.0304  0.1534
    1W        W54054   5.475   2.569   0.375  0.3109 -0.1653  0.2310
    1W        W54055   9.539  16.776   7.669  0.0444 -0.0522  0.1758
    1W        W54056  14.151  17.079   0.904  0.0173  0.2757  0.2137
    1W        W54057  21.853  26.719   0.108  0.1434  0.1492  0.0309
    1W        W54058  14.234  12.704   7.930  0.1379  0.0779  0.0100
    1W        W54059   4.380  17.059   9.687 -0.1034 -0.2862 -0.1971
    1W        W54060  13.975  14.039   8.739  0.1220 -0.5456  0.2383
    1W        W54061  18.550  15.945   9.706  0.1038  0.0438  0.3426
    1W        W54062  18.816  19.271   1.708 -0.1451 -0.1532  0.2717
    1W        W54063   2.547   9.274   9.358  0.2373  0.2012 -0.0004
    1W        W54064  12.256  16.698   8.196 -0.3642  0.0001  0.1010
    1W        W54065   8.861  19.273   9.689  0.1483  0.1757  0.2456
    1W        W54066  22.275  22.042   8.977  0.0918  0.2712 -0.0586
    1W        W54067   7.786   1.686   7.746 -0.0790  0.0345 -0.1201
    1W        W54068  10.277  20.304   2.343 -0.1133 -0.0526 -0.2017
    1W        W54069  27.418   7.823   7.253  0.1566  0.2822  0.1266
    1W        W54070  27.018  27.313   0.346  0.0556 -0.1066 -0.0087
    1W        W54071   9.891   3.019   0.940 -0.0451  0.2776 -0.5051
    1W        W54072  20.161  11.057   9.906  0.0048  0.3120 -0.1717
    1W        W54073   8.252   0.608   1.624 -0.1574 -0.2701 -0.0767
    1W        W54074   0.144   5.947   8.157 -0.1662  0.4774 -0.1347
    1W        W54075  25.770  22.955   0.093 -0.1544  0.1173  0.1718
    1W        W54076  24.556  17.353   2.563  0.0374 -0.2501 -0.2054
    1W        W54077  11.259  10.604   9.371  0.3009 -0.0800  0.1892
    1W        W54078  27.180   0.262   7.576  0.1631 -0.0804 -0.1905
    1W        W54079   1.005  13.887   0.361  0.0840 -0.2303 -0.0947
    1W        W54080  24.496   6.095   6.904  0.2395  0.1219 -0.0820
    1W        W54081  16.571   1.773   1.155 -0.1216 -0.2306 -0.3224
    1W        W54082   3.028   2.349   5.818 -0.0464 -0.2576 -0.0385
    1W        W54083  16.920   4.962   9.642 -0.0026  0.2912  0.0568
    1W        W54084  21.448  23.119  10.078 -0.0340  0.0819  0.0179
    1W        W54085   5.152   1.373   7.634  0.0292 -0.0489  0.0022
    1W        W54086  22.172  14.289   0.149 -0.2336 -0.0899 -0.0574
    1W        W54087  21.210   2.038   9.928 -0.1594 -0.2391  0.2442
    1W        W54088   6.965  10.179   9.701  0.2481  0.2090 -0.2478
    1W        W54089  10.783  18.194   9.775  0.1145 -0.2483  0.1654
    1W        W54090   5.389   8.699   2.334  0.2238  0.1088 -0.2562
    1W        W54091   3.130   0.804   8.733  0.0302 -0.0964  0.3451
    1W        W54092   1.874   3.817   1.486  0.3696 -0.1706  0.1016
    1W        W54093   4.313  13.861  10.235 -0.0232  0.3933  0.1270
    1W        W54094  16.817  27.937   2.942  0.0139  0.0561  0.0779
    1W        W54095  16.836  24.477   0.896 -0.1742 -0.1326  0.1898
    1W        W54096  26.599  15.786   2.375 -0.1133  0.0334 -0.1096
    1W        W54097   3.215   6.162   7.266  0.2331 -0.1078 -0.0261
    1W        W54098  21.534  20.545   1.154 -0.0560 -0.0085 -0.2001
    1W        W54099  11.127   7.333   8.056  0.2219 -0.0215 -0.2735
    1W        W54100  18.413   4.724   2.275 -0.0969  0.0912 -0.1902
    1W        W54101   1.373  18.389   6.596 -0.1885  0.1420 -0.1354
    1W        W54102   7.144   4.704   6.685  0.0369  0.0681 -0.2080
    1W        W54103  25.031  12.554   7.920 -0.1808  0.2936  0.0453
    1W        W54104  25.047   8.358   7.278 -0.0613 -0.2599 -0.1728
    1W        W54105  15.255  14.428   1.645 -0.1547 -0.0241  0.1642
    1W        W54106  13.269   6.926   3.839 -0.0936  0.1031  0.1091
    1W        W54107   0.668  22.704   9.457 -0.1657  0.2576 -0.0162
    1W        W54108  21.422  20.713   7.700 -0.0121 -0.1241 -0.1439
    1W        W54109  10.288  27.275   7.914  0.2524  0.3493 -0.2136
    1W        W54110  13.042   5.211   2.506 -0.0580 -0.0540 -0.0403
    1W        W54111   2.269   6.291   1.049 -0.1761 -0.1857  0.1130
    1W        W54112   9.288  24.300   7.534 -0.0036 -0.1311 -0.4300
    1W        W54113  25.566   2.031   9.236 -0.0432  0.0275 -0.1956
    1W        W54114   5.623  22.902   7.689  0.4097 -0.1010 -0.1612
    1W        W54115  11.922   2.197   2.997  0.0066 -0.0495  0.0148
    1W        W54116  21.646   9.913   7.535  0.2424 -0.1659 -0.2143
    1W        W54117  20.439  13.224   7.274  0.2524 -0.0358 -0.0218
    1W        W54118  12.542   2.347   9.277 -0.0692  0.0786  0.2989
    1W        W54119  19.809   7.168   0.258 -0.2559 -0.2114  0.0877
    1W        W54120  27.634  26.913   8.608  0.0837 -0.1023  0.1014
    1W        W54121  18.852   4.801   7.049 -0.1070 -0.0868  0.2584
    1W        W54122  17.046  20.138   3.262  0.4425  0.2129  0.1304
    1W        W54123  21.466  23.990   7.812  0.3356  0.0324  0.2297
    1W        W54124   3.956  23.253   7.062  0.4514  0.2295 -0.1418
    1W        W54125  19.157  13.161   7.681  0.3879 -0.2571 -0.3249
    1W        W54126  21.573   8.086   6.742  0.2299  0.0736  0.0270
    1W        W54127  25.244  27.188   6.762  0.1319  0.0304 -0.3472
    1W        W54128  10.682   3.781   1.692 -0.1253 -0.4080 -0.0198
    1W        W54129  13.492  25.665   2.129  0.1052 -0.0082  0.0336
    1W        W54130  15.893  16.667   2.721 -0.1573  0.1721 -0.3205
    1W        W54131  26.264  16.865   9.613 -0.0280 -0.1441 -0.1497
    1W        W54132  22.298  15.546   9.930  0.1116  0.0430  0.1413
    1W        W54133   9.539  18.011   9.018 -0.4311 -0.1213 -0.2803
    1W        W54134  17.174  18.506   4.083  0.0855  0.0613 -0.3882
    1W        W54135  21.425  25.199   9.098  0.0226 -0.4003  0.0707
    1W        W54136  18.666   0.603   9.761 -0.2113 -0.1916  0.1241
    1W        W54137   5.774  18.283   3.013  0.0647  0.0700 -0.0586
    1W        W54138  15.580  25.026   2.407  0.0473  0.2665 -0.1285
    1W        W54139  22.281   8.152   9.789  0.1864 -0.1933  0.1674
    1W        W54140   3.145   5.323   1.698  0.0768  0.1578  0.0130
    1W        W54141  21.452  28.091  10.111 -0.0265  0.3946 -0.1897
    1W        W54142   1.295   3.298   9.333 -0.0444  0.0229  0.0759
    1W        W54143  26.900  25.998  10.241  0.1959  0.0526 -0.1899
    1W        W54144   2.590   3.757   2.274 -0.1422  0.0802 -0.1250
    1W        W54145  10.681  18.419   0.130  0.0505 -0.1602  0.0927
    1W        W54146   3.599  18.154   3.383 -0.0627  0.0977  0.1749
    1W        W54147   1.664   9.165   7.469  0.2196 -0.1273 -0.3446
    1W        W54148  11.396   8.993   9.094  0.0592 -0.1000 -0.1061
    1W        W54149  14.386   9.610   0.234  0.1135 -0.0533  0.0439
    1W        W54150  11.278   5.474   8.014 -0.2248 -0.0754 -0.1268
    1W        W54151  11.297  10.407   1.572 -0.0760 -0.1489  0.1450
    1W        W54152   0.581  14.080   0.077 -0.1666  0.1260 -0.3703
    1W        W54153  11.872  20.844   9.466 -0.0640 -0.2871 -0.0195
    1W        W54154  25.008  15.268   2.906 -0.0013  0.0327  0.0033
    1W        W54155  19.690   6.875   1.078  0.0063 -0.2211  0.0624
    1W        W54156  20.417   5.145  10.110 -0.4344  0.0003 -0.2646
    1W        W54157  16.257   8.342   7.771  0.1424 -0.3406  0.1112
    1W        W54158   3.199  27.037   2.651  0.0618  0.0572  0.0716
    1W        W54159  23.704   9.585   7.733 -0.0161 -0.2759 -0.2449
    1W        W54160  23.287   7.028   2.438  0.2057 -0.0047 -0.0866
    1W        W54161  18.818   2.595   7.038 -0.0892 -0.0596  0.0103
    1W        W54162   4.149  14.776   7.169  0.0526 -0.2840 -0.0106
    1W        W54163   5.516   4.282   1.222 -0.0477 -0.1034 -0.1694
    1W        W54164   2.822  10.286   8.486  0.0552  0.1039 -0.3378
    1W        W54165   9.513  14.005   9.163 -0.4162  0.0360 -0.0478
    1W        W54166   2.818  18.262   1.879  0.0867  0.0674  0.4102
    1W        W54167  15.451  19.147   7.710 -0.1818  0.0127  0.0234
    1W        W54168  17.197   7.075   9.332  0.1100  0.1133 -0.1118
    1W        W54169   4.332  12.848   0.014  0.3060  0.2737  0.2065
    1W        W54170   6.151   4.133   0.532  0.2580 -0.0706  0.1268
    1W        W54171  20.327  24.189   0.728  0.2281 -0.2958 -0.3829
    1W        W54172  23.350  18.299   2.618  0.0149  0.1973  0.0740
    1W        W54173   4.594  26.185   2.376 -0.1974  0.0016 -0.0917
    1W        W54174   2.334  27.852   2.110 -0.2486 -0.1234  0.0091
    1W        W54175   4.501  12.218   2.320  0.0331 -0.3460  0.0794
    1W        W54176  16.256  11.312   8.311  0.4024 -0.0297 -0.0011
    1W        W54177   4.290  20.275   1.017  0.1642 -0.1499  0.0093
    1W        W54178  15.926   8.641   3.532  0.2564  0.2890 -0.0613
    1W        W54179   9.883   7.778   2.456 -0.1589  0.0668 -0.0960
    1W        W54180   0.361   5.788   1.358  0.1276  0.0952  0.0423
    1W        W54181   9.701  24.013   8.347  0.1105 -0.0360  0.2652
    1W        W54182  14.895  10.764  10.023 -0.2535  0.1397 -0.3169
    1W        W54183  26.437  16.884   0.260 -0.0965  0.0930  0.4684
    1W        W54184  17.806  19.005  10.010 -0.3373  0.3300  0.2760
    1W        W54185  13.777  24.978   2.309  0.1237  0.1364  0.0638
    1W        W54186   1.062  12.479   9.502  0.2421  0.1951 -0.1501
    1W        W54187   4.385  25.486   9.358  0.1141 -0.1023 -0.1426
    1W        W54188   6.871  19.574   2.576 -0.1015 -0.0578 -0.2101
    1W        W54189   2.921  23.311   9.290 -0.0700  0.0468 -0.0033
    1W        W54190  26.818  12.363   6.974  0.2382  0.2510 -0.2276
    1W        W54191  24.143  21.098   9.501  0.0051  0.3414 -0.0049
    1W        W54192  20.809   7.186   7.543  0.0075 -0.2484 -0.0771
    1W        W54193  24.233  18.981   2.166 -0.0865  0.0486  0.0076
    1W        W54194   6.894  19.585  10.219 -0.1777  0.0363  0.1455
    1W        W54195   7.283  27.988   8.829 -0.0224  0.0533 -0.0428
    1W        W54196  16.587  24.898  10.070 -0.2942 -0.2379 -0.4269
    1W        W54197  12.003   8.824   0.297 -0.2610  0.0961  0.0017
    1W        W54198  24.214  23.448  10.124  0.0259  0.0018 -0.1127
    1W        W54199   8.344   7.937   1.231  0.0732 -0.1247 -0.0062
    1W        W54200   6.740   8.599   7.089 -0.2977 -0.2930  0.0478
    1W        W54201   7.824   6.303   0.821  0.0538 -0.0561  0.1313
    1W        W54202  21.142  14.778   8.739  0.1233 -0.1089  0.1158
    1W        W54203   7.708  18.548   2.818 -0.2932  0.2421 -0.1689
    1W        W54204   4.022   4.059   1.305  0.0579 -0.0734 -0.2388
    1W        W54205  27.049  23.305   7.910 -0.2100 -0.0076 -0.0184
    1W        W54206   3.321  27.992   3.068 -0.1032  0.0012  0.3702
    1W        W54207   1.694  11.009   9.028  0.1813  0.2439 -0.1632
    1W        W54208  18.474   4.155   1.049 -0.1349  0.0529 -0.2401
    1W        W54209  21.890   2.495   2.065 -0.0244 -0.0470 -0.0661
    1W        W54210  18.896  24.108  10.275 -0.2823  0.1964 -0.2215
    1W        W54211   2.535  25.747   1.660 -0.0568  0.0603  0.0193
    1W        W54212  17.915   8.048   4.092  0.1992  0.1105  0.1161
    1W        W54213  19.086   2.037   3.124  0.1136 -0.1453 -0.0306
    1W        W54214  27.994   2.650   8.772 -0.0178  0.0087 -0.1301
    1W        W54215   5.007  16.039   8.997 -0.0131 -0.1637  0.2263
    1W        W54216  13.946  21.719   0.456  0.1826  0.4856  0.1281
    1W        W54217   8.385  14.175  10.175 -0.2705  0.2039  0.0082
    1W        W54218  25.308  17.162   7.957 -0.0337 -0.1400 -0.2005
    1W        W54219  18.211   2.177   1.344 -0.0447 -0.3300 -0.0106
    1W        W54220  12.046  21.097   8.027 -0.0062 -0.1618 -0.0535
    1W        W54221   1.733  18.496  10.141  0.0748 -0.1575 -0.3047
    1W        W54222   0.736  20.269   2.125  0.1464  0.2644  0.0626
    1W        W54223   2.641  18.985   7.040 -0.0674 -0.1275  0.0134
    1W        W54224   6.912  17.001   3.315 -0.0666  0.1297  0.3053
    1W        W54225   8.877  11.802  10.021  0.1640 -0.0770  0.0674
    1W        W54226  27.581   1.819   8.436  0.0908 -0.1389 -0.0458
    1W        W54227  19.926  23.565   0.889  0.1567 -0.1381 -0.2866
    1W        W54228   8.404  26.725   0.887 -0.1964  0.1466  0.4005
    1W        W54229   3.826  27.763   6.788  0.2389  0.2777 -0.1658
    1W        W54230   7.631   7.735   0.764  0.0796  0.1942  0.2673
    1W        W54231  25.049  18.721   7.007 -0.2256 -0.2305 -0.1168
    1W        W54232  20.831  27.507   1.779  0.1310 -0.1905  0.0685
    1W        W54233   4.900   5.964   2.100 -0.1426  0.1937  0.0319
    1W        W54234   5.897  10.658   0.897  0.0276  0.1419  0.2894
    1W        W54235  15.800  15.934   1.116  0.1276  0.1088 -0.0606
    1W        W54236   3.818  26.853   8.993  0.2219 -0.1094 -0.0077
    1W        W54237  23.540  20.444   0.030  0.0190 -0.0656  0.0023
    1W        W54238   1.854   9.804   2.565 -0.3232 -0.1574  0.0262
    1W        W54239  27.052   1.558   7.441 -0.0035 -0.2884 -0.2195
    1W        W54240   2.318  11.854   0.682 -0.3295 -0.1031 -0.3982
    1W        W54241  24.599   4.571   8.679  0.0189  0.2402 -0.3855
    1W        W54242  13.193  15.260   9.474  0.2653  0.0970 -0.0186
    1W        W54243  27.538   1.596   1.778  0.1852 -0.0266  0.4943
    1W        W54244   1.673  19.032   9.949 -0.2854 -0.2771  0.3125
    1W        W54245   4.257  14.164   0.336  0.2057 -0.0890  0.2678
    1W        W54246   1.303   6.541   6.968  0.2168 -0.1636 -0.0259
    1W        W54247  12.314  26.620   0.326 -0.2745 -0.2550 -0.1100
    1W        W54248  27.889   2.779   0.270 -0.0724  0.0897 -0.0290
    1W        W54249  18.986   3.333   5.835  0.2939 -0.1048  0.3144
    1W        W54250   7.219   1.099   7.785 -0.0131 -0.0458  0.1767
    1W        W54251  24.251  27.295   8.463  0.2203  0.0279  0.0868
    1W        W54252   8.363   8.681   2.243 -0.0601 -0.0746 -0.0506
    1W        W54253  14.146  21.659   7.413 -0.1943 -0.3059 -0.0965
    1W        W54254   6.841  24.572   9.852  0.1121 -0.3060  0.2308
    1W        W54255  12.848  17.316   0.636  0.0946  0.0273  0.0070
    1W        W54256  27.177  23.300   9.228  0.3964  0.1844  0.0962
    1W        W54257  21.963  13.524   9.310 -0.0407 -0.0864  0.2082
    1W        W54258  24.196  15.126  10.216  0.1449 -0.0776 -0.0162
    1W        W54259  26.182  18.071   0.856 -0.1084 -0.1606  0.1358
    1W        W54260  16.807   0.005   2.047  0.0007  0.2529  0.2293
    1W        W54261   2.771  21.994   3.447  0.0538 -0.2191  0.4983
    1W        W54262  26.532  23.147   8.095  0.0178 -0.1053 -0.0041
    1W        W54263  21.159  14.066   0.652 -0.5264 -0.1218 -0.1654
    1W        W54264   8.923   5.577   3.386  0.0242 -0.1508  0.0739
    1W        W54265  19.487  12.555   2.548 -0.0245 -0.1186  0.0960
    1W        W54266  18.367  11.768   1.040  0.1743  0.1106  0.1968
    1W        W54267  18.739   5.015   0.232 -0.0793 -0.0349  0.1988
    1W        W54268  13.557   5.721   3.311  0.0357  0.1134 -0.0384
    1W        W54269  12.800  16.694   0.031  0.3739  0.0560  0.2153
    1W        W54270  23.621   6.044   8.122  0.0070 -0.0754 -0.0489
    1W        W54271   7.382  24.104   8.182  0.2514  0.2941 -0.4077
    1W        W54272  15.019   0.421   1.207 -0.2955  0.1977 -0.1467
    1W        W54273  12.939  16.815   7.585 -0.1356  0.0463 -0.0697
    1W        W54274  11.633   9.395   8.932 -0.1980  0.0056 -0.1420
    1W        W54275   1.498   5.574   8.152 -0.1106 -0.0578  0.2351
    1W        W54276  17.571  17.801   2.265 -0.1397 -0.2509  0.1008
    1W        W54277  13.549   7.498   2.605  0.0014  0.1925 -0.2131
    1W        W54278  17.422  24.736   7.083  0.1605 -0.0414 -0.1182
    1W        W54279  20.034  15.307   9.381  0.1415 -0.0367  0.2453
    1W        W54280  11.406  18.144   2.288  0.0866  0.2868  0.2545
    1W        W54281  18.820  25.946   9.399 -0.0849 -0.1342 -0.0768
    1W        W54282   7.057  24.790   7.273  0.1874  0.0157  0.2276
    1W        W54283  20.944  17.110   0.814  0.1356  0.1119  0.0768
    1W        W54284   8.408  24.876   7.485  0.1207 -0.2367  0.2140
    1W        W54285  20.728  15.110   7.840  0.3648 -0.0721 -0.0268
    1W        W54286   0.387  11.067   8.941 -0.1305 -0.0005 -0.2233
    1W        W54287  16.460   7.100   6.890  0.1567  0.0041 -0.0614
    1W        W54288  23.416   4.017   8.260 -0.0102 -0.0057 -0.3133
    1W        W54289  13.012  22.286   9.668 -0.1774 -0.3014  0.0017
    1W        W54290  14.532  15.673   3.448 -0.3594  0.1188  0.2697
    1W        W54291  15.238  16.282   9.949  0.0795  0.2684 -0.1716
    1W        W54292  23.014  27.795   2.257 -0.1198  0.0024  0.2699
    1W        W54293   8.802  22.780   8.505 -0.0449 -0.3420 -0.0136
    1W        W54294   3.374  16.148   0.043  0.0819 -0.2708 -0.0876
    1W        W54295  19.250  14.880   9.814 -0.2104 -0.0940 -0.1651
    1W        W54296  18.863  25.081   8.630 -0.0889  0.1710 -0.1145
    1W        W54297  12.624  15.635   1.036 -0.1713 -0.1667 -0.0240
    1W        W54298  21.672  16.460   9.249  0.2781 -0.2917  0.0228
    1W        W54299  10.691  27.258   8.305  0.1386 -0.0050  0.1281
    1W        W54300  19.847  18.460   7.656  0.0581 -0.0056 -0.3112
    1W        W54301  10.125   3.856   8.989  0.1626 -0.1930  0.0209
    1W        W54302  12.712   2.641   1.114 -0.1859  0.0553  0.1119
    1W        W54303  13.062   3.361   9.462 -0.0562 -0.1901  0.0881
    1W        W54304   1.034  24.180   8.826 -0.1268  0.1221 -0.1404
    1W        W54305   3.056  21.003   3.124 -0.0981 -0.1794  0.1084
    1W        W54306   0.421  22.631   7.341  0.1420 -0.0176  0.0230
    1W        W54307   9.786  25.943   9.641 -0.2551  0.1138 -0.1501
    1W        W54308   0.744   8.538   9.681  0.0683 -0.2750  0.0627
    1W        W54309   4.282  18.148   2.114 -0.0842 -0.0679 -0.0698
    1W        W54310   8.285   3.836   6.933  0.2661  0.0513  0.4915
    1W        W54311   4.720   5.916   9.387  0.0289 -0.0547  0.1868
    1W        W54312  18.537   0.286   9.336 -0.0765 -0.3322 -0.1315
    1W        W54313   9.085  26.800   2.611  0.1053  0.0708  0.0230
    1W        W54314  27.876   6.124  10.312  0.4136 -0.1823 -0.3196
    1W        W54315  25.161   1.635   1.592 -0.1679 -0.1279  0.2022
    1W        W54316   7.189  15.508   2.922  0.1129  0.2692 -0.0053
    1W        W54317   6.519  11.699  10.121 -0.1309  0.0883  0.2538
    1W        W54318   0.793   3.144   9.456  0.0293 -0.0500  0.1780
    1W        W54319  20.885  23.772   8.433  0.0124  0.0040  0.0176
    1W        W54320  20.654  19.892   0.825  0.2196 -0.1724 -0.1616
    1W        W54321  11.746  19.222   7.937  0.0557 -0.1367  0.1459
    1W        W54322  20.425   1.833   0.519 -0.0059  0.0311 -0.1801
    1W        W54323   4.403  11.379   0.633  0.0086  0.1197  0.0773
    1W        W54324  15.939  13.442   0.180 -0.0385  0.0478  0.0384
    1W        W54325   0.597  25.836   2.425 -0.3074  0.1247 -0.0886
    1W        W54326  22.398   0.247  10.069 -0.0530 -0.1107 -0.0051
    1W        W54327  25.289  26.112   6.855  0.2515 -0.4503 -0.3700
    1W        W54328  25.631   9.446   2.283  0.1031  0.0352 -0.3770
    1W        W54329   2.127   8.583   7.935  0.6056 -0.0841 -0.3533
    1W        W54330  17.741  12.398   1.346 -0.2154  0.1978 -0.4128
    1W        W54331  14.209   8.997   3.880 -0.1079 -0.0633  0.2848
    1W        W54332  18.093  23.510   9.458 -0.0692 -0.0463 -0.0079
    1W        W54333  11.091  11.982   8.222  0.1179 -0.0383 -0.2395
    1W        W54334  21.498   1.292   0.025 -0.1424 -0.2984  0.0870
    1W        W54335  15.954  21.911   1.375  0.0482  0.0490  0.0589
    1W        W54336  19.427   3.353   8.515  0.1601 -0.1534 -0.1926
    1W        W54337   8.896   0.742   7.956  0.2559  0.1579 -0.2156
    1W        W54338   0.742   0.763   9.271 -0.1880 -0.0042 -0.3016
    1W        W54339   2.643  21.422   2.937  0.1810  0.0119 -0.0855
    1W        W54340   3.724  16.399   1.842  0.0552 -0.0117  0.1342
    1W        W54341  14.456   2.709   2.556 -0.2578  0.1641  0.0706
    1W        W54342  24.060  23.758   9.173  0.1385  0.0901 -0.1151
    1W        W54343  23.860  27.099   0.395 -0.2473  0.3454  0.3659
    1W        W54344   9.506  17.893   0.368 -0.4483  0.3126 -0.1790
    1W        W54345  26.395  16.944   7.312  0.0991  0.0038 -0.2761
    1W        W54346   5.510  14.991   2.566  0.3799  0.0374 -0.0788
    1W        W54347  15.444  27.313   0.718  0.0513  0.0246  0.0137
    1W        W54348   5.643  16.844   1.418 -0.0315  0.2920 -0.0977
    1W        W54349   2.021  14.913   7.756 -0.2792  0.0714 -0.1096
    1W        W54350  14.647   8.803   8.092 -0.2482 -0.0718 -0.0245
    1W        W54351  11.226   9.163   2.370  0.0532  0.1703 -0.1836
    1W        W54352  15.146  24.399   2.411  0.1449  0.0411 -0.2780
    1W        W54353  15.075  27.471   1.527  0.3187 -0.0371  0.3523
    1W        W54354   2.323   8.251   8.765  0.4079 -0.1677 -0.0884
    1W        W54355  11.493  27.883   2.047 -0.1575  0.0422 -0.2044
    1W        W54356  23.523   5.835   3.498  0.1415  0.1220 -0.0352
    1W        W54357  24.690   4.545   1.035  0.1703  0.0141 -0.1165
    1W        W54358   3.162  17.416  10.231 -0.0235 -0.2687  0.2393
    1W        W54359  24.711  12.686  10.110 -0.0415 -0.0440 -0.1317
    1W        W54360   4.523   3.995   2.678  0.0177  0.0328  0.1859
    1W        W54361  17.653  13.324   3.401 -0.0045 -0.0686  0.1764
    1W        W54362  14.956  20.959   2.649 -0.1318 -0.0046  0.2253
    1W        W54363  10.978  19.621   0.462  0.1499 -0.3480 -0.0258
    1W        W54364  11.940  22.065   2.234  0.5675  0.0387  0.2781
    1W        W54365  11.596  27.052   8.282 -0.1525  0.2215  0.1832
    1W        W54366   5.135   1.423  10.054 -0.3079  0.1453  0.0643
    1W        W54367  20.035  25.824   9.760 -0.1016 -0.4217  0.1144
    1W        W54368  25.119  27.677   6.368  0.1454  0.0647 -0.1004
    1W        W54369  24.900  12.072   7.884  0.1249 -0.1410  0.0122
    1W        W54370  24.381  19.057   9.531 -0.0741 -0.0038  0.1971
    1W        W54371   8.074   5.124   8.235 -0.0174 -0.2216  0.0857
    1W        W54372  16.708  25.514   8.086 -0.2293 -0.0878 -0.1965
    1W        W54373   3.589   0.970   7.824  0.1291 -0.2651 -0.2609
    1W        W54374  20.304   6.007   1.608  0.0504 -0.4142 -0.1390
    1W        W54375  18.039  21.579   7.276  0.0894 -0.1288 -0.1685
    1W        W54376  24.784  19.641   7.758 -0.1902  0.0091  0.0359
    1W        W54377   0.485  21.453   2.496  0.2387  0.0656 -0.1638
    1W        W54378   7.175  12.888   6.896  0.0911 -0.1358  0.0911
    1W        W54379  12.336  23.408   7.849 -0.0962 -0.2165 -0.0091
    1W        W54380   7.041  13.107   0.600 -0.1328  0.0485 -0.0598
    1W        W54381  27.591  22.235   9.591  0.0799  0.0465 -0.2191
    1W        W54382   8.868   4.177   2.477 -0.2065 -0.1024 -0.0861
    1W        W54383  21.685  21.652   7.752 -0.3261  0.1462  0.0367
    1W        W54384  20.830  20.382   0.548  0.0059  0.0665  0.2968
    1W        W54385  24.297  25.171   7.273  0.0854  0.2480 -0.0259
    1W        W54386   4.723  13.548   8.066 -0.0043  0.2471  0.0374
    1W        W54387  27.205   8.227   2.239 -0.0608  0.0004  0.1289
    1W        W54388   3.757  18.181   0.250  0.0536  0.0702 -0.0006
    1W        W54389   8.274  23.966   8.532 -0.0768 -0.2669 -0.3007
    1W        W54390   0.442  25.017   9.090  0.2441 -0.0448 -0.1671
    1W        W54391   0.228  21.546   8.722  0.2475  0.1291 -0.0669
    1W        W54392   6.418  14.293   0.053 -0.2521 -0.1538  0.1034
    1W        W54393  25.844   1.244  10.176 -0.2533  0.0185 -0.0610
    1W        W54394  24.652   5.084   7.754 -0.1541 -0.1461 -0.1761
    1W        W54395  19.873  23.784   9.280 -0.1019 -0.1710 -0.0122
    1W        W54396  25.752  27.358   7.577 -0.0055  0.2984  0.4683
    1W        W54397  23.976  19.596   8.491 -0.0402 -0.0044 -0.1150
    1W        W54398  27.635  11.111   2.845  0.3575 -0.2241 -0.2058
    1W        W54399   2.252  15.901   2.642 -0.3140  0.1055  0.0548
    1W        W54400   2.440  11.687   1.671  0.0091  0.1476 -0.0578
    1W        W54401  27.202  13.318   7.270  0.3216 -0.0234 -0.2300
    1W        W54402  21.168  13.433   2.148  0.1181 -0.3368  0.1126
    1W        W54403  19.112   3.335   1.029  0.0625 -0.0567 -0.0729
    1W        W54404  22.524  10.374  10.083 -0.1902  0.2694  0.4029
    1W        W54405  27.403  27.327   9.925 -0.0004  0.0053  0.3677
    1W        W54406  10.135  12.239   2.744 -0.0837  0.1538  0.0704
    1W        W54407  17.001  17.885   7.662  0.2732  0.1052 -0.0596
    1W        W54408   7.585   8.579   2.237 -0.1076  0.3608 -0.1214
    1W        W54409   0.272   1.484   1.639 -0.4336 -0.3140  0.4190
    1W        W54410  14.890   4.687  10.339  0.0324 -0.0794  0.0889
    1W        W54411  19.126   6.752   7.966 -0.3059 -0.1596 -0.3206
    1W        W54412  23.054   8.096   9.428  0.0092 -0.0181  0.2680
    1W        W54413   3.492   6.454   9.939 -0.3080 -0.1217  0.2037
    1W        W54414  23.769   0.769   0.228  0.2268 -0.0418 -0.1135
    1W        W54415  20.074  12.459   7.659  0.0037 -0.3132  0.0287
    1W        W54416  17.539  26.559   9.259  0.0909 -0.0547 -0.1121
    1W        W54417   9.074  23.632   8.065 -0.0074 -0.0086 -0.1587
    1W        W54418   2.596   2.674   6.857 -0.3686  0.2458  0.2640
    1W        W54419  16.570  23.574   1.412 -0.2788 -0.3813 -0.1344
    1W        W54420  20.712  11.040   8.590 -0.0187  0.2001  0.0684
    1W        W54421  15.308  22.668   6.551  0.2278  0.0883  0.0706
    1W        W54422  11.166  14.667   9.442 -0.1325 -0.0300 -0.0529
    1W        W54423   9.273   5.719   0.111  0.0225 -0.1501 -0.0252
    1W        W54424  16.071  20.127   8.549 -0.3967  0.4187  0.0774
    1W        W54425  21.402  22.428   0.267 -0.0166 -0.2794  0.3052
    1W        W54426  22.818   5.222   1.350 -0.0156  0.1812  0.0451
    1W        W54427  15.353   1.033   7.230 -0.1072  0.0449  0.0134
    1W        W54428   5.129  27.661   9.410  0.0955  0.0997 -0.4217
    1W        W54429  27.126  20.726   2.508  0.1270 -0.0818 -0.0668
    1W        W54430  20.111  18.736   1.833  0.1161  0.1110  0.1522
    1W        W54431  14.461  17.760   8.116  0.2785 -0.2172 -0.1359
    1W        W54432  27.613  24.206   0.575 -0.2797 -0.1066 -0.3199
    1W        W54433  13.953  24.229   2.986 -0.0029 -0.2134 -0.2751
    1W        W54434   0.834  20.923   0.635  0.0806  0.1164  0.1329
    1W        W54435   4.070  28.040   8.134 -0.0330  0.0253 -0.0733
    1W        W54436  15.260  20.227   7.992 -0.1798  0.0211 -0.0086
    1W        W54437  25.257  23.403   2.176  0.1574  0.3502 -0.0104
    1W        W54438   1.810  18.698   6.565  0.3290 -0.1131  0.0188
    1W        W54439  19.915  15.747   8.504  0.0659 -0.0954 -0.0747
    1W        W54440  10.074  21.421   8.714  0.0972 -0.2288 -0.2459
    1W        W54441  27.529  24.404   7.448  0.0349 -0.0191 -0.2438
    1W        W54442   6.352  24.772   9.676 -0.3395  0.1876  0.3296
    1W        W54443   4.528  23.517   2.316 -0.2793 -0.1629  0.0161
    1W        W54444  11.703  12.883   9.336 -0.0567 -0.0324 -0.1734
    1W        W54445   3.715  27.135  10.274  0.1008  0.0806 -0.1586
    1W        W54446   0.008  13.847   1.195 -0.2017 -0.0412  0.3042
    1W        W54447   1.767  25.163   2.169  0.1454 -0.0023 -0.1407
    1W        W54448  21.184   0.661   8.672 -0.1417 -0.0332  0.0526
    1W        W54449   2.296   4.162   8.158 -0.0669  0.0198  0.4385
    1W        W54450   7.940   2.262   2.144 -0.0689  0.1460  0.0024
    1W        W54451  16.287  22.124   8.755  0.0403  0.1189 -0.0843
    1W        W54452   8.482  19.599   3.197  0.2329 -0.1518  0.0308
    1W        W54453   5.598  24.798   8.656 -0.1809  0.1701  0.0049
    1W        W54454  13.414   1.777   2.109 -0.1573 -0.0979  0.0489
    1W        W54455  12.445   2.243   7.456  0.0005 -0.0437  0.1241
    1W        W54456  24.714  25.348   9.698 -0.1074  0.1013 -0.0557
    1W        W54457  11.778  25.701   0.705  0.3356  0.2133  0.0381
    1W        W54458  13.981   3.433   9.755 -0.2800 -0.4103  0.0549
    1W        W54459  24.033   5.118   1.100 -0.0537 -0.1355  0.0665
    1W        W54460  15.284   6.053   0.960 -0.0873 -0.0878 -0.1291
    1W        W54461  25.161  24.493   1.919  0.1763 -0.0554 -0.0616
    1W        W54462   7.806  24.848  10.040  0.1310  0.1768 -0.0129
    1W        W54463  21.986  11.906   7.718 -0.2154 -0.3427 -0.1558
    1W        W54464  26.327   2.454   8.236  0.3481  0.0224 -0.0360
    1W        W54465  13.289  18.245   9.764 -0.0228 -0.0749  0.4173
    1W        W54466  16.355  24.513   9.946 -0.1517  0.0696 -0.0487
    1W        W54467  20.607   5.949   0.222 -0.1708 -0.0955 -0.0908
    1W        W54468   8.773   5.453   1.916 -0.1831  0.0916 -0.2388
    1W        W54469  22.341  11.340   9.392 -0.5438  0.2173 -0.1367
    1W        W54470   2.922  10.621   8.990 -0.1162  0.1819 -0.0735
    1W        W54471  13.744  20.866   2.481 -0.1803  0.3125 -0.0851
    1W        W54472  22.198  17.796   0.802  0.0070 -0.2018  0.0596
    1W        W54473  25.718   0.012   1.872 -0.0530 -0.0282 -0.0382
    1W        W54474   7.097   6.152   1.177 -0.0195  0.1648  0.2651
    1W        W54475  23.125   5.861   7.901  0.0420  0.2087 -0.0493
    1W        W54476   9.203  11.510   9.680 -0.1560  0.0375 -0.0039
    1W        W54477  14.822  27.392   0.664  0.2470  0.0430 -0.1314
    1W        W54478   8.899   8.878   2.335  0.1722  0.2592 -0.0461
    1W        W54479   7.822   2.233   6.693  0.0887  0.1907 -0.1446
    1W        W54480  11.223  10.267   2.299  0.0854  0.1843 -0.0864
    1W        W54481  23.859   1.529   3.042 -0.0453  0.2309  0.1053
    1W        W54482   1.354   0.823   7.725 -0.1611 -0.1867  0.1218
    1W        W54483   1.749  16.214   9.803  0.2103  0.2048  0.0474
    1W        W54484   7.399   4.425   1.100 -0.0706  0.0729  0.1283
    1W        W54485  13.611  22.293   1.968 -0.2032 -0.1538 -0.0685
    1W        W54486  22.778  17.047   7.602 -0.0334 -0.1210  0.0091
    1W        W54487   4.475  13.701   2.530  0.0116 -0.0745  0.3500
    1W        W54488  16.982  13.883   8.315 -0.0596 -0.0184  0.0328
    1W        W54489  22.989   4.291   1.251  0.1147 -0.1364  0.1852
    1W        W54490  28.086  28.044   7.291 -0.0320 -0.1691  0.0432
    1W        W54491  13.690  23.174   2.817  0.4792  0.2575  0.3741
    1W        W54492  20.698  21.899   8.066  0.1654 -0.0068  0.1010
    1W        W54493   5.787  15.130   1.111 -0.2245 -0.2077 -0.0003
    1W        W54494  19.630   0.169   9.370  0.2279  0.1583 -0.1201
    1W        W54495  12.526   6.197   7.930 -0.0286  0.2359 -0.0815
    1W        W54496   2.160  27.339   2.293  0.1413  0.2337  0.1487
    1W        W54497   8.755   2.646   0.985  0.0609 -0.4575  0.0127
    1W        W54498  17.706  19.010   0.528 -0.0138 -0.3577  0.0739
    1W        W54499  10.373  24.745   1.499  0.1512  0.1845 -0.1369
    1W        W54500   8.643  10.805   1.438  0.0115 -0.0526 -0.1471
    1W        W54501  14.767  11.961   3.204 -0.1809  0.0652  0.2916
    1W        W54502  16.814  21.642   0.716 -0.0922  0.0067  0.1143
    1W        W54503  15.280   1.493   1.729 -0.0459 -0.0822  0.4355
    1W        W54504   7.640   0.591   9.463 -0.2659  0.2431  0.2541
    1W        W54505  21.391   1.045   9.092  0.1668 -0.1938 -0.2049
    1W        W54506   7.325   6.651   1.435  0.1717  0.1467 -0.0368
    1W        W54507  26.625   2.594   1.366 -0.0531 -0.3649 -0.2171
    1W        W54508  14.721  12.810   9.940 -0.1460 -0.2399  0.1501
    1W        W54509  11.750  20.054   3.006  0.1116 -0.1293 -0.2507
    1W        W54510  18.191  21.339   1.746  0.0654 -0.0404 -0.0109
    1W        W54511  10.018  16.334   3.545  0.1563  0.2012 -0.1057
    1W        W54512   4.790  15.287   0.002 -0.3223 -0.0592 -0.4639
    1W        W54513   6.573  16.352   7.794 -0.0862 -0.1593 -0.3570
    1W        W54514   6.905   0.994   1.433 -0.0408  0.1838 -0.0000
    1W        W54515  18.375  22.017   2.175 -0.0671  0.0428  0.1383
    1W        W54516  12.182   3.475   2.012  0.0005 -0.0438  0.1795
    1W        W54517   0.735   4.521   9.214 -0.0347  0.1223 -0.0358
    1W        W54518  22.030  27.626  10.249  0.3375 -0.2028 -0.1579
    1W        W54519   4.342  27.803   0.186 -0.2825  0.3084  0.0001
    1W        W54520   3.957  25.915   6.830 -0.2776  0.1098 -0.0448
    1W        W54521  20.412  19.023   2.719  0.0068 -0.0177  0.2311
    1W        W54522  26.800   1.152   7.183  0.0425 -0.0166 -0.1289
    1W        W54523  22.235   9.056   2.756 -0.3056 -0.0937  0.1596
    1W        W54524  15.035   3.780   8.103 -0.0204 -0.2393  0.2540
    1W        W54525  23.873  17.797   9.258 -0.0277  0.2892  0.0295
    1W        W54526  13.132  11.820   3.446 -0.1499  0.2806 -0.0106
    1W        W54527  16.105  11.236   0.446  0.0167 -0.0769  0.3772
    1W        W54528  10.303  26.297   9.281  0.2752  0.0278  0.1191
    1W        W54529  27.216   9.882   2.283  0.2862  0.2457 -0.1690
    1W        W54530  14.277   9.288   9.564 -0.0380  0.1780  0.2880
    1W        W54531  16.907   1.474   8.146  0.0037 -0.3648 -0.1698
    1W        W54532  17.779  16.957   2.556 -0.2039 -0.0737  0.2846
    1W        W54533   2.557   4.507   6.315  0.3613  0.1703 -0.2163
    1W        W54534   1.285  17.381   0.377 -0.1033 -0.4528 -0.1494
    1W        W54535  22.749  17.086   6.789 -0.1807 -0.1328 -0.0274
    1W        W54536  21.469   6.588   1.320  0.0297  0.0209 -0.2383
    1W        W54537   3.890   3.995   6.570  0.1335 -0.3933  0.0520
    1W        W54538   2.089   2.849   9.982 -0.4477  0.2568 -0.3810
    1W        W54539  21.245   9.508   1.901  0.2141  0.2054 -0.0009
    1W        W54540  24.214   8.022   6.765 -0.1587 -0.2790  0.2021
    1W        W54541   0.527  27.377   9.209 -0.2549  0.1375  0.1007
    1W        W54542  13.236   5.627   2.917  0.0734 -0.0771 -0.1149
    1W        W54543  18.258  27.509   7.917 -0.0251 -0.4047 -0.1147
    1W        W54544  16.094   2.179   7.634  0.1659  0.3243  0.2161
    1W        W54545  13.158  13.587   0.090  0.0521 -0.0569  0.1245
    1W        W54546  18.052   5.241   9.982  0.1292  0.1993 -0.1885
    1W        W54547  23.427  17.117   0.032 -0.1095  0.1234 -0.0702
    1W        W54548  12.773   5.485   0.632 -0.0900 -0.2315 -0.2690
    1W        W54549  21.391  13.180   3.346 -0.1698 -0.0425  0.1674
    1W        W54550  13.216  13.461   0.949 -0.2259 -0.0911 -0.1704
    1W        W54551  17.727  15.518   9.194 -0.3786 -0.0813 -0.2267
    1W        W54552  22.116   0.332   0.141  0.1095 -0.1563 -0.1192
    1W        W54553   4.827   3.984   0.897  0.3009 -0.1174 -0.0558
    1W        W54554  16.468  26.350   0.080  0.0514  0.2226 -0.1710
    1W        W54555  18.524  18.365   0.202  0.0075  0.2811  0.1470
    1W        W54556  23.132  26.908   3.059  0.2672 -0.1199  0.0539
    1W        W54557  11.256  21.490   8.444 -0.0074 -0.2680 -0.2779
    1W        W54558   1.531  12.431   0.903  0.1555 -0.1870  0.2008
    1W        W54559  13.170  23.538   1.968  0.4031 -0.1102 -0.1286
    1W        W54560   7.655  27.764   2.053 -0.1170  0.1267 -0.2000
    1W        W54561  17.788   0.435   2.141 -0.0460  0.0912  0.1141
    1W        W54562  21.422  12.546   2.473  0.1101 -0.1708  0.0263
    1W        W54563   1.223  27.067   8.329 -0.0800 -0.4531 -0.0297
    1W        W54564  11.865   8.937   1.194  0.3795  0.2768 -0.3151
    1W        W54565  14.141  19.046   7.429 -0.1633  0.0549  0.1983
    1W        W54566   9.224  26.321   0.930  0.0520  0.0974  0.3298
    1W        W54567   1.704   1.917   8.985 -0.1076 -0.1077  0.0053
    1W        W54568   9.046  10.645   9.420 -0.0205  0.1173  0.0040
    1W        W54569  27.184  19.895   1.476 -0.1344  0.2064 -0.2448
    1W        W54570   3.640   4.416   6.944  0.0368  0.0125 -0.1597
    1W        W54571   1.359  17.918   0.433 -0.0077 -0.0674  0.1219
    1W        W54572   0.621  25.838   8.341 -0.0201  0.2868 -0.1628
    1W        W54573   5.290   0.692   0.455 -0.0895 -0.1005 -0.0538
    1W        W54574   8.630   0.405   7.516 -0.2756  0.0371  0.2601
    1W        W54575   2.124   7.812   1.324 -0.1261 -0.1499 -0.1736
    1W        W54576  11.046  20.455   3.546 -0.1033 -0.1337 -0.1518
    1W        W54577  18.713   6.379   7.714 -0.0648  0.1277  0.1286
    1W        W54578   3.673  15.281   9.082  0.2454 -0.1080 -0.2332
    1W        W54579  11.616  19.539   2.954  0.0512 -0.1154  0.0616
    1W        W54580  21.138  16.736   9.239  0.0241 -0.0072 -0.1176
    1W        W54581  23.793  18.761   9.282 -0.2355  0.2482  0.0359
    1W        W54582   8.744  21.616  10.146  0.1708 -0.0839  0.0589
    1W        W54583   4.603   3.107   2.071  0.0801 -0.0882  0.0772
    1W        W54584   9.085  19.153   2.631 -0.1575 -0.0883  0.0527
    1W        W54585   0.296   0.766   8.853 -0.1000 -0.4162  0.0008
    1W        W54586   7.469   7.233   9.647  0.4003 -0.1530 -0.0871
    1W        W54587   7.812   8.112   3.067 -0.1290 -0.2237 -0.0891
    1W        W54588   3.411  15.162   3.183  0.1244 -0.0858  0.1567
    1W        W54589   1.156   3.572   0.682  0.0804  0.2100  0.2148
    1W        W54590  11.788   4.545   8.895 -0.1384 -0.1753  0.1211
    1W        W54591  22.759  20.211   2.582  0.1323 -0.2280  0.0530
    1W        W54592  23.336  21.843   7.885  0.3778 -0.2561  0.1558
    1W        W54593  11.097  16.417   1.518 -0.0136 -0.0027  0.0951
    1W        W54594  16.110  20.743   9.501  0.0375 -0.3112 -0.1050
    1W        W54595  25.025   7.313   8.922  0.0402 -0.1647 -0.0822
    1W        W54596  25.458  22.403   8.327 -0.3065  0.0616  0.2964
    1W        W54597  11.342  26.122   8.077 -0.3100  0.1625  0.0062
    1W        W54598  10.740   3.184   0.779  0.1653 -0.0376  0.0536
    1W        W54599   6.115   6.049  10.081  0.0800 -0.1644 -0.0636
    1W        W54600  22.085   5.533  10.285  0.1431  0.0770  0.3422
    1W        W54601   7.033   2.037   8.004 -0.0111 -0.1854 -0.2875
    1W        W54602   0.766  24.126   6.974 -0.1037  0.2693 -0.1086
    1W        W54603   4.799  17.268   0.116 -0.1838  0.0566  0.0426
    1W        W54604   9.124  22.167   1.061 -0.0752 -0.1735 -0.1127
    1W        W54605  19.136  10.979   0.199  0.1052 -0.2837  0.0470
    1W        W54606  26.925   0.487  10.137  0.2394  0.1548  0.2007
    1W        W54607  25.114  22.467  10.110  0.2299  0.0876 -0.2281
    1W        W54608  25.272  21.216   7.500  0.0133  0.1412  0.1527
    1W        W54609  24.047  27.712   7.516 -0.0554  0.2320  0.1041
    1W        W54610  24.944  24.280   8.117 -0.0062 -0.2599 -0.0746
    1W        W54611  17.961  15.702   2.877  0.1169 -0.1242 -0.2604
    1W        W54612   5.755   8.603   7.567  0.3504 -0.2032  0.0556
    1W        W54613   1.668  22.694   7.308  0.0209  0.1264 -0.1441
    1W        W54614   0.354  11.682   6.943  0.0133  0.1324  0.2347
    1W        W54615  13.927  10.095   9.577  0.1617  0.0862  0.0533
    1W        W54616   5.174   9.568   0.799  0.0492  0.0366  0.2089
    1W        W54617   7.776  10.320   7.772 -0.0412 -0.2497 -0.2300
    1W        W54618   3.579  21.324   9.252  0.3066  0.2827 -0.0393
    1W        W54619  27.535   6.628   9.026  0.1812  0.0149 -0.1762
    1W        W54620  15.547  24.977   7.378 -0.2391  0.2156  0.0048
    1W        W54621  16.901  10.502   7.690 -0.1511  0.2927 -0.0306
    1W        W54622  22.722   5.779   6.980  0.0384 -0.0736 -0.0763
    1W        W54623   6.071   7.417   1.664 -0.0353 -0.1765  0.0637
    1W        W54624   3.282   5.365   6.055  0.3102 -0.0242  0.1095
    1W        W54625  23.206  15.358   0.843  0.0363  0.3011  0.2374
    1W        W54626  12.075  12.692   9.843  0.0009  0.2095  0.0583
    1W        W54627   3.021   9.218   8.079 -0.2283 -0.0146 -0.3477
    1W        W54628  22.100  20.307   8.118  0.0115  0.0420  0.1546
    1W        W54629  10.064   0.021   1.278  0.3442  0.0138  0.0053
    1W        W54630  20.350  21.587   2.734 -0.2956  0.2874  0.0615
    1W        W54631   5.361  22.061   1.771  0.0911  0.0172 -0.3766
    1W        W54632  12.317   9.676   0.424  0.2130 -0.1242 -0.1058
    1W        W54633  18.168   7.368   9.571 -0.0606 -0.3960 -0.1920
    1W        W54634   5.309  27.007   0.920  0.3009 -0.4703  0.1163
    1W        W54635  20.522   9.513   0.546  0.1270 -0.0000 -0.0750
    1W        W54636  21.196  24.756   2.757 -0.2270  0.0895  0.0264
    1W        W54637   4.141   1.803   1.218 -0.1170 -0.3054 -0.0655
    1W        W54638  25.456  12.749   9.667 -0.0310 -0.0488  0.0219
    1W        W54639  18.617  22.570   7.480 -0.4138 -0.0441 -0.1169
    1W        W54640  16.194   2.173   8.478 -0.1135  0.4479 -0.1131
    1W        W54641  14.785  10.873   0.138  0.2682  0.2089  0.2944
    1W        W54642  25.816  21.802   1.263 -0.0367 -0.1098  0.1247
    1W        W54643  26.031  23.996   0.111  0.2416  0.2401  0.1185
    1W        W54644  11.764  12.428   2.154 -0.1000 -0.3980 -0.3760
    1W        W54645   4.044  12.214  10.164  0.0905 -0.1528  0.0293
    1W        W54646  24.643   8.614   0.813  0.0628 -0.0513 -0.0457
    1W        W54647  16.312   1.340   7.234 -0.0793 -0.2958  0.0990
    1W        W54648  27.059   0.021   8.685 -0.2322 -0.2086  0.0336
    1W        W54649  11.324   6.492   9.649  0.0496  0.1479 -0.1205
    1W        W54650  23.304   6.246   1.204  0.2631  0.1999 -0.2181
    1W        W54651   7.487   3.366   8.355  0.0545 -0.0121 -0.3500
    1W        W54652  22.687  14.510   1.343  0.1505  0.0489 -0.0764
    1W        W54653  26.286  10.203   1.883 -0.1126  0.2651 -0.0236
    1W        W54654  15.124  21.940   7.286  0.0954 -0.1114  0.1807
    1W        W54655  13.933   4.884   0.680  0.2977 -0.3090  0.1275
    1W        W54656  18.067   9.388   2.942  0.2736  0.2397  0.1219
    1W        W54657   9.294  16.967   9.786  0.1758  0.0914 -0.0564
    1W        W54658  13.279  16.899   1.206  0.0284  0.2156  0.0240
    1W        W54659   1.445   4.771   8.227 -0.3114 -0.0043  0.0326
    1W        W54660   4.377   6.370   0.202 -0.0966  0.5286 -0.2578
    1W        W54661  14.892  22.954   7.732  0.1673  0.1216  0.0220
    1W        W54662   5.591   5.622   7.704 -0.1107  0.0170 -0.1900
    1W        W54663   9.856   4.223   2.653 -0.2322 -0.1347  0.1918
    1W        W54664   0.089  17.364   1.990  0.0347  0.0825 -0.2290
    1W        W54665  17.386   2.874   9.798  0.1939 -0.2028  0.1556
    1W        W54666   7.018   6.034   9.500 -0.0465  0.0423  0.4508
    1W        W54667  21.859   6.335   9.882  0.1305 -0.3820 -0.0797
    1W        W54668   8.025  14.564   7.703  0.2015 -0.0669 -0.0279
    1W        W54669  11.758  19.967  10.112  0.1339  0.4857  0.3179
    1W        W54670  11.539  19.749   8.120  0.0573 -0.0408 -0.0153
    1W        W54671   0.817  23.988   2.636  0.0348  0.3606  0.0121
    1W        W54672   0.949   3.128   1.840  0.1515  0.0644  0.2505
    1W        W54673  26.952   5.758   9.997 -0.0950  0.2185 -0.1759
    1W        W54674  20.136   3.418   0.417 -0.2997  0.2649 -0.0954
    1W        W54675  15.845  27.630   1.646 -0.2703  0.1126 -0.1975
    1W        W54676   9.364   6.280   9.537 -0.0842 -0.1135 -0.1519
    1W        W54677  10.378  22.461   7.983  0.0298 -0.3487  0.1533
    1W        W54678   8.485  21.182   2.230 -0.1589  0.3970  0.0074
    1W        W54679  21.422   7.030   0.752 -0.0489 -0.2023  0.2746
    1W        W54680  22.191   3.859   0.862 -0.0672 -0.0218 -0.3335
    1W        W54681   4.955  19.047   2.829 -0.2804  0.0790  0.1629
    1W        W54682  26.312  24.394   1.406  0.0132 -0.1483 -0.1723
    1W        W54683   4.880  11.653  10.294  0.1244 -0.1364  0.1936
    1W        W54684   6.922  15.573   7.998  0.1204 -0.1392  0.0092
    1W        W54685  13.864  17.262   1.769 -0.1725 -0.2552 -0.1414
    1W        W54686   6.708   6.839   2.648 -0.1725 -0.1028  0.0103
    1W        W54687  10.030  24.899   2.573  0.2479 -0.1711 -0.0177
    1W        W54688  27.326   1.245   1.465  0.1318  0.2664 -0.1366
    1W        W54689  23.420  11.182   1.051  0.1998  0.0761  0.2657
    1W        W54690  17.683  14.943   3.040  0.4138  0.0406 -0.0772
    1W        W54691  26.372  14.575  10.183  0.0889 -0.1745  0.0411
    1W        W54692  10.204  22.591   0.442 -0.1073 -0.1006  0.0104
    1W        W54693  27.272   1.188   1.992  0.1845 -0.2069  0.1817
    1W        W54694   7.888   3.209   8.095  0.1785  0.1698 -0.0950
    1W        W54695  15.683  16.358   1.862 -0.2788  0.2066  0.0898
    1W        W54696  15.414  19.653   1.377 -0.0361 -0.1298  0.3497
    1W        W54697   5.033   0.015   9.500 -0.0133  0.0885 -0.3111
    1W        W54698  20.421  11.063   1.981 -0.2329  0.1758 -0.0026
    1W        W54699  22.454  12.766   0.658  0.1315  0.0821 -0.1466
    1W        W54700   0.759  18.923  10.137  0.1270 -0.0743  0.0091
    1W        W54701  15.449  15.369   4.109 -0.3859 -0.0934  0.1335
    1W        W54702   7.345  13.251   7.681  0.2895 -0.1641 -0.1340
    1W        W54703   2.056  14.611   2.830 -0.1618  0.0567  0.1030
    1W        W54704  26.527   1.879   1.741  0.0562  0.0767  0.0077
    1W        W54705  20.140  26.294   9.117 -0.3142 -0.0128 -0.0306
    1W        W54706  21.078  12.413   8.114 -0.2512 -0.3730  0.3444
    1W        W54707  11.043  20.919   1.190 -0.1910  0.0359  0.0622
    1W        W54708   9.275  17.031   8.698 -0.0196  0.1581  0.2407
    1W        W54709  15.331  27.772   1.830  0.0890  0.1315  0.0816
    1W        W54710  24.524   1.595   2.498 -0.2834 -0.1211  0.2286
    1W        W54711  19.372   4.358   1.470  0.2996  0.1580 -0.2182
    1W        W54712   5.290  15.567   8.730 -0.2491  0.0348 -0.1385
    1W        W54713   0.227  25.226   0.955 -0.0222  0.0650  0.0281
    1W        W54714  10.465  24.236   1.775 -0.2192  0.0466  0.2920
    1W        W54715  20.740   1.997   3.096 -0.3460  0.1393 -0.1013
    1W        W54716   1.862  13.017   9.376 -0.1207  0.0610  0.0550
    1W        W54717  17.427  21.990   1.110 -0.1561  0.2244 -0.0749
    1W        W54718  14.960  16.497   0.918  0.0232 -0.0550  0.0221
    1W        W54719  18.714   1.134   0.770 -0.1502  0.1387  0.0215
    1W        W54720  12.182   6.542   8.123  0.1472 -0.0075 -0.0851
    1W        W54721  22.565  22.288   2.858  0.4051  0.2927  0.1734
    1W        W54722  15.031   0.021   2.407 -0.1117 -0.1718 -0.0855
    1W        W54723  23.435  15.400   2.022  0.2058  0.1096  0.0403
    1W        W54724   9.490   9.615   9.940  0.2283 -0.0121 -0.0600
    1W        W54725   9.157   7.596   3.395  0.1687  0.1970  0.0344
    1W        W54726  22.105  21.828   1.395  0.2983 -0.0966 -0.1196
    1W        W54727  25.677  13.140   9.363 -0.0887 -0.3585  0.3038
    1W        W54728   0.677  13.677   2.742 -0.0157  0.0365  0.3131
    1W        W54729  26.913  25.609   7.920  0.0362 -0.1438  0.2241
    1W        W54730   5.574   0.396   8.288  0.0160 -0.2266 -0.0753
    1W        W54731  23.145  10.932   9.593 -0.0585 -0.1586  0.3378
    1W        W54732   7.684  15.775   2.156  0.3416  0.0533  0.1396
    1W        W54733   4.582  24.861   2.474 -0.1590  0.1376  0.0295
    1W        W54734  10.521  23.205   9.823  0.0993 -0.2692  0.0089
    1W        W54735  28.043   1.411   7.625 -0.1727  0.1331  0.0696
    1W        W54736  10.315   4.513   8.421 -0.0461  0.3613 -0.1362
    1W        W54737   6.237   9.022   1.471  0.0149  0.1597 -0.1463
    1W        W54738  13.069  12.553   9.549  0.2416  0.1250  0.0217
    1W        W54739  24.423   5.967   9.569  0.3255  0.4095 -0.0515
    1W        W54740  25.109   7.742   6.107  0.1883 -0.0647 -0.1385
    1W        W54741  15.033   6.375   8.996 -0.1944  0.4783 -0.0224
    1W        W54742   6.398  20.012   9.200 -0.1592  0.0391 -0.1940
    1W        W54743  21.308  17.157   1.993  0.4182  0.1078  0.0873
    1W        W54744  14.160  13.268   4.120 -0.4682 -0.0568  0.4623
    1W        W54745  22.274  25.887   8.228 -0.4331 -0.0706  0.0814
    1W        W54746  17.310  22.411   2.863 -0.3083  0.3439  0.1670
    1W        W54747  11.712   0.099   0.040  0.2189  0.3017 -0.1392
    1W        W54748  13.386  20.503   2.505  0.2233  0.1276  0.2764
    1W        W54749   1.573  14.101   7.856 -0.1004 -0.1810  0.0311
    1W        W54750   1.691  13.783   9.106 -0.0193 -0.0017 -0.3781
    1W        W54751  20.962  10.384   1.907  0.1124 -0.1024 -0.1278
    1W        W54752  26.125  16.545   9.184  0.3387 -0.0262  0.0664
    1W        W54753  21.259   7.655   0.112  0.0499 -0.3706  0.0178
    1W        W54754   1.856   3.662   7.629 -0.1809  0.0330 -0.0738
    1W        W54755   8.259  19.593   1.395 -0.2756 -0.0015 -0.0511
    1W        W54756   1.015  13.983   6.518  0.0600  0.4796  0.0996
    1W        W54757   5.882   4.023   1.496 -0.4326  0.3178  0.1445
    1W        W54758  16.661   8.117   7.528  0.1690  0.0008 -0.3300
    1W        W54759  25.821  14.959   7.323  0.0409 -0.2419 -0.2993
    1W        W54760  24.749  23.990   1.875 -0.0585  0.1337 -0.0760
    1W        W54761  13.609  22.237   2.570  0.0286 -0.1057 -0.1266
    1W        W54762  27.289  23.371   8.337 -0.1335  0.1998  0.0792
    1W        W54763   3.216  24.853  10.077  0.1513 -0.2062 -0.4180
    1W        W54764  12.279   0.580   7.947 -0.1288  0.1420  0.0173
    1W        W54765  20.028  25.350   7.831 -0.2307  0.1878 -0.0674
    1W        W54766  16.275  22.848   8.462 -0.1578  0.2610  0.0121
    1W        W54767  25.136   8.397   0.084  0.1070 -0.2006  0.0933
    1W        W54768  23.560   1.219   9.764 -0.0833  0.4191  0.0338
    1W        W54769   0.479   0.966   9.619 -0.0289  0.3667  0.0251
    1W        W54770   1.522  21.075   9.152 -0.1365  0.0718 -0.0896
    1W        W54771  23.805  11.045  10.004  0.5304 -0.2791  0.1437
    1W        W54772  26.662  13.718   1.555 -0.0608  0.0476 -0.2388
    1W        W54773  21.037  20.554   8.435 -0.2296  0.1273  0.0114
    1W        W54774  16.812   2.381   0.555 -0.2624  0.0147 -0.0511
    1W        W54775  20.130  16.862   0.940  0.0407 -0.1088  0.0875
    1W        W54776   4.613  17.605   0.926 -0.0578  0.1620  0.0738
    1W        W54777  14.255  26.655   2.959 -0.1999  0.0456  0.2439
    1W        W54778  24.685  27.937   3.100 -0.0028 -0.0059  0.0069
    1W        W54779  15.381  11.219   2.622  0.1233  0.0370 -0.0472
    1W        W54780  19.251  26.169   7.951  0.1796 -0.0779  0.0810
    1W        W54781  17.638   9.172   0.093  0.0170 -0.4096 -0.2068
    1W        W54782   5.096  23.199   9.902  0.3767 -0.0038  0.0716
    1W        W54783   4.542   9.068   6.271 -0.3824 -0.0318 -0.3132
    1W        W54784  24.930  25.090   7.798  0.0614 -0.2017  0.1670
    1W        W54785   2.569  16.639  10.076 -0.1342 -0.0003  0.0743
    1W        W54786   4.802  27.163   1.011 -0.2562 -0.0959 -0.0968
    1W        W54787   1.033  27.222   0.688 -0.1426 -0.4174 -0.0618
    1W        W54788  26.216  27.926   7.226 -0.0223 -0.0423 -0.0968
    1W        W54789   4.824  18.578   0.006  0.0119  0.0247  0.0341
    1W        W54790   0.240  19.247   8.467  0.0742 -0.1499  0.1649
    1W        W54791   0.117  27.683   8.136  0.1281  0.0201 -0.1882
    1W        W54792   2.331   5.502   8.739  0.1570  0.1172  0.0840
    1W        W54793   3.855  13.133  10.128  0.1856  0.2541 -0.0715
    1W        W54794   3.891  24.296   7.704 -0.0736 -0.0712 -0.0859
    1W        W54795  23.513  24.266   2.407 -0.2274  0.2132  0.4169
    1W        W54796  23.145  23.454   8.975  0.2402 -0.0617  0.0129
    1W        W54797   1.076   2.951   7.293  0.1286 -0.0216  0.0034
    1W        W54798  27.741  23.088   7.694 -0.0855 -0.2980  0.0043
    1W        W54799  22.833  14.780   2.472 -0.3093 -0.2241 -0.3710
    1W        W54800  20.558  26.260   3.528 -0.1120  0.1799 -0.1065
    1W        W54801   0.130  14.546   8.085  0.0107  0.1722  0.0476
    1W        W54802   1.014  14.927   7.626 -0.1385 -0.3838  0.0711
    1W        W54803  27.606   6.946   0.041  0.0402 -0.2818  0.2903
    1W        W54804   3.390   3.621   7.315 -0.1414 -0.3310  0.0575
    1W        W54805  22.896   9.283   2.528  0.3785 -0.1123  0.0594
    1W        W54806   8.886   0.022   1.167 -0.0952 -0.2113  0.0927
    1W        W54807  10.340  22.656   9.385  0.0063 -0.0290  0.1391
    1W        W54808  12.259  24.008   2.074 -0.0588  0.0929  0.0473
    1W        W54809   7.062  19.146   8.264 -0.1813 -0.1595  0.2158
    1W        W54810   3.025   9.553   2.990 -0.0614  0.0276 -0.2068
    1W        W54811  26.974  13.083   8.783 -0.2943  0.0766  0.0476
    1W        W54812  23.001   0.028   2.745 -0.1571  0.1010  0.3657
    1W        W54813  14.219   9.003   1.927 -0.1131 -0.1677 -0.0620
    1W        W54814   4.193  21.531   1.747  0.1190  0.3373  0.0280
    1W        W54815  27.369  16.003   9.727  0.3362 -0.0552  0.0784
    1W        W54816  21.015   8.517   1.286 -0.3790  0.3513 -0.1472
    1W        W54817  25.220  22.686   1.371 -0.1091 -0.0289  0.1294
    1W        W54818  16.318  19.281   8.958  0.1440  0.0207 -0.1025
    1W        W54819   7.741   5.931   0.506 -0.1083  0.1796 -0.2751
    1W        W54820  11.083   8.241   2.263 -0.1203 -0.0399 -0.2517
    1W        W54821   7.574  15.313  10.036 -0.0465 -0.0084  0.1512
    1W        W54822  11.097  27.098   2.172  0.4111 -0.1561 -0.1244
    1W        W54823   5.460   3.288   8.415 -0.1035  0.0752  0.0266
    1W        W54824  23.012   0.311   0.713 -0.2822 -0.3717  0.2663
    1W        W54825  10.917  22.530   2.212 -0.0720  0.0372  0.0280
    1W        W54826  18.876  28.092   0.387  0.2272  0.1406 -0.0035
    1W        W54827  19.511   6.182   1.661 -0.0224  0.1075 -0.1058
    1W        W54828  13.667  22.666   7.008  0.0238 -0.2760 -0.2968
    1W        W54829  17.065  21.922   2.980  0.3403  0.0997 -0.2316
    1W        W54830   0.670  22.826   8.260 -0.1272 -0.0593  0.1805
    1W        W54831  11.048   3.966   8.200 -0.0718  0.1780  0.0745
    1W        W54832  25.837  21.591  10.297 -0.0102  0.1666  0.1426
    1W        W54833   7.606   4.180   1.746 -0.1440  0.0143  0.1348
    1W        W54834  24.819  14.960   3.293  0.1167  0.1367 -0.0191
    1W        W54835  19.252  13.267   9.808  0.0600  0.2035 -0.1471
    1W        W54836   2.147  17.353   9.257 -0.1313 -0.1492 -0.2492
    1W        W54837   4.996  21.743   7.040  0.4527  0.0081 -0.0022
    1W        W54838   9.298  13.211   0.158  0.1160 -0.0430  0.1844
    1W        W54839  12.742   0.136   1.261 -0.0298 -0.1365  0.1111
    1W        W54840  26.062  25.901   7.588 -0.1752 -0.0803 -0.0147
    1W        W54841  26.400  16.572   1.620  0.0233  0.1560  0.0167
    1W        W54842  19.699  15.367   2.312 -0.2544  0.0490 -0.3313
    1W        W54843   0.135  22.994   8.440  0.1148 -0.1894 -0.1746
    1W        W54844  12.471  17.806   0.559  0.0210  0.0767  0.1385
    1W        W54845  27.414   0.749   1.812 -0.0328  0.2516 -0.0823
    1W        W54846  16.112  17.715   9.126 -0.1743 -0.2161 -0.1828
    1W        W54847   8.198  21.484   0.203 -0.0094  0.0716  0.3335
    1W        W54848  24.753  18.229   3.521  0.2914  0.0213  0.1102
    1W        W54849  27.981  27.366   7.807  0.2755  0.0224  0.0289
    1W        W54850   6.132   6.952   1.678 -0.0585  0.0841  0.0589
    1W        W54851   8.854  25.542   2.723 -0.0999 -0.1301 -0.0844
    1W        W54852   7.995  21.471   2.582 -0.2467 -0.3333  0.1051
    1W        W54853   4.222   4.270   7.213  0.0865 -0.0753  0.0812
    1W        W54854  25.663  24.218   2.126  0.1274 -0.0248 -0.0167
    1W        W54855   9.093   4.332   8.417  0.0573 -0.3142  0.0750
    1W        W54856  12.040  16.543   7.696 -0.0328  0.2527 -0.4499
    1W        W54857   7.752  14.324   3.551  0.3349 -0.2897  0.0833
    1W        W54858   1.882  20.970   7.706 -0.2489  0.0787 -0.0389
    1W        W54859  24.588  11.208   9.640  0.1125 -0.2196  0.1169
    1W        W54860   7.115   9.230   9.998  0.1076 -0.3902  0.0062
    1W        W54861  26.684  13.225   9.125  0.0547 -0.0868  0.0832
    1W        W54862  11.402   0.630  10.355 -0.1155 -0.0932 -0.2323
    1W        W54863   2.472  26.026   7.860 -0.0361 -0.0772 -0.1576
    1W        W54864  20.236   9.018   7.093  0.0005 -0.0277 -0.1036
    1W        W54865   7.175  19.644   9.118  0.0874  0.0641 -0.1082
    1W        W54866  25.005   9.983   9.402 -0.2106 -0.0861 -0.0029
    1W        W54867  10.533  27.011   7.534 -0.0409 -0.3405 -0.0275
    1W        W54868  18.081  11.212  10.288 -0.0253 -0.0339 -0.2322
    1W        W54869   9.201  19.228   8.836 -0.2061 -0.2409 -0.4161
    1W        W54870   7.462  10.015   1.412 -0.1415  0.1164 -0.1298
    1W        W54871   5.780   1.422  10.178 -0.0358 -0.0849  0.0329
    1W        W54872  11.585   3.125   0.853  0.2581 -0.1145  0.2170
    1W        W54873  20.536  25.849   2.022 -0.0042  0.2943  0.0931
    1W        W54874   8.717  16.309   9.165  0.0224 -0.0852  0.0165
    1W        W54875  19.347  11.115   3.621  0.1937 -0.3564  0.3898
    1W        W54876  11.156  17.317   9.142  0.3027  0.0582  0.0289
    1W        W54877  11.984   5.770   0.447 -0.0157 -0.0657  0.0673
    1W        W54878  22.825  26.443   3.117  0.1698 -0.0860  0.0529
    1W        W54879   0.689   1.478   0.303  0.1750 -0.0516  0.1169
    1W        W54880  27.535  11.536   7.103 -0.0481  0.3529  0.0870
    1W        W54881  21.403   3.238   9.475 -0.2116 -0.0307  0.5243
    1W        W54882  15.133   0.507   2.210 -0.2449  0.3297  0.2050
    1W        W54883  18.814  18.376   3.092  0.0168  0.1881  0.2568
    1W        W54884   4.251  25.948   9.189  0.0180 -0.0417  0.0157
    1W        W54885  21.799   0.529   2.118  0.1789  0.2485 -0.1024
    1W        W54886   9.535   0.923   9.725  0.3046 -0.0828  0.0848
    1W        W54887  15.229  18.961   2.390  0.4889 -0.0146 -0.1427
    1W        W54888  12.851  23.573   2.320 -0.0397 -0.1048  0.2485
    1W        W54889  22.970  16.103   9.778 -0.1099  0.2646  0.2025
    1W        W54890  25.637  24.304   9.037 -0.0415 -0.2260  0.1639
    1W        W54891  13.183   9.006   2.771  0.1814 -0.2014  0.1822
    1W        W54892   3.953  12.007   2.003 -0.1143 -0.0208 -0.0049
    1W        W54893  11.291   1.718   9.838 -0.0810  0.1611  0.0344
    1W        W54894  14.410   6.364   1.813 -0.0370  0.0506 -0.1933
    1W        W54895  18.309   9.110   9.912 -0.0944  0.1026 -0.1860
    1W        W54896  21.471   2.668  10.248 -0.1599  0.0917 -0.0586
    1W        W54897  20.746  13.298   9.287 -0.1560 -0.1509  0.1694
    1W        W54898  13.536   2.218   9.342 -0.2687  0.2880  0.1966
    1W        W54899   2.098  20.360   9.002  0.0936 -0.0644  0.1414
    1W        W54900  17.171  15.223   8.212 -0.3626  0.0468  0.2395
    1W        W54901   5.690   1.677   1.429  0.0530 -0.1497  0.3430
    1W        W54902  13.074  18.262   2.582 -0.0971 -0.0632 -0.0525
    1W        W54903  20.260   1.130   0.256  0.1239 -0.1566  0.0453
    1W        W54904   1.746  19.119   7.371  0.1176  0.2206 -0.1706
    1W        W54905   8.491  23.819   8.979 -0.1803  0.1937 -0.1650
    1W        W54906   5.016   3.884   2.523 -0.2992  0.0556 -0.3127
    1W        W54907  25.072  14.460   7.773 -0.0904  0.2949  0.0486
    1W        W54908   5.068  13.998   7.944 -0.2873 -0.1966  0.0988
    1W        W54909   0.408   4.240   6.814  0.1576  0.4155  0.2183
    1W        W54910   2.807   9.351   8.896  0.2998 -0.1447  0.1835
    1W        W54911   9.350  16.029   0.799 -0.0567 -0.0444 -0.1983
    1W        W54912  27.718  19.844   7.500  0.2493  0.1546  0.0513
    1W        W54913  15.857   6.942   9.528  0.0539 -0.0843  0.0822
    1W        W54914  22.754   7.370   1.617  0.0894 -0.1285 -0.1118
    1W        W54915   2.697  17.482  10.115  0.1889  0.0134  0.0955
    1W        W54916   9.637  13.697   0.142  0.0770  0.0260 -0.1009
    1W        W54917  27.174  13.912   7.978  0.0708  0.1186  0.0989
    1W        W54918   0.917  24.734   0.489 -0.1378  0.1322  0.1512
    1W        W54919  19.891   7.759   8.164 -0.3314  0.0354  0.1773
    1W        W54920  21.978  10.099   9.368  0.1138  0.2410  0.0897
    1W        W54921  24.537   2.548   8.528 -0.1006 -0.2622 -0.0392
    1W        W54922  20.511   4.099  10.038 -0.2594 -0.1282 -0.1132
    1W        W54923   6.205   0.014  10.180  0.0757 -0.0990  0.0018
    1W        W54924  25.572  25.969   2.021 -0.3316  0.0429  0.1216
    1W        W54925  13.215  10.524   2.519 -0.0162  0.1751 -0.1323
    1W        W54926   7.217  15.585   0.872 -0.0262 -0.0687 -0.0406
    1W        W54927  24.208  16.634   7.570 -0.1417 -0.0483  0.2408
    1W        W54928  17.312  10.727   1.210  0.2341 -0.2091  0.2101
    1W        W54929  24.277  11.212   7.838 -0.3233  0.1806  0.2916
    1W        W54930  19.562   2.469   3.880  0.2040 -0.0144  0.0435
    1W        W54931   0.161   0.682   9.842  0.0568  0.1723  0.1519
    1W        W54932  22.935  23.699   2.213 -0.0662  0.0554  0.2403
    1W        W54933  21.795   5.754   9.849 -0.1433  0.0295  0.1602
    1W        W54934  16.222  23.681   9.348 -0.0633  0.3436 -0.4975
    1W        W54935  19.679   2.588   1.634 -0.1632  0.1189 -0.1323
    1W        W54936   0.533  25.821   7.875 -0.1402  0.0410  0.0551
    1W        W54937  23.855  12.508   8.827  0.0515  0.1375  0.0343
    1W        W54938  18.022   7.471   1.315  0.0803  0.0329  0.2010
    1W        W54939  18.759  23.660   1.335  0.4867 -0.0084 -0.0680
    1W        W54940  11.011  15.066   7.999 -0.1024 -0.3203  0.1006
    1W        W54941   1.715   2.030   1.045 -0.4635 -0.1671 -0.3191
    1W        W54942  13.856  27.845   2.026 -0.3257 -0.2605  0.3262
    1W        W54943  14.982  13.237   0.593  0.0144 -0.1062 -0.2398
    1W        W54944   0.444   7.730   0.299 -0.1140 -0.0454 -0.0473
    1W        W54945   4.490   1.264   0.498  0.1455  0.2173 -0.0214
    1W        W54946  14.305   5.467   1.364 -0.1833 -0.1272  0.0532
    1W        W54947   8.397  22.109   2.744 -0.2141 -0.0396  0.2895
    1W        W54948  25.490  12.048   9.904 -0.0845  0.4985  0.0533
    1W        W54949   9.133   6.298   1.223  0.0328  0.3121 -0.0616
    1W        W54950  26.422  23.592   7.176  0.1335  0.4774 -0.4297
    1W        W54951  26.059   1.816   2.631 -0.1443  0.0590 -0.1256
    1W        W54952  14.709   2.051   8.593  0.2789  0.0964 -0.3424
    1W        W54953   5.882  22.464   1.170  0.0909 -0.1458  0.0257
    1W        W54954  20.521  12.917   8.243 -0.1491  0.1111  0.2432
    1W        W54955   9.391  20.701   7.379  0.0848  0.0944  0.0822
    1W        W54956  17.559   4.465   0.740 -0.1679  0.0208  0.0306
    1W        W54957   9.693  26.315   1.668  0.0511 -0.1209 -0.2097
    1W        W54958  25.497   0.367   8.646  0.1548  0.2819  0.0103
    1W        W54959  23.337   9.866   0.639  0.1188 -0.1177  0.0743
    1W        W54960   7.271  21.981   1.111 -0.2044  0.0859  0.1183
    1W        W54961  10.989  19.198   2.755  0.0726  0.0938 -0.1256
    1W        W54962  21.063   5.621   0.239  0.1266  0.0541 -0.3245
    1W        W54963  21.014   8.131   0.144 -0.0588 -0.0338 -0.0143
    1W        W54964  20.080  18.706   8.587 -0.1844 -0.0100  0.0723
    1W        W54965  25.543  12.580   7.782  0.3168  0.1351 -0.2755
    1W        W54966  22.450  24.659   0.428  0.1284 -0.0322 -0.1079
    1W        W54967  26.229  23.573   2.644  0.0926  0.0354  0.0923
    1W        W54968  27.059   8.499   8.165  0.2435  0.1337  0.0951
    1W        W54969   2.110   9.240   0.347  0.1618  0.1494 -0.0699
    1W        W54970  16.677  10.896   2.791  0.0305 -0.0786 -0.0933
    1W        W54971  21.723  10.216   8.055  0.1424  0.0297 -0.1522
    1W        W54972  17.503  11.375  10.195 -0.2100  0.1392  0.0187
    1W        W54973   2.550   0.341   1.367  0.0892  0.1941  0.1184
    1W        W54974   1.627  19.615   8.615  0.2422 -0.0376  0.2010
    1W        W54975  10.625   0.159   2.950  0.0784 -0.0002  0.0344
    1W        W54976   9.781  16.950   9.927  0.2505  0.1726  0.0594
    1W        W54977  21.997  16.850   9.029  0.3553 -0.3115  0.0311
    1W        W54978   1.765  19.137   9.476 -0.2227  0.0123  0.1369
    1W        W54979  10.772  15.078   2.139  0.0187 -0.1542 -0.2184
    1W        W54980  22.385  14.167   1.212  0.0317 -0.4254 -0.1040
    1W        W54981  25.827   3.917   2.106  0.0263 -0.0200 -0.0189
    1W        W54982  18.767   8.096   2.044 -0.1651  0.2006  0.0073
    1W        W54983  17.974  14.659   3.391 -0.1885  0.0699  0.2375
    1W        W54984   3.590   8.501   2.740  0.1114  0.0121  0.4115
    1W        W54985   4.464   3.554   0.590 -0.0299 -0.3509  0.0941
    1W        W54986  15.787   3.881   2.697 -0.1856  0.0166 -0.0356
    1W        W54987  14.988   4.246  10.058  0.0635  0.0018  0.3440
    1W        W54988  10.387   2.142   0.737 -0.0232  0.0775 -0.2702
    1W        W54989   4.467  15.015   1.245  0.2477 -0.2974  0.1912
    1W        W54990  11.185  24.582   1.036  0.0009 -0.2973  0.3659
    1W        W54991   2.018   5.738   7.476 -0.0136 -0.0647 -0.1526
    1W        W54992   6.123  23.861   9.936 -0.1589  0.0454  0.0875
    1W        W54993  27.727  18.102   7.880  0.0786  0.1155  0.1485
    1W        W54994   9.910   8.191   8.112  0.1844  0.2600 -0.1739
    1W        W54995  20.622   3.028   8.393  0.0603  0.1570 -0.1293
    1W        W54996   0.515  13.850   1.807 -0.1376  0.2974  0.1406
    1W        W54997   7.564   0.967   7.181 -0.1174  0.2233  0.1422
    1W        W54998   7.172   0.661   7.031 -0.1788 -0.0565  0.0697
    1W        W54999  19.345   4.071   0.554  0.1600  0.2856 -0.1095
    1W        W55000  23.902  13.436   9.980 -0.0501 -0.0634 -0.0198
    1W        W55001   1.125   1.473   0.029  0.0510 -0.2297 -0.0619
    1W        W55002  25.172   3.607   8.525  0.0232 -0.2915  0.0425
    1W        W55003   4.413  26.024   1.643 -0.1832 -0.2203  0.0527
    1W        W55004  12.442  18.277   1.783  0.0985 -0.1426 -0.0533
    1W        W55005  21.438  13.457   9.313 -0.0423 -0.1892  0.1065
    1W        W55006  26.599  12.726   0.698  0.0810  0.0847  0.0909
    1W        W55007  12.037  16.915   0.521  0.1687 -0.0497  0.0650
    1W        W55008  10.989   0.179   0.823  0.3591 -0.0172 -0.1169
    1W        W55009  11.750  16.125   3.097 -0.1413  0.0437 -0.0773
    1W        W55010   4.606   0.194   9.322 -0.2364 -0.1044 -0.0103
    1W        W55011  21.007   9.859   0.219  0.4164 -0.0444  0.2098
    1W        W55012   4.471  23.731   8.672  0.2322  0.1864  0.0850
    1W        W55013  14.778  15.711   9.400  0.0543 -0.0010  0.2609
    1W        W55014  27.255  23.903   1.912  0.0794  0.2095 -0.3246
    1W        W55015  13.309  27.798   1.885  0.0307  0.1204  0.3609
    1W        W55016  21.866   3.038  10.185  0.3277  0.2644 -0.1489
    1W        W55017  27.877  20.433   8.172 -0.1049  0.0642  0.1236
    1W        W55018  27.137  10.479   7.986  0.1458 -0.1390  0.0655
    1W        W55019  12.454   5.244   2.674 -0.1209  0.0956 -0.0167
    1W        W55020  14.717   2.863   0.895 -0.0944  0.0846 -0.0831
    1W        W55021  25.759  16.394   0.705  0.0835 -0.2641 -0.2901
    1W        W55022   5.172   8.221   0.083 -0.0210  0.0276  0.0140
    1W        W55023  17.812  14.275   2.126  0.3421 -0.0222  0.1074
    1W        W55024  25.944  23.552   7.416  0.0691  0.0731  0.0562
    1W        W55025  18.272   8.616   1.897 -0.3348 -0.0692 -0.0325
    1W        W55026  20.343  27.091  10.330 -0.1478  0.0652  0.0303
    1W        W55027  18.090  14.251   0.133  0.1991 -0.2614  0.4321
    1W        W55028   0.184  13.369   1.420 -0.0922  0.1328  0.1767
    1W        W55029  26.729  26.766   2.681 -0.1853 -0.1081  0.1183
    1W        W55030  11.973  10.586   9.961  0.2132  0.0130  0.1147
    1W        W55031  24.349  17.805   8.228  0.2014  0.0477 -0.1797
    1W        W55032   1.553  23.318   2.570  0.0019 -0.3937  0.1295
    1W        W55033  22.966  18.330   3.822  0.1186 -0.1613  0.0045
    1W        W55034   4.506   8.668   1.737  0.2056 -0.0050 -0.2809
    1W        W55035   5.405  15.307   0.590 -0.0080  0.0343  0.1944
    1W        W55036  25.797  16.634   9.775  0.0642 -0.0665  0.3373
    1W        W55037  24.127  10.708  10.175 -0.4055  0.0699 -0.1174
    1W        W55038  20.342  16.109  10.086  0.4539  0.0247  0.1872
    1W        W55039  21.773   3.829   0.289  0.2789  0.1080  0.0960
    1W        W55040  16.646  12.992   9.453 -0.4152  0.2635 -0.0754
    1W        W55041   4.630   8.825   0.463  0.1352 -0.0687 -0.1750
    1W        W55042  14.182  10.197   9.132  0.2377  0.0488  0.2151
    1W        W55043   9.374   6.370   2.408  0.0499  0.2689 -0.1899
    1W        W55044   1.748  12.840   7.565 -0.2193  0.1847  0.1495
    1W        W55045  23.200  24.086   9.842 -0.0726 -0.2926 -0.0921
    1W        W55046   7.290  13.053   1.501  0.0074 -0.0811 -0.1937
    1W        W55047  14.299  20.169   0.869  0.3677 -0.0847  0.0941
    1W        W55048  12.242  24.578   7.438 -0.1283  0.0686 -0.2520
    1W        W55049   0.305   3.903   7.930 -0.0697  0.1691 -0.1175
    1W        W55050  14.628  27.372   1.200 -0.0293  0.2615  0.0444
    1W        W55051  22.537   0.857   2.894 -0.0109 -0.0449 -0.0069
    1W        W55052   0.100  21.688   7.755  0.0865 -0.3031 -0.0275
    1W        W55053  19.899   5.021   8.709 -0.3079 -0.0242 -0.0910
    1W        W55054  14.770  20.211   1.121  0.2517  0.2144  0.2421
    1W        W55055  17.615  17.296   2.305  0.2647  0.0003  0.2565
    1W        W55056   9.513  19.099   1.479 -0.0485 -0.1250 -0.3517
    1W        W55057  20.521  23.512   7.525  0.0863 -0.0210  0.1668
    1W        W55058   0.735  24.702   1.843  0.1251  0.1093 -0.4735
    1W        W55059  17.060  20.270   8.485  0.0104 -0.0944 -0.0799
    1W        W55060  17.265   4.360   0.335  0.0101 -0.0941  0.2414
    1W        W55061  18.385  12.063   2.347  0.1601  0.2400  0.1989
    1W        W55062  10.944  26.437   8.056  0.1801 -0.0466 -0.0747
    1W        W55063   5.603  15.959   1.175 -0.0647  0.0356  0.0392
    1W        W55064  24.212  27.881   6.573 -0.0142 -0.1476 -0.1128
    1W        W55065   8.032  11.758   3.347  0.0981 -0.1150  0.0289
    1W        W55066  27.229   5.668   9.373  0.0185 -0.2521 -0.3173
    1W        W55067  16.375  23.999   2.640  0.1070  0.1914 -0.1824
    1W        W55068   9.897  11.304   3.404  0.0969 -0.1564 -0.0663
    1W        W55069  22.661  21.104   1.309  0.0347  0.1073 -0.0897
    1W        W55070  25.446   9.926   2.563  0.2136  0.0483  0.1581
    1W        W55071   1.735   3.992  10.079  0.1688 -0.0376 -0.2503
    1W        W55072   0.345   7.816   8.032 -0.0822 -0.3100 -0.1833
    1W        W55073  17.643  18.827   8.529 -0.5386  0.0887 -0.2337
    1W        W55074  18.923   9.634   2.683 -0.2865  0.0283  0.2469
    1W        W55075   9.676  19.404   8.687  0.0192 -0.1147  0.1221
    1W        W55076  26.614   7.432   2.274  0.1682 -0.1169  0.3516
    1W        W55077  21.735  19.018   8.779  0.4197  0.2028 -0.2059
    1W        W55078  19.573   9.272   7.857 -0.0509 -0.1534  0.1346
    1W        W55079   1.605   4.121   1.196 -0.6673 -0.0480  0.1935
    1W        W55080  14.556   2.000   2.278 -0.0578 -0.0255 -0.1792
    1W        W55081  11.015  20.650   8.895 -0.0577 -0.0907 -0.0973
    1W        W55082  16.353  15.953   9.599 -0.0880 -0.1609  0.0578
    1W        W55083   8.512   6.506   2.107  0.0806 -0.2331  0.0469
    1W        W55084  18.336   5.655   0.551 -0.0425 -0.0120  0.0189
    1W        W55085   6.903  11.997   8.398 -0.2146 -0.1055 -0.0824
    1W        W55086   8.718  18.485   0.377  0.0628  0.0485  0.4129
    1W        W55087  25.952  16.803   7.219 -0.0122  0.1274  0.3131
    1W        W55088  20.784  27.781   9.586 -0.1243 -0.0147 -0.2900
    1W        W55089  21.805  18.836   8.271 -0.1062  0.1425  0.0479
    1W        W55090  27.358  22.907   6.520 -0.2350  0.0084  0.2204
    1W        W55091  10.911  12.726   0.154 -0.1379  0.0128 -0.1136
    1W        W55092   7.991  21.639   0.692 -0.0767  0.2195  0.0782
    1W        W55093   1.892  19.054   1.749 -0.0356 -0.1529 -0.0249
    1W        W55094  18.297  14.931   0.587 -0.2150  0.1837  0.2250
    1W        W55095  19.075   9.707   3.897 -0.0994  0.0718  0.1416
    1W        W55096  14.091   3.777   8.021  0.0051 -0.3161 -0.1641
    1W        W55097  14.169  25.185   7.003  0.0931  0.1176  0.5270
    1W        W55098  25.752  28.123   9.568 -0.0146  0.0334 -0.0452
    1W        W55099   6.281  25.356   8.513 -0.1025  0.0177  0.0438
    1W        W55100  17.121  17.108   2.342 -0.0906  0.0441  0.0980
    1W        W55101  14.885  14.288   0.054 -0.0645 -0.0536 -0.3906
    1W        W55102   1.654  17.905   2.141 -0.1034 -0.0609  0.0768
    1W        W55103  22.033  24.207   9.816  0.3105 -0.2760  0.2063
    1W        W55104  24.109  23.816   6.841 -0.0554 -0.3500 -0.3837
    1W        W55105  18.397  25.681   9.475  0.0785 -0.1114 -0.1285
    1W        W55106   4.760   5.568   7.334  0.0960  0.2423  0.1975
    1W        W55107   8.291  11.879   7.909 -0.0642  0.0271  0.4182
    1W        W55108  13.018   9.747   0.955 -0.0424  0.1660  0.0846
    1W        W55109   4.333  13.377  10.279  0.0792  0.1325 -0.0785
    1W        W55110  22.652   8.997   1.623 -0.1186 -0.2352  0.1318
    1W        W55111  16.406   7.982   1.230  0.1403 -0.0206  0.1336
    1W        W55112  15.823  16.084   0.636  0.1062  0.0237  0.1733
    1W        W55113   6.995  26.451   9.130 -0.3064  0.2481  0.0375
    1W        W55114   3.619  16.753   1.434  0.0686  0.0419  0.0504
    1W        W55115   5.649  27.077   9.815 -0.1416 -0.1427  0.1101
    1W        W55116   6.359  14.780   2.349 -0.0551 -0.2028  0.2538
    1W        W55117  11.198  22.982   8.313 -0.0872  0.2739  0.1087
    1W        W55118  17.902  23.032   6.842  0.1401 -0.0013 -0.2185
    1W        W55119   2.385   5.738   9.202 -0.2577  0.1164 -0.1175
    1W        W55120   9.054   2.832   2.238 -0.0229 -0.2553 -0.0458
    1W        W55121  23.531  24.659   0.214 -0.1317  0.3599 -0.0263
    1W        W55122  20.526  11.995   9.439  0.1188 -0.0916  0.2293
    1W        W55123  23.475   1.345   2.826 -0.0234  0.3801  0.0122
    1W        W55124  12.052   9.481   3.288 -0.3556  0.0280  0.1477
    1W        W55125  26.194  27.393   7.340  0.1812 -0.2984 -0.4227
    1W        W55126  27.621   3.003   8.864 -0.1438  0.0747  0.0960
    1W        W55127  19.289  25.684   7.647 -0.0829 -0.1687 -0.1175
    1W        W55128   5.729   2.913   8.255 -0.1060  0.1073 -0.1953
    1W        W55129   2.605   0.725   7.260 -0.4001  0.0087  0.0965
    1W        W55130   9.968  17.036   0.378 -0.1341  0.0472 -0.1299
    1W        W55131  14.059   8.229  10.065  0.1046 -0.0446  0.0011
    1W        W55132  28.057  22.804  10.006 -0.0976  0.1928 -0.0620
    1W        W55133   4.479  18.077   0.939  0.0755  0.0164 -0.1655
    1W        W55134   7.429   9.172   9.597 -0.0701  0.2224 -0.1659
    1W        W55135  17.068  18.657   2.158 -0.0139  0.1804 -0.1276
    1W        W55136  20.984   6.559   8.849 -0.0836 -0.2363 -0.1673
    1W        W55137   4.969  23.811   9.713  0.1765  0.1686  0.0966
    1W        W55138  20.119   3.299   1.217 -0.2425 -0.2980 -0.1254
    1W        W55139  19.314  19.501   8.457 -0.0757 -0.1071  0.1182
    1W        W55140  13.721   3.528   0.320 -0.3073  0.0998  0.0964
    1W        W55141  17.178  20.669   2.519  0.1073 -0.2234 -0.0025
    1W        W55142  22.511  13.191   9.748 -0.1399  0.1605 -0.3062
    1W        W55143  15.759  14.335   9.260 -0.0076  0.0506  0.1044
    1W        W55144   3.706  26.497   0.904 -0.1451 -0.0692  0.1193
    1W        W55145   1.673  11.009  10.258 -0.0276  0.2485 -0.3976
    1W        W55146  24.532  23.871   7.881 -0.1176 -0.3563 -0.4226
    1W        W55147   2.538   8.524   1.872 -0.0595  0.4151  0.0353
    1W        W55148  20.909   9.367   7.582  0.1204 -0.1965 -0.0252
    1W        W55149  21.608  21.434   2.301  0.1907 -0.2387  0.0113
    1W        W55150  17.748  17.551   1.119 -0.0162  0.1923 -0.3417
    1W        W55151   5.336   3.669   7.552 -0.2429 -0.1505 -0.2376
    1W        W55152  26.879   4.030   7.365 -0.0975 -0.2721 -0.0952
    1W        W55153  22.643   3.457   1.615 -0.1239 -0.1408  0.3060
    1W        W55154  23.625  27.808   0.169  0.2768  0.1384 -0.1237
    1W        W55155  20.105  23.140   1.159 -0.0227 -0.0488  0.3097
    1W        W55156  27.202   7.972   1.649 -0.1739 -0.1853  0.1763
    1W        W55157  14.279   9.156   0.606  0.0660  0.0368 -0.0093
    1W        W55158   4.579  17.427   9.968  0.1000  0.1053 -0.1145
    1W        W55159  27.593  20.822   6.438 -0.1124  0.0626 -0.0142
    1W        W55160  17.034   4.080   7.514 -0.1534  0.0758  0.0398
    1W        W55161  24.987   0.348   2.780 -0.2506 -0.1049  0.0540
    1W        W55162  16.246  14.349   3.235 -0.0617  0.2494  0.0640
    1W        W55163  27.166   6.815   8.770  0.3048  0.0340  0.1766
    1W        W55164  11.326  27.011   7.303 -0.0569  0.2382  0.0776
    1W        W55165  10.539  20.869   2.907  0.0358 -0.2059  0.2071
    1W        W55166  25.038  21.900   9.925 -0.1648 -0.4773  0.1614
    1W        W55167   0.990   9.013   1.481  0.1290  0.2212  0.3053
    1W        W55168  18.779   5.498   1.176  0.1397  0.4067  0.0368
    1W        W55169  19.913  24.535   3.252  0.1502  0.1879 -0.0179
    1W        W55170  18.076  27.473   0.499 -0.2167  0.4967 -0.0155
    1W        W55171  14.188  21.397   9.853  0.1471  0.1218 -0.0580
    1W        W55172   8.127   6.759   9.915 -0.0630  0.2541  0.0433
    1W        W55173   8.848   7.406   1.787  0.1878  0.1058 -0.0404
    1W        W55174  22.902   3.823   7.575  0.0218 -0.0939 -0.0425
    1W        W55175   5.523   2.308   7.123  0.2447 -0.0833 -0.0277
    1W        W55176  25.788  19.523   9.155  0.0165  0.2714  0.1007
    1W        W55177   8.517  25.186   2.631  0.0991  0.0578  0.1281
    1W        W55178  22.344  24.994   9.274 -0.1122  0.0850 -0.2531
    1W        W55179  14.474  27.942   7.538 -0.0352  0.1122 -0.2056
    1W        W55180  18.184   7.719   8.951 -0.1630  0.0671  0.1746
    1W        W55181  21.436  19.424   1.838 -0.2232 -0.0039 -0.0189
    1W        W55182  12.455  14.319   3.522 -0.1770 -0.3657  0.2642
    1W        W55183   7.598   4.579   2.072 -0.1153  0.1349  0.0927
    1W        W55184  13.196   7.222   0.486  0.0694 -0.3924 -0.1467
    1W        W55185  17.191  18.869   9.323  0.0410  0.0295  0.1222
    1W        W55186  21.959   1.835   7.388  0.2772  0.0128 -0.3468
    1W        W55187   8.012  25.071   1.282  0.0677  0.1553 -0.4635
    1W        W55188   3.976   2.546   9.856  0.1252  0.2661 -0.0844
    1W        W55189  20.098  12.031   0.241  0.0442 -0.1445 -0.1529
    1W        W55190   5.071   0.176   9.066  0.0412  0.1148  0.2432
    1W        W55191   4.420  23.134   0.520  0.0997  0.0165 -0.0030
    1W        W55192  25.919  10.240   8.317 -0.2195 -0.0059 -0.0218
    1W        W55193   5.291  18.532   7.879 -0.0268 -0.1601  0.3220
    1W        W55194   2.147  16.264   2.288  0.2852  0.2608 -0.1599
    1W        W55195  24.395   6.869   7.837 -0.2514 -0.2189 -0.0284
    1W        W55196  11.182   7.441   0.755  0.0382  0.2883 -0.2543
    1W        W55197  22.638   2.965   9.841 -0.1634 -0.0684  0.0140
    1W        W55198   8.441  14.726   8.491  0.1439  0.1926  0.0738
    1W        W55199   2.510  20.976   2.937 -0.1784  0.2637 -0.0415
    1W        W55200  19.973  26.775   2.957  0.0016  0.2522 -0.1879
    1W        W55201   5.093  17.113   0.484  0.2509 -0.1074  0.1336
    1W        W55202  18.715  17.497   0.270 -0.2558 -0.0235 -0.1419
    1W        W55203   3.257  20.621   0.418 -0.1181 -0.1994  0.0270
    1W        W55204  21.753  22.036   8.866  0.1405 -0.0924 -0.2507
    1W        W55205  19.364   4.166   9.011 -0.0542  0.0519  0.0958
    1W        W55206   1.013  20.988   7.014  0.1301  0.0132 -0.1777
    1W        W55207   4.022  26.188  10.344 -0.2462  0.0339  0.0030
    1W        W55208  26.142   2.584   2.651 -0.2465  0.0227 -0.2848
    1W        W55209  27.157  18.677   8.047  0.0130  0.1888  0.5929
    1W        W55210  12.200  14.208   8.469 -0.0904 -0.3490  0.1776
    1W        W55211  25.652  12.114   9.392  0.0715 -0.1581  0.1555
    1W        W55212  18.768  28.113   3.241 -0.1005 -0.2762 -0.0990
    1W        W55213  22.585   9.839   6.725  0.0888  0.1792 -0.0946
    1W        W55214  11.790   7.520  10.233  0.0081 -0.2346  0.0943
    1W        W55215  20.238  19.428   1.424  0.1412  0.0127 -0.1305
    1W        W55216  12.940  20.511   1.142 -0.2281 -0.1308 -0.2963
    1W        W55217   3.233   4.572   9.097 -0.2040  0.2536 -0.0309
    1W        W55218   7.686  11.085  10.297 -0.0144 -0.0980  0.0257
    1W        W55219  19.385   1.918   8.603  0.0911 -0.0135  0.2630
    1W        W55220  16.473  17.260   0.292  0.1467 -0.1534 -0.1616
    1W        W55221  10.985  12.007   0.530 -0.0161 -0.1624 -0.1411
    1W        W55222   4.099   3.999   8.604 -0.1170  0.4408  0.0096
    1W        W55223  26.004  24.316   8.697  0.0672 -0.0424 -0.2641
    1W        W55224   9.914   7.751   7.908 -0.2655 -0.0856 -0.0578
    1W        W55225  18.357   7.083   9.977 -0.0369 -0.2818  0.2241
    1W        W55226  16.073  15.447   2.022 -0.2044  0.0351 -0.0426
    1W        W55227  20.406   1.212   6.504  0.1157  0.1468 -0.0233
    1W        W55228  21.964  23.845   1.008  0.3131 -0.0595  0.0505
    1W        W55229  27.035  26.480  10.075  0.0492 -0.0425 -0.2214
    1W        W55230   8.525  23.281   0.894  0.1939 -0.0201  0.0180
    1W        W55231  19.316  11.584   8.296  0.0249  0.2251  0.0244
    1W        W55232  22.538   6.581  10.160  0.1750  0.0298 -0.1208
    1W        W55233   9.228   9.608   0.316 -0.1544  0.0125  0.0850
    1W        W55234   0.758  10.047   8.014 -0.1741 -0.1809 -0.1214
    1W        W55235  15.832   3.886   9.292  0.1617 -0.0880 -0.2129
    1W        W55236   7.935  12.060   1.151 -0.0155 -0.1269  0.2867
    1W        W55237  26.803  14.717   7.147  0.2006  0.0711  0.0049
    1W        W55238  25.084  10.682   6.598  0.0033 -0.2791 -0.0351
    1W        W55239  26.499  24.987   7.276 -0.2266 -0.1371  0.1668
    1W        W55240  17.447  13.841   0.662  0.0597 -0.1118 -0.0665
    1W        W55241  16.957  17.907   3.575 -0.1976  0.0436 -0.3586
    1W        W55242  20.830  23.840   9.475 -0.0105 -0.0938  0.0870
    1W        W55243  11.915   5.476   2.733 -0.1048 -0.2025  0.0477
    1W        W55244  19.389  10.944  10.146  0.1657  0.0553 -0.3045
    1W        W55245   9.995   7.255   2.529  0.0142  0.1709  0.0777
    1W        W55246  26.416  26.618   7.220 -0.1687  0.0681  0.2065
    1W        W55247   6.035   1.301   1.551  0.1057  0.2681  0.0735
    1W        W55248  10.359  25.779   2.597  0.0971  0.0286  0.0663
    1W        W55249  12.750  19.038   2.028  0.0762 -0.5209 -0.1250
    1W        W55250  23.761  16.148   3.260 -0.0427 -0.1015 -0.0013
    1W        W55251   8.134  23.381   1.322  0.1476  0.0243  0.1279
    1W        W55252   9.928   7.905   9.440 -0.0395 -0.2158 -0.2022
    1W        W55253  26.058  26.496   3.253 -0.1896  0.0307 -0.0677
    1W        W55254  22.910  24.581   1.683 -0.1513  0.1311  0.1370
    1W        W55255   2.681  21.337  10.189  0.0182 -0.0485  0.1369
    1W        W55256  21.037  12.089  10.197  0.1330  0.1118  0.0312
    1W        W55257  27.707  14.546   7.965 -0.2116  0.0775  0.2920
    1W        W55258  17.164   9.485  10.232  0.1248  0.1144  0.2010
    1W        W55259   7.214  10.833   2.031  0.1761 -0.1037  0.1966
    1W        W55260  14.614   3.636   0.729 -0.1384 -0.1256 -0.1046
    1W        W55261  26.433   1.979   7.856 -0.1887  0.2762  0.0925
    1W        W55262  10.361   1.650   0.656  0.0098 -0.0259 -0.0126
    1W        W55263   4.852  25.776   0.391 -0.0879  0.1310 -0.0995
    1W        W55264  11.149   7.789   8.341 -0.0483 -0.1118 -0.1303
    1W        W55265  13.731  16.021   8.629 -0.2099 -0.0288  0.0792
    1W        W55266   8.277   1.324   2.460  0.2765 -0.1261  0.1254
    1W        W55267   1.942  23.175   7.511  0.2058  0.1051  0.3998
    1W        W55268  26.890   4.212   1.025 -0.1590 -0.1967 -0.0970
    1W        W55269   7.249  21.869   7.950  0.1000  0.1367 -0.0107
    1W        W55270  11.043   3.735   1.368 -0.1337 -0.1409  0.0882
    1W        W55271  23.942  12.420   2.249  0.1094 -0.1702 -0.1970
    1W        W55272  20.373   4.020   7.223  0.1135  0.1017  0.1942
    1W        W55273   3.720  14.264   1.808 -0.2940  0.1370  0.0015
    1W        W55274  18.532   0.947   1.162  0.3087 -0.1494  0.2051
    1W        W55275  12.695   2.517   9.796  0.4728 -0.0664 -0.1001
    1W        W55276   5.503  18.337   3.430 -0.2586 -0.4034 -0.1476
    1W        W55277  22.731  10.165   7.086  0.0022 -0.1039 -0.0087
    1W        W55278   4.665   4.105   7.347  0.2263  0.1594  0.2136
    1W        W55279   0.119  12.850   0.659 -0.0581  0.2839 -0.1019
    1W        W55280  25.337  15.481   7.938  0.0036 -0.2553  0.0055
    1W        W55281  13.356  18.174   9.312  0.3006 -0.0147 -0.0551
    1W        W55282  26.466  17.971   2.246  0.3007 -0.0915 -0.1777
    1W        W55283  16.954   8.044   7.916  0.0308  0.0706  0.2410
    1W        W55284  13.949   8.721   7.955 -0.2274 -0.1187 -0.1538
    1W        W55285  17.796  12.926   0.325  0.0513  0.1002  0.0715
    1W        W55286  24.628  25.212   8.176 -0.2629 -0.0024 -0.0899
    1W        W55287  20.473  13.195   8.746 -0.1076 -0.4088 -0.0094
    1W        W55288  24.988   6.810   2.855 -0.3546 -0.0817 -0.0625
    1W        W55289  19.409  20.703   9.315  0.1025  0.0272 -0.0072
    1W        W55290  12.384  14.960   3.145 -0.1411  0.1779 -0.1568
    1W        W55291  20.777  21.776   8.729  0.2513  0.1433 -0.0281
    1W        W55292  21.116  21.041   8.515  0.1747  0.0144 -0.1063
    1W        W55293   7.167   4.811   8.388 -0.1190 -0.2436 -0.1688
    1W        W55294  14.121  13.837   3.007 -0.0238 -0.3513 -0.0142
    1W        W55295   9.915  23.592   8.549 -0.2119 -0.1761  0.0797
    1W        W55296  23.175  24.812   9.750  0.0876  0.1187  0.0661
    1W        W55297   0.777  25.800   8.893  0.3326  0.0712 -0.3181
    1W        W55298  11.471  16.672   9.608 -0.1151 -0.1438 -0.0494
    1W        W55299   4.515  25.290   2.081 -0.0285 -0.3233  0.2522
    1W        W55300  14.598  11.109   3.640 -0.0989 -0.1573  0.0014
    1W        W55301   2.766  27.895   9.961 -0.2263  0.1149 -0.0393
    1W        W55302  11.653  10.072   2.764  0.0994 -0.0561  0.1151
    1W        W55303   1.119   9.010   7.373  0.1342 -0.1240  0.0653
    1W        W55304  23.273  21.336   1.925  0.0572  0.2157 -0.1172
    1W        W55305  25.682   3.671   8.436  0.0227  0.1421 -0.0651
    1W        W55306  12.180  22.258   8.467 -0.1271 -0.5038 -0.0822
    1W        W55307   6.601  19.554   7.977 -0.1798  0.1243 -0.2116
    1W        W55308   1.426   3.416   5.725 -0.2051  0.1045 -0.2061
    1W        W55309  24.037  21.839   7.810  0.1730  0.2793  0.0886
    1W        W55310   6.734   3.503   9.709  0.1287 -0.2662  0.0976
    1W        W55311  27.542  21.095   8.264 -0.2183 -0.1655  0.4138
    1W        W55312  13.802  19.816   2.218  0.0199  0.0253 -0.0335
    1W        W55313  13.215  16.900   0.585  0.1822  0.1978 -0.0163
    1W        W55314  21.723   5.002   1.873 -0.2274 -0.1482  0.2903
    1W        W55315  17.089  12.457   0.274  0.2495 -0.0490 -0.3159
    1W        W55316   1.084  23.700   6.211  0.0261  0.2181  0.1109
    1W        W55317   9.114  25.996   2.893  0.2446 -0.0306  0.0063
    1W        W55318  22.728  27.762   3.404 -0.1244 -0.0346  0.1400
    1W        W55319  17.737   7.152   9.493 -0.3000  0.1509  0.2549
    1W        W55320  15.119  18.750   1.950  0.2044 -0.0157  0.0895
    1W        W55321   6.708  17.027   9.274  0.3140  0.0145 -0.4451
    1W        W55322  10.490   1.602   3.137  0.0056 -0.1940 -0.4634
    1W        W55323   8.663   5.978   0.354 -0.0957  0.0647  0.1536
    1W        W55324  14.329   9.131   7.741 -0.2508  0.1732  0.0277
    1W        W55325  16.855   5.462   9.545  0.1391  0.2213  0.0006
    1W        W55326  12.743  19.671   0.438  0.2286  0.0311  0.2126
    1W        W55327  25.587  19.995   0.439  0.3116  0.0325  0.2528
    1W        W55328  22.766  10.844   7.397 -0.1346 -0.2776  0.0727
    1W        W55329  26.207  24.560   7.048 -0.3298  0.1024  0.0609
    1W        W55330   9.563  10.608   0.357 -0.1593 -0.1317 -0.4468
    1W        W55331  15.007  10.900   0.717 -0.0460  0.2650  0.3533
    1W        W55332  16.981   8.788   2.824 -0.0163 -0.1003 -0.2076
    1W        W55333  10.921   4.582   1.022  0.0685 -0.1782 -0.1933
    1W        W55334  25.877  14.760   8.820 -0.0125  0.1843  0.0315
    1W        W55335  11.302   0.236   9.071 -0.0085  0.2254 -0.0666
    1W        W55336   9.777   3.308   9.464  0.1915 -0.1265  0.0386
    1W        W55337   8.772  24.168   2.173  0.2663  0.1123  0.2239
    1W        W55338  15.848  21.993   8.973  0.0576  0.3709  0.2126
    1W        W55339  27.590  27.198   2.494 -0.1718 -0.3958  0.0149
    1W        W55340  15.001  25.804   3.110  0.1880  0.2859 -0.0979
    1W        W55341  26.225   9.406   8.429 -0.1813 -0.4186  0.0212
    1W        W55342   3.409  21.579   8.751  0.0018  0.2057 -0.1844
    1W        W55343  17.992   8.872   4.289 -0.0715 -0.1805 -0.0945
    1W        W55344  11.268  17.282   0.637 -0.2113 -0.2205 -0.0396
    1W        W55345  23.356  22.348   7.203  0.2144  0.0387 -0.1088
    1W        W55346   3.276   2.660   1.229  0.0437 -0.0546 -0.0287
    1W        W55347  12.910  18.836   2.462 -0.3579 -0.2266  0.0519
    1W        W55348   1.903  11.830  10.078  0.1019  0.0264  0.1313
    1W        W55349  10.612  11.587   8.657 -0.3030 -0.0359  0.0324
    1W        W55350  27.029  16.600   9.250 -0.0694  0.1966  0.1425
    1W        W55351   1.477   0.711   1.350  0.0302 -0.2878 -0.2421
    1W        W55352   8.694  24.165  10.231  0.3639 -0.0645 -0.0310
    1W        W55353  12.943   8.125   2.956 -0.0304  0.1678  0.2312
    1W        W55354  25.542  26.404   2.404 -0.0381  0.0935  0.0873
    1W        W55355  19.033  24.071   3.027 -0.0265 -0.0102 -0.1912
    1W        W55356  15.569  16.559   8.510 -0.0126 -0.0190  0.0818
    1W        W55357  11.014  25.766   2.660 -0.0292 -0.3393  0.1697
    1W        W55358  16.221   7.761   2.187 -0.1659 -0.0874 -0.2995
    1W        W55359  26.157  12.043   6.365 -0.1523  0.0292 -0.1543
    1W        W55360   9.561   7.762   9.715 -0.2723 -0.0968  0.0382
    1W        W55361   7.841  17.945   3.635 -0.1226  0.0971  0.0704
    1W        W55362  10.828  12.900   3.783 -0.3687 -0.0414  0.0650
    1W        W55363   9.522  23.943   8.788 -0.2047 -0.0493  0.2569
    1W        W55364   3.542   7.156   8.636  0.0061  0.0679  0.0832
    1W        W55365  10.305  10.874   2.632 -0.1838  0.2312 -0.1443
    1W        W55366   1.554  22.755   1.227  0.4645  0.2247  0.1683
    1W        W55367   6.563   7.451   0.672  0.0021  0.0597  0.1404
    1W        W55368   2.948  10.472   2.127 -0.1064  0.0608 -0.0987
    1W        W55369   7.574   5.458   7.927 -0.0591 -0.1407 -0.2073
    1W        W55370   8.238  24.731   1.497 -0.0797  0.1090 -0.1637
    1W        W55371   9.217  19.445   8.366  0.3337  0.0034  0.0958
    1W        W55372  27.033  23.732   0.844  0.0193  0.4193 -0.0962
    1W        W55373   7.049   8.731   3.762  0.2186 -0.1002  0.2283
    1W        W55374  24.445  23.500   9.710  0.2677  0.0868  0.0960
    1W        W55375  10.557  20.910   0.811  0.0045 -0.0952 -0.0741
    1W        W55376   9.707  14.447   9.859  0.0347  0.1434 -0.1619
    1W        W55377  18.181  20.513   9.318 -0.3726 -0.0507  0.2245
    1W        W55378  23.185  16.738   0.128 -0.0975  0.3229 -0.2875
    1W        W55379   0.669  20.172   6.828 -0.1437 -0.1521 -0.3556
    1W        W55380   5.340  13.135   2.186 -0.1432 -0.2566  0.0173
    1W        W55381   1.405  17.332   2.648 -0.1574  0.0669  0.1087
    1W        W55382  12.826   6.022   2.985 -0.2612 -0.0464  0.1468
    1W        W55383   3.915   6.540   0.522  0.2478  0.0444  0.1311
    1W        W55384   5.810  20.701   7.317  0.1994  0.2743  0.0812
    1W        W55385   1.733  20.391   6.555 -0.1609 -0.3532 -0.1655
    1W        W55386  15.773  13.334   9.700 -0.0538  0.0900 -0.1758
    1W        W55387  17.134   2.741   2.725 -0.1921 -0.2645  0.0164
    1W        W55388   1.349  26.476   7.148 -0.2454  0.2090 -0.0979
    1W        W55389  21.914   6.744  10.259  0.1197 -0.1453 -0.0180
    1W        W55390   4.455   8.109   9.908  0.0664 -0.2375  0.1513
    1W        W55391  22.605  18.694   8.575 -0.3737 -0.0247  0.0996
    1W        W55392   2.462  28.008   6.362  0.3846 -0.1470 -0.1790
    1W        W55393   9.978  16.452   9.720  0.0473 -0.2988 -0.2409
    1W        W55394   4.247  14.686   2.120 -0.5015  0.0067  0.3373
    1W        W55395   3.706  10.802   1.447  0.1331 -0.1776 -0.1861
    1W        W55396  18.524   9.421   8.988 -0.0546 -0.0088  0.1136
    1W        W55397  27.484   4.124   7.792 -0.0513  0.3095  0.0074
    1W        W55398   8.517  16.707   1.422 -0.4470 -0.1976  0.1374
    1W        W55399  21.577  11.207   9.899 -0.0185  0.1551  0.2017
    1W        W55400  17.410  19.636   2.518 -0.1022  0.1611 -0.1831
    1W        W55401  15.430  25.001   2.995  0.1923  0.1253 -0.3421
    1W        W55402   3.708  22.428   2.522  0.0149 -0.0734 -0.3857
    1W        W55403  12.200   3.354   0.500  0.0293 -0.2508 -0.2301
    1W        W55404  20.619  19.647   1.666 -0.1857 -0.1176 -0.1709
    1W        W55405   3.847  13.367   2.110  0.0513 -0.0272 -0.2440
    1W        W55406  19.788  21.879   2.342  0.2617  0.1654  0.0070
    1W        W55407  17.509   6.299   7.799  0.0911 -0.0146  0.0501
    1W        W55408  21.815  14.835   0.983  0.1477 -0.0380  0.0330
    1W        W55409   7.431  23.758   9.116  0.1585 -0.0898  0.2914
    1W        W55410   6.099  12.603   0.300 -0.0048  0.0790  0.3281
    1W        W55411  10.788  16.943   2.520  0.0996 -0.1039  0.3985
    1W        W55412   6.608  21.233   2.125  0.0498  0.0807  0.0518
    1W        W55413   9.106  19.905   2.565 -0.0040  0.1163 -0.1186
    1W        W55414  15.638  17.386   2.820  0.2072  0.1635  0.0227
    1W        W55415  15.808   3.495   7.325  0.2661 -0.0178 -0.2397
    1W        W55416  22.811   5.321   1.805 -0.1350 -0.1211  0.0226
    1W        W55417   7.241  13.639   0.396 -0.0645 -0.1332 -0.3075
    1W        W55418  11.089   7.609   3.195 -0.0809  0.2828 -0.1479
    1W        W55419  11.448  26.497   7.550  0.1840 -0.1790 -0.3041
    1W        W55420  21.045  10.933   1.805 -0.2736 -0.1373  0.1146
    1W        W55421  25.188  22.884   9.358 -0.2566  0.3426  0.1436
    1W        W55422  13.522   4.641   9.313 -0.0048 -0.1276 -0.1147
    1W        W55423  10.452   7.440   2.496 -0.0741  0.2224 -0.0223
    1W        W55424  15.787   1.234   3.542  0.2018  0.1147  0.1378
    1W        W55425  19.769   1.133   0.290  0.0515  0.1240 -0.0850
    1W        W55426   3.986  10.745   7.404 -0.2316  0.1841 -0.1725
    1W        W55427  15.658  18.508   0.783  0.0276 -0.2554  0.0238
    1W        W55428   3.412  11.439  10.048  0.1925  0.0912  0.0066
    1W        W55429  23.437   0.338   0.419  0.1410  0.0796  0.1654
    1W        W55430  22.832  17.754   2.362  0.0316  0.1242 -0.0484
    1W        W55431  15.782   7.143   0.944 -0.2600  0.1328 -0.1129
    1W        W55432  23.818   0.967   2.671 -0.3619  0.1023  0.1202
    1W        W55433  12.379  25.329   0.044 -0.0984  0.3243  0.1217
    1W        W55434   8.366  10.783   9.657 -0.1846  0.0251 -0.0614
    1W        W55435   9.565  16.901  10.347  0.2875 -0.3282 -0.0598
    1W        W55436   6.140   8.477  10.169 -0.3890 -0.2138 -0.0142
    1W        W55437  20.959   4.913   1.987 -0.2078  0.0435 -0.0487
    1W        W55438  22.476  16.360   3.223  0.2748  0.0235 -0.1262
    1W        W55439  20.142   2.816   0.323 -0.0849 -0.1801  0.0351
    1W        W55440  15.609  27.210  10.260  0.2747 -0.0405  0.1802
    1W        W55441  20.760   0.041   2.356  0.0006 -0.0163  0.0378
    1W        W55442   7.949   6.909   7.980 -0.1247  0.0817 -0.0449
    1W        W55443   6.138   2.974   7.322  0.3143 -0.0434 -0.2892
    1W        W55444   0.143  23.267   9.870  0.4930 -0.1789 -0.0447
    1W        W55445   2.094  26.328   9.517 -0.3460 -0.4099  0.0738
    1W        W55446  13.464   8.826   8.796  0.1397  0.0805 -0.2747
    1W        W55447  19.096   0.430   0.238 -0.1229  0.0459 -0.4484
    1W        W55448  15.001   9.943  10.192 -0.2802 -0.0268 -0.2636
    1W        W55449   9.810  15.644   1.136 -0.2027  0.1010  0.0512
    1W        W55450   4.294  10.746   8.497 -0.2025 -0.3765 -0.2121
    1W        W55451   7.925  23.108   6.885 -0.1394  0.4525  0.0501
    1W        W55452  19.808   0.189   6.981 -0.1288 -0.0601 -0.0002
    1W        W55453   5.690  20.564   1.145 -0.0125  0.1293  0.0380
    1W        W55454  23.326   4.759   2.583 -0.0692  0.0149  0.0132
    1W        W55455   2.663   3.684   1.326 -0.1282 -0.0170  0.0412
    1W        W55456  14.052  12.128   8.035 -0.2109 -0.2044 -0.0437
    1W        W55457   3.673  23.263   7.501 -0.4350 -0.1544  0.0453
    1W        W55458  22.557   0.919   0.882  0.1315 -0.3159  0.0976
    1W        W55459   2.656  13.232   2.915  0.0243 -0.1717 -0.0226
    1W        W55460   2.913  12.772   0.274 -0.1612  0.2331  0.1198
    1W        W55461  20.590   5.441   2.996 -0.0665  0.0278  0.1649
    1W        W55462  15.686  24.301   8.960  0.1987  0.2127 -0.1259
    1W        W55463  27.843  20.460   9.569 -0.4008 -0.2481 -0.0276
    1W        W55464   9.297   1.380   8.162 -0.0775 -0.0093  0.2168
    1W        W55465   1.272   8.159   1.399 -0.0526  0.3999 -0.0861
    1W        W55466  22.213   2.812   9.055 -0.0193  0.1133 -0.2222
    1W        W55467  22.010  25.712  10.166  0.2550 -0.1713 -0.3098
    1W        W55468   2.274   0.711   1.935  0.1588  0.3481 -0.2224
    1W        W55469  14.420   7.047   3.234 -0.0925 -0.0326 -0.1113
    1W        W55470  13.602   6.002   8.858 -0.0641  0.4117 -0.2196
    1W        W55471  16.851   5.347   8.508  0.2501  0.1892 -0.3530
    1W        W55472   8.886  17.849   8.737 -0.0570  0.2499  0.1635
    1W        W55473  27.245  20.852   3.067 -0.0613  0.3989  0.2619
    1W        W55474   4.717   7.774  10.336  0.0859  0.0429  0.0454
    1W        W55475   7.887   0.988   1.812 -0.3166  0.1659  0.0696
    1W        W55476  23.890  26.562   1.147 -0.1015 -0.0487  0.0229
    1W        W55477   9.412  27.987   1.874 -0.1194  0.1618 -0.0364
    1W        W55478   9.716   3.734   1.920 -0.1011  0.1107 -0.1371
    1W        W55479  15.881  13.993   8.484  0.0451 -0.0676  0.1356
    1W        W55480  25.744  22.605   1.571 -0.1351 -0.2444 -0.0565
    1W        W55481  14.509   5.558   2.885 -0.0352 -0.0284  0.2786
    1W        W55482  23.123   1.151   3.765  0.0658  0.0643  0.1963
    1W        W55483   3.907  17.620   9.260  0.0028  0.2945  0.1472
    1W        W55484  23.513  18.964   3.541  0.1890 -0.1247 -0.1920
    1W        W55485  16.212  15.853   9.154  0.1488  0.1496 -0.1935
    1W        W55486  14.803   7.342   2.345 -0.2559  0.2433 -0.3146
    1W        W55487  21.804   5.507   1.794  0.1210 -0.0427 -0.3005
    1W        W55488  16.622  26.444   2.947 -0.0083  0.0439 -0.1422
    1W        W55489  17.894  16.018   0.932  0.1585  0.1514  0.2072
    1W        W55490  15.811   1.041   4.083 -0.0820 -0.1141 -0.0143
    1W        W55491   0.331  20.825   9.390 -0.1884  0.0188 -0.0569
    1W        W55492   2.199   7.099   1.391  0.0518 -0.1274  0.0509
    1W        W55493  16.416  22.256   6.732 -0.1091  0.0067 -0.1574
    1W        W55494   2.914   7.483   0.926  0.3203  0.0010 -0.1133
    1W        W55495  11.957  20.896   9.948 -0.2863 -0.0034 -0.1902
    1W        W55496  12.862  12.097   8.825 -0.0391  0.2301 -0.0617
    1W        W55497   4.253  26.159   1.215 -0.1157  0.0124  0.2518
    1W        W55498  15.687   0.012   8.743  0.0116 -0.2073  0.1403
    1W        W55499  16.477  22.172   1.972  0.1891  0.2788 -0.0642
    1W        W55500  14.159  15.458   0.773 -0.0796  0.0749  0.0881
    1W        W55501   2.418  26.876   7.177 -0.1486 -0.0393 -0.0259
    1W        W55502   9.051  24.265   8.787  0.0070  0.0683 -0.0803
    1W        W55503  15.805  26.254   7.418 -0.0642  0.0042 -0.2886
    1W        W55504  10.126  11.204   9.713  0.2146  0.1659 -0.0916
    1W        W55505   3.357  22.812   2.206  0.0853  0.4024  0.0185
    1W        W55506  18.434  24.161   0.126  0.1866  0.1819  0.2071
    1W        W55507  15.514   9.406   3.892 -0.0515  0.0698  0.1751
    1W        W55508   0.081   0.429   2.099  0.1257  0.0383  0.0747
    1W        W55509   2.905  26.897   8.774 -0.0095 -0.3108 -0.2439
    1W        W55510  20.314  18.251   8.269 -0.1848  0.0887 -0.2585
    1W        W55511   9.023  14.787   7.695 -0.2046  0.0932  0.2185
    1W        W55512   6.418   8.694   2.418 -0.2257  0.4423  0.0769
    1W        W55513   4.672  26.235   7.922  0.0491 -0.0130 -0.3179
    1W        W55514  16.971  17.026   8.697 -0.1361  0.0141  0.0148
    1W        W55515  19.228  11.031   8.946 -0.3623 -0.0792  0.0609
    1W        W55516   3.269   3.256   0.352  0.2590  0.3998  0.0241
    1W        W55517   5.320  27.383   3.002  0.3666 -0.2208  0.1567
    1W        W55518  14.126  17.497   9.295  0.0191 -0.0226 -0.6824
    1W        W55519  20.541  25.664   9.609 -0.0366 -0.1321  0.0035
    1W        W55520  26.021  12.528   1.247 -0.1230 -0.1123 -0.0644
    1W        W55521  27.949  16.854   7.092  0.0436  0.1653 -0.1714
    1W        W55522  23.296   2.063   2.289 -0.0566  0.0573  0.0132
    1W        W55523   5.023  12.911   8.744  0.2765  0.2088  0.2762
    1W        W55524  23.791  27.028   8.104  0.1761 -0.1237 -0.0717
    1W        W55525  23.768   2.760   0.302  0.2335  0.0756  0.1222
    1W        W55526  27.962   5.256   8.392 -0.3664 -0.0530 -0.1211
    1W        W55527  26.164   0.778   8.307  0.0357 -0.0791 -0.2856
    1W        W55528  18.525  21.141   0.904  0.2953 -0.1524 -0.1096
    1W        W55529  25.776   5.789   8.929 -0.0049  0.0316  0.1330
    1W        W55530  24.362   4.220  10.287 -0.1384  0.1385 -0.2248
    1W        W55531  25.686   3.901   2.609  0.0612 -0.2318  0.0764
    1W        W55532   8.141   6.679   1.490  0.0747 -0.2087 -0.0700
    1W        W55533  21.142  23.673   8.067 -0.0540  0.4632  0.0175
    1W        W55534  20.933   0.589  10.074 -0.1948  0.2235 -0.1802
    1W        W55535   4.102  16.864   8.757 -0.4386 -0.2141  0.1460
    1W        W55536  25.700   4.743   1.508  0.1046 -0.0233  0.0420
    1W        W55537  25.730  16.910   1.999 -0.1773 -0.0742  0.2996
    1W        W55538  17.611  10.446   2.664  0.4002 -0.2538  0.3190
    1W        W55539  21.082   8.579   8.838  0.0661  0.2130 -0.1555
    1W        W55540  18.135  14.180   2.788 -0.3608 -0.1844 -0.0890
    1W        W55541  11.888  12.289   1.468 -0.4238 -0.0260  0.1953
    1W        W55542  13.198   8.817  10.210 -0.1838  0.1409 -0.0088
    1W        W55543  25.628   1.994   1.767  0.0426 -0.0860 -0.1032
    1W        W55544   7.773   4.276   9.937 -0.2263 -0.0029 -0.0045
    1W        W55545   6.590   4.529   8.326  0.1164 -0.0996  0.0481
    1W        W55546  27.455  15.034   8.096  0.0375 -0.0733 -0.2060
    1W        W55547  27.212   1.968   2.050 -0.0003 -0.0272  0.0549
    1W        W55548  22.655  13.422   0.097  0.0297 -0.0454  0.0064
    1W        W55549  20.586  10.060   2.885  0.0109  0.1203  0.1356
    1W        W55550  15.811   0.833   7.856  0.0164 -0.5327  0.0682
    1W        W55551  13.404  19.577   2.415 -0.0723  0.0433  0.1495
    1W        W55552   4.938  23.952   2.515  0.0982  0.0194 -0.0957
    1W        W55553   0.279  27.022   7.748  0.3966 -0.0965  0.0225
    1W        W55554  23.244  18.265   0.640  0.3178  0.0074  0.0072
    1W        W55555  12.576  25.942   8.239 -0.1186  0.1010 -0.2076
    1W        W55556  17.529   7.252   9.982  0.0699 -0.0452  0.0579
    1W        W55557  28.045  13.677   7.122  0.0541  0.0455 -0.0574
    1W        W55558  16.773  20.041   0.696 -0.1953  0.3782 -0.0464
    1W        W55559  17.297  14.243   9.117 -0.3514  0.2375  0.3259
    1W        W55560  10.890   1.830   2.902  0.3184 -0.0853  0.1570
    1W        W55561  12.026  14.918  10.210  0.1726 -0.4573  0.0391
    1W        W55562   4.138  10.320   2.167 -0.0998 -0.1121  0.0552
    1W        W55563  15.496  16.763   0.783  0.2451 -0.1131  0.2123
    1W        W55564   9.532   3.321   8.941  0.3443  0.2843 -0.2259
    1W        W55565  11.783  11.467   9.382 -0.1651  0.2061 -0.4059
    1W        W55566  26.902   8.578   1.083  0.1551  0.0864  0.1146
    1W        W55567  18.897   6.285   1.825 -0.0720  0.0333  0.0963
    1W        W55568  17.210  18.349  10.122 -0.1266  0.1377  0.3244
    1W        W55569  22.065  21.959   9.407 -0.0732  0.2872  0.1596
    1W        W55570  23.918  24.213   3.175 -0.3119 -0.0174 -0.0216
    1W        W55571  21.079  17.165   1.300  0.2577 -0.3010 -0.0518
    1W        W55572  23.450  19.028   0.532 -0.2683  0.1308 -0.1467
    1W        W55573  15.320  21.338   9.159  0.1564 -0.5212 -0.0073
    1W        W55574  25.732   6.630   1.522  0.0047  0.1114  0.3268
    1W        W55575  14.525   1.200   9.002  0.0501 -0.0695  0.0340
    1W        W55576  19.498  17.040   1.538 -0.3361 -0.2426 -0.0290
    1W        W55577  23.076   6.791   8.772  0.1922  0.1742  0.1064
    1W        W55578   5.952  20.253   8.007  0.1481  0.2996 -0.2931
    1W        W55579   9.131   5.788   7.652 -0.3097 -0.2560 -0.0151
    1W        W55580   5.609   9.187   1.404 -0.1504  0.0010 -0.1733
    1W        W55581  16.994  18.231   1.271 -0.1052  0.3315 -0.2557
    1W        W55582  14.949  18.884   8.398 -0.0041 -0.1129  0.2007
    1W        W55583  13.597   5.907   2.197  0.0660 -0.0057  0.1339
    1W        W55584  22.723  28.066   1.084 -0.1166  0.2804 -0.0976
    1W        W55585  11.829  16.220   9.667  0.1478 -0.0516 -0.0616
    1W        W55586   7.598   0.445   7.165  0.0626  0.2206  0.2626
    1W        W55587  14.469   0.785   0.177  0.1450  0.0779  0.1349
    1W        W55588  19.234  26.141   2.839 -0.0520  0.0092  0.0849
    1W        W55589  10.838   1.695   7.757 -0.0106 -0.2032 -0.1226
    1W        W55590  13.101  15.225   2.596 -0.2476  0.1801 -0.1095
    1W        W55591  24.043   9.799   8.164 -0.1932 -0.2609 -0.2040
    1W        W55592   3.241  25.197   1.255  0.0426 -0.1898  0.0446
    1W        W55593  23.888   2.441   0.697 -0.0923 -0.2274 -0.0198
    1W        W55594  14.020  11.299   8.695  0.0703  0.1956 -0.1366
    1W        W55595  14.068   4.698   8.701  0.0275  0.2902 -0.0780
    1W        W55596   9.834   9.945   1.085 -0.2568 -0.1657 -0.0937
    1W        W55597  16.465  24.763   9.433 -0.2662 -0.0142 -0.1842
    1W        W55598   3.781   7.785  10.257  0.1100 -0.1848  0.1380
    1W        W55599  11.677   5.273   8.213  0.0693 -0.2609 -0.1240
    1W        W55600  18.694  20.127   3.940 -0.0635  0.1217  0.0556
    1W        W55601  16.055   6.431   1.889 -0.0315 -0.2704  0.3162
    1W        W55602   2.399  14.225   9.618 -0.2734 -0.0485  0.0578
    1W        W55603   5.956  14.235   7.370  0.2150  0.2325 -0.2370
    1W        W55604  16.479   3.836   2.372 -0.1090  0.0306  0.0781
    1W        W55605  14.895  26.513   2.853 -0.2154 -0.0539 -0.1351
    1W        W55606  12.478  19.442   7.875  0.2511 -0.0100  0.1568
    1W        W55607  25.162   4.936   0.431  0.0540  0.1270 -0.3083
    1W        W55608   9.187  17.803   3.358  0.1341 -0.2938 -0.0351
    1W        W55609  27.438   5.090   0.874 -0.0405 -0.1203 -0.0055
    1W        W55610   3.175   4.093   0.090 -0.1104  0.1924  0.3815
    1W        W55611  19.630  15.078   0.831  0.0037  0.3056  0.1829
    1W        W55612   7.404   7.113   8.201 -0.1529 -0.0494 -0.0085
    1W        W55613  12.815  25.276   7.342  0.4838 -0.0286 -0.0337
    1W        W55614  12.873  20.126   3.212 -0.0083  0.0209 -0.0490
    1W        W55615  22.533   0.603   0.021  0.0187 -0.3116  0.2786
    1W        W55616  11.239   3.255   0.535  0.1272 -0.1833  0.3576
    1W        W55617   3.584   6.835  10.293 -0.1066  0.1063  0.1791
    1W        W55618  19.602  16.815   1.117  0.1457  0.0378 -0.2695
    1W        W55619   5.245  21.125   2.872  0.3147  0.1120  0.0182
    1W        W55620  14.590  22.557   9.303  0.0296  0.0313  0.2700
    1W        W55621   2.581  28.078   6.858  0.0781  0.0493  0.1810
    1W        W55622  22.175   2.059   7.805 -0.4583 -0.0014  0.0211
    1W        W55623  10.031  14.550   1.582  0.2170 -0.1854 -0.1401
    1W        W55624  17.121  18.304   8.026  0.1831 -0.0061  0.3141
    1W        W55625   6.633   2.308   1.905  0.3458  0.3012  0.0927
    1W        W55626  25.734  27.891   7.571 -0.2990  0.0036 -0.2069
    1W        W55627   7.695   7.398   7.564  0.2218 -0.0676 -0.2348
    1W        W55628  13.555  22.479   7.474 -0.0656 -0.0204  0.2700
    1W        W55629   6.105  12.210   8.486  0.1989  0.1444 -0.0264
    1W        W55630  21.254   7.978   9.662 -0.2776 -0.0514 -0.0244
    1W        W55631  18.853   4.123   2.900  0.0769  0.0401  0.1633
    1W        W55632  20.766  22.415   8.972  0.2572 -0.0599  0.2984
    1W        W55633  14.388   8.641   7.629 -0.0824 -0.0276  0.0166
    1W        W55634  20.257   6.243   1.085  0.2113 -0.1369 -0.3483
    1W        W55635   3.773   1.480   9.213  0.1216  0.2567 -0.3360
    1W        W55636  15.094  13.002   9.017 -0.1517  0.3279  0.1827
    1W        W55637  18.190  25.967   1.370 -0.2171  0.0513  0.0876
    1W        W55638  13.963  19.518   9.674 -0.1033 -0.0805  0.1644
    1W        W55639   8.180   4.107   9.428  0.1871  0.0239  0.1111
    1W        W55640  13.044   8.919   1.564 -0.1343 -0.0073 -0.2428
    1W        W55641   8.274  13.942   2.535  0.2199  0.3249 -0.0034
    1W        W55642  24.507   5.294   9.564  0.4350  0.0720  0.1648
    1W        W55643   8.391   8.145  10.191  0.1440  0.1207  0.0696
    1W        W55644  15.061  14.754   3.410  0.3044 -0.0705 -0.1658
    1W        W55645  24.014   2.812   8.175  0.2620 -0.0697  0.3411
    1W        W55646  22.556  23.549   8.280  0.1666  0.0239  0.0762
    1W        W55647  15.414   2.919   3.119 -0.0254  0.1873  0.1944
    1W        W55648  28.034  23.755   2.597 -0.1206 -0.1800  0.1213
    1W        W55649   2.549  19.268   7.554  0.1600 -0.1967  0.0795
    1W        W55650   6.199  16.048   0.328  0.0025 -0.1432 -0.2362
    1W        W55651  25.597  14.768   7.994 -0.2782 -0.1364  0.2071
    1W        W55652  19.982  20.702   9.979  0.0487 -0.1173  0.3600
    1W        W55653  24.099  26.171   9.727  0.1066  0.2125 -0.0374
    1W        W55654  24.497  21.406   1.494 -0.0832 -0.0450  0.4005
    1W        W55655  11.641  10.336   8.558 -0.1039 -0.0973  0.0802
    1W        W55656   1.192  23.837   0.429  0.0650 -0.4184  0.1050
    1W        W55657  20.870  26.041   2.315  0.2636 -0.1881  0.1195
    1W        W55658  22.497   6.319   1.587 -0.2166  0.2945 -0.0697
    1W        W55659  18.525  27.113   9.839 -0.1465  0.1001  0.1983
    1W        W55660   3.113  25.970   7.077  0.1442 -0.2377 -0.4544
    1W        W55661  14.756  17.107   8.000 -0.2730 -0.1202  0.2649
    1W        W55662  23.032   8.203   1.776 -0.2294  0.0645 -0.1536
    1W        W55663  11.398  26.561   1.123 -0.0009  0.0118 -0.2254
    1W        W55664   6.732   4.823   0.687 -0.1524 -0.3240  0.3448
    1W        W55665  20.110   5.011   0.669 -0.1746  0.0619  0.1817
    1W        W55666  16.609   0.024   9.720  0.1886 -0.1892  0.2162
    1W        W55667   2.364   9.668   0.977  0.0563  0.1671 -0.2707
    1W        W55668   2.731  15.664   0.390 -0.0596 -0.0312  0.1192
    1W        W55669  17.365  22.960   0.540 -0.1733 -0.0560 -0.0607
    1W        W55670  10.293  11.747   2.774  0.2642 -0.0807 -0.0299
    1W        W55671   2.041   1.782   9.315 -0.0017 -0.0778  0.0517
    1W        W55672   8.726  14.780   3.268 -0.2107 -0.0698  0.2266
    1W        W55673   7.901   9.422  10.098  0.0478  0.1365 -0.0162
    1W        W55674   0.359  11.425   9.482  0.2769  0.2431 -0.0102
    1W        W55675  10.606  18.655   2.747 -0.0604 -0.3433 -0.0033
    1W        W55676  22.097  25.690   6.931  0.1146  0.0896  0.1499
    1W        W55677   7.650  10.147   0.360 -0.0228 -0.1062  0.2445
    1W        W55678   8.252  13.752   0.055  0.2513  0.3035  0.0365
    1W        W55679  10.704   3.579   8.918  0.1343 -0.0608 -0.0109
    1W        W55680  24.303   9.064   9.378 -0.2437 -0.0219  0.1406
    1W        W55681  15.492   4.748   0.759  0.0951  0.2586 -0.0256
    1W        W55682   9.825   2.076   9.212 -0.0972 -0.2165  0.4707
    1W        W55683  17.904   7.302   2.975  0.1897 -0.0138 -0.0496
    1W        W55684   9.759   0.947   1.671  0.1194 -0.0449 -0.2573
    1W        W55685   7.767  25.990   1.817 -0.2403  0.2970 -0.2720
    1W        W55686  17.581  25.409   7.905 -0.1069  0.0724  0.0535
    1W        W55687  10.327  15.438   9.165  0.0148 -0.2127 -0.1637
    1W        W55688  18.754   2.579   2.209  0.4415 -0.1875  0.0473
    1W        W55689  21.540  19.628   2.754  0.2240 -0.2861 -0.0937
    1W        W55690  25.144   9.704   1.003  0.1779 -0.2438  0.0727
    1W        W55691  16.632   8.676   0.281 -0.0573 -0.0751 -0.0663
    1W        W55692   0.142  21.981   2.124  0.0133  0.1119  0.2537
    1W        W55693  24.469  14.601   9.667 -0.0520  0.0413  0.0099
    1W        W55694  13.668   6.437   2.122  0.0936  0.1079  0.3481
    1W        W55695   0.241  10.787   9.290  0.0745 -0.0779 -0.0672
    1W        W55696   5.731   5.432   6.507  0.1184  0.1108  0.1065
    1W        W55697  19.284  12.015  10.054  0.0980 -0.0960  0.0092
    1W        W55698  18.084   5.223   2.465  0.1478 -0.0984 -0.0946
    1W        W55699  14.199  24.581   8.297  0.0055  0.2903 -0.0200
    1W        W55700  26.117  16.432   1.090 -0.1907 -0.0574 -0.2379
    1W        W55701   3.054  15.842   7.349  0.1689 -0.0442  0.2622
    1W        W55702  15.525   3.160   4.227 -0.0605 -0.1581  0.1166
    1W        W55703  23.441  10.711   9.958  0.0492  0.1145 -0.1169
    1W        W55704  27.936  20.256   7.203 -0.2938  0.0609  0.2866
    1W        W55705  22.020  10.478   7.614 -0.1931 -0.3457 -0.0111
    1W        W55706  19.663  12.235   1.721  0.2161  0.3168 -0.2058
    1W        W55707  17.885   3.967   7.952  0.0816  0.3127 -0.1194
    1W        W55708  12.565  27.103   2.451 -0.1009  0.1104  0.2176
    1W        W55709  18.280   4.665   1.812 -0.0233  0.1578 -0.0987
    1W        W55710  11.367   4.867   8.079 -0.0338 -0.0513 -0.0547
    1W        W55711  15.336  10.724   9.797  0.2101 -0.2776  0.0582
    1W        W55712  21.353   4.313   7.778 -0.0591 -0.0683 -0.1026
    1W        W55713   6.626   9.471   6.973 -0.1303  0.0993  0.0189
    1W        W55714  17.748   3.461   8.835 -0.0236 -0.0318  0.0854
    1W        W55715   7.046  26.014   2.181 -0.3623 -0.1246  0.2454
    1W        W55716   9.179  11.286   8.332 -0.2463 -0.0820  0.1077
    1W        W55717  12.767  26.645   8.667  0.5583  0.1457 -0.1807
    1W        W55718  14.727   4.096   8.305 -0.1602  0.4167  0.0671
    1W        W55719  11.154  17.829   9.204  0.1426 -0.0166  0.1432
    1W        W55720   6.543  27.159   9.751 -0.0113  0.1664 -0.0759
    1W        W55721  27.265  14.771   7.701  0.1566 -0.2750  0.0635
    1W        W55722  15.455   7.681   1.573 -0.1134  0.1316  0.0236
    1W        W55723  15.337   7.113   3.241 -0.2760  0.2198  0.2277
    1W        W55724   6.614  21.439   2.582  0.1769  0.2642 -0.0701
    1W        W55725  10.034  25.157   7.954 -0.1180 -0.0881  0.1372
    1W        W55726   1.266   4.587   9.150 -0.0159 -0.0732  0.3321
    1W        W55727   1.318  27.574   0.984  0.0183 -0.2504  0.1990
    1W        W55728  19.594   3.670   7.610 -0.0664  0.0924 -0.0665
    1W        W55729   2.263   7.822   7.002  0.0170 -0.4749  0.1133
    1W        W55730  17.807   9.600   8.131  0.0169 -0.3078  0.2845
    1W        W55731  27.894  12.594   1.108 -0.1095  0.0205  0.1345
    1W        W55732   4.026  20.597  10.271  0.2571  0.0459  0.0316
    1W        W55733   2.733  19.393   3.443 -0.2289  0.2078 -0.1211
    1W        W55734  21.493  24.870   8.217 -0.0087 -0.2141  0.1486
    1W        W55735   8.851  21.899   2.844  0.2684  0.1336  0.1755
    1W        W55736  26.050  22.910  10.038  0.2713  0.0289  0.2942
    1W        W55737  27.328  20.278   9.576  0.0059  0.0675  0.1025
    1W        W55738  20.859  16.930   2.780 -0.0761 -0.1247  0.0406
    1W        W55739  13.210  11.356   8.024 -0.4748 -0.1135 -0.0991
    1W        W55740  13.227  11.629   9.000  0.0087  0.2380  0.1555
    1W        W55741  19.338   1.416   0.144  0.0962 -0.1747 -0.1186
    1W        W55742  13.362   3.966   1.792  0.0405  0.0790 -0.1482
    1W        W55743   7.580  19.081   0.096  0.1125  0.1442 -0.0493
    1W        W55744   0.423  20.019   8.284 -0.0593 -0.0455  0.3889
    1W        W55745  20.465   3.549  10.187  0.1372 -0.2512 -0.2301
    1W        W55746  27.334  16.865  10.003  0.0035  0.0865  0.0366
    1W        W55747  14.998  20.424   0.566 -0.0976 -0.1209 -0.0622
    1W        W55748   5.900  21.728   9.365 -0.1377 -0.2946  0.0093
    1W        W55749  24.775  19.127   7.152 -0.1614 -0.0680 -0.0881
    1W        W55750  12.168  25.229   2.309 -0.0500 -0.2405  0.0829
    1W        W55751   9.831  26.889   1.455 -0.0727 -0.2754 -0.0606
    1W        W55752  27.400  15.113   0.659  0.2730 -0.2983  0.4269
    1W        W55753  12.329  17.008   7.773  0.2128 -0.1670 -0.2299
    1W        W55754  21.633   9.424   7.857  0.3427  0.1683  0.1776
    1W        W55755  19.831   8.837   0.373  0.0062 -0.0859 -0.1814
    1W        W55756  15.479  27.306   9.676 -0.3095 -0.1087  0.0264
    1W        W55757   3.271  18.483   1.814  0.3967 -0.1351 -0.0616
    1W        W55758  28.098  20.099   1.676 -0.0820 -0.0884  0.0249
    1W        W55759   0.403  25.932  10.296  0.1633 -0.2446 -0.2033
    1W        W55760  26.599  22.004   8.932 -0.2491  0.1799 -0.1447
    1W        W55761  10.938  23.705   7.764 -0.2132  0.2393  0.0564
    1W        W55762  18.910   4.746   2.303 -0.0716 -0.0278  0.0385
    1W        W55763   0.010  11.790   9.172 -0.1580 -0.1990 -0.4757
    1W        W55764   0.399  11.153   1.165 -0.0029  0.0352  0.2618
    1W        W55765  17.798  21.457   9.209 -0.1124  0.0005  0.1506
    1W        W55766   8.105  13.649   9.444  0.3714  0.0467  0.3127
    1W        W55767  15.237   0.380   0.771 -0.1877  0.0111  0.1547
    1W        W55768  16.419  22.692  10.216  0.1109 -0.3056  0.2245
    1W        W55769  15.694  19.854   9.291 -0.2108  0.1132  0.2486
    1W        W55770  26.528  21.313   7.087 -0.0423  0.1440  0.0801
    1W        W55771  25.506   4.940   0.969 -0.0406 -0.4390  0.0726
    1W        W55772  17.445  12.604   1.753  0.1417 -0.1528  0.1761
    1W        W55773  16.587  13.163   9.960  0.0367  0.0070 -0.2901
    1W        W55774  24.763  27.235   8.423  0.2682 -0.2372  0.0884
    1W        W55775  25.409   5.280  10.249  0.1604  0.2615 -0.0990
    1W        W55776   2.615  24.457   9.078 -0.1287 -0.2174 -0.2422
    1W        W55777  25.959   8.705   7.432  0.2901  0.2660  0.2323
    1W        W55778  12.178  10.123   1.771  0.3472  0.2495 -0.1914
    1W        W55779   2.653  26.198   8.343  0.0047  0.1023  0.3984
    1W        W55780  20.592  26.627   9.377 -0.2108  0.1296  0.1489
    1W        W55781  23.132   0.760   8.161 -0.1926  0.0396 -0.0926
    1W        W55782  25.089  19.120   9.495 -0.1831 -0.0069 -0.0630
    1W        W55783  18.837  18.077   0.446 -0.2389 -0.0939  0.0817
    1W        W55784  17.527   2.797   1.991 -0.1146 -0.1678  0.1141
    1W        W55785   0.059  20.957   1.702  0.0630  0.1143 -0.0607
    1W        W55786  24.148  14.050   8.097  0.0717  0.1424 -0.2253
    1W        W55787  12.046   4.193   7.873 -0.1514  0.1921 -0.2830
    1W        W55788  14.619  16.706   9.032  0.0271 -0.0562  0.3187
    1W        W55789   7.578  18.306   9.115 -0.0912 -0.0901  0.0587
    1W        W55790  12.515   2.434   1.949  0.1758 -0.1748 -0.2623
    1W        W55791   5.208   8.359   1.167  0.0338  0.2615 -0.0002
    1W        W55792  27.135   8.040   9.593 -0.2611 -0.1490 -0.0686
    1W        W55793  27.939  26.845   2.391 -0.0177  0.2798  0.0593
    1W        W55794   4.643   9.576   2.369 -0.2951 -0.0648  0.0412
    1W        W55795  24.851   1.651   2.109  0.1635 -0.1704 -0.0346
    1W        W55796  24.741  26.702   8.074 -0.2507  0.1121 -0.2585
    1W        W55797   6.547  20.677   8.683 -0.2101 -0.1320 -0.0954
    1W        W55798   4.338  24.248   3.084  0.2626 -0.2241  0.2333
    1W        W55799  14.317  26.446   7.789  0.1932 -0.0328 -0.1768
    1W        W55800   9.380  12.834   9.565 -0.1486  0.1390  0.1367
    1W        W55801   6.088  25.678   8.111  0.0323  0.0034 -0.2099
    1W        W55802  21.076  19.941   8.457 -0.2180  0.2001  0.0296
    1W        W55803   9.610   7.013   1.644 -0.0547 -0.2577  0.0168
    1W        W55804  17.777  16.917   3.824  0.2627 -0.2112  0.0012
    1W        W55805  22.523  23.954   1.146  0.4319  0.1092  0.1055
    1W        W55806   5.079   3.275   7.233 -0.2098  0.2067  0.0327
    1W        W55807  20.189   0.597   1.121  0.2444  0.2073 -0.0381
    1W        W55808  10.167  11.627  10.308  0.3005  0.1404  0.1930
    1W        W55809   6.776   0.345   8.954 -0.0134 -0.0451 -0.1738
    1W        W55810  22.929   5.548   9.769 -0.2632 -0.0597  0.0348
    1W        W55811  17.704   1.100   2.790  0.0818  0.2212 -0.0122
    1W        W55812  21.741  10.880   0.372 -0.2016  0.0113  0.0850
    1W        W55813  10.075  19.579   9.038  0.2246 -0.3809  0.3441
    1W        W55814   8.690   9.558   2.393  0.1572 -0.0093 -0.2773
    1W        W55815  11.449   0.804   3.020 -0.1253 -0.2679  0.1289
    1W        W55816   4.652   4.253   0.485  0.3448  0.0186  0.0500
    1W        W55817  26.364   6.534   9.525  0.0012  0.0414  0.1200
    1W        W55818  16.446  23.819   7.397  0.4496  0.1263 -0.0193
    1W        W55819  25.422   3.254   8.337 -0.0515  0.0271 -0.0237
    1W        W55820  10.418  13.344   2.668  0.0162 -0.1193 -0.0115
    1W        W55821   9.575  10.620   0.895  0.0821  0.2417 -0.1475
    1W        W55822   5.547   0.794   8.638 -0.1258 -0.1072  0.0085
    1W        W55823  23.068   0.230   9.300 -0.1867  0.1509 -0.0098
    1W        W55824   6.646  19.976   2.355 -0.0272  0.2744 -0.2212
    1W        W55825   1.809  21.936   0.958  0.3274  0.1529  0.0904
    1W        W55826   5.490  15.652   3.044 -0.2925  0.0690 -0.1462
    1W        W55827   1.081   8.267   9.936 -0.2391 -0.0681 -0.0740
    1W        W55828   5.945  15.863   9.205 -0.2722  0.1253  0.0056
    1W        W55829  27.014  21.340   1.266  0.0160 -0.0228  0.3228
    1W        W55830   4.976  14.361   9.457 -0.2710  0.1235 -0.2581
    1W        W55831   1.805  19.816   1.996  0.2657 -0.1250 -0.2105
    1W        W55832   4.958  25.739   2.242  0.1728 -0.0516 -0.0819
    1W        W55833   0.462  19.318   8.010 -0.0235 -0.0533  0.0960
    1W        W55834  18.132  16.312   9.845 -0.0318  0.1304  0.3297
    1W        W55835  11.208  23.469   0.516 -0.2180  0.0117  0.0577
    1W        W55836  17.189  16.327   2.597 -0.2063 -0.0517 -0.0711
    1W        W55837   4.156   2.273  10.314 -0.3280  0.2764  0.0947
    1W        W55838  25.831   3.856   1.148 -0.1964 -0.0114  0.0886
    1W        W55839  12.060  24.560   1.325  0.3196 -0.0751  0.3120
    1W        W55840  13.962  18.624   8.383 -0.2476  0.0574 -0.0924
    1W        W55841  27.033  22.179   1.408  0.0816  0.0444 -0.0666
    1W        W55842  13.088   7.781   1.204  0.0807  0.3993  0.0743
    1W        W55843  15.726  15.582  10.133  0.2667  0.4006 -0.1773
    1W        W55844  16.751  17.398   8.433 -0.2591  0.2182  0.5207
    1W        W55845   0.494  24.337   7.415 -0.2362 -0.0281 -0.0102
    1W        W55846  17.346  22.197   3.349  0.1766  0.2117  0.0513
    1W        W55847  14.353  26.781   7.344 -0.1298  0.1307 -0.0619
    1W        W55848  18.112   6.136   7.023  0.2112  0.0968 -0.0284
    1W        W55849   7.879  15.042   0.457 -0.1117 -0.2983  0.1850
    1W        W55850   5.135   8.752   0.650 -0.1372  0.0917 -0.3549
    1W        W55851   9.638   4.099   0.776  0.1316  0.2619 -0.0541
    1W        W55852   3.146  20.036   0.249  0.1251  0.1113 -0.1300
    1W        W55853   9.720  12.243   1.881  0.2072 -0.2165  0.1870
    1W        W55854  21.555  17.379   7.851 -0.1480 -0.0760 -0.0024
    1W        W55855  16.106  10.989   7.560  0.3966 -0.1841 -0.3970
    1W        W55856   2.934   9.459   7.639 -0.0124 -0.3683 -0.3764
    1W        W55857   9.763  10.872   9.867  0.3322 -0.0758  0.1900
    1W        W55858  15.659  20.494   2.780 -0.2122 -0.1194  0.0712
    1W        W55859  17.877   1.723   0.559  0.2551 -0.0937  0.1463
    1W        W55860   0.221  17.479   7.698  0.2579 -0.0543 -0.1969
    1W        W55861  20.010  12.026   9.317  0.0737 -0.2127 -0.1890
    1W        W55862   6.233  11.818   1.935  0.0687 -0.4342 -0.1561
    1W        W55863   3.196  16.604   7.554  0.2923 -0.0018  0.0578
    1W        W55864  10.025  13.730   1.020 -0.2305 -0.0760 -0.2180
    1W        W55865  24.367  12.646   1.990 -0.1370  0.0960 -0.3007
    1W        W55866  15.147  12.229   8.377  0.2148 -0.2620 -0.1956
    1W        W55867  27.218  23.788   8.639  0.1550  0.2201  0.2718
    1W        W55868  23.338   7.257   8.978  0.0297  0.0469 -0.0973
    1W        W55869  19.921  20.899   3.045  0.1068  0.3884  0.4519
    1W        W55870  16.097  26.961   1.544 -0.1940 -0.1856  0.3327
    1W        W55871  13.728  27.863  10.213 -0.1892  0.0125  0.2850
    1W        W55872  20.193  12.853   2.045 -0.2692  0.2424 -0.1352
    1W        W55873  11.757  18.671   0.600 -0.1172  0.2288 -0.2019
    1W        W55874   2.590   7.107   7.869  0.0318 -0.0616  0.2177
    1W        W55875  22.569   4.913   1.948 -0.1450  0.3268  0.0981
    1W        W55876   8.773   5.017   1.482 -0.0265  0.2897 -0.0110
    1W        W55877  12.614   4.939   1.784 -0.1082  0.0137 -0.1600
    1W        W55878   5.217  23.722   9.250  0.0152 -0.4229 -0.0840
    1W        W55879  25.239   4.409   0.206  0.2453 -0.2378 -0.0775
    1W        W55880  26.744   3.270   8.438 -0.0598 -0.1761 -0.0335
    1W        W55881  12.647  20.282   8.418 -0.1172  0.2303 -0.3989
    1W        W55882   8.980  12.784   7.515 -0.1768 -0.0976  0.2510
    1W        W55883  13.973  12.880   0.551 -0.1378  0.4068 -0.1370
    1W        W55884  14.396   4.542   0.717 -0.0595 -0.0646  0.3708
    1W        W55885   1.346  10.421   9.156  0.0586  0.1132 -0.1487
    1W        W55886  22.652  20.685   0.199  0.2033  0.0866 -0.0349
    1W        W55887  13.991  15.982   0.693  0.0918 -0.2009  0.2341
    1W        W55888  10.478   3.296  10.117  0.1222  0.0400  0.1510
    1W        W55889  17.121  11.301   9.302  0.2112 -0.1262 -0.0728
    1W        W55890  12.838  19.107   8.299 -0.0756  0.1245 -0.1188
    1W        W55891  27.556   4.988  10.025  0.0933  0.0245 -0.0886
    1W        W55892   7.311  12.721   0.166 -0.1476  0.3217 -0.0593
    1W        W55893   7.064   1.245   7.313  0.3444  0.1591  0.2775
    1W        W55894   1.857  20.029   1.069  0.0692  0.0648  0.0684
    1W        W55895  23.543   7.124   7.299  0.2907  0.2619 -0.1049
    1W        W55896   6.819   0.890   8.271 -0.3211  0.2893  0.3011
    1W        W55897  13.950  14.853   9.027 -0.5471  0.3700 -0.0674
    1W        W55898  14.089  25.243   0.138  0.0815  0.0109  0.0679
    1W        W55899   0.870   9.368   1.810  0.0451 -0.1473 -0.1978
    1W        W55900   9.662  17.582   9.242 -0.0797 -0.2473 -0.1268
    1W        W55901  18.593  26.202   7.308 -0.2006 -0.2262 -0.1255
    1W        W55902  22.791  16.309   8.158 -0.1741 -0.0601  0.0981
    1W        W55903  15.994  25.167   7.463  0.1318 -0.2724 -0.0789
    1W        W55904   3.988   5.714   9.649 -0.2692 -0.0456 -0.2023
    1W        W55905   5.375   2.547   7.555  0.2635  0.0405 -0.0799
    1W        W55906  25.739  26.395   1.016 -0.0234 -0.1801 -0.0077
    1W        W55907  27.184  11.982   7.188 -0.0124  0.2785  0.4511
    1W        W55908  22.994  22.292   7.727  0.3753  0.0143 -0.2750
    1W        W55909  10.520   2.391   9.952  0.0793 -0.1282 -0.1944
    1W        W55910  11.182   4.653   2.721 -0.0233  0.1335  0.1020
    1W        W55911   3.276   8.060   7.748 -0.0031  0.0400 -0.0340
    1W        W55912   4.615  18.199   2.854  0.3916  0.4816 -0.0415
    1W        W55913  13.327  15.573   2.317  0.3136  0.2525  0.0017
    1W        W55914   0.865   9.923   7.531 -0.2099 -0.0535  0.1333
    1W        W55915   9.516  24.712   1.239 -0.0983 -0.1575 -0.1613
    1W        W55916  13.877   8.799   7.438 -0.0637  0.0059  0.0476
    1W        W55917  14.337   7.570   8.707  0.0854 -0.1044 -0.1231
    1W        W55918  17.781   4.700   3.000  0.0321 -0.1635  0.1440
    1W        W55919  13.090  16.949  10.098 -0.0467 -0.0201 -0.0499
    1W        W55920   3.388  14.384   7.420 -0.0871 -0.0084 -0.0209
    1W        W55921  26.797  13.696   7.076 -0.0635 -0.2933  0.0980
    1W        W55922  21.661   9.718   0.789  0.0827  0.0878  0.0821
    1W        W55923  16.992   7.468   7.678  0.2120 -0.1085 -0.0029
    1W        W55924   4.090  22.798   1.116 -0.0591 -0.1259 -0.2327
    1W        W55925  11.563   4.966   2.776 -0.0172  0.1691  0.0915
    1W        W55926  11.954  20.137   8.128 -0.2441  0.0629  0.1101
    1W        W55927  23.299  16.285   0.308  0.0398 -0.0380 -0.0075
    1W        W55928  13.197  10.388  10.191  0.0321  0.1080  0.1632
    1W        W55929  20.461  22.050   1.624  0.4339 -0.0234 -0.0441
    1W        W55930   9.709  25.557   7.763  0.1586  0.0305  0.0179
    1W        W55931  12.310  12.114   3.364  0.2539  0.1199  0.0359
    1W        W55932  20.861  26.626   8.504  0.0375  0.1789 -0.1310
    1W        W55933  19.382  27.503   1.339 -0.1015 -0.0555 -0.0493
    1W        W55934  14.144  21.064   1.470 -0.3220  0.0149  0.2224
    1W        W55935   1.554  10.354   8.147 -0.2458  0.1822 -0.1151
    1W        W55936   2.881  16.796   1.991  0.0977  0.1509 -0.1184
    1W        W55937   0.013  21.283   6.779 -0.0628 -0.0264 -0.1456
    1W        W55938  26.679  15.010  10.308 -0.1292 -0.0447 -0.2836
    1W        W55939   4.091   2.817  10.304  0.2331  0.2296 -0.3851
    1W        W55940  16.357  19.863   2.624 -0.1016 -0.1133  0.2226
    1W        W55941   0.197  22.869   1.680  0.2810  0.0442 -0.2275
    1W        W55942  19.711  16.415   2.176 -0.0615  0.1221 -0.0127
    1W        W55943   4.769  10.050   2.482  0.0776 -0.2604  0.0615
    1W        W55944   9.612   1.713   8.067 -0.1742 -0.1279 -0.1248
    1W        W55945  12.146   0.526  10.101 -0.1517  0.1789  0.1187
    1W        W55946   2.631   9.373   8.364 -0.0208 -0.0909  0.0542
    1W        W55947  14.296  11.619   3.301  0.0690  0.1322 -0.0480
    1W        W55948  12.127  25.606   3.153 -0.1364  0.3770  0.2750
    1W        W55949  19.808  20.646   1.243  0.1921  0.0273 -0.1110
    1W        W55950  23.989  19.302   9.650  0.3843 -0.1154  0.0166
    1W        W55951  11.114  25.488   9.229  0.0423 -0.0617 -0.0259
    1W        W55952   3.240  11.527   6.663  0.0637  0.3126  0.1123
    1W        W55953  19.425  23.829   0.900  0.2200  0.3025 -0.1749
    1W        W55954   7.921  15.179   0.940  0.0476 -0.0324  0.2876
    1W        W55955   1.918   1.427   9.702 -0.0490 -0.0643 -0.0609
    1W        W55956   1.263  11.111   8.462  0.2409 -0.0049 -0.0250
    1W        W55957   8.813   3.728   9.714  0.1225 -0.1593 -0.0350
    1W        W55958  24.712  19.669   8.984 -0.1945  0.4305  0.1714
    1W        W55959  13.203   1.001   3.138  0.0490  0.0126  0.1129
    1W        W55960  12.647  22.663   2.835  0.0234  0.1097 -0.1344
    1W        W55961  23.311   3.301   8.883  0.0878 -0.2224 -0.2896
    1W        W55962   9.420   6.532   9.075  0.1838 -0.0308 -0.0672
    1W        W55963   2.551   6.231   9.841 -0.0920  0.0409 -0.0113
    1W        W55964  21.858   1.029   2.223 -0.0991 -0.1972 -0.1322
    1W        W55965   6.859  23.953   2.130 -0.0597 -0.2862  0.0198
    1W        W55966   4.182   2.819   7.661  0.1145  0.0606 -0.0596
    1W        W55967  16.142  23.297   6.716  0.3828  0.1539  0.0276
    1W        W55968   0.297  27.666   0.834  0.1874 -0.0713 -0.0394
    1W        W55969  21.924  23.475   1.918  0.2793  0.0491  0.0968
    1W        W55970  13.018   8.412   7.671  0.0852  0.2261  0.0724
    1W        W55971  22.909  10.545   1.479 -0.1123  0.1493 -0.0855
    1W        W55972  11.403   0.649   6.885  0.1841 -0.1601 -0.0006
    1W        W55973  10.327  25.635   1.414 -0.0379 -0.1490  0.3607
    1W        W55974   3.144   8.551   7.620  0.1277  0.2359 -0.0857
    1W        W55975   4.457  13.812   1.616 -0.0819  0.1038  0.1260
    1W        W55976  14.032  26.315  10.027 -0.2584  0.2822  0.0031
    1W        W55977  21.941   6.359   1.442  0.0456  0.1309 -0.0923
    1W        W55978  27.838  10.362   6.411  0.1423 -0.2798  0.0207
    1W        W55979   6.462   9.238   8.246 -0.2278 -0.0069  0.1157
    1W        W55980   9.993  15.374   7.826  0.1251 -0.1036  0.2475
    1W        W55981  19.956  16.973   3.243 -0.3703  0.0671  0.0931
    1W        W55982   5.304  11.714   1.632  0.3090 -0.3326 -0.0987
    1W        W55983   4.785  13.482   8.645  0.1593 -0.0161 -0.0021
    1W        W55984  13.788   8.406   0.883 -0.1797 -0.0388 -0.0072
    1W        W55985  12.871  21.024   9.872 -0.0959 -0.0586 -0.0025
    1W        W55986  18.807  11.354  10.221  0.0606 -0.0337  0.2552
    1W        W55987  25.922  10.095   2.564 -0.1405 -0.2851 -0.2159
    1W        W55988  21.799  14.681   1.597  0.3494  0.2507 -0.2258
    1W        W55989   6.954   7.179   3.581  0.0285 -0.2645 -0.0742
    1W        W55990  18.629  12.326   3.013  0.2009 -0.3344  0.2987
    1W        W55991   0.372   5.728   7.177  0.2794 -0.1329 -0.2752
    1W        W55992  16.526   8.967  10.277 -0.1162 -0.1072  0.1025
    1W        W55993  10.365  11.460   3.372  0.0863  0.0065  0.2379
    1W        W55994   4.594   5.872   8.863  0.0758  0.3431  0.2925
    1W        W55995  20.311   3.273   6.742 -0.1118  0.1562  0.0272
    1W        W55996   4.992  17.000   8.533 -0.0375 -0.0539 -0.0518
    1W        W55997  24.229   3.496   2.038  0.1198  0.1309 -0.0673
    1W        W55998  10.364   0.859   0.989 -0.1461 -0.0877  0.3687
    1W        W55999  17.217   4.065   3.258  0.1901  0.1523  0.4149
    1W        W56000   9.918  16.845   8.508 -0.1684  0.0757  0.1566
    1W        W56001  21.241  24.889   1.326  0.0317 -0.1529  0.0732
    1W        W56002  23.910  15.679   0.970 -0.2221  0.0844  0.2335
    1W        W56003  27.334  26.023   2.242 -0.0822  0.0092  0.4066
    1W        W56004  17.919  10.005  10.115 -0.1633  0.2213  0.3399
    1W        W56005  17.429   0.567   2.520 -0.0782 -0.2007 -0.1616
    1W        W56006   0.928  21.641   2.260  0.1632  0.2116  0.0243
    1W        W56007  22.575  25.716   1.693  0.1503 -0.0954  0.1148
    1W        W56008   3.951  20.683   7.435  0.3533 -0.4113  0.0722
    1W        W56009  12.053   8.074  10.105  0.1140 -0.2387  0.0784
    1W        W56010  14.608  25.001   2.227  0.0008  0.1490 -0.4324
    1W        W56011  11.961  25.554   2.666 -0.0326 -0.0609  0.1763
    1W        W56012   2.647  13.029   0.623 -0.0217 -0.1952 -0.0365
    1W        W56013  26.831  14.488   0.192  0.2284 -0.1163 -0.0361
    1W        W56014   4.498   5.358   5.697  0.0930  0.0478 -0.0789
    1W        W56015   6.170  13.733   2.240  0.2646  0.0304 -0.2554
    1W        W56016   5.511   7.373   2.037 -0.2306 -0.2567  0.1677
    1W        W56017   6.976   8.609   0.356 -0.4050  0.0581  0.2707
    1W        W56018   4.694  24.762   0.439  0.0603  0.1065  0.0527
    1W        W56019  16.592  23.509   2.696 -0.1053  0.0872 -0.1617
    1W        W56020  27.882   5.669   1.649  0.1392  0.1160  0.1814
    1W        W56021  25.198  25.917   0.679  0.0614 -0.1727 -0.2048
    1W        W56022   4.853  11.185   6.517 -0.0297 -0.1503  0.0577
    1W        W56023   1.987  11.680   1.919  0.0806 -0.0994  0.2615
    1W        W56024   8.296   0.039   0.252 -0.5018 -0.4772  0.2808
    1W        W56025  27.572   4.721   7.535  0.2876 -0.0552  0.3221
    1W        W56026  25.816  16.750   8.819  0.2167 -0.1494 -0.0692
    1W        W56027   7.767  20.152   1.584 -0.1987  0.3259  0.1044
    1W        W56028  24.710   8.572   0.294  0.0149 -0.0155  0.1461
    1W        W56029   8.282  26.270   0.657 -0.0900  0.0595  0.0004
    1W        W56030  15.735   2.764   2.382  0.0214  0.0355  0.2667
    1W        W56031  17.802  19.460   2.193  0.0849 -0.0347  0.0169
    1W        W56032  20.056  12.090   8.126 -0.2624  0.0419 -0.0755
    1W        W56033  13.638  16.517   8.549  0.0775 -0.1067  0.0146
    1W        W56034  22.851  11.168   0.470 -0.2283 -0.2346  0.0733
    1W        W56035  26.177  15.038  10.038  0.0920  0.5362 -0.0636
    1W        W56036  17.242  14.962   0.179  0.0319  0.2138  0.1245
    1W        W56037  16.096   4.205   2.361 -0.0754  0.4654  0.3818
    1W        W56038  23.864  21.802   7.122 -0.0689 -0.1435 -0.3102
    1W        W56039  17.908  11.777   3.999  0.2698  0.0757 -0.0584
    1W        W56040  14.191   7.677   1.816 -0.2611 -0.0746  0.0821
    1W        W56041  19.428   8.373   8.231  0.0249  0.2297 -0.3625
    1W        W56042  14.272   7.003   7.556 -0.1864  0.0460 -0.1624
    1W        W56043  27.879   9.370   8.533  0.1292 -0.0451 -0.0477
    1W        W56044  24.574  25.069   9.272  0.0480  0.0135 -0.1879
    1W        W56045  19.365  15.394   9.208 -0.1118  0.0295 -0.0987
    1W        W56046  26.843   2.826   7.493 -0.1214 -0.0775  0.1491
    1W        W56047  18.308   1.076   7.102 -0.0871 -0.1489 -0.2342
    1W        W56048   8.198   0.375   8.481  0.0958 -0.0631 -0.1141
    1W        W56049  19.336   4.096   7.817 -0.3167  0.4462  0.4772
    1W        W56050  19.232  25.243   6.701  0.3484  0.1333  0.4380
    1W        W56051   4.556  14.876   7.507 -0.0918  0.0456 -0.2903
    1W        W56052   1.324  26.045   7.365 -0.2594  0.0778  0.0647
    1W        W56053  20.639  20.132   8.438  0.0868 -0.1891 -0.3695
    1W        W56054  27.245  27.960   8.260  0.1399 -0.0335 -0.6163
    1W        W56055  20.142  27.149   2.338 -0.1287  0.1521 -0.0023
    1W        W56056  17.134  18.913   1.628 -0.0772  0.0836 -0.1519
    1W        W56057   2.381   7.318   7.022  0.0091  0.2215 -0.1020
    1W        W56058  17.679  26.193   9.621  0.1354 -0.0626  0.2786
    1W        W56059   3.856  16.640   6.718 -0.2638 -0.0771  0.1445
    1W        W56060   8.784   4.121   2.988  0.1679  0.0504  0.0327
    1W        W56061   9.533  19.580   1.242 -0.0255  0.1753 -0.1813
    1W        W56062   1.106  11.183   6.869 -0.1410  0.0605 -0.2046
    1W        W56063  22.115   1.242   1.761 -0.1461  0.0286  0.0662
    1W        W56064  14.823  17.862   8.527 -0.0754  0.0904 -0.1293
    1W        W56065  21.626  11.520   1.604  0.0484  0.1327 -0.0987
    1W        W56066  26.872  21.425   0.822  0.2527  0.1172  0.2728
    1W        W56067   5.442  26.633   9.741  0.0957  0.0653  0.0621
    1W        W56068  13.283   7.006   9.251  0.0685 -0.0919 -0.0701
    1W        W56069  16.101   6.847   2.800  0.3265  0.1194 -0.2001
    1W        W56070  16.636   7.169   3.159  0.0116 -0.1702 -0.0852
    1W        W56071   2.365  23.790   1.793  0.0347  0.2766  0.0149
    1W        W56072   2.701   3.882   6.211  0.4564 -0.3425  0.3250
    1W        W56073  18.267  14.842   1.923  0.1413 -0.0959 -0.0865
    1W        W56074  19.955   2.081   1.346 -0.2104  0.0709  0.1751
    1W        W56075  18.525  21.166   2.670  0.0746  0.0514 -0.4601
    1W        W56076   9.594   6.142  10.127  0.1153 -0.1465  0.1277
    1W        W56077   4.902   8.921  10.015 -0.4360 -0.0777 -0.2717
    1W        W56078   3.966   1.134   0.385  0.2311  0.0267  0.1348
    1W        W56079  21.909  10.116   2.144  0.1811 -0.1485  0.0035
    1W        W56080  26.168  10.582   1.655  0.0964 -0.0992  0.0036
    1W        W56081   8.310   5.582   0.127  0.3907 -0.2837  0.1864
    1W        W56082  24.642  18.235   2.213  0.0038  0.0561 -0.0929
    1W        W56083  26.634   4.305   1.452 -0.3387 -0.0185  0.1689
    1W        W56084  23.895  24.068   2.645 -0.1906  0.0123  0.3007
    1W        W56085  13.509   5.247   2.343 -0.0676 -0.0005  0.1219
    1W        W56086   1.105  12.698   8.656 -0.1226 -0.0769 -0.1223
    1W        W56087  25.361  20.343   0.134 -0.1217 -0.2086  0.1625
    1W        W56088   9.287  11.940   7.022 -0.0556  0.0279 -0.0088
    1W        W56089  16.808   6.519   9.866  0.0890  0.3988 -0.1625
    1W        W56090   9.884  20.457  10.311 -0.1498  0.1487 -0.0135
    1W        W56091  17.171  18.382   8.533  0.1263 -0.0925 -0.0842
    1W        W56092  19.603  14.066   9.498 -0.0210 -0.3465 -0.0555
    1W        W56093   0.577  21.483   9.178 -0.0689  0.1577  0.2140
    1W        W56094  15.868  19.950   2.521  0.0738 -0.0660  0.3531
    1W        W56095  21.421  17.404   4.172 -0.1455 -0.3002 -0.2317
    1W        W56096  26.175   6.365   9.033  0.3224  0.1352  0.2923
    1W        W56097   7.453  10.104   9.939 -0.1932  0.0833 -0.0604
    1W        W56098   6.580  25.057   1.947 -0.1670 -0.2067 -0.2330
    1W        W56099  15.828  12.329   2.247 -0.0393 -0.1338  0.0736
    1W        W56100  15.999  23.364  10.199 -0.2188  0.1393 -0.0023
    1W        W56101  13.490  16.259   2.767 -0.2868  0.0807 -0.1700
    1W        W56102   9.444  23.384   0.582  0.0367 -0.0511  0.0964
    1W        W56103   3.648  20.106   2.731  0.1188  0.1171 -0.0057
    1W        W56104  21.780  16.183   8.039  0.2795  0.1192  0.1815
    1W        W56105  20.975   0.770   0.783 -0.1521 -0.1166 -0.1154
    1W        W56106  14.143  23.027   1.778 -0.1441  0.2918  0.0328
    1W        W56107  26.485  11.437   1.744  0.0418  0.4891  0.2368
    1W        W56108  13.919   5.393   9.901 -0.0444 -0.2805  0.1991
    1W        W56109   0.824  13.233   7.878  0.0198 -0.4170  0.2101
    1W        W56110  14.914   0.871   7.356 -0.1319 -0.3164 -0.0435
    1W        W56111  25.437  23.751   2.453 -0.0238 -0.0595  0.0341
    1W        W56112  26.902   1.614   6.589 -0.0956 -0.3010 -0.1576
    1W        W56113  19.506   8.191   8.821 -0.1056  0.1116  0.0263
    1W        W56114  21.527   7.500   0.492  0.0125  0.2512 -0.0124
    1W        W56115   1.054   4.832   6.830 -0.0672  0.1245 -0.0500
    1W        W56116  17.455  12.665   7.392  0.1291  0.0383 -0.0012
    1W        W56117   7.189   0.663   1.171  0.0771  0.0175  0.2847
    1W        W56118  24.355  14.445   9.230  0.3874 -0.1461 -0.0635
    1W        W56119   5.459  12.185   1.838 -0.0133  0.1881 -0.0036
    1W        W56120   4.619  11.213   8.441  0.2568  0.0006 -0.1015
    1W        W56121  14.959  17.551   8.107  0.0726  0.1445  0.0971
    1W        W56122   6.369  15.294   3.123  0.3181 -0.0526  0.2160
    1W        W56123  12.108  23.229   8.326  0.0955 -0.1703 -0.0811
    1W        W56124  10.198  22.817   9.884  0.0860  0.2488  0.3223
    1W        W56125  14.371  20.445   9.852 -0.2350 -0.0499  0.3624
    1W        W56126   7.803   9.874   2.519  0.0432  0.1204  0.0882
    1W        W56127   4.060  26.896   2.768 -0.1681 -0.2044 -0.0242
    1W        W56128   8.990   6.573   9.845  0.1689  0.3383 -0.0991
    1W        W56129   1.113   1.732   8.671  0.2816 -0.4616  0.1802
    1W        W56130   2.377   5.303   1.219  0.0457 -0.1888 -0.0523
    1W        W56131  10.426  16.641   9.870 -0.2426  0.2754  0.0480
    1W        W56132  25.396   4.283   1.261  0.1142 -0.0537 -0.2764
    1W        W56133  24.219   6.090   2.207 -0.1890 -0.3020 -0.0908
    1W        W56134  11.046   1.859   8.431  0.3160  0.1316  0.0057
    1W        W56135  21.413   3.985   9.062 -0.0535  0.1022 -0.3144
    1W        W56136   1.908   8.693  10.144 -0.1179  0.0735 -0.1149
    1W        W56137  16.835  25.977   8.893 -0.0770  0.0748  0.3469
    1W        W56138   8.852  25.799   1.907 -0.0235  0.1257  0.1355
    1W        W56139   6.706  18.144   0.817 -0.0065 -0.0037  0.0650
    1W        W56140  20.372  18.551   3.025 -0.1148 -0.2822 -0.0288
    1W        W56141  19.522  10.649   0.494  0.1603 -0.0366 -0.1098
    1W        W56142  23.986  25.688   8.859 -0.1751 -0.2430  0.0935
    1W        W56143   2.151  13.070   7.271  0.0529  0.0229  0.2443
    1W        W56144   1.711   7.514   0.493  0.0276 -0.0485  0.3542
    1W        W56145  13.176  20.254   9.247 -0.0145  0.0364  0.0691
    1W        W56146  14.228  24.733   2.544 -0.2881  0.2938  0.1065
    1W        W56147  13.927  24.175   8.739 -0.1958  0.2263  0.0624
    1W        W56148  18.300  11.321   9.287 -0.0558 -0.1074  0.0944
    1W        W56149   0.153   5.055   7.010 -0.0300  0.1088  0.3328
    1W        W56150  19.881  12.989   2.477 -0.1484  0.0467  0.2678
    1W        W56151   1.708  22.180   2.264  0.0024  0.1356 -0.1508
    1W        W56152  20.542   7.329   7.123  0.4208 -0.2702 -0.1695
    1W        W56153   8.261  11.393   7.900  0.1277  0.1512  0.0260
    1W        W56154   7.680   3.248  10.301 -0.0294  0.1183  0.1513
    1W        W56155  24.072  26.748   2.717  0.2040  0.2015  0.2966
    1W        W56156   4.745   3.077   2.646  0.1701 -0.1804  0.2957
    1W        W56157   8.558  20.458   9.727  0.1049  0.0348 -0.0642
    1W        W56158   0.692  15.070   1.295  0.1576  0.0098  0.0118
    1W        W56159  11.639  14.611   2.581 -0.0878  0.0979 -0.1307
    1W        W56160  19.804   0.627   0.240 -0.1804 -0.2011 -0.2220
    1W        W56161  19.419  19.943   0.136  0.3081  0.0178 -0.1411
    1W        W56162   4.178  16.022   9.459  0.1316 -0.1622  0.1637
    1W        W56163  25.312   1.657   3.491  0.1573  0.1067 -0.1306
    1W        W56164   5.971  21.061   8.746  0.0166  0.0222 -0.1974
    1W        W56165  12.628  19.192   9.418  0.1261 -0.4250  0.2406
    1W        W56166  19.938  24.972   7.468 -0.1257  0.0461  0.2819
    1W        W56167   3.724   4.908   9.125  0.1297  0.1545  0.1467
    1W        W56168  19.982   6.416   2.050 -0.3263 -0.6480 -0.0493
    1W        W56169  21.768  22.199   1.266  0.0184  0.0820  0.2921
    1W        W56170   0.417  18.111  10.026  0.3352 -0.2994  0.2565
    1W        W56171   3.753  25.799   0.265  0.0966 -0.0360 -0.1519
    1W        W56172  20.255  18.628   2.359 -0.3445 -0.2000 -0.4627
    1W        W56173  19.966  18.261   0.770  0.1015  0.0202 -0.0986
    1W        W56174  25.743  25.327   8.392  0.2842 -0.0503 -0.0824
    1W        W56175  22.424  15.383   0.560  0.0269 -0.2343  0.0598
    1W        W56176  12.448  26.191   6.494  0.0274 -0.3624  0.3270
    1W        W56177  17.572   3.221  10.187  0.0109  0.0412  0.1672
    1W        W56178  13.453  14.679   3.952  0.0947  0.1001 -0.1710
    1W        W56179  15.108   4.499   1.411 -0.1614 -0.0933 -0.0665
    1W        W56180  16.051  11.644   2.496 -0.1115  0.0362  0.0757
    1W        W56181   0.172  20.456   8.425  0.0071 -0.0361  0.1995
    1W        W56182  28.008  16.935   7.578  0.1764 -0.0341 -0.0563
    1W        W56183  12.910   4.825   3.564 -0.0779 -0.0817  0.2176
    1W        W56184   2.638  11.143   3.485 -0.1040 -0.1558  0.2124
    1W        W56185   2.019   9.547   6.681  0.2224 -0.0972 -0.3002
    1W        W56186  12.392  12.267   1.394 -0.1797  0.0305  0.1766
    1W        W56187  24.412  18.021   9.283 -0.3893 -0.0280  0.2643
    1W        W56188  13.935  15.015  10.035 -0.1582  0.1872  0.1097
    1W        W56189   5.433  15.074   8.824 -0.1103  0.0507 -0.0815
    1W        W56190  17.543  26.779   7.603  0.3403  0.1833  0.0205
    1W        W56191  21.347  18.150   9.056 -0.1027  0.0364  0.1673
    1W        W56192  27.251  23.216   2.518  0.2705  0.0233  0.0846
    1W        W56193  16.158   7.870   3.318 -0.1707 -0.0894  0.1194
    1W        W56194  15.179  14.621   0.355  0.0453 -0.1757 -0.0044
    1W        W56195   4.913  22.120   1.266 -0.2385  0.3660  0.2370
    1W        W56196   4.685   1.431   7.706 -0.1409  0.1363  0.0688
    1W        W56197   1.033  19.643   9.799 -0.2101 -0.1751  0.0018
    1W        W56198  11.904  19.829   9.617  0.2156 -0.0140 -0.1418
    1W        W56199  15.813  17.026   1.322  0.0149  0.2618  0.1114
    1W        W56200   1.603   1.225   7.081  0.3496 -0.2149 -0.1287
    1W        W56201  15.087   7.345   8.400 -0.1254  0.3159 -0.1044
    1W        W56202  20.822   2.057   7.965 -0.1150 -0.0506  0.0477
    1W        W56203  15.678  20.850   0.057  0.1179 -0.2347 -0.0169
    1W        W56204   8.543  12.174   9.596 -0.1474 -0.0999 -0.5258
    1W        W56205  21.060   7.170   6.923 -0.0098  0.0855 -0.1896
    1W        W56206  16.743  13.037   8.120  0.2823 -0.1672 -0.0396
    1W        W56207   0.300  10.124   1.133 -0.0758  0.0803 -0.0534
    1W        W56208  12.438  27.008   1.467 -0.2430  0.1408 -0.1325
    1W        W56209  24.454  23.447   3.224  0.0076 -0.0743 -0.0002
    1W        W56210   5.202   3.979   2.083  0.0375  0.0178  0.0740
    1W        W56211  17.503   3.640   7.776  0.2659  0.1512 -0.3275
    1W        W56212   9.867   4.120   0.286 -0.1401 -0.2391 -0.0831
    1W        W56213  18.559   7.546   2.046  0.2328 -0.2708  0.0815
    1W        W56214  21.933  13.032   1.619  0.0661 -0.1679 -0.0918
    1W        W56215   0.145  13.460   8.457  0.2983 -0.1744  0.0631
    1W        W56216  15.989  23.172   1.127  0.0896 -0.1989 -0.0179
    1W        W56217  18.267   1.730   1.481 -0.0660  0.0475 -0.2076
    1W        W56218  10.519  12.259   0.677  0.1930  0.1764  0.1894
    1W        W56219   3.992  18.913  10.235  0.2358 -0.2706  0.0223
    1W        W56220  14.770  20.066   9.918 -0.2189 -0.0017 -0.2482
    1W        W56221  18.052   1.313   2.433 -0.0189 -0.2458  0.0058
    1W        W56222   5.208  20.072   9.092  0.0951  0.1817  0.2579
    1W        W56223   7.054   3.150   8.053  0.1852 -0.0600 -0.2539
    1W        W56224   6.565   8.100   6.549  0.0522 -0.1374 -0.0116
    1W        W56225  21.723  11.367   8.654 -0.0813 -0.0729  0.0084
    1W        W56226   9.098  19.688   0.418  0.4077 -0.3638 -0.1174
    1W        W56227  16.609  13.489   9.577 -0.0650 -0.0519  0.3152
    1W        W56228   3.903  12.835   6.563 -0.0372 -0.1666 -0.1656
    1W        W56229   0.976   7.271   0.057  0.0165 -0.2660 -0.1123
    1W        W56230  18.033  18.419   7.784 -0.1749 -0.1086 -0.3010
    1W        W56231  19.021   2.407   1.241  0.1121  0.0058  0.2059
    1W        W56232  21.356  27.878   1.823  0.2428  0.3041 -0.2183
    1W        W56233   9.887  12.490   2.266 -0.0913  0.2549 -0.2029
    1W        W56234  21.720  27.380   9.967 -0.0387  0.3105  0.1992
    1W        W56235  20.037   0.266   9.640  0.0440  0.0845  0.0733
    1W        W56236  20.379   0.842   9.029 -0.2872 -0.0368  0.1527
    1W        W56237  10.139  12.901   0.962  0.2143  0.0191  0.1237
    1W        W56238   1.405   4.160   7.603  0.0076 -0.3177  0.4167
    1W        W56239  16.940  17.231   3.169 -0.1173  0.2426 -0.0066
    1W        W56240   7.335  14.637   9.470 -0.1597 -0.3154  0.1723
    1W        W56241  23.536  21.389   0.948  0.4334  0.0948 -0.0643
    1W        W56242   3.235   6.229   0.416  0.0077 -0.0370 -0.3909
    1W        W56243  12.409   1.022  10.041 -0.3411 -0.1021 -0.1204
    1W        W56244  22.959  25.893   1.261  0.1780  0.0706  0.3641
    1W        W56245  17.428   7.349   2.924  0.1771 -0.0381 -0.2886
    1W        W56246  20.589   9.584   0.031  0.3302 -0.0304 -0.0900
    1W        W56247   1.072   6.065   6.982  0.1766  0.2617 -0.0438
    1W        W56248  20.745  25.742   8.023  0.3220 -0.1171  0.2145
    1W        W56249  17.640   6.374   8.727  0.0379  0.0403  0.1985
    1W        W56250  24.443   8.561   9.124  0.2153 -0.0093  0.1408
    1W        W56251  12.735   5.695   2.511 -0.2427 -0.0472 -0.0593
    1W        W56252  11.856  24.525   7.695 -0.0719  0.0206  0.0924
    1W        W56253   3.044  21.163   8.970 -0.1266 -0.0780 -0.2966
    1W        W56254  19.744  20.368   8.180  0.1222  0.1812 -0.0434
    1W        W56255  25.390  23.303   7.676  0.1060  0.1714 -0.0022
    1W        W56256   9.637  27.335   1.379 -0.0207  0.0331 -0.2560
    1W        W56257  14.709  16.580   0.425  0.0886  0.1928 -0.1364
    1W        W56258  14.192   3.636   0.475  0.2750  0.3662  0.0831
    1W        W56259  27.210  26.289   7.716  0.0315 -0.1852 -0.0860
    1W        W56260  10.101   8.811   9.301  0.2213  0.1715 -0.0658
    1W        W56261  24.079   3.141   7.829 -0.2047  0.1217  0.0951
    1W        W56262   5.003   0.509   9.447 -0.0533  0.2454  0.0272
    1W        W56263   9.802  15.342   0.711  0.2886  0.0784  0.0728
    1W        W56264  12.358  19.410   2.473  0.1668  0.2561  0.3161
    1W        W56265  26.572   8.170   8.922  0.1453  0.2898 -0.0125
    1W        W56266  13.326  14.070   0.047  0.0514 -0.2209  0.1136
    1W        W56267   0.614  21.720   7.685 -0.0688  0.2288 -0.1251
    1W        W56268   6.139  10.121   9.595  0.0242 -0.4687 -0.0071
    1W        W56269   6.316   0.168   0.288 -0.2918  0.0006  0.1032
    1W        W56270   8.066   5.114  10.243 -0.1225  0.1551 -0.2320
    1W        W56271   9.702  10.930   1.776  0.0849  0.0257  0.0888
    1W        W56272  20.775  27.250   2.690  0.0335  0.0821  0.1600
    1W        W56273  26.267   1.204   8.624 -0.0899 -0.1876 -0.1513
    1W        W56274  23.719   9.438   2.032  0.1453  0.2518  0.0564
    1W        W56275   5.390  12.914  10.136 -0.1591 -0.2113  0.0871
    1W        W56276   2.635  27.472   0.462  0.0216 -0.0542 -0.1946
    1W        W56277  12.448  25.948   6.999  0.3390  0.1194  0.0810
    1W        W56278  19.013  12.979   2.623  0.1176 -0.1360  0.1533
    1W        W56279   8.177  26.590   7.597  0.1810 -0.4301  0.0745
    1W        W56280  25.272  25.881   2.485  0.2683  0.2836 -0.1568
    1W        W56281  18.911  20.868   1.126  0.1604 -0.0794  0.0568
    1W        W56282  12.711  23.777  10.067  0.1623 -0.0680  0.2215
    1W        W56283  13.194  22.045   1.740  0.0109 -0.2437 -0.0090
    1W        W56284  19.341  18.783   9.191  0.3170  0.0155 -0.2976
    1W        W56285   4.989  15.373   9.139 -0.2156 -0.1405  0.4360
    1W        W56286   6.989   5.183   1.947  0.1179 -0.0657 -0.1259
    1W        W56287  24.395  10.344   1.431  0.1091 -0.1478  0.0231
    1W        W56288  12.909  14.938   3.091  0.0571 -0.1521 -0.1721
    1W        W56289  26.596   0.461   0.267 -0.1176  0.3749  0.0260
    1W        W56290  24.105  27.300   2.083  0.2405 -0.0944 -0.0503
    1W        W56291  21.712  15.350   0.983  0.1101  0.3932  0.1798
    1W        W56292  17.986  19.346   1.736 -0.1312  0.0612 -0.0693
    1W        W56293  24.520  13.914   7.821 -0.2705  0.1744 -0.2827
    1W        W56294  26.089  17.289   7.222  0.0257  0.0728  0.1405
    1W        W56295  21.013  16.585   1.464 -0.0347 -0.0829 -0.0539
    1W        W56296  13.545  23.380   8.651  0.3548 -0.2558 -0.4850
    1W        W56297  13.718   0.543   0.282 -0.0232  0.0726  0.3492
    1W        W56298  25.781   2.362   8.329 -0.0375 -0.1441 -0.1266
    1W        W56299  21.113  11.575   7.771  0.0350  0.3320  0.2580
    1W        W56300   8.359  20.369   8.788 -0.0511  0.1480  0.3611
    1W        W56301   1.352   8.655   1.373 -0.0746 -0.4071 -0.0709
    1W        W56302   3.415   1.475   6.508  0.0929  0.0339  0.0203
    1W        W56303  26.691   1.682   8.855  0.0882  0.2828 -0.0160
    1W        W56304  21.403   3.911   7.038  0.0751 -0.1273 -0.0986
    1W        W56305   5.656   2.588   9.198  0.0860 -0.2920 -0.1364
    1W        W56306   2.236  24.921   7.472  0.0737  0.3163  0.3010
    1W        W56307  24.128  12.040   9.341  0.0711  0.0041 -0.1548
    1W        W56308  23.666  11.414   8.285  0.0779 -0.1158 -0.1828
    1W        W56309  22.459  18.514   2.619  0.2627 -0.2617 -0.0477
    1W        W56310  18.906  12.165   9.618 -0.2093  0.0445  0.3054
    1W        W56311  13.464  12.287   1.671 -0.1658  0.1754 -0.1237
    1W        W56312  25.265  23.756   0.620 -0.1098 -0.0280 -0.2031
    1W        W56313   5.181  16.256   0.097  0.1490  0.2154  0.1579
    1W        W56314   0.592   2.690   0.080  0.2446 -0.2721 -0.2088
    1W        W56315  16.110  16.264   2.521 -0.0631  0.2152 -0.2262
    1W        W56316   5.805  23.294   8.734 -0.0058  0.1817 -0.0514
    1W        W56317  10.893   1.531   1.856  0.2228 -0.0592  0.2274
    1W        W56318   1.201  20.200   8.984  0.0184  0.0639  0.1893
    1W        W56319   4.425  11.697   9.368 -0.2751  0.1062  0.1742
    1W        W56320   6.999   9.136   6.396  0.1499 -0.0629  0.0442
    1W        W56321   6.251   9.997   7.681 -0.0247 -0.3221  0.1095
    1W        W56322  12.697  17.813   1.878  0.1536  0.0967 -0.2857
    1W        W56323  27.240  19.797   0.174 -0.0253  0.0132 -0.3321
    1W        W56324   1.570   4.382   0.628  0.0714  0.2396 -0.2513
    1W        W56325  23.289  17.418   3.945 -0.2344 -0.1501 -0.0132
    1W        W56326  24.645  16.149   3.278  0.0123 -0.1334  0.0086
    1W        W56327  15.222   1.365   0.226 -0.0575  0.1720  0.1696
    1W        W56328   5.928  17.176   4.208 -0.1305 -0.0530 -0.2745
    1W        W56329  25.966  13.589   9.633 -0.0198 -0.0660  0.2860
    1W        W56330   3.325  13.403   2.231  0.1140  0.2173 -0.1963
    1W        W56331  14.238  20.036   2.471 -0.1468 -0.0850 -0.3142
    1W        W56332   9.128   4.945   1.018 -0.0283  0.1545 -0.1359
    1W        W56333  15.864  14.728   0.809 -0.0296 -0.1461 -0.1591
    1W        W56334   6.911   4.994   1.478  0.1531 -0.0074 -0.2448
    1W        W56335   9.993   7.239   0.769  0.0667 -0.1633  0.1604
    1W        W56336  20.247  13.860   2.217  0.2748  0.1214  0.0798
    1W        W56337  24.936  22.566   2.108  0.0775  0.2584 -0.0257
    1W        W56338   9.361   5.010   8.327 -0.2644 -0.0836 -0.1375
    1W        W56339   3.432  22.537   8.007 -0.0995 -0.0777 -0.1720
    1W        W56340  20.727  22.979   1.444  0.0839 -0.1917 -0.1201
    1W        W56341  28.028   6.251   8.512  0.0607  0.1409  0.0974
    1W        W56342   3.220  16.512   6.725 -0.0908 -0.1747  0.0631
    1W        W56343   8.636   3.385   6.953 -0.0284 -0.2114  0.2015
    1W        W56344  20.321  12.895   7.681  0.1864 -0.3867  0.0680
    1W        W56345  18.380  27.734   3.127  0.4017  0.0659 -0.4617
    1W        W56346  13.539  24.070   9.060  0.0369 -0.4001  0.3027
    1W        W56347   5.348  23.866   0.239 -0.0571  0.2668 -0.1963
    1W        W56348   8.824  10.750   9.880 -0.1123 -0.1936 -0.0395
    1W        W56349   7.049   6.070   0.127  0.0193  0.0563  0.2376
    1W        W56350  21.437  16.546   3.179  0.0583  0.0718  0.4907
    1W        W56351   5.215  11.263   9.658  0.2114  0.4204 -0.2457
    1W        W56352  20.617   9.024   2.931 -0.0658 -0.0022  0.0747
    1W        W56353   6.814   0.880   0.877 -0.1655  0.1317 -0.1885
    1W        W56354  11.650   9.005   1.740  0.0751  0.0891  0.2450
    1W        W56355  23.798   3.190   2.222  0.1881  0.1388 -0.1231
    1W        W56356  19.517  26.950   0.588  0.1178  0.0546 -0.0160
    1W        W56357  17.400   1.362   3.121 -0.0320  0.1023 -0.1069
    1W        W56358   4.131   3.318   7.500 -0.0576  0.3829  0.1927
    1W        W56359  22.133  10.982   7.837  0.1125 -0.0320  0.2708
    1W        W56360  24.653  20.853   8.150  0.3132 -0.1510 -0.2186
    1W        W56361  15.209   8.150   8.769  0.1747 -0.1209  0.0672
    1W        W56362   7.760  26.515   6.907 -0.0816  0.0623 -0.0641
    1W        W56363  18.388   7.014   0.668  0.1270  0.1584 -0.1079
    1W        W56364  15.998  15.594   0.640  0.0366 -0.3067  0.1700
    1W        W56365  27.125  17.323   7.632 -0.0382 -0.0435 -0.1296
    1W        W56366  23.242  12.710   8.479 -0.1826 -0.2167 -0.1919
    1W        W56367  10.533  26.096   8.044 -0.2768 -0.2063  0.1531
    1W        W56368  22.663  12.331   0.334  0.1952  0.2488  0.0793
    1W        W56369   7.066   5.416   7.901 -0.2483  0.2077  0.0904
    1W        W56370  13.637   7.479   9.033 -0.1721  0.0355  0.0675
    1W        W56371   8.745  14.207   8.404 -0.2296  0.0978  0.2719
    1W        W56372  17.696  11.782   7.997 -0.0297 -0.0633 -0.0402
    1W        W56373  14.266  26.155   3.373  0.3218  0.1231  0.2765
    1W        W56374   6.362  20.307   0.619 -0.0638  0.0399  0.4233
    1W        W56375   4.186   9.199   2.419  0.0631  0.1122  0.1242
    1W        W56376  27.123   5.441   8.889 -0.0773  0.4001 -0.1131
    1W        W56377   0.450   6.654   1.704 -0.3291 -0.1167 -0.2799
    1W        W56378  13.869  10.112   0.734 -0.2699  0.3071  0.1860
    1W        W56379  21.263   4.950   2.397  0.2651 -0.2204 -0.1569
    1W        W56380  18.775  15.658   9.310  0.1248 -0.1021 -0.2808
    1W        W56381  27.552   3.338   3.155  0.0736  0.0828  0.0483
    1W        W56382  21.009   5.442   8.340  0.0579 -0.1868  0.0667
    1W        W56383  26.978   8.955   0.795  0.1035 -0.5758  0.4546
    1W        W56384  16.234  26.747   0.933  0.0347  0.0891 -0.0378
    1W        W56385  14.543  20.966   8.133 -0.1572  0.0730 -0.1296
    1W        W56386  12.317  19.263   3.373  0.1485  0.1058  0.1157
    1W        W56387  26.869  16.890   7.367 -0.1338 -0.0624 -0.2405
    1W        W56388  20.603   4.574   9.296 -0.0577  0.1431  0.0402
    1W        W56389  11.159   2.806   1.775 -0.1876 -0.1531  0.2498
    1W        W56390   2.379   8.221   2.270 -0.1447  0.1465  0.2686
    1W        W56391  13.685  12.146   1.035  0.3457  0.1047 -0.0644
    1W        W56392  15.113  11.995   3.994  0.1015  0.0737 -0.2376
    1W        W56393  12.067   9.185   2.050  0.2010 -0.0347  0.0017
    1W        W56394  19.081  24.636   2.820  0.0731  0.1257  0.2910
    1W        W56395   4.301   7.856   1.870  0.0324  0.1196  0.3896
    1W        W56396   7.539  16.450   0.926  0.1434 -0.0919 -0.0261
    1W        W56397  20.622   9.551   2.988  0.1761 -0.0053 -0.0518
    1W        W56398  12.701  13.517   9.689  0.0606 -0.0090 -0.1177
    1W        W56399  18.218  10.836   9.870 -0.0349  0.0225  0.1255
    1W        W56400  21.328  11.129   2.197 -0.1225  0.1285  0.1258
    1W        W56401   4.670  25.298   9.800 -0.3835  0.0037 -0.3682
    1W        W56402   1.516   0.022   1.897 -0.0859 -0.1868 -0.1909
    1W        W56403  22.687  11.584   9.132  0.2984  0.1993 -0.0933
    1W        W56404  19.852   3.682   8.447 -0.1224 -0.1770 -0.0949
    1W        W56405  25.263  13.531   2.607  0.0944  0.3103 -0.0893
    1W        W56406   2.878   6.655   9.054  0.1300  0.1743 -0.1324
    1W        W56407  12.209  26.829   9.276 -0.0178 -0.0449  0.0592
    1W        W56408  20.297   8.148   2.999 -0.3053 -0.0881  0.0292
    1W        W56409  20.441  26.348   0.121 -0.2950  0.2172  0.0837
    1W        W56410  26.089  24.536   8.170  0.1264  0.1159  0.0402
    1W        W56411  12.269  24.393   7.910  0.0120 -0.1545 -0.0167
    1W        W56412  16.321  22.004   0.538  0.1061  0.0494  0.2731
    1W        W56413  25.067   9.243   0.129 -0.0636 -0.0958  0.5751
    1W        W56414   2.486   1.427   6.860  0.0125  0.1497 -0.0933
    1W        W56415  12.858   6.990   7.929 -0.0157 -0.1249  0.1690
    1W        W56416   9.044  21.557   8.333  0.1115 -0.1422 -0.0746
    1W        W56417  22.451  20.952   2.210 -0.0371 -0.2008 -0.2992
    1W        W56418  22.714   2.657   0.389  0.2216  0.0058 -0.0590
    1W        W56419  27.474   6.659   8.301  0.0072 -0.0085 -0.0669
    1W        W56420  15.292   6.132   2.585 -0.3352  0.2316  0.2183
    1W        W56421  12.964   7.939   9.159  0.5970 -0.2605 -0.0610
    1W        W56422  24.858  24.393   1.567  0.2045 -0.1682 -0.0018
    1W        W56423  19.898   0.154   1.149  0.0486  0.1749 -0.2387
    1W        W56424  20.315  18.735   3.788 -0.0226 -0.0542 -0.0181
    1W        W56425  20.955  12.484   0.164  0.2529 -0.1378  0.1535
    1W        W56426  19.126   7.967  10.062  0.1525 -0.1973  0.1827
    1W        W56427  18.307  24.678  10.058  0.1138  0.2631 -0.2053
    1W        W56428  25.290  24.779   0.340 -0.1452  0.0753  0.1258
    1W        W56429  16.738  20.112   7.613 -0.2581  0.2325 -0.0793
    1W        W56430   4.377   1.965   7.890  0.3663 -0.0164 -0.0224
    1W        W56431  19.002  26.332   9.626 -0.2814 -0.1241  0.0376
    1W        W56432  24.778  24.999   7.320 -0.1592 -0.0225 -0.1547
    1W        W56433   7.120  21.425   7.776 -0.0222 -0.0219  0.0583
    1W        W56434  18.995  15.727   3.245 -0.1188 -0.4190  0.0583
    1W        W56435   1.513  11.647   9.764  0.3223 -0.0934 -0.1416
    1W        W56436  11.257   2.167   8.098 -0.3738  0.0698  0.3394
    1W        W56437   6.156   9.391   7.837 -0.1832 -0.1004  0.0192
    1W        W56438  19.021   0.679   0.685  0.0608 -0.1603 -0.0548
    1W        W56439  12.663  16.261   0.337 -0.1705  0.2395  0.2357
    1W        W56440  15.558  17.571   0.341  0.0134  0.1632 -0.0754
    1W        W56441  17.301  25.803   9.510 -0.0399 -0.2903  0.2463
    1W        W56442  22.570  15.904   7.135 -0.2009  0.1187  0.3388
    1W        W56443  24.999  17.385   0.526  0.1878  0.2554 -0.0032
    1W        W56444  26.361   5.981   2.175 -0.1583 -0.3706  0.0389
    1W        W56445  20.470  11.805   1.166  0.1970 -0.0832 -0.3606
    1W        W56446  18.091   1.132  10.220 -0.2730  0.1602  0.0574
    1W        W56447  12.304  25.391   9.603  0.1170  0.0298  0.0410
    1W        W56448   6.301  16.210   9.357  0.0034  0.1253  0.1447
    1W        W56449   7.391  24.553   9.636 -0.1039 -0.0336  0.1283
    1W        W56450  26.393   4.905   7.809  0.1873 -0.1066  0.0881
    1W        W56451   0.910  23.889   2.123  0.2305  0.1111 -0.0112
    1W        W56452  21.732   0.184   0.940 -0.0763 -0.0162  0.2005
    1W        W56453   3.863  27.553   0.542 -0.0638 -0.0775 -0.0553
    1W        W56454  15.780  11.366   0.118  0.0870  0.1158  0.1562
    1W        W56455  26.932   9.549   9.581  0.0952  0.2653  0.2258
    1W        W56456  15.619  17.983   0.636  0.1734  0.1134  0.3759
    1W        W56457   0.771   2.217   0.974  0.2959  0.3149  0.0963
    1W        W56458   1.671  19.680   0.331  0.0102 -0.1458 -0.0499
    1W        W56459  20.268   7.533   9.410  0.0894  0.1374  0.1447
    1W        W56460   6.150  23.455  10.304  0.0104 -0.1419  0.0038
    1W        W56461  22.795  24.478   0.804  0.0686  0.1009 -0.0288
    1W        W56462  12.398  14.205   0.467 -0.0443 -0.1914 -0.1351
    1W        W56463   5.655  12.729   0.996  0.3083 -0.2943 -0.2253
    1W        W56464   5.861  25.998   1.964  0.0615  0.1065  0.1269
    1W        W56465  24.651  11.004   0.991 -0.1539 -0.0253 -0.1197
    1W        W56466  13.769   0.585   8.273 -0.0647 -0.0094 -0.0729
    1W        W56467   4.339  26.372   9.522 -0.0050  0.0205  0.1687
    1W        W56468  25.215  18.981   2.545  0.1034 -0.1233 -0.1931
    1W        W56469   4.384  13.547   6.633 -0.1693  0.1887 -0.1294
    1W        W56470  11.874   7.254   8.747 -0.2011  0.1854 -0.0159
    1W        W56471  17.678  14.633   8.644 -0.0496 -0.1048  0.0587
    1W        W56472   8.094  22.960   9.100 -0.1019 -0.1696  0.0343
    1W        W56473   7.790  16.294   7.611 -0.0672 -0.0594  0.0297
    1W        W56474   1.822   2.482   2.249  0.2576  0.3361 -0.1905
    1W        W56475   8.825   5.423   0.203 -0.1261 -0.1713 -0.0759
    1W        W56476   0.901  27.452   0.238 -0.0374 -0.1136  0.1673
    1W        W56477   2.067  11.394  10.205  0.0151  0.2456 -0.0775
    1W        W56478   6.265  18.913   0.055 -0.1939 -0.0263  0.1916
    1W        W56479  17.015  19.372   2.588  0.2057 -0.0362  0.2116
    1W        W56480  23.763   6.946   2.675 -0.1499 -0.1127 -0.1412
    1W        W56481  16.185  21.142   3.238  0.3677  0.2561 -0.2130
    1W        W56482   6.671   4.952   9.201  0.0061  0.1999 -0.0641
    1W        W56483  13.541  25.774   0.427  0.1427 -0.1700 -0.3567
    1W        W56484  13.492   2.501   9.737 -0.0432 -0.1430 -0.0407
    1W        W56485  18.519  14.457   1.426 -0.2109 -0.0489  0.0872
    1W        W56486  10.274  12.789   8.970 -0.0052  0.0288  0.4654
    1W        W56487   9.678  27.759   8.433  0.2048  0.0221  0.1063
    1W        W56488   9.523   0.181   2.789 -0.0217 -0.0141  0.2726
    1W        W56489  18.098  14.009   8.157 -0.2137  0.0266  0.0657
    1W        W56490  10.926  23.103   1.362  0.0519 -0.2201 -0.2654
    1W        W56491  27.207   8.254   7.519  0.1991 -0.1901  0.1561
    1W        W56492  24.002   8.011   8.521 -0.0645  0.2091  0.1616
    1W        W56493  16.803  22.948   8.499 -0.0528  0.2626  0.2546
    1W        W56494  23.705   4.176   7.668 -0.0811  0.1174  0.2512
    1W        W56495  26.601  12.308   9.033  0.2309 -0.0219  0.0758
    1W        W56496  27.913  21.169   6.296  0.0137  0.0489 -0.0233
    1W        W56497   2.503  12.497   1.255  0.3334 -0.0582  0.0670
    1W        W56498  22.966  18.590   7.651 -0.0058  0.0280 -0.3388
    1W        W56499  10.214  22.917   0.924 -0.1212  0.4724  0.2331
    1W        W56500   2.579   2.032   8.370 -0.0598  0.1042 -0.5335
    1W        W56501  26.476  27.112   9.653  0.2120 -0.0750 -0.1437
    1W        W56502  25.666  22.809   7.976  0.1305 -0.2246  0.1232
    1W        W56503  23.162  17.957   1.056 -0.2807  0.0116 -0.1954
    1W        W56504   9.705  18.390   2.635 -0.0929 -0.1099  0.0042
    1W        W56505  17.169  17.323   0.775  0.1023 -0.5751 -0.0386
    1W        W56506  13.575   2.136   0.747 -0.1102  0.1186 -0.1669
    1W        W56507   8.167  11.987   8.429 -0.1993  0.3604 -0.1732
    1W        W56508   0.386  17.001   7.785  0.1299  0.0457 -0.0729
    1W        W56509   0.304  10.283   1.628  0.2845 -0.0681 -0.2250
    1W        W56510  13.994  10.317  10.020  0.0870 -0.2848 -0.0562
    1W        W56511   4.064  23.728   3.016 -0.1830  0.1036  0.0535
    1W        W56512  23.359  24.588   8.961 -0.1406 -0.1440 -0.1349
    1W        W56513  21.594  24.267   8.963 -0.0225 -0.0745  0.1299
    1W        W56514  11.498  10.460  10.048  0.3429 -0.2321  0.4359
    1W        W56515   4.978  17.410   2.899  0.1611 -0.0578  0.2721
    1W        W56516   7.222  16.472   7.626 -0.1323  0.1107  0.0324
    1W        W56517  20.967  20.907   6.966  0.3751 -0.1614  0.5166
    1W        W56518   3.926   0.779   1.724  0.2691 -0.0025  0.0320
    1W        W56519   8.218   2.409   1.681  0.1467  0.1205 -0.2269
    1W        W56520   2.775  23.920   9.057  0.1434  0.1413 -0.2584
    1W        W56521   7.711  20.745   0.840  0.3328 -0.0635  0.0404
    1W        W56522  12.411   9.565   1.583  0.1057  0.1356  0.2676
    1W        W56523  21.131  24.045   9.786  0.0558 -0.2367 -0.2544
    1W        W56524  12.003  12.008   9.270 -0.2271  0.0140  0.0621
    1W        W56525  17.789  17.076   3.089  0.1178 -0.0118 -0.1310
    1W        W56526   4.786  13.049  10.248 -0.1987  0.4198  0.0842
    1W        W56527   6.799   6.725  10.186 -0.2803 -0.0735 -0.0048
    1W        W56528  21.826  17.374   8.274  0.1638 -0.0982  0.0461
    1W        W56529  13.435  11.009   9.658 -0.1383 -0.1933 -0.0990
    1W        W56530  20.453   4.103   9.449 -0.0986  0.0109  0.4023
    1W        W56531   3.819  18.348   9.642 -0.1626 -0.0439 -0.0979
    1W        W56532  15.380  14.526   9.530  0.4112  0.0966  0.1246
    1W        W56533  14.051  18.379   1.097 -0.1160  0.0422 -0.1687
    1W        W56534   5.690   8.240   1.030 -0.2096  0.4403 -0.3807
    1W        W56535   2.144  17.072   8.745 -0.2521 -0.0800 -0.1945
    1W        W56536   0.164  11.554   7.739  0.1630  0.1061  0.0338
    1W        W56537  14.938  23.223   2.873 -0.2111  0.2213 -0.3163
    1W        W56538  16.908  16.264  10.244  0.3120  0.0077  0.0853
    1W        W56539  22.422  20.039   8.871 -0.1214 -0.3794 -0.1112
    1W        W56540  14.889   4.980   1.505  0.0499  0.1966 -0.0356
    1W        W56541   2.973   7.270   2.153  0.3738  0.1671  0.0740
    1W        W56542   0.298   2.974   9.489 -0.0754 -0.1542  0.0449
    1W        W56543  24.929  15.771   1.005 -0.1354 -0.0945  0.2304
    1W        W56544  12.035  25.878   9.691  0.0295  0.0351  0.3590
    1W        W56545  15.958   0.885   0.728  0.0832  0.0242  0.2293
    1W        W56546  20.744   5.450   2.147  0.2216 -0.0327 -0.1936
    1W        W56547  17.076  16.549   7.924  0.0315 -0.1492  0.1337
    1W        W56548   3.806  18.572   2.605 -0.0009 -0.1915 -0.0238
    1W        W56549  27.524  24.593   0.193 -0.5623  0.0245  0.0522
    1W        W56550   8.748   2.699   7.547  0.3207  0.3320 -0.1828
    1W        W56551  21.844   5.625   6.601  0.0224 -0.0108  0.0154
    1W        W56552  25.322   4.461   1.765  0.0523 -0.0953  0.0495
    1W        W56553  16.981   5.796   8.297 -0.2182  0.2445 -0.0960
    1W        W56554   2.355  10.733   9.064  0.1779  0.1119  0.0174
    1W        W56555  22.744  10.431   2.700 -0.0827 -0.0249 -0.2038
    1W        W56556   0.659  20.707   8.038  0.3301  0.1577 -0.0807
    1W        W56557  16.884   8.310   8.318 -0.0884 -0.1221 -0.0670
    1W        W56558  13.981  22.522   0.333 -0.1428 -0.0319 -0.1200
    1W        W56559  15.857  18.621   8.939  0.0729 -0.0660  0.0866
    1W        W56560  20.785   3.138   6.953 -0.3653 -0.0870 -0.0093
    1W        W56561   1.715  13.602   9.579  0.1544  0.3560 -0.2520
    1W        W56562  16.202  18.800   0.806  0.0560 -0.0305 -0.1342
    1W        W56563  26.564  10.806   0.228  0.1255 -0.0437  0.0380
    1W        W56564  21.259   5.109   9.581 -0.2251  0.0923 -0.1253
    1W        W56565   0.611  15.681   0.521 -0.0181 -0.0570 -0.1903
    1W        W56566  21.185  26.978   8.083 -0.1302 -0.1077 -0.1127
    1W        W56567   8.411   1.166   1.963 -0.1263 -0.2002 -0.1536
    1W        W56568  26.879  27.231   2.025  0.2153 -0.1706 -0.0848
    1W        W56569  15.518  26.775   0.762  0.2194  0.1527  0.4114
    1W        W56570  14.503  27.944   8.638  0.1458 -0.1788  0.0652
    1W        W56571  27.744  23.937   8.940 -0.0182 -0.0055  0.3822
    1W        W56572  14.955  27.551   8.723 -0.0207 -0.0047  0.3721
    1W        W56573   1.178   4.554   0.871 -0.3002  0.2319 -0.1690
    1W        W56574  20.305   3.881   2.559  0.2043  0.2139  0.1968
    1W        W56575   9.198  22.200   1.575 -0.2165  0.2525 -0.2057
    1W        W56576  14.744  14.641   8.371 -0.3100  0.0226 -0.1148
    1W        W56577  17.388  14.088   2.488  0.2414 -0.0343  0.1646
    1W        W56578  14.403  10.171   9.838 -0.3169  0.0231  0.0224
    1W        W56579  13.289  23.261   8.155  0.1940  0.3326  0.0665
    1W        W56580  17.629   1.933   7.628  0.1010 -0.5816  0.0807
    1W        W56581   3.474  12.287   2.181  0.2864 -0.1750 -0.1556
    1W        W56582  19.533  12.903   9.740  0.1934  0.3847 -0.3031
    1W        W56583  15.175   3.845  10.328  0.1106  0.0420  0.1030
    1W        W56584   2.557   1.899   7.918 -0.1056  0.1805 -0.0176
    1W        W56585  18.788   8.102   9.220  0.5174 -0.0929  0.2006
    1W        W56586  21.255   7.845   0.744 -0.0853 -0.1476 -0.1388
    1W        W56587   9.561   8.894   0.758 -0.1253  0.0095  0.5563
    1W        W56588  17.949  24.613   2.173 -0.0710  0.2610 -0.2927
    1W        W56589  23.025  21.387   1.296 -0.0968  0.3384  0.0458
    1W        W56590   0.866   9.597  10.351 -0.1254 -0.1428  0.0260
    1W        W56591  17.511  17.892   7.830 -0.0872  0.2824  0.0257
    1W        W56592   1.033  20.799   1.686  0.0479  0.2664  0.2349
    1W        W56593  21.142  17.108   8.853 -0.6099  0.0520 -0.1025
    1W        W56594  10.737  12.046   2.689  0.1531 -0.0964  0.1251
    1W        W56595  13.331  27.521  10.346  0.3688  0.2464  0.2930
    1W        W56596  11.130   9.132   1.739  0.2728  0.1141 -0.3526
    1W        W56597  10.610   6.011   1.182  0.0532 -0.1725  0.0599
    1W        W56598  23.358  27.060   8.354 -0.1232  0.4212 -0.1101
    1W        W56599  23.950   4.252   1.483 -0.2008  0.1616 -0.0194
    1W        W56600   4.404  18.074   7.642  0.2286  0.0678  0.0882
    1W        W56601  14.888   9.009   9.164  0.1527 -0.1696  0.2331
    1W        W56602  19.719   8.693   2.785 -0.0822 -0.1691 -0.3086
    1W        W56603  14.339  26.890   9.247  0.1342 -0.2581  0.0150
    1W        W56604   4.832   7.957   2.366 -0.0301  0.1848 -0.0949
    1W        W56605  21.497  23.793   2.403  0.0688 -0.0648  0.2313
    1W        W56606  17.486  14.560   9.447 -0.0560  0.2672  0.0635
    1W        W56607  13.495   8.221   2.077  0.1508  0.3129  0.0210
    1W        W56608  22.224   5.956   1.702  0.0569  0.0771 -0.1123
    1W        W56609  13.518   3.074   1.351 -0.0456  0.0047  0.0855
    1W        W56610  11.056  18.624   9.715 -0.0421 -0.4622 -0.0645
    1W        W56611  10.553   4.351   9.673  0.2082  0.2248 -0.5484
    1W        W56612   9.218   8.769   0.207  0.2576  0.1825 -0.2293
    1W        W56613  20.954   2.667   0.510  0.2032  0.1074 -0.1630
    1W        W56614  16.147  24.614   2.372 -0.1672 -0.0818 -0.3116
    1W        W56615  15.636  14.950   9.323 -0.0075 -0.0080  0.1501
    1W        W56616  27.613   5.921   7.576 -0.0381  0.1399 -0.1628
    1W        W56617  12.900   6.735   9.357  0.4041 -0.1206  0.0637
    1W        W56618  12.598   1.669   8.156  0.2155  0.0872 -0.2631
    1W        W56619  17.597  18.618   2.283  0.0512  0.0848 -0.0187
    1W        W56620   1.606  15.627   0.512  0.0246 -0.0803 -0.3078
    1W        W56621  25.719  25.470   7.379 -0.0522  0.1867  0.3293
    1W        W56622  23.810  15.518  10.116 -0.1049 -0.2494  0.0077
    1W        W56623  15.490  10.447   9.410  0.0685 -0.2794  0.0711
    1W        W56624  18.353  12.599   2.223 -0.1923 -0.0975 -0.2213
    1W        W56625   0.990  15.523   2.608  0.0703  0.0321 -0.0562
    1W        W56626  11.988  26.806   1.307 -0.0156 -0.2259 -0.1565
    1W        W56627  16.855   8.042   3.240  0.3190  0.0377  0.0903
    1W        W56628  22.478  25.515   0.727 -0.2363  0.0965 -0.1876
    1W        W56629  14.094  20.979   2.068  0.0829  0.1962  0.0229
    1W        W56630  18.978   1.886   9.534 -0.1822  0.1381  0.1443
    1W        W56631   1.238  26.965   2.272 -0.1637 -0.1962  0.1414
    1W        W56632  18.751  16.145   0.589 -0.0960  0.1957  0.1461
    1W        W56633  26.334   7.273   1.824 -0.0294  0.0880 -0.0251
    1W        W56634  14.814  13.749   0.775 -0.2347 -0.1954 -0.0440
    1W        W56635   8.975  19.642   7.385 -0.2779 -0.0454  0.2145
    1W        W56636  10.227  27.517   8.334 -0.0882  0.2960  0.2739
    1W        W56637   2.679  12.908   6.453  0.0650  0.0213 -0.0013
    1W        W56638   5.667   4.868   9.910 -0.0303  0.0858  0.1136
    1W        W56639   9.799  27.900   2.968 -0.1610 -0.1670  0.1385
    1W        W56640   0.719  19.497   2.547 -0.0155  0.0403 -0.0666
    1W        W56641  24.112  18.157   2.695 -0.0561  0.1003 -0.0948
    1W        W56642  11.836   9.001  10.005  0.1656 -0.1239  0.2393
    1W        W56643  19.677   3.057   2.658  0.0535  0.0384  0.1184
    1W        W56644   2.872  21.981   0.647  0.1210  0.0303 -0.1736
    1W        W56645  23.826   2.442   1.290  0.0579  0.3247 -0.0627
    1W        W56646   6.683  12.677   6.915 -0.1259 -0.0319 -0.4114
    1W        W56647  15.883  12.147   0.855 -0.3745  0.0035  0.3808
    1W        W56648   7.138  16.408   0.303 -0.2147 -0.3328  0.1156
    1W        W56649  26.538   6.108   6.883 -0.2361  0.1498 -0.0036
    1W        W56650  12.711  10.705   7.783  0.2421  0.1018 -0.1013
    1W        W56651  23.872   3.488   1.296  0.0492 -0.0334  0.2074
    1W        W56652  16.771   4.806   2.484 -0.1904 -0.3462 -0.1405
    1W        W56653   8.942   7.099   2.794  0.1306 -0.1327  0.2316
    1W        W56654   3.875   6.077   6.091 -0.0507 -0.0191 -0.0246
    1W        W56655   8.883   2.564   0.064  0.0436  0.0016 -0.0115
    1W        W56656   6.086  18.898   7.411 -0.3019  0.1441 -0.1440
    1W        W56657  13.756  18.381   9.561 -0.2011  0.0343 -0.0057
    1W        W56658  12.741  19.747   8.555  0.3905 -0.1160  0.0483
    1W        W56659   2.670  17.752   2.532 -0.2276 -0.2620  0.3429
    1W        W56660   8.714   6.934   2.262  0.0271 -0.0080 -0.1829
    1W        W56661  13.597   8.588   8.294 -0.1732  0.1393  0.4976
    1W        W56662   5.372   4.142   8.446 -0.0036  0.0413  0.1671
    1W        W56663  10.421  25.588   9.956  0.2255  0.0907  0.1697
    1W        W56664  24.268   0.205  10.174 -0.0474 -0.1640 -0.1306
    1W        W56665   6.928  20.419   2.667 -0.0978  0.1023 -0.0772
    1W        W56666   1.636  21.574   7.141  0.2886  0.0239 -0.2832
    1W        W56667  20.226   9.410   9.043 -0.2608 -0.0895  0.0358
    1W        W56668  23.768   4.030   0.539  0.0050 -0.1091 -0.0545
    1W        W56669  27.841   5.871   0.642  0.1093 -0.0748 -0.5236
    1W        W56670   5.634   3.218   1.783  0.0492  0.4281 -0.1685
    1W        W56671   9.606   7.864   8.324 -0.0762  0.0825  0.3060
    1W        W56672  11.330  18.076   8.792 -0.0674  0.0489  0.0702
    1W        W56673  19.363  16.850   2.634 -0.0989 -0.1219 -0.2819
    1W        W56674  17.319  18.876   9.954  0.0654  0.1269  0.1635
    1W        W56675  23.823   1.342   3.546 -0.4265  0.0256 -0.2320
    1W        W56676  21.145  17.794   7.317 -0.0407 -0.4236  0.0187
    1W        W56677  14.173   5.726   4.117 -0.0979  0.0903 -0.0352
    1W        W56678  19.932  14.716   7.856  0.1142 -0.2596  0.0220
    1W        W56679   6.718   7.929   3.013  0.1542 -0.2863  0.0177
    1W        W56680  26.161  18.573   8.699 -0.0832  0.0539  0.1107
    1W        W56681  22.525  14.426   8.553 -0.2456 -0.3407 -0.1771
    1W        W56682  25.773   6.670   8.769  0.0425  0.0138  0.0868
    1W        W56683   0.699  17.294   1.194  0.1511 -0.2324  0.0148
    1W        W56684   4.013  23.817   9.293  0.0012  0.0324  0.0375
    1W        W56685  13.752  21.410   9.510  0.2316 -0.2377  0.3304
    1W        W56686  26.758   8.014   2.111 -0.0113 -0.1592 -0.0550
    1W        W56687  11.278   2.853  10.302 -0.0632  0.0976 -0.2120
    1W        W56688   5.236   8.209   6.101 -0.0132  0.0179 -0.0494
    1W        W56689   7.657   8.722   8.895 -0.2314 -0.0307  0.2463
    1W        W56690   1.020  22.348   8.634  0.0399 -0.1454  0.6787
    1W        W56691   4.991  14.644   0.507 -0.0703 -0.0020  0.0652
    1W        W56692   3.681  18.588   2.108 -0.1446  0.0339 -0.2121
    1W        W56693  15.764  12.520   8.007 -0.1688  0.1183 -0.0009
    1W        W56694  22.023   8.612   0.641 -0.1797 -0.3119  0.0320
    1W        W56695  24.755  16.061   1.378  0.2052 -0.1328 -0.6120
    1W        W56696  13.549   5.299   7.858 -0.2154 -0.2254 -0.0824
    1W        W56697  23.845  21.578   8.925 -0.0993 -0.1163  0.0815
    1W        W56698   6.759  11.303   2.589 -0.0638  0.1895 -0.0153
    1W        W56699  21.665  24.256   2.518  0.1930  0.2390  0.3535
    1W        W56700  14.504   9.986  10.333 -0.0905 -0.0588  0.1534
    1W        W56701   0.416  21.225  10.141  0.1799  0.0246 -0.1553
    1W        W56702  26.455   6.964   7.202  0.1838  0.1366 -0.0291
    1W        W56703  22.929  10.009   1.832  0.3289 -0.0161 -0.0366
    1W        W56704   9.630  15.861   7.178  0.2464 -0.0557 -0.0693
    1W        W56705  12.164   1.554   7.872 -0.0805  0.0785  0.0448
    1W        W56706  20.032   3.241  10.298  0.1984 -0.0582  0.1320
    1W        W56707   4.322   4.084   8.071  0.0197 -0.1688 -0.1516
    1W        W56708  17.840  22.929   2.552 -0.2064 -0.0216  0.3325
    1W        W56709  25.365   5.145   1.367 -0.1117 -0.0509  0.2191
    1W        W56710  17.647   4.060  10.203 -0.1258  0.2308 -0.1086
    1W        W56711   1.715   9.736   9.613  0.3536 -0.3908  0.0439
    1W        W56712   1.434  19.301   1.509  0.0278 -0.2645  0.1200
    1W        W56713   3.047   7.604   2.570  0.0830  0.4104 -0.0672
    1W        W56714   8.824  17.214   2.624 -0.1670  0.1850 -0.0223
    1W        W56715   0.010  12.666   9.793  0.1816 -0.1699 -0.1387
    1W        W56716  13.774   1.835   2.877 -0.2258 -0.2630 -0.2229
    1W        W56717  11.930  16.740   9.443  0.0625 -0.0532 -0.2345
    1W        W56718  14.640   2.241   9.049  0.1194  0.1733 -0.3593
    1W        W56719  27.177   0.105  10.307 -0.3094 -0.0020 -0.3578
    1W        W56720  27.510   5.552   0.818 -0.1130  0.0655 -0.1987
    1W        W56721  22.465  13.744   2.966  0.1727  0.0386  0.0888
    1W        W56722   6.397  23.232   0.932 -0.0957  0.0043  0.0318
    1W        W56723   5.006   1.337   0.309  0.1832  0.2014  0.2299
    1W        W56724  23.874  24.727   0.527  0.0361  0.4659 -0.0190
    1W        W56725   5.944  11.178   1.377 -0.1115 -0.0664 -0.0136
    1W        W56726   2.878  16.795   6.881 -0.0683  0.0737 -0.1392
    1W        W56727  17.029  13.435   0.426 -0.0488  0.0129 -0.1872
    1W        W56728  16.185  20.011   7.725 -0.0299 -0.3787 -0.0315
    1W        W56729   0.541  11.497   0.741  0.1659  0.0194  0.0105
    1W        W56730   3.910   6.670   7.054  0.2104 -0.1031 -0.3142
    1W        W56731   0.104   9.314   0.069  0.0986  0.1691 -0.1796
    1W        W56732  25.231  14.717   1.713 -0.0194 -0.2738  0.0387
    1W        W56733  16.983  11.770   9.720 -0.0877  0.0469 -0.1000
    1W        W56734   2.083  14.398   1.656 -0.0765 -0.3598 -0.2130
    1W        W56735   6.947  20.376   0.032  0.0140  0.0573  0.1251
    1W        W56736   0.312   8.106   6.879 -0.1574 -0.1254  0.1771
    1W        W56737   4.558  14.365   8.515 -0.2073  0.1210 -0.1658
    1W        W56738  19.506  15.100   3.268  0.0234  0.3967  0.1637
    1W        W56739   4.885  22.853   0.302 -0.1233  0.2033 -0.0451
    1W        W56740  22.224   1.625   2.800 -0.2311 -0.1450  0.1797
    1W        W56741  19.330   2.503   6.968  0.3350 -0.2280 -0.0190
    1W        W56742  23.764  18.511   8.874 -0.0400 -0.0229  0.2196
    1W        W56743  23.084   0.161   1.973 -0.1581  0.3783  0.0408
    1W        W56744   9.211  18.112   2.639 -0.0145  0.1042 -0.0957
    1W        W56745  27.876   3.503   8.772  0.2191  0.1851 -0.3231
    1W        W56746   1.863  24.717   9.539 -0.0138  0.1717 -0.2276
    1W        W56747  17.666  18.844   9.549 -0.1072  0.1219  0.0138
    1W        W56748  10.170   4.995   7.812  0.1460  0.0933 -0.2462
    1W        W56749  14.622   2.029   3.229  0.1337  0.1821  0.0715
    1W        W56750   3.846  24.682   1.866  0.0386  0.1600 -0.3331
    1W        W56751   5.788  15.968   1.864  0.1947  0.0004  0.0583
    1W        W56752   8.321  15.379   9.508  0.6714  0.0242  0.2250
    1W        W56753   0.942  16.589  10.001  0.1451 -0.1421  0.2569
    1W        W56754  27.971  20.989   2.151  0.1344 -0.1518  0.0968
    1W        W56755   2.338   9.401   9.842  0.0497 -0.1355  0.0908
    1W        W56756   7.823  25.618   2.336 -0.0995 -0.0087  0.1765
    1W        W56757  25.293  13.032   0.780 -0.3470 -0.1915  0.1754
    1W        W56758  27.386   2.188   1.215 -0.1659  0.0607 -0.0097
    1W        W56759   2.268  23.116   0.641  0.0940  0.0463  0.0487
    1W        W56760   4.506   0.938   7.719 -0.0951 -0.0918  0.0117
    1W        W56761   9.256   0.539   9.803 -0.4115 -0.1633  0.2848
    1W        W56762  13.878  17.059   8.157  0.0331  0.0031 -0.0575
    1W        W56763  14.924  19.792   1.336  0.0943  0.1070  0.3019
    1W        W56764   9.233  26.394   9.104  0.2218  0.1894 -0.1085
    1W        W56765  24.913   8.164   7.749  0.0276  0.1176  0.2103
    1W        W56766  27.806  12.304   8.113 -0.1777 -0.1072 -0.1291
    1W        W56767   0.921  15.962   1.744  0.1012 -0.2138  0.2146
    1W        W56768  13.197  10.659   8.707 -0.4715  0.2846  0.0616
    1W        W56769   5.488  21.071   1.476 -0.0936  0.2292 -0.3741
    1W        W56770  24.918   3.162   9.112  0.2273  0.1300  0.1801
    1W        W56771  26.430   6.954   9.267  0.1355 -0.0784 -0.0124
    1W        W56772   2.605  12.213   7.025  0.0495 -0.0631  0.2250
    1W        W56773   7.172  19.971   2.348  0.2439 -0.3801 -0.1838
    1W        W56774  11.748  17.617   7.925  0.0445 -0.2048 -0.0935
    1W        W56775  22.703  22.130   0.596  0.0260 -0.2101 -0.1228
    1W        W56776  16.185   6.134   1.482 -0.1469  0.2848  0.2352
    1W        W56777  13.524  13.081   2.826  0.1234  0.0546  0.2632
    1W        W56778   1.390  24.244   3.064 -0.1273 -0.0174 -0.4008
    1W        W56779  10.533   9.280   8.033 -0.0213  0.1044 -0.0372
    1W        W56780  18.761  10.148   2.754  0.2839 -0.2244 -0.1894
    1W        W56781   0.890   1.557   7.613 -0.0806  0.1410  0.0765
    1W        W56782  28.032  25.289  10.210 -0.0071 -0.0428 -0.3659
    1W        W56783   9.687   3.534   0.952 -0.1403 -0.0528  0.0729
    1W        W56784  23.010   6.324   7.997  0.0186 -0.1110  0.2974
    1W        W56785  27.433  12.211   9.485 -0.2371  0.3590 -0.1288
    1W        W56786  14.308   0.009   0.766  0.1585  0.0641 -0.0512
    1W        W56787  27.327  20.793   1.526  0.3365  0.1946 -0.0490
    1W        W56788   8.211   0.196   0.843  0.2583  0.1912  0.3021
    1W        W56789   8.660  11.102   3.120  0.1920 -0.0215 -0.0316
    1W        W56790   2.775   7.986   8.646 -0.1861  0.3537  0.2971
    1W        W56791  18.989   9.897   8.236  0.1092 -0.0034  0.3531
    1W        W56792  27.698   7.490   2.222  0.0859  0.4608  0.2709
    1W        W56793  18.821  15.298   2.623  0.0429  0.2322 -0.1749
    1W        W56794   6.286  12.111   0.495  0.1949  0.3985  0.1618
    1W        W56795  20.921  12.793   2.571 -0.0187  0.1626 -0.1882
    1W        W56796  20.654  11.685   8.026 -0.2473  0.1325 -0.3479
    1W        W56797  19.101  13.250  10.312  0.2054  0.1419 -0.2492
    1W        W56798  10.089  15.654   2.219 -0.1001  0.3259  0.1388
    1W        W56799  19.251  28.022   1.019 -0.0933  0.4244 -0.0371
    1W        W56800   7.663  26.826   0.420  0.1976 -0.1652  0.0441
    1W        W56801   2.289  26.900  10.304  0.3874 -0.0595  0.1423
    1W        W56802   8.323  19.841   2.766 -0.2283  0.1496 -0.0581
    1W        W56803  24.305  13.556   7.582  0.1244 -0.2346 -0.0809
    1W        W56804  24.848   0.319   7.428 -0.0825 -0.0262 -0.0332
    1W        W56805   3.551  21.874   1.679 -0.3830 -0.2225  0.1455
    1W        W56806  14.021  10.500   3.179 -0.3789 -0.2648  0.2552
    1W        W56807  14.084   6.672   8.237  0.1349  0.3272 -0.3435
    1W        W56808  19.217   5.733   3.417 -0.0533 -0.1476 -0.0024
    1W        W56809   2.675  26.683   1.437 -0.3021 -0.0722 -0.1641
    1W        W56810   2.000  22.706   8.540 -0.0645 -0.1103 -0.1057
    1W        W56811  26.963  12.860   7.222  0.1964  0.0528  0.3216
    1W        W56812   6.136   7.412  10.261 -0.1750  0.1911 -0.4318
    1W        W56813  24.861  22.127   7.901 -0.0021 -0.0826 -0.0645
    1W        W56814   4.439  16.969   1.076  0.2249  0.0040 -0.1093
    1W        W56815  19.421   0.083   7.318 -0.2491  0.1322  0.1338
    1W        W56816   0.533  24.938   1.444  0.1494 -0.1381  0.2034
    1W        W56817  18.411  19.518  10.256  0.1098 -0.2535 -0.1134
    1W        W56818  27.543   8.948   8.671  0.3613  0.2772  0.0616
    1W        W56819   2.644  12.026   9.042  0.3368 -0.3322  0.0127
    1W        W56820  20.177   8.137  10.057 -0.0298  0.2136  0.1144
    1W        W56821  27.520  16.493   9.583 -0.0460 -0.0721  0.1141
    1W        W56822  22.769   3.570   2.411 -0.0988  0.1970 -0.0085
    1W        W56823  14.539  25.753   3.348  0.4226 -0.1078 -0.1709
    1W        W56824  24.316  15.813   8.918  0.1211 -0.3729 -0.3848
    1W        W56825   6.978  13.703   6.918 -0.1481 -0.3712 -0.1396
    1W        W56826   2.412   7.466   8.218 -0.2501 -0.0622 -0.2300
    1W        W56827  22.187  27.563   9.741 -0.6691 -0.0666 -0.5553
    1W        W56828   3.604   0.200   9.345  0.1312  0.1310 -0.1198
    1W        W56829  27.330  27.902   9.957  0.0558 -0.1021  0.1739
    1W        W56830  25.867  15.338   1.230 -0.1061 -0.0839 -0.1252
    1W        W56831  13.957  11.319   0.114  0.1711  0.1242  0.0458
    1W        W56832   4.430  11.436   2.739  0.3228 -0.0083 -0.1567
    1W        W56833  22.380  25.431   2.457  0.1250 -0.3445  0.3570
    1W        W56834   4.701  13.552  10.013  0.0824  0.0794  0.2589
    1W        W56835  20.057   4.337   2.964 -0.0043  0.3548 -0.1378
    1W        W56836  23.064  15.886   0.037  0.0130 -0.0918  0.1834
    1W        W56837   5.196  21.003   1.957 -0.1259 -0.0279 -0.0686
    1W        W56838  15.485   3.651   7.830 -0.1917  0.0119  0.0892
    1W        W56839  18.315   5.735   1.639  0.1731 -0.1521  0.0529
    1W        W56840   9.924  21.288   8.222 -0.1911 -0.1175  0.1156
    1W        W56841  11.744   4.709   2.388 -0.0453 -0.0250  0.1192
    1W        W56842   7.823  25.037   0.424  0.2727 -0.2763  0.0955
    1W        W56843   3.871  10.656   9.693 -0.0325  0.1317  0.0849
    1W        W56844  23.916  18.271   9.348  0.0136  0.1310  0.0913
    1W        W56845   3.586  15.274   8.496 -0.3521 -0.0203  0.1073
    1W        W56846  16.534  14.711   3.079  0.2295 -0.4818  0.1224
    1W        W56847  25.140  25.050   2.169 -0.1473 -0.0642 -0.0308
    1W        W56848   3.763  23.241   1.676  0.1925 -0.0075 -0.0593
    1W        W56849  15.740  17.856  10.103  0.0671  0.1290 -0.0831
    1W        W56850  21.829  21.941   0.816  0.0803 -0.0089  0.2148
    1W        W56851   7.173  26.342   8.627  0.1224  0.0938  0.1498
    1W        W56852  16.663  13.507   8.069  0.1609  0.0388  0.1077
    1W        W56853  16.195   0.101   8.598 -0.0501 -0.2087 -0.0152
    1W        W56854   7.597  26.312   1.355  0.0279 -0.3347 -0.2886
    1W        W56855   1.165   7.012   7.127 -0.0171  0.1594 -0.0691
    1W        W56856  25.887   0.392   1.000  0.5013 -0.2696 -0.1408
    1W        W56857  13.494   2.573   7.859  0.2658 -0.1043 -0.0421
    1W        W56858   0.237   1.248   2.224 -0.0986  0.0331 -0.3117
    1W        W56859   4.431  15.041   0.390  0.1103  0.1338 -0.0322
    1W        W56860  27.465   6.364   0.375  0.1872  0.0159  0.1344
    1W        W56861  21.698   4.327   1.700 -0.3043 -0.1871 -0.1662
    1W        W56862  21.577  24.004   9.494 -0.1614 -0.1581 -0.2234
    1W        W56863  20.915   0.201   8.665  0.1139 -0.0068  0.0152
    1W        W56864  20.572   9.085   1.686 -0.0127 -0.4752 -0.0705
    1W        W56865  16.591  18.161   0.457  0.0286  0.0595 -0.0904
    1W        W56866   0.621  15.439   8.505 -0.2674  0.2201  0.0831
    1W        W56867   5.143   9.049   6.002 -0.1760 -0.2786 -0.0271
    1W        W56868  24.646  12.435   0.205  0.0287 -0.0544  0.1695
    1W        W56869  26.284  25.016   6.753  0.1900  0.1165  0.0537
    1W        W56870   6.063  26.891   7.332  0.1424 -0.1452 -0.1879
    1W        W56871  19.560  11.145   2.203  0.0994  0.0860  0.1677
    1W        W56872  26.430  15.588   0.210 -0.0286  0.0104 -0.1453
    1W        W56873  15.121   3.432   0.188  0.0167  0.1320 -0.0940
    1W        W56874  27.628  13.628   0.802 -0.1901  0.2712  0.0763
    1W        W56875   8.390  10.649   2.258 -0.2822  0.0199  0.0883
    1W        W56876  21.416  20.835   7.113 -0.0341  0.1255 -0.1971
    1W        W56877   5.916  25.319   6.505 -0.2177 -0.4374 -0.1682
    1W        W56878  19.208  24.619   1.896  0.1940  0.1754  0.1092
    1W        W56879   8.811   0.089   8.677 -0.1721  0.0652 -0.0948
    1W        W56880  27.110   8.975   1.850 -0.2008 -0.3840  0.0825
    1W        W56881  11.850  12.756   1.773 -0.1602 -0.1041 -0.0596
    1W        W56882  14.159   0.068   8.061  0.3060 -0.1221  0.0891
    1W        W56883  17.423  26.563   2.928 -0.0821 -0.2005 -0.1660
    1W        W56884  10.383  13.387   7.848 -0.0205  0.0059  0.0908
    1W        W56885  23.637  11.019   0.595 -0.0881  0.3071  0.3788
    1W        W56886  23.094  24.424   7.959 -0.0767  0.3129 -0.0380
    1W        W56887   6.959  10.875   2.576  0.1791  0.1874  0.2285
    1W        W56888  20.358  11.637   1.728  0.2136 -0.1404 -0.2212
    1W        W56889   7.627  13.622   2.002 -0.2658  0.1426  0.1041
    1W        W56890  10.328  18.718   8.636 -0.0731  0.1057  0.2241
    1W        W56891  24.789   9.863   8.939  0.0304  0.1398  0.3531
    1W        W56892  17.989   0.471   8.110 -0.0790  0.0047  0.0220
    1W        W56893  17.983  25.731   0.935  0.0038 -0.4288 -0.1326
    1W        W56894  24.717  13.967  10.104 -0.0998  0.0473  0.1055
    1W        W56895  19.668  17.322   2.228 -0.0367  0.2232  0.2017
    1W        W56896  22.575  25.223   6.832 -0.2457 -0.0025  0.0456
    1W        W56897   0.602   2.220   8.505 -0.4550 -0.4029  0.2765
    1W        W56898  27.274  17.013   9.509 -0.1156 -0.1702 -0.0138
    1W        W56899  13.988   2.261   1.002  0.1461 -0.2432 -0.1654
    1W        W56900  22.894  23.791   2.737  0.0647  0.0934 -0.0504
    1W        W56901  27.532   0.886   9.584 -0.0724  0.0018 -0.0631
    1W        W56902  19.376   1.783   9.191  0.2471 -0.1305  0.1851
    1W        W56903   7.466   4.942   1.254  0.0250 -0.1937  0.0573
    1W        W56904  10.874  16.651   8.503  0.2429  0.0440  0.0001
    1W        W56905  17.713  22.434   2.564 -0.0689 -0.2003 -0.0445
    1W        W56906  26.958  13.401   9.488  0.1417  0.0764 -0.1186
    1W        W56907  18.798  11.009   7.774 -0.2141  0.4188  0.0154
    1W        W56908  27.870  12.011   0.241 -0.1448 -0.1671 -0.0458
    1W        W56909  11.038   3.663   9.247 -0.0474  0.1480  0.0135
    1W        W56910  27.097   7.228   9.787  0.3438  0.3383  0.1501
    1W        W56911  10.307   9.267   0.363  0.2724  0.2757  0.0055
    1W        W56912  19.731  21.508   0.722 -0.2263  0.0564 -0.0375
    1W        W56913   3.409  17.382   0.375 -0.0817  0.2691 -0.1667
    1W        W56914  23.774  10.125   8.537 -0.0587  0.0972  0.2237
    1W        W56915  24.579   7.794   1.357 -0.1616  0.1986  0.0909
    1W        W56916  20.588  14.127  10.062  0.1948  0.0847  0.1179
    1W        W56917   3.646  22.794   3.180 -0.1360  0.0131 -0.0544
    1W        W56918   0.146  15.918   0.399 -0.2413 -0.0822 -0.3565
    1W        W56919  20.281  16.094   2.689 -0.3106 -0.1328 -0.0101
    1W        W56920   7.123   8.741  10.230  0.0494 -0.0799 -0.0425
    1W        W56921  23.194  16.456   9.534  0.1085  0.3728  0.1703
    1W        W56922  19.689  16.534   1.609 -0.1159 -0.1677  0.0668
    1W        W56923   4.610  24.370   7.270 -0.2910  0.4072 -0.0215
    1W        W56924   1.311  13.176   8.756 -0.2200 -0.0532  0.4267
    1W        W56925  21.791  27.227   2.717 -0.0253  0.1250 -0.3490
    1W        W56926  13.555   3.113   3.657 -0.0192 -0.3090  0.2138
    1W        W56927  18.352  14.002   2.344 -0.1841 -0.0312  0.1455
    1W        W56928  23.216  14.871   7.539 -0.0785 -0.0444  0.0889
    1W        W56929  25.301   0.851   6.844  0.0523 -0.0946 -0.2161
    1W        W56930  25.453   9.526   7.218 -0.0953 -0.4567  0.0304
    1W        W56931  13.434  13.779   8.790  0.0365 -0.0236  0.1289
    1W        W56932  11.844  15.846   3.644  0.2737  0.2716  0.0202
    1W        W56933  12.945   1.692   1.544  0.1215  0.2352  0.0774
    1W        W56934  26.577  18.440   9.725  0.3390 -0.0838 -0.1516
    1W        W56935  10.111  16.307   2.281 -0.0577 -0.1116  0.1703
    1W        W56936  26.626  14.548   6.695 -0.0194 -0.0423  0.0476
    1W        W56937   8.895  21.998   7.942  0.0042 -0.0127 -0.0509
    1W        W56938   1.515  12.010   8.417  0.2585 -0.1142  0.2282
    1W        W56939  12.036  12.943   8.046  0.2531  0.1119  0.2938
    1W        W56940  17.992   6.269   7.924  0.5207 -0.1351  0.1268
    1W        W56941   2.447   3.097   9.673  0.0037  0.3685 -0.0710
    1W        W56942  14.508   3.172   2.939  0.0485 -0.0299 -0.1777
    1W        W56943  17.192  26.096   3.643  0.0232  0.2017 -0.3183
    1W        W56944   8.263  19.213   1.802  0.1606 -0.2300 -0.1058
    1W        W56945  16.979  22.901  10.016 -0.2398  0.1356  0.1949
    1W        W56946   2.448  15.720   9.518  0.4076 -0.1457 -0.2545
    1W        W56947   8.867  20.168   8.648 -0.0870 -0.2322  0.0345
    1W        W56948   0.432  19.494   7.147 -0.0465 -0.3905 -0.1595
    1W        W56949  10.076  14.331  10.281 -0.2030 -0.0260 -0.0719
    1W        W56950   4.577  14.810   2.497 -0.0036  0.0388  0.0478
    1W        W56951   1.078  22.229   3.062 -0.1256  0.1878  0.2999
    1W        W56952  20.824  15.967   8.502  0.2076  0.0309 -0.1976
    1W        W56953  16.421  15.587   3.135 -0.1238 -0.3507  0.0619
    1W        W56954  14.852   2.958   7.461 -0.0045 -0.0025  0.0002
    1W        W56955   6.442   4.735  10.177  0.1658  0.2943  0.1107
    1W        W56956  13.293   4.962   9.676  0.3264  0.0162 -0.1038
    1W        W56957  20.026  19.526  10.124 -0.3060 -0.2341 -0.2496
    1W        W56958  19.215   6.308   3.150 -0.0981 -0.3071  0.0786
    1W        W56959   1.145  12.165   8.786  0.0221 -0.3017 -0.0712
    1W        W56960  25.945  10.757   0.846  0.0192 -0.2578  0.1370
    1W        W56961   7.355   7.996   1.132 -0.1285 -0.0992  0.0453
    1W        W56962   9.849  27.072   0.938 -0.3725  0.0926  0.0413
    1W        W56963  15.351   3.357   3.343  0.0245  0.0254  0.0917
    1W        W56964  26.532  17.322   1.526 -0.1624 -0.2698  0.1351
    1W        W56965  12.252  14.242   1.543  0.1016 -0.0456 -0.0664
    1W        W56966  15.144  17.505   9.432  0.1737 -0.0487  0.0082
    1W        W56967   3.737   5.456   0.497  0.0402  0.1937  0.0545
    1W        W56968  13.911   8.481   8.724 -0.0168  0.1391  0.0005
    1W        W56969  20.747   9.910   7.643 -0.1570  0.0930 -0.1226
    1W        W56970  12.095  21.614   2.131  0.3440  0.0626  0.1548
    1W        W56971  12.659  11.828   3.605 -0.0413 -0.1032  0.3022
    1W        W56972   2.318  16.772   7.783 -0.2778 -0.2546 -0.1251
    1W        W56973   3.757  14.848   8.676 -0.0004  0.2321 -0.0608
    1W        W56974  21.070  13.658   1.598  0.0094 -0.3165 -0.1437
    1W        W56975   8.177  15.658   9.071  0.2586  0.5187  0.0336
    1W        W56976   8.435  12.892   3.726  0.0977 -0.1042 -0.2012
    1W        W56977  18.979  15.203   9.465  0.3039 -0.2147 -0.0995
    1W        W56978  14.615   9.310   7.333  0.0131  0.2343 -0.2583
    1W        W56979   2.673   9.359   1.132  0.1533  0.0657  0.3783
    1W        W56980  11.910  18.502   2.278 -0.2109 -0.1579  0.1187
    1W        W56981   8.085   2.872   8.764  0.2631  0.1000 -0.1146
    1W        W56982  12.105  20.203   0.850  0.0753  0.1170  0.1941
    1W        W56983  15.258  22.137   8.163  0.2459 -0.1562 -0.2029
    1W        W56984  13.554  16.143   7.621  0.2781  0.0960 -0.2638
    1W        W56985  21.279  27.370   1.960  0.2020 -0.0620 -0.0627
    1W        W56986  12.384  10.603   2.163 -0.2846 -0.4020 -0.2598
    1W        W56987   2.902  22.547   9.663  0.0873  0.0538 -0.0679
    1W        W56988  22.545   5.592  10.161  0.1244  0.1915  0.2369
    1W        W56989  22.922  14.382   9.790 -0.0087  0.0478  0.2057
    1W        W56990  22.928   1.477   0.989 -0.3629  0.1315 -0.1754
    1W        W56991  11.208  21.190   7.558 -0.1484 -0.1920  0.3265
    1W        W56992   2.010  22.313   7.379  0.1659 -0.0356 -0.2659
    1W        W56993  13.376  24.276   2.059 -0.1082  0.0569 -0.0586
    1W        W56994  14.265   1.839   1.881  0.3807  0.0181 -0.0165
    1W        W56995  10.592   6.030   2.537 -0.1913 -0.0655 -0.1651
    1W        W56996  25.732   4.461   0.931 -0.1608  0.1062  0.0033
    1W        W56997   9.442   0.905   0.980  0.0138  0.1121 -0.1603
    1W        W56998  15.286  12.252   0.112 -0.1093 -0.5403 -0.1657
    1W        W56999  13.102   3.348   1.371  0.0239 -0.2474  0.1436
    1W        W57000  26.661  20.932   6.701 -0.1323 -0.0149 -0.1494
    1W        W57001  11.371   6.778   3.346  0.2826 -0.1660 -0.0081
    1W        W57002   4.834   4.150   8.498  0.0219 -0.2030  0.3583
    1W        W57003  11.506   3.741   0.862  0.0905 -0.0514 -0.0309
    1W        W57004  18.080  27.072   2.009  0.0424  0.3478 -0.0127
    1W        W57005  20.835   8.430   8.437  0.0698 -0.2318  0.0712
    1W        W57006  23.449  20.986   1.267  0.0495 -0.2726  0.3491
    1W        W57007  16.611  11.478   1.133  0.0287  0.0273  0.4695
    1W        W57008  12.829   5.476   7.308 -0.0887  0.2583 -0.1445
    1W        W57009  12.787   5.175   1.327 -0.2116 -0.0959 -0.1644
    1W        W57010  25.200   5.873   8.255 -0.0945  0.2289 -0.3966
    1W        W57011  15.168   6.513   0.692 -0.0334  0.2356 -0.0913
    1W        W57012   6.542   5.359   7.096 -0.0486 -0.0345  0.1770
    1W        W57013   5.274  25.078   8.413 -0.0873  0.0444 -0.0326
    1W        W57014  22.870  12.925   9.246 -0.1722 -0.1260 -0.3274
    1W        W57015   2.455  12.213   8.636  0.0777 -0.0276  0.1382
    1W        W57016   4.943  14.177   9.923  0.1856 -0.0068 -0.3662
    1W        W57017   5.802  19.665   8.551  0.0827  0.1014 -0.3580
    1W        W57018  26.771  19.655   0.309 -0.0053 -0.0468  0.0462
    1W        W57019  20.779  19.040   2.327  0.1627 -0.1693 -0.0505
    1W        W57020   9.091  16.556   8.797  0.1956  0.0527  0.1440
    1W        W57021   7.455  15.897   2.591  0.0298  0.2565 -0.1868
    1W        W57022   8.851   3.553   0.527  0.2527 -0.1593 -0.1742
    1W        W57023   3.123   6.485   9.550 -0.4077 -0.2272  0.1877
    1W        W57024   3.433  10.796   9.854  0.0985 -0.2490 -0.0269
    1W        W57025  22.900  10.506   8.388  0.0872 -0.1061 -0.2188
    1W        W57026  24.669   4.997   9.175 -0.1885 -0.0027  0.1323
    1W        W57027  20.094  14.467   1.257 -0.1158 -0.3585  0.3247
    1W        W57028  24.370  27.438   6.769  0.3531 -0.0649 -0.2128
    1W        W57029   4.915  14.826   3.264  0.0017 -0.0343  0.0329
    1W        W57030   2.512  22.991   9.634  0.1190  0.1493 -0.0250
    1W        W57031   2.608  12.879   2.524  0.1938 -0.3547  0.0135
    1W        W57032  20.955  15.098   1.989  0.1713 -0.0586  0.0066
    1W        W57033  19.986  13.518   0.196  0.2378 -0.0920 -0.1317
    1W        W57034  16.720  17.634   3.980  0.0658 -0.1496 -0.1904
    1W        W57035   9.899   5.133   8.413  0.1471 -0.2614  0.0889
    1W        W57036  14.242  14.621   7.631 -0.2234  0.1935 -0.0918
    1W        W57037   3.138   8.716   2.606  0.3814  0.2885  0.1709
    1W        W57038   3.546  12.457   7.785 -0.1631  0.2443  0.1904
    1W        W57039  22.950  26.762   8.019  0.3308 -0.0166 -0.2414
    1W        W57040   1.512   1.443  10.012  0.1236 -0.1570 -0.1171
    1W        W57041  19.666  24.794   2.861  0.1208 -0.1199 -0.0067
    1W        W57042  16.854  21.722   9.679  0.1614 -0.1170  0.3584
    1W        W57043   4.856  19.956   2.289  0.1054  0.0063  0.0388
    1W        W57044   2.395   0.884  10.266 -0.0852  0.2766 -0.2444
    1W        W57045  13.271  18.656   9.456 -0.0752  0.2537 -0.1161
    1W        W57046   3.174  22.835   0.767 -0.2877  0.2196  0.0791
    1W        W57047   0.759  18.486   8.929  0.1990 -0.2712  0.2264
    1W        W57048  14.716  25.741   1.350  0.0901  0.0444  0.0851
    1W        W57049  11.131  26.059   9.339 -0.1309 -0.0147 -0.2262
    1W        W57050  25.727   7.809   0.214  0.0160  0.0071  0.1660
    1W        W57051   4.640  14.331   7.874 -0.2908 -0.2236  0.2787
    1W        W57052  17.129   9.249   7.546  0.1113 -0.2327  0.0774
    1W        W57053  27.396  17.639   9.747  0.1970 -0.0135 -0.3034
    1W        W57054  15.101   4.789   3.374  0.0447 -0.1340 -0.2195
    1W        W57055  23.244  17.129   8.526 -0.2626 -0.1231  0.1189
    1W        W57056  20.166  20.522   7.868  0.1144 -0.1260 -0.3390
    1W        W57057   0.807   7.381   7.174 -0.2258 -0.0006  0.1562
    1W        W57058  19.181  20.985  10.206 -0.0039  0.0785  0.0137
    1W        W57059  21.286  20.195   1.440  0.1669 -0.0878 -0.0169
    1W        W57060  17.014  16.352   4.007  0.0844  0.2127  0.1128
    1W        W57061  17.280  11.093   2.125  0.2377  0.0058 -0.0819
    1W        W57062   7.844  22.155   1.989  0.0792  0.2903 -0.0111
    1W        W57063  11.216   1.180   2.207 -0.1699 -0.2140 -0.0896
    1W        W57064   8.723   4.582   9.301 -0.3608 -0.0738  0.0392
    1W        W57065  14.210   1.222  10.325 -0.2633  0.3257  0.2278
    1W        W57066  26.075  12.868   8.583  0.1521 -0.0394 -0.2416
    1W        W57067  26.767  21.340   0.325  0.0884  0.0091 -0.0074
    1W        W57068  17.837  17.318   8.574  0.2077 -0.0639  0.3355
    1W        W57069   6.685  26.936   2.215  0.0208  0.1140 -0.2067
    1W        W57070  10.270   9.977   7.102  0.1763  0.2974 -0.0376
    1W        W57071   7.387  21.574   2.777 -0.3177  0.0288 -0.2207
    1W        W57072  19.582   5.988   0.661  0.1131 -0.1571  0.0668
    1W        W57073  24.396   1.689   3.015 -0.1015  0.0494 -0.0532
    1W        W57074  26.765  27.509   9.260 -0.3501 -0.0413 -0.0427
    1W        W57075  26.922  18.106   2.155  0.1664 -0.0230 -0.3484
    1W        W57076  15.585  26.087   2.005 -0.1346 -0.0383  0.2547
    1W        W57077  23.430   9.626   9.482  0.2181 -0.2866 -0.4371
    1W        W57078   0.595   7.288  10.043 -0.0138 -0.2085  0.2084
    1W        W57079  20.122  14.621   0.030  0.0149 -0.0414 -0.0693
    1W        W57080   6.201  23.997   0.648 -0.2008  0.0075  0.0409
    1W        W57081  22.270  10.460   2.435  0.2687  0.2824 -0.0747
    1W        W57082   0.869   7.859   7.868 -0.2136 -0.1612 -0.0219
    1W        W57083  26.965  27.595   2.420  0.1660 -0.2316 -0.0025
    1W        W57084  21.013  10.349   7.602 -0.0834  0.0961  0.3832
    1W        W57085   5.654  10.865   3.683 -0.1861 -0.2280 -0.1843
    1W        W57086  18.920  22.209   1.901  0.0994  0.0303 -0.1811
    1W        W57087  20.919   3.287   7.879  0.1537 -0.0079  0.0240
    1W        W57088   0.190   6.153   0.407  0.1302  0.0722 -0.2553
    1W        W57089  22.559  10.061   0.178 -0.3893 -0.0758  0.2676
    1W        W57090   3.405  12.837   0.008  0.1253 -0.1319 -0.1956
    1W        W57091  26.282  20.803   2.822 -0.2493 -0.0216 -0.2054
    1W        W57092  20.034  27.721   8.975 -0.0942  0.0200  0.1344
    1W        W57093   0.266  27.584   2.993  0.0982 -0.0510 -0.3141
    1W        W57094  14.233  12.746  10.152 -0.4706  0.0133 -0.1171
    1W        W57095   8.107  11.654   0.763  0.1286  0.2002  0.0821
    1W        W57096  21.295   7.506   2.445  0.1651  0.2310  0.3509
    1W        W57097  22.530  15.500   1.475 -0.0995 -0.0634 -0.1263
    1W        W57098  20.981  11.928   1.553  0.0639 -0.0275  0.0314
    1W        W57099  11.158  14.801   2.279 -0.0301  0.0743 -0.1400
    1W        W57100  10.229  17.316   2.515  0.1538  0.1634  0.2312
    1W        W57101   7.699  21.466   1.241  0.0738 -0.0068 -0.1007
    1W        W57102  11.941  21.718   9.267  0.0251  0.1366 -0.0765
    1W        W57103   5.948  10.618   9.567  0.3505 -0.0425  0.2844
    1W        W57104  26.918  13.189   2.318 -0.1566  0.3344  0.1313
    1W        W57105  16.499   5.137   9.751 -0.2461  0.0191 -0.4986
    1W        W57106   1.028  24.605   8.558  0.0419  0.0500  0.0633
    1W        W57107  16.398  14.831   3.571 -0.0217 -0.2139 -0.0051
    1W        W57108  24.746  15.203   1.108 -0.1512 -0.1762  0.1366
    1W        W57109   0.838   8.679  10.236 -0.2648 -0.1311  0.0939
    1W        W57110  17.713   1.233   0.761  0.0131  0.0865 -0.1412
    1W        W57111  27.581   5.633   0.181 -0.2876 -0.0949 -0.1907
    1W        W57112  26.785  27.762   8.005  0.1704  0.2715  0.2834
    1W        W57113   1.648   9.687   9.098 -0.0600  0.0815 -0.1333
    1W        W57114   2.846   3.310   6.039  0.2264 -0.0087 -0.0911
    1W        W57115  21.901  18.873   0.715 -0.4436 -0.2777  0.0383
    1W        W57116   2.101  24.233   9.413 -0.1667  0.3547  0.2889
    1W        W57117  21.673  19.340  10.304 -0.0809 -0.1561 -0.0195
    1W        W57118  19.036  20.900   9.581  0.4475 -0.0914  0.0095
    1W        W57119  16.456  25.225   9.612 -0.0878 -0.2095  0.0298
    1W        W57120  25.417   2.818   9.759  0.2569  0.0600 -0.1290
    1W        W57121  13.203  26.998   8.929  0.2341  0.0841 -0.1038
    1W        W57122  22.916   9.522  10.240  0.0986  0.2067 -0.0824
    1W        W57123  22.472   9.863   8.964 -0.1552  0.2005 -0.1380
    1W        W57124   3.769  16.673   2.791 -0.0262 -0.1394  0.4072
    1W        W57125   4.849  13.692   6.981  0.1187  0.0886  0.0452
    1W        W57126  20.613  12.921   0.364  0.0689 -0.0078  0.0319
    1W        W57127   8.896  24.092   7.835 -0.0193  0.0970  0.1244
    1W        W57128  18.501  13.949   8.728  0.0343 -0.2249 -0.0780
    1W        W57129  23.040   9.047   9.975  0.0297  0.0174  0.1843
    1W        W57130   0.511  15.068   8.820  0.1896 -0.0390 -0.2705
    1W        W57131  27.043  22.375   0.579  0.1385 -0.3404 -0.1504
    1W        W57132   3.004   9.191   0.351 -0.3481 -0.2461 -0.1226
    1W        W57133  18.795   9.094   9.685 -0.2945 -0.0829 -0.0774
    1W        W57134  27.311  13.626   0.224 -0.0431  0.0172  0.1139
    1W        W57135  27.027  15.054   1.381 -0.3063  0.3931 -0.2007
    1W        W57136   6.822   1.934   6.639 -0.1059 -0.0510 -0.1611
    1W        W57137   1.428   7.346   7.369  0.0095  0.0490  0.0256
    1W        W57138   1.421  13.652   6.503  0.0055  0.0263  0.0402
    1W        W57139   7.501  18.050   8.479  0.0645 -0.0995  0.3829
    1W        W57140   4.787  25.510   8.392 -0.2991  0.2274 -0.0718
    1W        W57141  16.095  14.185   1.706  0.0917 -0.0973  0.1922
    1W        W57142  20.438  18.554   1.511 -0.0908 -0.2900 -0.0248
    1W        W57143  23.885   1.593   9.888 -0.0281  0.0145  0.0568
    1W        W57144  26.116   5.512   8.122 -0.2163  0.4095  0.2029
    1W        W57145   3.995  19.343   8.976 -0.1833  0.0686  0.1812
    1W        W57146  13.034  24.081   7.051  0.1782 -0.0750 -0.1160
    1W        W57147   5.042  19.957   7.923 -0.3834  0.2216 -0.0666
    1W        W57148  18.041  24.826   2.607  0.0857  0.0934  0.1826
    1W        W57149  26.427  20.885   8.046  0.0262 -0.0434  0.1785
    1W        W57150  24.167  21.002  10.010  0.3560  0.1608 -0.1456
    1W        W57151  15.245  18.321   0.532  0.1908 -0.2553 -0.2266
    1W        W57152   9.759   6.874   8.107 -0.1065 -0.0516  0.0078
    1W        W57153   6.945  18.345   2.053 -0.1502 -0.1174 -0.0320
    1W        W57154  25.865   9.933  10.234 -0.1772  0.0293 -0.2247
    1W        W57155  14.386   3.752   9.475  0.0729  0.0693  0.1956
    1W        W57156  23.672  12.308   9.320  0.0386 -0.1564  0.3056
    1W        W57157  23.835  12.225   8.400 -0.0812  0.2013 -0.0189
    1W        W57158  16.282  15.979   1.022 -0.0932 -0.0290 -0.0532
    1W        W57159   3.331  12.669   3.102 -0.0907 -0.0716 -0.3479
    1W        W57160   1.182  15.318   6.519  0.0007 -0.2394  0.2208
    1W        W57161  10.005  19.368   9.515  0.1195 -0.0778  0.1408
    1W        W57162  22.661   2.884   7.535 -0.0084 -0.0179 -0.0152
    1W        W57163   6.566  22.964   9.618 -0.2644  0.0378 -0.0117
    1W        W57164  10.652   6.397   1.587 -0.2051  0.0143  0.1768
    1W        W57165  27.408  15.857   2.839 -0.0585  0.1857  0.2608
    1W        W57166   9.574  16.671   8.899 -0.2823 -0.1403 -0.1808
    1W        W57167  13.036   5.437   1.742  0.1288 -0.0276  0.2424
    1W        W57168  19.900   2.749   9.532  0.3917 -0.3520  0.3887
    1W        W57169   4.223   0.437   7.774  0.1358 -0.2165  0.2425
    1W        W57170   2.337  10.385   8.524  0.0233  0.2197 -0.2794
    1W        W57171  22.373   5.292   0.248  0.1114 -0.0289 -0.0012
    1W        W57172   3.496  10.166   1.703  0.0763 -0.1594  0.1368
    1W        W57173  22.155  12.242   9.557 -0.0975 -0.0165 -0.0580
    1W        W57174   2.608  12.551  10.208  0.1502 -0.2576 -0.2379
    1W        W57175  14.568   2.438   1.192  0.2573 -0.1673 -0.0636
    1W        W57176  20.616  19.431   9.251 -0.0748  0.0910  0.4079
    1W        W57177  25.389  15.617   1.129 -0.0071 -0.3007 -0.3540
    1W        W57178   2.085   7.049  10.103 -0.3940  0.1142 -0.0494
    1W        W57179   2.730   9.805   8.740 -0.2953  0.2454 -0.0781
    1W        W57180   7.900  27.351   7.909 -0.2464  0.1800  0.0112
    1W        W57181  10.081  18.565  10.309  0.2335  0.1651 -0.0574
    1W        W57182   3.691  14.940   9.455  0.1953  0.0638 -0.1215
    1W        W57183  23.315  14.747   2.588 -0.3407 -0.0798 -0.0587
    1W        W57184   8.267  23.868   3.843 -0.2206 -0.0776  0.0737
    1W        W57185  17.994   7.410   0.380  0.0828 -0.2223  0.0450
    1W        W57186   9.893  24.777   3.337  0.0917 -0.0716 -0.3442
    1W        W57187   4.975   4.972   1.197 -0.0189 -0.3249 -0.0341
    1W        W57188  11.163  14.052   4.393 -0.5703 -0.1198 -0.0055
    1W        W57189  22.726  24.113   2.237 -0.1027 -0.1521 -0.0572
    1W        W57190  19.082  10.761   8.169  0.1638 -0.0385 -0.0502
    1W        W57191   4.491  18.984  10.258 -0.0726  0.0363  0.0561
    1W        W57192   9.527  21.120   7.558 -0.1079 -0.0872  0.1183
    1W        W57193  17.782  21.164   9.650  0.0591 -0.0889  0.1669
    1W        W57194   5.219  26.073   6.667  0.0925  0.2329 -0.0191
    1W        W57195   9.413   4.538   0.946  0.0705 -0.1317  0.0913
    1W        W57196  11.576  26.952   2.240  0.2240  0.3141  0.0608
    1W        W57197  18.224  15.105   7.967  0.1503 -0.2489 -0.0574
    1W        W57198  11.185  13.965   2.236  0.1057  0.0945 -0.1193
    1W        W57199  25.673  18.653   8.887  0.0879  0.0825  0.0384
    1W        W57200   9.078   8.296   1.176 -0.1760  0.1135  0.0063
    1W        W57201   2.205  11.728   9.600  0.0617  0.0134 -0.0506
    1W        W57202  15.744  19.331   9.101 -0.1986  0.2352  0.2883
    1W        W57203   6.078  13.962   6.379 -0.1494 -0.2918  0.0570
    1W        W57204  16.443  16.903   2.668 -0.3558  0.0380  0.0451
    1W        W57205  25.899  15.893   9.219  0.0424  0.1859 -0.1856
    1W        W57206  19.011  24.108   0.769  0.0811 -0.1074  0.1848
    1W        W57207  19.287  16.525   0.778 -0.1290 -0.0249  0.1886
    1W        W57208  12.318  21.503   8.272  0.2380  0.0976  0.1459
    1W        W57209  20.987  17.722   8.988 -0.0859 -0.0394 -0.2007
    1W        W57210   5.460  25.256   1.502 -0.1627  0.1620 -0.0963
    1W        W57211  26.243   0.322   7.065 -0.2344  0.0569  0.1947
    1W        W57212  18.667  10.758   6.972 -0.0165 -0.1424  0.0681
    1W        W57213   5.663  21.286   8.440  0.1999  0.1009 -0.1037
    1W        W57214   3.599   1.162   2.327 -0.0786 -0.1150  0.1423
    1W        W57215   4.158   2.530   0.800 -0.0620  0.1020 -0.0818
    1W        W57216   6.919  23.218   7.715 -0.1696  0.2908 -0.2485
    1W        W57217  10.957  15.564   8.161 -0.0108  0.3436  0.0434
    1W        W57218  18.396   5.097   1.124  0.0769  0.3213  0.3431
    1W        W57219  11.365  21.179   2.329 -0.0960  0.0010 -0.0720
    1W        W57220  23.924  13.649   0.069  0.0715 -0.0173  0.1155
    1W        W57221   6.200  12.687   7.614  0.1504 -0.0594  0.0016
    1W        W57222  23.059   5.058   7.360 -0.1219 -0.4778 -0.1314
    1W        W57223   4.214   3.627   6.221 -0.0893 -0.0567  0.1527
    1W        W57224  21.845  18.566   1.103  0.0723  0.1169 -0.1913
    1W        W57225  20.849  18.106   3.630 -0.0955  0.0442 -0.1236
    1W        W57226  18.472   1.327   3.299  0.0174 -0.1713 -0.0661
    1W        W57227  10.079  26.239   1.258  0.0267 -0.0875 -0.1544
    1W        W57228   9.628  27.832   0.767  0.3433 -0.0854 -0.0021
    1W        W57229   1.889   9.555   0.683  0.0982  0.1393  0.1423
    1W        W57230  16.023   5.622   2.190 -0.1076  0.0933  0.3850
    1W        W57231   4.524  16.740   9.988 -0.0799  0.0301 -0.0469
    1W        W57232  20.566   6.403   1.818  0.3044 -0.1269 -0.1243
    1W        W57233   0.936  19.503   1.441  0.1962  0.0670 -0.1130
    1W        W57234  15.986   2.830   0.136 -0.0480 -0.0457 -0.3020
    1W        W57235  27.847  13.691   9.893 -0.1119  0.1561 -0.1807
    1W        W57236  11.805  13.145   2.177 -0.0305 -0.1994  0.2416
    1W        W57237  14.654  27.758   9.739  0.1496 -0.0902  0.0594
    1W        W57238   7.951   6.493   0.372  0.4184  0.2164  0.1501
    1W        W57239   6.258  19.168   7.949  0.2093  0.0570 -0.0514
    1W        W57240  19.131  10.509  10.321 -0.0664 -0.0022 -0.3623
    1W        W57241  17.797  17.906   0.766  0.3239  0.1618  0.2001
    1W        W57242   6.367  20.421   8.280 -0.0752 -0.0155  0.0008
    1W        W57243   2.671  13.924   0.736 -0.2173 -0.1972 -0.3590
    1W        W57244   2.821   8.569   0.327  0.3578  0.1074  0.1107
    1W        W57245   6.193   8.032   8.073 -0.1750  0.1764 -0.0193
    1W        W57246  14.593   5.550   0.370  0.0369 -0.0620  0.1816
    1W        W57247  21.853  15.692   2.807 -0.3531 -0.0121 -0.0834
    1W        W57248  11.995  10.278   8.115 -0.0836  0.1485 -0.0229
    1W        W57249  12.536   3.697   1.282  0.0755 -0.0232  0.0098
    1W        W57250  16.871   1.971   8.249 -0.0461  0.1030  0.0755
    1W        W57251   8.831   8.566   9.814  0.2375  0.0702 -0.3077
    1W        W57252  26.059  27.673   2.973  0.0202  0.0209 -0.0860
    1W        W57253   0.152  27.493   8.665  0.2076 -0.1658 -0.0035
    1W        W57254  10.394  17.842   2.433 -0.0987  0.1725 -0.2072
    1W        W57255  16.182   3.189   2.941 -0.0195  0.0773 -0.0725
    1W        W57256  23.358   0.656   2.055  0.0400 -0.0279 -0.0072
    1W        W57257  19.702  24.903   9.680  0.0050 -0.0077 -0.0793
    1W        W57258   5.804   5.020   8.626 -0.0766 -0.2753 -0.0602
    1W        W57259   1.494  11.907   7.491  0.1840  0.0138  0.0635
    1W        W57260   7.063  11.979   1.436 -0.1576 -0.0247 -0.1343
    1W        W57261  12.925  22.706   0.066 -0.0768 -0.0445 -0.0212
    1W        W57262  22.576   3.039   9.328  0.0751 -0.2132  0.1307
    1W        W57263  19.051   5.366   8.828  0.0384  0.3020 -0.0813
    1W        W57264  21.409   6.545   0.286 -0.0873 -0.1136  0.2589
    1W        W57265   6.768  15.347   2.736 -0.1025 -0.1902 -0.0702
    1W        W57266  10.653  12.929   2.540  0.2679  0.2682 -0.1443
    1W        W57267  19.208  18.605   2.088 -0.0247 -0.2068  0.1461
    1W        W57268   8.860   2.129   0.872 -0.1560 -0.1587  0.2782
    1W        W57269  10.367   4.983   2.797 -0.2117  0.1961  0.1278
    1W        W57270  17.166   9.502   9.099 -0.0593  0.0489 -0.1670
    1W        W57271  26.705   6.903   9.691 -0.3256 -0.2841  0.0189
    1W        W57272  26.712  21.751   1.194 -0.2444  0.2275  0.2108
    1W        W57273  26.376  25.369   8.472  0.0570  0.1116  0.0591
    1W        W57274  17.096  16.637   1.847  0.0580 -0.0198 -0.3321
    1W        W57275  17.626  21.025   1.654 -0.0152  0.2090 -0.1773
    1W        W57276   5.263  12.841   9.194 -0.0272  0.1387  0.0605
    1W        W57277  12.604   6.950  10.235 -0.1106 -0.1231  0.0228
    1W        W57278  14.411  23.444   7.450  0.0667  0.3370 -0.3020
    1W        W57279   0.947  14.723   8.887 -0.0644 -0.0841 -0.0661
    1W        W57280  25.141  24.268   0.507  0.1500 -0.1473 -0.2238
    1W        W57281  23.440  15.446   8.033  0.1280 -0.2898 -0.2059
    1W        W57282   1.238   3.502   2.399  0.0208  0.0789  0.0876
    1W        W57283   9.803   6.091   2.582  0.0147 -0.1471 -0.2801
    1W        W57284  22.992   9.615   9.272  0.2912 -0.2947 -0.1048
    1W        W57285  13.803  16.113   8.112  0.0839 -0.1412  0.3853
    1W        W57286   3.085  13.116   1.129  0.0728  0.4109 -0.1177
    1W        W57287   2.096   9.495   2.275 -0.0840 -0.1317  0.0591
    1W        W57288  21.839  15.126   1.984 -0.0623  0.0015  0.0859
    1W        W57289  19.324  10.537   9.873 -0.1451  0.1955 -0.0871
    1W        W57290   0.358   7.182   7.369 -0.2189 -0.0758  0.1517
    1W        W57291  11.538  21.157   9.602  0.1064  0.1703  0.0047
    1W        W57292  21.335   5.079   0.310  0.0715 -0.0257 -0.1144
    1W        W57293   0.603  19.925   9.634  0.5021 -0.1248 -0.0677
    1W        W57294   1.753   5.977   9.381  0.2724  0.1363  0.1665
    1W        W57295  14.671   0.313   3.467 -0.1793  0.1839 -0.0561
    1W        W57296   3.673   8.938   7.953  0.0341 -0.0638 -0.3593
    1W        W57297   3.609  15.713   8.826 -0.2567  0.0386 -0.2037
    1W        W57298   6.765   0.230   7.552  0.1624 -0.2220 -0.0050
    1W        W57299  23.969  22.220   0.487  0.2885 -0.1260 -0.2646
    1W        W57300  21.504  13.200   1.177 -0.1804 -0.2202 -0.0497
    1W        W57301  18.771   5.546   9.830 -0.1172  0.2911 -0.1358
    1W        W57302  20.650  22.372   8.160  0.0637  0.4014 -0.2029
    1W        W57303  21.026   1.655   8.579 -0.0660 -0.0307  0.1686
    1W        W57304  26.761  19.330   9.734 -0.4926 -0.0939 -0.0421
    1W        W57305  15.710  11.234   0.786  0.1012 -0.1907 -0.2091
    1W        W57306  26.473   2.695   0.855 -0.2024  0.0330  0.0340
    1W        W57307   1.067  25.974   2.443  0.3781 -0.2568 -0.1304
    1W        W57308   2.769  12.775   9.306 -0.2037  0.0099 -0.0021
    1W        W57309  20.152  17.965   9.938 -0.2043 -0.1656  0.3705
    1W        W57310   6.303  27.802   8.859 -0.2154  0.0894 -0.1519
    1W        W57311  19.077  21.233   8.762  0.0886 -0.0701  0.0599
    1W        W57312  22.324   8.323   7.478 -0.1313  0.0962  0.1825
    1W        W57313  14.808  26.926   9.458  0.1859  0.0666 -0.1823
    1W        W57314  22.541   0.578   3.346  0.2447  0.1040 -0.0267
    1W        W57315  23.651  11.967   8.959 -0.1305  0.0689  0.0499
    1W        W57316  17.425   1.857   2.994  0.1187 -0.3223  0.1112
    1W        W57317  19.274   8.674   8.624  0.2739  0.0502  0.0773
    1W        W57318   4.294   3.894   6.888 -0.0232  0.2159  0.0280
    1W        W57319  21.838  15.611   7.664 -0.0146 -0.1763 -0.1711
    1W        W57320  17.776  26.204   1.646 -0.3272  0.1999  0.0025
    1W        W57321  15.593   1.602   8.558  0.1227  0.1264  0.1764
    1W        W57322   0.589  12.118   0.775  0.0911 -0.0820  0.1865
    1W        W57323   7.715  21.250   9.700 -0.4802 -0.1896  0.3995
    1W        W57324   6.609   0.526   7.907  0.3202 -0.3518  0.0334
    1W        W57325   5.913   0.728   2.693 -0.0833  0.0727 -0.0704
    1W        W57326  26.227   8.587   6.513  0.1981  0.0526 -0.1912
    1W        W57327  14.027  24.075   9.722 -0.2582 -0.3187  0.1453
    1W        W57328  22.215  13.668   9.780 -0.0093 -0.3099  0.1372
    1W        W57329  14.380   9.199   8.987  0.1302  0.0036 -0.0096
    1W        W57330  26.729  23.978   0.498 -0.0236 -0.1427 -0.0361
    1W        W57331  26.486  12.862   1.226 -0.1653  0.1274  0.0255
    1W        W57332  11.112   7.712   8.845 -0.1559 -0.0945 -0.0428
    1W        W57333  18.272  21.459   0.574  0.1575  0.1781  0.3000
    1W        W57334  18.018  19.249   1.252 -0.0588 -0.0102  0.1761
    1W        W57335   6.027   4.072  10.020 -0.2228 -0.0468 -0.0916
    1W        W57336   4.444   1.144   6.947 -0.0324  0.2104  0.0058
    1W        W57337  15.933  25.350   1.484 -0.2833 -0.0370 -0.1064
    1W        W57338  17.212  22.372   0.320  0.1883  0.3570  0.0511
    1W        W57339  10.502  10.342   1.856 -0.2595 -0.0729 -0.0758
    1W        W57340  14.285  19.816   9.230  0.2263 -0.2062 -0.1459
    1W        W57341   3.899   9.778   8.303 -0.1894 -0.4863  0.0741
    1W        W57342   3.824  11.252   1.332  0.1442  0.1073 -0.3161
    1W        W57343  23.689  19.986   2.746  0.1125  0.1062  0.2564
    1W        W57344  24.131  14.815   7.558 -0.0472 -0.1363  0.0984
    1W        W57345  16.082  27.059   0.125 -0.1548  0.0158  0.2920
    1W        W57346   0.523   4.233   6.338  0.2051 -0.0770  0.1644
    1W        W57347   3.816  26.395   1.397  0.1832  0.1661  0.1459
    1W        W57348  23.694  24.236   6.431  0.1390  0.2478 -0.0675
    1W        W57349  10.235   0.712   9.096  0.1507  0.0449  0.1679
    1W        W57350   9.000  12.779   2.387  0.2873  0.1963  0.2073
    1W        W57351  17.113  12.403   2.397 -0.2292 -0.1619  0.1078
    1W        W57352  16.418  20.482   7.632  0.2109 -0.0706 -0.0895
    1W        W57353   0.390  19.867   0.630 -0.0776  0.0887 -0.0033
    1W        W57354   2.819  20.877   9.922 -0.0651  0.1453 -0.2892
    1W        W57355   1.332  16.242   1.681 -0.0292  0.0883 -0.2903
    1W        W57356  21.085  24.148  10.357 -0.0248  0.1616  0.0338
    1W        W57357  14.114  10.002   3.257  0.1713 -0.1313 -0.0361
    1W        W57358  15.782  27.605   4.211  0.1450  0.0233 -0.1901
    1W        W57359  10.063   5.409   0.887  0.0875 -0.1373 -0.4759
    1W        W57360  19.269   7.860   8.283 -0.1531 -0.1076 -0.0785
    1W        W57361   4.927   9.230   0.022  0.0901 -0.2117 -0.2606
    1W        W57362  27.978  26.996   2.866  0.1158 -0.1366 -0.2280
    1W        W57363  14.223  22.672   8.982  0.2010  0.1463  0.1028
    1W        W57364   9.250  11.114   9.254  0.0847  0.0425  0.1706
    1W        W57365   4.873   9.043   9.510 -0.0559 -0.2099  0.0939
    1W        W57366  24.644   0.814   0.530 -0.0722  0.0918 -0.0924
    1W        W57367   6.545  15.117   9.166  0.0094 -0.0500 -0.1024
    1W        W57368  17.658  16.597   9.644 -0.1545  0.0561 -0.2274
    1W        W57369   8.559  16.121   2.414  0.1542 -0.0583  0.3620
    1W        W57370   3.193  20.143  10.157 -0.2434  0.0899 -0.0763
    1W        W57371  24.535   9.577   1.268  0.1617  0.1574 -0.0821
    1W        W57372   4.693   3.535   0.074  0.1655 -0.2244  0.0422
    1W        W57373  23.482  16.287   1.472 -0.3417  0.0674 -0.1020
    1W        W57374  18.172   8.082   1.052 -0.3192 -0.1564 -0.3117
    1W        W57375  20.851  11.525   1.215  0.2372  0.0133  0.2632
    1W        W57376  27.549   9.594   0.382 -0.0241 -0.4964 -0.1722
    1W        W57377   2.682  25.487   1.110 -0.2350  0.2290 -0.0682
    1W        W57378   7.374  22.448  10.052 -0.1571 -0.1395 -0.0295
    1W        W57379  10.091  11.999   1.587  0.1919  0.1087 -0.1515
    1W        W57380  26.841  18.064   0.172  0.1563  0.2369  0.0370
    1W        W57381  11.875   0.977   1.669  0.1003  0.1081 -0.0280
    1W        W57382   2.765  18.829   8.957  0.0961  0.1390  0.3192
    1W        W57383  27.514  22.697   7.472 -0.2733  0.1869 -0.0136
    1W        W57384  21.302  26.171   7.536 -0.0152  0.3596 -0.0755
    1W        W57385  15.817  17.701   7.461 -0.3390  0.0857 -0.1373
    1W        W57386  17.847  12.808  10.237 -0.2374  0.1178  0.3085
    1W        W57387  12.283  15.907   9.552 -0.0684 -0.1417 -0.1931
    1W        W57388   8.326  16.252   1.336  0.0367 -0.1206  0.5262
    1W        W57389  19.464   9.402   1.558 -0.0388 -0.0576 -0.1659
    1W        W57390  21.492   7.129   1.320 -0.2941  0.1767  0.1723
    1W        W57391   7.970  10.806   7.811  0.0676 -0.4871  0.1374
    1W        W57392  15.069   1.779   3.370 -0.2685 -0.3812  0.0242
    1W        W57393  21.079  25.606   2.130  0.1616 -0.0562 -0.1390
    1W        W57394  20.207   7.703   7.742 -0.1782 -0.1141 -0.3020
    1W        W57395  22.039  25.801   2.552 -0.4248 -0.3780  0.1384
    1W        W57396  12.468   5.137  10.086 -0.0603 -0.1955 -0.0189
    1W        W57397  16.389   9.701   1.306  0.3915  0.2306 -0.0313
    1W        W57398  24.360  11.272   6.875 -0.1255  0.2191  0.1548
    1W        W57399  13.407  21.198   0.778  0.0627 -0.3529 -0.2163
    1W        W57400  15.764  21.692   0.919  0.2186  0.2254  0.0620
    1W        W57401  11.098  11.046   8.156 -0.0812  0.2497  0.0202
    1W        W57402  16.096  15.015   1.713  0.0646  0.2247  0.2890
    1W        W57403   3.890   5.079   7.584  0.1175 -0.0084  0.2458
    1W        W57404  25.177  26.332   0.244  0.4738  0.2916 -0.4877
    1W        W57405   9.193  16.563  10.055 -0.2466 -0.0151 -0.0848
    1W        W57406  21.678   2.896   9.777 -0.0789  0.0936  0.3615
    1W        W57407  16.710  11.176   8.194 -0.1825 -0.1020 -0.1468
    1W        W57408  12.955  13.074   0.039  0.0758  0.0621  0.0234
    1W        W57409  26.148  17.069   1.736 -0.0440  0.0292  0.2582
    1W        W57410  12.055  17.226   1.732  0.0237  0.0019  0.0786
    1W        W57411  27.631  26.104   8.525 -0.1353 -0.2586 -0.0693
    1W        W57412  25.974   6.439   9.886 -0.0520 -0.0734 -0.1222
    1W        W57413   9.297  25.053   8.721 -0.2410 -0.1948 -0.1431
    1W        W57414  19.626  16.437   2.658 -0.3231 -0.1017 -0.1675
    1W        W57415   2.542  11.558   7.776 -0.0625  0.2107 -0.1112
    1W        W57416  15.186  24.836   8.479 -0.1406  0.1270 -0.2615
    1W        W57417  22.422  21.485   7.749 -0.3044  0.1889 -0.1476
    1W        W57418  11.620  25.054   7.812  0.1889  0.0860  0.0088
    1W        W57419   1.428  13.133   7.291  0.3644  0.0197  0.0960
    1W        W57420  24.542   0.028   1.729 -0.0010 -0.0541  0.0009
    1W        W57421  20.917  12.395   9.380  0.3208  0.0708  0.2250
    1W        W57422   4.076  27.114   2.321 -0.0691 -0.0271  0.0693
    1W        W57423  15.184  15.431   9.414  0.0008  0.1736  0.1818
    1W        W57424   5.984  18.288   8.526 -0.2437 -0.1814  0.2250
    1W        W57425   5.122  16.611   1.240  0.1115 -0.2152  0.1815
    1W        W57426  16.660  26.940   8.723  0.1582  0.3014  0.2548
    1W        W57427  19.426   3.515   1.894  0.0932  0.2002  0.2178
    1W        W57428  26.316  11.623  10.240  0.0492 -0.0396 -0.1819
    1W        W57429  20.656  17.821   9.874 -0.0412  0.1029 -0.0430
    1W        W57430  17.480  13.212  10.170  0.1539  0.0390  0.5308
    1W        W57431   2.721   1.115   8.596  0.0530 -0.2945 -0.1069
    1W        W57432  19.029  26.017   3.276 -0.3195 -0.1763 -0.1992
    1W        W57433  26.225   8.270   8.197 -0.0778  0.1191  0.1031
    1W        W57434  21.826  25.770   1.210  0.4046 -0.1552  0.3815
    1W        W57435   9.811  15.312   9.219 -0.0713  0.1033 -0.1128
    1W        W57436   7.665   9.181   3.105  0.1506 -0.1473  0.0351
    1W        W57437   4.132  13.786   2.154  0.0862 -0.0774  0.1068
    1W        W57438   7.988   9.794   0.366 -0.2096  0.0902  0.0787
    1W        W57439  17.655  16.125   2.712 -0.0314  0.1492  0.0171
    1W        W57440  11.731  23.607   0.437 -0.0005  0.0046  0.1251
    1W        W57441  12.629  16.106   1.596 -0.0021  0.2602 -0.2644
    1W        W57442   3.070  12.463   7.520  0.2965  0.0625 -0.0222
    1W        W57443  13.369  19.408   8.133  0.2171 -0.1552  0.0832
    1W        W57444  12.610   0.113   2.788 -0.1131  0.1222  0.2609
    1W        W57445  26.765  25.329  10.237  0.0796 -0.0766  0.1299
    1W        W57446  16.318  18.688   2.891  0.3747 -0.1461  0.0908
    1W        W57447  15.946  13.750   3.258  0.0594  0.0760  0.0839
    1W        W57448   4.448   3.754   7.747  0.1129  0.3489 -0.2278
    1W        W57449  15.308  11.518   9.166 -0.0198 -0.2798  0.0577
    1W        W57450  10.631   4.253   1.835 -0.0067 -0.0949 -0.1346
    1W        W57451  11.604   1.177   9.041  0.0760  0.1980 -0.2363
    1W        W57452  18.566  16.430   9.608 -0.0575  0.0288  0.1823
    1W        W57453   8.645  22.074   1.856  0.0360  0.3159 -0.0646
    1W        W57454   7.537  25.683   2.911 -0.0332 -0.0934 -0.4348
    1W        W57455  20.604   6.723   9.994  0.1948 -0.1246  0.3054
    1W        W57456  13.756  13.485   3.064 -0.1997  0.1045 -0.3755
    1W        W57457  22.457   6.157   7.319  0.1387 -0.1376 -0.3798
    1W        W57458  15.723   3.027   8.613 -0.0026  0.2142 -0.2330
    1W        W57459   2.191  13.062   1.936  0.1006  0.1390  0.2472
    1W        W57460  23.027   1.098   2.931  0.1080  0.2598 -0.1561
    1W        W57461  19.728   0.980   8.477  0.0759 -0.1501 -0.0308
    1W        W57462  22.770  12.042   2.886  0.0120  0.2206 -0.0632
    1W        W57463  27.549  14.887   8.568 -0.1253  0.1419 -0.2051
    1W        W57464  14.391  12.575   0.308 -0.0685 -0.0632 -0.0844
    1W        W57465   4.503  19.296   8.994  0.2441  0.2212  0.2590
    1W        W57466  19.850   4.151   2.491 -0.2869 -0.0398  0.1739
    1W        W57467   8.445  12.165   1.253  0.0575 -0.1006  0.1729
    1W        W57468   6.849   1.354   0.823  0.0494  0.1124 -0.0298
    1W        W57469  23.781  19.658   1.766  0.3143  0.0169  0.2466
    1W        W57470   9.033   8.957   1.046  0.2219 -0.0097  0.1941
    1W        W57471  19.362  20.032   8.344  0.1336  0.0288 -0.0289
    1W        W57472  13.332  27.843   9.344 -0.2868 -0.1250  0.1032
    1W        W57473   3.351  18.499   7.029 -0.0883  0.0908  0.0069
    1W        W57474   6.044  24.838   7.304 -0.0414  0.0836 -0.3507
    1W        W57475   4.297   8.883   6.648 -0.1335  0.2818 -0.1485
    1W        W57476  17.232   5.703   2.148  0.2394 -0.0117  0.2253
    1W        W57477  13.366  26.316   8.164  0.1370 -0.4153 -0.0670
    1W        W57478   1.616  25.644   7.123  0.1104 -0.2458  0.1422
    1W        W57479   5.579  27.730   7.725  0.2281 -0.1006  0.4398
    1W        W57480  25.557  20.544   9.288  0.0720  0.0158 -0.1719
    1W        W57481  17.492  26.111   0.727 -0.2045 -0.4042  0.1996
    1W        W57482  21.974  16.361   8.815  0.1692 -0.1593  0.1174
    1W        W57483   9.621  11.958   8.245 -0.0614 -0.0607  0.0184
    1W        W57484   1.550  19.973   9.947 -0.2159  0.1534 -0.0443
    1W        W57485  27.513  16.931   2.385 -0.1723 -0.1893  0.0674
    1W        W57486  10.697   6.165   2.041  0.0039  0.0804 -0.0626
    1W        W57487   8.229  11.192   8.901 -0.0546 -0.1312  0.0201
    1W        W57488  14.557  10.611   1.296 -0.1098 -0.3415  0.1047
    1W        W57489  16.425   9.187   4.496  0.1538 -0.0198 -0.1304
    1W        W57490  17.554  12.970   1.252  0.0157 -0.1134  0.1179
    1W        W57491  11.279  16.076   2.896  0.3825  0.2751  0.0118
    1W        W57492  11.208  17.402   8.605 -0.2452 -0.1844  0.4060
    1W        W57493  17.946  20.203   0.071  0.0124  0.1607 -0.2002
    1W        W57494   1.275   2.521   2.277  0.1119 -0.2199  0.0283
    1W        W57495   3.549   4.185   7.556 -0.1316  0.4138  0.7075
    1W        W57496  21.105   1.813   9.455  0.4992 -0.2200  0.0551
    1W        W57497   9.487  13.936   1.333  0.0921 -0.2707  0.0460
    1W        W57498  21.606  23.203   1.641 -0.2706 -0.3519 -0.2761
    1W        W57499  14.372  26.745   9.764  0.2517 -0.2183 -0.0662
    1W        W57500  23.113  11.793   8.873 -0.1009  0.1446  0.4520
    1W        W57501  12.463  26.170   9.742  0.2193 -0.3479  0.1902
    1W        W57502  15.674  23.855   8.100 -0.0914 -0.2320  0.0111
    1W        W57503  21.779  18.363   1.908 -0.3298 -0.1755 -0.1791
    1W        W57504   3.547   7.713   2.572 -0.0522  0.0477 -0.3350
    1W        W57505  10.266  11.945   3.235 -0.2863  0.3517 -0.0330
    1W        W57506   3.683  25.893   9.161  0.0929  0.0594 -0.0204
    1W        W57507  22.063   9.692   9.741 -0.0538 -0.1508 -0.1201
    1W        W57508  13.484   6.053   8.370  0.2528  0.0582  0.1433
    1W        W57509  25.741  18.201   8.367  0.2353  0.0785 -0.0845
    1W        W57510  13.211  12.851  10.021 -0.0603 -0.2524 -0.1007
    1W        W57511  13.889   3.032   1.005  0.1066 -0.0843  0.0481
    1W        W57512  10.549  18.245   8.461  0.1900  0.2190  0.2022
    1W        W57513  16.217  25.946   0.228 -0.2028 -0.0359 -0.1056
    1W        W57514   1.049   1.608   9.892  0.0451  0.4667  0.1881
    1W        W57515   2.917  16.313   7.156  0.2209  0.3137 -0.3759
    1W        W57516  14.748  20.513   2.797 -0.0044 -0.1595 -0.2300
    1W        W57517  16.703   1.747  10.234 -0.0689 -0.0301  0.2743
    1W        W57518  12.833  18.413   2.037  0.0555 -0.0315  0.2570
    1W        W57519  16.142  24.101   9.110  0.2386  0.2013 -0.0731
    1W        W57520   6.189  21.454   9.720 -0.2882 -0.5127  0.0763
    1W        W57521  23.526  15.872   1.106 -0.0111  0.3079  0.1376
    1W        W57522  17.768  10.116   0.400 -0.0507 -0.0241 -0.1721
    1W        W57523  18.050  20.874   2.863 -0.2716 -0.0338 -0.0541
    1W        W57524   7.838  20.901   9.036  0.0755 -0.1098  0.0372
    1W        W57525  22.131  13.655   2.289 -0.0364 -0.0257  0.1777
    1W        W57526   6.104  19.897   0.515 -0.0128  0.0456  0.4165
    1W        W57527  16.469  27.256   3.482 -0.1370  0.1479  0.0503
    1W        W57528  25.075  23.375   0.225  0.2367  0.1721 -0.1638
    1W        W57529   3.727  10.137   9.666 -0.2442 -0.0590 -0.1795
    1W        W57530  22.853   1.948   0.806  0.3214  0.2873 -0.1000
    1W        W57531   5.589   7.424   9.672 -0.0688  0.2052 -0.1583
    1W        W57532  11.417  11.133   8.675  0.1968  0.3612  0.1404
    1W        W57533  25.733  10.079   8.828 -0.0291 -0.1602 -0.3629
    1W        W57534  26.909   7.796   7.312  0.0284 -0.1077 -0.1886
    1W        W57535  10.231  15.051   9.598 -0.1498  0.2960  0.3467
    1W        W57536   2.814   8.881   6.882 -0.0320  0.0661 -0.0480
    1W        W57537   6.675   6.501   8.864  0.2607  0.0721 -0.2833
    1W        W57538  17.771  21.673   9.667  0.0099 -0.3123 -0.1051
    1W        W57539   5.263   1.709   9.323 -0.3019  0.5072  0.0146
    1W        W57540  12.480  18.799   0.649  0.2582  0.1652  0.0647
    1W        W57541   4.021  28.091   7.543  0.0287 -0.0840 -0.0640
    1W        W57542  20.181   7.057   8.668  0.0596 -0.0812  0.0209
    1W        W57543  27.552  11.469   6.587 -0.0680 -0.0452  0.1108
    1W        W57544  15.224   0.388   2.736  0.0081  0.1448 -0.1094
    1W        W57545   5.051  16.572   9.873 -0.1747  0.0219  0.0378
    1W        W57546  27.387  16.545   1.508 -0.3240  0.1156  0.0634
    1W        W57547   0.304  13.750   3.047 -0.0675  0.2153  0.0011
    1W        W57548   1.243  11.203   7.415  0.0867 -0.0959 -0.0983
    1W        W57549  20.649  19.574   8.391  0.4693  0.2891  0.0689
    1W        W57550  22.350  13.011   7.505  0.2800  0.1054  0.0227
    1W        W57551  15.766   5.657   9.914 -0.1330  0.1494  0.1594
    1W        W57552   5.071  18.785   9.944 -0.0406 -0.0833 -0.0768
    1W        W57553  15.555  16.952   1.758  0.2116 -0.4615 -0.1108
    1W        W57554  17.386  26.570   8.041  0.1998  0.0844  0.0160
    1W        W57555  26.483  27.423   0.945  0.0084  0.0117 -0.2535
    1W        W57556   4.689  10.605   0.240 -0.0121  0.3790 -0.0376
    1W        W57557   2.463  19.509   2.595 -0.0730 -0.1225 -0.2149
    1W        W57558   5.645  16.670   2.839  0.5460 -0.2493 -0.2427
    1W        W57559   3.402  21.665   7.177  0.0043  0.2212  0.3774
    1W        W57560   5.512   7.879   2.252 -0.2936  0.1086 -0.0954
    1W        W57561  26.993   9.060   2.322 -0.0945  0.1299  0.1148
    1W        W57562  16.838  20.855   1.277 -0.3027 -0.1076 -0.3089
    1W        W57563   9.340  21.509   9.052 -0.0399 -0.0370  0.1544
    1W        W57564  17.530   9.339   9.427 -0.3155 -0.0236 -0.1247
    1W        W57565  14.026   3.511   2.082  0.2091 -0.0147  0.0144
    1W        W57566   2.928   4.232   0.530  0.2856  0.1624  0.0087
    1W        W57567   3.412  23.892   0.202  0.0915  0.0617  0.0670
    1W        W57568   1.843   0.075   8.785 -0.2328 -0.2215  0.0662
    1W        W57569  25.815  17.638   9.055 -0.1938 -0.4121 -0.2078
    1W        W57570   5.956   0.087   9.560  0.0750  0.1442 -0.2095
    1W        W57571  22.966  27.535   6.991  0.3843  0.2201  0.0577
    1W        W57572  13.603  24.204   7.786 -0.3120 -0.0682 -0.0281
    1W        W57573   7.310   9.567   1.068  0.1159  0.1494  0.2799
    1W        W57574  19.215  11.768   7.858 -0.0872  0.1580  0.2024
    1W        W57575   1.335  10.910   3.160  0.0835 -0.2384  0.2199
    1W        W57576  27.794  24.784   7.730 -0.2340  0.1192  0.1480
    1W        W57577  26.330   3.562   0.446  0.1850 -0.0772 -0.2354
    1W        W57578   5.078   7.663   8.988  0.1784 -0.1594  0.0577
    1W        W57579  22.760   7.772   8.856  0.0255  0.2730  0.0358
    1W        W57580   8.375   7.537   8.044 -0.0882 -0.0851 -0.1236
    1W        W57581   3.511  18.428   0.589 -0.0477  0.0097  0.1347
    1W        W57582  22.214  14.667   1.297 -0.3851 -0.1843 -0.0119
    1W        W57583  15.855  10.714   9.941 -0.0213 -0.0315  0.5258
    1W        W57584   1.218   9.510   9.638 -0.1659 -0.0818 -0.1012
    1W        W57585  24.876  11.878   1.678 -0.1770 -0.3123  0.2953
    1W        W57586  22.710  24.410   6.638  0.0648  0.0308  0.0224
    1W        W57587  18.027  16.454   0.011 -0.1427 -0.0110 -0.1103
    1W        W57588  22.759   1.218   1.682  0.0271 -0.0462  0.0117
    1W        W57589  27.866  19.532   8.440  0.1610  0.0533 -0.2216
    1W        W57590   2.099  10.802   9.954 -0.0913  0.0508  0.1489
    1W        W57591  22.204  19.310   2.725  0.4434  0.0778 -0.3507
    1W        W57592   4.689  16.292  10.319 -0.1100 -0.0304  0.3110
    1W        W57593  15.331  25.889   3.496 -0.0903  0.3681 -0.2861
    1W        W57594   0.498  11.526   2.156  0.0546  0.0009  0.1014
    1W        W57595  18.750  17.286   1.779  0.2580  0.2790 -0.3243
    1W        W57596   9.255   8.935   2.028  0.1747  0.1529  0.0177
    1W        W57597   6.006  13.126   0.348  0.0715  0.1530 -0.1372
    1W        W57598   5.098  19.528   1.587 -0.1809 -0.0605 -0.1506
    1W        W57599   8.462   9.898   1.583 -0.2813  0.1363 -0.0384
    1W        W57600   2.696  25.874   3.380 -0.3948  0.1671 -0.3806
    1W        W57601  16.044   1.822   8.800  0.1678  0.3002 -0.2164
    1W        W57602  20.037   0.245   9.086 -0.0039 -0.0264 -0.4499
    1W        W57603   5.001  15.995   8.470  0.0195 -0.0852  0.1018
    1W        W57604  11.413   0.051   9.516 -0.1296  0.2224 -0.2279
    1W        W57605   2.362  26.360   0.553 -0.1373  0.2100  0.1223
    1W        W57606  11.643   8.839   2.198 -0.1773  0.1418  0.0207
    1W        W57607  12.844  14.436   3.077  0.3818  0.0198  0.3158
    1W        W57608  18.990   5.156  10.180 -0.0998 -0.1678  0.0509
    1W        W57609   0.723   0.367   7.697  0.1523 -0.1574 -0.0132
    1W        W57610   6.462   0.021   1.072 -0.2346 -0.2058 -0.0714
    1W        W57611  15.215  11.745   1.831 -0.2261  0.0452  0.0489
    1W        W57612  12.581   2.549   8.386 -0.0194 -0.2543 -0.1266
    1W        W57613   7.497  17.865   9.965  0.2669 -0.2959  0.1059
    1W        W57614   5.208   2.241   0.005 -0.2458 -0.0000 -0.0671
    1W        W57615   8.654   7.781   2.246  0.0937  0.0029  0.5449
    1W        W57616   2.788  22.860   7.723 -0.0272  0.0818  0.0533
    1W        W57617  27.079  25.058   9.074  0.0327 -0.2315 -0.2701
    1W        W57618  11.500  18.089  10.244  0.0780  0.0118 -0.0654
    1W        W57619   6.446  14.318   9.387 -0.0881 -0.4319 -0.3231
    1W        W57620   4.862   2.503   7.537  0.0956  0.2232  0.2548
    1W        W57621  18.048  13.525   7.804 -0.0926 -0.1370  0.2277
    1W        W57622   4.365  19.129   2.698  0.1106  0.1551 -0.3349
    1W        W57623  11.348  20.786   2.725  0.2620  0.0865 -0.0053
    1W        W57624   8.337   5.766   1.347 -0.1008 -0.1405 -0.3038
    1W        W57625  19.725   3.771   2.237  0.0692 -0.0636 -0.2928
    1W        W57626   1.816  15.930   8.926  0.1913  0.0302  0.1551
    1W        W57627   2.529   9.258   5.925 -0.0800  0.0578  0.0707
    1W        W57628  22.940  21.685   2.712 -0.0570  0.3079 -0.0853
    1W        W57629   2.218  20.172  10.352  0.1807  0.3414  0.0971
    1W        W57630   4.909  23.769   1.927  0.0723 -0.0027 -0.1393
    1W        W57631  13.452  21.414   2.615 -0.3378 -0.1028 -0.0980
    1W        W57632  20.889  14.792   2.843 -0.0641  0.2980 -0.1524
    1W        W57633  25.894   7.417   1.914 -0.2087 -0.1320 -0.1988
    1W        W57634  13.605   6.974   2.233 -0.2309  0.0939 -0.1325
    1W        W57635   5.097   0.454   8.049 -0.2303 -0.3666  0.1604
    1W        W57636   7.114  13.478   9.615  0.0516 -0.0900 -0.0420
    1W        W57637   9.772   6.895   8.768  0.2823  0.1743 -0.0700
    1W        W57638   1.576  21.125  10.176 -0.4861  0.0033 -0.3688
    1W        W57639   6.898   1.517   1.454  0.0233 -0.0692  0.1055
    1W        W57640  27.249  18.071   8.100  0.2236  0.0467  0.0509
    1W        W57641  26.720  20.925   7.635  0.1660 -0.2170 -0.1809
    1W        W57642  23.717  21.062  10.325  0.0110 -0.1638 -0.4096
    1W        W57643   1.740   4.096   9.560  0.0406 -0.0512 -0.1175
    1W        W57644  24.842  24.601   7.721  0.0923  0.1479 -0.0703
    1W        W57645   4.748  13.066   6.779 -0.2847  0.1757 -0.0993
    1W        W57646   9.984  22.883   9.068 -0.0068 -0.2251 -0.4575
    1W        W57647   1.959   2.482   1.159 -0.1497 -0.2512 -0.2406
    1W        W57648  15.069  15.702   9.006  0.1811 -0.0243  0.0915
    1W        W57649  16.894  16.892   3.671  0.0363  0.3055  0.0208
    1W        W57650  23.598  25.968   9.035 -0.2947 -0.1291  0.0692
    1W        W57651  19.612  26.228   2.338 -0.0266 -0.0887 -0.0819
    1W        W57652  10.494   0.237   1.031  0.0385  0.1292  0.0534
    1W        W57653  13.731  17.148   9.405 -0.0424 -0.1260  0.1803
    1W        W57654  14.578  20.228   9.407 -0.2250  0.0182  0.1453
    1W        W57655   6.173  11.749   1.431  0.1629 -0.2665  0.3065
    1W        W57656  17.142  13.763   7.840  0.2393 -0.2359  0.0764
    1W        W57657  27.293  25.255   1.698 -0.2859  0.1950  0.0280
    1W        W57658   5.477  23.885   8.033  0.2041  0.1028 -0.1427
    1W        W57659  26.213  27.751   7.714 -0.0974 -0.3575 -0.2541
    1W        W57660   9.676  20.923   3.024  0.1043 -0.3800 -0.0682
    1W        W57661   0.321   2.353   1.905 -0.0763  0.3327  0.0140
    1W        W57662   6.868   9.752   2.551 -0.0516 -0.0797  0.2593
    1W        W57663  12.234  22.120   9.023  0.0474 -0.1378  0.2183
    1W        W57664  20.649   9.040   0.606  0.0780 -0.1638 -0.0270
    1W        W57665  13.431  11.824   1.366  0.4983 -0.1839 -0.1382
    1W        W57666  26.794  13.628   0.219 -0.1893  0.1614 -0.1262
    1W        W57667  18.475   7.536   8.023 -0.0911 -0.1155  0.0233
    1W        W57668  27.161   0.594   8.755  0.0905  0.3672  0.2986
    1W        W57669  19.577   1.170   2.708 -0.2845 -0.2569  0.3802
    1W        W57670  16.820  14.360   8.930 -0.1951  0.3274  0.0580
    1W        W57671  11.939  27.902   9.573 -0.1385 -0.0933  0.0819
    1W        W57672   2.581   7.015  10.271 -0.0984  0.4577 -0.0147
    1W        W57673   3.148  21.182   1.150  0.0712 -0.1419 -0.2166
    1W        W57674   4.863  20.163   1.549  0.2233 -0.1348 -0.0806
    1W        W57675  24.882  27.580   8.086 -0.2356 -0.1606  0.0874
    1W        W57676  11.660   4.005   0.269  0.1785  0.0733  0.0119
    1W        W57677  17.609  25.337   1.857  0.1345  0.1681  0.0086
    1W        W57678  24.207   7.838   0.940  0.3361 -0.1332  0.0480
    1W        W57679   0.188  25.158   3.104  0.4328  0.2556  0.4235
    1W        W57680  10.063  18.011   8.344  0.4210  0.1505 -0.0341
    1W        W57681  18.352   0.188   9.819 -0.0214  0.1141 -0.0119
    1W        W57682  25.607  20.020   8.375 -0.0701  0.2905  0.2165
    1W        W57683   0.890  15.473   0.895 -0.1234 -0.2447 -0.0124
    1W        W57684   8.568  12.865   0.427 -0.1448  0.0075  0.0528
    1W        W57685   2.127  19.641   0.411  0.3293  0.1449  0.0414
    1W        W57686   7.642  10.647   9.823  0.2026  0.1334 -0.1740
    1W        W57687  27.333  15.666   1.992 -0.1147 -0.1549 -0.0123
    1W        W57688  16.410  25.245   9.106 -0.2205 -0.1243  0.0244
    1W        W57689   7.201  14.274   2.473  0.3738 -0.2852  0.0077
    1W        W57690  18.878  15.627   0.716  0.1202 -0.2266 -0.2384
    1W        W57691  15.852  11.207   4.096  0.1733  0.0359  0.0750
    1W        W57692  10.491   2.122   2.923  0.2212  0.3328  0.0321
    1W        W57693  10.030  20.676   2.115  0.0181  0.2335 -0.1012
    1W        W57694  17.297  27.040   2.582  0.3298 -0.1156 -0.3685
    1W        W57695  25.232   9.292   0.636 -0.2088  0.2036  0.1141
    1W        W57696  18.730  27.243   8.113  0.1318  0.1918  0.0320
    1W        W57697  20.529   9.617   1.554  0.2512 -0.1003 -0.2446
    1W        W57698  11.075   2.571   2.217  0.0284 -0.0722 -0.4261
    1W        W57699   2.971  15.494   3.277 -0.0152  0.3829 -0.3351
    1W        W57700   0.120  25.679   2.507  0.0179  0.0228 -0.3046
    1W        W57701  20.729   3.484   6.565  0.1061 -0.2695  0.0737
    1W        W57702  23.829   9.419   0.585  0.0412 -0.0219 -0.0879
    1W        W57703  16.879  17.878   8.446 -0.0920 -0.0982 -0.2246
    1W        W57704  20.222  20.349   0.036  0.1058  0.0097 -0.2322
    1W        W57705  10.682   7.838   8.564  0.1627 -0.0166 -0.3887
    1W        W57706  16.250  27.035   8.413  0.0750  0.0761 -0.0424
    1W        W57707   7.965   4.786   9.761 -0.1546 -0.2937 -0.3678
    1W        W57708  13.751   7.476   1.545 -0.2247  0.0801 -0.1667
    1W        W57709  21.267   0.943   0.403 -0.2746  0.2152 -0.0208
    1W        W57710  26.045  23.047   7.679 -0.0198  0.1679 -0.2432
    1W        W57711   0.500  22.603   2.003  0.1064 -0.2858 -0.0973
    1W        W57712  26.190   8.766   2.302 -0.3166  0.1579 -0.1710
    1W        W57713  24.546  22.434   7.086 -0.0675 -0.1071  0.0856
    1W        W57714   6.782  15.113   2.261 -0.3543 -0.2044  0.1090
    1W        W57715  14.530  22.392   2.875  0.0614 -0.0974  0.1091
    1W        W57716   5.697  23.290   0.066  0.0220  0.1120  0.1337
    1W        W57717  16.678  13.312   1.288  0.0080  0.1296 -0.0862
    1W        W57718  17.125  13.390   3.560 -0.0932  0.0020  0.2088
    1W        W57719   7.827   5.475   0.231 -0.0346  0.1061  0.0973
    1W        W57720   1.702  15.010   8.095  0.2034 -0.1553 -0.0292
    1W        W57721  13.663   4.714   1.730 -0.1515 -0.2087  0.0181
    1W        W57722  16.215  23.849   0.285  0.3676  0.1444 -0.2009
    1W        W57723  22.299  27.973   0.211 -0.0469  0.0091 -0.0605
    1W        W57724  19.358  20.580   0.050 -0.0724  0.2224  0.2057
    1W        W57725   7.441   0.265   1.268  0.0444 -0.4169 -0.0977
    1W        W57726  15.655  19.950   3.428 -0.1241  0.2753  0.1017
    1W        W57727  13.114  12.298   3.713 -0.1205 -0.0260 -0.0528
    1W        W57728   6.748  13.131   9.821 -0.0550 -0.0604  0.3346
    1W        W57729  12.273   7.758   1.580  0.1833 -0.0245  0.2408
    1W        W57730  25.424  10.381   9.931 -0.0441 -0.2373 -0.2001
    1W        W57731  10.875   1.312   8.181  0.3150  0.0188 -0.1447
    1W        W57732  24.143  25.640   7.517 -0.2099 -0.0878  0.1856
    1W        W57733  16.045  18.145   2.168  0.1014 -0.1758  0.1384
    1W        W57734  25.550  20.265   9.901 -0.3166  0.3469 -0.0581
    1W        W57735  22.474  15.659   8.634 -0.0991  0.1669  0.0301
    1W        W57736  13.581  12.449   0.617 -0.2517 -0.0093  0.1767
    1W        W57737  20.132  19.871   6.998 -0.0371 -0.1150  0.1343
    1W        W57738  27.209  26.794   8.839  0.0568 -0.1877 -0.0892
    1W        W57739   6.913  11.606   0.340 -0.2748 -0.3922  0.1372
    1W        W57740   2.747   1.326   9.139 -0.0340 -0.3091 -0.0765
    1W        W57741   7.141  24.214   8.638 -0.2014  0.0083 -0.4302
    1W        W57742  21.443   2.877   0.344 -0.1662  0.1387  0.1005
    1W        W57743   7.256  16.625   8.622  0.2080  0.0892 -0.2272
    1W        W57744  25.279  11.216   8.934 -0.2396  0.2536  0.0962
    1W        W57745  26.631  27.577   0.513 -0.1543 -0.1721 -0.1116
    1W        W57746  11.136  13.490   9.811 -0.1740 -0.2797 -0.1542
    1W        W57747  16.304  11.448   2.920  0.0441  0.0092 -0.1079
    1W        W57748  12.510  17.072   8.356 -0.2922  0.2118  0.4693
    1W        W57749  23.132   2.577   3.089 -0.0274 -0.0978  0.1541
    1W        W57750   1.632  22.463   7.731 -0.1502 -0.2008  0.0095
    1W        W57751   3.521  21.777   6.627 -0.2445 -0.1512  0.2447
    1W        W57752  11.036  24.789   2.729  0.2566  0.1630 -0.1752
    1W        W57753  10.183   9.914   9.139 -0.0026  0.0825  0.1347
    1W        W57754  14.845  24.381   3.393  0.0345  0.1935 -0.2283
    1W        W57755  27.729  11.670   9.697  0.0146  0.2813  0.1468
    1W        W57756   2.711  19.633   9.340 -0.4187  0.1067 -0.0094
    1W        W57757  26.819  21.342   9.590  0.3840 -0.3077  0.0428
    1W        W57758  12.391  24.483   2.117 -0.0035 -0.0383  0.1434
    1W        W57759   3.581  10.735   3.580  0.0788  0.1655 -0.1300
    1W        W57760   0.500  18.242   2.946 -0.2927 -0.1287 -0.2406
    1W        W57761  15.677  22.893   2.404 -0.0580 -0.0234  0.0763
    1W        W57762  25.631   8.641   8.761 -0.4869  0.1000 -0.2530
    1W        W57763  24.518  14.619   8.795 -0.1851  0.1677  0.1911
    1W        W57764  28.034   6.908   0.836  0.0407 -0.1237  0.0606
    1W        W57765  19.090  25.090   2.500  0.0961 -0.3830  0.1852
    1W        W57766  13.026   7.330   2.822  0.2938 -0.0067 -0.0864
    1W        W57767  21.991   2.048  10.215  0.4793  0.0349 -0.3794
    1W        W57768   3.009  24.796   0.170 -0.0257 -0.2418 -0.1114
    1W        W57769   3.631  19.042   9.324  0.2057  0.2256 -0.3946
    1W        W57770   0.120  20.525   1.414 -0.1760 -0.1696 -0.2044
    1W        W57771  13.078   5.899   1.663 -0.2139  0.0931  0.2696
    1W        W57772  21.048  14.150   1.593  0.1472 -0.0381  0.0397
    1W        W57773  16.701  13.597   7.570 -0.0673  0.1774  0.1244
    1W        W57774   5.556  26.467   0.975 -0.1389  0.2780  0.3124
    1W        W57775  19.937   2.255   3.040  0.1126 -0.3229 -0.1458
    1W        W57776  20.044  27.183   8.284  0.1045  0.0508 -0.0349
    1W        W57777  24.290  16.050   1.644 -0.0065  0.2392  0.3526
    1W        W57778  25.444  15.101   7.617 -0.0617 -0.1455  0.0434
    1W        W57779   8.685  14.087   3.186  0.0054  0.1313 -0.0473
    1W        W57780  15.491   2.689   8.296 -0.2203 -0.0082 -0.2735
    1W        W57781  16.827  24.434   9.173 -0.0615 -0.0890 -0.2601
    1W        W57782  13.726  21.296   0.273  0.1105  0.0235 -0.0204
    1W        W57783   8.451  18.291   1.857 -0.0719 -0.3100  0.0191
    1W        W57784   4.704  20.875   2.068  0.0212 -0.1120  0.0920
    1W        W57785  27.672  10.200   9.872  0.0566 -0.0654  0.1162
    1W        W57786  14.493  19.689   1.573  0.2304  0.0794  0.1192
    1W        W57787  18.411   2.458   2.557 -0.1353  0.0791 -0.1029
    1W        W57788   4.423  19.407   0.681 -0.0260  0.1614 -0.0123
    1W        W57789  19.865  17.665   2.612  0.1395  0.0284 -0.2793
    1W        W57790  27.260   9.678   9.241 -0.0691 -0.1219  0.1669
    1W        W57791  14.491  24.908   9.597  0.2779 -0.1962  0.1163
    1W        W57792  18.834  16.015   8.380  0.0850  0.2672  0.3462
    1W        W57793  14.026  10.657   8.906  0.0753 -0.2480  0.0880
    1W        W57794   4.008   2.369   1.239  0.2254 -0.1001  0.0148
    1W        W57795  11.492  22.445   1.272  0.0355  0.0676  0.0356
    1W        W57796  22.057  14.439   8.759 -0.0885  0.2530 -0.1308
    1W        W57797  12.263  23.017   0.116  0.1327  0.0248 -0.3014
    1W        W57798  14.133  24.765   2.056 -0.4003 -0.0606 -0.0149
    1W        W57799   3.234  11.822   9.660  0.0033 -0.1383 -0.1120
    1W        W57800  19.007   4.191   1.126 -0.0139  0.0695 -0.1685
    1W        W57801  26.750  24.739   2.958  0.1100  0.0821  0.1682
    1W        W57802   1.966   3.291  10.243 -0.0825  0.3614  0.2633
    1W        W57803   6.966  10.129   8.966 -0.0030 -0.2226  0.1711
    1W        W57804   9.860  15.924   9.878  0.1597 -0.1689  0.1880
    1W        W57805  11.473  24.261  10.230 -0.1742 -0.1726  0.0287
    1W        W57806   8.706   8.222   1.520 -0.0610  0.1888  0.1446
    1W        W57807   3.045   4.417   6.196  0.0942 -0.0593 -0.0244
    1W        W57808   7.915  11.459   2.303 -0.3497  0.1607 -0.0118
    1W        W57809  12.179  21.813   1.701 -0.0328  0.2286  0.2059
    1W        W57810  20.737  15.693   8.880 -0.0053  0.1557  0.0106
    1W        W57811   4.164  24.765   2.856  0.2764  0.3293  0.1270
    1W        W57812  14.499  14.401   9.505  0.0948 -0.0301 -0.2662
    1W        W57813   2.700  24.519   7.567 -0.0400 -0.1427  0.2244
    1W        W57814  18.967   4.538   8.919  0.0098 -0.1706  0.2882
    1W        W57815  26.784   7.731   9.841  0.0791 -0.3147  0.1380
    1W        W57816   3.689   5.145   6.383  0.3118  0.1992  0.2258
    1W        W57817  11.909  22.218   0.822 -0.3493  0.0596  0.0837
    1W        W57818   3.548  21.350   0.459  0.0373  0.0217  0.0219
    1W        W57819  23.071  16.590   0.637 -0.3499 -0.1120 -0.0624
    1W        W57820  16.665  25.181   8.650  0.1213 -0.1571  0.0839
    1W        W57821  10.789  17.138   8.456 -0.2844 -0.2082  0.2520
    1W        W57822  16.803   7.505   1.884 -0.2167  0.0897  0.0987
    1W        W57823  24.206  17.645   7.355  0.0700  0.1518 -0.1315
    1W        W57824  17.685  26.100   9.133 -0.1278  0.2273  0.0394
    1W        W57825   7.454  26.891   2.339  0.3263  0.1530 -0.4871
    1W        W57826  10.084   2.402   2.766  0.0751  0.1672 -0.3688
    1W        W57827  22.080   0.719   8.001  0.5178  0.1302  0.4887
    1W        W57828  12.237   1.796   2.235  0.2049  0.1919 -0.0757
    1W        W57829  18.603  20.926   9.867 -0.1999  0.0142 -0.1285
    1W        W57830  23.854  25.666   1.275  0.2663  0.1176  0.0588
    1W        W57831  19.274   2.387   8.919 -0.1070 -0.1543  0.0716
    1W        W57832  21.992  27.130   8.215  0.2861  0.1042  0.0247
    1W        W57833  21.286   1.345   3.457 -0.1913  0.1419 -0.1233
    1W        W57834  11.157  11.529   0.671  0.0916 -0.1614  0.2490
    1W        W57835   9.960  24.379   9.198  0.3387  0.0068  0.0479
    1W        W57836  24.193  18.182   8.879 -0.0716 -0.1131 -0.5128
    1W        W57837   5.514  23.859   1.166  0.0100  0.0926 -0.0252
    1W        W57838  15.455  10.866   3.102  0.2041  0.1026  0.0253
    1W        W57839  16.960  25.946   0.481  0.2015  0.3846  0.3892
    1W        W57840  13.652  19.872   1.321  0.0320 -0.0138  0.1701
    1W        W57841  14.676  27.734   9.236  0.1500 -0.1466  0.0286
    1W        W57842  15.350  21.849   9.236 -0.1681 -0.1234  0.0021
    1W        W57843  10.922   1.300   1.314 -0.1465  0.2862  0.0286
    1W        W57844  17.091  16.099   3.555  0.3447  0.0018 -0.0634
    1W        W57845  24.350  11.733   9.739  0.1682  0.1165  0.2270
    1W        W57846  22.019   6.811   2.505 -0.0322 -0.0180 -0.1731
    1W        W57847   6.132   6.639   7.646  0.1201 -0.2496 -0.2916
    1W        W57848   5.428  22.447   0.479  0.1743  0.0812 -0.0790
    1W        W57849  23.575  17.757   7.455  0.0501  0.1262  0.1248
    1W        W57850   3.763   8.874   6.833 -0.1514  0.0852  0.1638
    1W        W57851  19.324  10.095   2.611  0.1442  0.2187 -0.2134
    1W        W57852  27.521   2.027   2.659 -0.0481 -0.0498 -0.1845
    1W        W57853  10.899  18.869   0.061  0.2704 -0.0398 -0.0716
    1W        W57854   6.865  13.164   7.857 -0.2082  0.4560 -0.1431
    1W        W57855   7.569  22.835   9.323 -0.0576  0.0550  0.0883
    1W        W57856  27.206  12.860   1.440 -0.1336  0.0063  0.0058
    1W        W57857   6.376  22.928   3.167 -0.1896  0.0228  0.2267
    1W        W57858   8.003   2.604   9.757  0.0548  0.1961 -0.1019
    1W        W57859  25.074   6.825   3.378 -0.1661  0.0614  0.0045
    1W        W57860  23.231  14.945   2.083  0.0549 -0.1150 -0.2090
    1W        W57861  15.944  23.634   7.715 -0.1125 -0.2513  0.1690
    1W        W57862  20.769  26.935  10.226 -0.2759  0.2160  0.4335
    1W        W57863  16.488   9.878   1.815 -0.0245  0.1718  0.0016
    1W        W57864  10.360  17.840   8.726 -0.1311 -0.0853 -0.5141
    1W        W57865  27.726  23.163   8.406  0.0508 -0.1426 -0.1188
    1W        W57866  10.688  24.690   9.263  0.3711 -0.4236  0.1962
    1W        W57867  17.170  21.675   3.372 -0.0308  0.2768 -0.0925
    1W        W57868   0.362   0.330   8.576  0.0007 -0.2064 -0.2424
    1W        W57869   4.821   8.415  10.109  0.0141 -0.1579  0.0953
    1W        W57870  10.318  27.341   2.659 -0.0456  0.0749  0.0833
    1W        W57871   0.087  12.926   7.394 -0.0443 -0.2672  0.1881
    1W        W57872   4.889  19.015   3.442 -0.1275 -0.0512  0.1866
    1W        W57873  15.000  15.648   3.439  0.0413 -0.1855  0.2583
    1W        W57874   1.675  13.716   3.190  0.1337  0.1328 -0.0019
    1W        W57875  10.914   9.885   0.091 -0.5734  0.4151  0.0698
    1W        W57876   2.410  22.109   7.549 -0.2202  0.1046 -0.2778
    1W        W57877  27.077   1.110   7.760  0.0879 -0.0572  0.0965
    1W        W57878   3.735  11.506   9.152  0.1692 -0.0570 -0.1053
    1W        W57879  27.421  14.973   7.202  0.2257 -0.0944 -0.0174
    1W        W57880   9.639  24.252   9.648  0.1534  0.1130 -0.1266
    1W        W57881   6.182   3.723   0.112  0.1388 -0.0282 -0.1298
    1W        W57882   6.347   4.573   0.879  0.2686 -0.3156 -0.1284
    1W        W57883  18.618  14.429   8.643 -0.2367 -0.1069  0.0872
    1W        W57884   5.978  14.429   2.394  0.0658  0.0247 -0.2174
    1W        W57885   3.170  25.292   2.111 -0.0345 -0.0769  0.0011
    1W        W57886  10.282   6.760   8.894 -0.5363  0.0982  0.0109
    1W        W57887  14.803  18.504   8.103 -0.0674  0.1374 -0.1801
    1W        W57888   0.417  18.504   9.328 -0.1525 -0.0675 -0.2054
    1W        W57889  24.878  22.765   6.984  0.2781  0.0276  0.2381
    1W        W57890  24.811  13.389   2.674 -0.1103  0.1380 -0.2320
    1W        W57891   4.839  16.631   8.301 -0.0290  0.2880  0.1430
    1W        W57892   1.423  14.753   1.964  0.0723 -0.2219  0.0714
    1W        W57893  16.899   9.119   9.980 -0.1094  0.0722 -0.0775
    1W        W57894  14.466  17.512   9.698 -0.2983  0.1767 -0.1933
    1W        W57895  11.963  14.010   0.410 -0.0597  0.3112  0.2422
    1W        W57896   7.082  17.758   0.956 -0.0383  0.0062  0.1275
    1W        W57897  19.231  15.903   0.463 -0.0436  0.0852 -0.3671
    1W        W57898  19.085  27.896   2.475 -0.3889  0.1213 -0.0380
    1W        W57899   1.202  24.770   1.598 -0.1632  0.0038 -0.0250
    1W        W57900  18.981   5.052   1.127  0.0088 -0.1652 -0.0090
    1W        W57901  17.124   3.042   8.204 -0.0797  0.0585  0.0205
    1W        W57902   9.367  17.938   3.878 -0.2903  0.0389  0.1217
    1W        W57903   2.143  26.084   2.537  0.2832  0.0331 -0.2020
    1W        W57904  20.836  20.396   2.583 -0.1175 -0.0052  0.0439
    1W        W57905  17.367   3.114   3.879  0.1462  0.1479  0.0347
    1W        W57906   7.315  22.470   1.326 -0.1767  0.1972  0.0078
    1W        W57907   3.350   3.993   9.984 -0.1319  0.0930  0.1656
    1W        W57908   3.068  19.642   2.491 -0.1126  0.1305  0.0659
    1W        W57909  24.518   7.084   7.038  0.0160  0.1960  0.1167
    1W        W57910   2.817  22.234  10.007 -0.1807  0.1341 -0.1896
    1W        W57911   0.991   9.617   2.242  0.0805 -0.0349 -0.0646
    1W        W57912  22.020   4.825   1.004 -0.1201  0.1154  0.0358
    1W        W57913  11.140  22.020   1.208 -0.0065 -0.1587 -0.0429
    1W        W57914  23.143   8.668   6.886  0.1761  0.0327 -0.0586
    1W        W57915   8.966  17.339   3.358 -0.2642 -0.0312 -0.0738
    1W        W57916   8.219  22.893   8.635  0.0566  0.2445 -0.0617
    1W        W57917  26.079  19.342   0.763  0.0768 -0.0994 -0.1668
    1W        W57918  26.106   7.081   0.859  0.1012  0.0771 -0.1366
    1W        W57919  14.245  14.062  10.336  0.2164  0.0707 -0.1164
    1W        W57920  20.592  20.717   0.114  0.0514 -0.3102 -0.0006
    1W        W57921  28.118   0.006   1.907  0.0069  0.3899 -0.1664
    1W        W57922  11.614  14.823   8.029 -0.2983  0.0228  0.0503
    1W        W57923   4.008  24.859   8.555  0.0529  0.4497  0.1708
    1W        W57924  25.031   9.070   7.481  0.0215  0.1020  0.2824
    1W        W57925   4.697   0.103   6.811 -0.1558 -0.1071 -0.0674
    1W        W57926  12.144   2.540   8.077  0.1367  0.0951 -0.0646
    1W        W57927  14.627  10.314   8.917 -0.0668 -0.3197 -0.1951
    1W        W57928   1.927   1.272  10.222  0.2717  0.0907 -0.0354
    1W        W57929   0.515   2.983   7.043 -0.0151  0.1237  0.3762
    1W        W57930  15.478  23.417   8.291 -0.1671  0.0349 -0.0435
    1W        W57931   8.223  16.525   0.431  0.1706  0.0400  0.0821
    1W        W57932   8.243   1.476   7.720 -0.0804  0.0031  0.0223
    1W        W57933  24.996   6.287   8.955 -0.0369 -0.3007 -0.0920
    1W        W57934  23.436   8.284   9.780 -0.1048 -0.1955 -0.0939
    1W        W57935   5.460   8.558   5.698  0.1412  0.2256  0.0178
    1W        W57936  14.162  22.690   1.344  0.0420 -0.1717  0.1156
    1W        W57937  19.646  10.584   0.017  0.2126 -0.0020 -0.0455
    1W        W57938   8.146  27.565   0.870 -0.0730  0.2886  0.0852
    1W        W57939   1.272   2.001   1.489 -0.0983 -0.0673 -0.0738
    1W        W57940  18.818  14.174   2.210  0.4092 -0.2351  0.0185
    1W        W57941  17.662  11.100   1.225 -0.1755  0.2429 -0.2656
    1W        W57942  16.668  27.687   9.512 -0.2183  0.2218  0.0481
    1W        W57943  10.943  27.938   3.208 -0.1826  0.1603 -0.1014
    1W        W57944  10.131   2.866   9.471 -0.0605 -0.1597  0.2723
    1W        W57945  13.283   8.561   1.839  0.1764  0.0625  0.1674
    1W        W57946   5.454   4.722   1.015  0.2440  0.1018 -0.4285
    1W        W57947  23.337  25.514   1.255  0.0330 -0.0518  0.2306
    1W        W57948   5.960  10.832   7.704  0.1523  0.1504  0.0764
    1W        W57949   3.443  10.689   0.924 -0.3066  0.0377  0.1695
    1W        W57950  27.390   4.269   8.265 -0.4902  0.0439  0.1503
    1W        W57951   1.166  24.806   1.099  0.1796  0.0415  0.2277
    1W        W57952  27.429  12.218   3.176 -0.1496  0.1066  0.2039
    1W        W57953   6.939  21.452   3.532  0.1813  0.0288 -0.0711
    1W        W57954   5.580  11.730   7.616  0.4415 -0.1468 -0.3051
    1W        W57955   8.074   1.797   8.959  0.2767 -0.1953 -0.1716
    1W        W57956  20.443  11.522   2.205  0.2287  0.1265 -0.0388
    1W        W57957  25.325   7.798   7.297 -0.0847 -0.1123  0.0353
    1W        W57958  16.855  16.331   2.968  0.0700 -0.0362 -0.4787
    1W        W57959  16.296  22.636   2.783 -0.1101 -0.1166 -0.0095
    1W        W57960  10.984  27.702   1.917 -0.0757  0.0575  0.0672
    1W        W57961  11.706  16.733   8.076 -0.1581 -0.1425 -0.2389
    1W        W57962  12.810  11.232   1.172 -0.1602 -0.2496 -0.0583
    1W        W57963  27.825   3.517   2.340 -0.2579 -0.1292 -0.1868
    1W        W57964  26.352  22.105   1.267 -0.0575  0.0503 -0.1574
    1W        W57965  22.909  18.711   7.165  0.3065  0.0335 -0.0336
    1W        W57966  17.358   1.118   0.244 -0.0934 -0.0018 -0.1013
    1W        W57967  17.238   6.768   8.559  0.3651 -0.0513 -0.1884
    1W        W57968  27.309  21.697   7.431  0.1279 -0.1590  0.3862
    1W        W57969  12.832  16.072   2.925 -0.1020 -0.1770  0.1583
    1W        W57970  21.643   1.210   0.494 -0.3221 -0.2523 -0.0880
    1W        W57971  16.639  25.994   7.183  0.2336 -0.2858 -0.0156
    1W        W57972  19.449  27.640   3.509  0.0302 -0.1007  0.4660
    1W        W57973   6.498   9.794   0.118  0.0379 -0.2469  0.1588
    1W        W57974  21.084  19.497   0.767  0.2580  0.0577 -0.0317
    1W        W57975  23.725   6.474   8.472  0.0269  0.2457  0.1024
    1W        W57976   9.627  18.249   9.474  0.1142  0.0941  0.0448
    1W        W57977   3.915   2.288   9.159 -0.2255  0.1367  0.1496
    1W        W57978  25.684  16.252   1.194 -0.1133 -0.0492 -0.0887
    1W        W57979  19.829   3.890   8.903 -0.1443  0.0960 -0.2812
    1W        W57980  26.406  13.408   6.863  0.0639  0.1800 -0.2000
    1W        W57981  26.647  14.556   0.676 -0.2352  0.0170  0.0420
    1W        W57982   8.472  11.095  10.019 -0.1202 -0.0199  0.0319
    1W        W57983  13.601   3.158   3.143 -0.0771  0.2229  0.1212
    1W        W57984  20.107   5.938   0.709  0.2485 -0.0015  0.0244
    1W        W57985  26.145  21.522   6.317 -0.1674 -0.1546  0.0627
    1W        W57986   0.531   3.138   1.554  0.0753 -0.0823 -0.0182
    1W        W57987  20.285  20.486   0.486 -0.0903 -0.1409  0.0933
    1W        W57988  21.767   6.596   2.914  0.2520  0.1399  0.2488
    1W        W57989   1.000  26.724   0.546  0.1195 -0.4570  0.0716
    1W        W57990  15.059  17.664   1.920 -0.2353  0.1565 -0.2718
    1W        W57991  23.050  20.428   0.231  0.0824  0.1002 -0.1280
    1W        W57992  13.431  15.238   0.330  0.1654 -0.0045  0.0453
    1W        W57993  25.646  20.081   3.048  0.3096  0.1013  0.2638
    1W        W57994  18.225  21.523   3.449 -0.1348 -0.0020  0.0579
    1W        W57995  23.003  25.394   7.222  0.1565  0.1397  0.2487
    1W        W57996   6.204  15.760   6.885  0.3281 -0.3891 -0.0135
    1W        W57997   2.586   2.652   2.123 -0.0245  0.0395  0.2683
    1W        W57998  10.205  11.274   8.512 -0.2240  0.0677 -0.2629
    1W        W57999   0.507  12.368   7.896  0.1367 -0.0882 -0.2155
    1W        W58000  25.060  19.364   1.742  0.0952  0.3557  0.1499
    1W        W58001  27.354   9.196   7.066 -0.0184 -0.0664  0.0836
    1W        W58002  27.842  18.747   7.283  0.1271  0.1371 -0.3263
    1W        W58003  20.560   9.356   9.404 -0.0120 -0.0739  0.1356
    1W        W58004   9.617  17.929   2.276  0.0652 -0.0925 -0.0521
    1W        W58005  21.448  26.123   3.608  0.0627  0.4331  0.2881
    1W        W58006  21.509  17.929   9.557  0.1624  0.1215 -0.2414
    1W        W58007  11.165  11.023   1.687  0.2172  0.1697  0.0534
    1W        W58008  12.707  28.092   9.239 -0.1157  0.0081 -0.4167
    1W        W58009   0.588  25.372   8.538 -0.0691  0.1420 -0.0646
    1W        W58010  15.918  24.289   2.728 -0.1201 -0.3783 -0.2537
    1W        W58011  11.400  16.074   7.498 -0.2973 -0.1046  0.0394
    1W        W58012   3.608  25.112   8.065  0.3655 -0.2649 -0.0345
    1W        W58013   5.786  18.945   0.302  0.0619  0.0756  0.0067
    1W        W58014  10.683   2.913   1.536  0.0565  0.0325 -0.1753
    1W        W58015  11.194   4.712   0.076  0.2613 -0.2497  0.1924
    1W        W58016   0.609  18.632   7.005 -0.3061  0.1330  0.1774
    1W        W58017   8.108   3.247   1.217  0.0331  0.0103  0.0164
    1W        W58018   4.103   4.926   1.346 -0.2128 -0.0640  0.2523
    1W        W58019  18.850   1.525   1.337  0.0962  0.3020 -0.0711
    1W        W58020  26.490  23.945   7.575 -0.1931 -0.2526 -0.2870
    1W        W58021  17.449  10.963   1.656  0.0097  0.0626 -0.0222
    1W        W58022   0.240  14.773  10.062  0.1183 -0.0534 -0.0016
    1W        W58023  26.007   8.260   0.053 -0.3561  0.0036  0.0653
    1W        W58024  19.673  15.066   2.768  0.0826 -0.0203  0.5428
    1W        W58025  14.645  12.903   0.674 -0.0556 -0.0933 -0.2514
    1W        W58026  23.241  10.595   2.620  0.0252  0.1982  0.1433
    1W        W58027   1.065   2.803   0.101  0.1964 -0.2110  0.1892
    1W        W58028  15.403  12.536   2.064  0.0237  0.1559 -0.1346
    1W        W58029  25.130  12.311   0.715  0.2784  0.0408  0.1791
    1W        W58030  25.896  15.900   9.768  0.2524 -0.1478 -0.0049
    1W        W58031   2.478  18.323   0.444  0.0272 -0.0186  0.2560
    1W        W58032   4.943  16.193   2.589  0.1296 -0.0917 -0.4182
    1W        W58033   8.572   1.019   1.535  0.4822  0.0342 -0.2382
    1W        W58034  10.689   0.318   9.890  0.3089  0.0312 -0.0797
    1W        W58035   9.495  10.299   7.482 -0.1815 -0.2606 -0.1001
    1W        W58036  14.793   0.645  10.094  0.2732  0.0003  0.0260
    1W        W58037  27.871  16.627   1.886 -0.0462  0.4858 -0.2016
    1W        W58038  12.698  16.214   1.045  0.0378 -0.2910  0.0742
    1W        W58039  16.796   5.044   0.432 -0.2142 -0.1321  0.0885
    1W        W58040   2.509  17.594   8.502 -0.0913  0.0377 -0.2438
    1W        W58041  22.856   6.373   8.966  0.3033 -0.0500  0.1067
    1W        W58042  13.327  13.623   1.432  0.2820 -0.1179  0.3139
    1W        W58043  23.837  24.740   3.273 -0.0858 -0.1518  0.1678
    1W        W58044   9.703   3.321   2.348 -0.1108 -0.0924  0.3032
    1W        W58045  11.797  10.359   1.422  0.1045  0.0358 -0.2001
    1W        W58046   1.238   0.949   9.118  0.1381 -0.2123 -0.0856
    1W        W58047  18.870  20.711   2.988 -0.0272 -0.3703 -0.0710
    1W        W58048  20.226   6.771   1.830 -0.0056  0.1772 -0.3297
    1W        W58049   7.313   8.744   3.227 -0.2162 -0.0328  0.2000
    1W        W58050   6.342  14.723   0.448 -0.1795  0.0351 -0.0582
    1W        W58051  15.468  24.271   8.432  0.1158 -0.1658  0.0792
    1W        W58052  27.348   2.559   0.206  0.2373 -0.1519 -0.0181
    1W        W58053   1.135  26.681   8.017  0.1615  0.0445 -0.1778
    1W        W58054  25.198   4.364   7.248 -0.2245 -0.2936  0.0335
    1W        W58055   9.739  26.088   2.176 -0.1740  0.3473 -0.1162
    1W        W58056  27.639  20.203   3.166  0.0167  0.1534 -0.3453
    1W        W58057  16.222  19.230   0.402 -0.2167 -0.2984  0.1417
    1W        W58058  19.691  10.276   0.876 -0.0391  0.0663  0.0202
    1W        W58059   6.824   2.800   0.968  0.0171  0.0599  0.3201
    1W        W58060  24.920   1.477   3.695 -0.0966 -0.2982  0.0317
    1W        W58061  11.823  23.459   7.913  0.2893 -0.0818  0.2212
    1W        W58062  26.965  18.309   7.751  0.1250  0.0380 -0.0246
    1W        W58063   5.507   1.123   7.863  0.1465  0.1241  0.2882
    1W        W58064   2.097  27.004   7.578 -0.3776 -0.4570  0.0836
    1W        W58065   4.022  23.962   8.085  0.0484  0.1798 -0.1218
    1W        W58066   7.043   9.564  10.362  0.0624  0.3006  0.0710
    1W        W58067  24.180  17.199   0.526 -0.1671 -0.2783 -0.2321
    1W        W58068  12.631  14.207   1.873 -0.1224  0.2803  0.1433
    1W        W58069  22.292  21.148   1.760 -0.2282  0.3070  0.0614
    1W        W58070  17.496  11.596   0.319 -0.0299 -0.0472 -0.0361
    1W        W58071  15.480  25.988   7.652  0.0519  0.2793  0.3023
    1W        W58072  26.477  23.444   7.678 -0.0700 -0.1050  0.0158
    1W        W58073  18.892   8.579   1.984  0.0987 -0.0967  0.0605
    1W        W58074   6.583  26.736  10.181 -0.1578 -0.2543  0.3534
    1W        W58075   6.045  23.616   7.232  0.1528 -0.2001 -0.1624
    1W        W58076   8.164  16.479   7.250 -0.2947  0.1946 -0.0197
    1W        W58077   8.328   6.066   7.893 -0.1570 -0.3741 -0.2931
    1W        W58078  18.360  11.716   2.011  0.1760 -0.1214  0.0625
    1W        W58079  21.956  10.050   0.622 -0.0813  0.1284  0.1808
    1W        W58080  27.260  17.841   0.321 -0.1757 -0.0008 -0.1078
    1W        W58081  21.676  24.255   7.492 -0.5621 -0.0410 -0.0702
    1W        W58082  20.351  21.146   1.959 -0.1989  0.0713  0.1498
    1W        W58083  27.089  19.189   8.679 -0.2193 -0.3209  0.0279
    1W        W58084   9.480   1.838   8.940 -0.1242 -0.1020  0.2650
    1W        W58085  18.402  15.248  10.126  0.1410 -0.0303  0.3400
    1W        W58086  12.297  11.528   0.445 -0.1261 -0.2613 -0.1607
    1W        W58087  18.097   0.705   3.701  0.0718 -0.0325  0.0347
    1W        W58088  13.539  16.977   2.096  0.2125  0.3292  0.0649
    1W        W58089   9.267   6.167   1.967  0.0172 -0.0605 -0.1428
    1W        W58090  21.695   6.470   2.298 -0.0446  0.1972 -0.2112
    1W        W58091   0.151  15.946   7.011 -0.1768 -0.0493 -0.2940
    1W        W58092  19.173   1.905   1.125  0.2674 -0.4458  0.1250
    1W        W58093  16.899  10.871  10.253  0.0537 -0.1003  0.1484
    1W        W58094  24.872   2.894  10.054  0.0863  0.2013  0.0422
    1W        W58095  14.024  12.569   8.368 -0.0850 -0.3305  0.0527
    1W        W58096   9.576  24.747   2.028  0.3480 -0.1916  0.2963
    1W        W58097  10.700   3.682   2.181  0.3258 -0.4304  0.1821
    1W        W58098  24.519  27.011   9.414  0.1805 -0.0998  0.4073
    1W        W58099  11.118   7.154   9.287 -0.0239 -0.3287 -0.1707
    1W        W58100  11.971  16.337  10.194  0.2538  0.2114  0.1069
    1W        W58101   7.913   7.076   0.984 -0.0448  0.4757  0.1047
    1W        W58102   5.490   6.173   9.028 -0.1450  0.0407 -0.0768
    1W        W58103  27.888   5.264   9.768  0.1193  0.2225 -0.0270
    1W        W58104   2.236  16.531   9.649  0.3392 -0.1414 -0.3385
    1W        W58105  16.970  24.630   2.915 -0.0115  0.0479  0.1758
    1W        W58106  10.388  20.849   3.412 -0.3150  0.0774  0.0079
    1W        W58107   2.202   1.932   6.776  0.5407 -0.0034  0.0051
    1W        W58108   2.363  27.795  10.274 -0.0016  0.0732  0.1302
    1W        W58109  13.326  25.133   1.045  0.0556 -0.0524  0.0016
    1W        W58110   7.289  16.433   1.393  0.2316 -0.2258  0.0691
    1W        W58111   5.795   7.117  10.159 -0.2292  0.0074 -0.2429
    1W        W58112  22.333  21.319   0.438 -0.1226  0.2578  0.1833
    1W        W58113  22.612  24.096   4.017  0.2064  0.2994  0.0348
    1W        W58114  15.055   8.978   1.855  0.1735 -0.2273 -0.0766
    1W        W58115  22.288  18.829   2.951 -0.2278 -0.1849  0.2535
    1W        W58116  13.821  20.671   3.389 -0.0452 -0.1100  0.1004
    1W        W58117  20.720  17.835   8.166 -0.1199  0.0084 -0.0506
    1W        W58118   5.813  20.201   8.467 -0.0511 -0.0484 -0.2150
    1W        W58119  14.882   5.841   2.704 -0.0132 -0.1762  0.0831
    1W        W58120  17.455  14.615   0.459 -0.1152  0.1863  0.4311
    1W        W58121   1.107   4.197   8.905 -0.0369 -0.2866 -0.0069
    1W        W58122  18.273  21.722   7.670  0.2104  0.3860  0.0906
    1W        W58123  17.925  27.859   8.039  0.3043  0.1974 -0.2017
    1W        W58124  19.527  12.734   0.915  0.3216 -0.1248  0.0549
    1W        W58125   4.251  23.578   1.822 -0.0647 -0.0287 -0.0939
    1W        W58126  16.063   0.118   0.925 -0.0361 -0.0218  0.0036
    1W        W58127  16.835  26.464   9.398 -0.2762  0.2437  0.0255
    1W        W58128  23.689   7.434   0.516  0.1330 -0.0480  0.1254
    1W        W58129  19.496  18.312   8.108 -0.0876  0.0195 -0.0530
    1W        W58130  16.134  25.033   8.671 -0.1267  0.0844 -0.3606
    1W        W58131   9.416   6.490   8.043 -0.4436 -0.1197  0.0872
    1W        W58132  14.804  13.463   2.546  0.2645  0.1089 -0.1097
    1W        W58133  15.529  10.208   3.903  0.2078 -0.1252 -0.0746
    1W        W58134  20.199  23.048   8.848  0.0931 -0.0386 -0.1553
    1W        W58135  27.462   5.103   2.303  0.0394 -0.1072  0.3692
    1W        W58136   3.270  13.013   7.596  0.1826  0.1113 -0.0496
    1W        W58137  28.008   7.712   8.821  0.2128 -0.1855 -0.0682
    1W        W58138   7.491  25.076   9.703 -0.3330  0.1624  0.0847
    1W        W58139   5.734  25.850   6.483 -0.1879  0.2439 -0.0642
    1W        W58140  19.532   6.608   9.898 -0.2974  0.0590 -0.1234
    1W        W58141   8.729   9.421   8.244 -0.0921 -0.1368 -0.0178
    1W        W58142  24.444  18.043   1.744 -0.3409  0.1102 -0.4898
    1W        W58143   6.923  13.864   2.752 -0.0269  0.0454 -0.1562
    1W        W58144  22.796  13.210   0.591  0.0469  0.0434  0.0681
    1W        W58145  25.428   4.767   7.365  0.0475  0.1584  0.0118
    1W        W58146   3.346  20.630   9.173  0.1311 -0.1098 -0.2736
    1W        W58147  25.148   0.062   1.817 -0.1590  0.0532  0.0825
    1W        W58148   3.375  16.360   8.746  0.1211 -0.2740  0.1176
    1W        W58149  13.720   8.158   3.122 -0.2228 -0.1453 -0.1784
    1W        W58150   9.290  18.111   7.317 -0.6103 -0.4408 -0.2709
    1W        W58151  18.968  20.835   9.034 -0.1521  0.0061 -0.1931
    1W        W58152  16.763  25.800   7.705 -0.1655 -0.1668  0.0401
    1W        W58153   0.821  24.408   2.265  0.0510  0.1962  0.1509
    1W        W58154   5.865  24.845   7.756 -0.4104  0.1138 -0.0707
    1W        W58155   2.052  17.880   9.277 -0.2505 -0.2515 -0.1424
    1W        W58156  24.800  24.350   6.688 -0.2549 -0.2352  0.1388
    1W        W58157  24.723   3.026   2.502  0.2405 -0.2202 -0.2228
    1W        W58158  12.646   9.449   8.932 -0.2800 -0.1376 -0.1878
    1W        W58159  14.764  15.224   9.080  0.0501  0.0207  0.3193
    1W        W58160  24.305  16.542   2.553 -0.3376 -0.0406  0.1376
    1W        W58161   6.508   9.244   3.058 -0.3138  0.1544  0.0322
    1W        W58162   8.947   5.374   2.804 -0.0510 -0.0646 -0.0027
    1W        W58163  13.106   7.454   9.181 -0.0550  0.2848 -0.0091
    1W        W58164  26.764  14.965   2.763  0.1705 -0.0614  0.4092
    1W        W58165   9.723   5.613   3.139  0.2772 -0.0944 -0.1458
    1W        W58166  21.725  24.390   3.582  0.0934 -0.0225 -0.2244
    1W        W58167  13.923  15.570   0.351 -0.1339  0.0791 -0.0597
    1W        W58168  10.556   8.198   0.936 -0.0981 -0.0017 -0.0481
    1W        W58169  12.118  13.222   1.767 -0.1659  0.1783 -0.2164
    1W        W58170  14.688   7.777   9.233 -0.1787  0.0907 -0.0486
    1W        W58171   2.800  20.195   3.081 -0.4497 -0.0716  0.1673
    1W        W58172  20.345   6.794   8.197 -0.3810  0.1021 -0.3930
    1W        W58173   7.780  10.018   9.453 -0.2482  0.3235 -0.0368
    1W        W58174  22.870  18.699   2.846  0.0111  0.0198  0.1858
    1W        W58175  24.715   1.452   7.038 -0.0198  0.2511  0.0734
    1W        W58176   9.099  11.717   0.131  0.1332  0.0895 -0.3071
    1W        W58177  25.297   6.988   8.408  0.2462 -0.0240  0.0237
    1W        W58178  22.763  11.579   9.604 -0.1306 -0.1099 -0.0273
    1W        W58179  26.558  12.782   8.882 -0.0719  0.1905  0.0032
    1W        W58180  28.048   7.872   9.388  0.1944 -0.0068  0.2569
    1W        W58181   3.290  16.541   9.934 -0.3503 -0.1684  0.0583
    1W        W58182  17.661  18.923   1.485 -0.1199  0.1967 -0.1682
    1W        W58183  23.314   7.537  10.286 -0.0628  0.1120  0.1876
    1W        W58184   3.386  14.629   0.468 -0.2603 -0.1270  0.0801
    1W        W58185  10.322   2.998   8.099  0.0608  0.2927  0.3080
    1W        W58186  23.679   4.323   1.029 -0.0669 -0.0840 -0.0848
    1W        W58187  12.568   3.356   9.760 -0.2572  0.0650  0.1729
    1W        W58188  27.001  11.202   1.450 -0.0380 -0.1080 -0.1234
    1W        W58189   4.184  14.620   0.507  0.2569  0.0105  0.2445
    1W        W58190   0.092   9.592   7.589 -0.0170 -0.0762  0.2179
    1W        W58191  26.415  14.319   9.010  0.2877  0.2625 -0.0688
    1W        W58192  11.130   1.297   2.788  0.3321  0.1375  0.1850
    1W        W58193  18.587  27.657   0.421 -0.0087  0.1582  0.0342
    1W        W58194  21.565   9.726   3.065  0.2509  0.1338 -0.0910
    1W        W58195  24.486  25.193   1.444 -0.1002 -0.0313 -0.1541
    1W        W58196   7.224  11.567   1.164  0.2013  0.2520  0.2066
    1W        W58197  21.016   5.381   1.689 -0.1270  0.0105  0.0328
    1W        W58198  17.373  21.587   0.708  0.5427  0.1204 -0.1047
    1W        W58199   9.729  25.111  10.168  0.0959 -0.1142 -0.3079
    1W        W58200  19.151  21.278   1.064 -0.0865  0.0025  0.0899
    1W        W58201  23.142   7.969  10.212 -0.0793 -0.2294  0.0923
    1W        W58202  15.465   8.116   8.289 -0.2012  0.1699 -0.0409
    1W        W58203  20.084   2.779   1.938 -0.0310 -0.0904 -0.1456
    1W        W58204   3.754  11.753   8.069 -0.2178 -0.1330  0.2346
    1W        W58205  22.693  27.388  10.245  0.1143  0.1962 -0.5509
    1W        W58206  18.394  23.450   1.704  0.1113 -0.0114 -0.1670
    1W        W58207   2.245  24.086   8.960  0.2854  0.3572  0.0072
    1W        W58208  27.719   3.958   6.751  0.3547 -0.1773  0.0427
    1W        W58209  14.046   2.901   8.480 -0.0389  0.0104  0.2413
    1W        W58210   5.803  25.051   8.231  0.1908 -0.0532 -0.1556
    1W        W58211   6.360  15.568  10.097  0.0854 -0.0847  0.5046
    1W        W58212   7.606  11.232   1.968  0.2258  0.1731  0.1850
    1W        W58213   0.736   0.259   8.206 -0.0253 -0.1706  0.1832
    1W        W58214   0.988  27.670   7.606  0.0625  0.0583 -0.0891
    1W        W58215  19.182   9.037   1.810  0.1227 -0.1972 -0.3830
    1W        W58216  10.612  14.140   2.262  0.0876 -0.0631  0.0341
    1W        W58217   0.474  19.989   7.265 -0.0713 -0.0613  0.0652
    1W        W58218  13.841  12.580   0.175  0.0435 -0.0316  0.0153
    1W        W58219   4.721  11.272   9.349  0.0937 -0.0934  0.1009
    1W        W58220   0.528  20.810   0.091 -0.0103  0.2445 -0.1927
    1W        W58221  26.724   1.339   8.403 -0.0047 -0.2816 -0.1599
    1W        W58222  17.840  22.057   7.134  0.1512  0.0790  0.1978
    1W        W58223  16.954  14.975  10.104 -0.1241 -0.1685  0.1223
    1W        W58224  23.083  26.512   9.029 -0.1310 -0.0691  0.2800
    1W        W58225   5.327   3.747   0.692  0.2274 -0.1888  0.2592
    1W        W58226  11.620  13.320   3.601 -0.0130  0.0818 -0.2661
    1W        W58227  11.923   4.082   9.719 -0.0161  0.2952 -0.0480
    1W        W58228  26.465   1.316   0.013 -0.1454  0.3155 -0.0915
    1W        W58229  11.746   3.582  10.311 -0.0368 -0.2930  0.0065
    1W        W58230  14.751  20.685   9.649  0.3275 -0.0946 -0.1064
    1WF      WF58231  17.374  23.091   8.646  0.0636  0.2099 -0.0641
    1WF      WF58232  24.127   3.111   0.829 -0.1595  0.0812 -0.2195
    1WF      WF58233  14.214  23.711  10.280 -0.1159  0.0803 -0.3487
    1WF      WF58234   7.113  24.512   0.181 -0.1412 -0.2031  0.1518
    1WF      WF58235   1.357  10.224   2.327 -0.2865 -0.1529  0.0663
    1WF      WF58236   1.821  26.293   0.210  0.2228  0.0599 -0.0408
    1WF      WF58237  11.018  10.218   8.953 -0.1106  0.1412  0.1814
    1WF      WF58238  26.733  20.849   1.522  0.1007 -0.0135  0.3159
    1WF      WF58239   0.556  16.747   1.391  0.2567  0.1230  0.0403
    1WF      WF58240  26.263  25.593   0.831 -0.0058  0.1972 -0.2546
    1WF      WF58241  25.570   0.859   1.179  0.2264 -0.0169  0.1041
    1WF      WF58242  21.393  18.047   2.301  0.0556 -0.1090  0.3266
    1WF      WF58243  27.338  24.766   8.578 -0.0593 -0.2596 -0.0529
    1WF      WF58244  18.567  12.598   3.716  0.0304  0.0131 -0.1928
    1WF      WF58245  14.473  13.873   9.011  0.2375 -0.1382 -0.1188
    1WF      WF58246   3.782   7.674   9.603 -0.1381  0.0449  0.2567
    1WF      WF58247  25.258   2.807   1.117  0.2040 -0.1549 -0.3686
    1WF      WF58248   0.227   8.663  10.120  0.2387 -0.2518 -0.1937
    1WF      WF58249   7.786   7.828   8.981 -0.2064 -0.2573 -0.2413
    1WF      WF58250  20.128   1.743   7.769  0.2343  0.0160 -0.2473
    1WF      WF58251  21.973  19.251   7.135 -0.1962  0.1684  0.4135
    1WF      WF58252  18.031  24.255   2.652  0.0356 -0.1910  0.0656
    1WF      WF58253   8.141  22.714   1.896  0.2671 -0.0860  0.4491
    1WF      WF58254   4.517  24.788   1.698  0.2784  0.1382  0.1476
    1WF      WF58255   0.471  21.882   9.595  0.0472  0.0541  0.0120
    1WF      WF58256   8.090  23.580   2.898 -0.0426  0.1491 -0.0313
    1WF      WF58257  17.353  16.224   1.003 -0.2023 -0.1468  0.0127
    1WF      WF58258  14.972  12.231   1.541  0.0029  0.3041  0.0905
    1WF      WF58259  25.437  20.963   8.010  0.1695  0.0781 -0.1532
    1WF      WF58260  10.704   7.298   7.657 -0.0242 -0.2097  0.0288
    1WF      WF58261  23.236   2.182   8.246  0.2028  0.3686  0.0250
    1WF      WF58262   3.372  14.115   9.020  0.2103  0.1779 -0.0436
    1WF      WF58263  23.746   6.008   9.448  0.1584 -0.1400  0.0661
    1WF      WF58264   8.803   4.041   1.369  0.2521  0.0623  0.1616
    1WF      WF58265  20.268  12.291   1.711 -0.1478  0.2848  0.0787
    1WF      WF58266  19.242   9.973   1.891 -0.1725  0.1633 -0.0711
    1WF      WF58267   5.066  19.757   0.632 -0.1069  0.1127 -0.1908
    1WF      WF58268  20.972   6.333   7.232  0.0901  0.0765  0.2146
    1WF      WF58269   4.327  17.276   1.727  0.0243 -0.0394 -0.1014
    1WF      WF58270  16.811  16.081   2.103  0.1693  0.2280 -0.0435
    1WF      WF58271   9.287   8.821   9.509  0.0320  0.0778  0.0098
    1WF      WF58272  10.871  12.574   9.886 -0.2413  0.0810 -0.0311
    1WF      WF58273   7.359  25.935   0.341  0.2535 -0.0902  0.0182
    1WF      WF58274  15.152   4.485   8.498  0.0294  0.1128  0.2844
    1WF      WF58275  26.695  18.264   8.943  0.3074  0.1333 -0.0378
    1WF      WF58276  26.266  21.589   9.845  0.0565  0.1075  0.0201
    1WF      WF58277  14.341  26.068   9.453  0.1855 -0.1981 -0.0783
    1WF      WF58278  13.392   2.052   8.587 -0.2603 -0.0471 -0.2625
    1WF      WF58279  14.319  17.982   9.025  0.2862 -0.4391 -0.1226
    1WF      WF58280  20.890  27.399   0.185 -0.4950 -0.2299 -0.3084
    1WF      WF58281   9.531   3.969   8.935 -0.0382 -0.0414 -0.2986
    1WF      WF58282  15.464  28.080   1.264  0.1206  0.0478 -0.0552
    1WF      WF58283   7.502  22.409   0.354 -0.1232 -0.1404 -0.4516
    1WF      WF58284   7.862   2.542   1.168  0.0846  0.1072  0.3741
    1WF      WF58285  14.057  16.363   9.905  0.0454  0.1566 -0.2395
    1WF      WF58286   8.146   8.596   9.166 -0.2270  0.2155  0.0003
    1WF      WF58287  22.090  18.150   7.367  0.0151 -0.0117  0.0238
    1WF      WF58288  24.784   3.952   0.833 -0.0469 -0.0027  0.0023
    1WF      WF58289  19.349  25.072   1.456 -0.1516 -0.2186  0.3884
    1WF      WF58290  24.101  19.397   0.230  0.2272 -0.2248  0.2076
    1WF      WF58291  19.065  12.442   9.069  0.0053 -0.3408 -0.0982
    1WF      WF58292  20.252   3.359   8.748  0.0680 -0.1066 -0.1195
    1WF      WF58293  10.438  26.464   0.811 -0.0126 -0.0260  0.0821
    1WF      WF58294  18.290   3.619   1.654 -0.1639  0.0667 -0.1797
    1WF      WF58295  10.839  16.223  10.048 -0.0193 -0.2018 -0.1770
    1WF      WF58296   2.182   4.506   8.811  0.1418  0.1361  0.1413
    1WF      WF58297   9.455   9.492   1.016  0.0311 -0.0746 -0.2547
    1WF      WF58298  17.566  25.144   9.685 -0.0260 -0.1106  0.0803
    1WF      WF58299  23.844  24.959   2.260  0.4912 -0.3591 -0.3336
    1WF      WF58300   0.104  25.692   9.818  0.0812  0.2319 -0.0898
    1WF      WF58301   1.276  25.228   0.545 -0.0603 -0.0786 -0.3515
    1WF      WF58302  15.744  26.498   9.002  0.2039 -0.2301 -0.1197
    1WF      WF58303   1.031  23.000   6.849 -0.0764 -0.1099 -0.0408
    1WF      WF58304   5.742   7.099   7.906 -0.1584 -0.0221  0.1661
    1WF      WF58305  27.489   3.903   8.986  0.0740 -0.0282  0.0660
    1WF      WF58306   0.025  13.484   2.546 -0.1389 -0.0136 -0.1177
    1WF      WF58307  18.125  10.163   2.885  0.1142  0.2459  0.1117
    1WF      WF58308  18.713  20.575   0.656 -0.3481 -0.1689 -0.2316
    1WF      WF58309   7.834  19.606   3.021  0.0957  0.0365 -0.0527
    1WF      WF58310   7.361  20.352   3.682  0.2041 -0.1995  0.0463
    1WF      WF58311   4.880  17.336   9.338 -0.0690  0.0071 -0.0355
    1WF      WF58312   8.071  17.595   2.970  0.0245  0.0437 -0.0837
    1WF      WF58313  12.276  21.045   1.917  0.0983 -0.0411 -0.1393
    1WF      WF58314   5.258   7.461  10.213 -0.1172 -0.1858 -0.0597
    1WF      WF58315  27.451  18.330   0.024  0.1634  0.1171 -0.1424
    1WF      WF58316  27.786   8.219   2.249 -0.1843  0.1082 -0.0002
    1WF      WF58317   8.320  12.712   1.748  0.1861 -0.0570 -0.0487
    1WF      WF58318  24.577  18.102   6.335  0.1584 -0.2110 -0.1416
    1WF      WF58319  26.497   0.596   2.030 -0.0342  0.0725 -0.3187
    1WF      WF58320  21.485  14.352   0.197  0.3877 -0.3917  0.0339
    1WF      WF58321  12.911  24.565   1.849 -0.2482  0.4392 -0.0583
    1WF      WF58322   1.199   9.983   1.827 -0.0760 -0.1158 -0.2336
    1WF      WF58323   3.688   3.647   8.867 -0.1414  0.2154  0.1513
    1WF      WF58324  16.586   5.082   3.806 -0.0674  0.2273  0.0220
    1WF      WF58325   0.892  27.839   0.627 -0.1913 -0.0678 -0.1020
    1WF      WF58326   6.565  26.978   9.091  0.1606 -0.1475  0.0732
    1WF      WF58327   3.311  24.139   6.810  0.0705 -0.3370  0.1181
    1WF      WF58328   4.590   0.673   8.301 -0.0190  0.0249 -0.3064
    1WF      WF58329   3.326  11.338   0.867  0.1093 -0.0954  0.1116
    1WF      WF58330  19.799  23.301   9.949  0.0973 -0.1599  0.1421
    1WF      WF58331   9.650   8.359   0.284  0.1347 -0.0573 -0.0851
    1WF      WF58332  12.884  14.318   1.302 -0.4205 -0.0196 -0.2869
    1WF      WF58333  25.227  26.887   0.018  0.1086 -0.2501 -0.0684
    1WF      WF58334  18.413  28.101  10.362 -0.0293  0.0274  0.0153
    1WF      WF58335   7.408  21.323   8.804  0.1720  0.1833  0.1955
    1WF      WF58336  26.939  25.358   9.610 -0.2347  0.2547 -0.0492
    1WF      WF58337  10.840  20.305   2.693 -0.0055  0.3882 -0.2573
    1WF      WF58338   4.111  12.776   0.769 -0.1405  0.0421 -0.2853
    1WF      WF58339   6.963  14.007   9.315  0.2077 -0.0308  0.0899
    1WF      WF58340   4.122  22.661   7.323  0.0939 -0.0166 -0.0674
    1WF      WF58341   7.997   8.234   8.755  0.0859 -0.0620  0.2843
    1WF      WF58342  22.300   1.666   2.158 -0.1138 -0.1119  0.1857
    1WF      WF58343  21.374   2.243   1.000  0.1468 -0.2615  0.2043
    1WF      WF58344  23.960  20.486   9.402 -0.2212 -0.0736  0.2201
    1WF      WF58345  15.346   3.936   3.266 -0.2224 -0.1967 -0.1005
    1WF      WF58346  18.735  15.272   1.716 -0.1432  0.0966 -0.0335
    1WF      WF58347  18.746  22.641   1.259  0.0126 -0.0597 -0.2078
    1WF      WF58348  14.996   2.634   0.403 -0.1449  0.0327 -0.0429
    1WF      WF58349  10.940   3.323   8.324  0.2079 -0.1658 -0.0684
    1WF      WF58350   0.471   6.287   8.807 -0.1266 -0.0595 -0.0375
    1WF      WF58351   4.964  13.102   9.663  0.3689 -0.0930 -0.0807
    1WF      WF58352   3.796   6.265   7.574 -0.1798 -0.0660 -0.0343
    1WF      WF58353  23.502  12.917   2.115 -0.1868  0.0024  0.2122
    1WF      WF58354  26.376   2.118   0.758 -0.3210 -0.0739 -0.0198
    1WF      WF58355   5.382  13.358   6.745 -0.0082 -0.1636  0.2237
    1WF      WF58356  19.966   5.937   8.996  0.0601 -0.1576  0.0989
    1WF      WF58357  23.677  23.105   8.025 -0.0800  0.2017  0.0005
    1WF      WF58358  25.191  16.075   7.527  0.1269 -0.0007 -0.1720
    1WF      WF58359  21.462   4.954   8.559 -0.0729  0.3741 -0.1323
    1WF      WF58360  24.082   4.958   9.035  0.3053  0.2001  0.2288
    1WF      WF58361   8.572  19.016   2.264 -0.0960 -0.0230 -0.0191
    1WF      WF58362   5.566   9.661   9.786  0.0814 -0.2892  0.1747
    1WF      WF58363   1.777  15.841   1.466 -0.0885 -0.0390 -0.0793
    1WF      WF58364  27.474  24.179   9.521  0.3053 -0.0003 -0.1232
    1WF      WF58365   5.798   8.436   8.713 -0.2457 -0.0265 -0.0581
    1WF      WF58366  15.861   0.078   1.565  0.0473 -0.3399 -0.0689
    1WF      WF58367  10.631  19.817   2.691  0.1790  0.2380 -0.4064
    1WF      WF58368  13.115  22.733   8.554  0.3943 -0.2372  0.1190
    1WF      WF58369  15.436  18.742   0.129  0.2225 -0.1573  0.1345
    1WF      WF58370   6.710  23.143  10.295 -0.1143 -0.0573  0.1798
    1WF      WF58371  12.965   1.239   9.104  0.2594 -0.2571 -0.1878
    1WF      WF58372  16.585   8.786   9.553 -0.1171 -0.2976 -0.2317
    1WF      WF58373   2.573   9.648   1.695 -0.2422 -0.0671  0.1692
    1WF      WF58374   4.868  24.391   1.778  0.2093  0.3527 -0.0053
    1WF      WF58375  14.947  14.907   2.415 -0.0726 -0.1635  0.0391
    1WF      WF58376  13.119  25.174   0.490 -0.2344  0.0839 -0.0903
    1WF      WF58377  26.368  11.619   1.117  0.2608 -0.0941 -0.0022
    1WF      WF58378   2.169   8.064   7.585  0.1480  0.0956  0.1512
    1WF      WF58379  16.628  10.254   2.707  0.2634 -0.0163  0.1259
    1WF      WF58380  11.720   2.060   7.209 -0.0527  0.0496 -0.2244
    1WF      WF58381   9.136   1.092   1.836 -0.2788  0.2186 -0.1499
    1WF      WF58382  24.953  15.645   9.054 -0.1606 -0.2669  0.0741
    1WF      WF58383   3.555  10.228   8.055  0.0781 -0.0554  0.0143
    1WF      WF58384   0.222   2.978   0.608 -0.1508 -0.0758 -0.3464
    1WF      WF58385  24.498  22.821   0.001  0.0292  0.1915 -0.2772
    1WF      WF58386  27.583  26.673   0.874  0.2511  0.0105  0.1362
    1WF      WF58387  23.225  18.023   7.883  0.1531 -0.0708  0.0727
    1WF      WF58388   1.371  26.649   1.247  0.0917 -0.0104 -0.0885
    1WF      WF58389   9.581  13.531   2.074  0.1539  0.5390  0.0737
    1WF      WF58390  14.119  18.324   2.131  0.2604  0.1918 -0.2316
    1WF      WF58391  25.567  23.978   7.629 -0.0410 -0.0664  0.0463
    1WF      WF58392  25.479   4.697   3.106  0.2540  0.2914  0.0371
    1WF      WF58393  14.614   4.713   2.109  0.0545 -0.2314  0.0130
    1WF      WF58394  17.964  19.650   9.852  0.2205  0.5415 -0.0675
    1WF      WF58395   2.567  20.274   0.443  0.1594  0.2707 -0.3333
    1WF      WF58396  18.491   7.940   2.601 -0.0027  0.3056 -0.0434
    1WF      WF58397  16.216  22.488   9.340  0.3339  0.2195  0.0454
    1WF      WF58398  19.452   3.584  10.076  0.2333  0.0364 -0.5264
    1WF      WF58399  16.550  25.446   0.378 -0.2448  0.1327  0.0235
    1WF      WF58400  18.867  10.015   7.543  0.3295  0.0467 -0.0885
    1WF      WF58401  21.857   2.721   8.419 -0.4103 -0.0459  0.4466
    1WF      WF58402   9.801  11.442   8.938 -0.0031 -0.2119  0.2229
    1WF      WF58403   2.815   6.496   0.938 -0.2181  0.0298  0.2587
    1WF      WF58404  19.657   7.445   2.142  0.0198  0.1489 -0.0901
    1WF      WF58405   2.952   1.704  10.128 -0.0086  0.1983 -0.2750
    1WF      WF58406  18.291  27.529  10.315 -0.2572 -0.0156  0.0764
    1WF      WF58407   6.477   8.681   9.578 -0.0637 -0.0232 -0.1111
    1WF      WF58408  21.393  22.669   2.682  0.2993  0.1073  0.1086
    1WF      WF58409  15.118  18.980   0.484  0.0638  0.0303  0.0784
    1WF      WF58410   1.245   6.114   7.780  0.0488  0.1745  0.1632
    1WF      WF58411  13.133   3.052   0.828 -0.0603 -0.0461 -0.3148
    1WF      WF58412   4.007  21.536   0.176  0.0042 -0.0521 -0.1870
    1WF      WF58413   1.470  20.526   9.519 -0.1280 -0.1148  0.0260
    1WF      WF58414  20.992  17.694   2.088  0.1581 -0.1711 -0.2476
    1WF      WF58415  23.292  21.726   8.527  0.1838  0.1452  0.0277
    1WF      WF58416  12.361  23.624   0.370 -0.0992 -0.1751 -0.0784
    1WF      WF58417  27.773   0.667   8.945 -0.0554  0.1769  0.0329
    1WF      WF58418  14.176  23.555   9.601 -0.1536  0.1051 -0.1928
    1WF      WF58419  13.797  26.271   0.709  0.2667  0.0586  0.2570
    1WF      WF58420  14.576  23.571   6.869 -0.0551 -0.0065 -0.1391
    1WF      WF58421  12.737   6.389   1.816  0.1448  0.1144  0.0424
    1WF      WF58422   0.773  16.605   1.835  0.0584 -0.0679  0.4259
    1WF      WF58423  21.957   1.067   3.081  0.1953  0.0064 -0.0451
    1WF      WF58424  21.752  14.676  10.239 -0.2679 -0.0691  0.2339
    1WF      WF58425   6.643   0.719   9.416 -0.2810 -0.1430 -0.0355
    1WF      WF58426  11.257  26.170   1.596  0.1760  0.2218  0.2603
    1WF      WF58427  18.203  13.906   9.959 -0.0847 -0.0532 -0.2506
    1WF      WF58428  19.164   0.422   1.257  0.4356 -0.0780 -0.0059
    1WF      WF58429  14.642  16.297   1.329  0.1284  0.1651 -0.4477
    1WF      WF58430  15.720  24.314   9.928  0.3210  0.0037 -0.2135
    1WF      WF58431  10.727   3.838  10.356 -0.0079 -0.1769  0.1186
    1WF      WF58432   2.048  26.901   8.479  0.4679  0.1180 -0.0688
    1WF      WF58433  21.269  16.185   8.922 -0.2740  0.3797  0.0233
    1WF      WF58434  26.655  26.161   7.938 -0.3021  0.0653  0.3270
    1WF      WF58435  22.951  17.042   9.436 -0.0339 -0.1086  0.2582
    1WF      WF58436  13.921  27.561   8.505 -0.1011 -0.1477 -0.1455
    1WF      WF58437   6.165  13.320   7.602  0.4744  0.3452  0.0761
    1WF      WF58438  26.099   8.789   9.153  0.0849 -0.1064  0.1041
    1WF      WF58439  22.625  17.086   0.309 -0.0205  0.0332  0.3347
    1WF      WF58440   5.886   6.510   0.136 -0.2533  0.0862 -0.1199
    1WF      WF58441   4.973  24.908   9.507 -0.1736 -0.0902  0.0640
    1WF      WF58442   9.953   1.184   9.428  0.0555 -0.2069  0.2747
    1WF      WF58443  23.654  18.164   8.231  0.1949 -0.2042  0.0530
    1WF      WF58444  24.248  11.784   1.114 -0.2366 -0.3051 -0.2822
    1WF      WF58445  16.229  26.909   9.157  0.1073 -0.3022 -0.0359
    1WF      WF58446  19.958   3.785  10.018  0.0423 -0.3309  0.0206
    1WF      WF58447   0.253  22.336   9.796  0.2552 -0.1616  0.4049
    1WF      WF58448   6.005   9.370   9.919 -0.0487 -0.0165  0.2086
    1WF      WF58449   3.624  24.599   9.700 -0.0211  0.1486  0.3173
    1WF      WF58450  25.282  19.115   6.595 -0.2242  0.2830 -0.0643
    1WF      WF58451  15.617  24.516   0.928 -0.0094  0.0037 -0.1429
    1WF      WF58452   9.081   4.462   1.534  0.0511 -0.0894 -0.0164
    1WF      WF58453   0.059  16.973   1.530  0.2087  0.2454  0.2649
    1WF      WF58454   6.406   5.305   0.968  0.0218 -0.1149 -0.0421
    1WF      WF58455  10.234   6.933   1.544 -0.2298 -0.2084  0.0814
    1WF      WF58456  19.567   7.418   0.828 -0.0226  0.3788  0.1211
    1WF      WF58457   4.600   8.222   0.368  0.2080  0.0480  0.1561
    1WF      WF58458   8.398   5.438   7.059  0.2054 -0.0310 -0.2411
    1WF      WF58459   1.226  12.648   1.551 -0.0083 -0.3409  0.0311
    1WF      WF58460  27.310   8.698  10.100 -0.0606 -0.2757  0.1703
    1WF      WF58461  10.031  18.713   1.025 -0.0368 -0.1183 -0.2129
    1WF      WF58462  14.707  19.377   8.109 -0.0523  0.1572 -0.5372
    1WF      WF58463  27.590   9.662   7.624 -0.0146 -0.1550 -0.0369
    1WF      WF58464  23.304  16.488   8.533  0.0682  0.5353 -0.2430
    1WF      WF58465  27.362  13.355   7.944 -0.1163 -0.1368  0.0839
    1WF      WF58466  25.450  17.652   1.390  0.2829  0.4084  0.0510
    1WF      WF58467  20.899   0.655   9.488  0.0255  0.0360  0.1076
    1WF      WF58468  10.036  16.284   8.748 -0.1940  0.2056 -0.2233
    1WF      WF58469  14.980  13.067   2.069  0.1016 -0.0591  0.0139
    1WF      WF58470  27.768  15.263   7.648  0.0330 -0.0046 -0.1122
    1WF      WF58471  11.618  16.689   2.022  0.3707 -0.0301 -0.2456
    1WF      WF58472  13.421  25.311   0.036 -0.1469  0.0923 -0.1338
    1WF      WF58473   9.088  12.279   0.930  0.0439  0.1400  0.0795
    1WF      WF58474  24.475  17.486   3.199  0.1052  0.0473  0.1619
    1WF      WF58475  22.554  10.092   9.546  0.1037  0.0347 -0.1888
    1WF      WF58476   6.960  14.470   9.044  0.2519  0.1149  0.3390
    1WF      WF58477  14.530   0.875   2.220  0.0624 -0.1119  0.1210
    1WF      WF58478   5.985  13.433   8.062 -0.1051  0.1298  0.3127
    1WF      WF58479   9.597  22.339   2.025 -0.0495 -0.1243 -0.0321
    1WF      WF58480   9.133  15.944   3.383 -0.0161  0.4206 -0.1054
    1WF      WF58481  23.130  14.416   0.399 -0.2598  0.4309 -0.3086
    1WF      WF58482  26.340   9.824   2.945  0.0058 -0.0695 -0.2258
    1WF      WF58483  13.144   9.146   0.751 -0.0577  0.1784  0.0253
    1WF      WF58484   8.440   4.870   0.953 -0.0119  0.1028 -0.0539
    1WF      WF58485  17.105   9.946   2.579  0.1776 -0.1757 -0.0532
    1WF      WF58486  13.478  23.984   0.710  0.1499 -0.1284 -0.1493
    1WF      WF58487  13.549  16.241  10.094 -0.1875 -0.1425 -0.5349
    1WF      WF58488  19.312   7.403   9.091  0.2113 -0.1367 -0.2017
    1WF      WF58489  16.695   1.260   1.714  0.3565  0.0496 -0.0845
    1WF      WF58490   6.391  21.095   0.044  0.3806  0.3353 -0.1966
    1WF      WF58491   7.564  13.479   8.653  0.0414 -0.2150  0.0117
    1WF      WF58492   4.647   8.387   0.895  0.2426  0.0955  0.1968
    1WF      WF58493  10.402  26.673   1.550  0.0085 -0.3081  0.0550
    1WF      WF58494  13.095   8.699   0.571 -0.2925  0.1706  0.1700
    1WF      WF58495   4.523  19.172   8.356  0.2949  0.0929  0.0680
    1WF      WF58496   6.675  10.777   8.421  0.1046 -0.4468 -0.0885
    1WF      WF58497   7.217  24.930  10.254 -0.1048  0.0917  0.0758
    1WF      WF58498   7.338   7.679   9.284 -0.0002  0.0997 -0.1492
    1WF      WF58499  18.811  23.426   0.799 -0.0168 -0.2117 -0.0963
    1WF      WF58500  10.010   6.693   1.006  0.3245 -0.3873 -0.2372
    1WF      WF58501  25.008  27.573   1.920  0.0619 -0.3136 -0.1136
    1WF      WF58502  23.561   0.552   8.971  0.1322  0.2006 -0.0099
    1WF      WF58503  25.616  23.923   8.124 -0.1321  0.0973 -0.1135
    1WF      WF58504  21.791  27.383   9.220  0.3875 -0.1434 -0.2526
    1WF      WF58505  22.763  17.105  10.019  0.1852  0.1636  0.2222
    1WF      WF58506   0.564  21.848   2.951 -0.1950 -0.0021  0.1433
    1WF      WF58507   6.262  25.337   7.629  0.0236 -0.1375  0.3558
    1WF      WF58508  25.671  25.069   9.058  0.1215  0.0467  0.1605
    1WF      WF58509  24.970  18.557   1.245  0.0023  0.1764  0.1056
    1WF      WF58510  22.110   2.852   1.116  0.2048 -0.2465  0.0827
    1WF      WF58511  26.070  25.357   8.999 -0.1192  0.2045  0.0658
    1WF      WF58512  17.684   7.903   2.643  0.1641 -0.2036 -0.2404
    1WF      WF58513   1.941   4.661   9.273 -0.0158 -0.1611  0.0178
    1WF      WF58514   9.097   4.818   9.791 -0.2044  0.0254  0.1042
    1WF      WF58515  13.502   8.791   3.605  0.3401  0.2873 -0.1045
    1WF      WF58516   4.498  20.733   1.486 -0.1281 -0.1585  0.1762
    1WF      WF58517  14.941  15.016   3.996 -0.1819 -0.2125  0.1541
    1WF      WF58518  19.148  20.054   9.356  0.1930  0.1641 -0.0458
    1WF      WF58519  26.612   3.598   9.437  0.0563 -0.0604  0.0889
    1WF      WF58520  11.766  22.256   9.605  0.2966  0.0430 -0.0838
    1WF      WF58521  23.877   7.369   8.686 -0.0442  0.0626  0.0805
    1WF      WF58522  25.201   7.595  10.118  0.1921  0.0485  0.0773
    1WF      WF58523  21.899  11.997   8.845  0.0934  0.3236 -0.2934
    1WF      WF58524  25.725  18.320   9.613 -0.2364 -0.0514 -0.2231
    1WF      WF58525  16.800   0.003   3.991  0.1866 -0.1902  0.1902
    1WF      WF58526   7.524  25.701   1.260  0.2119 -0.0501  0.0600
    1WF      WF58527  23.448  25.605   9.602 -0.0238 -0.1578  0.2037
    1WF      WF58528  25.407   7.683   8.502 -0.2370 -0.2512 -0.2613
    1WF      WF58529  15.192   8.916   2.515  0.1044  0.2210  0.2076
    1WF      WF58530  13.519   0.225   1.881 -0.3323  0.1874  0.4649
    1WF      WF58531  11.063  14.222   9.923  0.1370 -0.0181  0.1618
    1WF      WF58532   4.328  23.030   7.589  0.2720  0.2610  0.0092
    1WF      WF58533   5.055  27.065   9.407 -0.2823  0.0721 -0.1585
    1WF      WF58534  14.215  27.473   1.665 -0.0238 -0.1099  0.2924
    1WF      WF58535  13.651  16.711   9.898  0.2537  0.1337 -0.2423
    1WF      WF58536   5.344   6.790   8.058  0.1592 -0.0845 -0.0945
    1WF      WF58537  15.299   6.391   3.864 -0.0886 -0.1913 -0.2167
    1WF      WF58538   8.579   6.621   0.435 -0.1200  0.1250 -0.0785
    1WF      WF58539   3.321  15.248   0.389 -0.0680  0.1419  0.1273
    1WF      WF58540  19.266  24.118   1.444  0.1466 -0.0832  0.1166
    1WF      WF58541  18.423  24.511   7.903 -0.0230 -0.1160  0.0528
    1WF      WF58542   3.880  17.419   8.499  0.0311 -0.1883  0.3242
    1WF      WF58543   5.858   0.870   0.543 -0.0392 -0.2488  0.1313
    1WF      WF58544  12.041  17.524   8.642 -0.1890 -0.0201 -0.0055
    1WF      WF58545   9.246  10.299   8.571 -0.1461  0.1297 -0.1988
    1WF      WF58546  16.373  10.391   1.085  0.0017 -0.0944 -0.0042
    1WF      WF58547  11.034  25.629   1.531 -0.2245 -0.1438  0.4386
    1WF      WF58548   6.828  10.707   1.514  0.2320 -0.1479 -0.1861
    1WF      WF58549   6.411  12.318   9.504 -0.0278 -0.0247  0.1295
    1WF      WF58550   3.362  27.497   6.486  0.1445  0.1971 -0.1131
    1WF      WF58551  14.000  16.499   7.378 -0.1955 -0.1094  0.3774
    1WF      WF58552   5.664  11.362   2.729  0.1789  0.1018 -0.2538
    1WF      WF58553  16.117  22.966   9.182  0.1003  0.0955 -0.1706
    1WF      WF58554  11.107  26.910  10.074 -0.0788 -0.2183 -0.2986
    1WF      WF58555   3.572   0.348   1.050 -0.2221 -0.3662 -0.1939
    1WF      WF58556   8.632  25.219   1.036 -0.1241 -0.1346 -0.1254
    1WF      WF58557  20.687  24.528   9.446  0.1038  0.0579  0.0148
    1WF      WF58558   7.640  26.655   8.377 -0.1998 -0.0378  0.1454
    1WF      WF58559   2.893   0.573   1.833  0.1390  0.0833  0.3031
    1WF      WF58560  20.056   5.984   9.491 -0.1041 -0.0846  0.0275
    1WF      WF58561   5.899  11.306   6.538 -0.2497  0.1729 -0.0535
    1WF      WF58562  18.007  27.719   1.703 -0.2838  0.1027 -0.2459
    1WF      WF58563   3.923   0.003   0.841 -0.1220 -0.2592 -0.1716
    1WF      WF58564  17.531  20.507  10.015  0.2513 -0.0148 -0.2991
    1WF      WF58565   2.458  13.942   1.663 -0.1201  0.1001 -0.0940
    1WF      WF58566  26.096  21.126   9.967  0.3784 -0.2797  0.0433
    1WF      WF58567  27.544   2.665   8.184  0.2573 -0.0140  0.2296
    1WF      WF58568   5.104  21.739   0.033 -0.1180  0.2160 -0.0251
    1WF      WF58569  23.637  16.770   0.493 -0.0158 -0.0472  0.4256
    1WF      WF58570   3.972   8.879   1.905 -0.1005  0.0097 -0.1219
    1WF      WF58571   7.577  27.672   0.091 -0.1489 -0.2606  0.0330
    1WF      WF58572  13.273  26.495   2.140  0.1203 -0.4102  0.1414
    1WF      WF58573  18.817   2.605   9.279  0.2860  0.1216  0.3383
    1WF      WF58574  18.388  15.360   8.965 -0.1164 -0.0674 -0.0759
    1WF      WF58575   9.043  22.603   2.001  0.1824 -0.0844  0.0876
    1WF      WF58576   1.501  15.176   0.126  0.2646  0.2118  0.0264
    1WF      WF58577  24.433  12.371   1.485  0.1860  0.1893 -0.1959
    1WF      WF58578   8.301  21.818   9.310 -0.3033 -0.3028 -0.0671
    1WF      WF58579  25.890  20.039   6.817  0.2635  0.3096  0.2140
    1WF      WF58580  16.788  20.117   2.139  0.1110  0.1223 -0.1048
    1WF      WF58581  14.150  19.877  10.265  0.0071  0.0334 -0.2282
    1WF      WF58582  10.569  17.873   0.201  0.2560 -0.3244 -0.0606
    1WF      WF58583  15.253  12.211   9.499 -0.2239 -0.0134 -0.0424
    1WF      WF58584  19.931  13.348   0.877 -0.0247  0.0728  0.0326
    1WF      WF58585  25.639  27.522   9.170  0.0026  0.0309 -0.0409
    1WF      WF58586  27.373   2.439   8.683 -0.0847  0.0911 -0.1909
    1WF      WF58587  26.716  24.435   7.350  0.1883 -0.0905 -0.3886
    1WF      WF58588  27.935  24.683  10.059  0.0648 -0.2767  0.0228
    1WF      WF58589  17.298   2.500   1.185 -0.0209 -0.1940  0.2940
    1WF      WF58590   1.114   5.646   2.177  0.0823  0.1459 -0.0539
    1WF      WF58591  25.174   0.898   1.424  0.1530  0.0010 -0.2049
    1WF      WF58592   8.481   4.433   1.301  0.0183  0.0304  0.3427
    1WF      WF58593  22.519  12.210   7.879  0.2578 -0.2116 -0.0639
    1WF      WF58594   0.801  25.880   0.982  0.0057 -0.0265  0.0258
    1WF      WF58595  14.890  23.262   8.541 -0.0761 -0.2259 -0.0507
    1WF      WF58596  10.158   9.528  10.187 -0.2187 -0.0360 -0.0947
    1WF      WF58597  13.055  12.006   0.682  0.1408 -0.0106  0.1630
    1WF      WF58598   3.609   0.292   7.909  0.3429 -0.3167 -0.1175
    1WF      WF58599  21.717  20.908   1.582  0.0843  0.3103  0.0076
    1WF      WF58600  25.230  27.348   0.336  0.1489  0.2782  0.0836
    1WF      WF58601   4.239  12.517   8.765  0.0313 -0.1801  0.0368
    1WF      WF58602  12.788  22.456   8.246  0.0968 -0.3883  0.2340
    1WF      WF58603  22.860  14.972  10.136  0.0209 -0.1798  0.2386
    1WF      WF58604   0.064  24.782   0.137  0.0538  0.1534  0.1665
    1WF      WF58605  13.804  14.505   0.292  0.1885  0.2158 -0.0120
    1WF      WF58606  13.209  23.081   9.038 -0.0515  0.1285  0.2067
    1WF      WF58607  21.746  12.185   1.008 -0.2000 -0.0245  0.0444
    1WF      WF58608  24.117  16.622   0.306  0.0528  0.0655  0.3437
    1WF      WF58609  11.880  20.414   8.640  0.2695 -0.7245  0.2650
    1WF      WF58610   7.130  28.103   0.228 -0.0369 -0.0233  0.3015
    1WF      WF58611   5.786   2.044   7.668  0.3089 -0.0468  0.0540
    1WF      WF58612  18.702   9.665   9.487 -0.0081 -0.0245 -0.2072
    1WF      WF58613   7.739   0.862   8.548 -0.4550 -0.1050  0.1563
    1WF      WF58614  21.728   0.206   9.447  0.3045 -0.0676 -0.1057
    1WF      WF58615   5.491  27.406   1.312  0.3174  0.0260  0.1172
    1WF      WF58616  13.516  23.614   1.049  0.1888  0.0379  0.0306
    1WF      WF58617  25.414   1.400   1.107  0.1211  0.2569  0.0725
    1WF      WF58618  26.971  13.801   3.426 -0.2396 -0.0345  0.2085
    1WF      WF58619   1.192   5.241   1.862  0.0548  0.1535  0.1074
    1WF      WF58620  19.682  26.245   7.491 -0.1201 -0.1997 -0.0594
    1WF      WF58621  23.259  26.933   0.272 -0.0980  0.2503  0.0429
    1WF      WF58622   3.110  25.907   0.386 -0.1676  0.0157 -0.2257
    1WF      WF58623  22.619   2.893   1.146 -0.0343  0.2142  0.0243
    1WF      WF58624  10.815   6.425   8.888 -0.0131  0.2082 -0.2107
    1WF      WF58625   6.335  10.838   1.677 -0.2805 -0.1112  0.0230
    1WF      WF58626  24.604   3.533   8.767  0.2467  0.1731  0.0902
    1WF      WF58627  23.624  13.164   8.754 -0.1416  0.0405 -0.2130
    1WF      WF58628   1.481  24.888   0.245  0.0661  0.0972  0.2437
    1WF      WF58629   3.585  25.523   1.559  0.0025  0.1483  0.0939
    1WF      WF58630  24.855  17.595   9.467 -0.2427 -0.4714  0.2396
    1WF      WF58631  11.124  27.009   9.605 -0.0575  0.0337 -0.1914
    1WF      WF58632   9.395  19.650   9.200 -0.0455  0.1602 -0.2905
    1WF      WF58633   6.610  13.445   0.323  0.0246  0.1115  0.0734
    1WF      WF58634  12.749  12.508   0.019 -0.0337  0.1510 -0.0726
    1WF      WF58635   4.940  25.795   9.586 -0.0490  0.0689  0.1130
    1WF      WF58636  19.158  22.358   0.584  0.0870  0.1494 -0.1372
    1WF      WF58637   7.020   2.188   0.325  0.1072  0.0620 -0.2998
    1WF      WF58638  11.563   5.025   1.790 -0.3957 -0.0198 -0.3085
    1WF      WF58639  15.912  24.549   9.530 -0.0980 -0.1033  0.1398
    1WF      WF58640   4.182  13.452   9.261  0.0174 -0.0611  0.0115
    1WF      WF58641   6.981  17.373   0.491  0.2763  0.2192  0.2127
    1WF      WF58642  24.092  14.144   1.083 -0.1189  0.0207 -0.0469
    1WF      WF58643   0.666   6.006   9.933  0.1385  0.0023  0.3001
    1WF      WF58644   9.136  16.810   1.083  0.0078  0.0140  0.1328
    1WF      WF58645  12.589  24.208   1.472  0.1669  0.2209  0.3284
    1WF      WF58646  22.747  12.501   8.262  0.1664 -0.0846 -0.2701
    1WF      WF58647  22.184  22.411   8.548 -0.3225  0.2934 -0.3284
    1WF      WF58648   0.329  17.785   0.263 -0.1052 -0.0362 -0.0752
    1WF      WF58649  13.037   2.326   2.353 -0.5249  0.0535  0.1027
    1WF      WF58650  10.353  21.171   1.813 -0.1810 -0.1473  0.0426
    1WF      WF58651  14.678  26.786   0.603  0.2763 -0.2813 -0.2072
    1WF      WF58652   2.886  26.048   0.824 -0.0072  0.0844 -0.0961
    1WF      WF58653   4.632  26.617   1.260 -0.1768 -0.1835 -0.0468
    1WF      WF58654  26.495   4.654   1.005 -0.4464 -0.0184  0.0627
    1WF      WF58655   6.314  18.976   3.251  0.3966  0.1529  0.1882
    1WF      WF58656  13.881   7.120   0.535  0.0622  0.0370 -0.2070
    1WF      WF58657   3.038  14.145   1.206 -0.1362 -0.0562 -0.0732
    1WF      WF58658  14.231  11.794   0.950  0.0590 -0.1359 -0.0025
    1WF      WF58659  16.928  27.209  10.205 -0.1482 -0.0992  0.0125
    1WF      WF58660  13.090   2.475   8.875  0.1697  0.2776 -0.0131
    1WF      WF58661  22.857   5.979   0.855  0.1540 -0.1570  0.3843
    1WF      WF58662  18.431  22.055   9.296 -0.0314 -0.0188 -0.0921
    1WF      WF58663   2.314   2.573   0.118 -0.0850 -0.0983 -0.2734
    1WF      WF58664  28.051  24.890   0.588  0.1452 -0.1563 -0.0528
    1WF      WF58665   7.522  14.169   0.109 -0.0650 -0.1321 -0.0346
    1WF      WF58666  17.433  12.891   8.963  0.2618 -0.1318 -0.1428
    1WF      WF58667   3.144  16.227   9.330 -0.0444 -0.0547 -0.0635
    1WF      WF58668  16.663  22.230   9.315 -0.1006 -0.0995 -0.0333
    1WF      WF58669  22.940  25.096   4.128  0.1792 -0.0943 -0.0851
    1WF      WF58670  13.925   4.133   9.275 -0.0561  0.1401  0.0847
    1WF      WF58671   8.514   8.693   7.549  0.5614 -0.0824  0.1571
    1WF      WF58672  19.186   4.023  10.043  0.1809 -0.2786  0.1118
    1WF      WF58673   6.180   2.196   7.191 -0.0357  0.0452 -0.0237
    1WF      WF58674   7.873   8.036   0.295  0.0462  0.1844 -0.0423
    1WF      WF58675  27.810  18.121   1.605  0.0556 -0.0969 -0.0215
    1WF      WF58676  11.664   6.986   9.776  0.4805 -0.0886 -0.1581
    1WF      WF58677  14.805  17.850  10.058  0.1642  0.2767 -0.1225
    1WF      WF58678  14.837   5.637   1.642  0.1114  0.2082 -0.2506
    1WF      WF58679  12.123   4.534   3.649  0.0158 -0.0285 -0.3133
    1WF      WF58680   7.011  17.098   2.450  0.1273 -0.1774 -0.3583
    1WF      WF58681  25.236  13.779   0.181 -0.3049  0.2611 -0.0942
    1WF      WF58682   7.743   2.373   0.705 -0.1692 -0.0958  0.2903
    1WF      WF58683  22.448   0.819   2.067  0.0868  0.1136 -0.0172
    1WF      WF58684  13.996   7.174   1.029  0.1908  0.4640  0.2227
    1WF      WF58685  16.623  15.047   2.159 -0.0318 -0.2958  0.1635
    1WF      WF58686  20.633   8.257   9.054 -0.0488  0.0265 -0.4963
    1WF      WF58687  19.857   7.089   9.589 -0.1093  0.2319  0.0261
    1WF      WF58688  26.577  25.373   9.164 -0.2350  0.0710  0.2205
    1WF      WF58689  15.517  27.939   0.714 -0.3516 -0.0294 -0.0880
    1WF      WF58690  21.264  18.022   7.924 -0.0490  0.5378 -0.4514
    1WF      WF58691  18.335  23.981   7.977  0.0170  0.0057 -0.1419
    1WF      WF58692  12.971  18.339   1.407  0.2056 -0.0250 -0.0798
    1WF      WF58693   2.478  11.905  10.198  0.0658  0.0863  0.1300
    1WF      WF58694   4.628  16.337   1.136 -0.1586  0.3287 -0.3226
    1WF      WF58695   0.837   4.418   7.484  0.2725  0.0298 -0.3780
    1WF      WF58696  12.069  18.036   8.723 -0.1137  0.0930  0.1660
    1WF      WF58697  14.877   9.783   1.311 -0.0643 -0.4302  0.1058
    1WF      WF58698  11.532  21.686   0.861 -0.1037 -0.2815 -0.1476
    1WF      WF58699  11.612  24.798   8.366  0.1721 -0.1855  0.3436
    1WF      WF58700  22.755  15.540   2.270 -0.0009  0.2951 -0.0007
    1WF      WF58701   5.412  12.361   8.720 -0.0632  0.1621  0.0833
    1WF      WF58702   2.631  17.085   7.344  0.1047 -0.0202  0.0637
    1WF      WF58703  10.595  27.755   0.868  0.1151 -0.4863  0.0497
    1WF      WF58704  21.031   8.420   7.418  0.0635  0.0686 -0.3746
    1WF      WF58705   2.844  26.162   9.784 -0.0750 -0.1118 -0.3091
    1WF      WF58706   8.120  18.746   2.178 -0.0985  0.2130  0.0338
    1WF      WF58707   0.077  14.516   1.063 -0.3380 -0.6962  0.0705
    1WF      WF58708  26.560   8.778   9.173  0.3610 -0.1560 -0.2065
    1WF      WF58709  12.260   1.076   0.821  0.1464  0.0793 -0.0495
    1WF      WF58710  21.665   3.186   8.371 -0.1877 -0.2224  0.1428
    1WF      WF58711   5.858  16.124   7.236 -0.3099 -0.0546  0.2915
    1WF      WF58712  17.709   4.419   9.768  0.0955 -0.1302  0.2131
    1WF      WF58713   1.590   7.887   7.745 -0.0616  0.0052  0.2863
    1WF      WF58714   1.444   9.342   1.120  0.0192  0.0784  0.0904
    1WF      WF58715  22.921  19.507   0.538  0.2126  0.1496  0.0019
    1WF      WF58716  20.728  23.052   6.813  0.0707 -0.0597 -0.1372
    1WF      WF58717   8.051   4.368   8.171  0.2021  0.2783 -0.1400
    1WF      WF58718  27.573   7.896   8.428  0.1630  0.0627 -0.0881
    1WF      WF58719  12.725   5.822   9.843 -0.2933  0.3043  0.1970
    1WF      WF58720   9.322  22.485   9.233  0.1065  0.2034  0.0955
    1WF      WF58721   3.922   8.346   1.843  0.0091  0.1208  0.0412
    1WF      WF58722   6.623  11.523   1.107 -0.0525  0.2049 -0.1432
    1WF      WF58723   6.137  10.783  10.187 -0.1359  0.1768 -0.0709
    1WF      WF58724  18.826   0.083   1.402  0.1216  0.1998 -0.0146
    1WF      WF58725   7.271  16.961   0.726 -0.0449  0.2714 -0.0288
    1WF      WF58726  25.943  18.715   0.726 -0.2393 -0.2414  0.1814
    1WF      WF58727   5.080   1.572   8.220 -0.0861  0.0479  0.1228
    1WF      WF58728   8.465   8.513   1.019  0.0091 -0.1329 -0.0832
    1WF      WF58729  26.969  18.965   7.501 -0.3450  0.3080 -0.0362
    1WF      WF58730  10.258  24.736   0.717 -0.1398  0.1085 -0.0139
    1WF      WF58731   6.813   8.451   1.053  0.2660  0.2492 -0.1328
    1WF      WF58732   2.873  17.423   2.041 -0.2613  0.1805  0.1459
    1WF      WF58733  27.332  25.175   7.813  0.1282  0.1237  0.0984
    1WF      WF58734  20.366   8.476   0.882  0.0648  0.1271  0.0038
    1WF      WF58735   9.897   2.115   1.636  0.0018 -0.2331 -0.3086
    1WF      WF58736  15.668  20.912   8.847 -0.0084  0.3715 -0.0092
    1WF      WF58737  14.902  18.573   9.406 -0.1416 -0.0665 -0.1336
    1WF      WF58738  21.571  15.132   0.028  0.1296 -0.2589  0.0563
    1WF      WF58739   6.227   2.656   8.411  0.0101 -0.0075  0.1110
    1WF      WF58740  25.739  24.665   1.310 -0.2544 -0.2618  0.1789
    1WF      WF58741  17.255  10.808   8.944 -0.0689  0.1449 -0.1001
    1WF      WF58742  17.110  15.873   7.409  0.1861  0.5097 -0.2510
    1WF      WF58743   1.101   9.440   2.848  0.0700  0.1020  0.1869
    1WF      WF58744  13.213   2.307   1.880 -0.0479  0.1151  0.3662
    1WF      WF58745   4.533   6.611   7.417  0.0917  0.0205  0.0973
    1WF      WF58746  14.553   0.627   8.920 -0.1457 -0.3341  0.2400
    1WF      WF58747  27.349  13.008   6.762 -0.1001  0.0202  0.1165
    1WF      WF58748  13.033  11.450  10.051  0.2842 -0.0672  0.0735
    1WF      WF58749   4.534  12.176   1.326 -0.0098  0.0605 -0.1189
    1WF      WF58750  12.591  16.307   7.637 -0.1669  0.1090  0.0034
    1WF      WF58751  19.500   6.862   1.806 -0.1366 -0.0591  0.2131
    1WF      WF58752  16.452   3.923   1.796 -0.1145 -0.1544  0.1208
    1WF      WF58753  19.925   8.806  10.123  0.1669 -0.0694  0.1647
    1WF      WF58754   9.642   4.387   3.244  0.1997  0.1166  0.0502
    1WF      WF58755   6.257   8.145   8.687  0.1870 -0.0879  0.2230
    1WF      WF58756   3.279  21.815   8.092 -0.1613  0.0563  0.1031
    1WF      WF58757  12.036  21.096   0.229 -0.3098  0.1555  0.5433
    1WF      WF58758   4.315  26.698   1.645  0.0276 -0.0214 -0.0678
    1WF      WF58759  13.834   7.181   9.632  0.0101  0.2263  0.4251
    1WF      WF58760  14.883  19.819   2.024 -0.0543  0.1174  0.2197
    1WF      WF58761  26.085  18.352   9.278 -0.1469  0.4039 -0.2536
    1WF      WF58762  18.277  22.135   8.308  0.1253  0.0898 -0.2207
    1WF      WF58763   7.187  14.401   0.839 -0.2582 -0.2263  0.3449
    1WF      WF58764   7.757  26.220   8.630  0.2801  0.1435 -0.0931
    1WF      WF58765  23.686  23.017   2.488 -0.2464 -0.1513 -0.1790
    1WF      WF58766   5.907   1.377   0.424 -0.1591  0.2487  0.1085
    1WF      WF58767  23.414  13.514   0.569  0.2928  0.0210 -0.4193
    1WF      WF58768  25.482  12.308   8.762 -0.0668  0.3966 -0.1523
    1WF      WF58769  22.033  18.225   2.970  0.1135 -0.3691  0.0824
    1WF      WF58770  19.776  15.642   0.982  0.2039 -0.0201  0.1234
    1WF      WF58771  20.075  19.801   9.176  0.0038  0.0889 -0.2469
    1WF      WF58772  10.595  26.858   9.029 -0.0613  0.1070  0.1331
    1WF      WF58773   5.516  11.015   3.051 -0.3550  0.1596 -0.0450
    1WF      WF58774  12.838   1.733   2.134 -0.1452 -0.2128 -0.4033
    1WF      WF58775  18.066   7.690   2.494 -0.1898 -0.2129  0.2618
    1WF      WF58776  20.146  21.874   0.563 -0.0016  0.1598  0.2044
    1WF      WF58777  14.781  22.890  10.011  0.1865  0.2944 -0.0011
    1WF      WF58778  15.100  22.920   8.278 -0.2238  0.0598  0.1927
    1WF      WF58779  10.729  26.581  10.058 -0.2472 -0.2444  0.0863
    1WF      WF58780   3.146   8.519   9.924 -0.3000  0.0222 -0.0030
    1WF      WF58781  22.255  16.126  10.002 -0.1298 -0.1413  0.2286
    1WF      WF58782  13.596  26.712   9.834 -0.3065  0.0575 -0.0259
    1WF      WF58783   7.105  15.746   1.443 -0.1628  0.2211  0.0131
    1WF      WF58784  15.761   5.199   0.375  0.2790 -0.1202 -0.0990
    1WF      WF58785  10.628   6.575   9.387 -0.0368  0.2052  0.1485
    1WF      WF58786  21.883   2.245   0.442 -0.1450  0.2069  0.0007
    1WF      WF58787   3.240  22.083   8.501  0.0986 -0.1954 -0.2234
    1WF      WF58788  18.493  19.514   7.584  0.2793  0.0996 -0.0741
    1WF      WF58789  12.634  21.057   8.054  0.0117 -0.0371 -0.1944
    1WF      WF58790  27.411   3.616   7.473  0.0855  0.2454 -0.0560
    1WF      WF58791  20.163  16.189   0.302 -0.1560 -0.1722  0.2318
    1WF      WF58792  27.331  15.391   5.837  0.1558 -0.0139 -0.0068
    1WF      WF58793  26.956   9.100   8.019 -0.2001  0.3239  0.0775
    1WF      WF58794  13.908   0.094   8.682 -0.1048  0.1014 -0.1906
    1WF      WF58795   0.988  25.190   8.059  0.3895  0.1136 -0.2483
    1WF      WF58796  24.463   9.057   8.297 -0.3447 -0.1241 -0.1080
    1WF      WF58797   8.655   9.765   0.422  0.0205  0.0907  0.1696
    1WF      WF58798  14.631  14.286   1.461 -0.1945  0.0149 -0.1299
    1WF      WF58799  16.843   2.279   9.411 -0.2107 -0.0416 -0.3478
    1WF      WF58800  11.131   3.183   2.385  0.2474  0.0573  0.2873
    1WF      WF58801   0.817  10.637   9.886 -0.1375 -0.1432 -0.0429
    1WF      WF58802  14.185  23.093   7.841  0.1036  0.1709 -0.1018
    1WF      WF58803  23.951  17.630   1.397 -0.0708 -0.0995 -0.3040
    1WF      WF58804   6.322  12.268  10.039  0.0636  0.0048 -0.2163
    1WF      WF58805   5.582   7.286   0.313  0.3601 -0.0856  0.2719
    1WF      WF58806   0.804  23.874  10.204  0.0934 -0.2323 -0.0657
    1WF      WF58807  23.536  22.778   1.655  0.0554  0.2272 -0.1963
    1WF      WF58808  12.402   7.158   0.788 -0.2782 -0.0263  0.1409
    1WF      WF58809  23.932  12.156   1.429 -0.0829 -0.0626 -0.1094
    1WF      WF58810   5.775   7.256   0.790 -0.1343 -0.1189  0.0599
    1WF      WF58811  20.758   3.796   1.827 -0.2143 -0.2444  0.5564
    1WF      WF58812   0.669  11.941   9.411 -0.1415  0.2770  0.0661
    1WF      WF58813   5.016   6.723   8.458 -0.3802  0.0739  0.0088
    1WF      WF58814  13.699  18.176   2.420 -0.0012 -0.2545 -0.1905
    1WF      WF58815  28.056  10.511   7.583 -0.2502 -0.2117 -0.0693
    1WF      WF58816  19.066  27.536   9.795  0.0016  0.0139 -0.0580
    1WF      WF58817  24.140  25.483   3.258  0.0247 -0.0343  0.1948
    1WF      WF58818   2.599  15.064   9.351  0.0044 -0.2865 -0.0263
    1WF      WF58819  27.052   7.955   8.480  0.0466  0.1266  0.0222
    1WF      WF58820  27.734  15.403   9.459 -0.0559 -0.1172  0.1038
    1WF      WF58821  15.162  17.283   0.710  0.2459 -0.1344  0.0675
    1WF      WF58822  22.144  21.080   8.657 -0.2188 -0.1484  0.1638
    1WF      WF58823   1.763  26.721   0.448  0.1843  0.1526 -0.0107
    1WF      WF58824  13.461  21.090   7.723 -0.1434  0.1669  0.1095
    1WF      WF58825  13.209   0.328   2.320 -0.1408  0.1133  0.1530
    1WF      WF58826  15.978  23.308   0.486  0.3883 -0.1884  0.0523
    1WF      WF58827  19.922   4.465   1.896  0.0310  0.1163 -0.1989
    1WF      WF58828  21.942  17.117   3.010  0.2157 -0.0609 -0.0795
    1WF      WF58829  17.774  24.797   1.336 -0.1195  0.4288  0.0760
    1WF      WF58830  17.461  19.379   8.899  0.3449 -0.2053 -0.1465
    1WF      WF58831  16.304  22.800   0.726  0.0814  0.1768  0.1348
    1WF      WF58832   0.825   3.925   7.511  0.3805  0.0126  0.0154
    1WF      WF58833  17.532  24.393   1.017  0.2739 -0.0883 -0.0058
    1WF      WF58834  12.731   8.688   2.148  0.0433 -0.1944  0.0840
    1WF      WF58835  16.456  12.582   8.380 -0.4019 -0.2036 -0.0317
    1WF      WF58836  26.239  21.305   9.446  0.3316  0.3205 -0.1545
    1WF      WF58837   4.502  11.838   1.729  0.0514 -0.1344 -0.0690
    1WF      WF58838  12.804   8.838   0.938 -0.2177 -0.1258 -0.1066
    1WF      WF58839   6.216  13.589   0.010  0.1152  0.0039 -0.1372
    1WF      WF58840  27.560  18.691   9.600 -0.1467 -0.0279  0.1245
    1WF      WF58841   6.375  19.074   2.754  0.0022 -0.0648 -0.1133
    1WF      WF58842  13.751  20.253   8.372 -0.1500 -0.2717  0.1650
    1WF      WF58843  21.116  14.022   9.665 -0.0143 -0.1256  0.1558
    1WF      WF58844  16.942  10.179   2.115  0.1615  0.0169  0.3414
    1WF      WF58845  18.825  21.636  10.054 -0.0635  0.0301 -0.3086
    1WF      WF58846   3.457  20.686  10.170 -0.2561 -0.0889  0.0775
    1WF      WF58847   8.894  16.341   1.046 -0.3597  0.0261 -0.4736
    1WF      WF58848  22.258  14.988   8.982  0.0826  0.0949  0.3432
    1WF      WF58849   9.274  11.177   0.356  0.1238 -0.2971  0.0296
    1WF      WF58850   7.080  17.007   0.122 -0.2718 -0.0979  0.3079
    1WF      WF58851  28.058   8.467   8.001  0.0557  0.2370 -0.1613
    1WF      WF58852  23.991  22.596  10.304  0.0392 -0.2262 -0.3902
    1WF      WF58853  20.757  26.784   0.872 -0.2101 -0.0577  0.1448
    1WF      WF58854  22.843  10.352   9.229  0.2975 -0.0550 -0.0838
    1WF      WF58855  17.682   6.478   9.392  0.1208 -0.0317  0.1911
    1WF      WF58856   1.824   2.925   9.280  0.1678 -0.1900  0.0117
    1WF      WF58857  27.299  14.554   1.736 -0.1449 -0.0551  0.0217
    1WF      WF58858  11.230   4.025  10.199 -0.0834  0.3970  0.1713
    1WF      WF58859  20.079  20.955   2.478 -0.1155  0.5111  0.1710
    1WF      WF58860  20.302   6.871   9.381  0.1102 -0.1035 -0.0132
    1WF      WF58861  27.861  27.589   0.432  0.2274  0.1713 -0.0559
    1WF      WF58862   2.798   6.974   0.523 -0.0654 -0.0280  0.0252
    1WF      WF58863  26.727  14.309   1.759 -0.0544  0.3698 -0.2746
    1WF      WF58864   3.716   3.499   8.385 -0.1250 -0.3771 -0.1382
    1WF      WF58865   0.983  21.854   9.646 -0.2735 -0.2292 -0.0689
    1WF      WF58866  12.841  16.578   8.985  0.3390  0.1876 -0.2257
    1WF      WF58867  11.467  19.107   1.006  0.0324  0.0082 -0.5036
    1WF      WF58868  13.220   5.767  10.094  0.0697  0.3061 -0.1735
    1WF      WF58869  18.724   3.605   2.017 -0.0057  0.0796 -0.1664
    1WF      WF58870   9.424  21.981   9.383 -0.3667 -0.2797  0.0766
    1WF      WF58871  19.004  25.251   8.017 -0.3381  0.0463 -0.0401
    1WF      WF58872   5.388   6.002   1.272  0.0501  0.1387  0.1350
    1WF      WF58873  25.362  21.510   2.636 -0.0765  0.0722 -0.1702
    1WF      WF58874  14.673   0.594   2.619 -0.1103 -0.0003 -0.0191
    1WF      WF58875  13.997   2.651   1.510  0.0127 -0.0509 -0.2182
    1WF      WF58876  16.646  16.435   2.351 -0.1690 -0.1022 -0.3725
    1WF      WF58877   8.595  27.150   8.814  0.3856 -0.0735  0.1907
    1WF      WF58878   7.004  13.832   8.775  0.2177  0.3394 -0.2009
    1WF      WF58879  24.132  15.126   0.959  0.2254 -0.2157 -0.0407
    1WF      WF58880  25.882   4.399   0.027  0.1145 -0.2260  0.1732
    1WF      WF58881   5.019   5.120   0.583  0.3440 -0.1517  0.1973
    1WF      WF58882  13.890  26.019   8.902 -0.3927 -0.1587  0.0317
    1WF      WF58883  18.468   2.215   9.392  0.0357  0.0311  0.1977
    1WF      WF58884   7.799  15.134   2.361 -0.2088 -0.2096 -0.0759
    1WF      WF58885  21.645  17.290   7.073 -0.0520  0.2507 -0.0928
    1WF      WF58886   2.991  23.778   8.180 -0.1402 -0.0074  0.1174
    1WF      WF58887   5.302  18.173   9.700  0.3111 -0.1109  0.0923
    1WF      WF58888  23.449  20.607   9.540 -0.3527 -0.0674  0.1894
    1WF      WF58889  11.139  23.789   2.238 -0.2350  0.0928  0.0072
    1WF      WF58890  21.111  19.432   8.778  0.2493  0.3751 -0.1632
    1WF      WF58891  23.438  22.931   8.906 -0.0815 -0.1867 -0.1692
    1WF      WF58892   6.519   8.973   9.977 -0.1926 -0.2967  0.2151
    1WF      WF58893  12.796  23.864   0.329  0.4082 -0.2616 -0.1914
    1WF      WF58894   6.464  13.756   9.935  0.1092 -0.0417  0.1085
    1WF      WF58895   0.826   6.731   0.994 -0.0171 -0.0381  0.2146
    1WF      WF58896  12.589  10.020   1.241  0.0160  0.1389  0.2956
    1WF      WF58897   4.159  20.182   1.667  0.0555  0.1192  0.1424
    1WF      WF58898  11.026   9.929   1.836  0.1390 -0.0306  0.0576
    1WF      WF58899   7.283  15.398   8.510  0.1943 -0.0298 -0.0121
    1WF      WF58900  20.023  24.490   1.854 -0.0395 -0.2005 -0.2843
    1WF      WF58901   9.985  20.426   9.062  0.0241 -0.1043 -0.1949
    1WF      WF58902  23.776  22.696   2.099  0.0330 -0.4885  0.0944
    1WF      WF58903   3.672  22.397   7.458 -0.1532  0.0099  0.1711
    1WF      WF58904   2.993  11.364   0.208 -0.0876  0.1152  0.1282
    1WF      WF58905  22.926  23.043   3.309  0.0602  0.0865  0.0235
    1WF      WF58906   2.279  13.572   7.491  0.0378 -0.5396 -0.0671
    1WF      WF58907  12.254   8.008   8.842  0.2430  0.0574 -0.1434
    1WF      WF58908  28.025   2.757   0.933 -0.3413 -0.0042  0.2513
    1WF      WF58909  23.606  25.352   7.595  0.1061 -0.0293 -0.0759
    1WF      WF58910   4.621   6.428   9.837  0.0414 -0.1477 -0.0967
    1WF      WF58911  17.857  27.623   8.596  0.1600  0.2374  0.0045
    1WF      WF58912   8.559  18.483   4.024  0.2683  0.1235 -0.0052
    1WF      WF58913  25.284   1.083   7.972  0.0034 -0.1130  0.0851
    1WF      WF58914  25.929  26.643   1.911  0.1876 -0.0401 -0.1484
    1WF      WF58915  19.650  13.289   9.103  0.1042 -0.0838 -0.1897
    1WF      WF58916  22.042   2.657   0.250  0.1322  0.0606 -0.0346
    1WF      WF58917   4.962  21.096   7.783 -0.0609  0.2892 -0.0359
    1WF      WF58918   5.202  14.345   8.447  0.0532 -0.1511  0.0845
    1WF      WF58919  13.842  11.428   1.265 -0.1148  0.0732 -0.0192
    1WF      WF58920   0.907  21.357   8.517 -0.3234 -0.0458  0.0559
    1WF      WF58921  10.656   1.408   8.742 -0.5661 -0.1567 -0.0914
    1WF      WF58922   1.867  15.491   7.667  0.3096  0.2140 -0.0763
    1WF      WF58923  23.831   0.673   9.850  0.0147 -0.1265 -0.0843
    1WF      WF58924  15.399  16.884   2.501 -0.2681  0.2130  0.0682
    1WF      WF58925  24.835  22.659   0.821 -0.1540  0.0971 -0.2321
    1WF      WF58926   1.507   1.986   9.712 -0.3918 -0.3037  0.2093
    1WF      WF58927  18.194  12.291   0.069 -0.0614  0.1173  0.1763
    1WF      WF58928   7.047  15.894   2.018 -0.2435  0.1246  0.2061
    1WF      WF58929  23.186   6.054   9.527  0.4578 -0.1613 -0.1186
    1WF      WF58930  15.295   7.391   9.230 -0.1370  0.0105 -0.0939
    1WF      WF58931  26.698  22.930   9.132  0.0601 -0.0085 -0.1136
    1WF      WF58932   2.494  15.179   9.840  0.1929 -0.1552 -0.0654
    1WF      WF58933  11.740  12.442  10.234  0.1254 -0.2784  0.2044
    1WF      WF58934  27.691   1.537   9.318  0.0131  0.2953 -0.1545
    1WF      WF58935  26.572  11.774   0.648  0.2378 -0.1827 -0.0639
    1WF      WF58936  14.531  14.301   0.950  0.0104 -0.0599  0.2358
    1WF      WF58937   9.613  11.399  10.138 -0.2075  0.0989  0.2078
    1WF      WF58938  22.036   5.367   7.900 -0.1432 -0.3048 -0.1407
    1WF      WF58939  23.933  22.185  10.064 -0.0070 -0.0366 -0.2898
    1WF      WF58940  28.037  14.699   8.938 -0.0004  0.1285  0.1008
    1WF      WF58941   3.075  15.302   0.828  0.0002 -0.2061  0.1597
    1WF      WF58942  16.932   3.234   1.212  0.0259 -0.1121 -0.3404
    1WF      WF58943  13.089  27.985   2.387 -0.2275  0.1549  0.2704
    1WF      WF58944   0.039  27.741   9.211  0.0136 -0.1638 -0.0624
    1WF      WF58945  22.241   2.710   7.188 -0.2599 -0.1724  0.1619
    1WF      WF58946  20.558   8.702   9.321  0.2099 -0.2265  0.1047
    1WF      WF58947   2.767  22.104   8.909  0.0805 -0.0487  0.1896
    1WF      WF58948  17.997  13.473  10.295 -0.2912 -0.3369  0.0701
    1WF      WF58949  19.360   9.173   2.772 -0.2736 -0.0158  0.2465
    1WF      WF58950  23.696  21.488   8.226  0.1873 -0.1663  0.1593
    1WF      WF58951  24.514   6.058   0.798  0.0462  0.0235  0.0470
    1WF      WF58952   7.975   0.407   7.616 -0.0391  0.0191  0.1960
    1WF      WF58953  15.207  13.756  10.225 -0.1356  0.1228 -0.2996
    1WF      WF58954   6.654  18.197   7.453 -0.2778 -0.1829 -0.0594
    1WF      WF58955  23.857  15.643   6.780 -0.0103  0.3199 -0.1656
    1WF      WF58956  15.082  23.085   1.298  0.1753  0.0474  0.0828
    1WF      WF58957  26.742  11.325   0.561 -0.3779  0.1551  0.0535
    1WF      WF58958  26.748   6.500   8.417 -0.3287  0.0169 -0.0203
    1WF      WF58959  18.531   2.063  10.037 -0.1950 -0.2698  0.1421
    1WF      WF58960  14.006   6.941   1.722 -0.0652 -0.2205 -0.3247
    1WF      WF58961   2.434  22.743   1.736  0.3994 -0.2016 -0.2019
    1WF      WF58962  25.665  16.043   7.741  0.2469 -0.1829 -0.3965
    1WF      WF58963   8.521  15.009   0.334  0.0444 -0.6639 -0.0913
    1WF      WF58964  17.423  27.061   9.989 -0.0955 -0.0642 -0.1203
    1WF      WF58965  14.287  28.057  10.165  0.0158 -0.0454 -0.1551
    1WF      WF58966   0.202   8.316   9.739  0.3179  0.0755  0.0467
    1WF      WF58967  27.580  10.597   7.267  0.1189  0.1859  0.0763
    1WF      WF58968   5.329  24.836   0.565  0.1280 -0.0222 -0.1074
    1WF      WF58969  23.830   7.098   2.090 -0.2288 -0.1394 -0.1563
    1WF      WF58970   3.768  18.967   0.933  0.0450 -0.1271 -0.0757
    1WF      WF58971   5.238   4.818   9.498 -0.0460  0.3500  0.1758
    1WF      WF58972  16.927  14.270   1.875  0.0991 -0.0628  0.0137
    1WF      WF58973  25.717   1.785   1.203  0.0880  0.0373 -0.0297
    1WF      WF58974  17.172  27.674   0.525  0.0567  0.0383  0.0455
    1WF      WF58975  18.115   2.228   9.837  0.0501  0.1885  0.0596
    1WF      WF58976  18.389  13.057  10.248  0.2528  0.1487  0.1737
    1WF      WF58977  23.130  26.863  10.178 -0.1290  0.1046 -0.1381
    1WF      WF58978  23.708  13.644   0.954  0.1629 -0.3400  0.0821
    1WF      WF58979   1.365  20.506   8.380 -0.1125 -0.0153  0.1961
    1WF      WF58980  12.453  25.522   0.952  0.0054 -0.1192  0.1365
    1WF      WF58981  11.657  11.118   2.666  0.1727 -0.0008 -0.1452
    1WF      WF58982   0.383  10.914   9.898  0.2817  0.0490 -0.0912
    1WF      WF58983  24.816  27.046   1.760 -0.1708  0.0394 -0.0782
    1WF      WF58984  20.651   9.887   6.920 -0.1127 -0.0872  0.0816
    1WF      WF58985  25.987   4.701   9.983  0.1734 -0.1648 -0.1740
    1WF      WF58986  21.415   6.473   7.582  0.0928  0.0072 -0.2817
    1WF      WF58987  25.645  27.946   8.366  0.0239 -0.4866  0.3686
    1WF      WF58988  18.078  10.794   9.286 -0.0323 -0.3323  0.4116
    1WF      WF58989  21.998  19.462   2.040  0.1926  0.2151  0.2543
    1WF      WF58990   1.653  17.050   9.636  0.0315 -0.3164 -0.0667
    1WF      WF58991  11.106  19.252   9.801  0.2166  0.0892 -0.2483
    1WF      WF58992   4.810  14.963   9.532 -0.0879 -0.1198  0.2484
    1WF      WF58993  11.837  22.769   9.576 -0.0859 -0.0543  0.0780
    1WF      WF58994  21.302  26.033   8.677  0.2019  0.0537 -0.1728
    1WF      WF58995   5.344   4.323   9.345 -0.1335 -0.3134  0.0262
    1WF      WF58996   0.355   8.767   0.255 -0.2688  0.0030 -0.3747
    1WF      WF58997   4.020   4.252   9.919 -0.0825 -0.1080  0.0334
    1WF      WF58998   9.947  17.712   1.328 -0.2716 -0.1184  0.1201
    1WF      WF58999   4.345  24.339   1.821 -0.1122  0.0069  0.1366
    1WF      WF59000   9.181   6.898   8.668  0.0149  0.1913 -0.2795
    1WF      WF59001  10.376   6.456   0.709 -0.1691  0.2424  0.0320
    1WF      WF59002  27.492   9.521   8.081  0.3610  0.0126  0.0169
    1WF      WF59003  16.301   1.962   0.543 -0.0222 -0.2331  0.2710
    1WF      WF59004  25.343  19.497   0.685  0.0637  0.0287 -0.1572
    1WF      WF59005   1.155  21.973   0.059  0.1321  0.1358  0.0951
    1WF      WF59006  21.499   9.205   1.410 -0.3492  0.2370 -0.0338
    1WF      WF59007  14.204  21.557   1.179 -0.1246 -0.1653  0.3453
    1WF      WF59008  11.657   3.027   8.956 -0.1007 -0.0657  0.0856
    1WF      WF59009   2.756  27.980   9.341 -0.0476 -0.1058  0.2086
    1WF      WF59010   2.024   1.185   1.003  0.0032  0.0765  0.1533
    1WF      WF59011  11.559  11.009   9.682  0.3463 -0.0843  0.1806
    1WF      WF59012   1.945  13.231   0.160  0.1478  0.1043  0.1970
    1WF      WF59013  12.446  16.517   8.728  0.5044 -0.1428  0.1913
    1WF      WF59014   3.379  10.019   8.515 -0.0015 -0.2134  0.2235
    1WF      WF59015  17.683   2.342  10.059  0.0580  0.0725  0.3196
    1WF      WF59016  28.032  18.611   1.534 -0.2376 -0.0859  0.1987
    1WF      WF59017  16.482  16.883   2.011 -0.1700  0.3893 -0.0663
    1WF      WF59018  23.573  20.378   9.101 -0.0492 -0.1745 -0.2941
    1WF      WF59019  22.781   3.723   0.655  0.1850  0.1887  0.1141
    1WF      WF59020  28.060  18.104   1.091  0.1312  0.0119 -0.2543
    1WF      WF59021   3.953  17.622   1.847 -0.3612  0.1949 -0.0468
    1WF      WF59022  15.333  15.053   9.907 -0.1476  0.0344 -0.2105
    1WF      WF59023  26.265  15.277   0.721 -0.1187 -0.0982 -0.2171
    1WF      WF59024  16.790  17.182   1.729 -0.0760 -0.0174 -0.0668
    1WF      WF59025  25.335  24.792   8.743  0.0167 -0.1457  0.1307
    1WF      WF59026  16.877   7.568   9.149  0.0209 -0.1465 -0.1707
    1WF      WF59027  18.621  19.853   2.548 -0.3423  0.0773  0.2917
    1WF      WF59028  14.489  21.893   0.369 -0.2849 -0.1579 -0.1309
    1WF      WF59029  23.448   0.638   1.498  0.1406  0.0712  0.2825
    1WF      WF59030  11.156  20.213   1.783  0.1247  0.0953  0.0376
    1WF      WF59031   4.245  12.843   8.296  0.0763 -0.0745 -0.1242
    1WF      WF59032   7.879  26.220   9.255 -0.6059 -0.1626 -0.0105
    1WF      WF59033   3.732   3.654   0.934  0.0117  0.3968 -0.0130
    1WF      WF59034  18.953   7.070   8.846  0.0630 -0.0972 -0.1997
    1WF      WF59035  16.532   5.339   9.049 -0.0369 -0.3655 -0.0947
    1WF      WF59036  17.984  11.812  10.288 -0.1178  0.0992 -0.1893
    1WF      WF59037  17.926  27.289  10.097 -0.1331  0.3746 -0.0798
    1WF      WF59038  27.462  13.452   8.446  0.1012  0.1662  0.0818
    1WF      WF59039   1.589   5.099   9.417 -0.1201  0.1402 -0.2167
    1WF      WF59040  11.424   7.909   1.751 -0.1440  0.1706  0.1390
    1WF      WF59041  27.424  26.841   0.389  0.0340  0.2903 -0.4440
    1WF      WF59042  21.861  10.253   3.251  0.0343 -0.2036  0.1805
    1WF      WF59043   9.306  15.360   0.241  0.2237 -0.1233 -0.1187
    1WF      WF59044   6.294   6.048   8.238 -0.1379 -0.2359 -0.4143
    1WF      WF59045  17.432   2.606   0.002  0.2092  0.0852 -0.0896
    1WF      WF59046  22.273  16.376   2.032  0.1313 -0.3230 -0.1399
    1WF      WF59047  18.452  23.930   7.515  0.2312 -0.0849 -0.0110
    1WF      WF59048  24.079  21.045   2.590 -0.2366  0.2636  0.1124
    1WF      WF59049   3.727  25.816   1.144  0.0766  0.0766  0.2242
    1WF      WF59050  16.843  26.132   1.565  0.0925  0.2081  0.0706
    1WF      WF59051  18.932  22.034   2.719  0.0131  0.0791 -0.0623
    1WF      WF59052   8.208  23.957   9.638 -0.2012 -0.0849 -0.1744
    1WF      WF59053   3.822   9.575   0.587 -0.0846  0.0926  0.0543
    1WF      WF59054   5.762  27.627   8.682  0.3614 -0.0747 -0.0488
    1WF      WF59055  10.094   1.212  10.063  0.1050 -0.1624  0.2550
    1WF      WF59056  25.566  17.855   9.835 -0.0807 -0.1896 -0.1663
    1WF      WF59057   8.126   8.994   9.664  0.2969  0.0715 -0.1775
    1WF      WF59058   5.489   9.238   0.410 -0.2395  0.0239  0.0873
    1WF      WF59059   8.814  15.370   0.305  0.0216 -0.1296 -0.1154
    1WF      WF59060  20.055   8.714   1.291  0.0499 -0.1803  0.2635
    1WF      WF59061  11.666  11.787   2.004 -0.1517  0.0502 -0.1653
    1WF      WF59062  27.821  24.895   8.468 -0.1465  0.0392 -0.0191
    1WF      WF59063  24.645   5.380   3.269  0.2465 -0.1513 -0.0270
    1WF      WF59064   7.327  25.107   8.345  0.0690  0.0648  0.1350
    1WF      WF59065   1.020   0.688   2.957 -0.1373 -0.2482  0.1134
    1WF      WF59066  23.223  14.224  10.309 -0.0163  0.1706  0.0510
    1WF      WF59067  12.078   8.480   8.912  0.0856  0.0996  0.2727
    1WF      WF59068   3.082   5.421  10.072  0.1754 -0.0231  0.0547
    1WF      WF59069  26.522  25.253   0.534 -0.0193 -0.0536 -0.2500
    1WF      WF59070  26.734   0.276   1.730  0.3894 -0.2995  0.4425
    1WF      WF59071  12.779  11.856   1.168  0.0293  0.0105 -0.3568
    1WF      WF59072  19.980   8.309   1.574  0.0306 -0.3188 -0.1641
    1WF      WF59073  12.060   2.237   0.623  0.0658  0.1524  0.2133
    1WF      WF59074  20.721  16.620   2.089  0.1207 -0.1253  0.0333
    1WF      WF59075   5.768  25.450   7.390  0.0368 -0.1446  0.2107
    1WF      WF59076   4.498  23.449   9.834  0.0167 -0.0140  0.0226
    1WF      WF59077   6.221  25.837   9.879 -0.2390  0.2210  0.2970
    1WF      WF59078  27.685   1.231   8.680  0.1392 -0.0272  0.0391
    1WF      WF59079  14.828   7.132   9.337 -0.2483  0.2209  0.3986
    1WF      WF59080  26.238  25.413   1.806  0.0513 -0.1592  0.1547
    1WF      WF59081   7.269  19.024   1.268 -0.0516 -0.2596  0.1166
    1WF      WF59082   5.352   5.559   8.662 -0.2048  0.0645  0.1550
    1WF      WF59083  14.799   7.430   0.778  0.1623  0.0183 -0.0619
    1WF      WF59084  13.832  19.778   8.406 -0.3609  0.1743  0.2313
    1WF      WF59085   0.771  14.262   7.367  0.1281 -0.0945 -0.2831
    1WF      WF59086  13.285  15.502   8.659  0.0983 -0.1444  0.1740
    1WF      WF59087  21.594  15.567   0.346 -0.0965  0.3812 -0.0904
    1WF      WF59088  26.003  15.282   9.476  0.0715  0.0890 -0.2772
    1WF      WF59089  10.823   1.175   0.728  0.0389 -0.1979  0.1157
    1WF      WF59090  12.094  11.886   2.337  0.1920  0.0239 -0.1926
    1WF      WF59091  19.333   6.533   2.201 -0.4900 -0.1331  0.4150
    1WF      WF59092   4.702   6.945   9.416 -0.0933  0.1817  0.0034
    1WF      WF59093  18.892  27.035   7.424 -0.2598 -0.1105  0.1744
    1WF      WF59094  10.874  26.358   0.710 -0.3154 -0.3283  0.0306
    1WF      WF59095  16.716  13.870   2.229  0.0591 -0.1027 -0.3694
    1WF      WF59096  25.395   8.392   9.306 -0.0518  0.2251  0.0055
    1WF      WF59097   2.937  14.604   8.266 -0.0771 -0.1062 -0.1126
    1WF      WF59098  22.729   6.413   1.003 -0.1976  0.0560 -0.1049
    1WF      WF59099  12.423  21.275   0.569  0.0338  0.3619 -0.2656
    1WF      WF59100   0.964  20.357  10.361 -0.0439 -0.3156  0.1177
    1WF      WF59101   7.594  12.134   8.654 -0.1451 -0.0564 -0.0721
    1WF      WF59102  22.860  19.071   0.262  0.0703 -0.1097  0.1070
    1WF      WF59103   3.472  24.516   0.488 -0.2422 -0.2950  0.1489
    1WF      WF59104  20.687   1.147   9.538  0.1106 -0.0709  0.1698
    1WF      WF59105  21.439  12.673   1.578 -0.0313  0.0687  0.1226
    1WF      WF59106  26.195  12.891   1.742 -0.4427 -0.1867 -0.1321
    1WF      WF59107  15.680   6.972   1.879 -0.2979  0.1443 -0.1499
    1WF      WF59108   9.901  18.585   1.505  0.0441  0.4305 -0.0974
    1WF      WF59109  15.685  14.160   7.578  0.1132 -0.3222  0.0329
    1WF      WF59110  18.807  16.219   1.434  0.2648  0.0200  0.1081
    1WF      WF59111   3.196  27.964   8.984 -0.3272  0.4084  0.1049
    1WF      WF59112   4.015  24.750   9.913  0.0575  0.1785 -0.1663
    1WF      WF59113  20.863   7.420   9.534  0.0905 -0.1389  0.0233
    1WF      WF59114   7.410  15.824   7.591 -0.0442 -0.2285  0.2593
    1WF      WF59115   6.839  13.555  10.244  0.0289  0.0183  0.0659
    1WF      WF59116  17.385   2.972   1.212  0.1272 -0.0066 -0.0047
    1WF      WF59117  18.128   3.140   3.131  0.0169  0.0233 -0.0192
    1WF      WF59118   4.625  12.527   0.812 -0.1657  0.1143  0.1291
    1WF      WF59119  22.670   0.204   8.648 -0.3743 -0.0731  0.2653
    1WF      WF59120  21.591  12.194   1.478 -0.1015 -0.0121  0.2146
    1WF      WF59121   9.003   1.991   0.181 -0.0990 -0.3009 -0.0695
    1WF      WF59122  27.880   4.563   0.008 -0.0120  0.3329  0.0687
    1WF      WF59123   0.975  25.355   0.883  0.0673  0.1231 -0.0787
    1WF      WF59124  27.953  23.189   8.975 -0.1076  0.0551 -0.1001
    1WF      WF59125  19.826  20.380   2.641  0.1005 -0.2379 -0.0750
    1WF      WF59126   9.065  18.412   9.648 -0.0467 -0.3332 -0.4083
    1WF      WF59127   8.378   4.442  10.097  0.0122  0.0324  0.1307
    1WF      WF59128  13.259  22.886   2.011  0.2307  0.2460  0.0295
    1WF      WF59129  14.547   0.160   0.126 -0.0890  0.2882 -0.2025
    1WF      WF59130   3.320  23.049   8.846 -0.1179  0.0944  0.0245
    1WF      WF59131   9.002  13.679   0.967  0.0344  0.0387  0.1892
    1WF      WF59132  27.748  27.125   0.141  0.0674  0.0522 -0.0313
    1WF      WF59133  27.069  19.123   0.443 -0.5024  0.1174 -0.1201
    1WF      WF59134  20.999  13.882   9.201  0.1875  0.4414 -0.3564
    1WF      WF59135  25.559   0.200   8.070 -0.0447  0.1908 -0.2668
    1WF      WF59136  16.245  14.232   9.939  0.2290  0.0948  0.4480
    1WF      WF59137  22.747  26.827   0.187 -0.3251 -0.0865  0.0020
    1WF      WF59138  10.859  15.703  10.104  0.0072  0.1412  0.0006
    1WF      WF59139  21.428  20.945   9.179  0.2089 -0.0080 -0.0286
    1WF      WF59140  16.318  25.479   0.866  0.1202  0.1595 -0.3468
    1WF      WF59141  19.210   7.407   1.842 -0.1387  0.1229  0.2323
    1WF      WF59142  21.951  24.472   0.144 -0.0902  0.1223  0.1511
    1WF      WF59143  11.397   2.627   9.220  0.1858  0.1166 -0.1685
    1WF      WF59144   7.007  25.764   1.286  0.2731  0.2158 -0.2874
    1WF      WF59145  23.399  27.995   8.442  0.0187 -0.1061 -0.1450
    1WF      WF59146   4.937  17.764   9.587  0.0906  0.0562  0.0443
    1WF      WF59147  20.707  16.114   2.143 -0.1124 -0.0761 -0.0861
    1WF      WF59148   3.449   0.482   0.146  0.1573  0.0311 -0.0246
    1WF      WF59149   6.655  18.295   1.428 -0.3493 -0.2855 -0.0735
    1WF      WF59150  26.594  22.091   1.841 -0.1359  0.3109  0.0936
    1WF      WF59151  18.784  20.404   9.389  0.3440 -0.2079  0.2244
    1WF      WF59152  11.507  15.162   0.105 -0.0608 -0.4411 -0.0989
    1WF      WF59153  25.074   2.159   0.061 -0.0647 -0.1343 -0.0136
    1WF      WF59154  11.234   5.402   1.829  0.0340 -0.2543  0.1619
    1WF      WF59155  13.372  26.551  10.276  0.1991 -0.1155 -0.2446
    1WF      WF59156  15.678  21.165   8.352 -0.1065  0.3036  0.2459
    1WF      WF59157   5.180  19.914   7.341 -0.1786 -0.2681 -0.4362
    1WF      WF59158  19.592  18.105  10.215  0.0387 -0.2743  0.1488
    1WF      WF59159   9.704  13.890   2.837 -0.2333 -0.1090 -0.4683
    1WF      WF59160   5.637  10.867  10.342 -0.2420  0.2911 -0.2523
    1WF      WF59161   6.253  11.001   8.694  0.2940 -0.0160 -0.4178
    1WF      WF59162  19.065   9.121   9.057 -0.0761  0.0940 -0.1801
    1WF      WF59163  24.220   5.987   1.199 -0.0617  0.3456 -0.3304
    1WF      WF59164  19.465   5.082   7.074  0.2531 -0.2611 -0.0914
    1WF      WF59165   7.570  14.130   0.664 -0.2652  0.0271 -0.2758
    1WF      WF59166  27.712  25.336   0.878  0.1368  0.3327 -0.0305
    1WF      WF59167  14.407  14.405   1.895  0.1132 -0.0788 -0.0612
    1WF      WF59168  27.374  16.717   0.279  0.2854  0.1909  0.0008
    1WF      WF59169  20.455   3.390   1.725  0.0344 -0.0633 -0.2958
    1WF      WF59170  17.799  13.571   1.093 -0.3351 -0.2442  0.0827
    1WF      WF59171  11.720   3.087   1.923  0.1262 -0.1703 -0.0052
    1WF      WF59172  24.653  26.206   1.739  0.1009  0.0007 -0.2257
    1WF      WF59173  19.118  12.431   1.335 -0.0730 -0.0769  0.0106
    1WF      WF59174  13.382  25.386   7.394 -0.0223 -0.0886 -0.0081
    1WF      WF59175  19.243  17.153   9.726  0.1269  0.0887  0.1845
    1WF      WF59176  21.737  13.627   1.684 -0.3067  0.4655 -0.1214
    1WF      WF59177  15.164   4.721   8.953  0.1036  0.1774 -0.0497
    1WF      WF59178   1.180  26.328   9.939 -0.0968 -0.0044  0.3747
    1WF      WF59179  15.196   0.562   9.631 -0.0843  0.1994 -0.0930
    1WF      WF59180  22.602  15.937   0.548 -0.1347 -0.0419  0.2165
    1WF      WF59181   8.351  21.616   1.195  0.2205  0.0050 -0.0120
    1WF      WF59182  16.158  13.289   3.765 -0.3693 -0.3086  0.1555
    1WF      WF59183   4.642   4.675   6.430  0.3323 -0.3593  0.1714
    1WF      WF59184  24.749   2.006   9.522 -0.2509  0.3126  0.0794
    1WF      WF59185   2.972   4.630   7.896 -0.1602  0.0609  0.0471
    1WF      WF59186  21.711   9.846   6.933  0.1538 -0.3072  0.2297
    1WF      WF59187  24.048  26.110   1.932  0.2303  0.0014 -0.1672
    1WF      WF59188  24.861   3.058   8.468 -0.2487  0.0395 -0.0177
    1WF      WF59189  11.541  11.977  10.311 -0.2346 -0.1413 -0.0767
    1WF      WF59190   7.750  15.345   2.792 -0.0772 -0.0927  0.0380
    1WF      WF59191   0.197  23.565   8.674 -0.4226 -0.2845  0.0825
    1WF      WF59192  27.235  25.692   9.844 -0.1930 -0.0608  0.2644
    1WF      WF59193   8.925  12.141   2.571  0.0004 -0.0302  0.0328
    1WF      WF59194   7.318  21.913   0.127  0.0070 -0.1010 -0.0273
    1WF      WF59195   5.805  27.669   1.647 -0.2329  0.1772  0.1824
    1WF      WF59196  25.485  24.364   8.439 -0.1374 -0.4300  0.3243
    1WF      WF59197  18.274   3.603   2.163  0.1995 -0.0543 -0.2447
    1WF      WF59198   1.382  12.690   2.728 -0.2221  0.0314 -0.0183
    1WF      WF59199  11.235  24.842   7.225  0.1516 -0.0021 -0.3981
    1WF      WF59200  21.648   2.772   7.824 -0.2393 -0.2096 -0.4648
    1WF      WF59201  17.126  20.246  10.148  0.0380  0.0456  0.2553
    1WF      WF59202   6.342  20.657   2.133 -0.2119 -0.0323  0.1401
    1WF      WF59203  14.979   4.164   1.963  0.0770 -0.1113 -0.2089
    1WF      WF59204  18.950  26.309   0.638  0.1739  0.3608 -0.1679
    1WF      WF59205   9.323  21.322   1.274 -0.0585  0.2664  0.0245
    1WF      WF59206  25.521  21.060   1.161  0.3412 -0.1620 -0.0223
    1WF      WF59207  15.231  20.369   9.368 -0.2679  0.2560  0.3695
    1WF      WF59208   2.568   3.086   7.885  0.1262  0.0613  0.0257
    1WF      WF59209  23.104  17.938   8.416 -0.0515  0.1980  0.2708
    1WF      WF59210  13.701  16.096   1.374 -0.0742 -0.3560 -0.0452
    1WF      WF59211   4.230  15.892   8.499  0.3748  0.1692  0.0152
    1WF      WF59212  25.673   3.406   9.955 -0.2342  0.0137 -0.0935
    1WF      WF59213  15.611  26.355   8.522 -0.2134 -0.1077 -0.2234
    1WF      WF59214  16.524  13.333   2.387  0.0246  0.0880 -0.1965
    1WF      WF59215  15.663   8.539  10.359  0.0069 -0.3149 -0.2435
    1WF      WF59216  16.959   7.319   8.732  0.0848  0.1765  0.0185
    1WF      WF59217  28.126   8.862   8.258 -0.0576 -0.0966  0.1475
    1WF      WF59218  13.399   9.731   8.932  0.0520 -0.2407  0.0393
    1WF      WF59219  25.090  13.503  10.228 -0.1589 -0.1239  0.1534
    1WF      WF59220  27.052  19.945   7.748  0.1921 -0.1707  0.0558
    1WF      WF59221  12.370  14.052   9.749 -0.2860 -0.0926 -0.2249
    1WF      WF59222  20.287   5.575   8.870  0.3712 -0.2935 -0.0227
    1WF      WF59223   3.862  24.577   0.093  0.0343 -0.1795  0.0753
    1WF      WF59224   8.973  27.604   9.374 -0.0104  0.1393 -0.2378
    1WF      WF59225  26.318   4.147   0.753 -0.2483 -0.1669  0.2526
    1WF      WF59226  24.685  18.901   1.558  0.2622 -0.2730  0.1962
    1WF      WF59227  21.593  19.669   8.825 -0.1687  0.0954  0.2624
    1WF      WF59228  14.441  12.377   1.545  0.1000  0.0210 -0.0018
    1WF      WF59229  26.756  27.179   8.597 -0.0512  0.2737  0.1489
    1WF      WF59230   3.837   3.936  10.273 -0.0922  0.0644 -0.0006
    1WF      WF59231  10.711   4.701   3.201  0.0867  0.0616 -0.0659
    1WF      WF59232  12.535  14.608   1.189 -0.1456 -0.1296  0.2689
    1WF      WF59233  24.859  25.710   8.615  0.1784 -0.0168 -0.0447
    1WF      WF59234  20.331  27.620   0.939  0.0325  0.0124  0.0289
    1WF      WF59235   8.022  15.919   0.457  0.1521 -0.0874 -0.0196
    1WF      WF59236   0.753   6.205   8.066  0.1671  0.0583  0.1059
    1WF      WF59237  28.072  26.423   8.787  0.6445  0.0798  0.0206
    1WF      WF59238   8.112  27.242   2.270  0.1098  0.0692 -0.2513
    1WF      WF59239   6.501  13.453   0.848  0.1823  0.2139  0.1188
    1WF      WF59240   9.592  21.102   0.917  0.2706  0.1233 -0.0577
    1WF      WF59241   8.598  20.945   0.111 -0.2782 -0.0344 -0.1419
    1WF      WF59242  15.320   1.014   0.698 -0.2566  0.0519  0.0386
    1WF      WF59243  20.156  24.813  10.025  0.0737 -0.0167  0.1449
    1WF      WF59244  21.385  20.136   0.046  0.0882 -0.0589 -0.4534
    1WF      WF59245  12.966  25.178   9.573  0.1202 -0.2055  0.0525
    1WF      WF59246  27.857   6.636   9.971 -0.1368  0.2558  0.1322
    1WF      WF59247  26.399   3.728   8.636 -0.1005  0.1296  0.1992
    1WF      WF59248  10.215  21.793  10.291  0.3286 -0.1200  0.0214
    1WF      WF59249   6.633  11.260   1.543 -0.2631 -0.1131 -0.1701
    1WF      WF59250  18.535   4.111   0.450  0.1212  0.0002 -0.3563
    1WF      WF59251  24.320  14.599   0.367 -0.3067  0.0096  0.1396
    1WF      WF59252   0.716   5.203   8.610 -0.0386 -0.1753  0.0160
    1WF      WF59253   1.979  19.036   7.953  0.2066  0.0634 -0.1378
    1WF      WF59254   0.907  11.766   1.154  0.1509  0.1811 -0.1860
    1WF      WF59255  24.149  15.074   0.456 -0.1067  0.3645 -0.0730
    1WF      WF59256  15.634   4.200   9.875  0.2620  0.1300 -0.1781
    1WF      WF59257  20.969   3.284   1.768  0.0029 -0.2083 -0.2280
    1WF      WF59258  11.339  20.960   8.193  0.2010  0.1843  0.1128
    1WF      WF59259  25.902   4.081   0.468 -0.1013  0.0266 -0.1506
    1WF      WF59260  11.123   7.420  10.315  0.2245  0.2040  0.0306
    1WF      WF59261   2.378   5.684   5.848 -0.1254 -0.0678 -0.0040
    1WF      WF59262   2.086  27.648   7.829 -0.2013  0.1055 -0.0572
    1WF      WF59263  15.760  12.548   0.365 -0.4070 -0.0329 -0.1597
    1WF      WF59264  14.790  21.093   9.134 -0.2716  0.1314 -0.1354
    1WF      WF59265   0.319  16.735   6.390 -0.1694 -0.0051 -0.1493
    1WF      WF59266   4.194   8.570   2.300  0.1036 -0.0111 -0.3959
    1WF      WF59267  14.303  22.879   9.761  0.0011  0.1605  0.0127
    1WF      WF59268  21.584  22.367   8.397  0.0447 -0.1954 -0.0111
    1WF      WF59269  15.226  26.722   8.794  0.0277 -0.0905 -0.2334
    1WF      WF59270   6.068  20.281   1.963 -0.1414 -0.0246  0.1150
    1WF      WF59271   9.164  12.523   8.936  0.3054 -0.1134 -0.2187
    1WF      WF59272  10.541  18.754  10.006 -0.1706  0.0855 -0.1936
    1WF      WF59273   8.611  23.078   9.501 -0.2957  0.0932  0.2189
    1WF      WF59274  25.743  23.045   9.509 -0.0766 -0.2407  0.0997
    1WF      WF59275  25.454  21.970   8.763 -0.0329 -0.2317  0.4192
    1WF      WF59276  11.890   7.409   7.496  0.0732 -0.0323 -0.0886
    1WF      WF59277   9.182  12.222   8.500 -0.2705 -0.1829  0.2954
    1WF      WF59278   5.578   6.798   8.846  0.0829 -0.0034 -0.0557
    1WF      WF59279   8.943   7.314   8.913 -0.4073  0.0366  0.1418
    1WF      WF59280   2.469  22.193   1.394  0.0499  0.1168  0.1198
    1WF      WF59281   1.792  13.628   7.514  0.3856 -0.1985 -0.1668
    1WF      WF59282   8.120  23.044   2.804  0.0357  0.0238  0.0914
    1WF      WF59283   5.492  20.107   0.371 -0.1835 -0.0558  0.0145
    1WF      WF59284   2.056   3.157   8.021  0.2809 -0.0216 -0.1656
    1WF      WF59285  26.405   2.136   0.240 -0.0186 -0.0205  0.4854
    1WF      WF59286  11.214  17.190   0.052 -0.0401  0.0941  0.1850
    1WF      WF59287  25.868  25.616   0.509  0.1227  0.2852  0.1658
    1WF      WF59288  20.740  23.011   2.079 -0.1556 -0.0742  0.0970
    1WF      WF59289  21.216  14.193  10.117  0.2355  0.1051 -0.4962
    1WF      WF59290  18.818   1.594  10.015 -0.1788 -0.2225 -0.2195
    1WF      WF59291  25.345   3.170   3.113  0.3543 -0.1004  0.2328
    1WF      WF59292  22.979  27.097   9.311 -0.0516  0.1865  0.0378
    1WF      WF59293  23.767   8.999   1.610 -0.0383 -0.0238 -0.0646
    1WF      WF59294  10.176  17.369   0.962 -0.3837  0.1332  0.1339
    1WF      WF59295  11.870  17.201   9.937  0.3595  0.0527  0.1996
    1WF      WF59296  15.338   4.331   2.380 -0.1468  0.4361  0.1119
    1WF      WF59297  21.012  22.365   1.346 -0.0620  0.0337  0.3445
    1WF      WF59298   1.327  13.559   7.690  0.0512 -0.0592  0.1673
    1WF      WF59299  15.940  25.261   0.521 -0.4245  0.1537 -0.1417
    1WF      WF59300  11.714   2.531   0.956 -0.0946  0.2314  0.2295
    1WF      WF59301  27.843   0.253   0.947  0.0071 -0.0239 -0.0602
    1WF      WF59302   3.441   8.941   9.908 -0.1472 -0.0068 -0.0500
    1WF      WF59303   8.083  13.556   8.432  0.2722 -0.1337  0.1397
    1WF      WF59304  27.281  18.977   9.271 -0.1060 -0.0788 -0.2619
    1WF      WF59305   6.300   8.254   2.077  0.0735 -0.0721 -0.0224
    1WF      WF59306  18.692   7.661   3.910 -0.1040 -0.1363 -0.0294
    1WF      WF59307   0.353  13.111   2.622  0.0379  0.2083  0.1766
    1WF      WF59308  10.446   2.342   0.190  0.4083 -0.2557  0.2023
    1WF      WF59309  18.916  22.195   9.358 -0.0416  0.1421 -0.3044
    1WF      WF59310   9.234   4.076   1.806  0.2335 -0.0930  0.0320
    1WF      WF59311  11.566   3.981   9.261 -0.0998 -0.1138  0.0181
    1WF      WF59312  27.308  16.245   0.434 -0.0472 -0.1034 -0.4131
    1WF      WF59313  13.943  19.580   7.853 -0.1652  0.2009  0.1027
    1WF      WF59314   7.578  15.451   8.125 -0.3213 -0.0333 -0.0135
    1WF      WF59315  17.441  20.836   1.028  0.1136  0.2842 -0.2465
    1WF      WF59316  18.170  17.189   1.613  0.2329 -0.2990  0.3394
    1WF      WF59317   2.251   1.406   8.286  0.2163 -0.0245 -0.1885
    1WF      WF59318  17.421  25.209   9.178  0.1537  0.4755  0.1600
    1WF      WF59319  17.053  24.510   1.439 -0.0025 -0.2179 -0.0516
    1WF      WF59320  18.786  22.282   0.931 -0.0461 -0.2821  0.0980
    1WF      WF59321  14.988  22.205   9.680  0.0256  0.0189 -0.0202
    1WF      WF59322  10.528  21.663   9.848  0.1263 -0.2505  0.0559
    1WF      WF59323  17.285   5.408   0.694  0.2327  0.1707  0.2888
    1WF      WF59324  25.255  25.989   8.736 -0.2155 -0.0481 -0.2553
    1WF      WF59325   6.881  14.823   8.664  0.0152  0.0842 -0.0517
    1WF      WF59326  24.276  17.408   1.767 -0.0775  0.3438  0.0253
    1WF      WF59327  27.347  21.111   0.411 -0.1052  0.1972  0.0750
    1WF      WF59328   0.581  14.463   1.127 -0.0799 -0.3228 -0.1895
    1WF      WF59329   1.794  13.301   1.065  0.0096 -0.2224  0.3450
    1WF      WF59330  16.475  21.532  10.313 -0.0763 -0.1044  0.1392
    1WF      WF59331   2.303  24.359   8.408  0.0399  0.0007 -0.1802
    1WF      WF59332  19.147  16.069   2.675  0.1157 -0.1403  0.1650
    1WF      WF59333   8.085  22.857   0.796  0.4190  0.1293  0.0456
    1WF      WF59334  18.141  12.586   8.495 -0.2719 -0.3846 -0.1891
    1WF      WF59335  14.790  19.326   1.964 -0.1713  0.2297  0.0635
    1WF      WF59336  26.459  26.263   2.575  0.0575  0.0815 -0.0031
    1WF      WF59337  25.522  18.999   0.603 -0.1229 -0.1734  0.0158
    1WF      WF59338  25.054  17.739   9.917 -0.0279 -0.0964  0.2032
    1WF      WF59339  12.280   0.704   8.516  0.3949 -0.1367 -0.1685
    1WF      WF59340  14.148  25.155   6.403  0.2844 -0.3464  0.0331
    1WF      WF59341  15.698  23.963   9.492  0.1284 -0.2560  0.3086
    1WF      WF59342  13.718  19.449   0.298 -0.2533 -0.4982  0.0132
    1WF      WF59343   8.955  17.991   9.348 -0.0919 -0.2801 -0.1587
    1WF      WF59344  12.255  24.032   1.140 -0.0563  0.0079 -0.1307
    1WF      WF59345  20.656  20.341   9.871  0.1127  0.1054  0.1770
    1WF      WF59346   0.819  22.633   1.092 -0.1846 -0.1230  0.1000
    1WF      WF59347   7.735  11.139   7.012 -0.1872 -0.2874 -0.0847
    1WF      WF59348   0.518  14.226   7.768 -0.0330  0.2751 -0.1351
    1WF      WF59349  22.090   1.818   8.880 -0.0919 -0.0963  0.0199
    1WF      WF59350  26.767  12.578   0.024  0.0613 -0.0576 -0.1413
    1WF      WF59351  14.451  21.871   1.558  0.1963  0.0296  0.0002
    1WF      WF59352  15.989  15.848   8.560  0.0151  0.0130 -0.0375
    1WF      WF59353  25.886  26.263   9.583  0.2961  0.1641  0.1179
    1WF      WF59354  24.197  24.870   1.858 -0.1741  0.0302  0.1348
    1WF      WF59355  14.249  10.239   2.654 -0.1922  0.0421 -0.2287
    1WF      WF59356   6.668  16.119   8.777 -0.3793 -0.0070  0.0097
    1WF      WF59357   0.958   6.336  10.226 -0.0664 -0.4283  0.2734
    1WF      WF59358  26.900  14.479   1.376  0.0111 -0.1112 -0.1221
    1WF      WF59359   2.063  13.164   0.677  0.0447 -0.2284  0.0995
    1WF      WF59360  22.091  23.949   8.285  0.1664 -0.1247 -0.0269
    1WF      WF59361  25.405  27.408   9.691 -0.1213  0.1053 -0.0309
    1WF      WF59362  25.915  10.166   0.915 -0.1188  0.1550  0.1709
    1WF      WF59363  15.814   1.247  10.155 -0.0642  0.3606 -0.1514
    1WF      WF59364   2.704   9.420   2.202  0.0262  0.3819  0.0928
    1WF      WF59365  12.001  14.407   9.919 -0.0366  0.2672 -0.1347
    1WF      WF59366  17.271  20.226   2.094 -0.5235 -0.2325  0.0000
    1WF      WF59367  11.784  24.262   8.780  0.0808 -0.3332  0.0832
    1WF      WF59368  20.690  27.703   0.549  0.0375  0.1297  0.1503
    1WF      WF59369   2.948   0.197   2.488 -0.0094  0.2432  0.0939
    1WF      WF59370  27.663  27.081   1.209 -0.0011  0.1686 -0.0092
    1WF      WF59371   8.388  21.122  10.057 -0.0731  0.1666  0.0733
    1WF      WF59372   0.147   0.355   1.388  0.0477  0.0022 -0.0380
    1WF      WF59373  26.408  23.784   9.306  0.2533 -0.0969 -0.4365
    1WF      WF59374  16.371   1.376   3.764  0.0329 -0.2273 -0.0263
    1WF      WF59375   6.918  12.091   7.757 -0.0683 -0.1613  0.2652
    1WF      WF59376   7.411   1.342   1.168  0.2080 -0.0432  0.0869
    1WF      WF59377  25.750  13.746   0.395 -0.1694  0.1126  0.0091
    1WF      WF59378   6.637  14.171   2.279  0.2137 -0.0066 -0.1102
    1WF      WF59379   0.657  14.009   9.426 -0.0847  0.3623  0.2317
    1WF      WF59380  14.370   7.260   0.650  0.0504 -0.1567 -0.0539
    1WF      WF59381   6.609  10.688   9.985  0.1228 -0.0348  0.0625
    1WF      WF59382   1.375   9.646   1.533  0.0505 -0.0437  0.0393
    1WF      WF59383  13.247   0.421   0.560  0.1372 -0.1401 -0.0795
    1WF      WF59384  11.556  14.568   1.032  0.1102 -0.1935 -0.1028
    1WF      WF59385  19.016  20.506   2.118 -0.1664  0.0365  0.1744
    1WF      WF59386  23.203  19.282  10.348  0.2894  0.0148  0.1845
    1WF      WF59387   4.399  13.074   8.821  0.1210 -0.0103  0.2280
    1WF      WF59388  18.721  15.741   1.400 -0.0366  0.3873  0.0287
    1WF      WF59389   1.992  23.960   8.397  0.1972 -0.4444  0.0277
    1WF      WF59390   7.745  25.985   8.190  0.0221  0.1649  0.2695
    1WF      WF59391   3.710  15.843   9.984 -0.1174 -0.1721 -0.2440
    1WF      WF59392  17.367  28.113   8.629  0.4245 -0.3449 -0.0342
    1WF      WF59393  27.478   3.516   9.302 -0.1143  0.1236  0.0637
    1WF      WF59394  20.829  22.455   1.792 -0.4141 -0.1802  0.1470
    1WF      WF59395   8.856  25.304   9.848 -0.2714 -0.1937  0.0144
    1WF      WF59396  23.485  26.009   0.889 -0.0663  0.1603  0.1222
    1WF      WF59397   4.399  23.905   7.590 -0.1349 -0.0032  0.5830
    1WF      WF59398  14.401   2.934   1.520 -0.1032  0.2457 -0.1144
    1WF      WF59399   0.877   0.629   8.663  0.0042  0.1630  0.1622
    1WF      WF59400  15.204   1.118   7.826 -0.2599  0.2476 -0.1991
    1WF      WF59401   1.828  27.230   0.666  0.0416  0.0840 -0.0506
    1WF      WF59402  26.590   8.138   1.490 -0.0683 -0.0662  0.0298
    1WF      WF59403   7.909   4.790   0.832  0.0101 -0.3520 -0.2107
    1WF      WF59404  27.943   5.182   0.580 -0.1206 -0.5304 -0.4326
    1WF      WF59405   8.234  11.383   6.710 -0.1675 -0.4714 -0.0737
    1WF      WF59406  18.013  19.714   7.447  0.1180  0.1004  0.1485
    1WF      WF59407   8.549  18.205   9.670 -0.0135  0.1547 -0.0549
    1WF      WF59408   5.827  11.055   9.007 -0.3497 -0.2063 -0.0892
    1WF      WF59409  24.255  17.248   1.251  0.1431 -0.1813 -0.0584
    1WF      WF59410  12.476  18.148   7.149 -0.1906 -0.0770 -0.0564
    1WF      WF59411  26.115  17.986   9.697  0.0166  0.1350  0.0264
    1WF      WF59412  16.587  24.370   1.558  0.1109  0.0738 -0.0035
    1WF      WF59413  13.282  23.572   0.601 -0.0394 -0.1006  0.1010
    1WF      WF59414  10.372  20.573   8.792 -0.1421 -0.3115 -0.2760
    1WF      WF59415  23.647  10.658   8.968 -0.0268 -0.2487  0.2027
    1WF      WF59416   7.794  22.880   1.213  0.0104  0.3153 -0.1540
    1WF      WF59417   4.553  22.045   0.752  0.0440  0.0655  0.0878
    1WF      WF59418  23.507   5.912  10.355 -0.2376  0.0469 -0.2774
    1WF      WF59419   0.065  23.840   8.224  0.0454 -0.0599  0.0954
    1WF      WF59420  13.422  21.800   8.508 -0.1009 -0.0806 -0.0320
    1WF      WF59421   2.703   1.808   7.314  0.3370 -0.4717 -0.0723
    1WF      WF59422  21.608  12.106   9.226  0.1604 -0.0767 -0.1264
    1WF      WF59423  18.029   4.030   8.936  0.1591 -0.3821 -0.0064
    1WF      WF59424  19.899   0.645   2.607  0.1541  0.0753  0.0590
    1WF      WF59425   6.527  27.760   7.798  0.2500 -0.0755 -0.1453
    1WF      WF59426  21.906   6.204   0.519 -0.2224 -0.0305 -0.1371
    1WF      WF59427  14.313   0.391   8.526 -0.0950  0.0963  0.0288
    1WF      WF59428  28.003   1.218   9.558  0.2164  0.0429 -0.3146
    1WF      WF59429   9.104   1.539   0.907 -0.2458 -0.0502 -0.1195
    1WF      WF59430  20.949  20.472   1.932  0.2761 -0.0698  0.0043
    1WF      WF59431  23.186  26.072   8.585  0.0566  0.1395  0.0062
    1WF      WF59432  24.847  18.867   2.062 -0.0939 -0.0220  0.2514
    1WF      WF59433   5.075  12.616   3.220 -0.0447 -0.1401 -0.1913
    1WF      WF59434   3.547  21.987   7.697  0.0426 -0.3290 -0.2998
    1WF      WF59435  21.513   1.813   0.739  0.2601  0.1245  0.0838
    1WF      WF59436   4.331  22.313   7.024 -0.3879  0.1099  0.0135
    1WF      WF59437  17.607   7.707   3.366  0.0520 -0.1941 -0.1150
    1WF      WF59438  19.151   9.557   2.163  0.4015  0.0656 -0.0645
    1WF      WF59439  14.580   4.108   0.207 -0.1134 -0.1005  0.0963
    1WF      WF59440  13.523  18.866   1.615 -0.1430 -0.0049  0.0503
    1WF      WF59441  19.055  14.346   9.452 -0.1953  0.1960 -0.0876
    1WF      WF59442  23.741  28.039   6.885  0.1706 -0.1881  0.1648
    1WF      WF59443  12.204  17.322   9.588 -0.2095 -0.1010  0.0121
    1WF      WF59444  17.982  15.612   9.830  0.2999 -0.1608  0.0809
    1WF      WF59445  14.050  15.957  10.258 -0.0591 -0.0399  0.0339
    1WF      WF59446   1.662   0.771   8.726 -0.4355 -0.0949 -0.0480
    1WF      WF59447  21.758  22.591   0.789  0.0435 -0.0284 -0.1607
    1WF      WF59448   4.393  16.752   0.303 -0.1857 -0.0054  0.1715
    1WF      WF59449   5.362   7.182   7.617 -0.0239 -0.2614  0.0298
    1WF      WF59450  11.634   2.908   2.412 -0.2564 -0.2123  0.0752
    1WF      WF59451  15.115   4.197   2.924  0.0124 -0.0460  0.1072
    1WF      WF59452  23.022  24.595   3.866 -0.1493  0.1168  0.0142
    1WF      WF59453   5.133  16.609   8.937 -0.1631 -0.1612 -0.3528
    1WF      WF59454  27.845  20.845   0.392 -0.0140  0.0125 -0.0486
    1WF      WF59455  24.801  17.211   8.856 -0.3552 -0.1794  0.2142
    1WF      WF59456  13.195  12.859   7.394  0.1830 -0.2030  0.1993
    1WF      WF59457  22.535  24.388   8.182 -0.0221  0.3816 -0.0903
    1WF      WF59458   2.707  11.751   0.195 -0.2242 -0.2133  0.1314
    1WF      WF59459   9.726  20.025   9.207  0.1173  0.2801 -0.0915
    1WF      WF59460  21.299  17.586   2.573 -0.2918 -0.1317 -0.0001
    1WF      WF59461   2.119  15.842   7.930 -0.1471  0.0006 -0.1564
    1WF      WF59462   7.023  23.508   1.277  0.0658 -0.1002 -0.1090
    1WF      WF59463   0.927   4.093   0.541 -0.0685 -0.2381 -0.2316
    1WF      WF59464   9.987  26.905   7.318  0.1517 -0.1123  0.1742
    1WF      WF59465  27.495   1.738   0.224  0.1998  0.0167 -0.3802
    1WF      WF59466   3.609   5.422  10.200 -0.1357 -0.3315  0.0662
    1WF      WF59467  20.726  16.288   8.983 -0.1565  0.1319 -0.1645
    1WF      WF59468   2.271  21.309   8.533  0.0705 -0.1425 -0.0258
    1WF      WF59469  13.798   6.313   0.208 -0.1024  0.1754 -0.2610
    1WF      WF59470  13.789  19.957   0.224 -0.1626 -0.0600 -0.1958
    1WF      WF59471  22.019  14.156   8.146  0.0821  0.1196  0.1847
    1WF      WF59472   9.896  22.064   1.730  0.0946 -0.3548  0.0607
    1WF      WF59473  23.408  17.647   8.197 -0.2505  0.1022  0.1097
    1WF      WF59474  21.943  18.259   9.291  0.0148  0.0861 -0.0814
    1WF      WF59475   6.098  20.244  10.040 -0.1455  0.4081 -0.1829
    1WF      WF59476  26.793  24.520   6.894 -0.1326 -0.0257 -0.2039
    1WF      WF59477   5.815   6.630   8.171  0.1303 -0.1848 -0.0574
    1WF      WF59478  14.705  20.224   1.699  0.1466  0.5690 -0.1824
    1WF      WF59479  27.800  24.205   9.936  0.0087 -0.2608 -0.1953
    1WF      WF59480  27.334   3.807   6.336 -0.0015 -0.0423  0.0561
    1WF      WF59481  20.945  10.908   1.094  0.1698 -0.1260  0.0339
    1WF      WF59482  10.784  18.783   1.760  0.2028 -0.0092 -0.0590
    1WF      WF59483   1.938   2.728   6.136  0.0710 -0.0419  0.0002
    1WF      WF59484  15.879  25.522   2.151 -0.0627 -0.1413 -0.2523
    1WF      WF59485   9.440  26.525   7.912  0.1564  0.0555  0.4376
    1WF      WF59486  17.025  27.301   0.870 -0.2869  0.0547 -0.0964
    1WF      WF59487   4.546   0.577  10.282 -0.2004 -0.0008  0.0109
    1WF      WF59488  27.514  15.672   7.896  0.2229 -0.2997 -0.0193
    1WF      WF59489   7.931  26.995   1.279  0.1172 -0.0137  0.0400
    1WF      WF59490   7.353   2.838   2.978 -0.2780  0.0605 -0.0744
    1WF      WF59491   0.690  18.043   0.482  0.3332 -0.0425  0.3575
    1WF      WF59492  19.109   0.975   1.290  0.0295  0.1918  0.0655
    1WF      WF59493  24.170  15.124   8.624 -0.2374  0.1348 -0.0796
    1WF      WF59494   6.629  24.297   2.581  0.1198 -0.2067 -0.1933
    1WF      WF59495   1.743  14.476   0.960 -0.1102 -0.2393  0.2071
    1WF      WF59496   1.276  13.511   8.160 -0.1130 -0.0794  0.0892
    1WF      WF59497  19.484  11.820   7.328 -0.1215 -0.2059 -0.1011
    1WF      WF59498  22.425  27.263   0.927  0.1375 -0.2568  0.1367
    1WF      WF59499  13.320  15.766   9.106 -0.0069 -0.0203  0.1686
    1WF      WF59500  24.293  15.996   6.788 -0.0017 -0.1820 -0.1057
    1WF      WF59501   8.391  25.751   0.903 -0.1950 -0.1391 -0.0482
    1WF      WF59502   1.893  20.359   8.032  0.0536  0.0890  0.0222
    1WF      WF59503  21.176   8.893   1.743 -0.2642 -0.0225  0.0092
    1WF      WF59504  19.281  26.002   0.110 -0.2398 -0.0745 -0.2856
    1WF      WF59505   9.178  18.372   8.655  0.1755  0.0156 -0.1541
    1WF      WF59506   2.558  26.375  10.297 -0.2505  0.4091 -0.2388
    1WF      WF59507  17.122   0.341   9.559  0.0240 -0.0844 -0.1928
    1WF      WF59508  21.570  22.645   7.967  0.0802  0.1385 -0.1061
    1WF      WF59509  20.783   0.065   0.000 -0.2074  0.0103  0.0950
    1WF      WF59510   3.765  14.268   0.804  0.1145  0.0197 -0.0708
    1WF      WF59511   6.986  16.849  10.001  0.1469 -0.0500 -0.1253
    1WF      WF59512  22.868   2.254   9.773  0.1919  0.3473 -0.0083
    1WF      WF59513   6.120  13.908   7.927  0.1327  0.0088  0.1410
    1WF      WF59514   4.790  20.057   8.473 -0.0280 -0.0221 -0.1120
    1WF      WF59515  18.253  19.452   2.629 -0.3447 -0.4907 -0.1381
    1WF      WF59516   8.434  26.140   9.559 -0.0603  0.2458  0.1031
    1WF      WF59517  21.815   2.845   7.355  0.0450  0.2092 -0.1404
    1WF      WF59518  26.196   1.831   1.137  0.0089 -0.1775 -0.1095
    1WF      WF59519  16.283  20.210   2.084 -0.0064 -0.1184 -0.3383
    1WF      WF59520  15.037  24.751   1.465 -0.1419 -0.0796 -0.2012
    1WF      WF59521   5.768   8.953   8.800  0.2480  0.2943  0.1408
    1WF      WF59522   1.668  11.290   2.307  0.0779 -0.0628 -0.1976
    1WF      WF59523   5.430   8.427   6.683 -0.3539 -0.0918 -0.2486
    1WF      WF59524   0.886  22.169   1.349 -0.2497 -0.1020 -0.0404
    1WF      WF59525  16.459  16.380   1.878  0.1885 -0.0545  0.1028
    1WF      WF59526  24.880  13.924   0.480 -0.0756  0.0817  0.0019
    1WF      WF59527  23.265   5.879   0.455 -0.0028 -0.0878  0.1530
    1WF      WF59528  23.364  21.964   1.179 -0.0117  0.1748  0.0997
    1WF      WF59529  16.550  16.862   9.415  0.0267 -0.0219 -0.2648
    1WF      WF59530   5.861  17.898   1.535 -0.0105 -0.0112 -0.0101
    1WF      WF59531   0.773   5.203   9.099 -0.1997  0.0154 -0.3233
    1WF      WF59532   9.135  15.588   1.826  0.0872 -0.0885  0.2155
    1WF      WF59533  24.386  16.928   1.658  0.1795  0.1045  0.0757
    1WF      WF59534  16.030  10.023   0.246 -0.4263 -0.1416  0.0852
    1WF      WF59535   4.784   5.510   0.788 -0.2540 -0.0892 -0.4357
    1WF      WF59536  21.512   6.654   7.091 -0.2249  0.1515 -0.3246
    1WF      WF59537  11.245  20.249   1.285  0.1203 -0.0538 -0.0291
    1WF      WF59538  12.234  12.383   0.008  0.0783  0.0161 -0.1323
    1WF      WF59539  13.781   2.283   8.333  0.3502 -0.2514 -0.1338
    1WF      WF59540   6.312  27.839   1.582  0.1508 -0.0058 -0.1263
    1WF      WF59541  23.740  16.352   9.875 -0.1225  0.0307  0.4769
    1WF      WF59542  10.814   6.544   3.515 -0.3991  0.1279  0.3100
    1WF      WF59543   1.303  18.850   0.713 -0.1059  0.0233  0.0009
    1WF      WF59544   7.483   2.607   8.731 -0.1982  0.2331  0.0286
    1WF      WF59545   6.970  27.776   7.590 -0.0394 -0.3595 -0.1431
    1WF      WF59546  14.051  20.053   8.037 -0.1399  0.0685  0.0146
    1WF      WF59547   1.160  26.844   9.989 -0.0853 -0.1954 -0.1648
    1WF      WF59548  26.033  13.688   0.959  0.0816  0.0539  0.0356
    1WF      WF59549  17.741  25.078  10.121  0.0650 -0.1801 -0.3522
    1WF      WF59550  11.104  22.664   0.042  0.1747  0.2262 -0.2978
    1WF      WF59551  11.928  26.493   9.796 -0.0867 -0.0351  0.0255
    1WF      WF59552   6.807   1.684   2.019  0.2973  0.0195 -0.4232
    1WF      WF59553   7.244   2.554   0.586 -0.3601 -0.1720 -0.1580
    1WF      WF59554   1.176  16.996   1.018 -0.1395  0.2835  0.2807
    1WF      WF59555   5.889  20.350   0.186  0.0723  0.0340 -0.0769
    1WF      WF59556  24.222   7.559   9.030  0.2558 -0.1939 -0.1172
    1WF      WF59557   1.735   7.051   9.633 -0.2213 -0.1828  0.2458
    1WF      WF59558   8.232  24.556  10.277 -0.1514  0.1754 -0.0848
    1WF      WF59559  16.107   8.767   1.292 -0.1197 -0.2119  0.1203
    1WF      WF59560  24.072   5.127   1.829 -0.2966  0.0564  0.1314
    1WF      WF59561  24.126  15.606   0.295 -0.2295 -0.1558 -0.0282
    1WF      WF59562   6.145  13.314   9.902 -0.1384  0.0025  0.2624
    1WF      WF59563   0.211   1.134   0.349 -0.3743 -0.0349 -0.1940
    1WF      WF59564  25.707   1.148   8.244  0.0487 -0.1052 -0.1028
    1WF      WF59565  23.493   3.170   8.038  0.0610  0.0209 -0.0206
    1WF      WF59566   7.495  17.093   8.215  0.2492  0.0065  0.0020
    1WF      WF59567  11.328  10.572   0.949  0.1117  0.0593 -0.2073
    1WF      WF59568  26.048   5.306   6.643  0.2757  0.2852  0.0769
    1WF      WF59569  18.504  22.283   8.738 -0.2475  0.0154  0.1499
    1WF      WF59570  18.471  17.890   3.878 -0.3003 -0.2519 -0.2930
    1WF      WF59571   4.617   9.695   8.936 -0.0407 -0.3332 -0.2691
    1WF      WF59572  21.420  21.289   1.489  0.2495  0.0809  0.0436
    1WF      WF59573  20.132  15.288   8.760  0.1875  0.0233 -0.1678
    1WF      WF59574   6.225  18.262   9.053  0.0291  0.1520  0.1162
    1WF      WF59575  11.350   9.658   1.496  0.0420 -0.1923 -0.1157
    1WF      WF59576   8.923  24.128   1.231 -0.0895  0.2486  0.1598
    1WF      WF59577   5.044  28.043   8.504 -0.0418  0.1164 -0.0180
    1WF      WF59578  27.118  23.096   1.190 -0.1820  0.0688 -0.1284
    1WF      WF59579  22.340  20.943   8.247 -0.1968  0.1667  0.1413
    1WF      WF59580   8.792  28.019   9.289 -0.0953 -0.0685 -0.3616
    1WF      WF59581   6.569  25.845   1.074  0.0548  0.0499 -0.5206
    1WF      WF59582   7.091  22.164   0.519 -0.0439 -0.3096 -0.2306
    1WF      WF59583  27.499  19.749   2.411  0.0699 -0.5814 -0.1280
    1WF      WF59584   5.679  16.757   8.883 -0.2245  0.1017  0.0917
    1WF      WF59585  18.401   9.342   0.652  0.0096 -0.0727 -0.1966
    1WF      WF59586  12.861   0.994   9.581  0.1902 -0.0646  0.0371
    1WF      WF59587   8.293  23.471   9.488 -0.0110 -0.0102  0.0636
    1WF      WF59588  13.603   6.775   0.245 -0.1558 -0.2087 -0.0779
    1WF      WF59589  20.539  14.339   0.435  0.2334  0.1002  0.1783
    1WF      WF59590   3.942  21.708  10.045  0.0855  0.1681 -0.0718
    1WF      WF59591  12.809  26.573   2.384 -0.1580  0.0716  0.4252
    1WF      WF59592  26.810  23.009   0.795 -0.0696 -0.1716  0.4026
    1WF      WF59593   8.250  15.020   9.012 -0.2617  0.0191  0.0110
    1WF      WF59594   6.186  27.374   0.444 -0.0079 -0.0161  0.5575
    1WF      WF59595   3.879  26.806   1.850  0.2028  0.0315 -0.2427
    1WF      WF59596  18.095  18.679   8.949 -0.3267  0.1183 -0.0174
    1WF      WF59597   3.945  27.500   8.624 -0.2907 -0.0900 -0.0933
    1WF      WF59598  16.883  14.658   2.487  0.4629  0.1763  0.1003
    1WF      WF59599  11.978   0.231   8.412  0.0260  0.4572 -0.1973
    1WF      WF59600  14.401   4.254   9.077  0.2141 -0.0649 -0.2076
    1WF      WF59601   1.016   2.422   7.907 -0.4326 -0.0966 -0.0378
    1WF      WF59602  14.485  18.483   8.682  0.4279 -0.2402 -0.3679
    1WF      WF59603  19.196   3.200  10.264 -0.0391 -0.0663  0.0587
    1WF      WF59604  19.179   2.844   0.314  0.0187  0.2864 -0.1947
    1WF      WF59605   7.707  19.051   3.140  0.0296  0.2987  0.2470
    1WF      WF59606  16.265  25.190   2.196  0.0793 -0.3227 -0.1119
    1WF      WF59607  15.167   5.565   1.264  0.0413 -0.0072  0.1832
    1WF      WF59608  26.801  27.553   7.331 -0.0352 -0.1585 -0.2012
    1WF      WF59609  21.721   6.130   0.052  0.2070  0.0305 -0.0078
    1WF      WF59610  18.880   3.962   7.396 -0.0621  0.1715  0.0560
    1WF      WF59611  13.112  21.192   8.053  0.0864 -0.0059  0.2030
    1WF      WF59612   6.273  27.774   8.249 -0.1457  0.2406  0.0436
    1WF      WF59613  21.868  18.999   1.854 -0.2270  0.2087 -0.1435
    1WF      WF59614   3.996  13.509   1.244  0.1120  0.2656  0.2628
    1WF      WF59615  12.813   6.134   0.756 -0.2516  0.0118 -0.0912
    1WF      WF59616   6.806  24.818   1.446 -0.1527 -0.4518 -0.0776
    1WF      WF59617  10.666  19.514   9.036  0.1098 -0.2142  0.0261
    1WF      WF59618  17.233   2.172  10.170 -0.2304 -0.1233 -0.1000
    1WF      WF59619   1.517  12.993   1.300  0.0702  0.1051 -0.1107
    1WF      WF59620  17.602  27.942   1.999  0.2362  0.2028  0.1878
    1WF      WF59621   3.503  20.122   7.563 -0.2023 -0.1618  0.0438
    1WF      WF59622  12.677  13.826   1.262 -0.1868 -0.1410  0.0283
    1WF      WF59623  20.335   0.655   2.311  0.0968 -0.2745 -0.0958
    1WF      WF59624   9.644  12.116   1.198  0.2143  0.0040 -0.0443
    1WF      WF59625   2.132  18.359   8.136 -0.2287  0.0770  0.0690
    1WF      WF59626  27.991   5.102   0.065 -0.2629  0.1781  0.2196
    1WF      WF59627   3.035   3.254   8.332 -0.0734  0.0492 -0.0202
    1WF      WF59628  15.534  20.181   1.125  0.0826 -0.3859  0.0346
    1WF      WF59629   2.598  21.950   9.337  0.2113 -0.1275  0.3639
    1WF      WF59630  25.492   4.719   8.051  0.2135  0.2428  0.1218
    1WF      WF59631  10.615  23.749   1.427 -0.1296 -0.0572 -0.1716
    1WF      WF59632  27.703  25.902   9.804 -0.2782 -0.0760 -0.1132
    1WF      WF59633  14.886  25.316   9.306  0.2129  0.1180  0.0343
    1WF      WF59634  10.703  12.032   7.549  0.0107  0.1129  0.0890
    1WF      WF59635  12.783  25.078   2.181  0.2640  0.1356 -0.0462
    1WF      WF59636  27.094  12.749   9.249  0.0916 -0.0384  0.0071
    1WF      WF59637  19.868  14.918   8.959  0.1118  0.0262  0.0445
    1WF      WF59638  14.810   9.021   9.905  0.0425  0.5280  0.0529
    1WF      WF59639   8.324  13.228   9.963 -0.2690  0.2890 -0.1696
    1WF      WF59640  12.223  17.536   9.123 -0.1630 -0.0914 -0.0355
    1WF      WF59641  17.914  11.332   2.699  0.1285  0.1371 -0.0270
    1WF      WF59642  19.508  18.214   0.333 -0.1337 -0.2381  0.1250
    1WF      WF59643  17.075  26.767   2.081  0.4232  0.0741 -0.0461
    1WF      WF59644  15.328  27.812   9.226  0.1453  0.1090  0.2238
    1WF      WF59645   3.498  17.338   1.693 -0.0775  0.1154  0.0132
    1WF      WF59646   3.300   8.282   0.677  0.1408  0.3526 -0.2392
    1WF      WF59647  19.674   9.622   2.624 -0.2096 -0.0373  0.0951
    1WF      WF59648  23.830   1.748   8.819 -0.0644  0.3407 -0.1846
    1WF      WF59649   3.150  11.716   1.174 -0.2299  0.2498  0.1613
    1WF      WF59650   4.228  15.694   6.732 -0.0165 -0.0576  0.0258
    1WF      WF59651  12.236  15.603   2.269 -0.3466  0.2088  0.4403
    1WF      WF59652  19.230   2.348   0.261  0.1595  0.0418  0.0757
    1WF      WF59653   2.207   1.181   0.459  0.0332  0.0471 -0.0222
    1WF      WF59654   0.463   8.804   1.199 -0.1587 -0.1337  0.2081
    1WF      WF59655  15.160  27.116   3.969  0.0482 -0.3973  0.3715
    1WF      WF59656   7.682   4.282   0.478  0.0458 -0.2945  0.2269
    1WF      WF59657  19.608  20.949   8.805 -0.2524 -0.0992  0.0238
    1WF      WF59658  14.572  14.537   2.364 -0.2236 -0.0403  0.2091
    1WF      WF59659   6.085  27.812   2.043 -0.0508 -0.1356  0.2368
    1WF      WF59660  20.674  24.529   9.970  0.1337 -0.2865  0.3171
    1WF      WF59661   0.536   0.142   0.564  0.2445  0.1071 -0.1005
    1WF      WF59662   2.512   2.795   9.116 -0.0662  0.0686 -0.1200
    1WF      WF59663  19.113   0.508   9.312 -0.1360  0.2938  0.0837
    1WF      WF59664  12.414  27.524   9.262  0.0910 -0.3027 -0.1857
    1WF      WF59665  18.171   8.358   9.026 -0.0658  0.3565 -0.0438
    1WF      WF59666  16.197  12.838   0.370  0.1569 -0.0994 -0.1812
    1WF      WF59667  27.321   2.038   0.636  0.0013  0.0070 -0.1918
    1WF      WF59668   2.822  24.893   7.001  0.0986 -0.1770 -0.0085
    1WF      WF59669  11.510  13.905   9.080 -0.0188 -0.1485 -0.3322
    1WF      WF59670  12.260  22.852   9.305  0.1059 -0.0795 -0.0894
    1WF      WF59671  11.414   6.974  10.220  0.1674  0.0569  0.5028
    1WF      WF59672  25.437   4.856   9.265 -0.2389 -0.1401 -0.0738
    1WF      WF59673  25.411  11.295   2.742  0.0901 -0.0209 -0.1799
    1WF      WF59674  11.705  27.485   7.346  0.1058  0.0342  0.0369
    1WF      WF59675  10.696   4.285   2.933 -0.2441 -0.3543 -0.4181
    1WF      WF59676   6.155  24.667  10.267 -0.2203 -0.1031  0.1633
    1WF      WF59677  23.540  24.684   1.978 -0.3664  0.1107 -0.0933
    1WF      WF59678  13.242  15.226   8.245 -0.0928  0.0364 -0.1074
    1WF      WF59679  17.137  14.671   2.896 -0.4105 -0.0072 -0.1158
    1WF      WF59680  18.725  22.602   9.091  0.2190 -0.1657  0.0066
    1WF      WF59681   4.532  10.421   1.670  0.1909  0.2266 -0.1759
    1WF      WF59682  15.069  20.225   8.888 -0.0372 -0.0029  0.0727
    1WF      WF59683  25.063  27.041   9.792 -0.0397  0.2312  0.2339
    1WF      WF59684  23.909  28.052   8.387  0.1034  0.3182 -0.0865
    1WF      WF59685  18.184   3.657   8.447  0.1536  0.1284  0.3822
    1WF      WF59686  13.019   9.554   3.670  0.0780  0.1760 -0.0496
    1WF      WF59687   6.818   7.648   1.657  0.0292  0.1000 -0.2794
    1WF      WF59688  17.909   0.180   1.603  0.3274  0.2200 -0.0701
    1WF      WF59689  26.868  12.189   0.478  0.0127  0.0134  0.2863
    1WF      WF59690  24.023  20.085   1.410 -0.2901 -0.0293  0.1650
    1WF      WF59691  22.690  15.142   9.607  0.0572 -0.0014 -0.0946
    1WF      WF59692   0.639  26.559   7.530  0.0246 -0.2209  0.1108
    1WF      WF59693  11.607  11.581   2.421 -0.0174  0.2294  0.1239
    1WF      WF59694   3.100  11.374   8.620 -0.1075  0.0931  0.0017
    1WF      WF59695   7.932   1.253   9.422 -0.0885 -0.0175 -0.3438
    1WF      WF59696  15.779   3.944   0.009 -0.0431  0.1621 -0.0513
    1WF      WF59697   8.385   7.886   0.437  0.3179 -0.0584  0.1759
    1WF      WF59698  27.053  24.158   7.151  0.2255  0.1543  0.0733
    1WF      WF59699   1.946   1.998   1.675 -0.3355 -0.1157 -0.1376
    1WF      WF59700   4.478  15.163   2.982 -0.0041 -0.2534 -0.2202
    1WF      WF59701  18.483  24.365   2.736 -0.4330 -0.1500  0.0248
    1WF      WF59702  12.176   7.622   0.881  0.0008  0.1454 -0.0940
    1WF      WF59703   3.327  19.268   0.885 -0.1072 -0.0350 -0.1599
    1WF      WF59704   1.981  12.626   6.457  0.4141 -0.3069 -0.0021
    1WF      WF59705   8.637   0.535   9.990  0.0096  0.3279 -0.1885
    1WF      WF59706  25.440  27.840   8.823  0.1649 -0.2465  0.1881
    1WF      WF59707   8.953  10.947   2.346 -0.2743  0.1384 -0.1515
    1WF      WF59708  20.024  22.289   7.980 -0.0866  0.0787 -0.3095
    1WF      WF59709   8.242  18.464   1.062 -0.0584 -0.3224  0.0967
    1WF      WF59710   5.102   6.743   9.031 -0.0823 -0.4290  0.0583
    1WF      WF59711   4.220  21.140   1.295  0.0946 -0.0867 -0.2420
    1WF      WF59712  13.542  28.071   2.517 -0.3752 -0.3276 -0.1781
    1WF      WF59713  12.108  18.646   9.517  0.2446  0.0832  0.2458
    1WF      WF59714  15.070  15.559   8.170 -0.1789 -0.1534 -0.0427
    1WF      WF59715  19.548  20.627   2.233 -0.1926  0.0979  0.1601
    1WF      WF59716   5.921  19.653   1.831 -0.0612 -0.2979 -0.0262
    1WF      WF59717   3.908  14.780   1.579 -0.0814  0.0225 -0.1156
    1WF      WF59718  25.008  20.350   9.142 -0.2254  0.0410 -0.1804
    1WF      WF59719   2.773  23.815   0.246 -0.1455 -0.3056 -0.0940
    1WF      WF59720  21.723  27.713   1.042 -0.0481  0.0419  0.2177
    1WF      WF59721  26.505  23.062   8.679 -0.0367  0.0764  0.0165
    1WF      WF59722  17.174   2.480   9.090 -0.0410  0.3390  0.0437
    1WF      WF59723  28.114   4.470   7.694 -0.2366  0.2218 -0.2168
    1WF      WF59724  19.837   4.784   1.522  0.3095 -0.2103 -0.1155
    1WF      WF59725  25.196   2.771   0.162  0.0746 -0.0760 -0.0346
    1WF      WF59726   1.339   6.474   0.157  0.1512 -0.0780  0.0104
    1WF      WF59727  24.359  10.189   8.610  0.2665 -0.1053 -0.1228
    1WF      WF59728   3.282  18.478   9.407  0.2602  0.2778  0.0852
    1WF      WF59729   8.076   4.620   7.750  0.1001  0.2576  0.2666
    1WF      WF59730  17.307  19.357   3.626 -0.1441  0.1281  0.1238
    1WF      WF59731  21.082  26.054   1.724 -0.0602  0.2625 -0.0081
    1WF      WF59732   1.530  22.049   0.414  0.1528  0.1113 -0.2209
    1WF      WF59733  25.379   7.908   9.080  0.1523  0.1339 -0.1793
    1WF      WF59734  24.291  26.113   1.422  0.1707 -0.3227 -0.0086
    1WF      WF59735   5.901   9.304   3.135 -0.0872 -0.0213 -0.0380
    1WF      WF59736   6.252  17.992   1.261  0.0635 -0.0542  0.1159
    1WF      WF59737  25.699   0.675   7.910 -0.1721 -0.1166 -0.3757
    1WF      WF59738   3.436  25.954   0.789  0.1017 -0.2311  0.0270
    1WF      WF59739  10.044   2.674   0.148 -0.3660 -0.0745 -0.2289
    1WF      WF59740  17.925  22.131   9.243  0.0246 -0.1221  0.0072
    1WF      WF59741   2.371   6.892   0.813  0.0599  0.0876 -0.0675
    1WF      WF59742   7.072  15.601   7.300  0.1792 -0.2484 -0.0358
    1WF      WF59743  22.390   3.549   9.797  0.1528  0.1129  0.2351
    1WF      WF59744  16.294   1.270  10.082 -0.1254 -0.2740 -0.0696
    1WF      WF59745   0.056   7.106   9.781 -0.0294 -0.0784 -0.2657
    1WF      WF59746   9.976  18.216   1.119 -0.3503  0.2293  0.2013
    1WF      WF59747  15.972  18.686   0.181 -0.0325  0.1103 -0.2254
    1WF      WF59748   0.341  16.805   1.911  0.0145 -0.1075  0.0312
    1WF      WF59749   4.499  23.469   7.409 -0.0378  0.3084  0.2118
    1WF      WF59750   6.084   2.903   8.767  0.0422 -0.1581 -0.3175
    1WF      WF59751   3.341   0.370   1.456  0.2787  0.0565  0.0493
    1WF      WF59752  21.597   1.997   8.686 -0.0052 -0.2657  0.2293
    1WF      WF59753   6.645   7.215   1.742  0.0449 -0.1777  0.2435
    1WF      WF59754  10.483   6.777   1.102  0.0312 -0.0595 -0.2166
    1WF      WF59755   9.498   8.136   0.697  0.2243 -0.0575 -0.0289
    1WF      WF59756   8.834  17.418   7.356 -0.1027 -0.0523  0.1857
    1WF      WF59757  16.154   6.537   9.937  0.0371  0.0175 -0.1523
    1WF      WF59758  27.707  21.440   0.345 -0.1213  0.1003  0.3712
    1WF      WF59759   0.442   3.259   0.136  0.3330 -0.0192  0.0521
    1WF      WF59760  13.644  19.712  10.164  0.0657 -0.1655 -0.2136
    1WF      WF59761  13.298  16.265   8.966 -0.0366 -0.0543 -0.3834
    1WF      WF59762   9.238   9.804   7.925 -0.0250  0.4984  0.0983
    1WF      WF59763  17.586  22.638   8.495  0.1270 -0.3419 -0.1454
    1WF      WF59764   1.952  19.901   8.200 -0.0480 -0.1939  0.4348
    1WF      WF59765  22.628  24.206   9.557 -0.0642  0.0251 -0.0645
    1WF      WF59766   7.393  14.560   0.433 -0.1055  0.1966  0.0521
    1WF      WF59767  18.399  15.492   8.502  0.2861 -0.2522 -0.1812
    1WF      WF59768  21.021  27.047   0.565  0.2355  0.2962 -0.0044
    1WF      WF59769   2.128  15.453   1.490  0.0762  0.0631 -0.1830
    1WF      WF59770  22.954  22.641   9.516 -0.3276 -0.2055 -0.0482
    1WF      WF59771  13.552   2.679   1.867 -0.1140  0.0657  0.0166
    1WF      WF59772  11.610   8.366   1.591  0.0681  0.2438  0.1533
    1WF      WF59773  23.676   8.548   1.374  0.0820  0.0959 -0.0152
    1WF      WF59774  27.716  17.539   7.601  0.1537 -0.0486  0.0261
    1WF      WF59775   7.371  12.533   2.076  0.2812  0.1492  0.2250
    1WF      WF59776  23.219  14.697  10.341  0.0232 -0.3276  0.1310
    1WF      WF59777   1.344  13.942  10.030  0.1196  0.1153 -0.1331
    1WF      WF59778   7.596  12.112   0.421 -0.1509  0.0230 -0.2403
    1WF      WF59779   1.495  25.451   8.834  0.0476  0.1130  0.0351
    1WF      WF59780   1.259  25.198   8.491  0.1972  0.0567  0.0368
    1WF      WF59781  27.947  24.139   7.898  0.0123 -0.1188 -0.2522
    1WF      WF59782  25.469  14.498   2.723  0.3140 -0.1535 -0.1707
    1WF      WF59783  18.610  27.726   9.939 -0.2196  0.1555  0.0056
    1WF      WF59784   4.201  27.095   8.439 -0.1650  0.1598  0.0244
    1WF      WF59785   2.682  13.575  10.168 -0.0911 -0.4170  0.0037
    1WF      WF59786   9.577   8.081   1.918 -0.2949 -0.0870  0.0319
    1WF      WF59787  12.198  20.489   1.981  0.1560  0.0068  0.3474
    1WF      WF59788  13.103  17.785   1.437  0.2057  0.1798 -0.5188
    1WF      WF59789   3.696  27.784   9.210 -0.0737 -0.1678  0.0517
    1WF      WF59790  26.562   6.179  10.044  0.3257 -0.0816  0.1679
    1WF      WF59791  11.675   5.855  10.309 -0.0278  0.2797 -0.3391
    1WF      WF59792   5.745  23.503   1.606  0.1722 -0.1177 -0.0442
    1WF      WF59793  17.990  15.984   4.088  0.1126 -0.0979 -0.3368
    1WF      WF59794   1.346   0.421   8.611 -0.0336 -0.0807 -0.0231
    1WF      WF59795   0.730  20.436   8.653 -0.2533 -0.2362 -0.1140
    1WF      WF59796  24.822  26.422   0.729 -0.3057 -0.0572  0.1530
    1WF      WF59797  19.403  25.975   1.740  0.2251  0.0743  0.1137
    1WF      WF59798   0.850  18.931   9.447  0.1505  0.0548 -0.0439
    1WF      WF59799   3.849   3.726   0.447 -0.0182 -0.0960  0.4403
    1WF      WF59800  10.782  25.254   1.631 -0.3031  0.2701 -0.2213
    1WF      WF59801  24.427  14.497  10.253 -0.1278  0.2338  0.2356
    1WF      WF59802  26.813   9.578   8.203 -0.0985  0.2026 -0.0092
    1WF      WF59803  23.115   9.580   2.979 -0.0109  0.1025 -0.0600
    1WF      WF59804  26.512  12.476   1.675  0.1022  0.0878  0.0510
    1WF      WF59805  14.662  13.873   7.827 -0.1907  0.1617  0.0988
    1WF      WF59806  15.257  27.952   9.698 -0.0322  0.2857  0.2581
    1WF      WF59807   5.881  21.004   0.227 -0.0793 -0.1429 -0.0826
    1WF      WF59808  17.250  25.807   1.721 -0.0600 -0.2599  0.0929
    1WF      WF59809  15.276   8.824  10.155 -0.2259 -0.1897 -0.0601
    1WF      WF59810   3.723   8.935   9.053 -0.0461  0.0049  0.3715
    1WF      WF59811  23.011   4.312   8.527  0.0693  0.4197  0.0148
    1WF      WF59812   8.565   2.063  10.325 -0.1453 -0.3610  0.4395
    1WF      WF59813   2.848  13.355   8.984 -0.0967 -0.2349 -0.1291
    1WF      WF59814  12.887  21.773   0.265 -0.2810 -0.0872  0.1872
    1WF      WF59815  15.398  25.205   9.546  0.2339 -0.0752 -0.3458
    1WF      WF59816  25.870  22.308   8.893 -0.2155  0.1638 -0.6129
    1WF      WF59817  23.365  22.619   9.233  0.0601  0.4055 -0.2751
    1WF      WF59818   8.912  10.281  10.287  0.0325 -0.1131 -0.1881
    1WF      WF59819  20.891   8.656   7.884 -0.0133 -0.1150 -0.2408
    1WF      WF59820  24.764   8.527   8.282 -0.0733  0.2075  0.2325
    1WF      WF59821  11.625  11.594   2.916 -0.1400  0.2953  0.2283
    1WF      WF59822  14.765  26.852   8.639 -0.1716  0.0706  0.0682
    1WF      WF59823   8.775  12.978   9.873 -0.1285  0.0393  0.0236
    1WF      WF59824   3.217  15.970   3.014 -0.1627 -0.1635  0.0578
    1WF      WF59825   4.703   8.259   8.681  0.3912  0.2178  0.0909
    1WF      WF59826  24.383   1.823   9.140 -0.1635 -0.0463  0.0549
    1WF      WF59827  19.314  17.640   9.400 -0.4328  0.1790 -0.1352
    1WF      WF59828  27.945  11.208   9.257 -0.1732 -0.2419  0.2061
    1WF      WF59829  18.362  10.912   1.115 -0.1001  0.0646 -0.1287
    1WF      WF59830  12.615  13.500   0.871 -0.3403  0.1658  0.2136
    1WF      WF59831   8.211  14.745   1.371  0.2593 -0.0597 -0.0015
    1WF      WF59832  24.119  14.616   0.920 -0.1825  0.1090  0.0434
    1WF      WF59833   9.814  18.107   1.634 -0.0623 -0.0372  0.4240
    1WF      WF59834  23.685  21.270   7.805  0.0594 -0.3061  0.1419
    1WF      WF59835  21.752   1.768   1.962 -0.3653  0.0667  0.0640
    1WF      WF59836  22.984   7.717   0.363 -0.1926  0.0934 -0.1424
    1WF      WF59837   3.397  23.572   8.421 -0.0198 -0.0329  0.1205
    1WF      WF59838  20.573  16.773   8.987  0.0222  0.0185  0.1799
    1WF      WF59839   9.663  23.326   0.037  0.2992  0.2272  0.1636
    1WF      WF59840   4.017   6.302   1.111 -0.1482 -0.0805  0.1677
    1WF      WF59841  22.615  11.716   0.419 -0.2048  0.0997 -0.1229
    1WF      WF59842   6.883  13.981   9.800  0.0468  0.0187  0.0274
    1WF      WF59843   5.539   1.725   8.046 -0.2068 -0.2699  0.0731
    1WF      WF59844  24.609   2.460   1.754  0.4851 -0.0274  0.0525
    1WF      WF59845  17.922   8.893   9.175 -0.1539 -0.0305 -0.1733
    1WF      WF59846   5.596  27.848   2.088  0.0144 -0.1503  0.1558
    1WF      WF59847  18.821   8.158   2.839  0.0539 -0.0783 -0.0031
    1WF      WF59848  27.819   3.048   8.232 -0.1614 -0.1873  0.0863
    1WF      WF59849  19.638  10.250   1.761 -0.1137 -0.0084 -0.0308
    1WF      WF59850  15.807   9.015  10.082  0.1094 -0.0414 -0.0638
    1WF      WF59851  23.012  21.338   8.643  0.2117 -0.1969  0.0281
    1WF      WF59852  11.371  20.684   1.623 -0.0609 -0.1035 -0.1264
    1WF      WF59853   3.060  22.525   8.743 -0.1914 -0.1810 -0.0518
    1WF      WF59854  18.416  17.025   0.072  0.1114  0.4234  0.1818
    1WF      WF59855   7.055  16.362   9.900 -0.0627 -0.1533 -0.0908
    1WF      WF59856  15.652   7.613   9.483 -0.0638 -0.2857 -0.2441
    1WF      WF59857  23.948   9.234   1.241 -0.3032  0.2101  0.0573
    1WF      WF59858  21.389  20.344   0.544 -0.1942 -0.2465 -0.0653
    1WF      WF59859   8.282  15.485   0.570  0.3132  0.1962 -0.1164
    1WF      WF59860  12.028   0.824   2.241  0.1889 -0.0540  0.0125
    1WF      WF59861  21.673   7.556   7.809  0.2394 -0.1572 -0.1339
    1WF      WF59862  14.713  21.543   0.101 -0.2684 -0.1843 -0.0557
    1WF      WF59863  12.822  27.530   2.152 -0.0939 -0.1448  0.5294
    1WF      WF59864  19.320   7.667   1.155  0.1497  0.1698  0.1827
    1WF      WF59865   4.732  14.794   9.965  0.2344 -0.0999  0.0278
    1WF      WF59866  11.040  20.027   2.325  0.0537 -0.0967 -0.1396
    1WF      WF59867  28.064  28.087   0.516 -0.1489 -0.1777 -0.1820
    1WF      WF59868   3.259  18.451   9.900  0.3648 -0.1645  0.2435
    1WF      WF59869  13.508  17.531   8.930 -0.2928  0.1301  0.0709
    1WF      WF59870   1.461  15.716   1.872  0.0826  0.2560 -0.4063
    1WF      WF59871   7.807   2.345   9.155  0.1000  0.1985 -0.0865
    1WF      WF59872   9.471  18.615   8.959  0.0212  0.1768 -0.0713
    1WF      WF59873   8.346   8.127   3.721  0.0567 -0.0503  0.1031
    1WF      WF59874   0.328  15.300   9.628  0.1986 -0.1648 -0.1134
    1WF      WF59875   9.453  15.274   1.491  0.5378 -0.0178  0.1196
    1WF      WF59876   6.986  18.622   1.476  0.1578  0.0395  0.2335
    1WF      WF59877  24.636  26.870   7.519  0.1368 -0.0520  0.1039
    1WF      WF59878   1.458   2.049  10.212  0.1551  0.0142  0.0353
    1WF      WF59879  25.189  23.697   8.068  0.2556 -0.3032  0.1373
    1WF      WF59880   5.517   3.781   9.033 -0.1331  0.0800  0.0535
    1WF      WF59881  19.817  14.975   8.462  0.2572  0.1120  0.0063
    1WF      WF59882   5.850   6.004   0.262  0.1049 -0.0511  0.0101
    1WF      WF59883   4.125  20.277   9.468 -0.0251  0.3009 -0.1932
    1WF      WF59884   3.979   5.193   8.676  0.1039 -0.2957 -0.0390
    1WF      WF59885  25.233  16.125   8.009 -0.2106  0.1596 -0.2022
    1WF      WF59886   6.528  13.015   1.109  0.0933 -0.4627  0.2544
    1WF      WF59887  13.808   5.962  10.163  0.0859 -0.3241  0.2030
    1WF      WF59888   4.359   5.084   8.439 -0.0561  0.4720 -0.2226
    1WF      WF59889   6.754   8.156   2.237 -0.0249  0.1038  0.1881
    1WF      WF59890  10.378  20.152   8.991  0.1505  0.0888 -0.0879
    1WF      WF59891   9.484   8.805   8.378  0.1260 -0.0805  0.1089
    1WF      WF59892   3.066  17.182   7.596 -0.1163 -0.1016 -0.2427
    1WF      WF59893   6.076   6.032   9.227  0.1558 -0.0611  0.2322
    1WF      WF59894  22.505   8.058   6.903 -0.0486 -0.0949 -0.1224
    1WF      WF59895  19.880  24.246   8.335  0.0969 -0.3040 -0.1287
    1WF      WF59896  22.360   8.937   1.059  0.0523  0.3898 -0.0560
    1WF      WF59897  21.747   2.912   1.563 -0.0110 -0.3596 -0.2082
    1WF      WF59898  18.373   3.723   8.908 -0.4477 -0.1556 -0.2443
    1WF      WF59899   4.904  20.779   7.148  0.0411 -0.0433 -0.1819
    1WF      WF59900  27.413  24.710   3.215 -0.3098 -0.0045  0.0574
    1WF      WF59901  14.980  11.787   0.320  0.5585  0.0312 -0.2019
    1WF      WF59902  22.435   3.364  10.223  0.1564 -0.0070 -0.0217
    1WF      WF59903  19.791  27.727   0.789  0.0588  0.0564 -0.1058
    1WF      WF59904  11.422  12.908  10.191  0.0652  0.0814  0.2233
    1WF      WF59905  21.044  19.024   9.010 -0.2439  0.3121  0.4001
    1WF      WF59906   5.585   9.204  10.275  0.2469 -0.3106  0.0361
    1WF      WF59907   1.426  11.575   2.006 -0.1501 -0.0854 -0.0265
    1WF      WF59908  21.191  18.841   8.522 -0.1463  0.0039  0.2675
    1WF      WF59909  11.928  14.048   9.513 -0.0511  0.0239  0.3400
    1WF      WF59910   6.802  14.545   1.859  0.1423 -0.3973 -0.1155
    1WF      WF59911   5.946  27.780   0.317  0.1354 -0.3159  0.0781
    1WF      WF59912  14.318  11.569   1.685 -0.4546 -0.1387 -0.2797
    1WF      WF59913  21.022  25.029   6.744 -0.0926  0.2494  0.2507
    1WF      WF59914  27.671   2.688   2.767 -0.1252  0.1899 -0.2263
    1WF      WF59915  25.415  18.721   1.006  0.1118 -0.0242  0.1621
    1WF      WF59916  11.113  26.772   9.120 -0.3474  0.0272  0.1794
    1WF      WF59917   7.243   7.087   6.671 -0.1115  0.1062 -0.0579
    1WF      WF59918  23.000  20.065   0.715  0.1878 -0.1540 -0.0626
    1WF      WF59919   4.924  27.199   9.859 -0.0037  0.1843  0.1738
    1WF      WF59920  25.059  11.869   2.208  0.3818  0.1942  0.3281
    1WF      WF59921  11.634  18.434   9.266  0.0233 -0.0378  0.1861
    1WF      WF59922   2.756  20.578   0.076  0.1958 -0.1468  0.3126
    1WF      WF59923  23.329  17.060   9.114 -0.0236 -0.2346  0.0193
    1WF      WF59924  18.915  12.056   1.060  0.1133 -0.0841 -0.2612
    1WF      WF59925   5.644  10.666   2.440  0.1280  0.3691 -0.2263
    1WF      WF59926   3.324  22.037   1.072  0.0131  0.3189 -0.1312
    1WF      WF59927   2.432  23.586   9.413 -0.0780  0.0006 -0.3721
    1WF      WF59928  21.697  15.467  10.005  0.3339 -0.2460 -0.2394
    1WF      WF59929  26.202  17.192   8.780  0.1994  0.1736 -0.4066
    1WF      WF59930  26.492  17.977   9.330  0.1818 -0.1291 -0.0644
    1WF      WF59931  22.055  19.550   8.995  0.4613 -0.1254  0.3326
    1WF      WF59932   8.276  24.474   9.763 -0.0864 -0.0093  0.2374
    1WF      WF59933  26.205  19.735   2.349 -0.0362  0.0678 -0.1629
    1WF      WF59934   2.336  23.171   2.022  0.2372 -0.3572 -0.0523
    1WF      WF59935  22.789  13.180   1.648  0.1193  0.1251 -0.0453
    1WF      WF59936  18.588  15.617   8.037  0.0164 -0.0606 -0.1794
    1WF      WF59937  14.132  25.930   1.144  0.1599 -0.1881  0.2966
    1WF      WF59938  12.214  24.191   9.079  0.0200  0.1177 -0.1917
    1WF      WF59939  17.300  10.325   8.921 -0.1634 -0.1211  0.1694
    1WF      WF59940   2.327  27.223   8.774 -0.0787 -0.0121 -0.0143
    1WF      WF59941  14.128  17.883   2.449  0.1599 -0.0913 -0.0606
    1WF      WF59942  25.958   9.071   2.717 -0.0431  0.2268 -0.1395
    1WF      WF59943  11.038  23.981   1.331  0.2077  0.2451 -0.1001
    1WF      WF59944  14.477   5.642   2.226 -0.1418  0.0056 -0.4257
    1WF      WF59945   8.153   2.704   0.798 -0.2145 -0.0061 -0.2387
    1WF      WF59946  11.829  25.350  10.031 -0.2806  0.1060  0.0358
    1WF      WF59947  22.107   3.093   8.139 -0.3147 -0.4457 -0.1225
    1WF      WF59948   7.003  16.276   2.328  0.1916  0.0755 -0.1135
    1WF      WF59949  21.529   9.822  10.130 -0.0182  0.1801 -0.1625
    1WF      WF59950   4.437  13.283   7.295 -0.1876  0.0950 -0.2756
    1WF      WF59951  24.992  12.274   8.794  0.0111  0.0736  0.1328
    1WF      WF59952  26.324   8.371   9.395 -0.0617  0.2907 -0.3755
    1WF      WF59953  23.798  15.423   7.204  0.3863 -0.0130 -0.1115
    1WF      WF59954  23.824  11.188   2.609 -0.0447 -0.1037 -0.0701
    1WF      WF59955  16.469  21.997  10.149  0.1237  0.1061 -0.0072
    1WF      WF59956  23.772  25.059   1.671 -0.0751  0.1262  0.0858
    1WF      WF59957   8.422  11.609   1.956 -0.2788 -0.2631 -0.0619
    1WF      WF59958   6.920  14.813   0.857  0.1071 -0.0332  0.0924
    1WF      WF59959  19.164  13.230   9.179 -0.0620  0.2838  0.1544
    1WF      WF59960   9.385  13.186   1.731 -0.4866 -0.3467 -0.0304
    1WF      WF59961  17.376   1.902   8.571  0.2435  0.2586 -0.0030
    1WF      WF59962   2.918  11.249   1.889 -0.0573  0.0784 -0.0460
    1WF      WF59963  27.584   9.306   1.016 -0.2753 -0.0980 -0.2022
    1WF      WF59964  19.625   0.009   8.753  0.2729  0.0005  0.2309
    1WF      WF59965   1.310   8.775   9.610 -0.0565  0.2389  0.1347
    1WF      WF59966  11.033  24.250   2.397 -0.0713  0.0014 -0.2772
    1WF      WF59967  23.502  16.866   7.528 -0.5193 -0.1116  0.2795
    1WF      WF59968   7.145  18.624   3.743 -0.0707 -0.0462  0.0031
    1WF      WF59969  17.535  16.820   0.530  0.0379  0.3827  0.1460
    1WF      WF59970   3.908  15.186   1.900  0.0208 -0.0260  0.2325
    1WF      WF59971   6.395   1.360   8.314 -0.1960  0.1623  0.0859
    1WF      WF59972  21.439   2.119   3.064  0.0037  0.0975 -0.0368
    1WF      WF59973   3.165  11.673   9.000 -0.0841 -0.0799  0.3291
    1WF      WF59974  18.571   2.112   7.397  0.0806  0.2185  0.0801
    1WF      WF59975  24.410  12.544   2.603  0.0354  0.0693  0.0572
    1WF      WF59976   2.251   8.102   9.904 -0.1462  0.0370  0.1769
    1WF      WF59977  23.894   1.828   0.372 -0.0741  0.0357 -0.2432
    1WF      WF59978  28.011   9.018   1.002 -0.0062  0.0069 -0.3215
    1WF      WF59979  23.124   5.619   0.006 -0.2629  0.0527 -0.2511
    1WF      WF59980   0.280   0.659   6.588  0.3992  0.0919 -0.1095
    1WF      WF59981   0.686  16.778   0.835 -0.1525 -0.1604  0.2269
    1WF      WF59982  22.071   0.568   9.595 -0.2047  0.0608  0.1572
    1WF      WF59983  23.628  13.288   1.354 -0.0103  0.0300 -0.1182
    1WF      WF59984  24.892  20.853   8.893 -0.2565  0.2305 -0.0654
    1WF      WF59985   0.567   7.108   1.198  0.0583 -0.1915  0.2256
    1WF      WF59986  12.565   2.303   0.637 -0.1604  0.0636 -0.0465
    1WF      WF59987  23.168  26.750   9.673  0.1432 -0.1850  0.0474
    1WF      WF59988  27.002   1.960   9.751 -0.0013  0.2727  0.3720
    1WF      WF59989  24.706  12.049   9.164 -0.0820  0.2091  0.0016
    1WF      WF59990   5.788   7.411   7.519  0.1976 -0.0032  0.1708
    1WF      WF59991  16.955   1.425   7.042  0.1721  0.2267 -0.1857
    1WF      WF59992  21.196   9.329  10.244 -0.0577 -0.2113 -0.0498
    1WF      WF59993  12.676   1.002   8.603  0.3154  0.2250  0.1445
    1WF      WF59994  25.220   3.476  10.086  0.0094 -0.0562  0.2246
    1WF      WF59995   7.934   1.077   0.631  0.0963 -0.1885 -0.0132
    1WF      WF59996  24.282  20.273   6.446  0.1605  0.1877 -0.0143
    1WF      WF59997  21.819  15.920  10.223 -0.1022  0.0012 -0.0310
    1WF      WF59998  15.836  12.802   0.749 -0.0433  0.0688 -0.0311
    1WF      WF59999  10.451   4.180   2.460 -0.0427 -0.0881 -0.1502
    1WF      WF60000  17.353  22.108   1.775 -0.2161 -0.1803 -0.1518
    1WF      WF60001   6.846   5.591   1.143  0.0026  0.5283  0.1415
    1WF      WF60002   3.372  26.840   1.741  0.0555 -0.2071 -0.0030
    1WF      WF60003  11.544  14.218   9.821 -0.0975 -0.1374  0.3221
    1WF      WF60004  18.411   3.866   7.683 -0.0921 -0.2263  0.0051
    1WF      WF60005  17.402  24.038   0.636  0.0874 -0.4468  0.0720
    1WF      WF60006  28.099  14.210   9.235 -0.0588 -0.1354  0.1729
    1WF      WF60007  19.180  19.531   0.496 -0.0344 -0.3102 -0.0994
    1WF      WF60008  26.592  16.599   8.823 -0.3558  0.2973  0.2353
    1WF      WF60009   9.426   2.303   1.700  0.1928  0.1426  0.0393
    1WF      WF60010   6.500  24.289   1.144 -0.5189 -0.1990  0.2023
    1WF      WF60011   4.222   6.074   7.538  0.0057 -0.2983 -0.0222
    1WF      WF60012  13.355  15.759   0.672 -0.3611 -0.2289 -0.0484
    1WF      WF60013  26.216  25.389   0.168  0.4726  0.1703 -0.2659
    1WF      WF60014  13.857   9.571   9.170  0.1445  0.0327 -0.1590
    1WF      WF60015  10.931  14.728   1.067 -0.1236 -0.0944 -0.1089
    1WF      WF60016   4.739  13.156   9.244 -0.2405 -0.0096 -0.0023
    1WF      WF60017   0.094   8.731   1.486  0.2528 -0.0724  0.1546
    1WF      WF60018   8.530  12.069   4.028  0.1023 -0.1872  0.0220
    1WF      WF60019  17.194   3.772   0.497  0.1888  0.0439 -0.1422
    1WF      WF60020  26.645  17.121   2.555 -0.0358 -0.1375 -0.0956
    1WF      WF60021  14.123  26.644   0.469  0.4355 -0.2782 -0.0459
    1WF      WF60022   3.800  19.934   9.195 -0.1608  0.0825  0.4378
    1WF      WF60023  20.823  19.875   9.768 -0.1024  0.1323 -0.0265
    1WF      WF60024   1.777   8.929   8.859 -0.0672  0.1783  0.1526
    1WF      WF60025  25.670   1.469   9.576 -0.1348 -0.0060 -0.0297
    1WF      WF60026  15.724   9.011   2.553  0.0019  0.2578  0.2194
    1WF      WF60027  23.392   8.430   0.902  0.0243 -0.1873 -0.2941
    1WF      WF60028   0.122   6.943   6.543 -0.1876 -0.1526 -0.4022
    1WF      WF60029  20.630  27.410   9.127 -0.1399 -0.0717  0.1976
    1WF      WF60030   7.117   0.838   9.254 -0.0835  0.2156  0.1663
    1WF      WF60031  20.030  14.124   7.085  0.0287  0.2931 -0.0142
    1WF      WF60032  15.414  21.412   0.255  0.0528  0.3514 -0.0522
    1WF      WF60033  23.517  21.005   8.256  0.0474  0.4718 -0.2000
    1WF      WF60034  16.206  13.719   2.246 -0.1020  0.3309  0.0104
    1WF      WF60035  14.935   7.341   1.236 -0.0036  0.0693 -0.0170
    1WF      WF60036  25.811  27.499   8.699 -0.0852  0.1797  0.2053
    1WF      WF60037  12.457  22.345   9.506 -0.1623  0.2621 -0.0595
    1WF      WF60038  27.519  11.278   9.002  0.0905  0.2652 -0.0396
    1WF      WF60039  10.487  22.308   0.972 -0.1715  0.1353  0.0239
    1WF      WF60040  10.858  19.963   8.955 -0.2939  0.0777  0.2970
    1WF      WF60041  13.589  16.031   0.193 -0.1449 -0.1419  0.1846
    1WF      WF60042  24.696  18.783   8.527 -0.1048 -0.0249  0.0291
    1WF      WF60043  20.319   7.656   1.335  0.0647 -0.0939 -0.3171
    1WF      WF60044  13.594  25.112   0.491  0.0469  0.1339  0.1510
    1WF      WF60045   9.101  12.041   8.974 -0.0174 -0.2109 -0.0400
    1WF      WF60046  12.104   2.352   9.788 -0.3403 -0.0372  0.1144
    1WF      WF60047  22.195  20.839   7.790  0.0190  0.2199  0.1445
    1WF      WF60048   2.364  18.202   1.501 -0.0620 -0.0170  0.1892
    1WF      WF60049   5.068  23.392   8.232 -0.1557 -0.1316 -0.2908
    1WF      WF60050   3.554   0.254   0.589  0.2611 -0.0947  0.1233
    1WF      WF60051  19.509  12.332   7.301 -0.0955 -0.0856  0.0934
    1WF      WF60052  21.256  26.410   2.121 -0.1454  0.0836 -0.0553
    1WF      WF60053  14.819  13.653   0.151 -0.0549 -0.0009 -0.0750
    1WF      WF60054   1.970   5.730   6.148 -0.0022  0.0525 -0.2094
    1WF      WF60055  25.104   1.128   1.873 -0.2122 -0.1623  0.4874
    1WF      WF60056  15.789   9.421   9.700  0.0636 -0.1707 -0.0559
    1WF      WF60057  23.223   0.295   8.721 -0.1347 -0.2245  0.2116
    1WF      WF60058  16.336  10.008   0.752 -0.1350 -0.0349 -0.0296
    1WF      WF60059   9.137   7.876   8.809  0.4393 -0.3669 -0.2804
    1WF      WF60060  23.404  23.164   2.070 -0.2304  0.1236  0.0768
    1WF      WF60061  15.224  23.882   9.175  0.1491 -0.0772 -0.0759
    1WF      WF60062  27.554   6.659   1.253  0.0315 -0.1467 -0.0480
    1WF      WF60063  10.515  12.942   1.625 -0.3263 -0.1551  0.1538
    1WF      WF60064   1.687  22.989   8.133 -0.1581  0.4328  0.1245
    1WF      WF60065  16.962  13.977   1.470 -0.1981 -0.3769  0.0908
    1WF      WF60066   9.721  21.103   6.940  0.3458  0.1183 -0.1841
    1WF      WF60067  21.320   3.484   1.505  0.0419  0.1030  0.5524
    1WF      WF60068   3.382   2.698   1.982 -0.0454  0.0521 -0.0461
    1WF      WF60069  22.775   2.742   1.632 -0.2282  0.2333  0.1631
    1WF      WF60070   8.557   4.813   9.854 -0.4044  0.1328 -0.3078
    1WF      WF60071  12.489   8.396   1.728 -0.0588 -0.1965  0.7049
    1WF      WF60072  23.761   2.885   9.984 -0.0304 -0.0886  0.4010
    1WF      WF60073  23.314  20.530   0.820 -0.2000 -0.1295 -0.2599
    1WF      WF60074  22.693   2.409   1.300  0.1697 -0.0164  0.0502
    1WF      WF60075  11.748  15.547   2.099 -0.0618 -0.1528  0.0922
    1WF      WF60076  17.961   9.483   0.560  0.2730  0.0476  0.2330
    1WF      WF60077  22.993   5.673   3.040  0.0092 -0.5012  0.2434
    1WF      WF60078   4.332  24.996  10.192 -0.2921 -0.0499  0.1918
    1WF      WF60079  16.159  16.006   4.096  0.2782 -0.1467 -0.0532
    1WF      WF60080  12.792  23.128   1.860  0.0072  0.2613  0.0644
    1WF      WF60081  11.932  10.982   0.434 -0.0946 -0.1815  0.1859
    1WF      WF60082  24.417  19.202   8.600  0.2268  0.2561  0.0352
    1WF      WF60083   6.083   7.056   0.412 -0.1139 -0.0272  0.0508
    1WF      WF60084   3.184  12.108   2.725  0.1241 -0.2671  0.1057
    1WF      WF60085  19.597  16.845   9.950 -0.1911 -0.1951  0.5292
    1WF      WF60086   0.771  12.025   6.469 -0.1598 -0.0140 -0.2072
    1WF      WF60087  28.011  10.781   9.805 -0.0113 -0.0584 -0.0257
    1WF      WF60088   5.155   9.966   9.946  0.0736 -0.2909 -0.1989
    1WF      WF60089  11.044   5.869   1.629  0.1685 -0.2702  0.1939
    1WF      WF60090  17.579  13.833   3.078 -0.1455 -0.0912 -0.0235
    1WF      WF60091  24.102  22.975   0.234  0.1351 -0.4047  0.2879
    1WF      WF60092   4.406  22.545   8.688  0.1335  0.2535 -0.1547
    1WF      WF60093   2.222  16.866   1.531  0.1316  0.0353 -0.2170
    1WF      WF60094  21.190   9.902   8.039 -0.1514  0.0853  0.3530
    1WF      WF60095  10.711   1.410   0.234 -0.1122  0.2001 -0.0782
    1WF      WF60096   0.295  23.585   0.910  0.2457 -0.2121 -0.2190
    1WF      WF60097  23.550  16.645   9.076  0.1010 -0.1646  0.0839
    1WF      WF60098  21.562  26.241   1.778 -0.1749 -0.2386  0.0307
    1WF      WF60099  15.774  24.935   9.273  0.0706  0.1768  0.0950
    1WF      WF60100   2.743  10.805   1.699  0.2724  0.0924  0.2377
    1WF      WF60101  20.671  14.930   7.129 -0.0303 -0.1063 -0.1394
    1WF      WF60102   5.522  11.878   2.904  0.0783  0.1636  0.2510
    1WF      WF60103  15.424   7.062   1.378  0.0102  0.0546  0.0870
    1WF      WF60104  26.195   1.434   8.101  0.0450  0.2099 -0.2096
    1WF      WF60105   8.230  24.102   1.454  0.3208 -0.0489  0.2511
    1WF      WF60106  13.056   5.332   9.190  0.0529 -0.0172  0.1789
    1WF      WF60107  27.273   9.507   8.521  0.1065  0.1385  0.0085
    1WF      WF60108   8.563  14.108   9.560 -0.2444 -0.0837  0.1866
    1WF      WF60109  22.103  26.140   1.746  0.0479  0.0659 -0.0513
    1WF      WF60110   9.973  17.838   0.819 -0.1150 -0.1817  0.0400
    1WF      WF60111  23.940   4.153   2.145  0.0359 -0.2039 -0.1801
    1WF      WF60112   9.659  15.648   1.758  0.0106  0.1632  0.2025
    1WF      WF60113  17.025   2.063   1.476  0.1582 -0.1865 -0.0006
    1WF      WF60114  24.985  22.219   8.639  0.1642  0.0571 -0.0918
    1WF      WF60115  17.515   4.869   9.875 -0.1999 -0.1540 -0.3312
    1WF      WF60116   8.041  12.477   0.240  0.2097  0.0244 -0.0569
    1WF      WF60117   3.704  26.989   1.389 -0.0489  0.1342  0.3166
    1WF      WF60118  18.769  12.322   8.712  0.2714  0.1477 -0.0521
    1WF      WF60119   6.847  24.668   8.292 -0.2261  0.0867 -0.1241
    1WF      WF60120  19.427  12.760   9.129 -0.3618 -0.2979 -0.2932
    1WF      WF60121  11.830  23.742   8.825  0.0607 -0.0431  0.1023
    1WF      WF60122   4.345  12.384   0.442 -0.2236 -0.0139 -0.0021
    1WF      WF60123  14.598  27.752   1.919 -0.1070  0.1841  0.0112
    1WF      WF60124  21.342  22.877   7.596 -0.1714 -0.0676  0.1058
    1WF      WF60125  24.567   0.557   9.652  0.1115 -0.2342  0.0810
    1WF      WF60126   5.504   7.993   9.468  0.1768 -0.0064  0.2404
    1WF      WF60127   2.813   2.073   9.806  0.0580 -0.0294 -0.0198
    1WF      WF60128  22.312  13.620   1.612  0.2239  0.1145  0.0494
    1WF      WF60129   4.000   5.750   8.584 -0.0818  0.1335  0.2956
    1WF      WF60130  16.931   3.730   0.990  0.1157 -0.1006 -0.1156
    1WF      WF60131  19.493  19.280   0.222  0.2592  0.2396 -0.0741
    1WF      WF60132   8.720  19.652  10.306  0.1690 -0.2053 -0.2419
    1WF      WF60133  13.245  17.299   1.670  0.2646  0.2651  0.0137
    1WF      WF60134  13.926  17.301   8.795  0.1351  0.2822 -0.0355
    1WF      WF60135  23.554  23.288   8.450 -0.0140 -0.2303 -0.0867
    1WF      WF60136  14.837   4.307   2.409  0.0897  0.4089  0.1908
    1WF      WF60137  13.023  14.763   2.172 -0.4025 -0.0698  0.1149
    1WF      WF60138  19.240  20.968   1.989  0.0321  0.1153 -0.2601
    1WF      WF60139  24.762   2.608   0.276  0.3646 -0.2100 -0.3279
    1WF      WF60140   5.097  27.621   0.570 -0.1311 -0.0554  0.2059
    1WF      WF60141  15.088  19.586   3.296 -0.0548 -0.1248  0.2321
    1WF      WF60142  16.039   7.669   0.006  0.0499 -0.2341 -0.0012
    1WF      WF60143   8.763  11.079   0.514  0.0318 -0.1484  0.1792
    1WF      WF60144   7.612  24.514   0.207 -0.3297  0.1466  0.0512
    1WF      WF60145  10.742  14.033   9.582 -0.0287  0.2771  0.3931
    1WF      WF60146  26.755  21.430   8.016 -0.1042  0.3772 -0.3234
    1WF      WF60147   9.021  13.444   1.423 -0.1588  0.0709 -0.0598
    1WF      WF60148  26.856  17.828   9.089  0.0306 -0.1675 -0.3375
    1WF      WF60149  10.836  23.666  10.168  0.0741  0.1684 -0.2125
    1WF      WF60150  19.861   0.439   2.182 -0.1113  0.0649 -0.0634
    1WF      WF60151  16.839  17.267   9.208  0.0184  0.1011  0.1966
    1WF      WF60152   8.119  10.250   0.755  0.1913  0.1605  0.0189
    1WF      WF60153   2.993  14.262   8.614  0.2469  0.2792  0.2543
    1WF      WF60154   4.950   4.907  10.039  0.0756 -0.3017  0.2320
    1WF      WF60155  19.824  19.471   8.890  0.2469 -0.1453 -0.0013
    1WF      WF60156  17.996  22.376   8.667  0.0595  0.1511 -0.1098
    1WF      WF60157   7.572  20.679   1.975  0.0500  0.0241 -0.0054
    1WF      WF60158  14.550  25.917   6.989  0.2344  0.1010  0.0591
    1WF      WF60159  14.330  26.944   0.935 -0.2180  0.1166  0.1777
    1WF      WF60160  27.085  10.501   7.310  0.3080 -0.0410  0.0861
    1WF      WF60161  18.792  25.977   0.231  0.0244  0.0832 -0.0504
    1WF      WF60162   6.692  18.981   1.316 -0.0371 -0.0416 -0.2915
    1WF      WF60163   4.833  19.540   8.462 -0.2154 -0.2251 -0.0376
    1WF      WF60164  24.810  17.113   3.121 -0.0662 -0.0231  0.0222
    1WF      WF60165   6.230   1.732   1.897  0.1405  0.4853  0.1165
    1WF      WF60166  23.558   0.682   9.457 -0.1095 -0.0166 -0.0329
    1WF      WF60167   7.841  12.563   8.606 -0.3065  0.1313  0.1171
    1WF      WF60168  10.399   1.304   9.214  0.1007 -0.1456 -0.0548
    1WF      WF60169  25.295   2.268   2.328 -0.2640 -0.2865 -0.1145
    1WF      WF60170   3.020  14.147   1.709  0.0088 -0.2809 -0.1496
    1WF      WF60171  24.662   9.930   1.833  0.0531  0.0728 -0.0681
    1WF      WF60172  25.414   7.487   9.328 -0.1201 -0.2293 -0.0411
    1WF      WF60173  24.223   7.932   9.334  0.0064  0.2004  0.2715
    1WF      WF60174  27.436  20.824   9.962  0.2763  0.1998 -0.2401
    1WF      WF60175   9.422  19.934   8.713  0.3456 -0.1944 -0.0004
    1WF      WF60176  16.829   1.289   9.915 -0.0345  0.1266  0.2981
    1WF      WF60177  22.374   2.110   9.765 -0.1386  0.0086  0.0988
    1WF      WF60178  16.693  10.109   8.376  0.0945 -0.0177  0.1546
    1WF      WF60179  20.361   5.286   8.442  0.0013 -0.1744  0.0047
    1WF      WF60180  27.509  27.352   0.781  0.0068  0.2617 -0.1085
    1WF      WF60181  21.195  20.787   1.578  0.2134  0.1297  0.0636
    1WF      WF60182   2.080  13.726   7.992  0.2059 -0.2546 -0.2017
    1WF      WF60183  22.899  21.598   6.869  0.2166  0.1974  0.0992
    1WF      WF60184   9.565  11.044   8.778 -0.0267 -0.3779  0.1634
    1WF      WF60185  23.212  13.173   2.582  0.0677  0.1790 -0.2141
    1WF      WF60186  16.849  10.329   0.909 -0.1794 -0.2010 -0.0484
    1WF      WF60187  24.402   2.743   0.558 -0.1131 -0.3631 -0.2880
    1WF      WF60188  25.393   0.882   7.529  0.1151  0.2368 -0.4458
    1WF      WF60189  17.982  14.062   9.542 -0.3508 -0.2843  0.1559
    1WF      WF60190  24.958  24.998  10.209  0.1620  0.2890  0.0739
    1WF      WF60191   7.743  12.177  10.307  0.0175  0.0375 -0.0389
    1WF      WF60192  16.957  27.190   0.359  0.2878  0.1712  0.3354
    1WF      WF60193  15.722   8.081  10.112 -0.2496  0.1347  0.2450
    1WF      WF60194  16.524   0.300   1.519  0.2090 -0.1284 -0.1381
    1WF      WF60195  13.672  21.722   1.551  0.1319 -0.0884 -0.4077
    1WF      WF60196  13.495   2.653   8.612 -0.2700 -0.1987  0.0645
    1WF      WF60197  14.676   3.320   1.319  0.0863 -0.2136  0.3085
    1WF      WF60198  15.802  25.485   9.475  0.2758  0.0194  0.1693
    1WF      WF60199  22.559  15.995   2.201 -0.4707  0.0547  0.2252
    1WF      WF60200  22.408  15.953   0.086 -0.0841  0.3397  0.2428
    1WF      WF60201  17.331  21.294   1.236  0.0245 -0.1673  0.0598
    1WF      WF60202  12.806  10.979   9.398 -0.1330  0.0361  0.1928
    1WF      WF60203  21.674  17.930   2.787  0.0074  0.1854 -0.0224
    1WF      WF60204   5.086   3.218   0.456  0.3622  0.2141  0.0550
    1WF      WF60205   6.988  10.239   1.697 -0.2931 -0.0276 -0.3486
    1WF      WF60206  12.342  18.466   9.961  0.0051  0.2294  0.2124
    1WF      WF60207  21.730   0.892   8.455  0.2728  0.1995 -0.2861
    1WF      WF60208  24.801  22.152   0.991 -0.0541 -0.0500 -0.1245
    1WF      WF60209  11.151  19.561   8.988  0.2205  0.0748 -0.1705
    1WF      WF60210   1.143  11.882   9.365 -0.0055  0.0709 -0.2702
    1WF      WF60211  20.469  15.883   1.628 -0.1179 -0.4703  0.0796
    1WF      WF60212   8.294  19.911   9.974  0.4979 -0.1790 -0.0800
    1WF      WF60213   4.418  18.531   9.806  0.3238  0.0413 -0.0086
    1WF      WF60214  27.432  11.191   1.909 -0.1051 -0.0067  0.1575
    1WF      WF60215  15.328  19.914   0.777 -0.0739 -0.1260  0.1188
    1WF      WF60216  18.433  28.000   1.610  0.3718 -0.1554  0.0084
    1WF      WF60217  11.069  23.910   9.834 -0.4529 -0.0338  0.1070
    1WF      WF60218  10.039   8.364  10.263  0.2133 -0.0352  0.1154
    1WF      WF60219  19.368   5.498   0.879 -0.1542 -0.1201 -0.2376
    1WF      WF60220   7.837  26.250   0.269  0.0028 -0.1871  0.3082
    1WF      WF60221  20.580   0.501   1.922 -0.1524 -0.0356 -0.2632
    1WF      WF60222  16.806   5.131   1.045 -0.0639  0.0328 -0.2161
    1WF      WF60223  12.834  25.489   1.202 -0.0196  0.2603 -0.4287
    1WF      WF60224   3.139  15.688   1.233  0.0538  0.1639  0.2652
    1WF      WF60225   2.616  17.114   9.590 -0.0905  0.1959  0.4194
    1WF      WF60226  24.197  16.117   0.399  0.0254 -0.2833  0.0278
    1WF      WF60227  18.957  12.636   7.010 -0.2560  0.0128  0.0746
    1WF      WF60228  10.969  14.872   1.566  0.2231 -0.0622 -0.0820
    1WF      WF60229  13.598  18.188   7.283  0.2710  0.1456 -0.2072
    1WF      WF60230  26.875   2.005   0.522  0.0374 -0.1271 -0.2184
    1WF      WF60231  14.464  23.439   9.997  0.0469 -0.1787 -0.1462
    1WF      WF60232  20.475   8.219   1.325  0.1333 -0.0042  0.2230
    1WF      WF60233  20.811  17.221   9.555 -0.0019 -0.3251  0.0021
    1WF      WF60234  10.985  19.206   9.286 -0.1729 -0.2380 -0.1569
    1WF      WF60235  13.044  18.771   1.597  0.2968  0.4715 -0.1547
    1WF      WF60236  26.605  10.448   7.669  0.2703 -0.2227  0.1305
    1WF      WF60237  15.773  19.828   9.929  0.1315 -0.1038 -0.2604
    1WF      WF60238  18.522   1.873   2.418 -0.2237  0.1132  0.1474
    1WF      WF60239   9.379  10.100   0.069  0.1061  0.0298 -0.0437
    1WF      WF60240  15.286   2.880   0.056  0.1080 -0.0214  0.2519
    1WF      WF60241   2.448  18.747   7.993 -0.0906 -0.0716  0.0495
    1WF      WF60242  27.453   2.875   0.770  0.2089 -0.3982 -0.0539
    1WF      WF60243  20.930   6.641   2.734  0.3791 -0.2075 -0.1550
    1WF      WF60244   4.761   8.870   1.129 -0.3374 -0.6033 -0.1072
    1WF      WF60245  18.709  25.255   7.566  0.1853 -0.1887 -0.0937
    1WF      WF60246  19.198  22.657   9.040  0.1378  0.2046 -0.0752
    1WF      WF60247  17.005  22.449   1.863 -0.0414 -0.1530 -0.2072
    1WF      WF60248  10.254  23.382   1.378 -0.0283 -0.1767  0.2016
    1WF      WF60249  23.315  20.689   7.808 -0.0819 -0.1156  0.5440
    1WF      WF60250   3.436   0.985   0.099  0.0209  0.0803 -0.2692
    1WF      WF60251  17.553   3.397   9.612  0.3498 -0.1238  0.1860
    1WF      WF60252   1.489   0.451   0.799  0.0375 -0.0620 -0.2142
    1WF      WF60253  23.069   6.363   0.661  0.1721  0.0974  0.0746
    1WF      WF60254   0.110   3.111   8.528  0.0091  0.1578  0.0261
    1WF      WF60255  18.181  28.066   0.433  0.4548  0.0815 -0.1296
    1WF      WF60256  25.216  18.104   1.407 -0.2879  0.1473  0.1124
    1WF      WF60257   2.868  20.663   8.046  0.2023  0.2221  0.1126
    1WF      WF60258  21.812  20.967   0.557  0.0891  0.1307 -0.1950
    1WF      WF60259  13.704   8.239   7.664  0.0502 -0.2538  0.0037
    1WF      WF60260  14.624   2.372   0.140  0.2230 -0.2144 -0.1013
    1WF      WF60261  27.068  19.685   8.203  0.0937  0.0072  0.0852
    1WF      WF60262  13.941  27.884   9.069  0.0541 -0.0855 -0.1475
    1WF      WF60263   2.236   9.214   1.502 -0.2599  0.2783 -0.5081
    1WF      WF60264   9.980  15.275   1.620 -0.1004 -0.2037  0.2930
    1WF      WF60265  23.710  11.869   9.695 -0.0048  0.2617  0.2369
    1WF      WF60266  13.250  12.799   1.885  0.1398 -0.1297 -0.1453
    1WF      WF60267  21.618  21.412   8.867  0.1582 -0.2390  0.0520
    1WF      WF60268  22.391   7.964   7.978 -0.0953 -0.3930  0.0426
    1WF      WF60269  20.793   6.904   9.413  0.0195  0.1534 -0.3542
    1WF      WF60270  20.845  25.204   7.339 -0.0490  0.2508  0.0266
    1WF      WF60271  23.064  25.641   0.709 -0.2949  0.0388  0.1442
    1WF      WF60272   5.744  24.091   9.006  0.0763  0.0301  0.0051
    1WF      WF60273  26.686   2.302   9.522 -0.0299 -0.2761 -0.2942
    1WF      WF60274   8.271   1.416   0.425 -0.1342  0.1183 -0.1422
    1WF      WF60275  12.957   0.833   2.181  0.0155  0.2541 -0.0318
    1WF      WF60276  19.818  22.819  10.022 -0.1006 -0.3384  0.0512
    1WF      WF60277   4.845  26.412   0.353 -0.0598 -0.1104 -0.2689
    1WF      WF60278  21.924  20.925   9.065 -0.0559  0.0946  0.2767
    1WF      WF60279   4.180   6.583   7.778  0.1681 -0.0760  0.2319
    1WF      WF60280   2.255   1.632   8.748 -0.0885  0.2471 -0.1455
    1WF      WF60281  26.054   0.132   8.112 -0.1187 -0.1158 -0.1287
    1WF      WF60282   9.779  15.000   1.265  0.1317 -0.1099  0.1196
    1WF      WF60283  21.570   9.505   0.206  0.1313 -0.3627 -0.1879
    1WF      WF60284  15.223   5.538   9.280 -0.0119  0.3590  0.0816
    1WF      WF60285   6.939  12.811   2.166  0.0867  0.0666  0.4886
    1WF      WF60286  24.595  22.963   0.460 -0.0835 -0.0364 -0.1985
    1WF      WF60287  15.092  22.997   2.211 -0.4464 -0.0399  0.3182
    1WF      WF60288  17.357  14.332   1.630  0.1372 -0.0529  0.0703
    1WF      WF60289  25.986   5.022   0.059  0.0479  0.2912  0.1500
    1WF      WF60290   4.663  23.208   1.313 -0.2310 -0.1400 -0.1793
    1WF      WF60291   4.160  18.836   8.221  0.0531  0.2760 -0.2514
    1WF      WF60292  20.626   3.292   9.071  0.1452  0.0244 -0.1070
    1WF      WF60293   3.941  11.497   3.297  0.1357 -0.0436  0.2535
    1WF      WF60294   1.620  24.863   0.738 -0.0796  0.0478  0.0052
    1WF      WF60295   7.370   5.626   0.978  0.2155  0.0930  0.1460
    1WF      WF60296  24.034   5.352   8.727  0.0933  0.0828 -0.2279
    1WF      WF60297  23.034  16.643   8.903  0.1226  0.2366  0.0267
    1WF      WF60298  25.289  10.738   0.934  0.1381 -0.2877 -0.3316
    1WF      WF60299  14.503   2.288   0.629 -0.0169  0.0923  0.0742
    1WF      WF60300  26.431  26.936   9.068 -0.3135  0.1772 -0.3488
    1WF      WF60301  18.599  20.829   1.896  0.1314  0.1833 -0.2103
    1WF      WF60302  26.940  22.902   0.239  0.2650  0.2182 -0.1009
    1WF      WF60303   3.506   0.071   7.211 -0.1102 -0.1264 -0.2696
    1WF      WF60304  23.735  13.373   8.312 -0.2538 -0.2104  0.0530
    1WF      WF60305  12.059   5.146   1.757  0.1158 -0.0560 -0.5255
    1WF      WF60306  25.081   7.331   9.722  0.1453 -0.0880 -0.0276
    1WF      WF60307   4.868  18.895   8.124  0.0666  0.0959 -0.3453
    1WF      WF60308  13.880  25.322   1.241  0.0301 -0.2209 -0.0706
    1WF      WF60309   1.656   3.793   8.626  0.3680  0.2157 -0.0722
    1WF      WF60310  22.698   5.928   9.370  0.1251 -0.2431  0.2167
    1WF      WF60311   0.085   5.494   0.283 -0.0939  0.1330  0.2803
    1WF      WF60312  12.068   8.543   1.640  0.0464 -0.0498  0.2131
    1WF      WF60313   0.029  23.549   9.234  0.0335  0.2445  0.2083
    1WF      WF60314  17.410  26.667   8.644 -0.1311  0.0906  0.1662
    1WF      WF60315  19.323  22.000   0.880  0.0377  0.1934  0.2065
    1WF      WF60316   6.537  14.563   1.401 -0.1872 -0.0894  0.0501
    1WF      WF60317  12.564  22.175   0.259 -0.0455 -0.1999 -0.1427
    1WF      WF60318  27.010   0.352   0.875 -0.0210  0.0926 -0.0019
    1WF      WF60319   1.001  13.936   8.131  0.5246  0.3026 -0.0925
    1WF      WF60320  16.999  13.447   2.337  0.0650 -0.0479  0.1214
    1WF      WF60321  27.966  24.110   9.500  0.1283  0.1345  0.0291
    1WF      WF60322  15.194  16.590   2.088  0.1269 -0.3097 -0.0516
    1WF      WF60323   0.849  13.839   7.602  0.0864 -0.1359  0.2032
    1WF      WF60324  25.664  26.269   8.673  0.1053 -0.1050 -0.2168
    1WF      WF60325  24.358   4.803   1.580 -0.0318 -0.2523  0.3503
    1WF      WF60326  18.620   2.715   1.587 -0.0649  0.1455 -0.3400
    1WF      WF60327   6.981  10.878   8.080  0.0958 -0.0559  0.2373
    1WF      WF60328  21.876   5.220   8.407  0.1556 -0.0154  0.0413
    1WF      WF60329   9.683  21.919  10.028 -0.2317 -0.4411  0.0440
    1WF      WF60330  19.978  13.131   3.325  0.0886  0.0484  0.2065
    1WF      WF60331  19.519  21.109   1.590 -0.1887 -0.1663 -0.1220
    1WF      WF60332   5.917  24.341   9.490 -0.3157 -0.1445 -0.0869
    1WF      WF60333  21.696  23.555   8.200 -0.0372 -0.0492  0.0811
    1WF      WF60334  26.618   5.632   7.712 -0.0457 -0.1653 -0.0677
    1WF      WF60335   8.084  14.550   8.910  0.0429 -0.3009  0.1133
    1WF      WF60336  26.569   2.078   9.979 -0.0288  0.4508 -0.1831
    1WF      WF60337  11.262  18.821   9.208  0.2973  0.2344 -0.0756
    1WF      WF60338  20.493  10.254   8.598  0.3265  0.2523 -0.0571
    1WF      WF60339   3.108   1.648   1.084  0.0070  0.0385  0.0826
    1WF      WF60340  25.932  25.137   1.542 -0.2527 -0.1580  0.0546
    1WF      WF60341  20.760   0.266   0.450  0.0606  0.3643 -0.1443
    1WF      WF60342  23.500   2.425  10.203 -0.1396 -0.2012 -0.0938
    1WF      WF60343  17.019  15.269   2.418  0.1892  0.2102  0.0476
    1WF      WF60344  24.059  19.250   8.989 -0.1228 -0.1522 -0.0835
    1WF      WF60345  21.116  20.598  10.218  0.3422 -0.1073 -0.0465
    1WF      WF60346  10.496  20.360  10.226  0.0111  0.0581  0.2526
    1WF      WF60347  19.056  16.390   8.826  0.0640  0.2046 -0.0414
    1WF      WF60348  17.941  18.645   0.089  0.0117  0.1338  0.2085
    1WF      WF60349   3.664  19.832   3.702  0.1010 -0.0801 -0.0623
    1WF      WF60350   5.485   5.264   0.619 -0.2441  0.0525 -0.2492
    1WF      WF60351  15.179  22.923   0.856 -0.1685 -0.0929  0.0318
    1WF      WF60352  10.896   7.933   1.725  0.1397 -0.0004  0.2520
    1WF      WF60353   2.525  20.906   8.330 -0.2084 -0.1179  0.0055
    1WF      WF60354  14.775  23.789  10.354  0.0926 -0.3206 -0.2674
    1WF      WF60355   9.158  10.297   8.068 -0.4025  0.0295 -0.0283
    1WF      WF60356   0.202   7.173   8.868 -0.2415  0.0878  0.0117
    1WF      WF60357   5.716  21.288   7.498  0.1348  0.1423 -0.1485
    1WF      WF60358   8.833   0.029   9.752 -0.0083 -0.0377 -0.3471
    1WF      WF60359  23.585   7.051   8.459  0.3252 -0.0010 -0.0755
    1WF      WF60360   1.972  27.528   1.090 -0.0006  0.0156  0.0746
    1WF      WF60361  11.006  23.056  10.052 -0.2448  0.3356  0.2529
    1WF      WF60362  12.578  12.149   0.338  0.1880 -0.2115 -0.3905
    1WF      WF60363  24.468  14.139   0.238 -0.0299 -0.2019 -0.0907
    1WF      WF60364  25.869  15.610   7.632  0.0406  0.0904  0.0496
    1WF      WF60365  20.153  24.954   1.793  0.2434 -0.0266 -0.0126
    1WF      WF60366   5.573  18.647   9.622 -0.1103  0.1117  0.0048
    1WF      WF60367  14.168  18.080   8.530  0.1575 -0.2199  0.0933
    1WF      WF60368  10.901  13.174   1.935  0.1259  0.1802 -0.1166
    1WF      WF60369   3.217  20.008   9.271 -0.0928 -0.0126 -0.0896
    1WF      WF60370  18.082  14.457   7.758  0.1060 -0.1188 -0.2693
    1WF      WF60371  16.775  22.578   2.369 -0.1268  0.3589 -0.2164
    1WF      WF60372  13.445  25.418   8.354 -0.0670 -0.1213 -0.2556
    1WF      WF60373  11.180   9.336   3.288 -0.0524  0.0327  0.1786
    1WF      WF60374   7.373  24.297  10.173  0.0012 -0.0699  0.1550
    1WF      WF60375  23.127   5.013   3.105  0.1028  0.2007 -0.2481
    1WF      WF60376  11.977  25.765   8.103 -0.0433 -0.0150  0.0677
    1WF      WF60377   2.034  14.882   1.173 -0.2788  0.4322 -0.2325
    1WF      WF60378   4.208   3.163   0.996 -0.0760  0.1626  0.1226
    1WF      WF60379  19.761  12.071   6.960  0.0646  0.2162 -0.0706
    1WF      WF60380  13.775  26.423   0.222  0.4367  0.2659  0.1215
    1WF      WF60381  20.192  15.828   1.183 -0.0677  0.1962 -0.1206
    1WF      WF60382  14.274   4.424  10.060 -0.1817 -0.1719 -0.0812
    1WF      WF60383   7.881   4.225   8.898 -0.0452 -0.1126 -0.1330
    1WF      WF60384   1.800  15.746   2.253 -0.0913  0.1901 -0.4829
    1WF      WF60385  21.503  10.058   1.696 -0.0642  0.1809 -0.0287
    1WF      WF60386  18.330  15.269   9.444  0.1073 -0.1867  0.3770
    1WF      WF60387  23.666  25.795   3.255  0.0098  0.0163 -0.1028
    1WF      WF60388   5.421  27.802   8.359 -0.0491  0.1972 -0.1199
    1WF      WF60389   7.470   9.097   1.901 -0.1910 -0.0490 -0.0071
    1WF      WF60390  26.120  14.817   0.887 -0.0064 -0.2237 -0.1824
    1WF      WF60391  26.725   7.656   1.542 -0.0747 -0.0397 -0.1205
    1WF      WF60392   3.195  19.696   7.778 -0.0168 -0.1751  0.0869
    1WF      WF60393  26.828   7.901   1.138 -0.1113 -0.0187 -0.1705
    1WF      WF60394  11.679  12.246   9.733  0.0061  0.2846 -0.1399
    1WF      WF60395  14.829   2.609   8.396  0.1201  0.1472 -0.2594
    1WF      WF60396   7.948  14.959   1.909  0.1057 -0.0370 -0.1295
    1WF      WF60397   1.271  18.365   8.435 -0.0381  0.0055 -0.2817
    1WF      WF60398  23.387  23.085   9.539  0.1400 -0.2754  0.1867
    1WF      WF60399   6.419  21.081   8.256 -0.3207 -0.0795  0.1651
    1WF      WF60400  14.002  27.261   1.210  0.4402  0.0944  0.2425
    1WF      WF60401  12.058  26.209  10.228 -0.1192 -0.3904 -0.4290
    1WF      WF60402  22.449  11.758   0.900  0.0852  0.0434  0.0249
    1WF      WF60403   5.651   3.511  10.141 -0.0132  0.3521 -0.0042
    1WF      WF60404   2.824   3.097   8.863 -0.1235 -0.1362  0.0228
    1WF      WF60405   7.896  13.777   8.835  0.0542 -0.1868 -0.1960
    1WF      WF60406   8.257  19.919   0.700 -0.2389  0.0015 -0.0009
    1WF      WF60407  19.390   7.081   9.514  0.0023 -0.1502 -0.2633
    1WF      WF60408  25.462  19.774   1.062 -0.0344 -0.0743 -0.3785
    1WF      WF60409  20.369   1.737   8.225  0.3675 -0.2312  0.2040
    1WF      WF60410  26.859  21.681   8.455 -0.0864 -0.3538 -0.1374
    1WF      WF60411  23.643  25.221   9.862  0.0898 -0.0143  0.0300
    1WF      WF60412  21.118  24.542   3.537  0.1119  0.2098 -0.2514
    1WF      WF60413  17.859  12.309   9.392 -0.1763  0.1776 -0.0143
    1WF      WF60414  15.155  20.771   9.030 -0.1013 -0.1063  0.2950
    1WF      WF60415   3.198  18.227   8.931 -0.2238 -0.0145 -0.0693
    1WF      WF60416   7.030  26.980   9.411  0.2184  0.1479 -0.2343
    1WF      WF60417  23.228   4.428   0.205 -0.1598  0.0200  0.0080
    1WF      WF60418  17.142  15.126   2.868 -0.1486  0.1179 -0.0186
    1WF      WF60419  25.458  21.458   0.861  0.0306  0.0374 -0.2655
    1WF      WF60420   0.864  17.815   0.051  0.0726 -0.1812  0.1293
    1WF      WF60421  19.961  24.770   8.704  0.2687 -0.1998 -0.0555
    1WF      WF60422   3.551  27.139   0.815 -0.1467 -0.2767  0.3427
    1WF      WF60423  26.087  11.041   2.095  0.0993 -0.1929  0.0676
    1WF      WF60424   1.698  15.230   1.537 -0.0990  0.2142  0.0393
    1WF      WF60425  27.517  21.467   0.814 -0.0236 -0.2352 -0.1618
    1WF      WF60426  18.627  21.925   9.759  0.3902 -0.0059 -0.2358
    1WF      WF60427   8.232   5.222   0.633  0.2507 -0.1822  0.3165
    1WF      WF60428  23.075  15.923   0.696 -0.0146  0.2355  0.0980
    1WF      WF60429  15.222  11.373   0.412  0.0669 -0.2045 -0.0050
    1WF      WF60430  14.836   4.301   8.857 -0.2518 -0.2706  0.0849
    1WF      WF60431   1.284  18.773   9.348  0.0136 -0.0053 -0.1025
    1WF      WF60432  26.844  15.510   0.945  0.3182 -0.2200  0.0304
    1WF      WF60433  12.433  24.381   6.811 -0.2117 -0.0111  0.1156
    1WF      WF60434   0.735  14.456   0.555 -0.1804 -0.0640  0.1699
    1WF      WF60435  14.270  26.368   0.881 -0.0147  0.2793 -0.4173
    1WF      WF60436  17.794  25.861  10.131  0.2502 -0.0507 -0.1978
    1WF      WF60437  25.728  23.770   3.116  0.0417 -0.3297 -0.0717
    1WF      WF60438  18.886   1.063  10.174 -0.0058  0.0842 -0.1155
    1WF      WF60439  11.850   0.015   2.477 -0.3948  0.1226 -0.2936
    1WF      WF60440  22.167   2.614   7.923 -0.1350  0.0144 -0.1862
    1WF      WF60441   9.497  20.945   0.470 -0.1594  0.3876  0.0512
    1WF      WF60442   9.030  18.463   9.110  0.1745 -0.2009  0.2761
    1WF      WF60443  22.224   8.443   8.049 -0.0969 -0.2879  0.1330
    1WF      WF60444  26.101  15.055   0.287 -0.3513 -0.5754  0.0449
    1WF      WF60445   1.817   6.313   7.696  0.2156  0.0154 -0.1982
    1WF      WF60446  19.183   9.469   9.465 -0.0362 -0.1099  0.0773
    1WF      WF60447  10.640   9.205  10.147  0.0349  0.1185  0.1513
    1WF      WF60448  26.769   6.249   0.414 -0.4465 -0.1066  0.2454
    1WF      WF60449   3.856  23.837   8.653  0.1198 -0.0799 -0.2450
    1WF      WF60450  23.526   5.680   9.870 -0.1189  0.0187 -0.3060
    1WF      WF60451  24.600  10.563   0.515 -0.1896 -0.2893 -0.0434
    1WF      WF60452  25.705   1.749   8.257 -0.0472 -0.1341  0.2091
    1WF      WF60453   8.955   9.594   1.024 -0.0088 -0.1124  0.2037
    1WF      WF60454  15.403   9.302   2.769  0.0015  0.2819 -0.0641
    1WF      WF60455  27.326  17.247   0.142  0.0039  0.0705 -0.4074
    1WF      WF60456  13.583  25.582   3.037 -0.1345  0.2325 -0.1157
    1WF      WF60457  17.635   9.253   0.927  0.2902 -0.0177  0.1849
    1WF      WF60458  12.493   0.820   2.077  0.3390 -0.0973  0.2009
    1WF      WF60459  13.041  16.854   1.815  0.0438 -0.1175  0.0023
    1WF      WF60460  17.671  21.657   1.656  0.3436  0.2732  0.1042
    1WF      WF60461  18.515  20.699   3.590  0.2077  0.2282  0.0425
    1WF      WF60462   5.893   1.731   0.824 -0.2559  0.2305  0.2530
    1WF      WF60463   1.216  26.064   9.472 -0.1007 -0.1910  0.1281
    1WF      WF60464   3.259   8.920   8.953  0.1386  0.1464  0.1918
    1WF      WF60465  10.861   6.880   8.790  0.1106  0.1950  0.3832
    1WF      WF60466  11.595  26.910   9.823  0.1194 -0.0706  0.0543
    1WF      WF60467  20.211  13.460   6.724  0.2265 -0.1330  0.0004
    1WF      WF60468   9.263   4.240  10.309  0.0194 -0.1412 -0.0718
    1WF      WF60469  11.105  24.029   1.801  0.3914 -0.0064  0.2880
    1WF      WF60470  24.388   3.247   8.373  0.1592 -0.0700  0.0930
    1WF      WF60471  18.889  20.991   0.457 -0.0265  0.2272 -0.0744
    1WF      WF60472  15.187  13.268   1.667  0.2340 -0.4548  0.0068
    1WF      WF60473  27.458   2.331   9.246  0.0225 -0.7297  0.0404
    1WF      WF60474  11.610  27.795   2.686  0.2006  0.2124 -0.2694
    1WF      WF60475  28.052  27.312   9.437  0.2189  0.0721  0.2393
    1WF      WF60476   6.822  15.472   1.715 -0.1247 -0.0862  0.1089
    1WF      WF60477   9.529  20.432   8.750  0.0402 -0.0709 -0.0534
    1WF      WF60478  24.657  16.535   1.923 -0.1898 -0.0832 -0.0003
    1WF      WF60479  18.013  11.275   2.207 -0.4561 -0.2451  0.1168
    1WF      WF60480  23.857  21.382   2.268 -0.0969 -0.1901  0.0064
    1WF      WF60481  22.551   7.696   0.737 -0.0195 -0.0165  0.0710
    1WF      WF60482  16.512  23.208   9.115  0.1404 -0.0347 -0.1357
    1WF      WF60483   4.291  11.665  10.088  0.0745  0.1957 -0.0898
    1WF      WF60484  16.137  20.615   8.907 -0.0015 -0.1393  0.0793
    1WF      WF60485  19.026   2.026  10.285 -0.2947  0.0554 -0.0435
    1WF      WF60486  21.492   9.691   1.320  0.2487 -0.1692  0.1408
    1WF      WF60487  17.906  18.433   0.530 -0.0302 -0.1431 -0.1317
    1WF      WF60488   8.292  18.738   2.617 -0.2252  0.1168 -0.3009
    1WF      WF60489  22.825   8.734   1.085 -0.1344  0.1388 -0.3358
    1WF      WF60490   6.134  23.235   1.834  0.0391  0.3141 -0.1435
    1WF      WF60491  12.045  21.538   0.881 -0.1896 -0.0959  0.0468
    1WF      WF60492   4.594  26.932   9.496 -0.3107 -0.0852 -0.3181
    1WF      WF60493  16.570   1.099   1.192  0.2259  0.0358 -0.0301
    1WF      WF60494  24.091   7.004   0.209  0.0080  0.0949 -0.1497
    1WF      WF60495  13.748  21.819   1.034  0.3039  0.1918  0.0310
    1WF      WF60496  12.670   6.215   1.298  0.0989  0.4798  0.0680
    1WF      WF60497  20.201   2.750   2.556  0.0209 -0.2892  0.3014
    1WF      WF60498   7.761  22.873   0.418 -0.1784 -0.2480 -0.2269
    1WF      WF60499  20.084   0.134   2.596 -0.0212  0.1840 -0.0964
    1WF      WF60500  16.021  17.081   9.326 -0.0048 -0.2430 -0.0372
    1WF      WF60501   8.076  10.560   7.035  0.0924  0.2492 -0.1553
    1WF      WF60502  22.589  19.685   1.686  0.1905 -0.0259  0.1937
    1WF      WF60503   6.025   6.569   8.836  0.5828 -0.1202 -0.0065
    1WF      WF60504  27.089  26.761   8.204 -0.1064  0.1187  0.0526
    1WF      WF60505  14.430  25.377   1.823  0.0084  0.0345 -0.1398
    1WF      WF60506   5.437  14.463   8.936 -0.1300 -0.0128  0.2426
    1WF      WF60507  21.104  22.658   2.223 -0.2400  0.0214 -0.2704
    1WF      WF60508  15.232  19.479   1.942 -0.1320 -0.1159 -0.2244
    1WF      WF60509  12.900  10.969   9.921 -0.2941  0.0414  0.0299
    1WF      WF60510  10.924   7.775  10.021  0.0914  0.0295 -0.0215
    1WF      WF60511   0.388   5.797  10.338 -0.0093  0.0983  0.4899
    1WF      WF60512  18.533   7.780   1.462 -0.0350 -0.0907  0.2486
    1WF      WF60513   3.976  24.028   2.135 -0.0811  0.0941 -0.1240
    1WF      WF60514  21.510  24.672   2.142 -0.2684 -0.1023 -0.0672
    1WF      WF60515  10.701  13.560   3.158 -0.2088  0.1438 -0.1550
    1WF      WF60516  16.966   9.478   4.009  0.1517  0.2183  0.2387
    1WF      WF60517  15.804  10.439   0.104 -0.3182 -0.2472  0.2739
    1WF      WF60518  14.768  18.289   9.046 -0.0159  0.0797  0.3081
    1WF      WF60519   0.395  15.479   2.974 -0.2028  0.2346  0.2669
    1WF      WF60520   2.300  21.850   8.917 -0.2948 -0.3676 -0.0770
    1WF      WF60521  20.221  22.001   0.084  0.2119  0.1871  0.1817
    1WF      WF60522  25.579  20.210   1.236  0.0139  0.1156  0.2043
    1WF      WF60523   6.200  20.705   3.284  0.1268 -0.3819 -0.0128
    1WF      WF60524   4.674  21.922   0.206 -0.2217  0.1540 -0.0839
    1WF      WF60525   3.198   4.663   7.279 -0.1612  0.2353  0.3638
    1WF      WF60526  12.497  12.060   0.807 -0.0923 -0.0944  0.2663
    1WF      WF60527   2.850  16.667   9.462  0.1290 -0.4340  0.3212
    1WF      WF60528  11.986  13.833   8.940 -0.0427 -0.0789 -0.2541
    1WF      WF60529  21.836   1.990   2.437  0.1304 -0.1279  0.2244
    1WF      WF60530  10.395  11.446   2.248  0.0559 -0.3280  0.0575
    1WF      WF60531  14.365  12.816   1.280 -0.0016 -0.0521  0.1318
    1WF      WF60532  17.922  22.118   1.529 -0.0597 -0.4589  0.0573
    1WF      WF60533  22.721   4.273   0.651  0.1397 -0.1621 -0.1719
    1WF      WF60534  14.609   5.226   2.003  0.0096  0.0012 -0.2687
    1WF      WF60535  15.437  17.946   2.540 -0.0252 -0.3000 -0.0191
    1WF      WF60536   1.276  13.340   1.024  0.3026 -0.2964 -0.0398
    1WF      WF60537   5.167  15.946   2.032 -0.0276  0.2098 -0.0672
    1WF      WF60538  15.547   2.662  10.079 -0.1933  0.0937 -0.1219
    1WF      WF60539   2.305   1.628   1.811  0.0789  0.1202 -0.1546
    1WF      WF60540  21.005   6.118   7.712 -0.1055  0.2024 -0.4957
    1WF      WF60541  27.090   7.825   0.071  0.0024  0.1814  0.3082
    1WF      WF60542  24.296  18.799   8.922 -0.0602 -0.1319  0.0087
    1WF      WF60543   7.256  24.577   1.347 -0.0053 -0.0525 -0.2779
    1WF      WF60544  13.003  25.350  10.083  0.1640 -0.3371  0.2502
    1WF      WF60545  21.057   9.924   1.494  0.0057  0.1442  0.2170
    1WF      WF60546  22.863  18.756   0.708 -0.0547 -0.2041 -0.0376
    1WF      WF60547   3.984  16.949  10.196 -0.3972  0.2434  0.0819
    1WF      WF60548  20.382   2.333   9.626 -0.2118  0.1429 -0.0180
    1WF      WF60549   8.445  25.046   9.996 -0.1134  0.0142 -0.1201
    1WF      WF60550  21.923   5.171   7.451  0.2037 -0.0325 -0.0685
    1WF      WF60551  19.812   0.027   7.813  0.0088  0.1847 -0.1064
    1WF      WF60552  11.912   2.667   9.298  0.4636  0.1351 -0.3794
    1WF      WF60553  10.034  21.801   9.680 -0.0342  0.0285  0.1373
    1WF      WF60554  22.681   3.928   8.627  0.2902  0.1860  0.2985
    1WF      WF60555  25.918   1.115   7.782  0.2208 -0.2833  0.0141
    1WF      WF60556  14.539  11.894   1.360 -0.2501 -0.2106 -0.1103
    1WF      WF60557  10.996  12.075   9.762  0.1432  0.2796 -0.0654
    1WF      WF60558   7.150   8.011   2.574  0.0279  0.1184  0.0210
    1WF      WF60559   0.865  16.306   9.122  0.5115 -0.1834  0.0492
    1WF      WF60560  26.540  25.731   0.325  0.1759  0.1751  0.1097
    1WF      WF60561  22.781   1.914  10.150 -0.1428  0.3562  0.1965
    1WF      WF60562  20.050   7.282   0.836  0.1044 -0.1224  0.1625
    1WF      WF60563  21.397   4.368   6.683  0.1218  0.3850  0.1198
    1WF      WF60564   7.648   9.064   6.988 -0.1210  0.2241 -0.0124
    1WF      WF60565   2.561  20.971   0.283  0.0669 -0.2129  0.3495
    1WF      WF60566   5.552   6.765   0.447 -0.1347  0.3594  0.0812
    1WF      WF60567  20.640  17.080   1.877  0.0269 -0.0943 -0.1781
    1WF      WF60568   8.479  13.840   1.015  0.0438  0.0804 -0.2223
    1WF      WF60569  23.343   2.040   8.713  0.1927  0.0856 -0.1234
    1WF      WF60570  23.066   1.032   9.466  0.2338 -0.2379 -0.0955
    1WF      WF60571  26.849  18.579   8.569 -0.3466 -0.0481 -0.1045
    1WF      WF60572  21.388   2.225   0.500 -0.2509 -0.1088  0.1035
    1WF      WF60573  26.523  11.135   0.987 -0.1784 -0.2910  0.2001
    1WF      WF60574  12.346  13.806   9.300 -0.2609 -0.0777  0.1392
    1WF      WF60575   2.865  13.725   1.424  0.0745  0.1779  0.0372
    1WF      WF60576  27.473  11.080   9.639 -0.1790  0.0089  0.1506
    1WF      WF60577   7.655   5.267   0.765  0.1897 -0.1504  0.1189
    1WF      WF60578  11.017  25.265   1.132 -0.0762 -0.1198  0.1402
    1WF      WF60579   8.998  16.581   0.625  0.3364  0.0787  0.2055
    1WF      WF60580   2.731   2.457   9.428  0.0327 -0.1428  0.0181
    1WF      WF60581  24.457  24.858   9.918 -0.0600 -0.1740  0.0860
    1WF      WF60582   1.611  14.696   1.415 -0.0638  0.1876 -0.2687
    1WF      WF60583  23.926  20.573   1.396  0.0406  0.3184  0.3470
    1WF      WF60584  21.657   1.502   8.458  0.2405 -0.1808  0.1584
    1WF      WF60585  22.844  27.210   8.849  0.0157 -0.1319 -0.0182
    1WF      WF60586  11.486   0.200   2.724  0.0822 -0.1676 -0.3367
    1WF      WF60587   7.002   7.739   2.118  0.2729 -0.2690  0.0478
    1WF      WF60588  18.295  17.971   1.546  0.3308  0.1917 -0.3721
    1WF      WF60589  26.149   3.498   9.803 -0.0277 -0.0173 -0.1810
    1WF      WF60590   2.306   4.755   7.783 -0.1326  0.2313 -0.1052
    1WF      WF60591   5.328   5.458   1.223  0.0121 -0.1034  0.2044
    1WF      WF60592   8.971  26.305   8.357  0.2547  0.2088 -0.0057
    1WF      WF60593   2.730   4.731   7.466  0.0566 -0.1423 -0.0660
    1WF      WF60594   6.819  23.806   9.025  0.4133  0.3686 -0.1894
    1WF      WF60595  28.001   8.507   1.850 -0.4148  0.1854  0.0049
    1WF      WF60596  22.224  27.726   0.905  0.1394  0.0412 -0.2341
    1WF      WF60597  23.999   0.250   8.758  0.0504  0.2984 -0.0876
    1WF      WF60598  24.655  15.285   8.805 -0.1522  0.1282 -0.1737
    1WF      WF60599   2.959   5.795   9.780 -0.0560 -0.4464  0.1848
    1WF      WF60600  25.111  24.141   9.243  0.1676 -0.0029 -0.2413
    1WF      WF60601  14.826   2.640   3.137  0.3762  0.1899 -0.0092
    1WF      WF60602  15.273  15.122  10.363 -0.1398  0.0663 -0.0098
    1WF      WF60603  10.851  16.587   9.397 -0.4714  0.0074  0.1108
    1WF      WF60604  16.840   8.562   2.285 -0.1157  0.1359 -0.1295
    1WF      WF60605  10.016  11.854   2.224  0.0441 -0.0336  0.4491
    1WF      WF60606  27.039   2.037   9.210  0.1764 -0.0184  0.1040
    1WF      WF60607   2.880   8.110  10.298 -0.2387  0.0464 -0.2520
    1WF      WF60608   5.350  24.359   0.693  0.1954  0.2064  0.1575
    1WF      WF60609  25.191  11.541   9.507  0.0427  0.0374 -0.0002
    1WF      WF60610  19.767  13.324   2.961 -0.2083  0.2534  0.3152
    1WF      WF60611  20.643   0.862   1.592  0.1730 -0.0630  0.1747
    1WF      WF60612   9.172  11.191   0.837  0.4221  0.0723 -0.0357
    1WF      WF60613  26.637   0.367   1.248  0.0943  0.1524 -0.2944
    1WF      WF60614   8.780  23.102  10.182 -0.0509 -0.0793  0.0396
    1WF      WF60615  11.241  14.056   9.482 -0.2340  0.0013 -0.0403
    1WF      WF60616  18.597   3.156   9.037 -0.0969 -0.0498 -0.2506
    1WF      WF60617  21.256  25.471   1.110 -0.3379  0.0705  0.4533
    1WF      WF60618  19.641  20.389   7.524 -0.0030 -0.2082  0.1341
    1WF      WF60619   5.663  15.780   9.773 -0.0622  0.2999  0.3404
    1WF      WF60620  12.381   5.840   0.949 -0.0415  0.0812  0.2617
    1WF      WF60621   6.807  27.727   1.411  0.3559  0.2377  0.1215
    1WF      WF60622  27.012   3.100   0.959 -0.1884  0.3160 -0.0576
    1WF      WF60623  15.470   1.368   1.109 -0.0614  0.1258  0.0079
    1WF      WF60624  19.791  18.092   7.157 -0.3286  0.1189 -0.3669
    1WF      WF60625  18.020  24.861   7.856 -0.1502 -0.0969 -0.0456
    1WF      WF60626  14.500  22.923   8.334  0.2885 -0.0001 -0.0747
    1WF      WF60627   0.801  21.269   8.050 -0.0037 -0.0029 -0.0137
    1WF      WF60628  19.446   0.636   8.908 -0.0989  0.1025 -0.0583
    1WF      WF60629  14.127  17.738   0.327  0.1268 -0.0665 -0.1362
    1WF      WF60630   8.255  25.216   0.056 -0.3363  0.0102  0.0610
    1WF      WF60631  16.534  14.330   2.212 -0.0623  0.1122 -0.0068
    1WF      WF60632  11.002  22.289   9.004 -0.0873 -0.1033 -0.2171
    1WF      WF60633  22.649  17.521   3.956  0.0613 -0.0001  0.0762
    1WF      WF60634  28.003  13.621   2.012  0.1951 -0.0246  0.0975
    1WF      WF60635  12.359  22.664   8.020  0.0143 -0.0764  0.0556
    1WF      WF60636  10.225   8.906  10.200  0.1198 -0.3196  0.0685
    1WF      WF60637  17.877   8.706   8.709 -0.0214 -0.0139 -0.1773
    1WF      WF60638  18.416   0.354   0.332  0.1511 -0.1138 -0.0859
    1WF      WF60639   1.500  26.094  10.224  0.0982  0.2217 -0.0173
    1WF      WF60640  18.922  17.137   7.533  0.0034 -0.0103  0.2570
    1WF      WF60641  23.966  23.511   8.260 -0.0663  0.1850  0.0304
    1WF      WF60642   7.903  25.083   8.350 -0.0107 -0.1363 -0.0810
    1WF      WF60643  24.579  20.687   9.274  0.0190  0.0853 -0.0686
    1WF      WF60644   5.085   7.083   0.319 -0.0817 -0.0496 -0.4183
    1WF      WF60645  10.717   1.895   0.256 -0.1481 -0.0041  0.0062
    1WF      WF60646  14.551   2.930   8.060  0.0158  0.0014 -0.1493
    1WF      WF60647  13.104   9.039   9.485  0.1062 -0.1534 -0.0953
    1WF      WF60648   9.271   9.660   1.430 -0.1349 -0.0863 -0.3586
    1WF      WF60649  11.237   7.420   9.835 -0.0014 -0.0764  0.1625
    1WF      WF60650  17.106   6.316   2.966 -0.4696  0.0462 -0.1053
    1WF      WF60651  18.927  26.807   0.812  0.1218  0.0680 -0.0265
    1WF      WF60652   7.772   3.628   1.560  0.1731  0.4080 -0.3417
    1WF      WF60653  11.351   5.907   0.410  0.0167  0.1551  0.3785
    1WF      WF60654  22.195  18.701   1.562  0.2609  0.0781 -0.3898
    1WF      WF60655  13.667  22.979   9.197  0.6191  0.0280  0.0087
    1WF      WF60656  10.829  26.071  10.112 -0.0628  0.1911 -0.1016
    1WF      WF60657  27.964  11.076   1.438 -0.1627 -0.0137  0.2449
    1WF      WF60658  22.615   4.692   0.891 -0.2019  0.0863 -0.6527
    1WF      WF60659   3.304  16.109   1.457 -0.0865  0.0082 -0.0076
    1WF      WF60660  24.984   6.807   9.735 -0.0912 -0.0174 -0.2398
    1WF      WF60661  10.478  17.653   8.143 -0.0595 -0.0168  0.0789
    1WF      WF60662   5.475  22.176   9.022  0.0677  0.1198 -0.1511
    1WF      WF60663  17.764  19.835   1.162 -0.4873 -0.3659  0.2848
    1WF      WF60664   1.292  15.577  10.246 -0.1718 -0.1252 -0.3174
    1WF      WF60665  16.921  25.350   0.692  0.1255 -0.0745  0.2476
    1WF      WF60666  26.148  22.692   8.858 -0.0486  0.5419  0.0843
    1WF      WF60667  23.086   2.973   1.322 -0.0093  0.0266  0.2551
    1WF      WF60668  12.267   6.296   1.583  0.0832 -0.1181  0.0212
    1WF      WF60669  20.423  13.362   1.121  0.3165 -0.0610  0.0021
    1WF      WF60670   8.326  18.864   0.766 -0.1223  0.1365  0.0452
    1WF      WF60671  22.404  18.052   9.251  0.0652 -0.0676 -0.1722
    1WF      WF60672   5.235   8.941   6.627  0.1355  0.0170  0.2053
    1WF      WF60673   6.050  24.510   8.994  0.0491  0.2968 -0.2776
    1WF      WF60674  17.703  13.709   9.311  0.1833 -0.0189  0.1419
    1WF      WF60675  12.375  23.991   0.643 -0.1478 -0.0895 -0.2022
    1WF      WF60676  27.872   8.462   8.469 -0.1901  0.1177  0.2173
    1WF      WF60677  22.089  11.949   1.340 -0.0114  0.0223  0.1437
    1WF      WF60678  26.682  10.221   7.252  0.1758 -0.1207  0.0032
    1WF      WF60679   5.862  28.004   8.376 -0.0132 -0.1530  0.0676
    1WF      WF60680  20.750   7.886   9.361 -0.1844 -0.1019  0.1467
    1WF      WF60681  10.151  27.471   0.028 -0.1136  0.0128  0.2397
    1WF      WF60682   1.623  15.891   7.863 -0.0207 -0.0703 -0.0536
    1WF      WF60683  12.406  13.388   4.486 -0.3239  0.2465  0.0724
    1WF      WF60684   8.466  25.296   0.540 -0.0783  0.0463  0.2072
    1WF      WF60685  23.304   2.679   8.122  0.0793 -0.6602  0.2447
    1WF      WF60686  15.726   6.326   9.985 -0.0742 -0.0161  0.0307
    1WF      WF60687  20.502   1.648  10.310 -0.2017 -0.3846 -0.2542
    1WF      WF60688  24.620  12.530   9.222 -0.0446 -0.1871 -0.0962
    1WF      WF60689   4.648   2.674   8.056  0.0171  0.1076  0.0477
    1WF      WF60690  11.860   2.594   2.082 -0.2216 -0.0080 -0.2631
    1WF      WF60691  27.511  22.301   8.948  0.0927  0.1535  0.1521
    1WF      WF60692   8.696  23.258   3.537 -0.0227 -0.0788 -0.1571
    1WF      WF60693  16.841  19.032  10.306 -0.0415  0.0008  0.2956
    1WF      WF60694   5.451  27.705   0.201  0.3088 -0.1013  0.0717
    1WF      WF60695  14.166  11.367   2.166  0.2704  0.0724  0.1248
    1WF      WF60696  21.351   4.304   6.152  0.3517 -0.1995 -0.0895
    1WF      WF60697   2.156  17.104   9.824  0.1665  0.0174  0.1111
    1WF      WF60698   5.366  15.605   1.708  0.1100 -0.1081  0.2688
    1WF      WF60699  27.658   7.347   8.333 -0.2950  0.3816  0.1181
    1WF      WF60700  17.181  26.316   1.900  0.0652  0.0115  0.1563
    1WF      WF60701  23.517  23.639   8.104  0.0783 -0.0864 -0.3748
    1WF      WF60702   4.580  24.664   9.957  0.0417  0.3902  0.2873
    1WF      WF60703  18.767   6.149   1.225  0.1026 -0.2414  0.1478
    1WF      WF60704   3.068   9.853   8.111 -0.2620 -0.2002 -0.2040
    1WF      WF60705  19.911  12.447  10.176  0.1118  0.0190  0.2067
    1WF      WF60706  13.719  13.478   0.567  0.0605  0.5071  0.0810
    1WF      WF60707   2.916  21.363   9.618  0.3430  0.5287 -0.0059
    1WF      WF60708   1.104  18.397   0.657  0.0577  0.0818  0.1402
    1WF      WF60709  23.273   2.070   9.965 -0.3283  0.0814 -0.1865
    1WF      WF60710  18.307  17.833   1.065  0.0568  0.0239  0.1738
    1WF      WF60711  11.576  14.735   0.504  0.0286 -0.0355  0.0582
    1WF      WF60712   4.309  21.903  10.272 -0.1884 -0.0161  0.1511
    1WF      WF60713   5.756  15.934  10.244  0.0518 -0.1208 -0.0836
    1WF      WF60714  11.571   9.437   1.046  0.0302  0.0766 -0.1738
    1WF      WF60715   9.609  13.702   8.267  0.2399  0.0096  0.2521
    1WF      WF60716  14.098   2.493   9.529  0.2826  0.2356  0.0642
    1WF      WF60717  13.337   9.277   9.133  0.3335 -0.1418  0.1375
    1WF      WF60718  16.503  26.768  10.040  0.0950 -0.0225 -0.2837
    1WF      WF60719  23.102   4.437   8.994 -0.1262 -0.1313  0.1024
    1WF      WF60720  21.511   2.389   2.586 -0.0217  0.2747 -0.0714
    1WF      WF60721   7.753   6.355   1.869  0.0613  0.2945  0.2638
    1WF      WF60722  24.409  24.507   3.881 -0.0277  0.1048 -0.1604
    1WF      WF60723   5.450  19.497   0.382  0.0987 -0.2595 -0.1480
    1WF      WF60724   2.895  22.340   1.129 -0.0876 -0.1143 -0.2629
    1WF      WF60725  19.868  28.055   8.333 -0.0354 -0.2125 -0.2306
    1WF      WF60726  20.267  25.974   2.645  0.3027 -0.2682 -0.1143
    1WF      WF60727  13.054   9.923   1.587 -0.0815  0.0928  0.0356
    1WF      WF60728  21.921  11.755   0.857 -0.1366 -0.2597  0.2083
    1WF      WF60729  23.517   1.107   1.621 -0.2389  0.0700 -0.0600
    1WF      WF60730  27.064   6.752   6.309  0.2622 -0.1161  0.0311
    1WF      WF60731  17.862  22.369   8.198  0.0194 -0.1922 -0.0732
    1WF      WF60732  13.852   6.880   9.198  0.1206 -0.3080 -0.0215
    1WF      WF60733   9.464   7.888   1.445 -0.0838  0.2673 -0.3275
    1WF      WF60734   5.320   3.149   0.028 -0.1584 -0.1708 -0.1286
    1WF      WF60735  14.531  22.305   0.104 -0.2026  0.1440  0.0434
    1WF      WF60736  12.706  16.666   1.510  0.0603 -0.3271  0.0602
    1WF      WF60737  24.655  23.788   7.292 -0.3362  0.2079 -0.0339
    1WF      WF60738   0.829   5.954   7.538 -0.1316  0.1882  0.0986
    1WF      WF60739   4.424  23.405   7.940  0.2672 -0.1600 -0.0786
    1WF      WF60740  16.789   6.191   2.515 -0.0850 -0.1671  0.0591
    1WF      WF60741  18.701  21.268   0.115  0.1233  0.1205 -0.3967
    1WF      WF60742   1.751  18.374   8.490 -0.2263  0.0558  0.2881
    1WF      WF60743  18.341   2.195   1.986 -0.1939  0.3231 -0.3753
    1WF      WF60744   1.494   3.236   8.681  0.0258 -0.0904 -0.3179
    1WF      WF60745  19.654   4.163   9.914  0.1122 -0.0950  0.0020
    1WF      WF60746   5.069   3.991   9.059  0.2331  0.2540  0.2214
    1WF      WF60747  19.501  18.626  10.322  0.2110  0.1783  0.4471
    1WF      WF60748   6.773   1.799   0.217  0.2132 -0.1153 -0.1974
    1WF      WF60749  17.365   2.288   9.638 -0.0511  0.1317  0.0173
    1WF      WF60750  16.850  21.983   8.947  0.0507 -0.1183 -0.0341
    1WF      WF60751   1.813   0.830   0.692 -0.0010  0.0107 -0.0938
    1WF      WF60752  16.370  23.070   0.301  0.1651 -0.0106  0.0411
    1WF      WF60753  16.406  18.820  10.286  0.0072  0.1854 -0.1227
    1WF      WF60754  14.926  25.217   1.723  0.0392  0.2601 -0.2475
    1WF      WF60755  16.357  10.425   8.454 -0.0118  0.1661 -0.2200
    1WF      WF60756  14.343  12.270   1.071  0.4314 -0.1496  0.1044
    1WF      WF60757  19.560  23.726   8.648 -0.0242  0.1697 -0.0298
    1WF      WF60758  19.084  24.258   9.730  0.0481 -0.1900 -0.2904
    1WF      WF60759  27.367  14.497   1.236  0.1955  0.0859  0.2578
    1WF      WF60760  18.815   1.553   1.981 -0.4172  0.2794  0.2112
    1WF      WF60761   4.939   5.837   1.192 -0.0786  0.2788  0.3063
    1WF      WF60762   0.078   7.306   8.398  0.0972 -0.1931 -0.1309
    1WF      WF60763  17.201  19.724   1.007  0.1491  0.1823  0.2186
    1WF      WF60764  24.336   4.797   0.211 -0.1195  0.0274  0.0367
    1WF      WF60765  20.892   4.818   3.061  0.0276 -0.3391 -0.1178
    1WF      WF60766  25.226   1.800   9.634 -0.1115 -0.0971 -0.1715
    1WF      WF60767  22.000   7.692   8.191  0.0638  0.3427 -0.3025
    1WF      WF60768   2.243  17.451   1.408  0.0791 -0.1906 -0.1813
    1WF      WF60769  21.868  22.210   8.000  0.0005  0.1058  0.0312
    1WF      WF60770  18.785  24.099   9.396  0.4404 -0.0416  0.1769
    1WF      WF60771   1.162  24.031   9.867  0.0106  0.1367 -0.1989
    1WF      WF60772  14.743  13.732  10.001  0.2884 -0.1344  0.1214
    1WF      WF60773   7.206  12.086   2.032  0.1322  0.0393 -0.0126
    1WF      WF60774   9.037   0.996   8.990 -0.2208  0.1244 -0.1183
    1WF      WF60775   5.532  16.324   8.699  0.2224 -0.3114 -0.0311
    1WF      WF60776   7.089  16.678   2.658 -0.0822 -0.0420  0.1808
    1WF      WF60777  12.680  12.636   9.100 -0.0288 -0.2253 -0.1961
    1WF      WF60778  26.809  20.645   1.950 -0.2515  0.0003 -0.1408
    1WF      WF60779  23.741  13.404   7.773 -0.2757 -0.2225  0.1528
    1WF      WF60780  17.368   0.226   9.164 -0.1172  0.3823 -0.1624
    1WF      WF60781  25.416  25.264  10.340 -0.0123  0.0864 -0.0979
    1WF      WF60782  13.270  21.671   1.221  0.0982 -0.2322 -0.3126
    1WF      WF60783  15.678   4.707   2.334 -0.0826 -0.0476 -0.0902
    1WF      WF60784  15.400   1.078   8.329  0.0685 -0.1434  0.3912
    1WF      WF60785  20.327   5.593   9.368 -0.2145  0.1764 -0.1974
    1WF      WF60786   7.415   1.185   9.480  0.1818  0.1823 -0.0466
    1WF      WF60787  20.194  24.728   9.263  0.1882  0.0045 -0.0765
    1WF      WF60788   4.511  15.891   8.100  0.0546 -0.1043 -0.1821
    1WF      WF60789  16.833   9.542   2.685  0.2739 -0.1808 -0.3887
    1WF      WF60790  10.427  21.618   1.640 -0.0365  0.0724 -0.2051
    1WF      WF60791  21.960   1.244   8.738 -0.1731 -0.1908  0.1820
    1WF      WF60792  22.490   3.893  10.153  0.2098 -0.1645 -0.2765
    1WF      WF60793  21.905  17.804   9.066 -0.0310 -0.1834 -0.2420
    1WF      WF60794   9.960  13.709   2.306 -0.2191 -0.0070  0.0524
    1WF      WF60795   8.268   7.334   1.417  0.0453 -0.2523 -0.5093
    1WF      WF60796   1.315  21.370   8.198  0.1378 -0.0078  0.0133
    1WF      WF60797   2.125   2.370   0.493  0.0842  0.0482 -0.1461
    1WF      WF60798  15.907   4.979   1.975  0.0082  0.3988  0.2059
    1WF      WF60799  13.923  25.266   1.753  0.2241 -0.1470  0.1643
    1WF      WF60800  18.958   3.534   9.999 -0.4785 -0.0356 -0.1218
    1WF      WF60801   5.777   5.645   9.132  0.0771 -0.2398  0.3345
    1WF      WF60802  15.398  23.253   1.874 -0.0255  0.0265 -0.1089
    1WF      WF60803   9.945  14.028   1.957  0.3270 -0.0301  0.0629
    1WF      WF60804  22.594   0.745   9.726  0.1414 -0.2767 -0.1741
    1WF      WF60805  21.046  13.003   8.732 -0.3491 -0.1117  0.1214
    1WF      WF60806  22.825  10.694   2.120  0.0137  0.0753 -0.0312
    1WF      WF60807  24.901  22.732   8.448 -0.2549  0.0843 -0.0685
    1WF      WF60808  19.596  13.723   0.660 -0.0340 -0.3428  0.1160
    1WF      WF60809  20.049   1.591   8.570  0.0981  0.1072 -0.0351
    1WF      WF60810  16.516  12.008  10.066 -0.2744 -0.2654 -0.2307
    1WF      WF60811  14.907   5.748   8.880  0.0314  0.2174  0.0155
    1WF      WF60812   0.944  18.973   2.747  0.1993  0.3344  0.1065
    1WF      WF60813  20.026   2.168   3.613  0.3202 -0.1834  0.3216
    1WF      WF60814   1.780   4.192   8.959 -0.2342 -0.0987  0.1178
    1WF      WF60815  24.164  12.931  10.232 -0.0080 -0.1004 -0.0291
    1WF      WF60816  22.313   2.100   9.247  0.2498 -0.0483  0.1764
    1WF      WF60817   8.965   4.708   2.796 -0.1159 -0.0472 -0.1315
    1WF      WF60818   6.386  17.975  10.149 -0.0244  0.1553 -0.0701
    1WF      WF60819  21.184   3.940   1.594 -0.0724 -0.1213 -0.1472
    1WF      WF60820   8.610  13.622   1.589  0.1108  0.2651 -0.0515
    1WF      WF60821  10.666  14.659   2.660 -0.0671 -0.2656 -0.0923
    1WF      WF60822  13.123   2.576   0.553 -0.2276 -0.0109 -0.0706
    1WF      WF60823   7.137   3.930   9.987  0.0485 -0.0726  0.1362
    1WF      WF60824  10.609  27.852   1.354  0.1299  0.1208 -0.0263
    1WF      WF60825   4.920  22.303   8.841  0.2006 -0.1117  0.1445
    1WF      WF60826   3.768  21.174  10.219  0.2314  0.3184 -0.0143
    1WF      WF60827  24.206   1.444   8.884  0.0628 -0.1604 -0.1984
    1WF      WF60828  22.805  22.482  10.055 -0.2199  0.1837 -0.0866
    1WF      WF60829  24.527  13.266  10.129 -0.2959  0.0249 -0.1627
    1WF      WF60830   4.512  25.248   1.410 -0.0586 -0.0200 -0.3118
    1WF      WF60831  26.059  26.070   9.989  0.0726 -0.1182  0.0799
    1WF      WF60832  18.838  23.172  10.023 -0.1612  0.2071  0.3642
    1WF      WF60833  24.185  19.655  10.150 -0.1139  0.0304  0.0413
    1WF      WF60834  20.802  18.577   1.021 -0.1640  0.0538 -0.1992
    1WF      WF60835   9.653   8.843   8.923 -0.0995 -0.5216 -0.1098
    1WF      WF60836   5.969  20.793   1.650 -0.2589  0.3368  0.1078
    1WF      WF60837   6.275  22.124   1.496  0.0549 -0.1244  0.1175
    1WF      WF60838  21.686  11.146   9.289  0.1233 -0.1596  0.2546
    1WF      WF60839  13.025   2.956   8.706  0.0971  0.1277  0.0625
    1WF      WF60840   6.269  13.770   0.514 -0.0582  0.1278  0.1025
    1WF      WF60841  18.778  18.825   7.957  0.0606  0.3115 -0.1796
    1WF      WF60842  20.457   3.879   1.472  0.0311 -0.1892 -0.2883
    1WF      WF60843   8.427   9.707   0.869 -0.0563  0.2353 -0.6184
    1WF      WF60844   9.135  10.791   8.699  0.2206 -0.1010 -0.1656
    1WF      WF60845  26.806   3.436   8.981  0.0691 -0.0560 -0.1585
    1WF      WF60846   5.663  24.375   0.290 -0.1918 -0.2000  0.3289
    1WF      WF60847   3.609  19.432   1.350 -0.1118  0.1346  0.0599
    1WF      WF60848  17.709   4.294   9.274  0.2727  0.1024  0.2725
    1WF      WF60849  13.408  19.883   9.664 -0.2983  0.0987  0.1356
    1WF      WF60850   3.983  17.060   0.394  0.1856 -0.1021  0.0673
    1WF      WF60851  20.117  22.424  10.173 -0.1769  0.0033  0.0393
    1WF      WF60852  21.548  11.644   9.293 -0.0783  0.3671  0.0070
    1WF      WF60853  23.568  25.153   8.136 -0.1916  0.1584 -0.2217
    1WF      WF60854  21.670  10.872   8.260  0.1913 -0.0950  0.2015
    1WF      WF60855   6.805  23.046   8.561  0.0169 -0.0745 -0.2126
    1WF      WF60856  14.240   7.200   9.218 -0.1343  0.2601 -0.0280
    1WF      WF60857  27.666  11.579   3.245  0.3312  0.1459  0.3015
    1WF      WF60858  27.093   5.546   7.358  0.0282 -0.0462  0.0864
    1WF      WF60859  23.054  13.100   2.122  0.2256 -0.2146 -0.0528
    1WF      WF60860  20.621  22.249  10.230 -0.0129 -0.0304 -0.2912
    1WF      WF60861   0.730  22.221   9.836  0.1684  0.2165 -0.0396
    1WF      WF60862   4.945  26.474   0.887 -0.1901 -0.0759 -0.2218
    1WF      WF60863   2.828  14.163  10.083 -0.0330 -0.2025  0.2127
    1WF      WF60864  13.774  23.006   7.528  0.1170 -0.4162  0.0382
    1WF      WF60865   4.419  26.780   8.929 -0.0122 -0.0769 -0.0311
    1WF      WF60866  19.434  22.239   9.183 -0.0175 -0.2189  0.1322
    1WF      WF60867  14.570  22.693   0.468 -0.0580  0.2191  0.1908
    1WF      WF60868  27.085  20.862   0.024  0.1782  0.2065  0.2884
    1WF      WF60869  18.690  12.538   8.232  0.2014 -0.2947  0.5282
    1WF      WF60870  14.067  14.278   0.775  0.1342 -0.2944  0.1559
    1WF      WF60871  24.920   8.721   2.700  0.0250 -0.2082 -0.0990
    1WF      WF60872  13.355   9.798   2.034 -0.0427  0.1225 -0.0194
    1WF      WF60873  10.230  21.685   2.119 -0.2006 -0.2113 -0.0952
    1WF      WF60874   6.927  16.043   2.820 -0.0552 -0.0743  0.0086
    1WF      WF60875   8.074  26.472   8.191  0.0234  0.0170  0.0449
    1WF      WF60876  27.889   8.455   9.946 -0.1605 -0.1886  0.0672
    1WF      WF60877  17.964  26.004   0.308 -0.0577  0.1721  0.0876
    1WF      WF60878  22.805   0.545   2.329  0.0459 -0.1158  0.0156
    1WF      WF60879  20.400   3.815   8.898  0.1660 -0.1328  0.2718
    1WF      WF60880   3.561  23.455   9.050  0.0297 -0.1639  0.4119
    1WF      WF60881   4.909   6.625   0.265  0.1165 -0.1046 -0.0219
    1WF      WF60882   6.474  24.804   1.085 -0.2031 -0.4146  0.0902
    1WF      WF60883  19.903  14.093   3.640 -0.0177  0.1669  0.0016
    1WF      WF60884  16.949   2.711   7.484  0.1430 -0.0360  0.3049
    1WF      WF60885   9.201   4.718  10.295  0.2575  0.0388 -0.0403
    1WF      WF60886  27.183  19.405   7.638  0.2004 -0.1065  0.0669
    1WF      WF60887   2.977  13.849   8.924 -0.2738  0.3478  0.3274
    1WF      WF60888  10.232   1.418   8.360  0.1510  0.0360  0.3802
    1WF      WF60889   7.823  17.991   0.221 -0.2113  0.1260 -0.0969
    1WF      WF60890  24.820  10.354   6.985 -0.0469 -0.4132  0.0940
    1WF      WF60891  17.489  24.516   1.614 -0.1097 -0.4213 -0.1886
    1WF      WF60892  14.771  12.302   9.269 -0.1789  0.3055 -0.0676
    1WF      WF60893   8.422  14.821   0.822 -0.0513 -0.0724  0.0148
    1WF      WF60894  12.115  27.596   0.836  0.0017  0.1595  0.3074
    1WF      WF60895  15.949  14.272  10.332 -0.0425 -0.1944 -0.1278
    1WF      WF60896  22.598  19.821   0.795  0.2622  0.2322  0.1871
    1WF      WF60897  12.122  13.266   0.638 -0.1055 -0.2247 -0.0470
    1WF      WF60898  27.519   8.849   0.931  0.2093  0.0532  0.1533
    1WF      WF60899  11.583   9.469   9.831 -0.2181  0.2636 -0.0402
    1WF      WF60900  10.747  26.581   1.190  0.2953  0.0630 -0.1541
    1WF      WF60901  27.502  11.432   8.419  0.1411 -0.1817 -0.0917
    1WF      WF60902  12.209   4.186   1.130 -0.0138 -0.2639 -0.3673
    1WF      WF60903  19.316  20.353   3.878  0.1393  0.1473 -0.1667
    1WF      WF60904  18.634  20.740   0.086 -0.0371  0.1432  0.0663
    1WF      WF60905   6.022  18.727   9.325  0.1848 -0.0019 -0.2649
    1WF      WF60906  19.591   7.902   1.683 -0.1939 -0.0451  0.0935
    1WF      WF60907   8.722  14.128   0.700  0.0321  0.4250  0.0120
    1WF      WF60908   2.895   2.296   7.490 -0.1419 -0.1432  0.4225
    1WF      WF60909   8.603   4.011  10.247  0.0651  0.0119 -0.0481
    1WF      WF60910  19.514  13.951   0.188 -0.0110  0.1402  0.1007
    1WF      WF60911  27.711  10.747   9.349 -0.0946 -0.0002 -0.0112
    1WF      WF60912  14.298   8.425   2.296 -0.1767  0.0874 -0.2091
    1WF      WF60913   5.014   9.944   8.720  0.2638 -0.2332  0.1615
    1WF      WF60914   4.577   1.167  10.192  0.0227  0.0110  0.0876
    1WF      WF60915  17.962  15.766   2.298  0.0950 -0.4532  0.0000
    1WF      WF60916   9.601  26.969   2.226  0.2221  0.2169  0.1690
    1WF      WF60917   1.163  10.567  10.257  0.2325  0.1437  0.3938
    1WF      WF60918   3.803  11.724   7.061 -0.2292  0.5707 -0.2907
    1WF      WF60919  14.839  23.033   1.718  0.0666 -0.2440 -0.2373
    1WF      WF60920  25.418  27.273   2.822 -0.2972  0.0667  0.2931
    1WF      WF60921  22.835  23.820   0.655  0.1982  0.1959 -0.3971
    1WF      WF60922  24.615  17.237   3.665 -0.0771 -0.1582 -0.0989
    1WF      WF60923   5.958   5.060   0.779  0.2711  0.0173  0.1231
    1WF      WF60924   3.640  15.500   0.014 -0.0248  0.1007  0.1112
    1WF      WF60925  10.000   8.272   1.859  0.0813  0.0187 -0.0496
    1WF      WF60926  10.474  19.264   9.883  0.0774  0.2617  0.0256
    1WF      WF60927  26.062   2.183   6.441  0.0961 -0.0976  0.2435
    1WF      WF60928  26.263  12.408   9.522  0.2947  0.0280  0.0700
    1WF      WF60929   9.796   9.509   0.674  0.3382  0.3096 -0.2689
    1WF      WF60930  24.805  26.625   1.500  0.1488  0.0137  0.2686
    1WF      WF60931  21.574  25.647   7.354  0.0787  0.0602  0.1427
    1WF      WF60932  14.619  25.650   9.677 -0.2451 -0.0026 -0.0062
    1WF      WF60933  11.555   4.389  10.085 -0.1134  0.1837  0.0988
    1WF      WF60934  20.803   2.199   6.533  0.1377 -0.1190 -0.2414
    1WF      WF60935  13.289   6.934  10.235 -0.0556 -0.1168 -0.0560
    1WF      WF60936   4.127   9.899   0.838 -0.1599 -0.0078  0.0415
    1WF      WF60937   7.354  26.946   0.968 -0.2293  0.1254  0.2498
    1WF      WF60938  21.523   5.791   9.218  0.1553 -0.2618 -0.1617
    1WF      WF60939   8.889  25.972   9.573 -0.2966  0.2749  0.1738
    1WF      WF60940   9.843  16.359   8.101 -0.1359  0.2507  0.1139
    1WF      WF60941   6.247   6.490   8.393 -0.3122  0.3839 -0.0593
    1WF      WF60942  17.313   0.384  10.047 -0.0512 -0.3402  0.0636
    1WF      WF60943   3.738  19.840   3.241 -0.1690 -0.0056  0.0043
    1WF      WF60944   9.889  11.436   2.453 -0.0401 -0.1163  0.2170
    1WF      WF60945   2.696   9.171   1.750  0.2251  0.3336  0.0753
    1WF      WF60946   2.114  15.816   1.849  0.0472 -0.0424 -0.1839
    1WF      WF60947   3.016  19.769   6.315  0.0480 -0.1112 -0.3329
    1WF      WF60948  25.150  27.405   2.399 -0.0493  0.2056 -0.2924
    1WF      WF60949  21.725   0.537  10.005 -0.1746  0.0973 -0.0663
    1WF      WF60950  19.641   9.869   2.148 -0.1288  0.4121 -0.4559
    1WF      WF60951   1.030  16.562   1.229 -0.0854  0.2802  0.0321
    1WF      WF60952   3.113  23.551   0.621  0.0391 -0.4472 -0.0585
    1WF      WF60953  25.178  28.106   8.336  0.2151  0.1083 -0.0115
    1WF      WF60954  10.484  21.822   1.159  0.0087  0.0223 -0.2400
    1WF      WF60955  14.961   5.246   9.013  0.2476 -0.0146  0.1445
    1WF      WF60956  22.838  14.262   6.420 -0.0397 -0.0996  0.0525
    1WF      WF60957  27.402   6.469  10.094 -0.0997  0.0668 -0.1318
    1WF      WF60958  16.624  14.949   9.108 -0.2033 -0.3870  0.1431
    1WF      WF60959   0.817  10.410   1.837 -0.1880  0.1021  0.0891
    1WF      WF60960  15.503  14.064   0.144 -0.0903 -0.1680  0.2343
    1WF      WF60961  25.078   2.186   1.851  0.2680 -0.1019  0.0956
    1WF      WF60962   0.374   0.934   7.008 -0.4242  0.0406  0.0929
    1WF      WF60963   3.466  23.423   9.683  0.0986 -0.0954 -0.0700
    1WF      WF60964  19.099  20.300   8.890  0.1082  0.1783  0.2437
    1WF      WF60965  24.785  17.829   8.787  0.0770  0.2932 -0.0668
    1WF      WF60966  13.613  18.630   7.522 -0.0631  0.2695  0.2055
    1WF      WF60967  15.087   1.777   9.895  0.2201 -0.4794 -0.2547
    1WF      WF60968  20.164  26.401   2.507 -0.1966 -0.1737  0.2270
    1WF      WF60969  24.544  26.411   1.128 -0.3599  0.1617  0.1507
    1WF      WF60970  22.652  15.085   8.652  0.1909 -0.2717 -0.0825
    1WF      WF60971   0.277  12.849   8.211 -0.0134  0.0846  0.0279
    1WF      WF60972  14.993  16.326   1.698  0.2090  0.1171  0.0005
    1WF      WF60973  16.162  10.063   8.255 -0.0361 -0.0756  0.2030
    1WF      WF60974  24.723  15.146   9.324  0.2631  0.1102  0.3037
    1WF      WF60975  12.851  25.552   0.726 -0.1872  0.3814  0.2894
    1WF      WF60976   8.736  13.260  10.302  0.0280  0.1918  0.1965
    1WF      WF60977   0.352  14.228   0.714 -0.0123 -0.2956  0.0864
    1WF      WF60978  26.639  24.069   6.809  0.0899  0.2299 -0.0896
    1WF      WF60979  16.378  14.267   9.450 -0.2164  0.0397  0.1712
    1WF      WF60980  17.371  14.294   3.138 -0.4263 -0.2128 -0.2442
    1WF      WF60981  10.365  20.659   0.242  0.2006 -0.0704 -0.1429
    1WF      WF60982  21.173  20.155   9.995 -0.0023 -0.1875 -0.1488
    1WF      WF60983   8.672  27.259   9.292  0.2211  0.0474  0.0190
    1WF      WF60984   0.215   7.461   0.805  0.2452  0.3146  0.2314
    1WF      WF60985  15.960  24.741   0.620 -0.0474 -0.0794  0.1349
    1WF      WF60986  23.081   7.827   0.834 -0.3176  0.0131  0.2411
    1WF      WF60987  20.536  17.348   9.022  0.2291  0.2114 -0.3702
    1WF      WF60988  22.456   6.621   6.629  0.1044 -0.3128 -0.2112
    1WF      WF60989  14.596  25.039   3.575  0.1120 -0.0361 -0.1266
    1WF      WF60990  23.403  13.299   1.807 -0.0297 -0.2755 -0.1787
    1WF      WF60991   6.295  18.225   1.829 -0.0165  0.0151  0.2423
    1WF      WF60992  12.448   8.942   1.670 -0.2152  0.0389 -0.0918
    1WF      WF60993  20.514  25.208   6.860 -0.0328  0.2633  0.0990
    1WF      WF60994   2.698  24.056   8.475  0.0985 -0.2851 -0.1298
    1WF      WF60995   9.123   3.635   1.624  0.0645 -0.1395  0.2112
    1WF      WF60996  25.300   3.975   8.085 -0.0893 -0.0728  0.1211
    1WF      WF60997   7.836  12.582   1.785 -0.0474  0.3162  0.1309
    1WF      WF60998  10.137   7.454   9.811  0.0070 -0.3158 -0.2544
    1WF      WF60999  25.052  21.267   8.121  0.0753 -0.0657 -0.0110
    1WF      WF61000   7.826   3.327   1.973 -0.0867  0.0398 -0.2081
    1WF      WF61001  14.936   8.495   2.441  0.0115 -0.1934  0.0164
    1WF      WF61002  25.213  18.550   8.531 -0.0162  0.0955  0.1194
    1WF      WF61003  23.005   2.523  10.132 -0.1804  0.1743  0.2420
    1WF      WF61004   6.782  24.012   1.488 -0.0570  0.2493 -0.0018
    1WF      WF61005  12.678  26.568   3.003  0.0805 -0.2785 -0.1226
    1WF      WF61006  15.164  15.302   0.443 -0.1315  0.2200  0.1276
    1WF      WF61007   5.203  10.295   8.411 -0.0164 -0.4511  0.2145
    1WF      WF61008  20.805  10.004   8.307  0.0915 -0.0937  0.0055
    1WF      WF61009  27.191   2.410   9.683 -0.1004  0.2185  0.2050
    1WF      WF61010  19.016  12.745   9.442  0.0580 -0.2035  0.0112
    1WF      WF61011   4.164  26.859   1.059  0.0301  0.1653  0.0070
    1WF      WF61012  26.622  17.094   9.065  0.0223  0.0281 -0.1362
    1WF      WF61013   2.158   0.002   7.765 -0.2728 -0.0557 -0.1106
    1WF      WF61014  11.776  25.404   8.435  0.1231  0.0615 -0.0170
    1WF      WF61015   1.458  24.928   8.114  0.2925  0.2388  0.0067
    1WF      WF61016  20.312   8.576   8.877  0.0822 -0.0443 -0.2350
    1WF      WF61017   6.190  24.024   9.104  0.0854 -0.0967  0.3038
    1WF      WF61018  24.420  13.106   0.309  0.5387  0.1836 -0.0851
    1WF      WF61019   1.533  16.741  10.033  0.1569  0.0909  0.0280
    1WF      WF61020   4.711   1.575   8.596  0.0823  0.0643 -0.0127
    1WF      WF61021  27.918   7.970  10.024  0.3479  0.1411  0.0252
    1WF      WF61022   5.181  19.112   0.149 -0.0071  0.2789  0.1907
    1WF      WF61023   0.292  13.870   9.039 -0.2773 -0.0590 -0.3820
    1WF      WF61024  16.971   1.519   2.132 -0.2617 -0.1228  0.0346
    1WF      WF61025  27.247  11.376  10.032 -0.0848 -0.2144  0.1563
    1WF      WF61026  20.758   1.559   9.865 -0.3946  0.0611 -0.2546
    1WF      WF61027  16.866  12.329   1.862 -0.0109  0.1764  0.0529
    1WF      WF61028   7.204   7.328   0.044  0.3692 -0.0339  0.2982
    1WF      WF61029   9.733   7.838   0.999  0.0871  0.1061 -0.1644
    1WF      WF61030  15.384   2.915   0.558  0.1765 -0.0773 -0.0329
    1WF      WF61031   0.283   8.872   7.859 -0.1651 -0.1591  0.1987
    1WF      WF61032  23.972   0.819   1.673 -0.0409 -0.2562  0.0088
    1WF      WF61033   8.855   4.405  10.080 -0.0244 -0.0146 -0.0128
    1WF      WF61034  17.273  25.063   8.722  0.2266  0.2664 -0.0909
    1WF      WF61035  26.445  17.541   9.074 -0.3118 -0.1051 -0.2625
    1WF      WF61036   1.280  11.983   6.699  0.0914  0.2985 -0.0165
    1WF      WF61037   7.755   0.721   8.047  0.0315 -0.2112 -0.3334
    1WF      WF61038   5.189   7.872   9.884  0.0958 -0.0307 -0.1647
    1WF      WF61039   6.626  24.779   0.067 -0.0222 -0.3439  0.0988
    1WF      WF61040  17.053   4.794   1.292  0.1379 -0.2839  0.3650
    1WF      WF61041   2.487  17.726   1.806 -0.1497  0.2329  0.1186
    1WF      WF61042  25.722  25.343   3.586 -0.0349 -0.0839  0.2017
    1WF      WF61043  19.773  11.654   9.788  0.1067  0.0656 -0.1428
    1WF      WF61044   5.560  19.785   0.779 -0.3361  0.0093  0.1300
    1WF      WF61045  12.619  24.877   9.434  0.0252  0.0184  0.1322
    1WF      WF61046  16.970  22.391   7.779 -0.1154  0.1396  0.0016
    1WF      WF61047  25.767  14.638   2.337  0.1497 -0.0982  0.0789
    1WF      WF61048  18.086   9.039   0.858 -0.0671 -0.0065 -0.0966
    1WF      WF61049   4.596   0.150   8.321 -0.3480  0.2575  0.1110
    1WF      WF61050  16.546  17.339   2.138 -0.0172 -0.1814 -0.2540
    1WF      WF61051   4.412  17.675   3.216 -0.4138 -0.4180 -0.0986
    1WF      WF61052  17.926   2.409   2.205  0.1933  0.0425 -0.2817
    1WF      WF61053  15.037  16.005   8.448  0.1107  0.2606 -0.0608
    1WF      WF61054  25.750  20.667   1.212  0.0553  0.0426  0.0759
    1WF      WF61055  23.001   0.171   8.216 -0.2988  0.1510  0.1425
    1WF      WF61056  21.773  21.361   1.118  0.3123 -0.1143 -0.1411
    1WF      WF61057  13.048  25.011   1.646  0.1204 -0.1587  0.2322
    1WF      WF61058  15.856  14.702   8.658  0.0497 -0.0172  0.0678
    1WF      WF61059  13.141  16.021   0.031  0.2034  0.0493  0.0289
    1WF      WF61060  11.302   4.191   9.613 -0.2586  0.0203 -0.1668
    1WF      WF61061   1.309  25.644   9.239 -0.2778 -0.0605  0.3214
    1WF      WF61062  22.631  20.984   8.670  0.0900 -0.2450  0.2627
    1WF      WF61063   8.223  19.862   0.131  0.0199 -0.0739  0.0539
    1WF      WF61064   9.785   4.160   8.537 -0.1045  0.5596  0.1792
    1WF      WF61065   6.381  23.554   2.940  0.0436 -0.2623  0.0163
    1WF      WF61066   9.493   1.303   2.103  0.1677 -0.0379  0.0347
    1WF      WF61067  11.386  22.499   9.320 -0.0855  0.3952  0.1008
    1WF      WF61068   4.333   2.878   8.418  0.0117  0.1793 -0.1447
    1WF      WF61069  13.146  21.542   6.903  0.3559  0.2953  0.0412
    1WF      WF61070  24.852  21.827   0.598  0.5301  0.1597 -0.1685
    1WF      WF61071  26.574  23.376   9.067 -0.1412 -0.3034 -0.1589
    1WF      WF61072  27.027   1.747   0.962  0.2625  0.1576  0.2655
    1WF      WF61073   8.802  10.538   8.351 -0.1345 -0.2981 -0.0341
    1WF      WF61074  26.195  23.006   9.228 -0.1943  0.0224  0.1576
    1WF      WF61075  14.254   1.570   3.276  0.0140 -0.0474 -0.0308
    1WF      WF61076  22.302  25.496   9.644 -0.1729 -0.1371 -0.0863
    1WF      WF61077  10.543   1.192   2.707  0.0887 -0.0376  0.2206
    1WF      WF61078  27.194   3.711   6.936 -0.1507  0.1361  0.1875
    1WF      WF61079   0.069  26.128   8.142 -0.2280 -0.2127 -0.3026
    1WF      WF61080   8.049  25.746   1.337 -0.0161 -0.0465  0.3872
    1WF      WF61081  18.253  12.059   9.847  0.1542  0.2030 -0.0894
    1WF      WF61082  20.863  17.348   2.355  0.1870  0.0188  0.2929
    1WF      WF61083  11.073  14.297   8.410 -0.5851  0.2569  0.1014
    1WF      WF61084   1.599   2.398   9.408  0.0340 -0.1990  0.0726
    1WF      WF61085  24.948  26.954   0.452 -0.1098 -0.3602  0.1093
    1WF      WF61086  16.348  18.323   9.322  0.1366 -0.1055  0.4388
    1WF      WF61087  11.021  18.383   1.690 -0.6645 -0.1706 -0.2216
    1WF      WF61088  25.739   9.817   1.299 -0.2266 -0.1069 -0.0165
    1WF      WF61089  24.448  14.176   0.774 -0.2712 -0.2122  0.0198
    1WF      WF61090   1.265  23.770   9.369 -0.1128  0.1592 -0.3420
    1WF      WF61091  20.157   2.967   9.069 -0.0897 -0.2126  0.1664
    1WF      WF61092   4.930  19.120   4.231  0.2490  0.0605 -0.3364
    1WF      WF61093  19.165   6.213   8.106 -0.0700  0.0389  0.2490
    1WF      WF61094  22.583  15.246   8.201 -0.0868  0.3234  0.0112
    1WF      WF61095  14.967  23.340  10.071 -0.0526  0.0708  0.2025
    1WF      WF61096  12.130  14.586   0.843  0.5466 -0.2997  0.0252
    1WF      WF61097  12.933  14.712   1.663 -0.3202  0.3222  0.1976
    1WF      WF61098  23.013   6.798   0.915  0.1823 -0.0642 -0.0567
    1WF      WF61099  14.296  17.920  10.223  0.0490 -0.0172 -0.2790
    1WF      WF61100  16.557  18.741   9.201 -0.3509  0.0654  0.1514
    1WF      WF61101  18.614   0.896   0.255 -0.2088 -0.2365  0.1040
    1WF      WF61102   6.406   1.474   2.331 -0.1337 -0.2543  0.1296
    1WF      WF61103   0.935   1.969   8.076 -0.1008  0.4336  0.2022
    1WF      WF61104  23.869  16.096  10.361 -0.2969  0.1939 -0.1064
    1WF      WF61105  10.413  27.643   0.378  0.2439 -0.1689 -0.1289
    1WF      WF61106   8.721  11.154   1.939  0.1203 -0.0657  0.2379
    1WF      WF61107  14.101  11.312   2.635 -0.0500  0.1992  0.2730
    1WF      WF61108  25.321  21.656   0.471  0.1864  0.0261 -0.2448
    1WF      WF61109   5.050  22.249   0.002 -0.1016 -0.0597  0.1589
    1WF      WF61110  12.325  27.036   0.851 -0.1938 -0.1343  0.3072
    1WF      WF61111  21.931  13.616   1.244  0.0982 -0.1264 -0.1043
    1WF      WF61112  16.618  18.343  10.200 -0.1748  0.1792  0.1586
    1WF      WF61113  17.872  20.144   9.817 -0.2619 -0.1471  0.2543
    1WF      WF61114  21.497  10.782   3.176 -0.1567  0.0425 -0.2043
    1WF      WF61115   3.598   8.967   0.712 -0.2618 -0.1582 -0.2102
    1WF      WF61116   5.771  16.435   0.097 -0.0817  0.0326 -0.3764
    1WF      WF61117   8.472   2.029   9.817  0.0184 -0.0613 -0.1397
    1WF      WF61118  11.175  16.843   1.936 -0.2443 -0.1169 -0.2898
    1WF      WF61119  19.859   5.227   6.803  0.0292 -0.0720  0.0959
    1WF      WF61120  25.604  11.006   2.283  0.1629 -0.1701 -0.1417
    1WF      WF61121   8.834   7.071   8.322 -0.1503  0.0893  0.0535
    1WF      WF61122  22.021  27.464   8.736  0.1015 -0.1489  0.2344
    1WF      WF61123   5.132  27.656   1.098 -0.1526  0.3224  0.1548
    1WF      WF61124  20.764  22.778   3.552 -0.1773 -0.1151 -0.1095
    1WF      WF61125   6.946  10.308  10.298 -0.2443  0.0905  0.2711
    1WF      WF61126  27.857   5.731   9.246  0.0386  0.3323  0.1618
    1WF      WF61127   9.852   9.724   0.123 -0.0446  0.0336  0.0390
    1WF      WF61128  25.388  10.113   7.608  0.0227  0.0823  0.1416
    1WF      WF61129   8.123   1.750   9.614 -0.1058  0.1187  0.0295
    1WF      WF61130   6.100  10.885   0.294  0.1879  0.0084 -0.0920
    1WF      WF61131  21.804  27.932   9.168  0.0120  0.0181  0.0207
    1WF      WF61132  23.333   8.063   1.241  0.1096  0.1737 -0.0539
    1WF      WF61133   7.350  11.672   8.818  0.1998 -0.3594 -0.1118
    1WF      WF61134   6.645  25.278   1.369 -0.0084 -0.2690  0.3500
    1WF      WF61135  10.447   7.821   9.800 -0.4432 -0.0342  0.1844
    1WF      WF61136  17.877  19.132   8.982 -0.2236  0.0541  0.0242
    1WF      WF61137   8.279  21.000   9.597 -0.3270  0.1144  0.0268
    1WF      WF61138   4.479   8.670   8.584  0.0256 -0.4279  0.4474
    1WF      WF61139  15.086  17.502   1.297 -0.1607  0.1823  0.0567
    1WF      WF61140   8.237  18.152   0.086  0.1528  0.1593 -0.0422
    1WF      WF61141  16.890  18.841   8.819 -0.0083  0.2217  0.1518
    1WF      WF61142  18.125  19.341   9.417 -0.1348  0.0034 -0.3061
    1WF      WF61143   4.209  18.868   9.464 -0.0542  0.1157 -0.1972
    1WF      WF61144  11.891   9.235   9.471 -0.1016  0.0800 -0.0680
    1WF      WF61145   8.415  11.993   2.338  0.0328 -0.0373  0.0525
    1WF      WF61146  20.832   4.757   0.044 -0.2895 -0.0539 -0.0458
    1WF      WF61147  19.571  27.200   9.735  0.0893 -0.0197 -0.1844
    1WF      WF61148   6.634  18.422  10.320 -0.2550  0.2353 -0.1677
    1WF      WF61149  17.523   2.041   1.353 -0.1813  0.0595 -0.0975
    1WF      WF61150  25.592  11.843   8.749  0.2195 -0.0557 -0.0989
    1WF      WF61151  18.279  12.205   8.953 -0.1646  0.1190 -0.0853
    1WF      WF61152  23.091   0.709   9.892  0.0581 -0.2553  0.0220
    1WF      WF61153   7.220   4.194   0.477 -0.0337  0.3183  0.0180
    1WF      WF61154  13.294  18.825   0.413 -0.0261  0.0574 -0.1533
    1WF      WF61155  18.948   9.034   2.469 -0.0923 -0.0373 -0.0439
    1WF      WF61156   5.435   7.294   7.132  0.1749  0.0702  0.0699
    1WF      WF61157  19.466  19.105  10.124 -0.0761  0.3400 -0.0002
    1WF      WF61158   4.929   1.934   8.883  0.0508 -0.3106 -0.0647
    1WF      WF61159   6.096  20.678  10.277  0.4159  0.0311 -0.0587
    1WF      WF61160  24.112   5.709   9.103 -0.0677 -0.0540 -0.1095
    1WF      WF61161  15.703  20.361   8.993 -0.0599  0.1059  0.0928
    1WF      WF61162   1.178  19.234   0.923 -0.0672 -0.1836  0.0210
    1WF      WF61163  14.786  17.862   1.364  0.0539 -0.1016  0.2608
    1WF      WF61164  23.287   1.570   1.694 -0.1530 -0.0970  0.1443
    1WF      WF61165  14.332  19.677   8.298 -0.0258  0.0483 -0.0626
    1WF      WF61166   0.380   4.189   7.451  0.0143 -0.0841  0.0915
    1WF      WF61167   2.457  26.084   1.111 -0.1001  0.0217 -0.2142
    1WF      WF61168  19.189   0.179   8.918  0.0938  0.2602  0.0133
    1WF      WF61169  23.620  26.701   0.030  0.2207 -0.1358  0.3528
    1WF      WF61170  19.350  21.781   8.950  0.0177  0.3155 -0.1037
    1WF      WF61171  21.771  14.085   7.691  0.1489 -0.0500  0.2290
    1WF      WF61172  12.016  12.050  10.063 -0.1497 -0.0659 -0.1402
    1WF      WF61173   5.819   8.233   9.177  0.0745 -0.0565 -0.2164
    1WF      WF61174  23.050  10.289   9.652 -0.0385 -0.1049  0.4613
    1WF      WF61175   5.025   9.015   1.656 -0.0393 -0.1183  0.1218
    1WF      WF61176  21.306  17.397   9.484 -0.1523  0.2874  0.1135
    1WF      WF61177  11.405   9.116   0.248  0.0409 -0.0674 -0.1409
    1WF      WF61178  23.090  26.216   7.786 -0.0890 -0.0142 -0.3086
    1WF      WF61179  14.390  23.409   8.357  0.4010  0.4460  0.0378
    1WF      WF61180  26.059  14.567   0.432 -0.0511 -0.3529  0.0439
    1WF      WF61181   6.139  26.882   0.327  0.1580 -0.1610 -0.0476
    1WF      WF61182  17.257  22.703   8.054 -0.1837  0.0949  0.1740
    1WF      WF61183   0.015   4.307  10.017 -0.3355  0.2157  0.0656
    1WF      WF61184  22.316   3.676   0.327  0.4824 -0.0446 -0.0281
    1WF      WF61185  24.582  13.568   0.193 -0.0531  0.0645  0.0054
    1WF      WF61186   3.640   7.072   1.549 -0.1179  0.4578 -0.2038
    1WF      WF61187  27.804  13.059   8.245  0.0723 -0.3223  0.0116
    1WF      WF61188  12.319  21.839   0.596 -0.0874  0.1438 -0.2447
    1WF      WF61189   0.227  17.973   0.714  0.0785  0.1399  0.1650
    1WF      WF61190  22.089   3.090   7.673  0.0672 -0.1312 -0.0398
    1WF      WF61191  27.071  24.918   7.480 -0.1667 -0.5005  0.1137
    1WF      WF61192   7.830  11.217   3.700 -0.2080 -0.2149 -0.4597
    1WF      WF61193  22.615  20.110   0.394 -0.0477 -0.0300  0.1616
    1WF      WF61194   3.185  20.145   8.016  0.0801 -0.2209 -0.1301
    1WF      WF61195  26.312  22.447   9.286  0.2764  0.1394 -0.1757
    1WF      WF61196  21.835   7.837   2.407 -0.3207 -0.0409 -0.2515
    1WF      WF61197  14.542  11.929   0.576 -0.3301 -0.0491 -0.1212
    1WF      WF61198  20.713  12.408   1.984 -0.0606  0.0369 -0.4279
    1WF      WF61199   7.363  12.089   7.508 -0.0233  0.0153  0.1344
    1WF      WF61200  24.914  14.045   3.111  0.0679  0.1681  0.0658
    1WF      WF61201   1.374  18.483   8.895  0.0760 -0.1360  0.1333
    1WF      WF61202   4.689   1.151   8.314 -0.3195 -0.1055 -0.0720
    1WF      WF61203   1.898   7.601  10.305 -0.1727 -0.0945  0.2646
    1WF      WF61204   4.202   8.306   0.662 -0.0461 -0.0325  0.1412
    1WF      WF61205   5.574   8.862   7.062 -0.0985 -0.2497 -0.2093
    1WF      WF61206  13.731  14.005   0.479  0.1462  0.1052  0.0373
    1WF      WF61207   2.164   3.962   8.716 -0.0806  0.0870 -0.1333
    1WF      WF61208   2.431  25.092   9.500  0.1286 -0.1278 -0.0388
    1WF      WF61209   7.516   2.131   0.315  0.0370  0.0369 -0.2037
    1WF      WF61210   2.202   7.532   7.611 -0.1291  0.1366 -0.0708
    1WF      WF61211   7.642  25.521   8.276 -0.0738  0.3006  0.0848
    1WF      WF61212  24.854   1.912  10.042  0.0263  0.1824  0.0965
    1WF      WF61213   5.769   8.739   6.614 -0.0377 -0.0682 -0.1413
    1WF      WF61214   3.047  24.186   0.587  0.0740 -0.1481  0.0964
    1WF      WF61215  14.357  17.030   8.522  0.0556  0.1376  0.0963
    1WF      WF61216   4.547   8.314   8.197 -0.1610  0.1790  0.1792
    1WF      WF61217   1.905  23.484   8.247  0.0514 -0.1362 -0.3123
    1WF      WF61218  23.763   4.586   0.339  0.0055  0.2866  0.3343
    1WF      WF61219  15.281  19.525   0.431 -0.4990 -0.3730  0.2441
    1WF      WF61220  25.363  25.456   8.828 -0.2621 -0.1089  0.2114
    1WF      WF61221   1.077   0.168   0.539  0.0236  0.0183 -0.0820
    1WF      WF61222  10.244  20.943   9.123 -0.0977 -0.4039 -0.0105
    1WF      WF61223  27.730  19.568   1.316  0.0809 -0.2444  0.1967
    1WF      WF61224  24.325   0.860   9.939 -0.0867 -0.0210 -0.1008
    1WF      WF61225  16.209  14.689   9.135  0.0487  0.1722  0.3612
    1WF      WF61226   3.647   4.469   2.053  0.1237  0.0317  0.2217
    1WF      WF61227   1.964   0.615   7.097 -0.2147 -0.0206 -0.3321
    1WF      WF61228  15.157  18.780   0.981  0.0727 -0.1268  0.1099
    1WF      WF61229  10.506  21.600   7.748  0.1174  0.2099 -0.1613
    1WF      WF61230  21.245  12.357   1.899  0.3790  0.2310 -0.0925
    1WF      WF61231  22.120  19.777   3.189 -0.0687  0.0199 -0.0582
    1WF      WF61232   9.927  14.694   0.913  0.1021 -0.3494 -0.3273
    1WF      WF61233   2.627   7.050   9.690  0.1594  0.0447  0.3451
    1WF      WF61234  13.197  27.119   2.283  0.0333 -0.1172 -0.1570
    1WF      WF61235  17.345  13.861   1.893  0.0455 -0.3291  0.3380
    1WF      WF61236   6.792   7.861   1.134  0.2126 -0.0983 -0.1112
    1WF      WF61237  16.711  27.026   1.915 -0.1822  0.0969 -0.0265
    1WF      WF61238  26.787  12.759   7.758  0.0761  0.0514  0.2220
    1WF      WF61239   6.019  22.414   7.911  0.3127  0.1454  0.1412
    1WF      WF61240   4.228  21.925   0.423  0.0449  0.2593 -0.0743
    1WF      WF61241  13.743  15.356   1.698 -0.1360 -0.0271 -0.0748
    1WF      WF61242  12.936   9.304   9.861 -0.2235 -0.0604 -0.0861
    1WF      WF61243  17.922   9.888   2.542 -0.0685 -0.1980  0.1194
    1WF      WF61244  15.527   5.476   0.894 -0.1155  0.3253  0.2213
    1WF      WF61245   0.557   4.594   7.831  0.0924 -0.1216 -0.0204
    1WF      WF61246  27.041   3.838   9.208 -0.0080  0.0702 -0.1223
    1WF      WF61247   2.809  14.813   9.815  0.0230 -0.2241 -0.0066
    1WF      WF61248  16.642  15.695  10.073  0.0025 -0.2928  0.3753
    1WF      WF61249  17.282  13.457   2.923 -0.0627 -0.0827  0.0940
    1WF      WF61250  26.159   5.847   7.636 -0.2222  0.2803  0.1514
    1WF      WF61251   5.035   5.196   0.085 -0.1190  0.0010  0.0034
    1WF      WF61252   4.551  18.558   8.368 -0.0059  0.0170 -0.0676
    1WF      WF61253  10.254  25.291   8.560  0.0204 -0.0323 -0.0758
    1WF      WF61254   6.909  14.926   1.485 -0.0830  0.0588  0.0242
    1WF      WF61255   9.179  23.345  10.242 -0.0166 -0.0463  0.0963
    1WF      WF61256  25.109  16.823   8.944 -0.1342  0.0687  0.2095
    1WF      WF61257   1.572   9.054   0.726  0.1138  0.2803 -0.2315
    1WF      WF61258  21.424  25.417   0.626 -0.1123  0.0192  0.5111
    1WF      WF61259  11.370   9.970   9.179  0.1455  0.1654 -0.1261
    1WF      WF61260   4.450  17.839   7.014 -0.1822 -0.2712  0.3340
    1WF      WF61261  15.525  17.312   2.230  0.1625 -0.3305  0.2937
    1WF      WF61262  12.433  25.928   1.467  0.0110 -0.1142  0.1600
    1WF      WF61263  14.659  22.419   9.938  0.0772  0.1052  0.3895
    1WF      WF61264   3.165  12.988   8.953 -0.0711  0.0358 -0.2213
    1WF      WF61265  13.087  22.206   8.570  0.1900 -0.1358  0.1810
    1WF      WF61266  10.514  25.219   9.436 -0.1369 -0.1529 -0.0372
    1WF      WF61267  13.438  25.136   6.346 -0.0400 -0.2396 -0.0659
    1WF      WF61268   2.628   2.462  10.020 -0.0158 -0.1167 -0.1006
    1WF      WF61269   1.507   5.766   1.784 -0.2147 -0.0299  0.2984
    1WF      WF61270  11.881  25.735  10.323  0.2582 -0.0674  0.2929
    1WF      WF61271  11.103   1.586   0.474 -0.0868  0.0423 -0.1248
    1WF      WF61272  22.853  11.009   2.473 -0.1353  0.1179  0.2936
    1WF      WF61273   1.441   2.766   9.011 -0.1712 -0.2625  0.3767
    1WF      WF61274  10.948  10.916   1.088 -0.1620 -0.3323  0.1268
    1WF      WF61275  27.758  14.650   0.916  0.1776 -0.0739 -0.1891
    1WF      WF61276  13.480  25.899   8.669 -0.0168  0.0806 -0.2676
    1WF      WF61277   9.362  25.374   9.683 -0.0691  0.0545  0.2832
    1WF      WF61278  21.277   5.139   0.939 -0.0381 -0.0225  0.1950
    1WF      WF61279   8.284  15.996   9.598 -0.2515 -0.1224 -0.1157
    1WF      WF61280  23.337  13.918   0.323  0.2175  0.1069  0.1331
    1WF      WF61281  21.729  17.330   9.229 -0.0036 -0.2524 -0.0057
    1WF      WF61282   2.371  27.775   7.388 -0.1479  0.0795 -0.0573
    1WF      WF61283  26.468   5.843   9.128 -0.0781 -0.1169 -0.1421
    1WF      WF61284  22.499  19.440   9.153 -0.0031 -0.0323 -0.0645
    1WF      WF61285   8.922  25.738   0.763 -0.2940  0.0678  0.0335
    1WF      WF61286  10.016  11.462   1.921 -0.2589 -0.2601  0.0466
    1WF      WF61287   6.532  23.775   9.472 -0.0438 -0.2078  0.0652
    1WF      WF61288  11.789  12.760   4.148  0.3029  0.0755  0.0957
    1WF      WF61289  12.526  24.392   9.392  0.0323 -0.0845  0.0012
    1WF      WF61290  13.948  25.181   2.954 -0.0840 -0.0580  0.3029
    1WF      WF61291   7.508   7.729   0.149  0.2453  0.2835 -0.3363
    1WF      WF61292  12.542  10.085  10.160  0.0267  0.4478 -0.2457
    1WF      WF61293  23.081  15.401   9.503 -0.0396 -0.1869 -0.0258
    1WF      WF61294  24.975  18.466   1.737 -0.0069  0.0368 -0.1003
    1WF      WF61295  13.290   0.440   7.146 -0.0002  0.3427 -0.1359
    1WF      WF61296  18.539  20.266   2.134 -0.0248  0.1257 -0.0581
    1WF      WF61297  26.839  18.686   0.545  0.0594  0.2157 -0.1641
    1WF      WF61298  24.476   2.330   9.188  0.1914 -0.4335 -0.2145
    1WF      WF61299   2.549  24.938  10.034  0.0898 -0.1371 -0.2957
    1WF      WF61300  16.188  12.397   0.024  0.2212  0.1104 -0.0534
    1WF      WF61301  19.358  20.597   8.591  0.0100 -0.1091  0.3677
    1WF      WF61302  11.330   1.204   0.623 -0.1191  0.0927  0.0120
    1WF      WF61303  18.306   3.453   2.658 -0.2137  0.1391 -0.2328
    1WF      WF61304   4.734  16.558   0.670 -0.0990  0.0742 -0.1697
    1WF      WF61305   4.549  11.198   0.037  0.0258  0.2198 -0.4808
    1WF      WF61306  24.502  10.645   8.376  0.0058  0.1221 -0.0800
    1WF      WF61307  12.134  24.125   9.569  0.1108  0.0840 -0.1065
    1WF      WF61308  11.767   6.631   8.892 -0.1321  0.0652  0.3008
    1WF      WF61309  28.076   7.222   9.297  0.2290 -0.0429 -0.0163
    1WF      WF61310   0.569   4.800   8.277 -0.1169 -0.3916 -0.0412
    1WF      WF61311   8.070  10.132   8.909 -0.1295 -0.0041  0.0896
    1WF      WF61312  12.038   4.299  10.293 -0.2391  0.1376  0.2460
    1WF      WF61313   4.131   2.477   8.165  0.3530 -0.0308 -0.0693
    1WF      WF61314  27.923   1.455   0.229  0.0849  0.0590  0.1856
    1WF      WF61315  12.596  25.290   9.088  0.2856  0.1441 -0.0467
    1WF      WF61316   8.362  23.220   9.965  0.2168 -0.0343 -0.1462
    1WF      WF61317  21.825  22.630   8.761  0.1592  0.4844  0.1346
    1WF      WF61318  15.426  23.321   0.869 -0.3572 -0.1910  0.1872
    1WF      WF61319   9.347  26.995   1.762 -0.0117 -0.2775 -0.3884
    1WF      WF61320   2.253  27.524   8.303  0.1673  0.0228 -0.0646
    1WF      WF61321   9.269   9.197   9.183  0.4351  0.3270  0.1957
    1WF      WF61322  13.861  23.572   3.243 -0.1810  0.0178 -0.0954
    1WF      WF61323   4.562  20.886   1.003  0.1282 -0.0613  0.2929
    1WF      WF61324  12.971  25.502   0.172  0.1928  0.2142  0.0280
    1WF      WF61325   8.668  21.187   1.332 -0.1415  0.1215 -0.1344
    1WF      WF61326  23.374  10.291   9.234  0.1692  0.1232  0.0554
    1WF      WF61327   4.632   3.004   0.741 -0.2888 -0.0134  0.0598
    1WF      WF61328   2.681  20.705   0.693 -0.1185  0.0939 -0.1968
    1WF      WF61329  21.547   1.120   8.014  0.1716  0.0834  0.3266
    1WF      WF61330   9.212  25.773   9.899  0.0492 -0.0138  0.0345
    1WF      WF61331  21.169  25.358   0.117 -0.1022  0.0820 -0.1413
    1WF      WF61332  11.276  15.429  10.100  0.0396  0.1387 -0.0831
    1WF      WF61333   7.456   4.071   0.057  0.2046 -0.4237 -0.2011
    1WF      WF61334  26.651  23.787   8.186 -0.3455 -0.1938 -0.0553
    1WF      WF61335  26.513  20.468   9.531  0.1856  0.2238  0.2550
    1WF      WF61336  13.486   9.575   1.604 -0.2533 -0.1128 -0.1255
    1WF      WF61337   5.813  11.195   8.508  0.0668 -0.0098  0.2690
    1WF      WF61338  10.575  25.620   2.000 -0.1024  0.2456  0.1240
    1WF      WF61339  11.726  24.005   9.276  0.5472  0.1108 -0.0482
    1WF      WF61340  16.181  25.342   0.048 -0.1395  0.0098 -0.0684
    1WF      WF61341  21.098   7.578   9.086  0.4783  0.1009 -0.0558
    1WF      WF61342   5.570  19.320   2.016 -0.0889 -0.1414  0.0575
    1WF      WF61343  25.270  27.817   9.291  0.0196 -0.1060 -0.0035
    1WF      WF61344  17.223  26.176   8.470  0.2305 -0.1541  0.0244
    1WF      WF61345   6.366  14.547   8.477 -0.0393 -0.1933  0.0373
    1WF      WF61346  24.099   6.267   9.077  0.0100 -0.0787 -0.2851
    1WF      WF61347   1.151  12.199   1.371  0.0786  0.2843  0.2425
    1WF      WF61348  24.032  24.801  10.112  0.4808 -0.0129 -0.1850
    1WF      WF61349  14.509  25.797  10.163  0.0907  0.3259 -0.4505
    1WF      WF61350  14.372   0.906   8.517 -0.0110  0.0401 -0.0613
    1WF      WF61351   1.498  26.887   0.826  0.0102 -0.1910  0.1505
    1WF      WF61352   1.113  26.235   1.225  0.0564 -0.0332  0.1634
    1WF      WF61353  24.820  18.325   8.791 -0.0417  0.0301  0.0990
    1WF      WF61354   8.242  12.193   1.858  0.0100 -0.1523  0.0766
    1WF      WF61355  18.548  10.829   0.057 -0.0288  0.0554  0.2106
    1WF      WF61356  27.404   8.355   8.598 -0.3291  0.1437  0.1917
    1WF      WF61357  13.343  15.056   1.893 -0.0720  0.0514 -0.0538
    1WF      WF61358  12.214  16.308   7.080  0.1528 -0.2548 -0.0007
    1WF      WF61359  16.645   3.665   1.435  0.2647 -0.4014  0.1620
    1WF      WF61360   6.151   1.142   7.871 -0.1496 -0.0655  0.3600
    1WF      WF61361  19.104  24.808   9.822 -0.2266  0.1035  0.2551
    1WF      WF61362  17.480   6.183   9.804 -0.0715  0.3381 -0.2574
    1WF      WF61363  23.130   1.937   1.372 -0.0450 -0.0436  0.4028
    1WF      WF61364  17.573  10.686   9.318  0.0397 -0.0182 -0.1891
    1WF      WF61365  23.158  10.679   9.022 -0.2655  0.1927  0.1786
    1WF      WF61366  17.819  15.894  10.263 -0.0750 -0.2100  0.2275
    1WF      WF61367  20.188   0.122   1.942 -0.2396  0.1847 -0.0620
    1WF      WF61368   5.615  14.314   6.653  0.2413  0.1641 -0.2134
    1WF      WF61369  26.257  27.381   8.921 -0.3420  0.0488  0.4021
    1WF      WF61370  22.991  15.086   9.103 -0.2009 -0.0744 -0.0223
    1WF      WF61371  20.619   2.934   2.751  0.0350 -0.1084 -0.1678
    1WF      WF61372  12.615  22.918   7.605  0.0990  0.2283 -0.2403
    1WF      WF61373  24.099  11.368   1.013 -0.5304 -0.0427 -0.2566
    1WF      WF61374  19.562  21.694   1.316  0.0382 -0.3831 -0.1745
    1WF      WF61375   1.265   3.959   0.157  0.1843 -0.0998 -0.3453
    1WF      WF61376  11.987   3.489   3.519 -0.0703 -0.1367  0.2823
    1WF      WF61377  25.821  13.109   1.162  0.1605  0.0237  0.4252
    1WF      WF61378  27.480  25.317   8.289 -0.2195 -0.2361  0.1596
    1WF      WF61379  19.074  11.326   2.610  0.2272 -0.1495  0.1192
    1WF      WF61380   5.744  18.293   9.194 -0.2187 -0.0350 -0.0269
    1WF      WF61381   7.441   2.821   0.990 -0.0675  0.2394  0.0887
    1WF      WF61382   3.265  14.079   0.760 -0.0949 -0.3012 -0.1483
    1WF      WF61383   2.276   3.173   7.490 -0.1164  0.1465 -0.2254
    1WF      WF61384  16.494  15.372   8.918  0.1305 -0.1153  0.0269
    1WF      WF61385   5.699   5.924   1.721  0.1387 -0.0049 -0.2427
    1WF      WF61386   2.314  20.605   8.002 -0.2203  0.1400  0.2654
    1WF      WF61387  18.880   8.008   1.152  0.3829 -0.0256  0.3264
    1WF      WF61388   6.751   9.891   1.448 -0.1284 -0.0505  0.0200
    1WF      WF61389  25.070  23.126   8.221 -0.1015  0.0105 -0.0616
    1WF      WF61390   2.951  11.662   0.631  0.0569  0.0417 -0.3086
    1WF      WF61391  21.136  21.389   9.064  0.0525 -0.1178 -0.0305
    1WF      WF61392  11.761   0.931   0.590 -0.1236  0.3011  0.0270
    1WF      WF61393   2.188  10.464   6.668  0.1675  0.1221  0.1518
    1WF      WF61394  25.227  19.908   1.553  0.0746  0.1621 -0.0541
    1WF      WF61395   5.537   8.759   0.178 -0.2776 -0.1855 -0.5346
    1WF      WF61396  22.190  17.169   0.571 -0.1497  0.0295 -0.0513
    1WF      WF61397  17.461   2.395   8.644 -0.2079  0.1710  0.0711
    1WF      WF61398  25.012   2.657   2.076  0.2133  0.0509  0.3320
    1WF      WF61399  22.130  21.423   9.110  0.2945  0.3917  0.2251
    1WF      WF61400   2.119  18.323   2.927 -0.1740  0.2521 -0.1172
    1WF      WF61401   1.412   6.657   7.587  0.0120 -0.1233 -0.0292
    1WF      WF61402   9.730  21.893   2.167  0.1435 -0.0266 -0.2151
    1WF      WF61403   1.849   9.566   1.318 -0.0368 -0.4106  0.0414
    1WF      WF61404  17.027   5.983   9.931 -0.3675 -0.2332  0.1296
    1WF      WF61405  14.656  26.164   9.836  0.3365 -0.2374  0.1346
    1WF      WF61406   8.715  14.508   1.110  0.0707 -0.1328  0.4772
    1WF      WF61407  11.758  15.179   2.407  0.0723 -0.2679  0.1198
    1WF      WF61408  19.408  19.784   8.972 -0.1363 -0.0004  0.3164
    1WF      WF61409   0.398  16.514   9.134 -0.0947  0.0009  0.0095
    1WF      WF61410   2.026  18.559   1.327  0.1509 -0.0006  0.1545
    1WF      WF61411  18.147  11.900   9.330  0.2967 -0.1618  0.1740
    1WF      WF61412  13.667  25.028   8.553  0.1462  0.1760  0.0248
    1WF      WF61413  27.320  18.646   0.420 -0.1088  0.1084  0.1316
    1WF      WF61414  10.515   6.562   0.235  0.0821 -0.2211 -0.0110
    1WF      WF61415  10.430   4.920   9.954 -0.0273 -0.4481 -0.2824
    1WF      WF61416   6.587   8.131   0.560  0.1315 -0.3524 -0.2254
    1WF      WF61417  16.279  28.015   1.738 -0.2525 -0.2139 -0.0490
    1WF      WF61418  12.465   8.613   1.244 -0.1271  0.1358 -0.0174
    1WF      WF61419  26.448  12.676   9.981 -0.0822 -0.0634  0.2838
    1WF      WF61420  25.494  13.329   0.085 -0.2244 -0.1656  0.2162
    1WF      WF61421  26.376  22.999   0.380 -0.0570  0.0778  0.0761
    1WF      WF61422   1.767   1.248   9.050  0.1320 -0.0107  0.2186
    1WF      WF61423  27.441   1.894   9.506  0.0223  0.2429 -0.0900
    1WF      WF61424  11.468  16.849   1.548 -0.1883  0.0591 -0.1482
    1WF      WF61425  25.077   2.559   1.529 -0.2381  0.1341 -0.1978
    1WF      WF61426  23.833  20.232   0.977  0.2278 -0.0590  0.1657
    1WF      WF61427   4.993   4.480   8.969 -0.2892  0.1676 -0.1478
    1WF      WF61428  16.379  22.291   9.798 -0.0457 -0.2168 -0.0232
    1WF      WF61429  16.114  17.231   1.837 -0.1739  0.1238 -0.2174
    1WF      WF61430  20.491   2.875   9.457  0.3193  0.2039 -0.0757
    1WF      WF61431   4.637   1.537   9.066  0.2643  0.2112 -0.4501
    1WF      WF61432   9.929   6.938   3.521 -0.0042  0.4171  0.0921
    1WF      WF61433  15.803   8.392   1.447 -0.0988  0.2760  0.1053
    1WF      WF61434  18.383  16.778   0.512 -0.2073  0.1502 -0.0886
    1WF      WF61435  17.751   8.901   1.219  0.1444 -0.2657 -0.0107
    1WF      WF61436   0.921  14.107   9.822 -0.2419 -0.0283  0.1662
    1WF      WF61437  21.677   2.557   1.235 -0.1066 -0.1212 -0.0638
    1WF      WF61438  26.468   5.872   0.154 -0.0345  0.0156 -0.2640
    1WF      WF61439  14.370  10.790   2.728 -0.0387  0.0570  0.3101
    1WF      WF61440  25.145  14.926   9.598  0.1742  0.0072  0.1201
    1WF      WF61441   9.124   3.339  10.087  0.1397  0.1314  0.0680
    1WF      WF61442  20.998  22.986   2.564 -0.0118 -0.1196 -0.0051
    1WF      WF61443   9.874  16.935   1.016 -0.0518 -0.3247  0.0189
    1WF      WF61444  18.462   3.178   1.909 -0.0716 -0.2628 -0.3796
    1WF      WF61445  24.193   5.200   0.402  0.0936  0.0292  0.0618
    1WF      WF61446   8.113   4.032   0.075  0.0808  0.1601 -0.1201
    1WF      WF61447  20.477  20.099   9.450 -0.0033  0.4021  0.1213
    1WF      WF61448   6.353   3.150   2.120 -0.1567  0.1216 -0.1061
    1WF      WF61449   1.315  20.659   0.198  0.2515 -0.2496 -0.0881
    1WF      WF61450  16.053  16.695   8.969  0.1721 -0.1648 -0.3008
    1WF      WF61451  19.887  27.308   0.949  0.0335  0.2344  0.1079
    1WF      WF61452  24.417  20.505   9.697  0.2551 -0.1159  0.0090
    1WF      WF61453   9.487  16.773   0.684  0.0628  0.0070 -0.0174
    1WF      WF61454  22.779  17.529  10.260  0.1103  0.1309 -0.3365
    1WF      WF61455  15.338  13.695   0.434 -0.0177  0.2035  0.2133
    1WF      WF61456  15.130  24.490   0.999 -0.2520 -0.1105 -0.1500
    1WF      WF61457  12.476  20.777   2.240 -0.2087  0.2195  0.2119
    1WF      WF61458  26.564   3.969   9.046  0.0863  0.2059  0.0116
    1WF      WF61459   4.978  16.857   9.370  0.1240 -0.0605 -0.0390
    1WF      WF61460   8.022   9.871   1.111  0.0594 -0.0631 -0.0187
    1WF      WF61461  22.350  22.468   0.049 -0.0674  0.0362  0.2142
    1WF      WF61462  13.703  26.846   2.300 -0.3923  0.2029 -0.0540
    1WF      WF61463  22.555  11.933   1.386  0.3858  0.1775  0.1712
    1WF      WF61464  11.306   6.641   9.009 -0.0242  0.1533 -0.2015
    1WF      WF61465  17.654  20.402   1.298 -0.0067  0.1135 -0.0309
    1WF      WF61466  16.206   9.126   9.773  0.0531 -0.0282 -0.0392
    1WF      WF61467  22.048  27.404   1.281  0.0646  0.1479  0.1140
    1WF      WF61468  14.758  14.759   1.836 -0.0806 -0.3539  0.0015
    1WF      WF61469  25.875   4.907   9.520 -0.1632 -0.1064  0.2609
    1WF      WF61470  23.056   3.462   1.097 -0.1396  0.0144  0.1337
    1WF      WF61471   2.179   4.579   7.332 -0.0120  0.3476 -0.0198
    1WF      WF61472  17.792  23.822   2.423 -0.0187 -0.0729 -0.1885
    1WF      WF61473  26.884   4.193   9.606 -0.1168 -0.3083  0.2624
    1WF      WF61474  19.873  22.120   1.474  0.3631 -0.1509  0.1715
    1WF      WF61475  19.330   4.882   9.216  0.0032  0.0533 -0.0080
    1WF      WF61476  16.993  24.140   0.323 -0.4784  0.2200 -0.0862
    1WF      WF61477  26.204   9.981   1.274  0.0282 -0.1726  0.1529
    1WF      WF61478   9.797  26.747   8.277  0.3239  0.1520 -0.1112
    1WF      WF61479   8.601  22.666   1.850  0.0692  0.1080  0.0712
    1WF      WF61480  16.057   6.911   2.247  0.0556  0.2861 -0.2635
    1WF      WF61481   8.645   8.124   0.750  0.2969  0.1394  0.1705
    1WF      WF61482   1.177  11.691   1.610  0.0293 -0.0583 -0.1373
    1WF      WF61483   4.087  20.132   2.131 -0.0323  0.0734 -0.0705
    1WF      WF61484  26.299  12.019   1.592 -0.2002  0.0020 -0.1916
    1WF      WF61485  13.174  28.081   0.785  0.0494  0.1324 -0.0839
    1WF      WF61486   2.585  27.463   9.183 -0.0849  0.2636 -0.3525
    1WF      WF61487   0.593  15.928   8.954 -0.1989  0.1690 -0.0871
    1WF      WF61488   7.053  15.915   8.471 -0.0529  0.1308 -0.0028
    1WF      WF61489   0.146   3.276   1.152  0.0035  0.0741  0.0289
    1WF      WF61490  17.126  20.726   9.794 -0.1260 -0.2659 -0.0151
    1WF      WF61491  25.455  25.749   0.178  0.0783  0.1161  0.1477
    1WF      WF61492  24.780  22.673   3.261  0.0364 -0.2162 -0.0661
    1WF      WF61493  16.570  12.675  10.284 -0.3326 -0.0761  0.2255
    1WF      WF61494   5.727  22.503   8.315  0.0224  0.3691 -0.1091
    1WF      WF61495  18.382  27.582   8.472 -0.1345  0.1074  0.2382
    1WF      WF61496  14.974   9.892   0.793  0.0662  0.1385 -0.0360
    1WF      WF61497  17.894  12.784   9.189 -0.0690 -0.0337  0.0713
    1WF      WF61498  21.335   0.597   7.063 -0.1164 -0.1790  0.2296
    1WF      WF61499   6.508  26.521   0.476  0.1443  0.0852  0.1454
    1WF      WF61500   7.776  13.046   8.450 -0.2167 -0.2225 -0.2547
    1WF      WF61501  14.608  22.925   0.899 -0.2382  0.0497 -0.0828
    1WF      WF61502   3.822   5.108   8.191 -0.2810 -0.2399  0.0235
    1WF      WF61503   8.260  21.465   9.647 -0.0467  0.1580 -0.0965
    1WF      WF61504  23.651  22.836   0.359  0.1734  0.0350 -0.0797
    1WF      WF61505  19.369   1.422   2.130  0.1106 -0.1350  0.2942
    1WF      WF61506  25.429  10.238   1.035 -0.0823  0.0709 -0.1840
    1WF      WF61507  25.064  10.411   0.582 -0.1095 -0.0759  0.4129
    1WF      WF61508  21.843   2.580   0.773 -0.3061 -0.2103 -0.0405
    1WF      WF61509  23.792   2.032  10.309  0.2282  0.1567 -0.0292
    1WF      WF61510  13.144   1.252   1.971  0.0955 -0.5842 -0.1112
    1WF      WF61511  24.375  22.507  10.035  0.0081 -0.0854  0.2799
    1WF      WF61512  22.461  17.717   0.232  0.1234 -0.1241  0.0429
    1WF      WF61513  16.445  17.035   8.942  0.2273  0.1628 -0.1485
    1WF      WF61514   8.560  26.722   8.487 -0.0010  0.1718  0.0874
    1WF      WF61515  24.476  11.399   1.404  0.3383 -0.0679  0.1733
    1WF      WF61516  25.038  17.138   9.293  0.1260  0.2553  0.1198
    1WF      WF61517  15.804  10.263   8.753  0.0859  0.1745 -0.1474
    1WF      WF61518  21.114   4.714   0.752 -0.3077  0.2216 -0.1791
    1WF      WF61519  20.813  27.596   8.713 -0.1506 -0.1209  0.3484
    1WF      WF61520   1.127  14.267   8.459 -0.0787  0.1931  0.0333
    1WF      WF61521  22.735   4.125   0.192 -0.1210  0.0253  0.1009
    1WF      WF61522   9.338   4.794   3.128 -0.0168 -0.0815 -0.0867
    1WF      WF61523  27.883   6.777   9.498  0.0818 -0.3357 -0.2067
    1WF      WF61524  21.705  14.073  10.169  0.3571 -0.0275  0.1134
    1WF      WF61525   1.635  25.941   9.797 -0.2726 -0.0027 -0.0397
    1WF      WF61526  13.582  22.660   8.825 -0.1413 -0.0400  0.1119
    1WF      WF61527  27.461   8.123  10.209 -0.0187 -0.2267 -0.0744
    1WF      WF61528  27.151  12.626   0.441 -0.2328 -0.1180  0.0145
    1WF      WF61529  27.299  26.330   0.305  0.1200 -0.2203 -0.0868
    1WF      WF61530  26.627  12.776   9.515  0.2813 -0.0888 -0.0535
    1WF      WF61531  20.084  14.534   0.667 -0.0815 -0.1100 -0.0472
    1WF      WF61532  24.094   4.620   1.992 -0.1524 -0.1700  0.4981
    1WF      WF61533  19.812  22.108   0.973 -0.2161 -0.1986 -0.0200
    1WF      WF61534   2.237  24.525  10.055  0.0102  0.0499  0.0242
    1WF      WF61535  10.334  14.870   1.112  0.1746  0.0228  0.0732
    1WF      WF61536  27.279  21.884   0.987 -0.1448  0.0235  0.0505
    1WF      WF61537   6.455  26.080   0.678 -0.0465  0.2532 -0.0723
    1WF      WF61538  15.843   7.657   9.932  0.2917  0.2615  0.1655
    1WF      WF61539  11.953   8.773   9.318 -0.2036 -0.1459 -0.2015
    1WF      WF61540   9.715  15.459  10.359  0.0694 -0.0019 -0.4109
    1WF      WF61541  17.987   6.309   2.189 -0.1126  0.0938 -0.1117
    1WF      WF61542  20.342  27.127   0.866  0.1653 -0.1051 -0.1140
    1WF      WF61543   9.609   8.394   8.690 -0.1431  0.2039 -0.0299
    1WF      WF61544  18.384   6.338   2.412  0.3222  0.1049 -0.0920
    1WF      WF61545   2.620   2.742   7.505 -0.1334 -0.1510  0.0353
    1WF      WF61546   5.478   2.582   2.310 -0.1384 -0.1229 -0.0382
    1WF      WF61547  23.678  23.811   8.586 -0.4876 -0.1530 -0.2879
    1WF      WF61548   1.486   8.681   9.174 -0.4937  0.0114  0.0379
    1WF      WF61549   9.260   4.446   0.371  0.1377 -0.2232 -0.0750
    1WF      WF61550  25.228  15.189   6.466 -0.1386  0.1073  0.2149
    1WF      WF61551  25.746   5.254   0.403 -0.1618 -0.3013 -0.2457
    1WF      WF61552  17.917  16.988   0.288  0.1189 -0.0068 -0.0311
    1WF      WF61553  13.542   2.376   2.299  0.0430  0.0382  0.0213
    1WF      WF61554   1.121   5.037   9.489  0.1244 -0.0688  0.0178
    1WF      WF61555  19.039   8.612   2.711 -0.2561 -0.1345  0.0898
    1WF      WF61556  12.562   1.265   2.307  0.2999  0.1364  0.1751
    1WF      WF61557  27.610   3.466   7.920  0.2223 -0.2692  0.2767
    1WF      WF61558  25.447   9.992   8.066 -0.0005  0.0159 -0.1017
    1WF      WF61559   8.205   2.161   9.412  0.3089 -0.1139 -0.0455
    1WF      WF61560  26.424  14.763   7.938  0.0867  0.0654 -0.1900
    1WF      WF61561   7.610   1.028   9.037 -0.0162  0.0861 -0.0327
    1WF      WF61562  12.584  10.573   9.929 -0.1848  0.3661 -0.2152
    1WF      WF61563  10.739  18.339   2.166 -0.2521 -0.0456 -0.0118
    1WF      WF61564   1.519   3.287   8.186  0.0572 -0.2946  0.1515
    1WF      WF61565   8.136  18.142   9.962 -0.1007  0.2265  0.2419
    1WF      WF61566   1.935  10.849   8.400  0.0729  0.0406  0.0135
    1WF      WF61567   1.311   9.518   0.548  0.0534 -0.0994 -0.1605
    1WF      WF61568  25.173  11.323   2.260  0.0899 -0.0228  0.2004
    1WF      WF61569  10.171  26.914   8.551 -0.2626 -0.0559 -0.0764
    1WF      WF61570  17.797   4.456   8.837  0.0974 -0.2884  0.2477
    1WF      WF61571  23.245  22.658   2.030  0.0493  0.1200  0.0448
    1WF      WF61572  27.692  14.922   9.238 -0.2025 -0.1447  0.0511
    1WF      WF61573   0.956   3.422   0.107  0.2368  0.2389 -0.1504
    1WF      WF61574  14.321  14.472   2.755  0.1769  0.0128 -0.2448
    1WF      WF61575   8.211  14.045   8.583  0.0096  0.0706  0.0437
    1WF      WF61576  22.172  22.698   0.471  0.0417 -0.1818 -0.0081
    1WF      WF61577   5.643  21.507   0.684  0.2617 -0.0450  0.0077
    1WF      WF61578  26.629   6.152   8.720  0.0674  0.1020  0.1203
    1WF      WF61579   5.587  18.661   1.804 -0.2412  0.0751  0.0464
    1WF      WF61580  16.682  22.835   1.939  0.2822 -0.0356 -0.0843
    1WF      WF61581  15.524  21.004   0.609  0.0322 -0.0719  0.1292
    1WF      WF61582   6.472  10.476   0.117 -0.2034  0.0913 -0.2158
    1WF      WF61583   6.676  12.202   2.138 -0.3050 -0.0041 -0.0626
    1WF      WF61584  12.253  27.319   0.392  0.1432 -0.6145 -0.1935
    1WF      WF61585  18.461  25.058   8.050 -0.0294  0.0612 -0.2090
    1WF      WF61586  28.047  24.501   8.275  0.2100  0.2032 -0.1961
    1WF      WF61587  13.614  24.990   7.218 -0.1993  0.0209  0.3397
    1WF      WF61588  27.353   6.718   9.644  0.0537 -0.0215 -0.0879
    1WF      WF61589  19.834  24.875   1.409 -0.3496  0.0885  0.1594
    1WF      WF61590   2.893  25.981  10.328 -0.1383 -0.1956  0.1096
    1WF      WF61591  15.003   1.417   8.758 -0.0711  0.0154  0.0382
    1WF      WF61592   7.307  13.801  10.126  0.1651  0.0575  0.1898
    1WF      WF61593  18.432  22.164   1.329  0.1585  0.0071 -0.0830
    1WF      WF61594  19.724  21.062   2.057 -0.1319  0.0517 -0.1186
    1WF      WF61595   1.988   3.506   7.064 -0.2157 -0.0129  0.1106
    1WF      WF61596  21.013  27.655   8.265  0.1109  0.0281 -0.3732
    1WF      WF61597  24.775  10.245   2.761 -0.0244 -0.1171 -0.1479
    1WF      WF61598   0.541  23.437   8.313 -0.2578  0.2209 -0.1762
    1WF      WF61599  16.488  15.815   8.619  0.1775  0.1701 -0.1016
    1WF      WF61600   8.987  20.689   0.326 -0.0522 -0.1762 -0.2323
    1WF      WF61601   6.755  11.933   0.863  0.0415 -0.0568  0.0028
    1WF      WF61602  23.328   1.435   7.383 -0.0180 -0.0550  0.2968
    1WF      WF61603  24.645   6.389   1.264 -0.1316  0.2870  0.0782
    1WF      WF61604   1.759  18.019   8.145 -0.0743 -0.2999  0.0682
    1WF      WF61605  19.499   2.051  10.319 -0.1542 -0.1872  0.0449
    1WF      WF61606  17.558  24.613   9.865 -0.2106  0.0092 -0.1142
    1WF      WF61607  28.126   3.401   8.031  0.3186 -0.1310 -0.0377
    1WF      WF61608  23.303   1.288   6.902 -0.2111  0.4450 -0.2992
    1WF      WF61609   0.169   4.873   7.937  0.1154  0.0327 -0.1595
    1WF      WF61610   3.340   1.387  10.116  0.0765 -0.1058  0.5075
    1WF      WF61611  26.980  16.188   0.882  0.0222  0.0057 -0.2873
    1WF      WF61612  25.602  17.252   2.703  0.1111  0.0191  0.3718
    1WF      WF61613  11.583   0.345   2.242 -0.0386 -0.1961  0.0306
    1WF      WF61614  19.877   1.911   8.217 -0.1625 -0.0368  0.0023
    1WF      WF61615  14.547  12.285   9.796  0.1495  0.0520 -0.2851
    1WF      WF61616  10.010  27.254   3.227 -0.0434  0.0225  0.1869
    1WF      WF61617  19.648  14.261   0.501  0.0744  0.2780 -0.1326
    1WF      WF61618   1.103   6.576   8.033 -0.0887  0.0135 -0.4638
    1WF      WF61619  16.539  17.665   6.966 -0.1246  0.3222  0.2346
    1WF      WF61620  24.135  10.647   8.783 -0.0604 -0.2137  0.2096
    1WF      WF61621   2.950   7.949   0.495 -0.1047  0.0249 -0.1446
    1WF      WF61622   1.416  15.661   9.793  0.1552  0.2318 -0.0369
    1WF      WF61623  17.934  25.280   1.320  0.1313  0.0247  0.0414
    1WF      WF61624  26.730  16.594   1.057  0.0154  0.2788  0.1714
    1WF      WF61625  10.703  15.139   2.783  0.2393 -0.1312  0.0880
    1WF      WF61626   6.722  24.169   8.229 -0.3423 -0.2020  0.1021
    1WF      WF61627   0.225   0.086   0.922  0.2589  0.0664  0.0488
    1WF      WF61628   8.477  21.525   1.743 -0.0012 -0.1645 -0.1699
    1WF      WF61629  18.167  18.435   8.551  0.3025  0.0753 -0.2042
    1WF      WF61630   8.885  22.747   9.147 -0.3174 -0.0390 -0.1491
    1WF      WF61631  20.329  12.106   2.200  0.1602  0.1144  0.0197
    1WF      WF61632  26.387  18.600   0.617  0.2158 -0.0641 -0.0986
    1WF      WF61633  18.461  22.222   2.840 -0.2543 -0.1276  0.4530
    1WF      WF61634  21.306   0.389   9.253 -0.2043 -0.0694  0.1803
    1WF      WF61635  21.947  26.489   7.060  0.2060 -0.2190 -0.2198
    1WF      WF61636   0.370   6.763   8.555 -0.0818 -0.1459 -0.0235
    1WF      WF61637  12.434  13.618   0.414 -0.1764  0.0212  0.2962
    1WF      WF61638  15.333  27.198   7.133 -0.1436  0.0972 -0.1752
    1WF      WF61639   1.947   1.793   8.396 -0.3240 -0.2553 -0.1473
    1WF      WF61640  12.116  22.474   0.329  0.3854 -0.3326 -0.0469
    1WF      WF61641  15.443  23.429   1.399  0.0018 -0.0705  0.0481
    1WF      WF61642   3.641  24.312   2.452 -0.3394 -0.2554  0.2519
    1WF      WF61643  10.081   7.872  10.136 -0.0088 -0.0325 -0.0734
    1WF      WF61644  21.281  25.941   9.172  0.0209  0.0970  0.0287
    1WF      WF61645  22.804  19.283   1.513  0.1837  0.0731  0.0236
    1WF      WF61646  15.420  14.454  10.151  0.1969 -0.0489 -0.2148
    1WF      WF61647  27.152  15.758   0.640 -0.3412  0.2774 -0.1995
    1WF      WF61648  17.468  25.473  10.037  0.3837 -0.3703  0.0244
    1WF      WF61649  15.801   3.741   9.866 -0.2937  0.2609  0.0434
    1WF      WF61650  24.632  19.398   0.202  0.0557 -0.0119  0.1169
    1WF      WF61651  25.173  11.838   9.117 -0.1708  0.1460 -0.0361
    1WF      WF61652  15.577  20.685   0.994  0.0513  0.2344  0.2250
    1WF      WF61653  19.564  17.957   9.648 -0.1084 -0.1972  0.0454
    1WF      WF61654  27.969   4.905   2.670  0.0934  0.1803  0.2100
    1WF      WF61655  14.786  18.035   9.482  0.2593  0.3260  0.1931
    1WF      WF61656  18.244  26.173  10.329  0.0954  0.1345 -0.0960
    1WF      WF61657  28.012   0.165   9.043 -0.2211 -0.1967 -0.3105
    1WF      WF61658   5.346  22.991   8.346  0.0333 -0.3042  0.3187
    1WF      WF61659  23.877   1.313   0.575 -0.2562  0.1344  0.0118
    1WF      WF61660  26.710  23.448   8.579 -0.0011 -0.1950  0.2435
    1WF      WF61661   7.451  16.997   1.226  0.0437  0.1482 -0.1263
    1WF      WF61662   3.337   3.807   8.431 -0.2284  0.1048 -0.0023
    1WF      WF61663   6.518  13.095   2.292  0.1626  0.5215 -0.1635
    1WF      WF61664  10.428   8.075   1.697 -0.0149 -0.0362 -0.2314
    1WF      WF61665   2.739   8.281   9.844  0.1287 -0.0320  0.1852
    1WF      WF61666   9.059   3.758  10.341  0.0021  0.1098  0.0004
    1WF      WF61667  19.533  26.288  10.042 -0.1410 -0.1222 -0.0293
    1WF      WF61668  24.129   8.125   9.864 -0.2863 -0.0408 -0.0502
    1WF      WF61669  12.662  22.997   8.116 -0.1914 -0.1936  0.0020
    1WF      WF61670  22.849  15.694   8.156  0.0837  0.2194 -0.1611
    1WF      WF61671   3.678  17.727   7.030  0.0701  0.0413  0.1961
    1WF      WF61672  18.053  11.956   0.400  0.0843  0.0290  0.1644
    1WF      WF61673  25.066  10.945   0.553  0.0765  0.3635  0.1494
    1WF      WF61674  13.561  25.389   7.881  0.1340  0.1583  0.0583
    1WF      WF61675  12.327  26.513   2.639 -0.1232 -0.0047 -0.1394
    1WF      WF61676  24.356  18.353   7.385 -0.3469 -0.1943 -0.2033
    1WF      WF61677   0.037   9.627   2.711 -0.0408 -0.0561 -0.1402
    1WF      WF61678   7.438  27.018   1.459 -0.5107  0.1727 -0.0634
    1WF      WF61679  11.660   3.505   9.062  0.2763 -0.0684 -0.0776
    1WF      WF61680   7.269  23.079   1.350 -0.2877 -0.3980 -0.2797
    1WF      WF61681   8.113   0.849   7.601  0.1360  0.0820 -0.1698
    1WF      WF61682  23.267  15.998   8.393  0.3369  0.1495  0.3071
    1WF      WF61683   8.653  18.685   2.932 -0.0763 -0.0691  0.0040
    1WF      WF61684   5.499  14.088   9.238 -0.0397  0.2299 -0.2702
    1WF      WF61685   0.517   3.534   8.453 -0.0371  0.1092  0.0961
    1WF      WF61686  17.368  23.602   9.163 -0.0775  0.1719  0.2227
    1WF      WF61687   5.839   3.382   8.874  0.2815  0.1290  0.3594
    1WF      WF61688   6.586  17.960   8.863  0.3421 -0.0585  0.3825
    1WF      WF61689  17.144  16.647   0.815 -0.2591  0.1136 -0.2883
    1WF      WF61690  18.238   6.535   0.977  0.2073 -0.0567 -0.1278
    1WF      WF61691  14.431   9.789   1.081 -0.0319 -0.2987  0.0460
    1WF      WF61692  12.880  26.881   0.998  0.0701 -0.1382 -0.0111
    1WF      WF61693  26.766   3.284   1.379  0.1208 -0.2174 -0.1880
    1WF      WF61694   9.365   9.351   8.138  0.1460 -0.0956 -0.2476
    1WF      WF61695   0.058  14.995   7.449 -0.0558 -0.0770  0.1867
    1WF      WF61696  19.515  26.732   9.844 -0.2107 -0.0207  0.0683
    1WF      WF61697   4.941   0.859  10.264  0.3594  0.1512 -0.0070
    1WF      WF61698  19.642   5.166   1.268  0.0387  0.0982 -0.0445
    1WF      WF61699   1.812   4.333   6.246  0.1783  0.0117  0.1780
    1WF      WF61700   7.163  27.346   1.135 -0.2588 -0.0915 -0.1051
    1WF      WF61701   0.570  19.311   9.626 -0.0757  0.0631  0.0618
    1WF      WF61702   3.737   8.515   0.602  0.1184 -0.1752  0.0827
    1WF      WF61703  23.454  20.352   1.300  0.1744 -0.0923 -0.2620
    1WF      WF61704  20.943  14.283   0.140  0.0610 -0.0263 -0.1019
    1WF      WF61705   9.971   8.040   1.418  0.2356 -0.1067  0.1513
    1WF      WF61706  27.163  21.943   8.811  0.1728 -0.2387  0.0495
    1WF      WF61707   6.611  23.355   0.356  0.2044  0.1370  0.0531
    1WF      WF61708   1.022  20.858   8.486  0.0963 -0.0288 -0.0792
    1WF      WF61709  18.052  22.796   8.402 -0.1077 -0.1293  0.1740
    1WF      WF61710  23.563  22.278   1.597 -0.2585  0.0203 -0.2384
    1WF      WF61711   8.660   1.733   0.423 -0.0359 -0.2688  0.1654
    1WF      WF61712  27.596   4.881   0.324 -0.2282  0.2396  0.0875
    1WF      WF61713   4.449   5.869   1.183 -0.1521 -0.1347 -0.1264
    1WF      WF61714   4.567  25.915   9.882 -0.1330  0.0876 -0.3935
    1WF      WF61715  24.868  10.088   2.237 -0.0499 -0.1780  0.0627
    1WF      WF61716  27.264  23.164   0.648  0.3181  0.0933 -0.0679
    1WF      WF61717  26.146  16.163   8.660  0.0648 -0.3010  0.0417
    1WF      WF61718  16.258  26.691   9.586 -0.2215  0.0027  0.0998
    1WF      WF61719  18.219   2.707   1.932  0.0484  0.0755 -0.3575
    1WF      WF61720  11.035  21.826   8.888  0.1912 -0.1083  0.3009
    1WF      WF61721  22.347  19.152   1.692  0.1113 -0.2509 -0.1059
    1WF      WF61722  27.491  26.064  10.212 -0.0468  0.0534  0.0670
    1WF      WF61723   8.414  14.130   9.066  0.0416 -0.0577 -0.1311
    1WF      WF61724  22.283   6.149   0.942 -0.0389 -0.2293  0.2263
    1WF      WF61725   6.584  14.188   8.802 -0.4997  0.0483 -0.1592
    1WF      WF61726  10.193  24.968   9.049  0.0166  0.0028 -0.1567
    1WF      WF61727  12.635  14.238   9.340 -0.4018 -0.0670 -0.1791
    1WF      WF61728  14.945   1.235   8.286 -0.2019 -0.1547  0.0468
    1WF      WF61729  11.458  11.071   0.869  0.2588 -0.0351  0.2816
    1WF      WF61730  25.423   3.126  10.303 -0.0711 -0.1120 -0.0734
    1WF      WF61731  26.404  17.364   3.049 -0.3322 -0.2063 -0.1478
    1WF      WF61732   8.657  24.266   1.611  0.0577 -0.0338 -0.1666
    1WF      WF61733  27.048  18.680   9.008 -0.1695 -0.1754  0.2533
    1WF      WF61734   9.521   1.164   9.096  0.1650  0.1133  0.1758
    1WF      WF61735   0.341   8.912   0.738 -0.0943  0.0342 -0.2259
    1WF      WF61736  25.485  26.403   9.224 -0.0456  0.3269 -0.0521
    1WF      WF61737  26.527   4.054   8.252 -0.3463 -0.0896 -0.0804
    1WF      WF61738   1.997   1.575   1.347 -0.0602  0.1739 -0.3423
    1WF      WF61739   9.220  26.600   2.042  0.0101 -0.0396 -0.0041
    1WF      WF61740   6.031  16.590   0.500 -0.1351  0.0749  0.2346
    1WF      WF61741   2.232  24.940   0.837 -0.0529  0.0152 -0.0760
    1WF      WF61742  11.134   9.277  10.130  0.3255 -0.0299 -0.1529
    1WF      WF61743  22.892   3.590   9.916 -0.0359 -0.0195  0.0069
    1WF      WF61744   4.353  13.060   7.774 -0.1973  0.1324  0.2574
    1WF      WF61745  26.093  26.330   2.236  0.3128  0.2297 -0.2372
    1WF      WF61746  19.793  21.409   8.986  0.0462  0.2377 -0.1671
    1WF      WF61747  25.852  22.574   9.324  0.1676  0.0413 -0.2298
    1WF      WF61748  11.053   7.964   0.081 -0.1785  0.0343  0.1614
    1WF      WF61749  17.710  13.791   9.903  0.0036 -0.1446 -0.2397
    1WF      WF61750   4.517  26.586   8.469 -0.0295  0.5441 -0.0361
    1WF      WF61751   3.080  11.682   1.659  0.1743  0.2917 -0.1381
    1WF      WF61752   4.968  27.541   0.083 -0.0803 -0.2062  0.1072
    1WF      WF61753  17.176  20.254   9.657 -0.0510 -0.2337 -0.0686
    1WF      WF61754  22.972  19.457   1.029  0.1586 -0.1132 -0.1081
    1WF      WF61755  18.613  15.822   2.667 -0.0813 -0.1936  0.1784
    1WF      WF61756  26.200  20.848   9.582 -0.1017 -0.1102  0.0311
    1WF      WF61757  21.378  10.240   7.052 -0.2693 -0.0992 -0.0238
    1WF      WF61758  13.857  17.830   8.771  0.0091  0.0865  0.1567
    1WF      WF61759   6.764  21.944   1.433  0.2242  0.2266  0.0765
    1WF      WF61760   9.846   8.740   2.125 -0.1353 -0.3604 -0.0222
    1WF      WF61761   3.278   4.942   8.128 -0.1006  0.2504 -0.0228
    1WF      WF61762   7.946  16.922   1.342 -0.0410 -0.0502  0.1214
    1WF      WF61763   5.973  21.580   7.177 -0.0215 -0.2282  0.2660
    1WF      WF61764  26.990  13.464   8.337  0.0815 -0.2373  0.2967
    1WF      WF61765   7.891  24.198  10.172  0.0064 -0.2199 -0.3060
    1WF      WF61766  27.922   1.129   9.092  0.0555  0.2698  0.0029
    1WF      WF61767   1.686  27.770   1.392  0.1320  0.0460  0.1008
    1WF      WF61768  23.782   1.352   7.053  0.0214 -0.1093 -0.1090
    1WF      WF61769   8.348   6.925   2.846 -0.2881  0.3637  0.0083
    1WF      WF61770   0.819   7.310   0.761 -0.2161  0.1315 -0.0042
    1WF      WF61771  15.339  15.637   0.839 -0.3062  0.1903 -0.1504
    1WF      WF61772  19.106   5.467   7.212 -0.1839  0.2825  0.0090
    1WF      WF61773  26.180   2.359   6.961  0.0298  0.0760 -0.2115
    1WF      WF61774  13.677   8.952   1.428 -0.3992  0.0586  0.0086
    1WF      WF61775  26.179   1.863   8.422  0.1991 -0.2479 -0.0361
    1WF      WF61776  27.014   6.373   9.774 -0.1774  0.0855 -0.1952
    1WF      WF61777   9.605  22.772   7.089  0.0325  0.0856  0.0145
    1WF      WF61778  13.399  13.284   1.920  0.4437  0.4185 -0.0619
    1WF      WF61779  14.211  18.333   0.135 -0.0754  0.0367 -0.1029
    1WF      WF61780  24.798  27.341   0.074 -0.0706 -0.2177  0.1673
    1WF      WF61781   5.954   8.303   0.425 -0.1446  0.0545 -0.1235
    1WF      WF61782  26.149  12.911   9.620  0.1118 -0.0725 -0.2188
    1WF      WF61783  15.539  17.513   0.985 -0.0755 -0.0356  0.0183
    1WF      WF61784   4.161  22.307   1.960  0.1145  0.0729  0.1742
    1WF      WF61785   0.662   3.823   2.272 -0.1372 -0.0459 -0.0481
    1WF      WF61786   4.308  11.384   1.845  0.2730  0.1906  0.0341
    1WF      WF61787  25.255   4.085   0.698  0.3578  0.0900 -0.0319
    1WF      WF61788  19.962  16.051   0.731  0.3670 -0.3423 -0.2153
    1WF      WF61789  21.648  23.809   0.434 -0.4420 -0.0395 -0.0265
    1WF      WF61790   4.668  11.990   0.815  0.2132  0.0372  0.0143
    1WF      WF61791  10.376   1.369   9.703  0.1282 -0.0775  0.0797
    1WF      WF61792  11.322  16.777   1.007  0.2806 -0.0053  0.0757
    1WF      WF61793  18.271   9.901   0.658  0.4301  0.1955  0.1211
    1WF      WF61794  14.969   0.772   9.271 -0.5495 -0.1377  0.2997
    1WF      WF61795  19.926  24.295   2.639  0.0755 -0.2477 -0.0052
    1WF      WF61796  20.762  16.167   0.198  0.1361 -0.0166 -0.0237
    1WF      WF61797  26.052   5.510   0.096  0.0026  0.4350  0.3920
    1WF      WF61798  26.040  25.907   0.103  0.1743 -0.2748 -0.0641
    1WF      WF61799  10.387  17.892   1.093  0.0936  0.0819  0.0149
    1WF      WF61800   3.110  16.458   1.108 -0.0790  0.3149 -0.0269
    1WF      WF61801   8.500  16.223   9.983  0.3080 -0.1425  0.4166
    1WF      WF61802  19.859  18.171   2.330 -0.3565  0.0760  0.0382
    1WF      WF61803  11.362  22.834   9.802 -0.0730  0.1883 -0.1007
    1WF      WF61804   6.015  19.354   3.129 -0.0360  0.0527 -0.0153
    1WF      WF61805  16.903   5.627   0.926  0.0037  0.0169 -0.2205
    1WF      WF61806  17.607  27.170   8.581  0.0921 -0.2829  0.0851
    1WF      WF61807  22.556  22.044  10.159  0.1265 -0.1575  0.0019
    1WF      WF61808  12.141  24.442   6.298  0.1965  0.1176 -0.0805
    1WF      WF61809   7.643   1.482   1.565  0.0675 -0.2249 -0.0677
    1WF      WF61810  18.741  17.223   7.059  0.0746 -0.0950 -0.0667
    1WF      WF61811   3.270   3.419   8.758 -0.0506  0.1034  0.1203
    1WF      WF61812  18.903  27.758   1.556 -0.0285  0.0281  0.0274
    1WF      WF61813  17.481  20.662   3.520 -0.1607 -0.0252  0.0135
    1WF      WF61814   4.398  19.932   7.086 -0.0979  0.0606 -0.0273
    1WF      WF61815  25.421   0.462   1.506 -0.4055  0.1382 -0.1675
    1WF      WF61816  17.798   3.733   1.882 -0.1086  0.2422 -0.0060
    1WF      WF61817   5.494  21.449   0.214 -0.0016 -0.1767 -0.2747
    1WF      WF61818  18.264   3.476   8.020 -0.0928 -0.0505 -0.0787
    1WF      WF61819  16.193  18.278   0.015  0.0423  0.1014 -0.0975
    1WF      WF61820   4.104  25.498   1.350  0.3236 -0.0538 -0.0869
    1WF      WF61821   9.391   9.260   8.706 -0.0480 -0.2027 -0.0729
    1WF      WF61822  22.864   3.651   0.018 -0.0158 -0.1783  0.1705
    1WF      WF61823   9.059   1.415   0.353  0.0263 -0.0324  0.1891
    1WF      WF61824   2.936   8.986  10.087 -0.2489  0.1036  0.2212
    1WF      WF61825  21.919  24.009   0.075  0.0618 -0.0371  0.0427
    1WF      WF61826  14.062  23.099   9.429 -0.1782 -0.0973 -0.0930
    1WF      WF61827  23.183   2.440   1.402  0.2338  0.0106  0.0559
    1WF      WF61828  14.692   9.664   7.901  0.0935 -0.0427  0.2623
    1WF      WF61829  11.747   6.958   9.283  0.0626  0.1302 -0.2621
    1WF      WF61830  15.988  13.329   2.641  0.2359  0.3451  0.4011
    1WF      WF61831  25.289  13.806   6.777  0.1842  0.2096  0.1190
    1WF      WF61832  24.270   3.840   1.050 -0.0466 -0.2229 -0.2529
    1WF      WF61833   1.420  17.800   8.470 -0.1389  0.1753  0.1827
    1WF      WF61834   9.874  26.897   7.795  0.0675 -0.1430  0.3158
    1WF      WF61835   0.624  23.412  10.262 -0.1958  0.1455 -0.3097
    1WF      WF61836  14.021  18.615   1.697  0.2198 -0.0134  0.1128
    1WF      WF61837  14.532  13.797   9.522 -0.0643 -0.2728 -0.0611
    1WF      WF61838   8.040   7.203   2.574  0.1346 -0.3393 -0.0841
    1WF      WF61839  10.525  15.042   1.578  0.3003  0.1747  0.3820
    1WF      WF61840  19.146   4.411  10.334 -0.1055  0.3072 -0.1517
    1WF      WF61841  11.428   9.974   1.063  0.3370 -0.0645  0.3273
    1WF      WF61842  26.014  14.120   0.622  0.0691 -0.2243  0.3569
    1WF      WF61843  14.241   6.139  10.257  0.0552 -0.0446 -0.2794
    1WF      WF61844  12.162   5.688  10.175  0.1399  0.1883 -0.0246
    1WF      WF61845   2.211  23.301   2.828  0.0022  0.0976  0.4010
    1WF      WF61846  27.283   9.272   7.689  0.0522  0.4338  0.1957
    1WF      WF61847  22.273  12.648   8.095 -0.0985  0.0972  0.2510
    1WF      WF61848  25.701   7.605   8.928 -0.0005  0.0839 -0.2865
    1WF      WF61849  23.821  16.695  10.278  0.5177 -0.1588  0.3290
    1WF      WF61850  17.193  17.010   9.527  0.0836  0.0151  0.0439
    1WF      WF61851   3.275  15.988   9.760  0.1625  0.2200 -0.2131
    1WF      WF61852   1.711  13.663  10.244 -0.0161  0.2420  0.3781
    1WF      WF61853  16.829  23.695   9.205  0.1027 -0.0157  0.0636
    1WF      WF61854  26.841  13.241   7.881  0.1863 -0.2039 -0.1061
    1WF      WF61855   3.905  17.111   1.899  0.2068 -0.1594  0.1215
    1WF      WF61856  18.400   4.650   3.643  0.1224 -0.1296  0.0811
    1WF      WF61857   3.468  15.102   6.653  0.3252  0.0126  0.1555
    1WF      WF61858  10.453  17.641   0.616  0.1732  0.0753  0.2404
    1WF      WF61859  11.788  16.961   1.152  0.0605 -0.2652  0.0843
    1WF      WF61860   0.711  18.866   2.221 -0.1643 -0.2479 -0.2262
    1WF      WF61861  21.231  25.938   1.286 -0.2216 -0.0571  0.0925
    1WF      WF61862  13.924  11.228   1.751  0.0365 -0.0719 -0.0710
    1WF      WF61863  11.178  13.888   8.740 -0.3141 -0.0469 -0.2485
    1WF      WF61864   2.906   8.868   9.584 -0.1501  0.2275  0.2364
    1WF      WF61865   3.769   4.431  10.305 -0.0818  0.2640  0.3080
    1WF      WF61866   9.422  16.633   8.288 -0.2922  0.4698 -0.0008
    1WF      WF61867  18.976  22.228   8.850  0.0448 -0.3178  0.3898
    1WF      WF61868  13.720  22.864   2.290  0.0023 -0.1051  0.0876
    1WF      WF61869  25.543   4.296   7.743 -0.2740  0.2219  0.2116
    1WF      WF61870  19.068   7.825   1.579  0.3014 -0.3933 -0.1520
    1WF      WF61871  21.807   4.633   6.677  0.0170  0.1356 -0.2886
    1WF      WF61872  25.214   8.594   9.775  0.0627  0.2900  0.0303
    1WF      WF61873  12.479  17.781   8.689  0.0094  0.1271 -0.1477
    1WF      WF61874  13.682  15.718   1.106  0.2338  0.1788  0.1907
    1WF      WF61875   5.946  23.131   1.377  0.2957 -0.0296  0.1196
    1WF      WF61876  13.220  11.005  10.339  0.0709  0.1461  0.0351
    1WF      WF61877   1.369  10.606   9.829  0.1041 -0.0792  0.0606
    1WF      WF61878   9.058   2.275   1.957 -0.0325  0.1279  0.3011
    1WF      WF61879   9.533   4.519   1.801  0.0187  0.0710 -0.0729
    1WF      WF61880  20.685  20.652   1.558  0.0625  0.0651  0.1031
    1WF      WF61881  10.241   6.162   0.116  0.1788  0.1111 -0.1252
    1WF      WF61882  11.237  16.284   0.890 -0.0504  0.1093 -0.1117
    1WF      WF61883  27.522  20.593   0.052 -0.2816 -0.0481 -0.1961
    1WF      WF61884  11.546  20.895   8.625  0.0893  0.4998  0.4239
    1WF      WF61885  14.839  12.716   1.572 -0.0035 -0.2031  0.0337
    1WF      WF61886  17.184  25.056   8.260 -0.1541  0.2129  0.0325
    1WF      WF61887  11.602   9.488  10.346  0.1854  0.1403  0.2842
    1WF      WF61888   1.296  20.666   9.998 -0.1659 -0.3735 -0.3240
    1WF      WF61889  17.675  14.024   1.347  0.1764 -0.1294 -0.2108
    1WF      WF61890   4.399  11.738   1.159  0.2572 -0.0890 -0.1227
    1WF      WF61891  26.972  12.297   1.744  0.1515  0.0279  0.6070
    1WF      WF61892  15.387  24.827   9.859  0.2636 -0.0717 -0.0157
    1WF      WF61893  20.265   9.239   9.991 -0.0179  0.2335 -0.0652
    1WF      WF61894  10.382  21.267   9.567 -0.0345  0.0320  0.0786
    1WF      WF61895   8.527  27.641   8.990 -0.1548  0.4558 -0.1043
    1WF      WF61896  27.646  21.072  10.359 -0.0997  0.2448  0.3980
    1WF      WF61897   2.867  16.008   0.884  0.2609  0.1720 -0.2436
    1WF      WF61898  15.440   5.100   9.152 -0.1728 -0.0073  0.1558
    1WF      WF61899  14.420  21.458   9.087  0.0855  0.1051 -0.0067
    1WF      WF61900   0.423   9.093   7.387 -0.1627  0.2112  0.1422
    1WF      WF61901   6.285   4.750   7.756 -0.3176 -0.0804 -0.0436
    1WF      WF61902  27.619   2.415   0.732  0.2490  0.0899  0.2210
    1WF      WF61903   1.968   5.867   1.900 -0.1795  0.1659 -0.3110
    1WF      WF61904  11.579  16.960  10.241 -0.0797  0.0891  0.0364
    1WF      WF61905  13.428   9.328   1.178 -0.1081  0.2788 -0.0768
    1WF      WF61906  18.615  23.095   1.087  0.3273 -0.0097  0.2812
    1WF      WF61907  11.509  27.868   7.623  0.2079  0.0363 -0.1138
    1WF      WF61908  25.222   7.044  10.129  0.1875  0.0088 -0.0422
    1WF      WF61909   3.508   1.684   1.363  0.2254 -0.0210 -0.1208
    1WF      WF61910  23.999  27.744   3.042  0.0736 -0.0672 -0.1193
    1WF      WF61911   8.081  18.462   0.566 -0.3046 -0.1106 -0.0188
    1WF      WF61912   4.391  13.191   9.686 -0.0341  0.0387  0.1805
    1WF      WF61913  19.157  25.574   1.531 -0.1746  0.2904 -0.1832
    1WF      WF61914  25.246  27.344  10.175  0.0261  0.2782 -0.1017
    1WF      WF61915  11.289  12.361  10.064  0.2929  0.3332 -0.1281
    1WF      WF61916   7.646   9.241   7.472  0.1734 -0.0931 -0.2732
    1WF      WF61917   4.193   8.170   0.073  0.1349  0.4355 -0.0314
    1WF      WF61918  17.647   3.890   9.573  0.1634  0.0294 -0.1379
    1WF      WF61919   6.543  27.832   7.262 -0.0724 -0.0887  0.1859
    1WF      WF61920  25.191  20.939   8.440 -0.2349  0.1325 -0.1213
    1WF      WF61921  18.758  26.711   1.240 -0.0165 -0.0377 -0.3856
    1WF      WF61922  21.919   9.090   1.235  0.1971  0.0373  0.1930
    1WF      WF61923   3.126  18.931   9.690 -0.0616 -0.0205  0.1085
    1WF      WF61924  25.928   5.306   9.995  0.0328  0.1118  0.1441
    1WF      WF61925   4.073   5.514  10.343  0.2576 -0.1836  0.0160
    1WF      WF61926  10.561   3.669   0.400  0.2246 -0.0111  0.0785
    1WF      WF61927  15.436   0.929   9.953  0.1569  0.0896 -0.2115
    1WF      WF61928   1.417   6.151  10.222 -0.0477  0.2202 -0.2993
    1WF      WF61929   0.521  26.472   7.976  0.1401 -0.1771 -0.0396
    1WF      WF61930  19.739  24.384   1.490 -0.0164 -0.1946  0.1404
    1WF      WF61931  24.599  24.606   2.091  0.0772 -0.1091  0.2208
    1WF      WF61932  15.361   1.422   9.980 -0.2373  0.2728  0.0366
    1WF      WF61933  22.334  13.557   1.053 -0.1790 -0.3242 -0.2127
    1WF      WF61934  24.031  25.289   7.973 -0.0601  0.1559 -0.0748
    1WF      WF61935  10.937   6.738   0.115 -0.1089  0.0238  0.0825
    1WF      WF61936   9.967  20.791   0.557 -0.6464  0.1677 -0.3047
    1WF      WF61937   0.737  19.380   0.777  0.0294  0.0939 -0.0962
    1WF      WF61938   6.777  22.259   0.942 -0.1142  0.1522 -0.3027
    1WF      WF61939   8.034  27.969   2.502  0.0670  0.0264 -0.1112
    1WF      WF61940  18.157   0.924   8.600 -0.0376  0.1010  0.1246
    1WF      WF61941  27.458  25.602   1.223 -0.1216 -0.0051 -0.0593
    1WF      WF61942  14.612   8.052   2.266  0.2584 -0.1042  0.0811
    1WF      WF61943  15.064  18.084   2.807 -0.2460  0.2418 -0.1128
    1WF      WF61944  11.323  12.743   9.717 -0.0051  0.2292  0.0791
    1WF      WF61945  10.798  12.597   1.795 -0.1237 -0.1447  0.1995
    1WF      WF61946  13.887  25.777   1.552  0.1234 -0.0469  0.4031
    1WF      WF61947  16.460  17.295   9.620  0.0332  0.0954  0.1595
    1WF      WF61948  16.113   4.040   1.422  0.0449 -0.3020 -0.0440
    1WF      WF61949  16.580  26.550   1.793  0.2555  0.0566 -0.1150
    1WF      WF61950  14.363  22.652   6.626  0.1105  0.2938  0.1471
    1WF      WF61951   3.324   0.462   7.532  0.1360 -0.2014 -0.0788
    1WF      WF61952  27.511  10.947   1.400  0.4102  0.1574  0.2321
    1WF      WF61953  17.029  20.095   9.152  0.1593 -0.0256  0.0065
    1WF      WF61954  24.482  19.861   0.194  0.2066  0.1634  0.2138
    1WF      WF61955   2.241  23.515   2.342  0.3357  0.0645 -0.1769
    1WF      WF61956   4.661  26.116   8.577 -0.1417  0.0632 -0.1512
    1WF      WF61957   3.506  27.615   2.419 -0.1523  0.0126  0.2032
    1WF      WF61958  16.030  23.945   9.936  0.0550 -0.2033 -0.0856
    1WF      WF61959   7.018  14.452   1.309  0.0250  0.1123  0.0215
    1WF      WF61960  10.618   4.611   2.395  0.0021  0.1703 -0.1627
    1WF      WF61961   5.076  24.744   2.073  0.1514  0.0717  0.0248
    1WF      WF61962  22.873  11.950   1.808  0.0790 -0.1153 -0.2940
    1WF      WF61963  24.426  25.057   2.317 -0.2628 -0.1067  0.0871
    1WF      WF61964  25.182  19.250   0.263  0.1112  0.0651 -0.1393
    1WF      WF61965   3.374   8.770   9.451 -0.0366 -0.1301 -0.0313
    1WF      WF61966  26.696   6.034   9.514 -0.0540  0.1602 -0.4844
    1WF      WF61967  13.568  22.127   8.911 -0.2778 -0.0948  0.1955
    1WF      WF61968   3.342  22.251   6.959 -0.2833  0.1190  0.0945
    1WF      WF61969   7.095  12.209   0.535  0.1553  0.0267 -0.4456
    1WF      WF61970   1.424  26.562  10.338  0.0355 -0.0775  0.0024
    1WF      WF61971  25.207  12.658   8.565  0.0515 -0.1516  0.0273
    1WF      WF61972   6.397  12.621   2.243 -0.0270 -0.0025 -0.0178
    1WF      WF61973  14.000  22.040   1.404  0.0853  0.1703 -0.1360
    1WF      WF61974  25.993  11.243   7.713 -0.3799 -0.0507  0.2728
    1WF      WF61975  17.042   9.980   8.686  0.2630  0.1390  0.1669
    1WF      WF61976  17.365  19.871   8.785 -0.0625  0.1395 -0.2338
    1WF      WF61977   4.563  23.171  10.208  0.0626  0.3726 -0.1754
    1WF      WF61978  14.353  17.521   8.688 -0.0494  0.1359 -0.0320
    1WF      WF61979  11.041  26.627   1.680  0.0525  0.1314 -0.2665
    1WF      WF61980  27.508  18.269   9.909  0.0992 -0.0712  0.0607
    1WF      WF61981  20.613   2.034   9.969  0.1390  0.0146 -0.2690
    1WF      WF61982   8.670  13.564   9.896 -0.0135 -0.1172  0.1551
    1WF      WF61983  14.328   4.313   9.577  0.1132 -0.2692 -0.1780
    1WF      WF61984   3.076  23.879   0.962 -0.3164  0.0857  0.0082
    1WF      WF61985  14.841   9.248   2.816 -0.3644 -0.3126  0.1147
    1WF      WF61986  19.226   5.879   1.174 -0.1249  0.0855 -0.1262
    1WF      WF61987   5.408   6.299   0.203 -0.0167  0.0813 -0.1056
    1WF      WF61988  23.272  24.945   2.515 -0.2613  0.3989 -0.0297
    1WF      WF61989  24.092  26.435  10.253  0.1773 -0.0309 -0.0971
    1WF      WF61990  16.848  22.290  10.087 -0.2913 -0.1164  0.0323
    1WF      WF61991   8.118   5.401   8.888  0.0704 -0.0787 -0.0627
    1WF      WF61992  10.712   3.041   2.145 -0.2461  0.1940 -0.1119
    1WF      WF61993  21.212  20.801   0.403 -0.1392 -0.2425  0.2010
    1WF      WF61994  27.690   5.384   8.939 -0.1691  0.1288  0.2972
    1WF      WF61995  12.919   5.440   9.621  0.3218 -0.1762 -0.3120
    1WF      WF61996   6.014   1.664   8.063 -0.4383 -0.1260 -0.1403
    1WF      WF61997   0.379  14.665   7.540  0.0312  0.0327 -0.1795
    1WF      WF61998  16.859  10.484   8.653 -0.2831 -0.4206 -0.0993
    1WF      WF61999   6.732  23.699   8.546  0.0583 -0.3673 -0.1590
    1WF      WF62000  25.042  24.013   7.585  0.1557 -0.0389 -0.2644
    1WF      WF62001   5.955   2.145   8.219  0.0972 -0.0614 -0.2574
    1WF      WF62002  24.215   4.224   2.578 -0.0217 -0.1834 -0.0685
    1WF      WF62003  10.854  17.484   0.275 -0.1483 -0.2957 -0.1616
    1WF      WF62004   2.537  20.727   8.890  0.2305  0.0075  0.3893
    1WF      WF62005   2.812  16.317   8.981 -0.0053 -0.1843 -0.1401
    1WF      WF62006  19.324  23.140  10.000  0.0538 -0.3533  0.1768
    1WF      WF62007  11.778  20.850   1.848 -0.2400  0.4055 -0.1347
    1WF      WF62008  16.464   0.749   1.655  0.3214  0.0095 -0.2444
    1WF      WF62009  17.316  28.062   3.978 -0.3663 -0.0980  0.0667
    1WF      WF62010  18.843  17.474   9.493 -0.4607  0.4049  0.0425
    1WF      WF62011  27.961  10.758   7.040 -0.1708 -0.1166  0.0857
    1WF      WF62012   4.911   4.750   0.195 -0.0471 -0.0178 -0.0371
    1WF      WF62013  16.554   7.715   8.718 -0.1737 -0.0866 -0.0036
    1WF      WF62014  13.877  25.482   8.840 -0.0239 -0.2989 -0.2399
    1WF      WF62015  26.679  14.409   7.677 -0.0200  0.1522 -0.0682
    1WF      WF62016   5.309  22.582   8.582  0.1044  0.1742  0.0565
    1WF      WF62017  24.727  21.909   6.753  0.1619  0.1501 -0.1862
    1WF      WF62018  21.254  22.451   0.948  0.4232 -0.3478  0.2013
    1WF      WF62019   5.826  11.305   0.302  0.0000  0.0256  0.1229
    1WF      WF62020   2.408  17.116   1.906 -0.1192  0.0306  0.0356
    1WF      WF62021  26.903   6.313  10.348  0.2198  0.2313 -0.1512
    1WF      WF62022  17.799  13.940   8.728  0.0388  0.0601 -0.3907
    1WF      WF62023   2.843  17.486   7.104 -0.1965 -0.2336  0.0298
    1WF      WF62024  13.904   4.120   9.783  0.0329  0.1515 -0.0438
    1WF      WF62025   4.931   6.271  10.294 -0.4426 -0.2998  0.2428
    1WF      WF62026   1.853   1.298   8.527  0.2439  0.0969 -0.0751
    1WF      WF62027   2.641  18.237   7.980  0.1087 -0.1818  0.2783
    1WF      WF62028  19.088   1.131   1.864 -0.1994 -0.1095  0.1788
    1WF      WF62029  17.551  13.430   8.907 -0.0342 -0.2611  0.1121
    1WF      WF62030   2.613   8.017   7.483  0.1677  0.0334  0.2219
    1WF      WF62031  13.390   2.981   8.276 -0.0970 -0.1185  0.1945
    1WF      WF62032   0.800  15.008   2.958  0.1399 -0.0423  0.0722
    1WF      WF62033  17.379  20.184   0.965 -0.0862  0.0870 -0.1329
    1WF      WF62034  12.302  16.932   1.119  0.1417 -0.0108  0.1236
    1WF      WF62035  14.660  21.848   2.005  0.0349 -0.1572 -0.2342
    1WF      WF62036   4.628  23.578   0.917 -0.1971  0.0184  0.0953
    1WF      WF62037  14.520   3.154   1.990  0.1178  0.0190 -0.0448
    1WF      WF62038  16.647   1.729   1.749  0.0716 -0.0556  0.1727
    1WF      WF62039   6.012   4.989   8.074  0.0615 -0.1607 -0.1379
    1WF      WF62040   1.723  18.037   8.847  0.4344 -0.0003 -0.2344
    1WF      WF62041  26.407   4.391   8.736 -0.1371  0.1067 -0.0866
    1WF      WF62042  16.999  23.317   8.923 -0.3255  0.1510  0.1396
    1WF      WF62043  27.173   3.750   9.680  0.0603 -0.2480 -0.0199
    1WF      WF62044   0.417  12.363   9.489 -0.1485  0.0993  0.1327
    1WF      WF62045  21.162  10.519   1.369 -0.1986 -0.0335 -0.2738
    1WF      WF62046   7.970   8.244   0.740 -0.2202 -0.0128 -0.1012
    1WF      WF62047  23.509  26.213   1.394 -0.2586  0.0551 -0.2562
    1WF      WF62048  27.628   1.158   8.171 -0.0216  0.2953  0.0342
    1WF      WF62049   6.847  18.017   9.988  0.0283 -0.0735 -0.0054
    1WF      WF62050   6.315  18.604   1.233  0.0863  0.0778 -0.0586
    1WF      WF62051   4.675  26.202  10.300  0.1983 -0.0198  0.2836
    1WF      WF62052   4.548  26.717   0.755  0.3296 -0.0378  0.4278
    1WF      WF62053  26.588  25.178   2.559  0.3240  0.0937 -0.0407
    1WF      WF62054  25.447   2.985   0.544 -0.0291  0.0178  0.2339
    1WF      WF62055   2.204   6.803   9.553 -0.1396  0.2432  0.3055
    1WF      WF62056   3.298  20.061   8.799  0.1364 -0.2520 -0.0323
    1WF      WF62057  21.223  24.549   4.055 -0.1472 -0.0408  0.1175
    1WF      WF62058   1.288  22.605   6.826 -0.2962 -0.1038 -0.1171
    1WF      WF62059  14.674   2.994   8.606 -0.0797 -0.3278  0.3416
    1WF      WF62060   2.190  27.916   0.531 -0.0562  0.2282 -0.1250
    1WF      WF62061   3.770  13.107   0.972 -0.0686 -0.0506  0.1558
    1WF      WF62062  11.728   9.744   9.423 -0.1742 -0.0052  0.1752
    1WF      WF62063  19.687   2.449   6.338 -0.2629 -0.0552  0.0051
    1WF      WF62064  17.267  23.705   2.156 -0.2096 -0.0530 -0.0003
    1WF      WF62065   3.859   6.648   1.420  0.1075 -0.0172  0.0786
    1ION     NA62066  15.342  20.033   9.712 -0.0554 -0.0285  0.3981
    1ION     NA62067   4.671   0.732   9.830 -0.1471  0.0335 -0.2181
    1ION     NA62068  22.602  18.096   8.440 -0.2047 -0.0356 -0.1864
    1ION     NA62069  20.159  12.188   9.783  0.0048 -0.2089 -0.2190
    1ION     NA62070   2.388  24.628   9.555 -0.2143 -0.3421 -0.0571
    1ION     NA62071  25.999  15.050   7.769 -0.1337 -0.1549 -0.1230
    1ION     NA62072  19.393   7.841   6.994  0.0875 -0.0081  0.0106
    1ION     NA62073  20.395   8.650   9.909 -0.1004 -0.1762 -0.1499
    1ION     NA62074   1.512  27.473   9.981 -0.2385  0.0425 -0.5288
    1ION     NA62075  23.916  20.282   3.128  0.2858 -0.2076 -0.1484
    1ION     NA62076  13.515   1.561  10.236 -0.1553 -0.3381 -0.2194
    1ION     NA62077  20.118   4.967   8.114  0.1515  0.0401 -0.0104
    1ION     NA62078  16.587   3.651   0.557  0.1691  0.2438  0.0253
    1ION     NA62079   0.890  26.030   2.908  0.4966  0.0719  0.1407
    1ION     NA62080  14.355  11.542   3.830  0.2295 -0.0708 -0.0363
    1ION     NA62081  23.891  26.187   8.598 -0.1325 -0.1236  0.1507
    1ION     NA62082  15.333   4.620  10.069 -0.2284 -0.3163 -0.0207
    1ION     NA62083   4.275   2.626   8.992 -0.0617  0.0509  0.2464
    1ION     NA62084  14.328  16.436   3.881 -0.2002 -0.1815 -0.1280
    1ION     NA62085  13.626  23.232   0.623 -0.2507  0.0482  0.1148
    1ION     NA62086   0.825  26.365   0.875  0.4154  0.3525 -0.4009
    1ION     NA62087   5.607  25.217   0.712 -0.0778  0.0176 -0.1463
    1ION     NA62088  15.319   1.542   0.682  0.0038 -0.2192 -0.0999
    1ION     NA62089  25.298  13.010   8.184 -0.0755 -0.2932 -0.0057
    1ION     NA62090   1.149  26.051   6.850  0.1112 -0.0779  0.3719
    1ION     NA62091  14.088   9.865   3.736 -0.2342  0.0999 -0.0054
    1ION     NA62092  18.433  22.785   8.744 -0.2781  0.1548 -0.0559
    1ION     NA62093   5.296  11.173   3.449 -0.4244 -0.3414  0.0077
    1ION     NA62094  18.498  26.414   1.573 -0.1020 -0.1673  0.0560
    1ION     NA62095   6.303   0.144   8.202  0.1003  0.2927  0.2280
    1ION     NA62096  13.961  13.447   2.056 -0.0118  0.1984 -0.1509
    1ION     NA62097  26.580   8.727   2.795  0.0982  0.0122 -0.0100
    1ION     NA62098  15.887   6.154   8.809  0.1982  0.1875 -0.1103
    1ION     NA62099   8.010   5.845   9.021  0.0012  0.2931 -0.0860
    1ION     NA62100  20.962  19.069   1.051  0.0150 -0.1047  0.0928
    1ION     NA62101  21.825   7.333   2.411  0.1298 -0.0993  0.0962
    1ION     NA62102  19.401  17.043   7.380 -0.3077 -0.0385  0.4401
    1ION     NA62103  12.115   5.663   3.579  0.0223  0.1052  0.0176
    1ION     NA62104   7.462   2.864   8.257 -0.0649  0.0349  0.0185
    1ION     NA62105  12.082  23.871   2.988 -0.0463 -0.1112 -0.1798
    1ION     NA62106  15.490  10.387   7.342 -0.2720  0.0376  0.1854
    1ION     NA62107  24.880   6.280   3.020  0.0891 -0.1803  0.2042
    1ION     NA62108  26.325   2.643   9.243 -0.0050 -0.0528  0.0093
    1ION     NA62109   8.043  13.704   1.629  0.0322  0.3027  0.1258
    1ION     NA62110  14.286  19.218   7.885  0.1324 -0.1702 -0.0762
    1ION     NA62111  18.341  23.176   0.626  0.1349  0.0284 -0.0765
    1ION     NA62112  17.748   5.518   3.354  0.3350  0.0028  0.0003
    1ION     NA62113   8.789  27.817   2.598 -0.2495 -0.1554  0.1173
    1ION     NA62114  13.798  13.024   8.015 -0.1866 -0.0074 -0.3385
    1ION     NA62115  17.342   6.641   9.057 -0.0942  0.2115  0.0567
    1ION     NA62116  25.289  14.658   2.270 -0.2904  0.3414 -0.1799
    1ION     NA62117   8.358  18.364   7.627 -0.0621  0.2264  0.3723
    1ION     NA62118  18.767  22.736   7.050 -0.1313  0.3356  0.0031
    1ION     NA62119   8.031  12.982   2.092  0.1302  0.0603  0.4353
    1ION     NA62120  18.119   9.144   8.788  0.1360 -0.3842  0.3382
    1ION     NA62121  24.708   0.163   9.944 -0.2440 -0.2102  0.3869
    1ION     NA62122  23.252   6.133   3.117 -0.2190  0.0965  0.0983
    1ION     NA62123  27.479   9.169   6.550  0.0525  0.0510 -0.2522
    1ION     NA62124  14.227  13.637   9.969 -0.1435  0.3346 -0.2327
    1ION     NA62125  23.931   1.995   3.059  0.2162 -0.0995 -0.2513
    1ION     NA62126   5.000   9.568   8.340 -0.1284  0.0544 -0.0619
    1ION     NA62127  14.241  20.470   3.209  0.0660  0.0826 -0.2847
    1ION     NA62128   5.549  23.052   2.959 -0.1148  0.4564  0.0742
    1ION     NA62129   6.471   9.935   8.907  0.0190 -0.0656  0.1376
    1ION     NA62130   5.568   3.039   7.285 -0.0776 -0.0674 -0.1968
    1ION     NA62131  21.264  25.663   3.626  0.0201  0.0257  0.1678
    1ION     NA62132  17.549  11.053   2.520  0.0725  0.0685 -0.0021
    1ION     NA62133  16.402   2.122   2.230 -0.1093  0.0393 -0.0842
    1ION     NA62134   8.810  21.538   3.222 -0.0466  0.1881  0.0051
    1ION     NA62135  14.565   3.622   0.135  0.0485 -0.0212 -0.0713
    1ION     NA62136  10.979  24.450   7.387 -0.2194  0.0948  0.0930
    1ION     NA62137  22.282  13.053   9.235 -0.0260  0.2734 -0.3836
    1ION     NA62138   1.694  23.988  10.128  0.1943 -0.0612 -0.1761
    1ION     NA62139  25.446  11.467  10.023  0.1509  0.0280  0.2773
    1ION     NA62140   9.468  25.146   2.411  0.1234 -0.0258 -0.3061
    1ION     NA62141   9.426  27.006   8.010  0.3846  0.0462  0.0386
    1ION     NA62142  15.349  26.798   7.520  0.0067 -0.0270 -0.0959
    1ION     NA62143  22.776  13.882   6.770 -0.1591 -0.1176 -0.0093
    1ION     NA62144   3.633  15.886   2.694  0.3018  0.0682 -0.0584
    1ION     NA62145  26.177   2.403   1.158 -0.4322 -0.2153  0.0808
    1ION     NA62146  21.296  12.491   1.143  0.0449 -0.1432  0.0440
    1ION     NA62147   3.772  23.698   1.775  0.2429  0.1896  0.1523
    1ION     NA62148   6.932   7.331   7.040  0.1954 -0.0692  0.0795
    1ION     NA62149  25.681   5.926   2.688  0.0743  0.4830  0.1323
    1ION     NA62150  25.269  26.503   1.335  0.1833 -0.1342  0.0975
    1ION     NA62151  11.011   9.622   8.679 -0.4386 -0.2461  0.2715
    1ION     NA62152   1.043  23.065   1.216 -0.1633  0.0250 -0.1005
    1ION     NA62153   8.483  23.683   7.135 -0.2321 -0.2095 -0.1610
    1ION     NA62154   6.429  26.537   9.123 -0.1326 -0.0178 -0.1234
    1ION     NA62155  14.998  24.803   9.578 -0.1381  0.2328  0.1897
    1ION     NA62156   3.975  25.469   2.337 -0.2213 -0.3052 -0.1159
    1ION     NA62157  25.913  17.544   2.925 -0.3169  0.0303 -0.0136
    1ION     NA62158   7.873  24.502   9.536  0.1503  0.4551 -0.3386
    1ION     NA62159  12.916  23.874   2.759 -0.2428 -0.0450  0.2535
    1ION     NA62160  27.067  16.752   6.858 -0.2880 -0.0665  0.1742
    1ION     NA62161   9.769  25.834   1.666 -0.1958 -0.1474 -0.0195
    1ION     NA62162   7.111  13.632   3.384 -0.2268  0.0416  0.1061
    1ION     NA62163   5.258   7.919   1.675  0.1568  0.4030 -0.0504
    1ION     NA62164   4.864  24.122   9.300  0.3172  0.0999  0.0915
    1ION     NA62165   4.629  24.367   6.703  0.0779  0.2190 -0.0913
    1ION     NA62166  10.641   7.459   8.916  0.2754 -0.3670  0.0174
    1ION     NA62167  26.444  28.043   2.952 -0.1545 -0.4963 -0.3287
    1ION     NA62168  21.169  22.866   1.770 -0.0904 -0.1456  0.2649
    1ION     NA62169  16.668   4.349  10.156 -0.0908  0.0359  0.2221
    1ION     NA62170   9.480  20.394   9.444 -0.2049 -0.0097  0.0271
    1ION     NA62171  16.682  12.742   1.347 -0.0632  0.2291 -0.3496
    1ION     NA62172  17.987  13.588   7.206 -0.3844  0.1333  0.0312
    1ION     NA62173   3.348   4.087   1.931 -0.0949  0.0004  0.0974
    1ION     NA62174   2.812  12.151   9.882 -0.0232  0.1747 -0.1161
    1ION     NA62175  23.697  16.133   2.052 -0.0121  0.1428  0.1160
    1ION     NA62176  25.965  18.639   0.207  0.3456  0.1438 -0.0619
    1ION     NA62177   0.431  22.468   1.426 -0.0799  0.2228 -0.1053
    1ION     NA62178   7.404   4.162   8.822 -0.0322 -0.0673  0.0119
    1ION     NA62179  25.605  12.648   2.979 -0.4402  0.2051  0.1889
    1ION     NA62180  19.789   9.742   1.665  0.0105 -0.2471 -0.2685
    1ION     NA62181   8.464  16.306   1.909  0.3826  0.0294 -0.0515
    1ION     NA62182  23.778   9.590   1.555  0.4407 -0.1689 -0.0026
    1ION     NA62183  12.005  26.250   9.337  0.1003 -0.1095  0.0576
    1ION     NA62184   7.639  12.546   0.660  0.1225  0.0595 -0.1063
    1ION     NA62185  19.013   9.692   7.127  0.1804 -0.0781 -0.1206
    1ION     NA62186   5.268  24.273   2.031 -0.1721 -0.1613  0.0722
    1ION     NA62187   1.222   7.015   8.839 -0.0282 -0.0538 -0.3696
    1ION     NA62188   6.718  11.260   6.969 -0.2988  0.1030 -0.1534
    1ION     NA62189   8.585   7.749   8.910 -0.0530 -0.2587  0.3336
    1ION     NA62190  18.057   8.558   0.912 -0.0105 -0.0973  0.0582
    1ION     NA62191   5.475  18.211   1.658  0.1455 -0.1011  0.5509
    1ION     NA62192   3.675   2.262   6.557  0.0397  0.1162 -0.2121
    1ION     NA62193  11.565  21.819   3.380  0.1697  0.1246  0.1374
    1ION     NA62194   1.856   1.686   7.953  0.0161 -0.1830 -0.0911
    1ION     NA62195  27.554   0.610   7.473  0.1823 -0.0060  0.2398
    1ION     NA62196  27.440  11.935   6.740 -0.3920  0.3448  0.0697
    1ION     NA62197  11.637  17.751   3.837  0.1368  0.3756 -0.1580
    1ION     NA62198   8.590  16.198   7.285  0.1985 -0.2480 -0.1428
    1ION     NA62199  10.828   8.560   3.489  0.3505  0.0731  0.1959
    1ION     NA62200  26.968  27.629   8.523 -0.0518  0.0846  0.0649
    1ION     NA62201  11.868  16.063   7.412 -0.0952 -0.1334  0.0511
    1ION     NA62202  15.216  22.956   3.230  0.0624 -0.1234  0.1950
    1ION     NA62203  10.105  25.629   2.142 -0.3575  0.0335 -0.2490
    1ION     NA62204  24.109  21.544   2.746 -0.0097 -0.0815 -0.1494
    1ION     NA62205  15.273  26.611   9.314  0.2158  0.2390 -0.1023
    1ION     NA62206  10.609   8.911   9.138 -0.0179 -0.0026 -0.2310
    1ION     NA62207  22.036  15.666   0.552  0.1040 -0.2106  0.0497
    1ION     NA62208  18.702  27.029   2.337  0.0679  0.1891  0.0636
    1ION     NA62209   9.843   3.650   8.173  0.1295 -0.1924  0.0229
    1ION     NA62210   6.746   1.009   6.581 -0.4464 -0.1595 -0.2276
    1ION     NA62211  15.587  15.209   0.690 -0.1696 -0.1518 -0.1962
    1ION     NA62212  11.794  15.104   3.968  0.1759  0.0052 -0.0081
    1ION     NA62213   0.398   4.482   9.735  0.0601 -0.0763 -0.0032
    1ION     NA62214  16.210  26.926   3.189 -0.0293  0.3023  0.0611
    1ION     NA62215   2.040  20.773   2.700 -0.1132  0.4621 -0.2137
    1ION     NA62216  23.623  17.273   2.509  0.0351  0.0231  0.0119
    1ION     NA62217  12.033   7.689   9.248  0.4106  0.1091 -0.0625
    1ION     NA62218  24.912  11.472   0.346  0.1301 -0.4788 -0.4327
    1ION     NA62219  21.867  12.974   3.447  0.1567 -0.1372  0.0141
    1ION     NA62220   0.128   3.813   5.986 -0.0912  0.1318  0.0126
    1ION     NA62221  23.379   7.818   3.027 -0.0077  0.2450  0.1163
    1ION     NA62222   2.238  13.601  10.332 -0.1191  0.0537 -0.3522
    1ION     NA62223  19.977   4.258   1.407  0.0285 -0.3453  0.0488
    1ION     NA62224   7.179  18.836   8.701  0.1865 -0.2091  0.0366
    1ION     NA62225  17.719  10.984   9.920 -0.1215 -0.2386 -0.0271
    1ION     NA62226  18.101  10.133   7.303  0.0795  0.0195  0.2524
    1ION     NA62227   3.139  20.653   0.907 -0.0222 -0.0511 -0.0353
    1ION     NA62228   2.367   0.425   8.068  0.1600 -0.4854  0.0358
    1ION     NA62229   0.153  27.722   9.726  0.1924 -0.0142  0.1841
    1ION     NA62230   1.106   1.272   7.969  0.1915  0.0359  0.0073
    1ION     NA62231   2.272  12.591   6.868 -0.3305  0.3788 -0.0984
    1ION     NA62232  14.346  15.669   7.262 -0.1027  0.0672  0.3327
    1ION     NA62233   9.603  10.111   7.919  0.0227  0.4412 -0.1052
    1ION     NA62234   8.036  12.344   9.411  0.0932  0.0536 -0.2552
    1ION     NA62235  20.328  16.599  10.354  0.4871 -0.0223  0.1330
    1ION     NA62236  19.419  14.712   0.507 -0.0885 -0.3035 -0.3262
    1ION     NA62237  11.068   0.899   3.369 -0.2185  0.0739  0.1664
    1ION     NA62238   0.928   3.617   1.848 -0.0194  0.1557  0.1132
    1ION     NA62239  12.689  23.954   6.716  0.0508  0.2659 -0.3899
    1ION     NA62240   5.155  27.065   6.718 -0.3497 -0.0254  0.3239
    1ION     NA62241  18.207   3.221   8.744  0.0193 -0.1389 -0.0206
    1ION     NA62242   0.761  18.576   8.365 -0.1727  0.1413  0.0258
    1ION     NA62243   6.917  15.944   1.043  0.0508 -0.4644 -0.0999
    1ION     NA62244  23.969  22.441   2.564 -0.1928  0.0762 -0.0062
    1ION     NA62245   3.199   2.804   0.646  0.0754 -0.1711  0.0733
    1ION     NA62246   5.395   2.228   8.004  0.0635 -0.3500 -0.1348
    1ION     NA62247  26.583  26.576   6.704  0.0530  0.1210  0.0741
    1ION     NA62248  16.995   7.932   4.062  0.2276  0.1168 -0.1524
    1ION     NA62249   2.973   2.610   8.950 -0.0109  0.2336 -0.0904
    1ION     NA62250  15.226  20.181   1.566  0.1278 -0.1210  0.2759
    1ION     NA62251  23.438  18.215   3.476  0.3838 -0.1136 -0.2143
    1ION     NA62252  23.412   4.308   7.174  0.1160 -0.1133  0.1063
    1ION     NA62253   0.994   9.063   9.783 -0.1013 -0.2636 -0.1640
    1ION     NA62254  18.907  10.887   9.924  0.2979 -0.4677 -0.1247
    1ION     NA62255   7.181  24.074   2.963 -0.0843  0.0162 -0.0348
    1ION     NA62256   3.494  11.492   0.401 -0.1346 -0.3079 -0.2370
    1ION     NA62257  16.068  20.486   0.922 -0.1539 -0.0881  0.0126
    1ION     NA62258  24.189  15.067   7.038  0.4701 -0.4107  0.1387
    1ION     NA62259   1.697   1.540   1.738 -0.1804  0.0827 -0.0428
    1ION     NA62260   9.122   8.227   0.374 -0.0161  0.1030 -0.0379
    1ION     NA62261  27.883  22.456   2.324  0.0791  0.1549  0.1641
    1ION     NA62262  17.514   4.718   3.553  0.1495  0.2839 -0.1815
    1ION     NA62263   3.900  22.716   2.105 -0.0871 -0.1911  0.1603
    1ION     NA62264   7.833   8.937   0.404 -0.0604  0.3763  0.1617
    1ION     NA62265  19.247  23.616   3.132 -0.0724 -0.1715  0.2143
    1ION     NA62266  15.805  25.658   3.537  0.1190 -0.2510  0.1975
    1ION     NA62267  25.689  10.247   3.007  0.0381 -0.0958 -0.5293
    1ION     NA62268   6.161   9.789   3.711  0.1888 -0.0449 -0.2345
    1ION     NA62269   2.937   5.778   1.719  0.1146 -0.1618  0.1470
    1ION     NA62270  27.897  18.171   8.731  0.0017  0.0560  0.0545
    1ION     NA62271   3.562  20.320   9.517 -0.0648 -0.0545 -0.0364
    1ION     NA62272   0.984  20.354   2.576  0.1850 -0.3289 -0.0425
    1ION     NA62273  20.870  25.317   3.437 -0.0776 -0.1162 -0.2184
    1ION     NA62274   9.140  12.603   3.388 -0.0583  0.1036  0.0299
    1ION     NA62275  19.868   5.659   8.528  0.0192  0.0553 -0.1141
    1ION     NA62276  15.435   2.344   4.165 -0.0189  0.1644  0.0760
    1ION     NA62277  18.267  17.589   7.237  0.2200  0.2315  0.1687
    1ION     NA62278   5.705  15.870   8.644  0.2808 -0.1602 -0.0507
    1ION     NA62279  21.897  14.088   6.857 -0.1519 -0.1419  0.1138
    1ION     NA62280  22.073   8.459   7.073 -0.1334 -0.0326 -0.0398
    1ION     NA62281  26.056   7.540   0.619 -0.0659  0.3306 -0.2552
    1ION     NA62282  19.779  16.622   0.679  0.1011  0.0474 -0.1221
    1ION     NA62283  18.058  18.119   8.981 -0.2295  0.0176  0.1781
    1ION     NA62284  22.803  26.357   7.369  0.1256 -0.1357 -0.3922
    1ION     NA62285   4.683   7.393   0.946 -0.1531 -0.0299  0.1892
    1ION     NA62286  17.153   0.827   9.772 -0.0790 -0.4061 -0.2209
    1ION     NA62287  13.883  19.225  10.205 -0.1325  0.2382 -0.1351
    1ION     NA62288  21.538  25.614   8.820  0.1767  0.3188  0.1781
    1ION     NA62289  16.486   6.623   2.257 -0.2550  0.0355  0.2313
    1ION     NA62290   4.058   8.287   8.691 -0.1113 -0.2396  0.1539
    1ION     NA62291  25.811  20.460   2.776  0.0955 -0.0450 -0.2103
    1ION     NA62292  19.188   5.022   7.529 -0.1904 -0.0428 -0.0932
    1ION     NA62293  22.945  13.618   2.874 -0.1855  0.1544  0.3281
    1ION     NA62294  12.441  27.653   9.809  0.0506  0.1032 -0.1338
    1ION     NA62295  23.813  17.131   1.552  0.0406  0.3323 -0.0127
    1ION     NA62296  12.958  21.729   2.289 -0.1326  0.0397  0.0980
    1ION     NA62297   0.181   7.933   6.453 -0.1475 -0.0181 -0.0357
    1ION     NA62298  22.293  15.609   2.554  0.0387  0.0065 -0.0242
    1ION     NA62299   1.557  14.211   8.792 -0.0210  0.3448  0.1032
    1ION     NA62300  27.687  21.213   3.023  0.0033  0.1095  0.1657
    1ION     NA62301  10.096  26.433   7.508 -0.1715  0.0365 -0.4171
    1ION     NA62302  22.130   6.407   6.981 -0.1046  0.0565  0.0232
    1ION     NA62303  27.113   9.932   0.277  0.3115 -0.1939  0.1820
    1ION     NA62304  12.216  15.065   7.449  0.0444  0.0127  0.2022
    1ION     NA62305  10.884   8.176   8.187 -0.0913 -0.0862  0.0261
    1ION     NA62306  26.473  25.953   2.169  0.0237 -0.1109 -0.0446
    1ION     NA62307   8.879  13.016   1.838 -0.2504 -0.0504  0.0060
    1ION     NA62308  17.061  17.408   3.688  0.1960 -0.0811 -0.2343
    1ION     NA62309   8.336   3.266   3.239 -0.2095 -0.1360  0.1429
    1ION     NA62310  15.490   9.508   4.404 -0.0263  0.1723 -0.1041
    1ION     NA62311   3.864   9.810   7.766 -0.1577 -0.0813  0.2976
    1ION     NA62312   3.455   3.286   8.047  0.2078  0.0334  0.1597
    1ION     NA62313  22.571  25.766   6.777 -0.0718  0.2376  0.3032
    1ION     NA62314  26.120  12.802   6.514  0.1264  0.0220 -0.1545
    1ION     NA62315  18.932   9.737   9.043 -0.0194 -0.1183  0.2230
    1ION     NA62316   8.438  18.061   1.348 -0.0740  0.1814  0.0130
    1ION     NA62317  16.331  11.874   2.060  0.0779  0.0111 -0.1402
    1ION     NA62318  27.313  21.545   6.907 -0.1771 -0.1862  0.5070
    1ION     NA62319   5.881  12.445   9.829  0.0176  0.2119 -0.0221
    1ION     NA62320  17.598   4.167   3.550  0.5363 -0.0129  0.3364
    1ION     NA62321  12.459  13.575   7.746  0.1629 -0.1338 -0.4620
    1ION     NA62322   3.299   7.773   0.840  0.2041 -0.0003  0.0147
    1ION     NA62323  13.195  12.378   4.308  0.1004 -0.3138  0.0189
    1ION     NA62324  26.997  23.233   2.945 -0.2343 -0.1138 -0.1470
    1ION     NA62325   0.135   1.941   7.768  0.0066  0.0003 -0.0397
    1ION     NA62326  11.279   0.607   1.580 -0.0321 -0.0676 -0.1442
    1ION     NA62327   7.242   1.875   1.890 -0.1461  0.1974 -0.2020
    1ION     NA62328   5.260   3.698   0.141  0.0892  0.1354 -0.2727
    1ION     NA62329  11.873  21.455   7.312  0.0058  0.2935  0.1628
    1ION     NA62330   3.084  10.626   6.406  0.1448  0.1884  0.2293
    1ION     NA62331   4.752  20.799   3.421 -0.0391  0.0651  0.2870
    1ION     NA62332   3.929   4.675   9.520  0.2845 -0.2208 -0.0301
    1ION     NA62333  13.022   4.350   0.159  0.1175  0.1661  0.1447
    1ION     NA62334  10.007  14.537   0.402  0.0283  0.1374 -0.4138
    1ION     NA62335   8.514  10.211   3.163  0.1116 -0.1387 -0.0568
    1ION     NA62336   1.284  15.857   6.627  0.2980  0.0588 -0.2121
    1ION     NA62337   9.365  21.517   9.972 -0.1821  0.0719 -0.6427
    1ION     NA62338   0.555   0.590   2.801  0.0310  0.0925  0.1731
    1ION     NA62339   1.187  11.277   7.948 -0.2451 -0.1107 -0.3790
    1ION     NA62340  10.407   1.859   8.629  0.2983  0.2746  0.3666
    1ION     NA62341   5.573   2.917   8.801  0.0647 -0.4630  0.0165
    1ION     NA62342   8.288  11.442   8.470 -0.2458 -0.0085  0.3481
    1ION     NA62343   8.660  16.515   7.817 -0.0157 -0.1708  0.2806
    1ION     NA62344  27.723   5.730   8.335  0.0888  0.0590  0.1821
    1ION     NA62345   3.937  13.566   2.565  0.2731 -0.0120 -0.0021
    1ION     NA62346   7.248  19.906   8.491 -0.1070 -0.1989 -0.5157
    1ION     NA62347  25.724  10.785   1.849  0.2885  0.1712 -0.1431
    1ION     NA62348  13.367  26.291   9.813  0.1352 -0.1097 -0.0827
    1ION     NA62349  17.272  17.191   7.268  0.2413 -0.2198  0.3126
    1ION     NA62350  15.536  25.958   7.100 -0.0371 -0.1366 -0.0242
    1ION     NA62351  26.369  21.746   6.758  0.0019 -0.4094  0.0693
    1ION     NA62352  17.492   6.627   7.279 -0.1219  0.0024  0.1559
    1ION     NA62353  15.764  25.942   9.899  0.0282  0.0358  0.0346
    1ION     NA62354  10.356   3.213   1.801  0.1555 -0.1035 -0.2274
    1ION     NA62355   0.579   5.871   8.482 -0.1491  0.1226 -0.0445
    1ION     NA62356  19.910   6.786   3.031 -0.2707  0.1765  0.1880
    1ION     NA62357   0.526  22.681   0.704 -0.0347 -0.1716 -0.0171
    1ION     NA62358  23.478   3.224   2.841  0.2451 -0.0486  0.1215
    1ION     NA62359   3.173  24.211   3.149  0.1326  0.0656 -0.0031
    1ION     NA62360  11.795   5.372  10.012  0.0210 -0.1209 -0.2570
    1ION     NA62361   5.581  22.127   9.556  0.1631  0.2907 -0.1464
    1ION     NA62362   1.128   2.038   7.574 -0.0548 -0.0657  0.1529
    1ION     NA62363  15.266  26.112   8.133  0.1661 -0.1356 -0.1155
    1ION     NA62364  21.611  19.905   3.160 -0.1008  0.2640 -0.2084
    1ION     NA62365  11.423  20.779   3.366  0.2829 -0.0298 -0.2894
    1ION     NA62366   2.612  13.243   0.162 -0.2123  0.1751  0.2568
    1ION     NA62367   2.463   4.560   9.494 -0.0423  0.2945  0.1739
    1ION     NA62368  17.370   2.370   1.679 -0.0018 -0.0054 -0.0875
    1ION     NA62369   0.491  15.793   2.553  0.0739 -0.0352 -0.2161
    1ION     NA62370  15.129   9.414   2.368 -0.2041  0.0350  0.4686
    1ION     NA62371  10.158  22.688   3.310 -0.1405 -0.0721 -0.0126
    1ION     NA62372  26.765  24.128   1.063 -0.0975 -0.0370 -0.2206
    1ION     NA62373   9.113  26.266   7.182  0.2153 -0.0181 -0.0283
    1ION     NA62374  13.007  20.708   7.931  0.2048 -0.2035 -0.1897
    1ION     NA62375   1.642   5.303   6.701 -0.2110  0.0553  0.0400
    1ION     NA62376   0.799   4.177   1.065 -0.0138 -0.1595  0.3647
    1ION     NA62377   1.327  20.961   0.637  0.0710  0.1101 -0.0696
    1ION     NA62378  13.019   8.940   7.645  0.3030 -0.0708 -0.1157
    1ION     NA62379  15.431   3.138   7.504  0.0113  0.1479  0.0901
    1ION     NA62380   5.448   7.451   2.578  0.0268  0.3227  0.1996
    1ION     NA62381  14.866   1.380   3.725 -0.3030 -0.0131 -0.2003
    1ION     NA62382  10.141   4.916   0.958  0.0177  0.0471 -0.0891
    1ION     NA62383  24.649  11.590   6.633  0.0851 -0.3335 -0.2160
    1ION     NA62384   2.164  20.294   6.853  0.2106 -0.3350 -0.2440
    1ION     NA62385   6.372  20.998   1.080  0.0597  0.1117  0.0023
    1ION     NA62386   4.724  25.071   9.081 -0.1691  0.1426  0.2589
    1ION     NA62387  21.784  18.343   9.825 -0.4548  0.3240  0.1359
    1ION     NA62388   2.746  16.805   2.818  0.5248  0.4420  0.1044
    1ION     NA62389  25.696  16.161   6.668  0.1576 -0.0579  0.2624
    1ION     NA62390   9.846   4.841   3.453 -0.0172  0.0378 -0.4528
    1ION     NA62391  27.872  10.935   1.980  0.1402 -0.0320  0.0380
    1ION     NA62392  21.176  12.530   2.950 -0.2897 -0.1738  0.1226
    1ION     NA62393  13.638   0.005   7.154 -0.2989 -0.0933 -0.1465
    1ION     NA62394  20.112  13.548   8.934  0.1730  0.2664  0.1671
    1ION     NA62395  11.680  16.514   3.656  0.2756  0.0263  0.3695
    1ION     NA62396  17.831  13.442   2.797 -0.0409  0.2458 -0.1432
    1ION     NA62397  19.774  16.558   9.559  0.0659  0.0796  0.1170
    1ION     NA62398  19.677   1.006   7.393  0.2058 -0.1390 -0.0754
    1ION     NA62399   8.291  10.525   7.467 -0.1610  0.1857 -0.0133
    1ION     NA62400  25.475  12.021   0.448  0.0126  0.0234 -0.1967
    1ION     NA62401  13.540  19.530   8.681 -0.0124 -0.0712 -0.2530
    1ION     NA62402  19.476  11.204   8.037  0.0218  0.4074  0.0735
    1ION     NA62403  14.377  12.363   3.916  0.0672 -0.0477 -0.2575
    1ION     NA62404   0.874  23.425   0.859  0.2561 -0.2724 -0.0058
    1ION     NA62405  26.950   4.513   8.344 -0.0195 -0.2377 -0.0008
    1ION     NA62406  18.141  12.680   1.123  0.0523  0.0336 -0.1528
    1ION     NA62407  16.633  20.260   3.492 -0.0461 -0.0828 -0.0654
    1ION     NA62408  11.198   0.705   8.924 -0.2940  0.0108 -0.1476
    1ION     NA62409  27.802  17.037  10.277 -0.0055  0.1941 -0.1929
    1ION     NA62410   6.630  14.507   6.884  0.0222  0.2564  0.4627
    1ION     NA62411   8.527  17.803   9.261  0.1558  0.0236 -0.1216
    1ION     NA62412   0.070  20.958   0.017  0.1111  0.1794  0.3797
    1ION     NA62413  18.117   9.502   1.071 -0.1590  0.1116  0.1249
    1ION     NA62414  14.274   4.503   3.855  0.1617 -0.2706  0.3496
    1ION     NA62415   1.763  15.512   8.190 -0.0232  0.1456  0.5403
    1ION     NA62416   2.643   0.204   2.103 -0.1974  0.3016  0.0342
    1ION     NA62417  18.693  24.425   7.449  0.3040 -0.2861  0.0645
    1ION     NA62418   8.127   9.502   2.391  0.0958  0.1035  0.0895
    1ION     NA62419   2.812   8.901   9.077 -0.2050  0.1492 -0.1802
    1ION     NA62420   7.995   6.998   7.501  0.0350 -0.1853  0.1249
    1ION     NA62421   1.919  16.696   1.077  0.2864 -0.0504 -0.1616
    1ION     NA62422   1.007  27.902   8.107  0.3378  0.0831 -0.0049
    1ION     NA62423  15.526  10.959  10.248  0.1559 -0.1421 -0.0708
    1ION     NA62424   5.522  11.470   8.872  0.1654 -0.0143  0.0625
    1ION     NA62425  24.970  25.441   0.919  0.1080  0.0778  0.0539
    1ION     NA62426  14.848  20.158   2.504  0.0451 -0.0309  0.1232
    1ION     NA62427  10.905   6.064   0.693  0.1258  0.1836  0.0993
    1ION     NA62428   1.500   5.279   5.712  0.2557 -0.0392  0.0629
    1ION     NA62429   5.994   5.498   1.830 -0.1114  0.2179 -0.1400
    1ION     NA62430  27.481   2.405   2.354  0.1800  0.0047 -0.0155
    1ION     NA62431  21.368  23.172   8.046  0.0427  0.1087  0.0097
    1ION     NA62432  14.000  24.628   8.962  0.0287  0.2980 -0.0652
    1ION     NA62433   5.596  22.262   7.525 -0.0454 -0.0262  0.1426
    1ION     NA62434  17.133   1.760   7.423 -0.1455 -0.1767 -0.0978
    1ION     NA62435  12.748  20.332   2.027 -0.0025 -0.2628  0.2489
    1ION     NA62436  15.640   5.289  10.192 -0.0030  0.1886 -0.1068
    1ION     NA62437   0.262  26.490   9.200 -0.0469 -0.0207 -0.2309
    1ION     NA62438   2.663  11.551   9.065 -0.0515  0.0910  0.1071
    1ION     NA62439  22.380   5.110   0.809  0.1406 -0.0796  0.2294
    1ION     NA62440   2.889  26.767   7.530 -0.0298  0.1575  0.0987
    1ION     NA62441  17.678  27.898   0.471  0.1332  0.0783  0.2160
    1ION     NA62442   6.820  12.091   9.917  0.1701 -0.1151 -0.1169
    1ION     NA62443   1.723  22.279   3.086 -0.0196  0.2339  0.2310
    1ION     NA62444  14.167   6.911   2.222  0.0139 -0.0286 -0.1024
    1ION     NA62445  27.581  25.507  10.298  0.0206 -0.2088  0.2972
    1ION     NA62446  19.665  12.690   7.645 -0.1056 -0.1566 -0.1336
    1ION     NA62447   7.694  15.524   0.666  0.1607 -0.2967  0.1659
    1ION     NA62448  26.986   5.244   7.005 -0.0068 -0.1050  0.1656
    1ION     NA62449  18.745  10.127   1.013 -0.2152  0.1607  0.0162
    1ION     NA62450  26.467  25.080   3.175 -0.3094 -0.3256  0.1483
    1ION     NA62451  15.620  21.714   8.195  0.0068 -0.0378  0.0789
    1ION     NA62452  26.377  16.591   7.677  0.1479  0.2074 -0.1290
    1ION     NA62453   3.211   5.855   8.620  0.1376 -0.0832 -0.2249
    1ION     NA62454   2.127  22.872   6.593 -0.0655  0.2884 -0.1204
    1ION     NA62455  24.369   0.646   6.885 -0.0314 -0.0966  0.3053
    1ION     NA62456  15.694  27.721   9.531 -0.2265  0.1310  0.2646
    1ION     NA62457   9.067  27.111   2.190 -0.2057 -0.3631 -0.1245
    1ION     NA62458  23.607  15.160   9.414 -0.1446  0.0806  0.6371
    1ION     NA62459  28.021  15.195   2.917 -0.0699 -0.1132 -0.4263
    1ION     NA62460  14.209  18.863   3.420 -0.0363 -0.2207  0.1187
    1ION     NA62461   2.849  27.212   3.093 -0.2100  0.2731 -0.0951
    1ION     NA62462   5.172  24.498   8.576 -0.0007  0.2931 -0.1596
    1ION     NA62463  20.437  10.057   9.866  0.0536 -0.0703 -0.1312
    1ION     NA62464  17.981  24.320   9.723  0.0733  0.1506 -0.0484
    1ION     NA62465  27.689   2.395   6.649 -0.0628 -0.2684  0.0808
    1ION     NA62466   4.083  15.817  10.309  0.1713 -0.3038 -0.1502
    1ION     NA62467  27.911  15.018   7.012  0.1754 -0.0120 -0.1292
    1ION     NA62468   0.558   4.677   8.762 -0.0711 -0.2675 -0.0564
    1ION     NA62469   7.140   6.396   2.906 -0.0314  0.0244  0.0417
    1ION     NA62470  16.565  23.785   3.246 -0.3512  0.1192 -0.0856
    1ION     NA62471   4.440  15.855   7.161 -0.0375  0.1324 -0.2035
    1ION     NA62472  11.536  22.653   0.347 -0.5068  0.1637 -0.1757
    1ION     NA62473  12.585   1.753   7.652  0.2881  0.1403  0.0671
    1ION     NA62474  23.740  27.060   0.866 -0.1344 -0.0834 -0.0836
    1ION     NA62475  20.193  14.038   3.192  0.1977 -0.0839  0.0613
    1ION     NA62476  22.263  16.271   7.862 -0.1327 -0.0132  0.1127
    1ION     NA62477  15.883  27.961   0.367 -0.0112 -0.3188 -0.1137
    1ION     NA62478  21.238  13.062   9.200  0.0330  0.0548 -0.2819
    1ION     NA62479   6.919  20.106   7.773  0.2132 -0.2334 -0.1312
    1ION     NA62480  12.037  13.562   0.169  0.3911 -0.2072  0.1111
    1ION     NA62481  10.282  25.521   9.048 -0.0089  0.0893 -0.0892
    1ION     NA62482  17.388  19.808   9.878  0.0663  0.0513  0.0451
    1ION     NA62483  10.215  26.762   1.095 -0.1494 -0.1144 -0.0244
    1ION     NA62484   4.822  23.879   6.717 -0.2953 -0.1999 -0.0793
    1ION     NA62485  26.249  11.067   0.548  0.0634  0.0629  0.1558
    1ION     NA62486  26.823  17.192   0.091  0.0084  0.0185 -0.1970
    1ION     NA62487  20.375   0.295   1.490 -0.1469  0.2494  0.2024
    1ION     CL62488  11.077  26.149   1.132 -0.1505 -0.4667  0.0592
    1ION     CL62489   8.673   5.726   8.043 -0.2936  0.1484 -0.0158
    1ION     CL62490   3.786  15.020   7.783  0.0704  0.3773  0.0500
    1ION     CL62491  17.842   8.099   8.748 -0.4516 -0.3956 -0.4360
    1ION     CL62492  11.845   0.534   0.181  0.1722  0.1002 -0.0270
    1ION     CL62493   0.411   4.346   1.349  0.0775  0.3274 -0.0278
    1ION     CL62494  15.922  12.541   8.491 -0.1581  0.2749 -0.0369
    1ION     CL62495   6.657   9.265   7.757 -0.0381 -0.0678  0.0531
    1ION     CL62496  14.104  26.919   7.787  0.2208  0.2817  0.1312
    1ION     CL62497   9.250  13.153   2.225  0.0164  0.2082  0.0345
    1ION     CL62498   9.487   8.422   3.026 -0.4054 -0.2041  0.0794
    1ION     CL62499  18.387  18.925   9.275  0.2285  0.2793 -0.0545
    1ION     CL62500  17.845   2.108   1.799  0.1544  0.0135  0.1589
    1ION     CL62501   8.622  19.378   7.647  0.3591 -0.0949  0.0911
    1ION     CL62502  17.975   7.291   9.096 -0.1286 -0.0849  0.0813
    1ION     CL62503   6.865  18.607   8.275 -0.0397 -0.1253 -0.0023
    1ION     CL62504  16.559  19.469   0.041 -0.0333  0.2234 -0.3726
    1ION     CL62505   2.224   0.532   7.554  0.2143  0.0122  0.1561
    1ION     CL62506   3.016   2.364   2.034 -0.3090  0.1981 -0.2105
    1ION     CL62507  14.049   5.742   2.483  0.0916 -0.1234 -0.0397
    1ION     CL62508   8.463   2.886   0.453 -0.2567  0.1161  0.2901
    1ION     CL62509  21.209  24.921   1.838  0.1031  0.3604  0.0946
    1ION     CL62510   7.311  13.509   2.920  0.1695  0.2759  0.0760
    1ION     CL62511  27.592   1.094   7.675 -0.1063 -0.0561 -0.0900
    1ION     CL62512  16.951  20.701   8.671 -0.2703 -0.0570 -0.3618
    1ION     CL62513   5.162   6.002   6.580  0.0890 -0.0814 -0.2496
    1ION     CL62514  13.320   1.257   9.928 -0.0371 -0.1847  0.2248
    1ION     CL62515   9.393  11.672   9.237  0.2640  0.2947  0.0286
    1ION     CL62516  25.864   1.017   9.532 -0.1096 -0.3199 -0.2990
    1ION     CL62517   2.695   4.995   0.979 -0.3691  0.2586  0.0538
    1ION     CL62518  24.397   0.429   2.534 -0.1979 -0.0053 -0.0705
    1ION     CL62519  23.566  26.153   8.220 -0.0187  0.0353  0.2474
    1ION     CL62520  26.775  20.447   7.898 -0.0416  0.0599 -0.2565
    1ION     CL62521  27.363  16.144   7.706 -0.1299 -0.0599  0.0908
    1ION     CL62522   6.318  12.770   9.867 -0.0164  0.1990 -0.0915
    1ION     CL62523   5.105  25.393   9.303 -0.0414 -0.2065  0.1512
    1ION     CL62524   5.723  14.574   9.399 -0.1890 -0.0653  0.1582
    1ION     CL62525   9.397  11.272   2.482  0.0162  0.0914  0.0523
    1ION     CL62526  17.657   4.900   2.526 -0.2398 -0.2653  0.0887
    1ION     CL62527   4.097   7.125   1.372 -0.2673  0.0361  0.0845
    1ION     CL62528  13.869   6.724   2.613  0.0529  0.1725 -0.0261
    1ION     CL62529  15.344  26.198   8.907 -0.1962 -0.0614 -0.2622
    1ION     CL62530  13.056  26.675   9.913 -0.1582 -0.1705  0.2120
    1ION     CL62531  12.508  21.838   9.365  0.1659  0.0581 -0.0709
    1ION     CL62532   7.490  15.972   1.148 -0.0195 -0.0765  0.0095
    1ION     CL62533  21.632   6.981   7.583  0.2834 -0.1622 -0.0104
    1ION     CL62534  27.890  18.914   9.203 -0.0157 -0.0658 -0.3499
    1ION     CL62535   5.264   2.403   8.879 -0.0912 -0.0461  0.1622
    1ION     CL62536   6.805   5.922   7.991 -0.1633 -0.0265  0.2115
    1ION     CL62537  16.763  20.952   2.683  0.3090  0.0646  0.2379
    1ION     CL62538   0.552  15.089   7.245  0.2675  0.1471  0.2331
    1ION     CL62539   8.700  24.171   8.309 -0.0248 -0.2932 -0.1517
    1ION     CL62540  19.386   8.935   0.041 -0.0864 -0.0086  0.1294
    1ION     CL62541  19.330  13.728   7.754  0.0798  0.3317 -0.0576
    1ION     CL62542   7.943  17.221   2.683 -0.2341  0.0361  0.1533
    1ION     CL62543  21.328  10.264  10.283 -0.1868 -0.0266  0.0588
    1ION     CL62544  22.885   7.712   2.040  0.1668 -0.0834  0.1910
    1ION     CL62545  25.206  10.980   1.875  0.4870 -0.2200 -0.0044
    1ION     CL62546   2.857  14.605   1.926 -0.0380  0.3573 -0.2003
    1ION     CL62547  15.258  22.584   2.596  0.2807 -0.2377  0.1269
    1ION     CL62548   7.763  11.226   3.203 -0.0435 -0.0597  0.0505
    1ION     CL62549  25.460  17.644   2.387 -0.0465  0.0101  0.3472
    1ION     CL62550  20.155   9.677   0.206 -0.0286 -0.3413  0.1140
    1ION     CL62551  10.488   5.269   0.710 -0.0093 -0.3047  0.2213
    1ION     CL62552   5.288   0.632   9.048 -0.3289  0.0342  0.2687
    1ION     CL62553  16.134   1.553   3.344 -0.0595 -0.3038  0.2927
    1ION     CL62554  23.278  18.989   7.434 -0.2115  0.0649  0.3068
    1ION     CL62555  17.759  13.520   1.645  0.2076 -0.0593 -0.3306
    1ION     CL62556  15.673   3.158   2.693 -0.0316 -0.0234 -0.5261
    1ION     CL62557  15.243  17.780  10.202 -0.2071  0.2435  0.2722
    1ION     CL62558   7.087  15.838   8.961  0.0115  0.1416 -0.2225
    1ION     CL62559   9.808  27.299   8.129  0.1605  0.3324  0.1155
    1ION     CL62560  20.825  18.956   0.557  0.1470  0.0070  0.0406
    1ION     CL62561  10.992  12.121   0.040 -0.0593  0.4341  0.1485
    1ION     CL62562  10.991   7.358   8.592 -0.0288  0.2378 -0.3401
    1ION     CL62563   8.259  13.063   3.140 -0.0255 -0.2743  0.0121
    1ION     CL62564   6.477  11.138   9.809 -0.2188  0.0947 -0.2660
    1ION     CL62565   3.367  21.423   1.954  0.0807 -0.0375 -0.0460
    1ION     CL62566   2.870  15.071   7.959  0.0361  0.1331  0.0425
    1ION     CL62567  10.318  21.563   8.220  0.3627 -0.0707 -0.0181
    1ION     CL62568   7.700  21.181   7.930  0.4528  0.0941 -0.3958
    1ION     CL62569   4.479  16.110   2.685 -0.2529  0.0336  0.2657
    1ION     CL62570   3.577  15.527   1.642  0.0369 -0.1751  0.3580
    1ION     CL62571  20.018  16.569   9.974  0.2976 -0.0385  0.0242
    1ION     CL62572  21.741   6.233   7.307  0.0148 -0.0468 -0.3486
    1ION     CL62573   9.002  20.996   8.070 -0.3695  0.0323  0.0260
    1ION     CL62574   4.139  25.456   7.328  0.2662 -0.0322  0.0236
    1ION     CL62575  21.071  13.464   8.945  0.0813  0.3100  0.0440
    1ION     CL62576   0.905   9.769   0.495 -0.0517  0.2134 -0.0006
    1ION     CL62577  11.968  22.572   2.190  0.1847 -0.1647  0.3367
    1ION     CL62578  12.677  20.561   9.740 -0.2492  0.2268  0.2300
    1ION     CL62579  26.575  21.823   7.763  0.0632 -0.0173 -0.1743
    1ION     CL62580  22.182  15.163   2.749  0.3258 -0.3198  0.0911
    1ION     CL62581   3.884  19.344   3.027 -0.2774 -0.0273  0.1123
    1ION     CL62582  25.683  11.556   9.232 -0.0952 -0.1070 -0.1332
    1ION     CL62583  25.656  24.149  10.100  0.0206 -0.0865  0.1739
    1ION     CL62584   2.053   0.116   2.248 -0.1520  0.0732 -0.0241
    1ION     CL62585  14.015  11.757   2.832 -0.0473 -0.2457 -0.3120
    1ION     CL62586   7.783  20.967   2.599 -0.1418  0.5180  0.0187
    1ION     CL62587  17.929   2.351   8.433  0.0503  0.0564  0.2758
    1ION     CL62588   2.709  25.221   8.159 -0.2288  0.1742  0.1335
    1ION     CL62589  25.438  13.694   9.713  0.1657  0.0365 -0.0831
    1ION     CL62590  16.185  27.727   9.710 -0.2008 -0.0178 -0.1087
    1ION     CL62591  13.969  13.241   9.990 -0.0515 -0.0550  0.0510
    1ION     CL62592   4.445  15.212   9.876 -0.0233 -0.0019 -0.1305
    1ION     CL62593  18.191   4.256   9.466  0.0174 -0.2164 -0.0156
    1ION     CL62594  15.657   1.408   2.128 -0.0998 -0.1608  0.1877
    1ION     CL62595  21.380  13.224   1.737  0.0860  0.0435 -0.1854
    1ION     CL62596  17.892   6.198   2.687 -0.3941 -0.1354  0.1998
    1ION     CL62597   8.718   7.547   8.495 -0.3918 -0.1549  0.0215
    1ION     CL62598   7.647  23.210   7.685 -0.0225  0.0302 -0.2214
    1ION     CL62599   4.674  21.911   8.552 -0.4630 -0.3923 -0.0505
    1ION     CL62600  17.796   3.656  10.009 -0.1749  0.3596 -0.0106
    1ION     CL62601  15.731  18.107   7.697 -0.2136 -0.0175 -0.0900
    1ION     CL62602   2.023   2.938   1.457  0.2066  0.0926 -0.0579
    1ION     CL62603   4.909  22.144   2.683 -0.0564  0.2608 -0.0807
    1ION     CL62604   7.328  10.507   7.975  0.1214 -0.2194  0.0802
    1ION     CL62605  24.815  15.097   1.703  0.0878 -0.4262  0.2078
    1ION     CL62606   8.274   3.149   2.079 -0.3026  0.2977 -0.1298
    1ION     CL62607   0.880  10.325   7.249 -0.0618 -0.0586  0.1259
    1ION     CL62608  17.382   4.518   8.556 -0.2304  0.1519 -0.2746
    1ION     CL62609  12.437  13.198   0.149  0.2118 -0.1899 -0.1672
    1ION     CL62610   2.064  23.005   2.430 -0.2024 -0.1372  0.0814
    1ION     CL62611   3.839  20.666   9.779  0.0395  0.3113 -0.2900
    1ION     CL62612  18.563  27.465   2.535  0.1080  0.1532 -0.3662
    1ION     CL62613  25.655   8.761   9.417 -0.1545 -0.0753  0.0921
    1ION     CL62614  12.640   4.317   2.520 -0.3679 -0.1661 -0.2166
    1ION     CL62615  24.950  11.745   9.957  0.0501  0.2631  0.0637
    1ION     CL62616  13.640  19.259   7.562 -0.1648  0.0172 -0.0704
    1ION     CL62617   4.305  20.626   2.328 -0.0916  0.0892 -0.0001
    1ION     CL62618   8.899  16.471   8.312 -0.0382 -0.0058 -0.3487
    1ION     CL62619  16.669  10.681   8.134  0.0917 -0.2615 -0.4275
    1ION     CL62620   7.239  12.334   9.671 -0.0374 -0.0554  0.1629
    1ION     CL62621  19.058   5.775   7.872 -0.1381  0.1110 -0.1163
    1ION     CL62622  15.204   7.591   3.152  0.1469  0.0341 -0.0071
    1ION     CL62623   8.436  11.283   2.373 -0.0622 -0.1715 -0.0900
    1ION     CL62624  11.928  16.726   9.930 -0.1632  0.0122  0.1637
    1ION     CL62625   8.609  16.632   2.357 -0.1015  0.3478 -0.1804
    1ION     CL62626   2.440  21.839   7.038  0.0916 -0.1942  0.0336
    1ION     CL62627  21.737  10.638   9.225 -0.3356 -0.0342  0.0712
    1ION     CL62628  13.314  10.186   8.789 -0.2195  0.2271  0.0444
    1ION     CL62629  25.512   2.572   8.784 -0.1141  0.0557  0.0729
    1ION     CL62630  19.416  21.848   2.733 -0.2180  0.1847  0.1833
    1ION     CL62631  25.603   6.215   1.316  0.2181  0.0081  0.0688
    1ION     CL62632  27.906  13.274   0.533 -0.1162 -0.0989  0.1120
    1ION     CL62633   2.704  12.618   7.272  0.0076  0.0440 -0.2066
    1ION     CL62634   5.214  24.124   8.839  0.0758  0.2573 -0.1130
    1ION     CL62635   5.788   2.529   7.926  0.4170 -0.0701  0.0065
    1ION     CL62636  27.859   7.518   9.748  0.0864  0.0633  0.1757
    1ION     CL62637  26.205  25.671   1.369  0.0854  0.0594 -0.0302
    1ION     CL62638  20.009  13.811   2.779  0.1967  0.3251  0.1055
    1ION     CL62639  27.195  11.160   2.371 -0.1212 -0.0996 -0.2026
    1ION     CL62640  18.280  19.703   1.114  0.2473 -0.1336 -0.2103
    1ION     CL62641  18.665  20.461   2.562  0.3347  0.3470  0.2680
    1ION     CL62642   8.031  12.191   8.943 -0.0841  0.1487  0.2176
    1ION     CL62643  12.882  20.863   8.449  0.1300 -0.1580  0.0543
    1ION     CL62644   9.583  25.565   2.131 -0.1155  0.3270 -0.1969
    1ION     CL62645   5.761   0.326   7.537  0.2585 -0.3472  0.0480
    1ION     CL62646   7.197   2.556   7.799 -0.0541 -0.1167  0.1257
    1ION     CL62647   8.026  22.467   0.308 -0.1278 -0.0615  0.0499
    1ION     CL62648  25.531  15.034   2.572 -0.2156 -0.2003 -0.1130
    1ION     CL62649  27.135  10.458   8.579  0.0236 -0.0251  0.0533
    1ION     CL62650   8.993  19.695   8.840  0.2476 -0.0935  0.0674
    1ION     CL62651  11.735  19.791   8.677  0.0321 -0.4789 -0.0684
    1ION     CL62652   1.573  27.663   9.557 -0.0063  0.1646 -0.2260
    1ION     CL62653  18.109   6.756   2.413 -0.1235  0.2441 -0.2148
    1ION     CL62654  19.345   4.411   1.985  0.0573 -0.1469 -0.1180
    1ION     CL62655   9.646   4.659   2.750 -0.1279  0.0244  0.0009
    1ION     CL62656   2.957  21.125   0.640  0.1512  0.0650  0.0142
    1ION     CL62657  26.015  24.047   9.194 -0.0981 -0.1923  0.1349
    1ION     CL62658   2.966  17.196   9.222  0.2010  0.2188 -0.3767
    1ION     CL62659  16.739  12.118   8.408  0.3625 -0.1117  0.3505
    1ION     CL62660  15.309   2.260   9.807 -0.0350 -0.0852 -0.0290
    1ION     CL62661   2.939   8.921   8.522  0.4139 -0.1632  0.2616
    1ION     CL62662   9.878  12.848   9.768 -0.0674  0.3740 -0.3040
    1ION     CL62663  19.878   2.203   7.772  0.5146  0.1046  0.0206
    1ION     CL62664   2.138   5.349   6.735 -0.0468  0.0762 -0.0673
    1ION     CL62665  28.096  22.463   1.880 -0.3202  0.1618 -0.0969
    1ION     CL62666   3.145  25.759   9.960 -0.2108  0.0614 -0.1120
    1ION     CL62667  18.580   8.832   0.781 -0.0765 -0.0537  0.1005
    1ION     CL62668  18.636   2.113   2.808  0.5636 -0.3645 -0.1190
    1ION     CL62669  22.859  21.600  10.101 -0.1181  0.0272  0.1261
    1ION     CL62670   0.054  24.984   2.246  0.2483 -0.2863  0.0772
    1ION     CL62671   8.011  17.501   9.019 -0.2085 -0.0685 -0.1289
    1ION     CL62672   8.488  23.288   3.076  0.0676  0.0993  0.0600
    1ION     CL62673   3.322  25.030   7.097  0.1773  0.0883 -0.1833
    1ION     CL62674  22.776  20.251  10.249  0.0341 -0.0085  0.0584
    1ION     CL62675  11.916  13.575   2.780  0.1559  0.1109 -0.3972
    1ION     CL62676  25.539  18.981   0.103  0.2926  0.3191  0.0205
    1ION     CL62677  15.707  16.469  10.035 -0.0678  0.2318  0.2698
    1ION     CL62678  16.514  20.466   1.272 -0.1698 -0.0564  0.0310
    1ION     CL62679  19.379   3.573   7.180  0.3192  0.0176 -0.0911
    1ION     CL62680   1.079   5.283   6.570  0.0336 -0.3194  0.0213
    1ION     CL62681   8.388   0.106   9.959  0.1044 -0.1583 -0.1825
    1ION     CL62682  12.271  15.112   8.426  0.2998  0.2602  0.0315
    1ION     CL62683   3.718   4.928  10.160  0.1648  0.0457 -0.1459
    1ION     CL62684  20.936  12.466   1.510 -0.0021  0.2936 -0.1019
    1ION     CL62685  26.035  18.134   7.286  0.1068 -0.0332  0.1355
    1ION     CL62686  20.060  13.046   8.973 -0.1878 -0.0064 -0.1150
    1ION     CL62687  11.976   3.350   8.515  0.2297  0.1839  0.0369
    1ION     CL62688   1.947   2.118   0.086  0.0877 -0.3553 -0.3142
    1ION     CL62689  13.703  19.272   1.435  0.0643  0.0824  0.2355
    1ION     CL62690  11.920  18.555   7.816  0.3440 -0.0850 -0.2147
    1ION     CL62691  12.211  18.853   3.648 -0.1146  0.2116 -0.0295
    1ION     CL62692  14.239   6.004   9.739  0.0357  0.1398  0.0879
    1ION     CL62693  14.677   3.290   2.463 -0.1938  0.1850  0.4144
    1ION     CL62694   5.159  16.673   2.682  0.0261  0.0663  0.2348
    1ION     CL62695   3.446  16.337   2.722 -0.5028  0.0624 -0.1433
    1ION     CL62696  14.699  15.637   8.581  0.1040 -0.1177  0.0151
    1ION     CL62697   8.423  13.784   8.188 -0.2027 -0.3345 -0.0746
    1ION     CL62698   1.185  23.523   1.214  0.0036  0.1051  0.0673
    1ION     CL62699   6.208  22.248  10.265 -0.1960  0.1085  0.0561
    1ION     CL62700  22.177  12.605   2.432 -0.4578  0.1241 -0.1272
    1ION     CL62701  23.566  22.483   8.474 -0.0687 -0.1494 -0.3073
    1ION     CL62702  27.979   3.032   6.587  0.1526 -0.2634  0.0679
    1ION     CL62703   3.626  24.231   1.777  0.1918  0.3950 -0.1928
    1ION     CL62704   0.699  14.308   8.202 -0.0877 -0.0503  0.0947
    1ION     CL62705  27.784  21.529  10.172  0.3171  0.1514 -0.3547
    1ION     CL62706   4.491   6.845   6.976 -0.1115  0.1400 -0.0495
    1ION     CL62707   4.091  17.285   7.950 -0.0893  0.0684 -0.2196
    1ION     CL62708  20.796  16.176   0.711 -0.0809  0.1061 -0.1973
    1ION     CL62709   0.583  23.075   0.984  0.3084 -0.0465  0.0127
    1ION     CL62710  14.785  24.378   0.676 -0.1241  0.2277  0.0221
    1ION     CL62711  18.521  26.826   1.908  0.1792 -0.0743 -0.0995
    1ION     CL62712  26.562  15.213   9.679  0.0309 -0.2731  0.1667
    1ION     CL62713  27.974  25.791   0.770 -0.2122 -0.0770 -0.2054
    1ION     CL62714  11.190  27.641   2.365 -0.1498 -0.1283 -0.2637
    1ION     CL62715   5.638   6.651   7.683  0.1559  0.1645  0.1473
    1ION     CL62716   0.536   4.893   9.403  0.3049  0.0660  0.1610
    1ION     CL62717  16.992   9.110   2.416 -0.0677  0.1620 -0.1199
    1ION     CL62718  11.084  10.690   9.857 -0.1479 -0.1608  0.3306
    1ION     CL62719   1.344  11.534   1.110 -0.0190 -0.0059 -0.0070
    1ION     CL62720  22.276  22.614   2.542  0.0917 -0.0703  0.2209
    1ION     CL62721   8.971   3.163   9.587 -0.0285  0.0584  0.5114
    1ION     CL62722   8.363   0.837   2.299  0.0995  0.1292 -0.2909
    1ION     CL62723  16.977   6.689   2.599  0.0882 -0.2426  0.0534
    1ION     CL62724   6.563   4.309   7.848 -0.0863 -0.2749  0.0003
    1ION     CL62725   9.520  19.404   0.465 -0.0312  0.1788 -0.1395
    1ION     CL62726  16.822   5.798   2.949  0.1685  0.0071 -0.1933
    1ION     CL62727  10.370   7.573   9.363 -0.0640  0.0361  0.1009
    1ION     CL62728  11.618  13.358  10.256  0.1777  0.1927  0.0457
    1ION     CL62729   0.576  22.254   0.893 -0.0331  0.2428 -0.0551
    1ION     CL62730  13.949  14.222   1.889  0.0134  0.1809 -0.0270
    1ION     CL62731   2.106  25.417   1.797  0.1276  0.0316 -0.1310
    1ION     CL62732   3.560  27.024   2.201  0.1768  0.2446 -0.3321
    1ION     CL62733  15.777  14.232   3.335 -0.0408  0.0402 -0.0324
    1ION     CL62734  25.574  22.072   2.496  0.1968  0.2146  0.1219
    1ION     CL62735  21.872  12.692   1.115  0.1871 -0.0551 -0.3916
    1ION     CL62736  27.658   9.149   2.016 -0.3012 -0.3163 -0.0232
    1ION     CL62737  25.740  20.811   9.794  0.0780  0.0983 -0.0890
    1ION     CL62738   1.346   1.682   7.793 -0.2426 -0.0082  0.0122
    1ION     CL62739   4.860   7.881   0.791 -0.1939 -0.4092  0.0300
    1ION     CL62740  11.058  19.131   0.659  0.0403 -0.0487 -0.0283
    1ION     CL62741   1.110  20.655   7.437 -0.3483 -0.1106  0.1050
    1ION     CL62742  26.104   6.947   0.313  0.3007 -0.3833  0.1676
    1ION     CL62743   2.761  17.046   2.365 -0.0725 -0.3642  0.0769
    1ION     CL62744  22.582   6.638   7.244 -0.1309  0.1770  0.0908
    1ION     CL62745   5.405  11.093   9.244  0.2129 -0.0699 -0.5545
    1ION     CL62746   0.141  18.436   8.622 -0.2353  0.0428  0.0784
    1ION     CL62747   5.430  27.942   1.378  0.0193  0.0922  0.1266
    1ION     CL62748  27.020  17.236   9.982 -0.1434 -0.0111  0.0874
    1ION     CL62749  20.461  12.581   2.434  0.1132 -0.0551  0.2578
    1ION     CL62750  19.326  11.419  10.005  0.1305 -0.1636 -0.0664
    1ION     CL62751  12.882  20.648   2.557  0.4933  0.4652 -0.0174
    1ION     CL62752   1.545   9.097   9.951 -0.1750 -0.0409  0.1111
    1ION     CL62753   1.334   1.219   8.624  0.0675 -0.0936 -0.0197
    1ION     CL62754  15.758  26.823   9.383 -0.0568 -0.1544 -0.1607
    1ION     CL62755  19.714   5.655   2.944  0.1787 -0.0873  0.2497
    1ION     CL62756  23.234  24.955   3.642  0.0439 -0.1603 -0.1283
    1ION     CL62757  23.957   8.571   2.232 -0.1836 -0.1642  0.2029
    1ION     CL62758   2.838  26.469   7.911 -0.1150 -0.0867  0.0233
    1ION     CL62759  16.803   3.473   1.887 -0.2460  0.2885 -0.0214
    1ION     CL62760   3.178   7.682   8.704 -0.5102  0.2727 -0.1773
    1ION     CL62761  16.114  27.498   3.257 -0.3448 -0.3378 -0.0235
    1ION     CL62762   8.415  25.406   7.525 -0.1796 -0.3343  0.4239
    1ION     CL62763  14.930  10.051   0.301 -0.1994 -0.1499 -0.3003
    1ION     CL62764   5.411  21.656   9.296 -0.2315 -0.3051 -0.0794
    1ION     CL62765  22.018   8.722   9.135 -0.0068 -0.3640 -0.1172
    1ION     CL62766  16.846  12.229   1.344 -0.3728  0.1531  0.0010
    1ION     CL62767   5.863  25.462   0.381  0.1144  0.2168 -0.0309
    1ION     CL62768   0.899  22.616   7.178 -0.0399 -0.3181 -0.0416
    1ION     CL62769   7.501   0.701   7.629 -0.1633  0.1548 -0.1115
    1ION     CL62770  18.390  12.666   7.836 -0.0927  0.3057 -0.2876
    1ION     CL62771  12.865  13.711   3.139  0.1725  0.0507 -0.2380
    1ION     CL62772   7.597   6.051   9.177  0.2163  0.1017 -0.0369
    1ION     CL62773  16.470   4.767  10.050  0.3997  0.0183 -0.1390
    1ION     CL62774   7.315  19.191   9.161  0.1245  0.0320 -0.0865
    1ION     CL62775  19.091  22.078   9.871 -0.1743  0.1896 -0.0064
    1ION     CL62776   5.930   6.337   2.014  0.2774  0.0557  0.1153
    1ION     CL62777  12.402  12.977   8.549  0.0073  0.2330 -0.1052
    1ION     CL62778  18.388  18.632   8.184 -0.0637  0.0128  0.3762
    1ION     CL62779   8.412  13.190   1.742  0.1383  0.0627 -0.0034
    1ION     CL62780  22.594  25.513   9.251 -0.2397 -0.1079  0.1536
    1ION     CL62781  16.733  27.851   1.534  0.1046  0.0580  0.0061
    1ION     CL62782  10.122  15.843   8.926 -0.1595 -0.4363  0.0450
    1ION     CL62783   0.529  20.224   1.653 -0.1023 -0.0855 -0.0765
    1ION     CL62784  20.200   4.687   8.528  0.3164 -0.0179  0.0216
    1ION     CL62785   2.219   1.669   7.205 -0.1767  0.3426 -0.0978
    1ION     CL62786  24.625  21.540   0.256 -0.0400 -0.0542 -0.0896
    1ION     CL62787  25.272  26.617   0.815  0.2837 -0.3525 -0.1728
    1ION     CL62788   8.706  11.611   7.856  0.0569  0.3944 -0.1318
    1ION     CL62789   7.195   1.295   1.780 -0.1695 -0.2624 -0.1553
    1ION     CL62790   2.133   2.094   8.066  0.1629 -0.2395 -0.2237
    1ION     CL62791  25.606   7.384   7.380  0.1272  0.1093  0.2017
    1ION     CL62792   8.259  27.103   1.796  0.1599 -0.0953 -0.0529
    1ION     CL62793   1.993   5.578   0.995  0.4454 -0.1116  0.0845
    1ION     CL62794  13.773  17.385   0.399  0.0126 -0.0005 -0.1612
    1ION     CL62795  15.712   5.373   9.515  0.0903  0.1629  0.0210
    1ION     CL62796   1.268  15.108  10.089 -0.1437  0.2041  0.0618
    1ION     CL62797   5.591  19.305   1.424 -0.1111 -0.1492  0.2981
    1ION     CL62798  22.907  24.760   2.877 -0.0510 -0.3257 -0.1502
    1ION     CL62799  22.118  25.416   7.557  0.0001  0.1268 -0.2122
    1ION     CL62800  17.752  25.533   0.206 -0.2750  0.3026  0.0846
    1ION     CL62801   3.900  18.820   7.788  0.0177  0.4058 -0.0288
    1ION     CL62802   0.966   3.299   6.867  0.2076  0.1407  0.0360
    1ION     CL62803  22.508  27.600   7.742  0.2823 -0.2323 -0.1608
    1ION     CL62804  20.498  19.301   0.917  0.1938 -0.0998  0.1423
    1ION     CL62805  15.730  25.378  10.017  0.2965  0.0717 -0.1069
    1ION     CL62806  21.580   3.356   7.194 -0.0026  0.2283 -0.3059
    1ION     CL62807  14.638   8.188   2.760 -0.0547  0.2416  0.1094
    1ION     CL62808  25.324  26.759   2.741 -0.0626 -0.1245 -0.3585
    1ION     CL62809  23.249  18.448   8.665 -0.0251  0.2147 -0.0579
    1ION     CL62810  12.481  23.729   2.618 -0.0472 -0.0118 -0.1627
    1ION     CL62811  10.345  16.302  10.206 -0.0778 -0.0298 -0.0904
    1ION     CL62812   8.737  27.619   7.392  0.1742  0.3739  0.1070
    1ION     CL62813  26.101  26.840   2.403  0.0157 -0.1022 -0.0434
    1ION     CL62814  14.445  20.942  10.002 -0.0483  0.0730 -0.3182
    1ION     CL62815  27.943  10.468   2.138 -0.1445 -0.3010  0.3521
    1ION     CL62816   2.218   0.835   8.318 -0.1715 -0.0056 -0.3386
    1ION     CL62817  13.404  14.785   3.301  0.2296  0.1762  0.1218
    1ION     CL62818  10.113   7.054   3.076 -0.0303 -0.1695 -0.1440
    1ION     CL62819  12.163   6.470   8.636 -0.1557 -0.2126 -0.0180
    1ION     CL62820  27.983   8.389   9.346 -0.0437  0.2483  0.0290
    1ION     CL62821   8.328  10.287   8.482 -0.1346  0.2935 -0.3216
    1ION     CL62822  22.746  15.841   2.683 -0.2419 -0.0330 -0.0368
    1ION     CL62823  16.695   1.095   3.441  0.6210  0.1538  0.2873
    1ION     CL62824   8.512   7.408   0.415  0.1160 -0.0202 -0.1432
    1ION     CL62825   1.627  23.879   0.760 -0.1826  0.2476  0.0784
    1ION     CL62826  21.436   8.766   1.250 -0.2472  0.2875 -0.2039
    1ION     CL62827   4.565   9.827   8.478 -0.1008  0.2906 -0.3299
    1ION     CL62828  26.059  14.534   7.659  0.1585  0.0671  0.0459
    1ION     CL62829  21.099  12.060   2.310 -0.3312  0.1708  0.0312
    1ION     CL62830   9.616  26.592   7.477  0.0069  0.0086 -0.0428
    1ION     CL62831  26.143   5.358   7.579 -0.3794  0.2625 -0.0422
    1ION     CL62832  24.596  14.697   0.826 -0.0723  0.0866  0.1335
    1ION     CL62833  27.644  20.988   0.856  0.1815  0.0700  0.1818
    1ION     CL62834   5.770  13.802   7.585 -0.3148 -0.3586 -0.1133
    1ION     CL62835   5.111  11.825   7.397 -0.3005 -0.0497 -0.0357
    1ION     CL62836   7.844   4.970   0.322  0.3539 -0.2233  0.1846
    1ION     CL62837   4.644   0.092   8.818 -0.2177  0.1343  0.0303
    1ION     CL62838  15.573   8.618   8.242  0.1017 -0.1230 -0.1049
    1ION     CL62839   1.012  27.268  10.127  0.0540  0.3344  0.2045
    1ION     CL62840  15.496   9.746   2.474  0.4755 -0.0259  0.1034
    1ION     CL62841   1.434  15.904   8.315 -0.2966 -0.0925 -0.3521
    1ION     CL62842  17.227  17.446   1.349 -0.0402 -0.0753  0.1593
    1ION     CL62843  11.026   1.050   1.778 -0.0601  0.1055 -0.0706
    1ION     CL62844   6.557  20.990   1.660  0.2096  0.1303  0.0953
    1ION     CL62845   4.033  26.766   9.420  0.0471  0.2746  0.1474
    1ION     CL62846  24.142  17.451   2.257 -0.1452  0.0142 -0.0477
    1ION     CL62847  17.890  22.907   8.835 -0.0973  0.0390 -0.0159
    1ION     CL62848   7.328  21.558   9.917  0.1061 -0.2097  0.2060
    1ION     CL62849  12.365   4.380   8.876  0.3784  0.0719  0.2677
    1ION     CL62850  19.744  11.461   7.591 -0.1551  0.0465 -0.0193
    1ION     CL62851  10.081  21.221   3.135  0.0741 -0.2485  0.1969
    1ION     CL62852  17.247   9.718   1.518  0.0971  0.3664 -0.0634
    1ION     CL62853  21.034  11.932   8.231  0.2586  0.2512  0.3544
    1ION     CL62854   6.453  14.668   8.981 -0.3590  0.1920  0.2840
    1ION     CL62855  13.537  21.410   8.227 -0.2741  0.3427  0.0989
    1ION     CL62856   9.748   1.783   6.724 -0.3705  0.2946 -0.0383
    1ION     CL62857  10.673   0.926   9.016  0.1964  0.1571  0.1042
    1ION     CL62858  17.226  19.562   6.954 -0.0548  0.2125  0.1543
    1ION     CL62859  21.459  27.367   7.265  0.3206  0.1079 -0.2464
    1ION     CL62860  18.456  11.269   0.777 -0.0398  0.0155  0.2045
    1ION     CL62861  25.915  17.642   0.229  0.0298 -0.0042  0.0729
    1ION     CL62862  17.738  11.880   9.723  0.0860  0.0773  0.1260
    1ION     CL62863  25.868  26.700   1.416 -0.0325 -0.0177  0.4398
    1ION     CL62864  21.412   5.078   7.517  0.0674 -0.0877 -0.2612
    1ION     CL62865  22.485   6.272   8.178 -0.0995 -0.5257  0.0690
    1ION     CL62866  15.182   3.932   8.605 -0.3434  0.1922  0.0492
    1ION     CL62867  25.607   3.308   7.360  0.1315  0.1997  0.2268
    1ION     CL62868  20.186   9.721   9.551 -0.4146 -0.0809 -0.0949
    1ION     CL62869   7.953  24.927   2.377  0.0707 -0.1151  0.2522
    1ION     CL62870  10.717  10.583   8.812  0.0588 -0.0818 -0.4072
    1ION     CL62871   0.939  11.346   0.507  0.0676  0.3070 -0.1521
    1ION     CL62872   3.592   5.686   8.919  0.0451  0.2531  0.2913
    1ION     CL62873   7.840  26.640  10.237 -0.0467  0.0141 -0.0631
    1ION     CL62874   3.435   8.175   1.789  0.2277  0.0816 -0.1250
    1ION     CL62875  22.840  11.991   0.857 -0.2313 -0.2555 -0.0764
    1ION     CL62876   7.622   9.562   2.216  0.1618 -0.1607  0.1915
    1ION     CL62877  27.638   6.752   6.491 -0.1187 -0.1344 -0.0834
    1ION     CL62878  22.326  18.372   8.808  0.0362 -0.3264 -0.1627
    1ION     CL62879  18.638   8.038   8.155  0.0272 -0.0063  0.2178
    1ION     CL62880  12.316  14.288   8.957  0.2100 -0.2655 -0.0218
    1ION     CL62881  15.769  12.272   2.762  0.1571 -0.1777 -0.0161
    1ION     CL62882  17.336   3.336   0.876 -0.1889 -0.0231 -0.1118
    1ION     CL62883   7.042  14.207   7.727 -0.0343 -0.0007  0.0017
    1ION     CL62884  19.571   6.439   7.923 -0.0717 -0.1438  0.2362
    1ION     CL62885  18.831  26.439   8.107 -0.0179 -0.0037  0.1614
    1ION     CL62886  18.220   8.848   1.372 -0.1484  0.1119 -0.2442
    1ION     CL62887   8.095  16.540   1.723 -0.1402  0.0651  0.0876
    1ION     CL62888  26.380  26.815   0.071 -0.0587 -0.1743  0.1297
    1ION     CL62889  24.410   4.940   0.783  0.1048  0.0228 -0.0734
    1ION     CL62890   9.982  23.864   1.207 -0.1837 -0.1971  0.4371
    1ION     CL62891   6.020  16.881   3.221 -0.3386 -0.0228  0.1622
    1ION     CL62892  18.926  22.832   8.659 -0.0744  0.2766  0.0097
    1ION     CL62893   0.572   2.078   7.538 -0.2051  0.0035  0.0160
    1ION     CL62894   8.867  20.695   1.709  0.1442 -0.0427 -0.0449
    1ION     CL62895   2.889  20.404   9.079  0.0673  0.2776  0.1399
    1ION     CL62896  10.760  24.725   7.741 -0.2139 -0.3585 -0.1181
    1ION     CL62897  23.431   6.788   2.052  0.1292  0.1587  0.0287
    1ION     CL62898  17.962  17.448   7.648 -0.0811  0.2004  0.0280
    1ION     CL62899  13.132   4.116  10.099  0.0384 -0.1831  0.2780
    1ION     CL62900  13.609  27.752   7.835  0.1113  0.3032 -0.0159
    1ION     CL62901  18.434  14.487   3.132 -0.1624 -0.0136 -0.1278
    1ION     CL62902  15.626  20.406   9.655 -0.1069 -0.3191  0.1447
    1ION     CL62903  15.321  15.176   1.114  0.0963 -0.2221  0.1309
    1ION     CL62904  25.352  15.621   1.745 -0.0324  0.0330  0.2110
    1ION     CL62905   5.533  22.867   2.512 -0.0448  0.5221  0.0300
    1ION     CL62906   1.579  26.062   7.908 -0.1440  0.0737 -0.0259
    1ION     CL62907  24.621  24.141   9.068  0.1771  0.3090  0.0829
    1ION     CL62908   9.769  23.033   0.418 -0.2639  0.0069 -0.0919
    1ION     CL62909   9.832  12.999   1.897  0.2366  0.1927  0.1375
    1OPC    NC362910   0.125  16.154   7.461 -0.1810 -0.0407  0.0649
    1OPC    PO462911  27.966  16.329   7.121 -0.1097  0.5138  0.2240
    1OPC    GL162912  27.928  16.477   6.743  0.0589  0.1015 -0.2924
    1OPC    GL262913  27.931  16.488   6.463 -0.0410  0.0715 -0.0524
    1OPC    C1B62914  27.801  16.544   5.913  0.1135 -0.1207 -0.0343
    1OPC    D2B62915  27.466  16.466   5.729 -0.0504  0.2986 -0.2135
    1OPC    C3B62916  27.377  16.627   5.289 -0.0830  0.2926 -0.1694
    1OPC    C4B62917  27.172  16.770   4.968 -0.5880  0.2949  0.1139
    1OPC    NC362918   5.285   2.271   6.648 -0.1545  0.0607  0.3230
    1OPC    PO462919   4.843   2.150   6.650  0.0478 -0.0309 -0.0054
    1OPC    GL162920   5.067   2.005   6.216 -0.2788  0.1681 -0.1286
    1OPC    GL262921   5.281   1.955   5.962  0.0090  0.0856 -0.2529
    1OPC    C1B62922   5.487   1.706   5.528 -0.0583 -0.1729 -0.1927
    1OPC    D2B62923   5.375   1.576   5.011  0.0145 -0.1639 -0.1521
    1OPC    C3B62924   5.236   1.941   4.776  0.1852 -0.1217 -0.1154
    1OPC    C4B62925   5.340   2.337   4.968  0.1021  0.0533  0.0774
    1OPC    NC362926  10.616  19.318   7.536 -0.2188 -0.1169  0.0154
    1OPC    PO462927  10.777  19.698   7.587  0.1018  0.0040 -0.1322
    1OPC    GL162928  10.621  19.621   7.174  0.1667 -0.0914 -0.1987
    1OPC    GL262929  10.443  19.253   7.084 -0.3198 -0.0549 -0.1058
    1OPC    C1B62930  10.172  19.034   6.869 -0.2054 -0.2623 -0.3036
    1OPC    D2B62931  10.035  18.793   6.713  0.3691 -0.0219 -0.0434
    1OPC    C3B62932  10.048  18.762   6.233 -0.0927  0.3463 -0.0439
    1OPC    C4B62933   9.917  18.648   5.822 -0.0705  0.2044 -0.1230
    1OPC    NC362934  18.418  16.152   7.489 -0.1927  0.2516  0.1602
    1OPC    PO462935  18.342  16.454   7.176  0.0524  0.0308  0.0071
    1OPC    GL162936  18.373  16.666   6.887 -0.2863 -0.5513  0.0958
    1OPC    GL262937  18.608  16.837   6.732  0.0093 -0.3682  0.0562
    1OPC    C1B62938  18.888  16.690   6.509  0.0915 -0.0296  0.0663
    1OPC    D2B62939  19.140  16.717   6.120  0.0480 -0.1928 -0.0206
    1OPC    C3B62940  18.839  16.724   5.722 -0.1390 -0.1903 -0.1017
    1OPC    C4B62941  18.521  16.670   5.449 -0.0318  0.1442 -0.0764
    1OPC    NC362942  15.067  12.596   8.767 -0.2495 -0.2014  0.0527
    1OPC    PO462943  14.648  12.432   8.561 -0.4425 -0.1991  0.0228
    1OPC    GL162944  14.644  12.254   8.076 -0.0673 -0.2742  0.1360
    1OPC    GL262945  14.504  12.286   7.800  0.1907 -0.1415  0.1678
    1OPC    C1B62946  14.578  12.496   7.402 -0.0545  0.0041 -0.1901
    1OPC    D2B62947  14.523  12.444   7.003 -0.2011  0.0366 -0.1614
    1OPC    C3B62948  14.396  12.823   6.769  0.0924  0.0522 -0.0184
    1OPC    C4B62949  14.279  13.191   6.573 -0.0809  0.0865 -0.0292
    1OPC    NC362950  23.109  16.761   7.853  0.0068  0.0630  0.0479
    1OPC    PO462951  23.081  16.580   7.463 -0.1171  0.0849 -0.0274
    1OPC    GL162952  23.103  17.004   7.233 -0.0512 -0.1066 -0.2162
    1OPC    GL262953  23.007  17.352   7.119 -0.2167 -0.1792  0.3173
    1OPC    C1B62954  23.013  17.674   6.735  0.1099 -0.0414 -0.0155
    1OPC    D2B62955  23.040  17.820   6.250  0.0407 -0.0264  0.0554
    1OPC    C3B62956  22.701  17.557   5.963 -0.1868  0.0498  0.0877
    1OPC    C4B62957  22.636  17.248   5.646  0.1159  0.1258  0.3430
    1OPC    NC362958  16.507  27.325   7.711 -0.1500 -0.0367 -0.0458
    1OPC    PO462959  16.820  27.602   7.637  0.2646  0.1205  0.4197
    1OPC    GL162960  17.089  27.752   7.363  0.2387  0.0560  0.2804
    1OPC    GL262961  17.338  27.836   7.157  0.2961  0.3117 -0.0794
    1OPC    C1B62962  17.392  27.842   6.746  0.3204 -0.0707 -0.2462
    1OPC    D2B62963  17.341  27.840   6.313  0.1715 -0.0411  0.0284
    1OPC    C3B62964  17.667  28.115   6.062 -0.1175 -0.0346  0.0276
    1OPC    C4B62965  17.763   0.302   5.690 -0.0082  0.0282  0.2677
    1OPC    NC362966  25.873  10.007   7.817 -0.0292  0.0305  0.1233
    1OPC    PO462967  25.741   9.942   7.335 -0.2286 -0.2629  0.1057
    1OPC    GL162968  25.712   9.914   6.883  0.1328  0.0030  0.0912
    1OPC    GL262969  25.718   9.829   6.494  0.0390 -0.0849  0.0685
    1OPC    C1B62970  25.936   9.805   6.113  0.0300 -0.1944 -0.0061
    1OPC    D2B62971  25.955   9.712   5.636 -0.0618 -0.1663  0.0205
    1OPC    C3B62972  25.993   9.917   5.251 -0.0997 -0.0857  0.0565
    1OPC    C4B62973  26.004  10.273   5.265  0.0176 -0.1724 -0.1581
    1OPC    NC362974   5.204   5.525   6.624  0.0677 -0.0032  0.2543
    1OPC    PO462975   4.880   5.192   6.538  0.1269 -0.1523  0.1083
    1OPC    GL162976   5.093   5.243   6.157  0.1967 -0.0060 -0.0462
    1OPC    GL262977   5.013   5.363   5.940  0.0663 -0.0907  0.2797
    1OPC    C1B62978   5.018   5.543   5.624  0.1911  0.2618  0.0694
    1OPC    D2B62979   4.664   5.642   5.322 -0.1118 -0.0866 -0.0050
    1OPC    C3B62980   4.704   5.757   4.861 -0.0236  0.0544 -0.0293
    1OPC    C4B62981   4.988   5.754   4.459 -0.1278 -0.0860 -0.1090
    1OPC    NC362982  24.781   7.893   6.466 -0.0159 -0.5114  0.4274
    1OPC    PO462983  24.900   8.305   6.728  0.1981 -0.0108 -0.2705
    1OPC    GL162984  24.909   8.690   6.483  0.0954  0.0502  0.1429
    1OPC    GL262985  25.202   8.828   6.204  0.4100  0.1143 -0.3263
    1OPC    C1B62986  25.217   9.165   5.946 -0.1873  0.0189  0.0119
    1OPC    D2B62987  25.130   9.564   5.867  0.3053 -0.2762  0.0102
    1OPC    C3B62988  24.954   9.678   5.421  0.0147 -0.0809 -0.0432
    1OPC    C4B62989  24.935   9.811   4.923 -0.2363  0.1356  0.0287
    1OPC    NC362990  11.564   9.982   8.102  0.2369 -0.0246 -0.5397
    1OPC    PO462991  11.725  10.086   7.686  0.0884 -0.0928  0.0549
    1OPC    GL162992  11.904   9.889   7.383  0.1217 -0.1706 -0.0451
    1OPC    GL262993  11.856   9.894   7.156 -0.1786 -0.1144 -0.0415
    1OPC    C1B62994  11.863   9.945   6.695  0.0505  0.3574  0.0291
    1OPC    D2B62995  11.739  10.035   6.248 -0.1012  0.0780  0.1536
    1OPC    C3B62996  11.815   9.834   5.978  0.1228  0.2682 -0.1913
    1OPC    C4B62997  11.656   9.481   5.716  0.3582 -0.0130 -0.2304
    1OPC    NC362998  21.872   1.680   6.856  0.2240 -0.4394 -0.2920
    1OPC    PO462999  21.962   2.191   6.963 -0.0341 -0.2980  0.1940
    1OPC    GL163000  22.127   2.078   6.545 -0.4565  0.4165  0.0223
    1OPC    GL263001  22.052   1.873   6.401 -0.1171  0.0423  0.1802
    1OPC    C1B63002  21.825   1.911   5.989 -0.0642 -0.1789  0.0334
    1OPC    D2B63003  21.532   1.881   5.665 -0.0745 -0.2571 -0.1304
    1OPC    C3B63004  21.602   2.163   5.323  0.0774 -0.2222 -0.1099
    1OPC    C4B63005  21.288   2.441   5.089 -0.5040  0.3678  0.0060
    1OPC    NC363006   9.555   5.262   7.883 -0.1736 -0.3131  0.1191
    1OPC    PO463007   9.204   4.982   7.836 -0.0364 -0.0791  0.1004
    1OPC    GL163008   9.665   4.830   7.625  0.0461  0.3341  0.1338
    1OPC    GL263009   9.622   4.745   7.327  0.1408  0.1607  0.0047
    1OPC    C1B63010   9.758   4.595   6.962  0.1001  0.0324  0.0620
    1OPC    D2B63011   9.891   4.797   6.585 -0.1620 -0.1640 -0.0355
    1OPC    C3B63012  10.352   4.897   6.501  0.0541 -0.1476 -0.2069
    1OPC    C4B63013  10.596   5.069   6.325  0.0702  0.5605 -0.3107
    1OPC    NC363014  15.702  16.899   7.996 -0.1158  0.1398  0.0990
    1OPC    PO463015  16.114  16.763   7.959 -0.1037 -0.0950  0.1392
    1OPC    GL163016  16.118  16.767   7.520  0.1755  0.3662  0.3831
    1OPC    GL263017  16.096  16.888   7.214 -0.1012  0.2066 -0.0725
    1OPC    C1B63018  15.972  16.861   6.807  0.2725 -0.1734 -0.0523
    1OPC    D2B63019  16.142  16.948   6.358 -0.3996  0.0954  0.0701
    1OPC    C3B63020  16.265  16.634   6.029 -0.2509  0.0023 -0.0728
    1OPC    C4B63021  16.236  16.497   5.686  0.2033  0.1479  0.1402
    1OPC    NC363022  14.977  27.718   7.934  0.3871 -0.2827 -0.1306
    1OPC    PO463023  15.343  27.634   7.660  0.0770  0.2579 -0.1697
    1OPC    GL163024  15.402  27.931   7.245 -0.1533  0.2302  0.0546
    1OPC    GL263025  15.434  28.102   7.007 -0.2077  0.2129 -0.3012
    1OPC    C1B63026  15.581   0.246   6.696  0.1241 -0.0309 -0.1086
    1OPC    D2B63027  15.616   0.322   6.279 -0.4314 -0.0285  0.2527
    1OPC    C3B63028  15.942   0.292   6.126 -0.0862  0.2059 -0.2488
    1OPC    C4B63029  16.236   0.585   5.996  0.0515 -0.1249  0.2035
    1OPC    NC363030   3.883   1.262   6.550 -0.1066 -0.0151 -0.0779
    1OPC    PO463031   3.512   0.977   6.330  0.3572 -0.3182  0.3369
    1OPC    GL163032   3.223   0.718   6.040  0.2647  0.0097  0.0232
    1OPC    GL263033   2.965   0.680   5.925  0.2989 -0.0203 -0.0071
    1OPC    C1B63034   2.787   0.696   5.531 -0.0142 -0.0420  0.0709
    1OPC    D2B63035   2.645   0.550   5.137  0.1064  0.0391  0.0644
    1OPC    C3B63036   2.278   0.407   5.102  0.1092  0.0995  0.1732
    1OPC    C4B63037   2.039   0.055   4.987  0.2637  0.0902 -0.1054
    1OPC    NC363038  20.944  18.805   8.083 -0.1386  0.0731 -0.1101
    1OPC    PO463039  20.701  19.030   7.817 -0.0736  0.1631 -0.3447
    1OPC    GL163040  20.427  19.255   7.472  0.0527 -0.0446  0.2257
    1OPC    GL263041  20.366  19.432   7.153 -0.3045 -0.1887 -0.0644
    1OPC    C1B63042  20.263  19.418   6.717  0.1458  0.1399  0.1186
    1OPC    D2B63043  20.234  19.262   6.333  0.2003  0.1011 -0.0515
    1OPC    C3B63044  20.395  19.410   5.938  0.0996 -0.1755  0.2123
    1OPC    C4B63045  20.625  19.355   5.664  0.1420  0.0204 -0.0181
    1OPC    NC363046   5.943  12.279   7.674  0.4056 -0.6055  0.0191
    1OPC    PO463047   6.426  12.158   7.580  0.2217  0.0013  0.0571
    1OPC    GL163048   6.389  12.425   7.189  0.0014 -0.2878 -0.4010
    1OPC    GL263049   6.222  12.490   6.774 -0.2274 -0.1632  0.1552
    1OPC    C1B63050   6.181  12.257   6.391 -0.3247 -0.2247 -0.0503
    1OPC    D2B63051   6.392  12.249   6.033 -0.0551 -0.1375 -0.0006
    1OPC    C3B63052   6.234  12.230   5.600  0.0516  0.4492 -0.0063
    1OPC    C4B63053   5.945  12.112   5.295  0.3645  0.2329 -0.0770
    1OPC    NC363054   8.478  19.839   7.877  0.1521 -0.2225  0.1638
    1OPC    PO463055   8.801  20.004   7.636 -0.1312  0.0871  0.1253
    1OPC    GL163056   8.512  20.167   7.321  0.3631 -0.3246  0.0355
    1OPC    GL263057   8.240  20.318   7.145  0.0117  0.1303  0.1168
    1OPC    C1B63058   8.147  20.362   6.747 -0.5018  0.1095 -0.1485
    1OPC    D2B63059   8.330  20.275   6.327 -0.0822 -0.3404 -0.1976
    1OPC    C3B63060   8.612  19.909   6.198  0.3041 -0.0348  0.3827
    1OPC    C4B63061   8.752  19.615   5.752 -0.1233  0.0003 -0.0822
    1OPC    NC363062   6.490   6.229   7.791  0.0244 -0.0242  0.2343
    1OPC    PO463063   6.662   6.177   7.363 -0.2305 -0.1168 -0.1247
    1OPC    GL163064   6.774   6.271   6.908 -0.3934 -0.0009  0.0679
    1OPC    GL263065   6.866   6.139   6.505 -0.0385 -0.2913  0.1712
    1OPC    C1B63066   6.829   6.134   6.074 -0.0389 -0.0159 -0.0105
    1OPC    D2B63067   6.826   6.258   5.658 -0.0640 -0.0180 -0.3511
    1OPC    C3B63068   6.578   6.025   5.294 -0.1838 -0.3155  0.0246
    1OPC    C4B63069   6.491   6.127   4.926  0.3017 -0.1817 -0.1292
    1OPC    NC363070  12.225  13.998   7.937  0.0473  0.0444  0.0900
    1OPC    PO463071  12.345  14.512   8.058 -0.0977 -0.2054 -0.3537
    1OPC    GL163072  12.359  14.567   7.604  0.2009  0.0375 -0.2759
    1OPC    GL263073  12.460  14.506   7.314 -0.2527 -0.2623 -0.0722
    1OPC    C1B63074  12.470  14.249   6.889 -0.1608  0.0181  0.2126
    1OPC    D2B63075  12.145  14.037   6.564  0.3909 -0.1979  0.1520
    1OPC    C3B63076  12.040  14.023   6.133 -0.1298  0.0671 -0.0557
    1OPC    C4B63077  11.769  13.759   5.839  0.0918 -0.3810 -0.3917
    1OPC    NC363078   2.788   7.854   7.047  0.0770  0.2465  0.0213
    1OPC    PO463079   2.737   7.961   6.622  0.1113 -0.0307 -0.2720
    1OPC    GL163080   2.611   7.775   6.340 -0.0286  0.2300 -0.0468
    1OPC    GL263081   2.335   7.743   6.059 -0.0673 -0.0655 -0.0628
    1OPC    C1B63082   2.138   7.910   5.709  0.0165  0.4413 -0.4162
    1OPC    D2B63083   2.184   8.084   5.364  0.0068  0.2488 -0.0305
    1OPC    C3B63084   1.986   8.384   5.306  0.0808  0.0810  0.2625
    1OPC    C4B63085   1.731   8.555   4.953  0.2167 -0.1052  0.3738
    1OPC    NC363086  23.208  18.504   8.126  0.1850 -0.0695  0.0171
    1OPC    PO463087  22.828  18.263   8.004  0.1225  0.0489 -0.0506
    1OPC    GL163088  22.758  18.082   7.573 -0.2043  0.1367 -0.3863
    1OPC    GL263089  22.570  18.128   7.329  0.1923 -0.0479 -0.0971
    1OPC    C1B63090  22.512  18.348   6.918  0.1111 -0.1372  0.1213
    1OPC    D2B63091  22.188  18.232   6.658 -0.2148 -0.1594  0.0492
    1OPC    C3B63092  22.297  18.170   6.201 -0.3734  0.1686 -0.2773
    1OPC    C4B63093  22.696  18.028   6.011  0.1983 -0.0343 -0.2184
    1OPC    NC363094   8.004   5.118   7.724  0.0185  0.1447 -0.0680
    1OPC    PO463095   8.368   5.070   7.464 -0.0733  0.3471  0.1527
    1OPC    GL163096   8.692   5.134   7.318 -0.1187 -0.1503  0.1152
    1OPC    GL263097   8.938   5.090   6.956  0.5166  0.0553  0.1251
    1OPC    C1B63098   9.012   4.998   6.550  0.1489 -0.3125  0.1531
    1OPC    D2B63099   9.269   4.885   6.146  0.1878  0.0129 -0.0758
    1OPC    C3B63100   9.628   5.064   6.096 -0.1553  0.1731  0.2035
    1OPC    C4B63101  10.012   4.961   6.142 -0.2163 -0.1091  0.0402
    1OPC    NC363102  18.015  10.627   8.163 -0.0244  0.1143  0.1565
    1OPC    PO463103  17.652  10.713   7.937 -0.2106  0.0084  0.1490
    1OPC    GL163104  17.871  10.846   7.580 -0.1029 -0.0273  0.1054
    1OPC    GL263105  17.878  10.941   7.302  0.1384 -0.4076  0.1389
    1OPC    C1B63106  17.878  11.063   6.903  0.3879 -0.1685  0.1186
    1OPC    D2B63107  17.730  11.145   6.503  0.0129 -0.0988 -0.1257
    1OPC    C3B63108  17.459  10.987   6.214  0.3509  0.1864  0.0459
    1OPC    C4B63109  17.392  10.952   5.778 -0.0193 -0.1257  0.1305
    1OPC    NC363110  26.564   4.525   6.511 -0.0464  0.1183  0.0665
    1OPC    PO463111  26.964   4.199   6.410  0.0570  0.2170 -0.0882
    1OPC    GL163112  27.181   4.225   6.036 -0.1330  0.0154  0.2124
    1OPC    GL263113  27.340   4.120   5.696  0.2583 -0.1489 -0.1076
    1OPC    C1B63114  27.309   4.063   5.226  0.0126 -0.0507 -0.0020
    1OPC    D2B63115  26.990   4.076   4.876  0.2320  0.0909 -0.1442
    1OPC    C3B63116  26.740   4.350   4.876 -0.1720  0.3407  0.1941
    1OPC    C4B63117  26.762   4.780   4.639 -0.2356  0.0768  0.0472
    1OPC    NC363118  14.073   7.699   8.193 -0.0558 -0.0881  0.2342
    1OPC    PO463119  14.191   7.337   7.947  0.1281  0.0987 -0.2544
    1OPC    GL163120  14.025   7.613   7.630  0.0066  0.0074  0.0349
    1OPC    GL263121  13.743   7.804   7.359  0.0623  0.0937  0.0586
    1OPC    C1B63122  13.777   7.926   6.978  0.2081  0.0831 -0.2392
    1OPC    D2B63123  13.751   8.350   6.645  0.0514  0.1638  0.0370
    1OPC    C3B63124  14.055   8.467   6.435 -0.1757 -0.1733 -0.2760
    1OPC    C4B63125  14.478   8.647   6.304 -0.0700 -0.0611 -0.1037
    1OPC    NC363126  17.117  24.525   7.549 -0.3031  0.1335 -0.0541
    1OPC    PO463127  16.752  24.668   7.248  0.0350 -0.0066 -0.2031
    1OPC    GL163128  16.963  24.523   6.927  0.3456 -0.1391  0.0100
    1OPC    GL263129  16.883  24.445   6.617 -0.0644 -0.2874 -0.2531
    1OPC    C1B63130  16.790  24.252   6.137 -0.2062 -0.0237 -0.0382
    1OPC    D2B63131  16.950  24.128   5.824 -0.1424 -0.3554  0.1280
    1OPC    C3B63132  17.396  24.061   5.928 -0.1286  0.1005 -0.1089
    1OPC    C4B63133  17.759  24.236   5.944 -0.0644 -0.1471 -0.0383
    1OPC    NC363134  15.715  18.566   7.891  0.0745  0.1277  0.0093
    1OPC    PO463135  15.709  18.821   7.425 -0.0115  0.0188  0.0156
    1OPC    GL163136  16.025  18.770   7.084 -0.1106 -0.2215  0.4029
    1OPC    GL263137  16.030  18.727   6.756  0.0009  0.1739 -0.2653
    1OPC    C1B63138  16.156  18.367   6.554  0.0263 -0.2160  0.0924
    1OPC    D2B63139  16.515  18.341   6.158  0.1047 -0.1229  0.0431
    1OPC    C3B63140  16.529  18.689   5.905 -0.1567 -0.0034 -0.1183
    1OPC    C4B63141  16.595  18.787   5.550  0.1637  0.0046 -0.2057
    1OPC    NC363142  20.337   7.770   6.700 -0.2101  0.4335 -0.2233
    1OPC    PO463143  20.220   7.310   6.624  0.2031  0.2289 -0.1670
    1OPC    GL163144  19.916   7.134   6.497 -0.2676 -0.1051  0.1829
    1OPC    GL263145  19.745   7.395   6.369 -0.0746  0.1973  0.1477
    1OPC    C1B63146  19.397   7.483   6.159  0.0209 -0.1076 -0.0112
    1OPC    D2B63147  18.972   7.506   6.145  0.1304 -0.1986  0.2829
    1OPC    C3B63148  18.594   7.355   5.867  0.2837 -0.0376  0.0162
    1OPC    C4B63149  18.202   7.330   5.772  0.5955  0.0039 -0.3125
    1OPC    NC363150  20.869  15.869   7.495  0.1552 -0.0818  0.1725
    1OPC    PO463151  20.876  16.256   7.596 -0.1251  0.0981 -0.2314
    1OPC    GL163152  20.930  16.394   7.208  0.0097  0.1857  0.0334
    1OPC    GL263153  21.195  16.455   6.995  0.1199 -0.3777 -0.0245
    1OPC    C1B63154  21.153  16.446   6.516  0.0272  0.0788  0.2430
    1OPC    D2B63155  21.224  16.424   6.087 -0.0364 -0.0137  0.0435
    1OPC    C3B63156  21.564  16.302   5.811  0.2338 -0.2201  0.1415
    1OPC    C4B63157  21.565  15.936   5.545 -0.2659  0.2877  0.0350
    1OPC    NC363158   9.923   1.088   7.008 -0.0612  0.0697 -0.3411
    1OPC    PO463159  10.195   1.362   7.302  0.0031 -0.0914 -0.0703
    1OPC    GL163160  10.207   1.519   6.867  0.0839 -0.0501  0.1732
    1OPC    GL263161  10.112   1.518   6.586  0.1506 -0.0254  0.1762
    1OPC    C1B63162  10.001   1.614   6.175  0.0592  0.1296 -0.0752
    1OPC    D2B63163  10.025   1.466   5.808 -0.1908 -0.0439 -0.0047
    1OPC    C3B63164  10.258   1.724   5.603  0.1616 -0.2596 -0.0591
    1OPC    C4B63165  10.442   1.906   5.260  0.1579  0.0220  0.1065
    1OPC    NC363166  26.633  26.144   7.432 -0.1339  0.0589  0.0468
    1OPC    PO463167  27.008  26.235   7.263  0.2913 -0.0731  0.1928
    1OPC    GL163168  27.062  26.261   6.826 -0.4109 -0.2502  0.2423
    1OPC    GL263169  27.237  26.118   6.520 -0.0190  0.0372  0.2902
    1OPC    C1B63170  27.183  26.087   6.148 -0.1082 -0.1694 -0.1411
    1OPC    D2B63171  27.241  25.996   5.640  0.2847  0.1038 -0.1876
    1OPC    C3B63172  27.227  26.217   5.263  0.2139 -0.0241  0.0436
    1OPC    C4B63173  26.962  26.293   4.833 -0.1376  0.1369  0.3541
    1OPC    NC363174  16.745  14.204   7.420  0.0280  0.0288 -0.2471
    1OPC    PO463175  16.979  13.813   7.267  0.1889 -0.2627  0.1431
    1OPC    GL163176  17.148  13.725   6.864 -0.0518  0.1526 -0.0221
    1OPC    GL263177  17.303  13.811   6.622  0.1643  0.1543 -0.0037
    1OPC    C1B63178  17.423  13.791   6.193 -0.0154  0.0768  0.2161
    1OPC    D2B63179  17.865  14.031   6.020 -0.5134  0.1966 -0.0063
    1OPC    C3B63180  18.221  14.008   5.996  0.0111 -0.1091 -0.1133
    1OPC    C4B63181  18.501  13.656   6.082 -0.1389 -0.0368  0.2965
    1OPC    NC363182   0.999   8.218   7.022 -0.1412 -0.2233  0.1658
    1OPC    PO463183   0.617   8.513   6.859  0.1043 -0.3024 -0.2408
    1OPC    GL163184   0.519   8.514   6.403  0.3170 -0.1092  0.0505
    1OPC    GL263185   0.392   8.340   6.172  0.0372  0.1795  0.1356
    1OPC    C1B63186   0.103   8.385   5.800 -0.0416 -0.0075  0.2195
    1OPC    D2B63187   0.172   8.472   5.376 -0.0893 -0.2602  0.0459
    1OPC    C3B63188   0.002   8.860   5.220  0.2099 -0.1151  0.1809
    1OPC    C4B63189  27.960   8.890   4.753  0.0444 -0.0454  0.0176
    1OPC    NC363190   8.408  27.346   7.079  0.1061  0.0413 -0.0956
    1OPC    PO463191   8.311  27.102   6.799 -0.1229 -0.1216  0.0408
    1OPC    GL163192   8.185  26.790   6.541  0.3369  0.1682 -0.3214
    1OPC    GL263193   8.150  26.535   6.369 -0.2208  0.0798  0.2552
    1OPC    C1B63194   8.317  26.573   5.985 -0.1233  0.4121  0.0293
    1OPC    D2B63195   8.617  26.731   5.765 -0.0361  0.2450 -0.0179
    1OPC    C3B63196   8.711  26.676   5.307  0.2953 -0.1871  0.1393
    1OPC    C4B63197   8.587  26.617   4.818 -0.1958  0.4005 -0.2020
    1OPC    NC363198   3.199   3.868   5.971  0.0953 -0.4988 -0.1268
    1OPC    PO463199   3.586   4.132   5.890  0.1274 -0.2067  0.0413
    1OPC    GL163200   3.558   3.862   5.548 -0.2515 -0.2363  0.0480
    1OPC    GL263201   3.824   3.851   5.301 -0.0986  0.1826 -0.0876
    1OPC    C1B63202   3.864   3.861   4.960  0.1020 -0.0598  0.2638
    1OPC    D2B63203   4.130   3.711   4.683 -0.1483  0.4666 -0.1064
    1OPC    C3B63204   3.947   3.558   4.341 -0.1266  0.1303 -0.1596
    1OPC    C4B63205   4.092   3.234   4.107 -0.0077  0.0505  0.1739
    1OPC    NC363206  11.923  12.081   8.222 -0.0907 -0.1248  0.0126
    1OPC    PO463207  11.576  12.209   8.020  0.0791  0.0306 -0.1994
    1OPC    GL163208  11.658  12.209   7.594 -0.0688 -0.2710 -0.1962
    1OPC    GL263209  11.681  12.217   7.394  0.2441 -0.1666  0.0370
    1OPC    C1B63210  11.784  12.198   6.834 -0.0338 -0.0663  0.1588
    1OPC    D2B63211  11.593  12.212   6.511 -0.1254 -0.0122  0.1926
    1OPC    C3B63212  11.509  12.293   6.070  0.2542  0.0347  0.0522
    1OPC    C4B63213  11.211  12.656   5.831  0.2737  0.0259  0.0012
    1OPC    NC363214   3.601  14.132   6.832  0.0244 -0.0752 -0.2489
    1OPC    PO463215   3.513  13.660   6.786  0.0448  0.1235 -0.0647
    1OPC    GL163216   3.669  13.818   6.410  0.0031 -0.0421  0.0486
    1OPC    GL263217   3.889  13.841   6.233 -0.3769 -0.2752  0.2593
    1OPC    C1B63218   4.129  13.887   5.938  0.1473 -0.1650 -0.1815
    1OPC    D2B63219   4.487  13.798   5.728 -0.0730 -0.0583  0.0451
    1OPC    C3B63220   4.652  13.360   5.826 -0.2258 -0.1462  0.1782
    1OPC    C4B63221   5.045  13.276   5.814  0.0438  0.0798  0.0979
    1OPC    NC363222  19.801  22.724   8.048 -0.1247  0.1297  0.2460
    1OPC    PO463223  19.896  22.765   7.515  0.3917  0.2161 -0.2609
    1OPC    GL163224  19.901  22.871   7.023  0.0538 -0.2029 -0.3158
    1OPC    GL263225  20.046  22.863   6.792 -0.0331 -0.0031 -0.0769
    1OPC    C1B63226  20.246  22.817   6.322 -0.0478 -0.1373 -0.0824
    1OPC    D2B63227  20.133  22.731   5.850 -0.0088 -0.0596  0.0455
    1OPC    C3B63228  20.434  22.533   5.472  0.0755 -0.1953 -0.2026
    1OPC    C4B63229  20.372  22.588   5.089 -0.1837  0.0298  0.0727
    1OPC    NC363230  14.552  22.282   6.989  0.0363 -0.4608  0.1862
    1OPC    PO463231  15.004  22.314   6.867 -0.3103 -0.3136 -0.2999
    1OPC    GL163232  14.819  22.483   6.508 -0.1136 -0.1512  0.2982
    1OPC    GL263233  15.027  22.498   6.166  0.3050  0.0286  0.0674
    1OPC    C1B63234  15.206  22.318   5.867  0.1156 -0.1218  0.0489
    1OPC    D2B63235  15.340  22.433   5.429 -0.1604 -0.1624 -0.1756
    1OPC    C3B63236  15.291  22.659   5.120 -0.3390 -0.2071 -0.1414
    1OPC    C4B63237  15.522  22.938   4.882 -0.0491  0.0499 -0.0387
    1OPC    NC363238   6.545  14.036   7.700 -0.4251 -0.0260 -0.1373
    1OPC    PO463239   6.674  13.573   7.411  0.2392  0.1198  0.0821
    1OPC    GL163240   6.393  13.430   7.083  0.4596  0.0208  0.1567
    1OPC    GL263241   6.479  13.618   6.806  0.1562 -0.0288  0.0792
    1OPC    C1B63242   6.639  13.638   6.385  0.2784 -0.0764 -0.2766
    1OPC    D2B63243   6.794  13.526   5.891  0.0411 -0.0827 -0.0231
    1OPC    C3B63244   6.890  13.190   5.569  0.1042 -0.2200  0.3117
    1OPC    C4B63245   6.955  12.868   5.290 -0.0338  0.0350 -0.2182
    1OPC    NC363246  11.670  18.912   7.544 -0.0916  0.1946  0.0889
    1OPC    PO463247  11.565  18.500   7.423  0.0243 -0.3276  0.0668
    1OPC    GL163248  11.764  18.275   7.208  0.2427 -0.0970 -0.2239
    1OPC    GL263249  11.948  18.235   6.912  0.2509  0.1150  0.0554
    1OPC    C1B63250  12.212  18.315   6.582 -0.1593  0.0428 -0.1122
    1OPC    D2B63251  12.217  18.627   6.326 -0.1995  0.0167  0.0962
    1OPC    C3B63252  11.894  18.659   5.983 -0.1238 -0.1319  0.1472
    1OPC    C4B63253  11.624  18.317   5.809  0.1308  0.2336  0.5816
    1OPC    NC363254  24.359  15.614   7.842 -0.1639 -0.1307 -0.2296
    1OPC    PO463255  24.147  15.399   7.528 -0.1272 -0.2454  0.1032
    1OPC    GL163256  24.334  15.530   7.089  0.0389  0.0929 -0.1336
    1OPC    GL263257  24.578  15.584   6.791 -0.2492 -0.1955 -0.2443
    1OPC    C1B63258  24.535  15.756   6.410 -0.2437 -0.2352  0.0475
    1OPC    D2B63259  24.486  15.984   6.002 -0.1172 -0.2099 -0.1444
    1OPC    C3B63260  24.756  16.204   5.771 -0.0433  0.2950  0.1647
    1OPC    C4B63261  24.954  16.088   5.290  0.0352  0.1383  0.2136
    1OPC    NC363262  14.293   4.200   7.754 -0.1417  0.0265 -0.1069
    1OPC    PO463263  14.650   3.976   7.802  0.2548  0.2143 -0.3904
    1OPC    GL163264  14.648   3.876   7.334 -0.1456 -0.1602  0.1484
    1OPC    GL263265  14.698   3.730   7.035  0.1319 -0.2037  0.1986
    1OPC    C1B63266  15.008   3.621   6.770  0.2416  0.4210 -0.1631
    1OPC    D2B63267  14.959   3.614   6.393  0.3526  0.2868 -0.2896
    1OPC    C3B63268  15.313   3.738   6.130  0.0756  0.2389  0.0120
    1OPC    C4B63269  15.593   3.567   5.852 -0.2529  0.1636 -0.0063
    1OPC    NC363270   6.492  21.558   7.289  0.0064 -0.0388 -0.1921
    1OPC    PO463271   6.402  21.850   6.933 -0.1620 -0.1039  0.1480
    1OPC    GL163272   6.644  21.495   6.817  0.3110  0.1146  0.4424
    1OPC    GL263273   6.963  21.460   6.822  0.2343 -0.2743  0.0286
    1OPC    C1B63274   7.248  21.170   6.674  0.5970 -0.2862  0.1586
    1OPC    D2B63275   7.510  21.093   6.475  0.0162 -0.0704 -0.1302
    1OPC    C3B63276   7.524  20.894   6.130  0.2638  0.0691 -0.0033
    1OPC    C4B63277   7.517  20.834   5.674  0.0358  0.0153 -0.2551
    1OPC    NC363278  25.642  27.461   6.621  0.0028 -0.3672 -0.2445
    1OPC    PO463279  25.255  27.729   6.906  0.0499  0.2936  0.0339
    1OPC    GL163280  25.495  27.992   6.670 -0.3828  0.0203 -0.1968
    1OPC    GL263281  25.522  27.967   6.462 -0.2378 -0.0290  0.0752
    1OPC    C1B63282  25.532  27.939   6.048 -0.0071 -0.0639  0.2217
    1OPC    D2B63283  25.649   0.043   5.621 -0.2730 -0.0006 -0.2218
    1OPC    C3B63284  26.042   0.082   5.622  0.2633 -0.2345 -0.0946
    1OPC    C4B63285  26.459   0.136   5.607 -0.2843 -0.1878  0.3145
    1OPC    NC363286   6.053  26.976   6.535 -0.1045  0.3391 -0.0165
    1OPC    PO463287   5.641  26.754   6.538  0.1873 -0.2111 -0.2078
    1OPC    GL163288   5.927  26.530   6.231  0.4286 -0.2139 -0.0575
    1OPC    GL263289   5.893  26.313   6.109  0.1261  0.1055 -0.0428
    1OPC    C1B63290   5.813  26.242   5.734 -0.1451  0.1423  0.0295
    1OPC    D2B63291   5.599  26.002   5.497 -0.1545 -0.1693 -0.1267
    1OPC    C3B63292   5.309  25.677   5.599 -0.1043 -0.0398 -0.1174
    1OPC    C4B63293   4.979  25.570   5.378  0.0234  0.0203  0.4793
    1OPC    NC363294  15.938  14.855   8.101  0.0151  0.0503  0.1045
    1OPC    PO463295  15.655  14.564   7.875 -0.1642  0.0226 -0.2293
    1OPC    GL163296  15.615  14.782   7.516 -0.0543 -0.2703 -0.0846
    1OPC    GL263297  15.537  15.016   7.458  0.0166  0.0957  0.2149
    1OPC    C1B63298  15.304  15.129   7.075 -0.0675  0.4435 -0.0047
    1OPC    D2B63299  15.322  15.217   6.695 -0.0764 -0.0224  0.0614
    1OPC    C3B63300  15.533  15.455   6.507  0.3445 -0.0232  0.0965
    1OPC    C4B63301  15.816  15.884   6.383 -0.1114 -0.2507  0.1820
    1OPC    NC363302  21.440  22.159   7.676  0.2074 -0.2134  0.1911
    1OPC    PO463303  21.547  21.992   7.350  0.3128 -0.2213  0.1318
    1OPC    GL163304  21.524  21.805   6.880  0.0428 -0.1639 -0.0443
    1OPC    GL263305  21.491  21.654   6.568 -0.2615 -0.2136  0.1541
    1OPC    C1B63306  21.509  21.590   6.117  0.0966  0.0423  0.2946
    1OPC    D2B63307  21.778  21.614   5.859  0.0113 -0.1582  0.1473
    1OPC    C3B63308  21.674  21.734   5.513  0.0981 -0.0921 -0.0873
    1OPC    C4B63309  21.271  21.983   5.282  0.1056 -0.0354 -0.0045
    1OPC    NC363310  22.860   6.259   7.011 -0.2298 -0.3115  0.0373
    1OPC    PO463311  23.316   6.290   6.939 -0.2180 -0.1210 -0.0527
    1OPC    GL163312  23.431   6.292   6.627  0.0783  0.0403  0.0407
    1OPC    GL263313  23.280   6.329   6.340 -0.1572 -0.1824 -0.2726
    1OPC    C1B63314  23.191   6.162   5.938  0.1456 -0.0400  0.0241
    1OPC    D2B63315  23.350   6.174   5.576 -0.1379 -0.3579 -0.2543
    1OPC    C3B63316  23.441   6.394   5.183 -0.0612  0.1164 -0.0308
    1OPC    C4B63317  23.375   6.592   4.967  0.1686 -0.1673 -0.0044
    1OPC    NC363318   0.845  11.723   7.010  0.1720  0.0322 -0.0382
    1OPC    PO463319   0.934  11.602   6.661  0.0027  0.1786  0.3104
    1OPC    GL163320   0.642  11.545   6.451  0.1262  0.0121 -0.0579
    1OPC    GL263321   0.308  11.693   6.320  0.1634 -0.2329  0.0997
    1OPC    C1B63322   0.256  11.997   6.100 -0.4083  0.0049 -0.2859
    1OPC    D2B63323   0.420  12.002   5.730 -0.0930 -0.1998 -0.2248
    1OPC    C3B63324   0.465  12.354   5.376  0.2089  0.0055 -0.0873
    1OPC    C4B63325   0.587  12.396   4.880  0.1875 -0.0100  0.2937
    1OPC    NC363326  14.729   6.174   7.668 -0.3331 -0.1856 -0.0486
    1OPC    PO463327  14.853   5.795   7.806 -0.1923  0.2111 -0.4046
    1OPC    GL163328  14.811   5.606   7.432  0.0771  0.2471 -0.2829
    1OPC    GL263329  14.788   5.472   7.144 -0.1742  0.0504 -0.0845
    1OPC    C1B63330  14.547   5.427   6.793  0.1057  0.0425 -0.0699
    1OPC    D2B63331  14.374   5.124   6.565  0.0191 -0.3309 -0.0087
    1OPC    C3B63332  14.316   4.795   6.390 -0.0509 -0.2087  0.1030
    1OPC    C4B63333  14.243   4.403   6.203  0.3326 -0.0675  0.0361
    1OPC    NC363334   3.399   5.925   5.952 -0.0386 -0.0297  0.2029
    1OPC    PO463335   2.909   5.892   6.010  0.0781 -0.3061  0.1591
    1OPC    GL163336   2.896   5.581   5.699 -0.3825  0.1460 -0.1640
    1OPC    GL263337   2.968   5.602   5.444  0.0636  0.3358  0.2781
    1OPC    C1B63338   2.895   5.654   4.994 -0.1057  0.0597  0.1832
    1OPC    D2B63339   2.885   5.703   4.607 -0.2108 -0.0982 -0.1456
    1OPC    C3B63340   2.656   5.567   4.242  0.0782  0.2502  0.1480
    1OPC    C4B63341   2.832   5.301   3.928 -0.2454 -0.0485 -0.1722
    1OPC    NC363342  10.591   3.651   7.551 -0.1155  0.1502 -0.2283
    1OPC    PO463343  11.011   3.437   7.350  0.1029 -0.0540  0.2838
    1OPC    GL163344  11.000   3.304   7.053  0.2178  0.2331  0.1069
    1OPC    GL263345  10.800   3.234   6.723  0.0362  0.0065  0.1365
    1OPC    C1B63346  10.769   3.198   6.269 -0.0183  0.1017  0.3204
    1OPC    D2B63347  10.545   3.452   5.911 -0.0315 -0.2538 -0.0753
    1OPC    C3B63348  10.569   3.389   5.437  0.0297 -0.2406  0.0640
    1OPC    C4B63349  10.333   3.384   5.097  0.0871  0.1373 -0.0985
    1OPC    NC363350   7.402  25.159   7.202 -0.1558  0.0505  0.1628
    1OPC    PO463351   7.500  24.740   6.912  0.1410  0.0237  0.0333
    1OPC    GL163352   7.442  24.786   6.516  0.0677  0.1313 -0.0785
    1OPC    GL263353   7.210  24.808   6.243  0.2939 -0.1059  0.0794
    1OPC    C1B63354   7.022  24.767   5.846  0.1739  0.0163 -0.1130
    1OPC    D2B63355   6.655  24.636   5.570  0.0278 -0.2097 -0.0919
    1OPC    C3B63356   6.700  24.722   5.083 -0.2016 -0.1278 -0.3672
    1OPC    C4B63357   6.614  24.941   4.736 -0.0693  0.0636  0.0757
    1OPC    NC363358   9.957  17.803   7.875  0.3362 -0.0644  0.1325
    1OPC    PO463359  10.469  17.769   7.626  0.1486 -0.0306  0.2013
    1OPC    GL163360  10.658  18.149   7.519 -0.0190 -0.1119  0.1037
    1OPC    GL263361  10.753  18.288   7.300 -0.2138 -0.0486 -0.1628
    1OPC    C1B63362  10.754  18.365   6.919  0.1928  0.0675 -0.2640
    1OPC    D2B63363  10.627  18.182   6.533  0.0716 -0.1602  0.1160
    1OPC    C3B63364  10.280  18.217   6.240  0.0360 -0.0446  0.0059
    1OPC    C4B63365  10.185  18.201   5.845  0.1824 -0.3333 -0.2165
    1OPC    NC363366  21.977   4.792   7.074  0.0444 -0.2091  0.0150
    1OPC    PO463367  21.684   5.100   6.787  0.3391 -0.2696  0.2008
    1OPC    GL163368  21.910   5.080   6.432 -0.1881 -0.1959  0.2025
    1OPC    GL263369  21.984   5.255   6.238 -0.2701 -0.4200  0.0946
    1OPC    C1B63370  22.094   5.168   5.813 -0.2118 -0.1573 -0.0717
    1OPC    D2B63371  21.964   5.360   5.407  0.1461  0.2080  0.1858
    1OPC    C3B63372  21.982   5.045   5.009 -0.0168 -0.2000 -0.1296
    1OPC    C4B63373  21.998   4.553   5.046 -0.1783 -0.0431 -0.0824
    1OPC    NC363374   7.002   3.251   7.140 -0.3343  0.1796 -0.0585
    1OPC    PO463375   6.923   2.810   7.008  0.1247 -0.0484 -0.0347
    1OPC    GL163376   7.127   2.939   6.633 -0.0774 -0.0240  0.2021
    1OPC    GL263377   7.184   3.100   6.348 -0.2163  0.2601 -0.2286
    1OPC    C1B63378   7.084   3.195   5.906 -0.0930 -0.0073 -0.1943
    1OPC    D2B63379   6.853   3.404   5.693  0.4073  0.2965 -0.0369
    1OPC    C3B63380   6.989   3.637   5.327  0.1692 -0.2030 -0.1873
    1OPC    C4B63381   6.802   3.817   4.898 -0.0998  0.0519  0.1700
    1OPC    NC363382   0.969   2.621   6.340 -0.1096  0.1833  0.1615
    1OPC    PO463383   1.456   2.625   6.397 -0.1486 -0.0944 -0.0150
    1OPC    GL163384   1.530   2.535   5.973 -0.1022  0.0685  0.2021
    1OPC    GL263385   1.533   2.376   5.780  0.0600  0.0338 -0.1931
    1OPC    C1B63386   1.620   2.204   5.396 -0.0501  0.0359 -0.3020
    1OPC    D2B63387   1.632   2.249   5.057  0.0687  0.3395  0.3431
    1OPC    C3B63388   1.437   1.957   4.763  0.0206 -0.3554 -0.1363
    1OPC    C4B63389   1.075   1.698   4.859 -0.2227 -0.0674  0.0642
    1OPC    NC363390  10.485  11.551   7.617 -0.0818  0.2303  0.0331
    1OPC    PO463391  10.619  11.260   7.393 -0.0025  0.2242 -0.0372
    1OPC    GL163392  10.756  11.175   6.935 -0.2898 -0.0947 -0.1799
    1OPC    GL263393  11.018  10.977   6.737  0.0012  0.0935 -0.0944
    1OPC    C1B63394  11.221  10.838   6.485 -0.1992  0.0564 -0.0733
    1OPC    D2B63395  11.446  10.846   6.057  0.0983 -0.1023  0.1065
    1OPC    C3B63396  11.519  11.256   5.908  0.0149  0.0232 -0.3294
    1OPC    C4B63397  11.838  11.379   5.616  0.1054 -0.1263 -0.0932
    1OPC    NC363398  11.255  23.984   6.756  0.1589  0.2228  0.3450
    1OPC    PO463399  11.405  24.432   6.996  0.2755 -0.0819  0.0273
    1OPC    GL163400  10.974  24.413   6.695  0.0701 -0.3859  0.0507
    1OPC    GL263401  10.960  24.354   6.363  0.2178 -0.0456  0.0842
    1OPC    C1B63402  11.283  24.399   5.982 -0.0831 -0.1143 -0.1437
    1OPC    D2B63403  11.440  24.187   5.543  0.0026 -0.1698 -0.2013
    1OPC    C3B63404  11.244  24.233   5.072  0.0114  0.0074  0.0190
    1OPC    C4B63405  11.321  24.384   4.734  0.0961  0.1038  0.0573
    1OPC    NC363406   4.602  20.993   7.432  0.1163  0.1387 -0.3451
    1OPC    PO463407   4.769  20.632   7.633 -0.0572  0.0041  0.2851
    1OPC    GL163408   4.777  20.278   7.262 -0.0815 -0.2704  0.0664
    1OPC    GL263409   4.798  20.251   7.081 -0.1454  0.2353 -0.1813
    1OPC    C1B63410   4.838  20.078   6.721 -0.0705 -0.0082 -0.0314
    1OPC    D2B63411   4.914  19.987   6.245  0.2496 -0.3401 -0.0929
    1OPC    C3B63412   5.132  20.167   5.898 -0.1343 -0.0451  0.3714
    1OPC    C4B63413   5.488  20.216   5.696 -0.0694 -0.1252  0.1298
    1OPC    NC363414  23.745   9.972   6.881  0.1679 -0.0976  0.2836
    1OPC    PO463415  23.546   9.637   6.655  0.0521  0.0000  0.1050
    1OPC    GL163416  23.493  10.021   6.471  0.2290 -0.0984 -0.2300
    1OPC    GL263417  23.481  10.067   6.215  0.0175  0.0092 -0.0214
    1OPC    C1B63418  23.345   9.914   5.851 -0.0217 -0.1735 -0.2866
    1OPC    D2B63419  23.177   9.743   5.488 -0.1376  0.1178 -0.2429
    1OPC    C3B63420  23.282   9.385   5.331 -0.0190  0.0049 -0.3598
    1OPC    C4B63421  23.105   9.035   5.190 -0.1162 -0.1508 -0.1719
    1OPC    NC363422  22.724   9.036   6.913 -0.4173  0.3152  0.1077
    1OPC    PO463423  22.494   9.157   7.141 -0.1072 -0.2315 -0.0123
    1OPC    GL163424  22.168   8.954   6.958 -0.0021  0.0833  0.1523
    1OPC    GL263425  22.243   8.913   6.691  0.0216 -0.2458 -0.3064
    1OPC    C1B63426  22.126   8.775   6.354  0.0390 -0.0973  0.1706
    1OPC    D2B63427  21.994   8.977   5.942  0.0248 -0.0155 -0.1634
    1OPC    C3B63428  22.095   8.817   5.614  0.0686 -0.0150 -0.0938
    1OPC    C4B63429  22.318   8.764   5.301  0.1421 -0.0829 -0.0965
    1OPC    NC363430   7.594  18.830   7.928  0.1690  0.1035 -0.3344
    1OPC    PO463431   7.512  18.476   7.714  0.0755  0.2776  0.2487
    1OPC    GL163432   7.418  18.062   7.425 -0.0981 -0.0087  0.0357
    1OPC    GL263433   7.523  17.702   7.279 -0.0083  0.1807  0.1570
    1OPC    C1B63434   7.417  17.458   6.912 -0.0142 -0.2092  0.2138
    1OPC    D2B63435   7.290  17.492   6.530 -0.1401 -0.1706 -0.0429
    1OPC    C3B63436   7.181  17.890   6.470 -0.2464  0.1159  0.1010
    1OPC    C4B63437   7.038  18.314   6.399  0.0959 -0.1888 -0.0967
    1OPC    NC363438   4.128  15.173   7.477 -0.0554  0.0705  0.1594
    1OPC    PO463439   4.077  15.518   7.233 -0.1846  0.4184 -0.0825
    1OPC    GL163440   3.961  15.278   6.901 -0.2710  0.2319  0.3419
    1OPC    GL263441   3.986  14.913   6.702 -0.0623 -0.1936  0.0424
    1OPC    C1B63442   4.297  14.748   6.311  0.4618 -0.3578  0.4097
    1OPC    D2B63443   4.715  14.978   6.071  0.0642 -0.0235 -0.1034
    1OPC    C3B63444   4.771  15.325   6.373  0.0363  0.1175 -0.1077
    1OPC    C4B63445   4.677  15.712   6.401 -0.1238 -0.4387 -0.0914
    1OPC    NC363446   9.058  13.706   8.322 -0.2471 -0.3228  0.1818
    1OPC    PO463447   9.266  13.604   7.933 -0.3706  0.0955 -0.3328
    1OPC    GL163448   9.036  13.283   7.545 -0.2864  0.3854 -0.2952
    1OPC    GL263449   9.124  13.244   7.178 -0.0240 -0.1341 -0.2348
    1OPC    C1B63450   8.994  13.227   6.740 -0.0286  0.0187  0.0025
    1OPC    D2B63451   8.817  13.179   6.456  0.0843 -0.4379 -0.0721
    1OPC    C3B63452   9.191  13.054   6.216 -0.0178 -0.0192 -0.0329
    1OPC    C4B63453   9.652  13.206   6.243 -0.1628 -0.1222  0.2184
    1OPC    NC363454  21.477  15.116   7.914 -0.1493 -0.3964  0.0272
    1OPC    PO463455  21.546  15.233   7.450  0.0091  0.0875 -0.0665
    1OPC    GL163456  21.647  15.555   7.191  0.3315 -0.2727 -0.0633
    1OPC    GL263457  21.545  15.651   6.967  0.1138 -0.0437 -0.0420
    1OPC    C1B63458  21.322  15.637   6.583 -0.0474 -0.2186 -0.0016
    1OPC    D2B63459  20.925  15.501   6.407  0.0370  0.3041  0.0920
    1OPC    C3B63460  20.924  15.350   5.972 -0.0406  0.0700  0.0413
    1OPC    C4B63461  21.062  14.984   5.713 -0.0525 -0.0307 -0.1613
    1OPC    NC363462   1.974  16.758   7.206 -0.0829  0.0267  0.1030
    1OPC    PO463463   2.119  16.599   6.837  0.0692  0.4326  0.2931
    1OPC    GL163464   2.202  16.469   6.413 -0.3749 -0.0721 -0.0413
    1OPC    GL263465   2.043  16.276   6.098  0.3355  0.0421 -0.1972
    1OPC    C1B63466   2.292  16.212   5.625  0.1598  0.3291  0.2937
    1OPC    D2B63467   2.443  16.066   5.318 -0.2208 -0.0620  0.0838
    1OPC    C3B63468   2.237  16.333   5.023 -0.1879  0.4168  0.2299
    1OPC    C4B63469   1.972  16.634   4.897  0.0666 -0.2115 -0.1167
    1OPC    NC363470   9.549  26.995   7.035  0.0102  0.1387 -0.2358
    1OPC    PO463471   9.188  26.737   7.054 -0.2382 -0.1747 -0.1568
    1OPC    GL163472   9.170  26.976   6.707 -0.3825  0.1563 -0.2501
    1OPC    GL263473   9.160  26.983   6.392  0.1675  0.3268  0.1937
    1OPC    C1B63474   9.358  27.063   5.996  0.0673 -0.1905  0.4908
    1OPC    D2B63475   9.560  27.306   5.702  0.1202 -0.1989  0.1299
    1OPC    C3B63476   9.746  27.292   5.397  0.2573  0.2427 -0.1955
    1OPC    C4B63477  10.053  27.080   5.108  0.1298 -0.0612 -0.1474
    1OPC    NC363478   3.506  17.248   7.256 -0.1900  0.0281 -0.1437
    1OPC    PO463479   3.227  17.156   6.945  0.1563 -0.1747  0.0626
    1OPC    GL163480   3.326  16.992   6.552 -0.0074  0.1016 -0.3468
    1OPC    GL263481   3.404  16.815   6.285 -0.1704 -0.0348  0.2524
    1OPC    C1B63482   3.486  16.703   5.867 -0.0763 -0.2388  0.2119
    1OPC    D2B63483   4.022  16.654   5.710  0.3515 -0.0887 -0.1298
    1OPC    C3B63484   4.392  16.427   5.706  0.0640 -0.2930  0.1646
    1OPC    C4B63485   4.681  16.544   5.267  0.0101  0.3556 -0.2179
    1OPC    NC363486   9.380   0.912   7.728 -0.0568 -0.0012  0.0925
    1OPC    PO463487   9.517   1.129   7.314  0.4799 -0.1406 -0.1103
    1OPC    GL163488   9.505   1.265   6.791 -0.1221 -0.0888  0.1902
    1OPC    GL263489   9.578   1.442   6.427  0.0035 -0.4396 -0.0711
    1OPC    C1B63490   9.560   1.633   6.011 -0.1023  0.0536  0.1749
    1OPC    D2B63491   9.648   1.658   5.497 -0.0389 -0.0047  0.0986
    1OPC    C3B63492   9.401   1.950   5.281  0.0029  0.0095 -0.0803
    1OPC    C4B63493   9.195   2.226   4.970  0.0424 -0.5200 -0.2518
    1OPC    NC363494  18.543  10.424   7.357 -0.1431 -0.0434  0.2135
    1OPC    PO463495  18.402  10.853   7.446  0.0710 -0.2833 -0.0928
    1OPC    GL163496  18.173  10.627   7.093  0.0899 -0.5046 -0.2879
    1OPC    GL263497  18.121  10.375   6.842 -0.0516 -0.0437  0.0184
    1OPC    C1B63498  18.029  10.259   6.453  0.0913  0.0623  0.2209
    1OPC    D2B63499  18.229   9.945   6.188 -0.1869 -0.1290 -0.1325
    1OPC    C3B63500  17.962   9.712   5.917 -0.0135  0.1497  0.2024
    1OPC    C4B63501  17.555   9.600   5.854  0.0314  0.4387 -0.4107
    1OPC    NC363502  26.381  27.595   6.895  0.2076 -0.0137  0.0715
    1OPC    PO463503  26.046  27.268   6.868 -0.0021 -0.3227 -0.3454
    1OPC    GL163504  26.050  27.029   6.518  0.1499  0.1741  0.1860
    1OPC    GL263505  26.359  26.974   6.294  0.1802  0.2446  0.5600
    1OPC    C1B63506  26.511  26.986   5.826  0.1404 -0.1267  0.3255
    1OPC    D2B63507  26.790  26.765   5.646  0.0490  0.0980  0.3085
    1OPC    C3B63508  26.768  26.285   5.723 -0.4038 -0.1439 -0.1832
    1OPC    C4B63509  26.803  25.930   5.464 -0.2965 -0.1435 -0.2651
    1OPC    NC363510   3.723  19.624   7.561 -0.2865 -0.3589 -0.5385
    1OPC    PO463511   3.870  19.978   7.254  0.3379 -0.1256  0.2055
    1OPC    GL163512   3.498  20.178   7.004  0.3041  0.0614  0.2618
    1OPC    GL263513   3.441  20.436   6.740  0.2347  0.1286  0.0942
    1OPC    C1B63514   3.707  20.595   6.455  0.0842 -0.0331 -0.3837
    1OPC    D2B63515   4.000  20.499   6.278 -0.1424 -0.0933  0.0813
    1OPC    C3B63516   3.983  20.260   5.821  0.0253  0.0942 -0.1244
    1OPC    C4B63517   3.780  19.889   5.794 -0.0235 -0.0024  0.0178
    1OPC    NC363518  22.229  14.341   7.680 -0.0802 -0.2500  0.0899
    1OPC    PO463519  22.123  13.965   7.336  0.4055 -0.2921  0.2769
    1OPC    GL163520  22.210  13.759   7.019  0.1207  0.1106 -0.0581
    1OPC    GL263521  22.322  13.729   6.642  0.2309  0.2498  0.0876
    1OPC    C1B63522  22.290  13.690   6.142  0.0342  0.2619  0.1477
    1OPC    D2B63523  22.269  13.612   5.668  0.0811 -0.1964  0.1887
    1OPC    C3B63524  22.215  13.960   5.421  0.1335 -0.0110  0.0962
    1OPC    C4B63525  21.903  14.271   5.368  0.0766  0.1065  0.1559
    1OPC    NC363526  21.319  20.323   8.066  0.0782 -0.1318 -0.0919
    1OPC    PO463527  21.039  20.779   8.017 -0.0317  0.0043 -0.3041
    1OPC    GL163528  20.999  20.428   7.638  0.0058  0.2828 -0.1757
    1OPC    GL263529  21.156  20.441   7.308 -0.3203  0.2495 -0.3154
    1OPC    C1B63530  21.025  20.442   6.850  0.1542  0.2924  0.4128
    1OPC    D2B63531  20.782  20.231   6.546  0.0674 -0.0290  0.0553
    1OPC    C3B63532  20.858  20.401   6.098  0.0435 -0.2628 -0.0304
    1OPC    C4B63533  20.601  20.445   5.781 -0.2616 -0.0490  0.1149
    1OPC    NC363534  20.212  12.458   6.763  0.2919  0.1217  0.0926
    1OPC    PO463535  20.640  12.432   6.817 -0.0508 -0.1141  0.1567
    1OPC    GL163536  20.801  12.719   6.518 -0.1573 -0.1059  0.4714
    1OPC    GL263537  20.845  12.866   6.283  0.0850  0.2522  0.0372
    1OPC    C1B63538  20.829  12.836   5.785  0.1592 -0.2608  0.0780
    1OPC    D2B63539  20.866  13.068   5.365 -0.0620  0.0223  0.0725
    1OPC    C3B63540  20.740  13.504   5.156  0.0013  0.0161 -0.2367
    1OPC    C4B63541  20.960  13.923   5.232  0.1065 -0.0058  0.2402
    1OPC    NC363542   9.559  15.588   7.605 -0.3197  0.2117 -0.0700
    1OPC    PO463543   9.271  15.802   7.624 -0.3635 -0.1703 -0.1024
    1OPC    GL163544   9.199  16.096   7.187 -0.0306 -0.0704  0.1421
    1OPC    GL263545   9.185  16.178   6.997 -0.1453 -0.0522  0.1820
    1OPC    C1B63546   9.046  16.201   6.579 -0.1323  0.2200  0.1547
    1OPC    D2B63547   9.119  16.207   6.126 -0.2387 -0.2400  0.2730
    1OPC    C3B63548   8.957  16.035   5.653  0.1639  0.2313 -0.2192
    1OPC    C4B63549   9.032  16.217   5.271 -0.3101  0.2893 -0.1507
    1OPC    NC363550  16.259  14.257   7.521  0.0415 -0.1908 -0.1052
    1OPC    PO463551  16.287  13.827   7.728  0.0690 -0.2354 -0.0171
    1OPC    GL163552  15.994  13.815   7.418 -0.0802 -0.0749 -0.4756
    1OPC    GL263553  15.967  13.801   7.133 -0.0739 -0.0214  0.3466
    1OPC    C1B63554  15.895  13.522   6.890  0.1318  0.0704  0.1006
    1OPC    D2B63555  15.897  13.221   6.466  0.0546 -0.2720  0.0146
    1OPC    C3B63556  15.975  13.424   6.040 -0.2343 -0.3538 -0.0458
    1OPC    C4B63557  16.203  13.526   5.670 -0.0071  0.0661 -0.0120
    1OPC    NC363558  18.466  23.595   7.108  0.3532  0.3222  0.0722
    1OPC    PO463559  18.826  23.936   7.256 -0.0911 -0.2347  0.1919
    1OPC    GL163560  18.878  23.783   6.877 -0.0492  0.0119 -0.2410
    1OPC    GL263561  18.985  23.757   6.624 -0.0062  0.0906 -0.1839
    1OPC    C1B63562  18.897  23.515   6.230  0.0427 -0.0786  0.2209
    1OPC    D2B63563  18.839  23.442   5.829  0.0424  0.1734 -0.0594
    1OPC    C3B63564  18.695  23.122   5.564 -0.1324 -0.0359 -0.2585
    1OPC    C4B63565  18.480  22.876   5.295  0.2261  0.0277 -0.0417
    1OPC    NC363566  22.143   0.950   7.263  0.1066  0.1952 -0.1564
    1OPC    PO463567  22.589   0.806   7.287  0.0960  0.1983  0.0821
    1OPC    GL163568  22.445   0.749   6.888 -0.3700  0.3349  0.1879
    1OPC    GL263569  22.283   0.859   6.527 -0.0008 -0.2446 -0.2429
    1OPC    C1B63570  22.120   0.903   6.013  0.0712 -0.0795 -0.0141
    1OPC    D2B63571  22.131   0.988   5.607  0.0027 -0.0455 -0.0420
    1OPC    C3B63572  22.507   1.227   5.482  0.1171  0.1329  0.0350
    1OPC    C4B63573  22.822   1.450   5.736 -0.1215  0.4940 -0.0349
    1OPC    NC363574   9.353   3.795   7.533 -0.0940 -0.1049  0.3586
    1OPC    PO463575   9.833   3.798   7.565 -0.2300 -0.3241  0.2058
    1OPC    GL163576  10.208   3.727   7.227 -0.0008 -0.1169  0.1679
    1OPC    GL263577  10.526   3.729   6.990  0.3234 -0.1187 -0.0607
    1OPC    C1B63578  10.581   3.678   6.528 -0.0134  0.1673  0.0820
    1OPC    D2B63579  10.494   3.898   6.169 -0.1646 -0.3375 -0.0967
    1OPC    C3B63580  10.110   3.717   5.880  0.0332 -0.2657 -0.1053
    1OPC    C4B63581   9.714   3.750   5.586  0.2301 -0.0556 -0.1142
    1OPC    NC363582   3.743   3.721   6.120 -0.0078  0.0003  0.3040
    1OPC    PO463583   3.364   3.430   6.121  0.2051 -0.0647 -0.0780
    1OPC    GL163584   3.229   3.504   5.656 -0.2740  0.0845 -0.0344
    1OPC    GL263585   3.283   3.526   5.330 -0.0902 -0.3974 -0.1594
    1OPC    C1B63586   3.553   3.472   5.096 -0.0458 -0.0990 -0.4713
    1OPC    D2B63587   3.663   3.417   4.695 -0.1797  0.1178 -0.2390
    1OPC    C3B63588   3.725   3.040   4.400  0.0000 -0.2340 -0.0084
    1OPC    C4B63589   4.137   2.813   4.373  0.0180 -0.1500 -0.2172
    1OPC    NC363590  24.428  19.615   7.330  0.2703 -0.4525  0.0682
    1OPC    PO463591  24.045  19.604   7.092  0.1923  0.1482 -0.1344
    1OPC    GL163592  24.119  19.522   6.632 -0.2052 -0.0725  0.2835
    1OPC    GL263593  24.147  19.728   6.287 -0.1421 -0.1197 -0.1198
    1OPC    C1B63594  23.848  19.681   5.874 -0.1515 -0.1329  0.2005
    1OPC    D2B63595  23.827  19.848   5.419  0.1424  0.0733 -0.3050
    1OPC    C3B63596  24.213  19.836   5.197 -0.0200 -0.1082 -0.1382
    1OPC    C4B63597  24.513  20.058   4.971  0.2034 -0.0518 -0.0872
    1OPC    NC363598  22.973   8.850   7.446  0.0668  0.0640 -0.0748
    1OPC    PO463599  22.654   8.713   7.322  0.0105 -0.2830  0.0909
    1OPC    GL163600  22.556   8.539   7.014  0.2245 -0.1121 -0.0965
    1OPC    GL263601  22.656   8.573   6.707  0.1528  0.0629  0.2085
    1OPC    C1B63602  22.564   8.510   6.248  0.2380  0.0329  0.0496
    1OPC    D2B63603  22.513   8.536   5.742 -0.1268 -0.1288  0.2545
    1OPC    C3B63604  22.560   8.259   5.388 -0.2026 -0.0897  0.4617
    1OPC    C4B63605  22.262   8.281   5.065 -0.2180  0.2937 -0.0825
    1OPC    NC363606  13.154   6.390   8.252 -0.0881 -0.0039  0.0907
    1OPC    PO463607  12.944   6.490   7.889  0.0180  0.0554 -0.1047
    1OPC    GL163608  12.962   6.760   7.472 -0.4679  0.1732  0.0170
    1OPC    GL263609  12.932   6.765   7.159  0.0553 -0.2375  0.2118
    1OPC    C1B63610  12.788   6.749   6.711 -0.0438  0.1387  0.1580
    1OPC    D2B63611  12.888   6.377   6.423  0.1734  0.0692 -0.2108
    1OPC    C3B63612  12.753   6.190   6.066 -0.1321 -0.0382  0.3518
    1OPC    C4B63613  12.978   6.060   5.658  0.0917  0.2003  0.0441
    1OPC    NC363614  20.465  10.640   7.393  0.0060 -0.0289  0.1285
    1OPC    PO463615  20.573  11.040   7.255 -0.1862 -0.1546 -0.1766
    1OPC    GL163616  20.645  10.943   6.792  0.0307  0.0774 -0.1095
    1OPC    GL263617  20.796  10.787   6.579  0.1380  0.0192  0.0693
    1OPC    C1B63618  20.764  10.884   6.097  0.0429  0.0253 -0.0004
    1OPC    D2B63619  20.521  10.689   5.729  0.0429 -0.1763  0.3172
    1OPC    C3B63620  20.558  10.802   5.299  0.0031  0.1879 -0.3598
    1OPC    C4B63621  20.501  10.486   4.989 -0.0137 -0.2112  0.0077
    1OPC    NC363622  27.027  20.099   6.812  0.0704  0.0302  0.0232
    1OPC    PO463623  27.084  20.579   6.860  0.0566 -0.1589  0.0095
    1OPC    GL163624  26.785  20.488   6.523  0.2883 -0.0321  0.2313
    1OPC    GL263625  26.755  20.644   6.154 -0.1164  0.1981 -0.0855
    1OPC    C1B63626  26.759  20.770   5.754  0.0613 -0.0565  0.0246
    1OPC    D2B63627  26.599  20.756   5.422  0.1426  0.0161  0.0195
    1OPC    C3B63628  26.193  20.615   5.517  0.0122 -0.0185 -0.0458
    1OPC    C4B63629  25.846  20.650   5.688  0.1465  0.0202  0.3704
    1OPC    NC363630  12.100   3.524   8.046  0.0849 -0.0907 -0.1111
    1OPC    PO463631  11.826   3.715   7.823 -0.1072  0.1852  0.1176
    1OPC    GL163632  11.905   3.582   7.329 -0.1550 -0.2120 -0.4316
    1OPC    GL263633  12.026   3.809   7.077 -0.2571  0.0328  0.1428
    1OPC    C1B63634  11.999   4.164   6.787 -0.0014  0.0574 -0.2031
    1OPC    D2B63635  11.923   4.236   6.459  0.0240  0.2805 -0.1300
    1OPC    C3B63636  11.801   4.249   5.983  0.0405 -0.0285 -0.0607
    1OPC    C4B63637  11.721   4.186   5.484 -0.2255  0.1359 -0.1204
    1OPC    NC363638  27.124  24.304   6.601  0.1105  0.3957  0.3213
    1OPC    PO463639  27.544  24.479   6.507  0.0232  0.0167  0.0078
    1OPC    GL163640  27.542  24.685   6.174 -0.2697  0.0732  0.2983
    1OPC    GL263641  27.576  24.563   5.839  0.0751 -0.0799  0.2704
    1OPC    C1B63642  27.739  24.458   5.289  0.2420 -0.0919 -0.3489
    1OPC    D2B63643  27.918  24.650   4.980  0.2042  0.1559  0.0496
    1OPC    C3B63644   0.255  24.733   4.935  0.2166 -0.2764 -0.0112
    1OPC    C4B63645   0.607  24.705   4.468  0.1532  0.0120  0.0959
    1OPC    NC363646  14.562   5.403   7.873  0.1805 -0.1710 -0.0558
    1OPC    PO463647  14.134   5.122   7.756  0.0605  0.1768 -0.2892
    1OPC    GL163648  14.128   4.926   7.360  0.0540  0.2132  0.1866
    1OPC    GL263649  13.775   4.813   7.174  0.0817 -0.1379  0.0039
    1OPC    C1B63650  13.397   4.690   6.873  0.1369 -0.0290 -0.2109
    1OPC    D2B63651  12.950   4.678   6.632  0.0542  0.2643  0.1190
    1OPC    C3B63652  12.920   5.023   6.405 -0.3465 -0.0677  0.1598
    1OPC    C4B63653  12.907   5.328   5.973  0.3133 -0.0591 -0.0402
    1OPC    NC363654   2.395  25.471   7.741  0.2419 -0.0378 -0.1266
    1OPC    PO463655   2.527  25.315   7.306  0.1201  0.1957  0.1535
    1OPC    GL163656   2.499  25.414   6.770 -0.0036 -0.3582 -0.1530
    1OPC    GL263657   2.529  25.376   6.457  0.0806  0.0557  0.1897
    1OPC    C1B63658   2.585  25.081   6.117 -0.2347 -0.3916  0.0541
    1OPC    D2B63659   2.435  24.898   5.752  0.1271  0.4536 -0.2179
    1OPC    C3B63660   2.305  25.052   5.326  0.0146 -0.1141  0.0688
    1OPC    C4B63661   2.281  25.247   4.909 -0.0046  0.2338  0.2422
    1OPC    NC363662   0.859  18.294   6.627 -0.0707 -0.0301 -0.0420
    1OPC    PO463663   0.955  18.721   6.561  0.0352  0.1852 -0.1681
    1OPC    GL163664   0.835  18.624   6.168 -0.3610  0.0693 -0.0073
    1OPC    GL263665   0.672  18.726   5.910  0.1788 -0.2262 -0.0409
    1OPC    C1B63666   0.620  18.789   5.445 -0.0936 -0.1015  0.0679
    1OPC    D2B63667   0.479  19.094   5.144  0.0448  0.0082  0.0013
    1OPC    C3B63668   0.732  19.209   4.862  0.1917 -0.0101  0.3601
    1OPC    C4B63669   0.715  19.136   4.500 -0.1189 -0.1134  0.0069
    1OPC    NC363670  19.141   7.916   7.508  0.1816 -0.2041  0.3656
    1OPC    PO463671  19.437   8.237   7.299 -0.0724  0.1926 -0.0331
    1OPC    GL163672  19.627   8.338   7.044 -0.0778  0.1772  0.1076
    1OPC    GL263673  19.726   8.239   6.596  0.0754 -0.0253 -0.1665
    1OPC    C1B63674  19.664   8.132   6.123  0.0229 -0.1100 -0.0061
    1OPC    D2B63675  19.492   8.024   5.767 -0.0523 -0.0493 -0.1339
    1OPC    C3B63676  19.195   7.784   5.802  0.1068 -0.0177  0.1961
    1OPC    C4B63677  18.767   7.819   5.794 -0.0204  0.0569 -0.0310
    1OPC    NC363678  26.001  25.421   6.974  0.3561 -0.1499 -0.3962
    1OPC    PO463679  26.357  25.602   7.255  0.0729  0.0627  0.0195
    1OPC    GL163680  26.702  25.909   7.008  0.1335  0.2503 -0.0750
    1OPC    GL263681  26.554  26.057   6.644  0.0870  0.1800 -0.0071
    1OPC    C1B63682  26.692  26.068   6.295  0.0787  0.0084 -0.0347
    1OPC    D2B63683  26.521  25.871   5.936 -0.2022  0.3750 -0.0836
    1OPC    C3B63684  26.328  26.051   5.534  0.3415  0.1350 -0.0505
    1OPC    C4B63685  26.517  26.477   5.289  0.1992 -0.0135  0.0905
    1OPC    NC363686   0.301  14.607   5.917 -0.0848  0.0937  0.0940
    1OPC    PO463687  28.075  14.659   6.155 -0.0577 -0.2367  0.0302
    1OPC    GL163688  27.974  14.228   6.042 -0.1083  0.2191  0.2241
    1OPC    GL263689   0.005  14.047   5.889  0.4154 -0.1107  0.0041
    1OPC    C1B63690   0.223  14.002   5.534  0.2984 -0.0648  0.1141
    1OPC    D2B63691   0.363  13.999   5.185  0.0597  0.0705 -0.0825
    1OPC    C3B63692   0.357  13.650   5.016 -0.0852  0.2709 -0.0312
    1OPC    C4B63693   0.487  13.250   4.849 -0.0607 -0.1794  0.1224
    1OPC    NC363694   8.268   6.270   6.907  0.1424  0.5076 -0.0581
    1OPC    PO463695   8.030   6.575   7.180  0.4311 -0.1947 -0.0601
    1OPC    GL163696   8.142   6.923   7.002  0.3349 -0.0429 -0.2044
    1OPC    GL263697   8.060   7.146   6.826  0.0896 -0.1362 -0.0919
    1OPC    C1B63698   8.119   7.326   6.331 -0.2722  0.2942  0.1335
    1OPC    D2B63699   8.171   7.125   5.934  0.1480  0.1227 -0.0191
    1OPC    C3B63700   8.571   7.208   5.660 -0.2830  0.1534 -0.2375
    1OPC    C4B63701   8.875   7.247   5.233 -0.0261  0.0238  0.1782
    1OPC    NC363702   7.566   6.622   7.346 -0.0313  0.3466 -0.0592
    1OPC    PO463703   7.288   6.982   7.234  0.1819  0.2064  0.0115
    1OPC    GL163704   7.631   6.823   6.901  0.1910 -0.1839 -0.2141
    1OPC    GL263705   7.701   6.925   6.539  0.2563  0.1722 -0.2340
    1OPC    C1B63706   7.597   6.706   6.100 -0.0317  0.0923  0.1168
    1OPC    D2B63707   7.768   6.849   5.728  0.1309  0.2438  0.3186
    1OPC    C3B63708   7.890   7.226   5.577  0.0966  0.3150  0.2781
    1OPC    C4B63709   8.176   7.171   5.227 -0.1380 -0.1635 -0.0137
    1OPC    NC363710   9.088  13.771   7.502  0.1797  0.2541  0.1814
    1OPC    PO463711   8.845  14.042   7.231  0.1762  0.1651 -0.0701
    1OPC    GL163712   9.259  14.091   7.201 -0.2480 -0.0206  0.4763
    1OPC    GL263713   9.469  14.260   7.021  0.0786 -0.0361  0.0091
    1OPC    C1B63714   9.824  14.382   6.793 -0.2693 -0.0344  0.3032
    1OPC    D2B63715   9.816  14.525   6.306  0.2867  0.1358  0.3982
    1OPC    C3B63716  10.016  14.375   6.014 -0.0510  0.0603 -0.1674
    1OPC    C4B63717  10.311  14.092   6.047 -0.0522  0.0144 -0.0925
    1OPC    NC363718   5.387  13.941   7.376 -0.1001 -0.3244  0.0023
    1OPC    PO463719   5.509  14.328   7.172  0.1382  0.1208  0.0497
    1OPC    GL163720   5.413  13.920   6.825  0.0714 -0.0563 -0.0743
    1OPC    GL263721   5.431  13.780   6.512  0.1394  0.0169 -0.1154
    1OPC    C1B63722   5.347  13.777   6.100 -0.0424 -0.1168 -0.0316
    1OPC    D2B63723   5.640  14.028   5.818  0.4171 -0.2452  0.0315
    1OPC    C3B63724   6.054  14.118   5.690 -0.0954  0.0391 -0.0036
    1OPC    C4B63725   6.499  13.978   5.522  0.1547  0.1110  0.0649
    1OPC    NC363726  16.230  12.153   8.411 -0.0011 -0.2672  0.0132
    1OPC    PO463727  16.206  12.298   8.025  0.1086  0.2216  0.0499
    1OPC    GL163728  16.059  12.282   7.629 -0.0369 -0.2771 -0.0447
    1OPC    GL263729  15.848  12.384   7.398  0.2392 -0.1652  0.2521
    1OPC    C1B63730  15.936  12.481   6.968 -0.4420  0.0654  0.2170
    1OPC    D2B63731  16.031  12.877   6.845 -0.0474  0.2707 -0.0123
    1OPC    C3B63732  16.325  12.904   6.465 -0.0114  0.1988  0.2471
    1OPC    C4B63733  16.275  13.048   6.006  0.2439 -0.0398 -0.0813
    1OPC    NC363734   0.183   4.983   6.148 -0.0916 -0.0540 -0.2552
    1OPC    PO463735  27.925   4.750   6.124 -0.0743  0.0461 -0.2403
    1OPC    GL163736  27.797   4.783   5.684 -0.1559 -0.3300 -0.2266
    1OPC    GL263737  27.634   4.575   5.657  0.3352  0.0601  0.2220
    1OPC    C1B63738  27.141   4.572   5.600  0.2062  0.1752  0.1770
    1OPC    D2B63739  26.890   4.220   5.419  0.0991  0.0856  0.0579
    1OPC    C3B63740  26.479   4.316   5.332 -0.0219  0.1749 -0.1690
    1OPC    C4B63741  26.036   4.169   5.322 -0.0103  0.1793  0.1149
    1OPC    NC363742   0.439  28.023   7.285  0.0216 -0.1549  0.0974
    1OPC    PO463743   0.328  27.792   6.994  0.0429  0.1126 -0.1407
    1OPC    GL163744   0.130  27.747   6.662 -0.1621  0.0887 -0.2122
    1OPC    GL263745   0.231  27.668   6.258 -0.0395 -0.0185  0.2098
    1OPC    C1B63746   0.413  27.738   5.873 -0.3917 -0.5002 -0.1767
    1OPC    D2B63747   0.763  27.858   5.661 -0.0601 -0.3679 -0.1316
    1OPC    C3B63748   1.087  27.897   5.965  0.3160  0.2084 -0.0774
    1OPC    C4B63749   1.323  27.616   6.241 -0.0223 -0.1762  0.1465
    1OPC    NC363750  14.032  18.256   7.483 -0.0623 -0.2739  0.1219
    1OPC    PO463751  14.362  18.588   7.412 -0.2247 -0.2294  0.0364
    1OPC    GL163752  14.350  18.787   6.940 -0.3400 -0.0635 -0.0003
    1OPC    GL263753  14.490  18.848   6.796  0.1596 -0.2476  0.2439
    1OPC    C1B63754  14.835  18.835   6.366 -0.0326 -0.2599  0.2434
    1OPC    D2B63755  15.264  18.820   6.149 -0.0453  0.0345 -0.0807
    1OPC    C3B63756  15.586  18.585   5.955  0.0839  0.0270 -0.1415
    1OPC    C4B63757  15.631  18.237   5.807  0.0486  0.0385 -0.1352
    1OPC    NC363758  26.812   7.795   6.831  0.1804 -0.0546  0.0171
    1OPC    PO463759  27.227   7.927   6.790  0.0669  0.1823 -0.0043
    1OPC    GL163760  27.030   7.825   6.339 -0.0464 -0.2716  0.3172
    1OPC    GL263761  26.987   8.001   6.040  0.1211 -0.2938 -0.2731
    1OPC    C1B63762  26.979   7.967   5.610 -0.0927  0.1764 -0.1289
    1OPC    D2B63763  26.733   8.130   5.248  0.3541  0.0299 -0.1291
    1OPC    C3B63764  26.817   7.997   4.788  0.3524 -0.2408 -0.3209
    1OPC    C4B63765  26.999   7.662   4.680  0.0057 -0.0402 -0.2369
    1OPC    NC363766   0.244   9.349   6.988 -0.0394  0.0703  0.1262
    1OPC    PO463767  27.982   9.210   6.720 -0.1387 -0.0606 -0.0091
    1OPC    GL163768  27.958   9.306   6.342  0.0864  0.1970 -0.3308
    1OPC    GL263769  27.973   9.231   6.109 -0.4432  0.3796  0.3485
    1OPC    C1B63770   0.108   9.187   5.656  0.1958 -0.2535  0.0924
    1OPC    D2B63771   0.275   9.557   5.289  0.0231 -0.1794 -0.1292
    1OPC    C3B63772   0.563   9.506   5.124  0.3395  0.0614  0.0599
    1OPC    C4B63773   0.737   9.248   4.779  0.0102  0.6013  0.0197
    1OPC    NC363774  26.810   6.108   7.354  0.0454  0.3314  0.2091
    1OPC    PO463775  26.926   5.831   6.999  0.1113  0.2918 -0.0271
    1OPC    GL163776  26.892   5.658   6.496  0.0720  0.0143  0.2463
    1OPC    GL263777  26.788   5.578   6.245  0.1251  0.0023  0.1276
    1OPC    C1B63778  26.421   5.390   5.912  0.0897  0.2970 -0.0194
    1OPC    D2B63779  26.258   5.081   5.547  0.1657  0.1316 -0.1541
    1OPC    C3B63780  26.097   5.200   5.176  0.0242  0.2936  0.0204
    1OPC    C4B63781  26.276   5.523   4.910  0.0584  0.1813 -0.2763
    1OPC    NC363782  22.295   4.096   6.589 -0.0398  0.0232 -0.2467
    1OPC    PO463783  22.402   4.242   6.975  0.0072  0.1891  0.4006
    1OPC    GL163784  22.340   4.616   6.767 -0.1308  0.0980 -0.2741
    1OPC    GL263785  22.295   4.664   6.567  0.0971 -0.1224 -0.4217
    1OPC    C1B63786  22.227   4.781   6.156  0.2861  0.3502 -0.1907
    1OPC    D2B63787  21.984   4.683   5.783 -0.3259 -0.0142 -0.0720
    1OPC    C3B63788  21.677   4.922   5.441 -0.0257  0.3415  0.0326
    1OPC    C4B63789  21.540   5.215   5.187 -0.1044  0.0080 -0.2442
    1OPC    NC363790   1.790   0.947   7.446  0.1515 -0.2187  0.1526
    1OPC    PO463791   1.487   0.633   7.188 -0.0169 -0.1687 -0.0602
    1OPC    GL163792   1.647   0.371   6.806  0.0082  0.0286 -0.2048
    1OPC    GL263793   1.593   0.351   6.435 -0.1554 -0.0815 -0.1403
    1OPC    C1B63794   1.825   0.333   6.017  0.3438  0.0212 -0.2128
    1OPC    D2B63795   2.022   0.295   5.602  0.1372 -0.2145 -0.1200
    1OPC    C3B63796   2.306   0.618   5.589 -0.0869 -0.0529 -0.1512
    1OPC    C4B63797   2.503   0.951   5.842 -0.1573 -0.1881  0.3041
    1OPC    NC363798  25.060  16.430   7.065 -0.1866 -0.1070 -0.3219
    1OPC    PO463799  25.008  16.845   7.007 -0.1200 -0.1417  0.4394
    1OPC    GL163800  24.745  16.623   6.755 -0.2570  0.2076 -0.1523
    1OPC    GL263801  24.442  16.557   6.709 -0.0587 -0.0921 -0.0007
    1OPC    C1B63802  24.224  16.344   6.376  0.0898 -0.0452  0.0415
    1OPC    D2B63803  24.220  16.391   5.883 -0.1347 -0.1439 -0.0514
    1OPC    C3B63804  24.369  16.350   5.509 -0.1083 -0.0611  0.0097
    1OPC    C4B63805  24.530  16.275   5.138  0.4223  0.0053 -0.0049
    1OPC    NC363806  27.332  23.350   7.471 -0.1217 -0.2654 -0.1108
    1OPC    PO463807  27.306  23.731   7.230 -0.3210  0.2434 -0.0600
    1OPC    GL163808  27.220  23.836   6.813  0.3057 -0.1247  0.0651
    1OPC    GL263809  27.022  23.832   6.525  0.0044  0.1170  0.1927
    1OPC    C1B63810  27.120  23.605   6.127 -0.0243  0.4146  0.2538
    1OPC    D2B63811  27.476  23.693   5.845  0.1479  0.1022  0.1634
    1OPC    C3B63812  27.623  24.050   5.787  0.1010  0.0121 -0.0081
    1OPC    C4B63813  27.981  24.348   5.721 -0.1134  0.4831  0.3386
    1OPC    NC363814   3.614   9.255   7.141  0.2749 -0.3431  0.0624
    1OPC    PO463815   3.591   9.453   6.800  0.0887 -0.1455  0.0052
    1OPC    GL163816   3.963   9.282   6.632 -0.0326 -0.1522  0.0099
    1OPC    GL263817   4.186   9.374   6.509 -0.0905  0.0591  0.0474
    1OPC    C1B63818   4.437   9.545   6.184 -0.1817 -0.0857 -0.0798
    1OPC    D2B63819   4.738   9.440   5.799  0.0598 -0.2970  0.0645
    1OPC    C3B63820   4.539   9.517   5.455  0.2439  0.2015  0.0688
    1OPC    C4B63821   4.643   9.594   5.000  0.1886  0.1256  0.2504
    1OPC    NC363822   5.825   0.823   7.527 -0.0512 -0.3948  0.3950
    1OPC    PO463823   6.074   1.062   7.349 -0.0659  0.0562 -0.0586
    1OPC    GL163824   5.796   1.017   7.007  0.0097  0.2532 -0.1578
    1OPC    GL263825   5.693   0.964   6.630  0.0399 -0.1418 -0.0125
    1OPC    C1B63826   5.832   1.147   6.196  0.2098  0.0746 -0.3350
    1OPC    D2B63827   6.095   1.233   5.938  0.1415  0.2502  0.0605
    1OPC    C3B63828   6.043   1.119   5.535 -0.3201 -0.0117  0.1071
    1OPC    C4B63829   6.019   0.751   5.302  0.3229 -0.0556  0.0554
    1OPC    NC363830   8.067  20.482   7.563 -0.2087 -0.3664  0.1200
    1OPC    PO463831   8.108  20.067   7.547 -0.2259 -0.0944 -0.0318
    1OPC    GL163832   7.886  19.888   7.235 -0.3697  0.0197 -0.0646
    1OPC    GL263833   7.630  19.876   7.233 -0.0616  0.1053 -0.2611
    1OPC    C1B63834   7.310  19.949   6.980  0.0340 -0.2322  0.0956
    1OPC    D2B63835   7.252  20.054   6.614 -0.0829 -0.0280 -0.0371
    1OPC    C3B63836   6.834  20.278   6.438  0.0484 -0.1340 -0.1282
    1OPC    C4B63837   6.763  20.506   6.074 -0.2750  0.2789  0.2062
    1OPC    NC363838  10.834   0.800   7.138 -0.0532  0.2758 -0.1187
    1OPC    PO463839  10.326   0.728   7.121  0.1383 -0.2581 -0.1687
    1OPC    GL163840  10.282   0.973   6.748 -0.2155  0.2483  0.1347
    1OPC    GL263841  10.350   1.073   6.529 -0.1840  0.2059  0.1637
    1OPC    C1B63842  10.236   1.015   6.127  0.1797 -0.0813  0.0105
    1OPC    D2B63843  10.201   0.966   5.757 -0.0844 -0.0816  0.3086
    1OPC    C3B63844  10.540   0.846   5.524  0.0955  0.1634  0.2846
    1OPC    C4B63845  10.971   0.853   5.459  0.0939 -0.1628 -0.1491
    1OPC    NC363846   7.200   9.296   7.764  0.0434 -0.2165 -0.3094
    1OPC    PO463847   7.392   9.697   7.518 -0.1205 -0.0759 -0.1596
    1OPC    GL163848   7.245   9.880   7.121  0.0320 -0.1619  0.1353
    1OPC    GL263849   7.285   9.953   6.800  0.0895 -0.2541 -0.3425
    1OPC    C1B63850   7.527   9.909   6.461 -0.2910  0.2633  0.0875
    1OPC    D2B63851   7.604   9.698   6.128  0.1416  0.0043 -0.3598
    1OPC    C3B63852   7.455   9.674   5.757 -0.1038 -0.3001  0.1785
    1OPC    C4B63853   7.547   9.723   5.300  0.1412  0.0822 -0.3054
    1OPC    NC363854  21.322  15.893   7.343 -0.3033 -0.2749 -0.0917
    1OPC    PO463855  21.753  16.046   7.451  0.0782 -0.0613 -0.1230
    1OPC    GL163856  21.676  16.143   6.993  0.0980  0.0718 -0.2926
    1OPC    GL263857  21.598  16.236   6.760 -0.2226  0.0058  0.1363
    1OPC    C1B63858  21.394  16.059   6.391  0.0654  0.0101 -0.2204
    1OPC    D2B63859  21.375  15.719   6.082  0.2984  0.0059 -0.3103
    1OPC    C3B63860  21.047  15.815   5.768 -0.1345 -0.0273 -0.0986
    1OPC    C4B63861  20.680  15.731   5.748 -0.2497  0.2194  0.2525
    1OPC    NC363862  15.848   5.504   7.553  0.2286  0.0619  0.0073
    1OPC    PO463863  15.525   5.203   7.647  0.2348  0.0960 -0.1566
    1OPC    GL163864  15.303   5.484   7.347  0.0271 -0.1085  0.1221
    1OPC    GL263865  15.199   5.266   7.061 -0.0651  0.0374 -0.2461
    1OPC    C1B63866  15.069   5.052   6.687  0.0033 -0.1372 -0.1672
    1OPC    D2B63867  14.796   4.894   6.460  0.2760 -0.1259 -0.1199
    1OPC    C3B63868  14.722   4.423   6.313 -0.2663  0.0019 -0.0684
    1OPC    C4B63869  15.007   4.100   6.246  0.2068 -0.4075  0.0204
    1OPC    NC363870   0.196  20.366   6.476  0.3045 -0.0858 -0.1630
    1OPC    PO463871  28.085  20.754   6.473  0.0093  0.0561  0.1407
    1OPC    GL163872   0.156  20.804   6.110  0.0736 -0.1333  0.0594
    1OPC    GL263873   0.074  20.684   5.830  0.0250 -0.1604 -0.0443
    1OPC    C1B63874   0.195  20.524   5.415 -0.0836 -0.1976  0.1407
    1OPC    D2B63875   0.248  20.653   4.977 -0.2610 -0.0456 -0.0414
    1OPC    C3B63876   0.298  21.153   4.984  0.3121  0.0532  0.0228
    1OPC    C4B63877   0.071  21.358   5.080  0.2010  0.2306 -0.0819
    1OPC    NC363878   5.475   4.099   6.917 -0.1607  0.2338 -0.0448
    1OPC    PO463879   5.802   4.344   7.077 -0.1537  0.2775  0.2714
    1OPC    GL163880   5.731   4.218   6.496  0.0897  0.1254 -0.1578
    1OPC    GL263881   5.859   4.223   6.327 -0.1085 -0.0617  0.1683
    1OPC    C1B63882   5.940   4.040   5.923 -0.0789 -0.0920 -0.0770
    1OPC    D2B63883   5.878   3.887   5.495 -0.2750 -0.0984 -0.0510
    1OPC    C3B63884   6.067   3.985   5.116 -0.0658 -0.1891  0.1647
    1OPC    C4B63885   6.118   3.982   4.723  0.2869  0.4384 -0.0166
    1OPC    NC363886  28.048   8.770   6.425  0.1089  0.2386 -0.1775
    1OPC    PO463887  28.117   8.438   6.573  0.2794 -0.0325 -0.1095
    1OPC    GL163888  27.949   8.188   6.202 -0.2879 -0.0905 -0.2204
    1OPC    GL263889  27.813   8.191   5.984 -0.1842  0.1462  0.1486
    1OPC    C1B63890  27.535   8.191   5.716 -0.3583  0.1559 -0.1817
    1OPC    D2B63891  27.249   8.360   5.513  0.1546  0.1403  0.2761
    1OPC    C3B63892  27.247   8.208   5.119  0.0475  0.1381 -0.2707
    1OPC    C4B63893  27.236   8.363   4.779  0.1470  0.1429  0.1071
    1OPC    NC363894  27.687  24.977   6.691  0.1780  0.0366 -0.0756
    1OPC    PO463895   0.101  24.967   6.847 -0.1074  0.1025 -0.0572
    1OPC    GL163896   0.135  24.621   6.564 -0.1122  0.2438 -0.0788
    1OPC    GL263897   0.106  24.717   6.226  0.3728  0.0114  0.3692
    1OPC    C1B63898  28.026  24.971   5.857  0.3384 -0.0539  0.0362
    1OPC    D2B63899  27.781  25.090   5.587 -0.0983  0.0771 -0.1632
    1OPC    C3B63900  27.413  24.844   5.419 -0.0833 -0.3800 -0.0740
    1OPC    C4B63901  26.854  24.852   5.477 -0.0392  0.1680  0.0158
    1OPC    NC363902  13.081  16.069   7.769  0.1089 -0.1860 -0.0977
    1OPC    PO463903  13.309  15.724   7.427 -0.2933 -0.1411 -0.1562
    1OPC    GL163904  13.301  15.610   7.043  0.3872 -0.2186  0.1007
    1OPC    GL263905  13.293  15.712   6.750  0.2406  0.2656  0.0742
    1OPC    C1B63906  13.494  16.209   6.692  0.0827 -0.0380 -0.0018
    1OPC    D2B63907  13.714  16.411   6.328  0.0194  0.2049 -0.0812
    1OPC    C3B63908  13.833  16.081   5.960 -0.1518 -0.0932  0.1361
    1OPC    C4B63909  13.712  16.184   5.474  0.3733 -0.0372  0.0947
    1OPC    NC363910   1.991  22.226   6.510 -0.0238  0.1491 -0.2168
    1OPC    PO463911   1.816  22.397   6.843 -0.1384  0.1648 -0.1575
    1OPC    GL163912   1.655  22.576   6.384 -0.1680 -0.0322 -0.2628
    1OPC    GL263913   1.759  22.557   6.152 -0.0175  0.3010 -0.0290
    1OPC    C1B63914   1.894  22.552   5.680  0.1262  0.0661 -0.0525
    1OPC    D2B63915   1.922  22.731   5.363 -0.0608  0.1996  0.1759
    1OPC    C3B63916   2.350  22.832   5.235  0.0413  0.2323 -0.1855
    1OPC    C4B63917   2.573  22.936   4.907 -0.0071 -0.2649 -0.0180
    1OPC    NC363918  13.298  11.345   7.473  0.0232  0.1453 -0.1114
    1OPC    PO463919  13.604  11.192   7.668  0.1528 -0.4399 -0.0656
    1OPC    GL163920  13.900  10.937   7.468 -0.0299  0.0906  0.1612
    1OPC    GL263921  13.958  10.795   7.172 -0.0136  0.1072  0.4464
    1OPC    C1B63922  13.849  10.610   6.804 -0.0708 -0.0800  0.1154
    1OPC    D2B63923  14.078  10.583   6.389 -0.0340 -0.4246  0.0934
    1OPC    C3B63924  14.410  10.840   6.369  0.1840 -0.0247  0.0845
    1OPC    C4B63925  14.595  11.227   6.098 -0.0763 -0.0277  0.1948
    1OPC    NC363926   5.730   7.102   6.767 -0.1144  0.0790 -0.0116
    1OPC    PO463927   5.280   7.343   6.656 -0.0759  0.5245  0.0443
    1OPC    GL163928   5.253   7.092   6.265 -0.3513  0.2250  0.1834
    1OPC    GL263929   5.050   6.860   6.062 -0.1452 -0.1048 -0.3622
    1OPC    C1B63930   4.880   6.839   5.692  0.0614 -0.1938  0.0083
    1OPC    D2B63931   4.639   6.659   5.316  0.4301  0.1167  0.3470
    1OPC    C3B63932   4.268   6.340   5.275  0.1185  0.0790 -0.1645
    1OPC    C4B63933   4.261   5.891   5.139  0.1728  0.0892 -0.0763
    1OPC    NC363934   6.560  24.805   7.134 -0.1243 -0.0816 -0.0215
    1OPC    PO463935   6.400  24.524   6.969 -0.0208  0.0939  0.0049
    1OPC    GL163936   6.632  24.132   6.841  0.0559  0.1341  0.0876
    1OPC    GL263937   6.571  23.928   6.480 -0.2124 -0.1169 -0.1702
    1OPC    C1B63938   6.723  23.856   6.112  0.0552 -0.1439  0.0577
    1OPC    D2B63939   6.852  23.783   5.720 -0.0867  0.0822 -0.0730
    1OPC    C3B63940   7.063  23.932   5.462 -0.1716  0.3204 -0.1023
    1OPC    C4B63941   7.101  23.876   5.102 -0.2016  0.1113  0.0448
    1OPC    NC363942  13.203   5.574   8.203 -0.0018  0.0689  0.0519
    1OPC    PO463943  13.001   5.961   8.026 -0.0869 -0.0595  0.0245
    1OPC    GL163944  13.096   6.030   7.620  0.0015  0.1511  0.3237
    1OPC    GL263945  13.114   5.914   7.324  0.0548 -0.2507 -0.0416
    1OPC    C1B63946  13.256   5.880   6.813  0.3269  0.0157  0.0284
    1OPC    D2B63947  13.641   5.707   6.481 -0.0110  0.1473 -0.2947
    1OPC    C3B63948  13.962   5.453   6.473 -0.0227  0.0849  0.1504
    1OPC    C4B63949  14.214   5.297   6.143  0.2142  0.1054 -0.0525
    1OPC    NC363950  16.369  10.328   7.381 -0.1470 -0.2853  0.2202
    1OPC    PO463951  15.962  10.483   7.318  0.0069 -0.0364  0.1458
    1OPC    GL163952  16.173  10.561   6.949  0.3628  0.0579 -0.3324
    1OPC    GL263953  16.433  10.558   6.827 -0.3944 -0.0634  0.1645
    1OPC    C1B63954  16.649  10.813   6.475  0.2338 -0.0885 -0.1004
    1OPC    D2B63955  16.928  10.924   6.132  0.2943 -0.3977 -0.2504
    1OPC    C3B63956  16.833  10.746   5.703 -0.0765  0.2735  0.1471
    1OPC    C4B63957  17.146  10.708   5.408  0.2093  0.0810 -0.3088
    1OPC    NC363958  11.083   4.466   8.057  0.3843  0.2079  0.0098
    1OPC    PO463959  10.827   4.089   7.752 -0.2684  0.2042  0.0177
    1OPC    GL163960  10.930   4.017   7.433 -0.1705  0.2547 -0.0973
    1OPC    GL263961  11.026   3.948   7.150 -0.0444 -0.0464  0.0720
    1OPC    C1B63962  11.096   4.027   6.760  0.1247  0.0775 -0.1654
    1OPC    D2B63963  11.001   4.074   6.355 -0.0541 -0.2895 -0.0093
    1OPC    C3B63964  10.988   3.746   6.040  0.1081 -0.0387 -0.2598
    1OPC    C4B63965  10.960   3.653   5.666 -0.2198 -0.0793  0.1238
    1OPC    NC363966  20.337   5.395   7.443  0.1046  0.0173 -0.3083
    1OPC    PO463967  20.254   5.146   7.068  0.1757 -0.1640 -0.0546
    1OPC    GL163968  20.322   5.264   6.586  0.0977  0.0100  0.3105
    1OPC    GL263969  20.381   5.305   6.264 -0.0514 -0.2620  0.1987
    1OPC    C1B63970  20.140   5.496   6.091 -0.2957 -0.1325  0.1977
    1OPC    D2B63971  20.017   5.334   5.688 -0.0241  0.1002 -0.1072
    1OPC    C3B63972  19.552   5.223   5.609  0.1485 -0.2930 -0.0058
    1OPC    C4B63973  19.175   5.323   5.682  0.1820  0.0429 -0.0253
    1OPC    NC363974   0.303  24.285   6.965  0.1190 -0.0620  0.0657
    1OPC    PO463975  28.120  24.014   6.858  0.1045 -0.3668 -0.0356
    1OPC    GL163976   0.210  24.083   6.480 -0.2240  0.0972  0.0281
    1OPC    GL263977   0.243  24.215   6.077  0.0651 -0.0235  0.2840
    1OPC    C1B63978   0.376  24.096   5.650  0.2787  0.2839 -0.1365
    1OPC    D2B63979   0.517  24.203   5.187 -0.3102 -0.1512  0.1807
    1OPC    C3B63980   0.379  24.287   4.721  0.1167 -0.2697  0.2418
    1OPC    C4B63981   0.036  24.525   4.577  0.4236  0.2873 -0.0873
    1OPC    NC363982  12.437   6.652   7.725  0.1263 -0.1100  0.1759
    1OPC    PO463983  12.370   7.029   8.121 -0.0285 -0.1254  0.1014
    1OPC    GL163984  12.379   7.154   7.665  0.1406  0.1917  0.0524
    1OPC    GL263985  12.360   7.365   7.462 -0.0573  0.0509 -0.3268
    1OPC    C1B63986  12.216   7.721   7.246  0.1077 -0.0174  0.1905
    1OPC    D2B63987  12.229   8.112   6.979  0.4552 -0.2921 -0.1482
    1OPC    C3B63988  12.577   8.458   6.954  0.1020  0.2897  0.0491
    1OPC    C4B63989  12.869   8.454   6.625  0.1996 -0.1527  0.2590
    1OPC    NC363990  18.474  24.680   7.012 -0.0999 -0.1545  0.0096
    1OPC    PO463991  18.419  24.160   7.091  0.0084 -0.1481 -0.0290
    1OPC    GL163992  18.567  24.057   6.653  0.3157  0.0750  0.0641
    1OPC    GL263993  18.653  24.147   6.358  0.1338  0.1523 -0.4066
    1OPC    C1B63994  18.661  24.215   5.959  0.4256  0.0823  0.0585
    1OPC    D2B63995  18.360  24.440   5.753  0.1004  0.1461 -0.0664
    1OPC    C3B63996  17.976  24.223   5.502 -0.3356 -0.0189  0.0139
    1OPC    C4B63997  17.553  24.281   5.511 -0.0609  0.0694 -0.0200
    1OPC    NC363998   7.535  21.300   7.446 -0.1302  0.1791  0.2214
    1OPC    PO463999   7.107  21.348   7.247  0.0081  0.0503 -0.2988
    1OPC    GL164000   6.851  21.058   7.074  0.1126  0.2783  0.0323
    1OPC    GL264001   6.795  20.905   6.912 -0.0319  0.2027 -0.1586
    1OPC    C1B64002   6.573  20.702   6.554  0.1541 -0.1549 -0.1766
    1OPC    D2B64003   6.301  20.589   6.290  0.2243 -0.1579 -0.0173
    1OPC    C3B64004   6.317  20.314   5.979 -0.3057 -0.0109  0.1303
    1OPC    C4B64005   6.272  20.026   5.656  0.0374  0.0993  0.3936
    1OPC    NC364006  17.664  16.009   8.033 -0.1082  0.2950  0.0508
    1OPC    PO464007  17.927  16.220   7.664 -0.1402 -0.3440 -0.0701
    1OPC    GL164008  17.879  16.516   7.321 -0.1495  0.1136 -0.1744
    1OPC    GL264009  17.949  16.774   7.127  0.2644  0.2189  0.0981
    1OPC    C1B64010  17.941  16.748   6.669 -0.0231 -0.0599  0.2048
    1OPC    D2B64011  17.918  16.700   6.198 -0.1921  0.0221 -0.1675
    1OPC    C3B64012  17.630  16.843   5.854 -0.1729 -0.5712 -0.0968
    1OPC    C4B64013  17.569  17.289   5.593  0.0312 -0.1676 -0.0623
    1OPC    NC364014  26.560   0.422   7.482  0.0847  0.3098 -0.2536
    1OPC    PO464015  26.767   0.197   7.084 -0.0246 -0.1195  0.2208
    1OPC    GL164016  26.460  28.098   6.779 -0.0505  0.0134 -0.0969
    1OPC    GL264017  26.477  27.932   6.563 -0.0577  0.1694  0.1637
    1OPC    C1B64018  26.847  27.968   6.187  0.0195 -0.1397  0.0933
    1OPC    D2B64019  26.901  27.923   5.834  0.0626  0.0761 -0.3193
    1OPC    C3B64020  27.239  27.603   5.642 -0.2534 -0.1790  0.0684
    1OPC    C4B64021  27.626  27.626   5.842  0.1213 -0.0528  0.1902
    1OPC    NC364022   7.188   1.572   6.812 -0.4141 -0.1936  0.5323
    1OPC    PO464023   7.231   1.115   6.839  0.0583  0.1424  0.3548
    1OPC    GL164024   7.392   1.284   6.381  0.1955 -0.1210  0.0186
    1OPC    GL264025   7.243   1.287   6.095  0.0055 -0.3318 -0.1136
    1OPC    C1B64026   6.960   1.113   5.962 -0.0528  0.0045 -0.1729
    1OPC    D2B64027   6.515   0.931   5.881  0.0725  0.2645 -0.0271
    1OPC    C3B64028   6.495   0.761   5.478  0.1653  0.0670  0.3364
    1OPC    C4B64029   6.507   0.566   5.135  0.0111  0.5155 -0.0458
    1OPC    NC364030   5.235  24.718   7.158 -0.1970  0.2566  0.0420
    1OPC    PO464031   5.570  25.012   7.308  0.2615  0.1384  0.0427
    1OPC    GL164032   5.361  25.203   6.972  0.1186  0.0339 -0.1803
    1OPC    GL264033   5.430  25.304   6.667 -0.0242  0.1956  0.2072
    1OPC    C1B64034   5.574  25.310   6.216  0.1026  0.1461 -0.0452
    1OPC    D2B64035   5.757  25.401   5.926  0.0637  0.1674  0.0317
    1OPC    C3B64036   5.739  25.471   5.447 -0.2119  0.1882 -0.0648
    1OPC    C4B64037   5.485  25.582   5.111 -0.2493  0.0922 -0.1012
    1OPC    NC364038  16.993  22.644   6.999  0.0951  0.0139 -0.2016
    1OPC    PO464039  16.774  22.699   7.371  0.1943 -0.0683 -0.2066
    1OPC    GL164040  16.680  23.022   7.309 -0.1938 -0.0246 -0.2127
    1OPC    GL264041  16.715  23.130   6.998  0.1089  0.2898  0.2684
    1OPC    C1B64042  16.668  23.421   6.590 -0.0160  0.1213 -0.0689
    1OPC    D2B64043  16.442  23.395   6.197 -0.1225 -0.2046  0.0184
    1OPC    C3B64044  16.262  23.209   5.846 -0.2772  0.1114 -0.0526
    1OPC    C4B64045  16.226  22.900   5.586  0.2058 -0.1623  0.0027
    1OPC    NC364046   3.247  20.928   6.758 -0.1621 -0.0729 -0.3544
    1OPC    PO464047   3.595  21.184   7.054 -0.0063  0.0428 -0.1731
    1OPC    GL164048   3.966  20.917   6.834 -0.0447  0.1446 -0.0206
    1OPC    GL264049   4.105  20.923   6.621  0.1170  0.2676 -0.2547
    1OPC    C1B64050   4.332  20.893   6.301  0.1026 -0.1138  0.2515
    1OPC    D2B64051   4.270  20.811   5.867 -0.2632  0.1254 -0.2303
    1OPC    C3B64052   4.036  20.769   5.440  0.0879 -0.1617 -0.1433
    1OPC    C4B64053   3.730  20.522   5.289  0.0628  0.1414 -0.3783
    1OPC    NC364054   6.797  10.010   6.935  0.3432 -0.1030  0.0000
    1OPC    PO464055   6.402   9.941   7.032 -0.1837  0.0821 -0.2477
    1OPC    GL164056   6.443   9.835   6.669  0.0619 -0.2851  0.1380
    1OPC    GL264057   6.635   9.788   6.383  0.0936 -0.2038 -0.0374
    1OPC    C1B64058   6.696   9.870   5.896  0.2894 -0.2372  0.0809
    1OPC    D2B64059   6.977   9.655   5.581  0.0953  0.3045 -0.0244
    1OPC    C3B64060   6.842   9.409   5.279 -0.2171  0.1190  0.0797
    1OPC    C4B64061   6.737   8.942   5.339 -0.0328  0.1357  0.3319
    1OPC    NC364062  23.850   1.100   7.503  0.0572 -0.0978  0.0667
    1OPC    PO464063  24.064   0.960   7.144  0.2662 -0.3860  0.2282
    1OPC    GL164064  23.936   1.004   6.738 -0.1637  0.0221 -0.2045
    1OPC    GL264065  23.627   1.018   6.597 -0.0006  0.0230  0.0395
    1OPC    C1B64066  23.357   1.096   6.304  0.2654 -0.0324  0.0578
    1OPC    D2B64067  23.118   1.063   5.976 -0.0863  0.1103 -0.1533
    1OPC    C3B64068  22.966   0.687   5.899  0.2000 -0.3945 -0.1759
    1OPC    C4B64069  22.764   0.197   5.804 -0.0467  0.0552 -0.0860
    1OPC    NC364070  15.097   8.414   8.106  0.0965 -0.1066 -0.1480
    1OPC    PO464071  14.961   8.570   7.778 -0.0753 -0.0467 -0.2141
    1OPC    GL164072  14.882   8.647   7.372  0.0744  0.1676 -0.0409
    1OPC    GL264073  14.770   8.505   7.092 -0.1876 -0.1880  0.2145
    1OPC    C1B64074  14.649   8.518   6.760  0.4818 -0.0311  0.2452
    1OPC    D2B64075  14.987   8.434   6.461  0.2440 -0.1390 -0.1667
    1OPC    C3B64076  14.893   8.323   6.105 -0.0606 -0.1140 -0.1988
    1OPC    C4B64077  14.886   8.433   5.666  0.3455  0.0278  0.1164
    1OPC    NC364078   6.199  17.010   7.583  0.1171 -0.2440  0.1102
    1OPC    PO464079   6.221  16.552   7.437  0.2756  0.1898 -0.0308
    1OPC    GL164080   6.194  16.515   7.051  0.0806  0.1201  0.0231
    1OPC    GL264081   6.138  16.271   6.776  0.0632 -0.1086  0.0505
    1OPC    C1B64082   6.034  16.083   6.396 -0.0734  0.0808  0.0706
    1OPC    D2B64083   6.093  15.953   5.936  0.3448 -0.0811  0.0754
    1OPC    C3B64084   6.058  15.898   5.468  0.1080 -0.1001 -0.0373
    1OPC    C4B64085   6.151  15.605   5.279  0.1833 -0.2194 -0.0680
    1OPC    NC364086  17.800   6.206   7.384 -0.0152  0.1064 -0.2135
    1OPC    PO464087  17.555   6.181   7.066  0.0780  0.1670 -0.0782
    1OPC    GL164088  17.798   5.789   6.830  0.0571 -0.2352  0.2536
    1OPC    GL264089  17.856   5.477   6.599 -0.0056  0.1574  0.0381
    1OPC    C1B64090  17.947   5.154   6.369 -0.1705 -0.1546  0.3514
    1OPC    D2B64091  18.032   5.221   5.915  0.1099 -0.0389 -0.1388
    1OPC    C3B64092  18.062   5.602   5.614  0.2045 -0.1031  0.2514
    1OPC    C4B64093  17.863   5.867   5.375 -0.2131  0.2993 -0.1013
    1OPC    NC364094   9.994   8.615   8.401  0.2575 -0.2812  0.1947
    1OPC    PO464095  10.056   8.653   7.823  0.1279  0.2205 -0.0493
    1OPC    GL164096  10.005   8.429   7.478 -0.4345  0.1187  0.0826
    1OPC    GL264097  10.150   8.326   7.190 -0.2795  0.0339 -0.2006
    1OPC    C1B64098  10.283   8.103   6.848 -0.0553 -0.2891  0.1471
    1OPC    D2B64099  10.349   8.054   6.490  0.0074 -0.0552  0.1313
    1OPC    C3B64100  10.160   8.042   6.177 -0.3496  0.0279  0.0008
    1OPC    C4B64101  10.229   7.810   5.789 -0.0349  0.0931 -0.3074
    1OPC    NC364102   7.194  21.304   8.267  0.2286 -0.0285 -0.2230
    1OPC    PO464103   7.277  20.900   8.027 -0.1405  0.1065  0.0203
    1OPC    GL164104   7.149  20.926   7.604 -0.0861  0.2056  0.1516
    1OPC    GL264105   7.249  20.886   7.376  0.0584  0.1341  0.1394
    1OPC    C1B64106   7.390  20.826   6.997  0.0142  0.0455  0.0965
    1OPC    D2B64107   7.528  20.603   6.578 -0.0904  0.1531  0.0737
    1OPC    C3B64108   7.374  20.415   6.274  0.2749  0.1675  0.1070
    1OPC    C4B64109   7.249  20.274   5.817  0.0062 -0.1178 -0.3251
    1OPC    NC364110  16.738   0.515   7.759  0.1342 -0.0303  0.0890
    1OPC    PO464111  17.040   0.789   7.632 -0.2643  0.0297  0.0228
    1OPC    GL164112  17.216   1.010   7.226  0.4795  0.3028  0.0738
    1OPC    GL264113  17.486   1.051   7.071  0.1748 -0.2638 -0.3256
    1OPC    C1B64114  17.373   1.182   6.647  0.0785 -0.3320 -0.0935
    1OPC    D2B64115  17.275   1.225   6.165  0.1366  0.0370 -0.0173
    1OPC    C3B64116  17.259   0.991   5.874  0.1015 -0.2446 -0.0950
    1OPC    C4B64117  17.396   0.620   5.846  0.1002  0.1855  0.1226
    1OPC    NC364118   1.381  20.641   6.979 -0.0705  0.2059 -0.0015
    1OPC    PO464119   1.050  20.533   6.745 -0.0218  0.1867 -0.0633
    1OPC    GL164120   1.247  20.430   6.417 -0.1124 -0.0611  0.0923
    1OPC    GL264121   1.266  20.474   6.169 -0.0744  0.1344 -0.1086
    1OPC    C1B64122   1.119  20.391   5.773  0.4034 -0.2885  0.2057
    1OPC    D2B64123   0.747  20.432   5.523 -0.1477 -0.0063  0.1139
    1OPC    C3B64124   0.764  20.436   5.041 -0.1210 -0.0030 -0.1458
    1OPC    C4B64125   0.567  20.306   4.700 -0.0071 -0.0677 -0.0054
    1OPC    NC364126   1.153   0.485   6.822 -0.2100 -0.2463  0.1350
    1OPC    PO464127   0.758   0.670   6.823 -0.1633 -0.0232  0.1366
    1OPC    GL164128   0.985   0.687   6.421  0.3544  0.0011 -0.0197
    1OPC    GL264129   0.926   0.671   6.058 -0.1293  0.0202 -0.2282
    1OPC    C1B64130   0.830   0.407   5.696 -0.0156  0.1306  0.0666
    1OPC    D2B64131   1.014   0.152   5.572 -0.1952  0.0535 -0.1964
    1OPC    C3B64132   0.773   0.007   5.144 -0.1537  0.1240 -0.1558
    1OPC    C4B64133   0.528  27.908   4.834  0.0236 -0.1420 -0.0405
    1OPC    NC364134  14.268   1.990   8.197  0.0127 -0.4836 -0.1832
    1OPC    PO464135  13.960   1.854   7.912 -0.0280 -0.1903  0.0901
    1OPC    GL164136  13.918   1.899   7.563  0.0581  0.0394 -0.0614
    1OPC    GL264137  13.750   1.800   7.179 -0.2114  0.1292 -0.1402
    1OPC    C1B64138  13.890   1.792   6.903 -0.1626  0.4135  0.0783
    1OPC    D2B64139  13.945   1.911   6.473  0.0578  0.0214  0.2958
    1OPC    C3B64140  13.967   2.206   6.172  0.0222  0.0739  0.1529
    1OPC    C4B64141  13.765   2.574   6.104  0.0375  0.1333 -0.0630
    1OPC    NC364142  16.713  23.577   7.870  0.4678 -0.0634 -0.0036
    1OPC    PO464143  16.900  23.581   7.450 -0.1721 -0.3151 -0.1620
    1OPC    GL164144  17.003  23.663   6.959  0.0630  0.2731 -0.1149
    1OPC    GL264145  17.144  23.580   6.699  0.0714  0.0357 -0.1094
    1OPC    C1B64146  17.379  23.835   6.353  0.0323  0.0485 -0.0886
    1OPC    D2B64147  17.759  23.727   6.120 -0.1143  0.0051 -0.0200
    1OPC    C3B64148  17.791  23.351   5.850 -0.1702 -0.3465 -0.3712
    1OPC    C4B64149  17.899  23.024   5.574  0.3805 -0.2507 -0.0499
    1OPC    NC364150  15.209  24.215   6.649  0.0803  0.1177 -0.0595
    1OPC    PO464151  15.118  23.727   6.784  0.1594  0.0023  0.1290
    1OPC    GL164152  14.866  23.453   6.498 -0.0217  0.1399 -0.2887
    1OPC    GL264153  14.719  23.420   6.225 -0.2467 -0.0385 -0.2755
    1OPC    C1B64154  14.455  23.612   5.894 -0.0390 -0.2349  0.0939
    1OPC    D2B64155  14.412  23.537   5.393  0.0440 -0.2575  0.1042
    1OPC    C3B64156  14.325  23.878   5.058 -0.4123  0.1013 -0.2620
    1OPC    C4B64157  14.347  24.134   4.670 -0.1565  0.3733  0.0626
    1OPC    NC364158   0.442  21.591   6.638  0.0080  0.4158  0.0021
    1OPC    PO464159   0.375  22.027   6.598 -0.2533 -0.0903  0.0471
    1OPC    GL164160   0.342  22.233   6.302 -0.3058  0.2538  0.1393
    1OPC    GL264161   0.478  22.410   6.133 -0.0537  0.3184  0.1231
    1OPC    C1B64162   0.313  22.703   5.926  0.1851  0.0895 -0.2209
    1OPC    D2B64163  28.095  22.600   5.646 -0.2319 -0.2338 -0.0488
    1OPC    C3B64164  28.037  22.883   5.340  0.3302  0.1172  0.1778
    1OPC    C4B64165  27.907  22.836   4.963  0.1143 -0.0891  0.0968
    1OPC    NC364166  17.080  10.894   7.927  0.1709 -0.0105  0.1973
    1OPC    PO464167  16.992  11.054   7.433  0.1496  0.0333 -0.1163
    1OPC    GL164168  17.050  11.460   7.209 -0.0609 -0.0324 -0.4169
    1OPC    GL264169  17.133  11.628   6.957  0.0111 -0.0675  0.0686
    1OPC    C1B64170  17.220  11.998   6.750 -0.0561  0.1000 -0.1122
    1OPC    D2B64171  17.297  12.045   6.241 -0.3509 -0.0964 -0.1189
    1OPC    C3B64172  17.714  11.896   6.150  0.0745  0.1027  0.1990
    1OPC    C4B64173  17.899  11.725   5.778 -0.0271  0.0226 -0.3933
    1OPC    NC364174  16.275  11.455   7.729  0.3099 -0.2962  0.0223
    1OPC    PO464175  15.915  11.309   7.897  0.3579 -0.0445  0.1219
    1OPC    GL164176  15.693  11.345   7.566 -0.0936 -0.2704 -0.1415
    1OPC    GL264177  15.506  11.315   7.267 -0.3839  0.0780 -0.2429
    1OPC    C1B64178  15.269  11.190   6.945 -0.0183 -0.0676 -0.0111
    1OPC    D2B64179  15.377  10.997   6.588  0.2035  0.0099 -0.2167
    1OPC    C3B64180  15.419  11.142   6.086  0.2428  0.3768 -0.1038
    1OPC    C4B64181  15.055  11.224   5.861  0.3492 -0.0924  0.1143
    1OPC    NC364182  18.409  21.892   7.169  0.1311 -0.1538 -0.3037
    1OPC    PO464183  18.333  22.239   7.204  0.1934  0.3008  0.2038
    1OPC    GL164184  18.115  22.284   6.780  0.1480 -0.1114  0.6329
    1OPC    GL264185  17.816  22.379   6.643 -0.1611  0.0848 -0.1541
    1OPC    C1B64186  17.652  22.431   6.223  0.0702  0.3212  0.1220
    1OPC    D2B64187  17.687  22.726   5.894  0.1337 -0.2889 -0.1215
    1OPC    C3B64188  17.879  22.524   5.520  0.3163 -0.2196  0.2463
    1OPC    C4B64189  18.051  22.151   5.477  0.2404 -0.0072 -0.0419
    1OPC    NC364190   4.270  13.034   6.824 -0.0564  0.1190 -0.2309
    1OPC    PO464191   4.045  13.383   6.995 -0.0892 -0.2885  0.0228
    1OPC    GL164192   3.905  13.379   6.677 -0.2180 -0.3527  0.0873
    1OPC    GL264193   3.915  13.342   6.286  0.2341 -0.0905 -0.0856
    1OPC    C1B64194   4.077  13.290   5.859 -0.0278  0.1045  0.0821
    1OPC    D2B64195   4.229  13.438   5.452  0.3681  0.1221  0.0873
    1OPC    C3B64196   4.695  13.525   5.320 -0.0272 -0.1947 -0.2002
    1OPC    C4B64197   5.207  13.385   5.290 -0.0394  0.3436 -0.0507
    1OPC    NC364198  25.238  18.287   7.383  0.2198 -0.1164  0.1663
    1OPC    PO464199  24.890  18.260   7.205  0.1399 -0.4471  0.1468
    1OPC    GL164200  25.049  18.112   6.830  0.0489  0.1922  0.3274
    1OPC    GL264201  25.071  18.032   6.569 -0.0906  0.2163  0.2709
    1OPC    C1B64202  25.011  17.925   6.068  0.0056 -0.1779 -0.0572
    1OPC    D2B64203  24.927  17.924   5.664 -0.2164  0.2235  0.0011
    1OPC    C3B64204  24.654  17.597   5.542  0.2260  0.2303 -0.3076
    1OPC    C4B64205  24.534  17.163   5.712  0.0236  0.0712 -0.1036
    1OPC    NC364206  10.649  23.380   7.313 -0.0865 -0.1533  0.0445
    1OPC    PO464207  11.095  23.454   7.320  0.1651  0.0939  0.2675
    1OPC    GL164208  10.980  23.245   6.944 -0.4561 -0.1475  0.1339
    1OPC    GL264209  10.925  23.463   6.608  0.0265 -0.0613  0.0959
    1OPC    C1B64210  10.985  23.657   6.172  0.0787  0.1658  0.1230
    1OPC    D2B64211  11.144  23.722   5.866 -0.2204  0.1402 -0.3834
    1OPC    C3B64212  11.062  23.755   5.445  0.2324 -0.4803 -0.4500
    1OPC    C4B64213  11.089  23.747   5.051  0.0186 -0.1236  0.2612
    1OPC    NC364214   7.383  21.765   7.414 -0.0923  0.4107 -0.1263
    1OPC    PO464215   7.835  21.612   7.253 -0.3177 -0.0978  0.1164
    1OPC    GL164216   7.919  21.666   6.764  0.0843  0.0323  0.1611
    1OPC    GL264217   8.182  22.008   6.624 -0.1939  0.0770 -0.1196
    1OPC    C1B64218   8.350  22.134   6.250 -0.0727  0.2020  0.1109
    1OPC    D2B64219   8.229  22.120   5.840  0.1055  0.1128  0.1916
    1OPC    C3B64220   8.012  21.841   5.613 -0.1978 -0.1382 -0.1644
    1OPC    C4B64221   7.579  21.877   5.470  0.0252  0.4522 -0.3480
    1OPC    NC364222  25.713   2.172   6.906  0.0456  0.1551 -0.0296
    1OPC    PO464223  25.431   2.595   7.037 -0.0475 -0.3724  0.1604
    1OPC    GL164224  25.184   2.651   6.565  0.2095  0.1128  0.0390
    1OPC    GL264225  24.964   2.467   6.351 -0.1235  0.3762 -0.1021
    1OPC    C1B64226  24.974   2.441   5.940  0.0573  0.1441 -0.2332
    1OPC    D2B64227  25.036   2.593   5.490  0.3023  0.1822 -0.0747
    1OPC    C3B64228  25.462   2.713   5.252 -0.1412 -0.0619  0.1448
    1OPC    C4B64229  25.670   2.593   4.783  0.3144  0.1368  0.0691
    1OPC    NC364230  10.347  18.583   8.131 -0.2520  0.2968  0.2197
    1OPC    PO464231  10.328  18.131   7.925 -0.0796  0.0403 -0.3986
    1OPC    GL164232  10.104  18.107   7.482  0.1757 -0.1009  0.0194
    1OPC    GL264233   9.914  18.035   7.212  0.0895 -0.0451  0.1089
    1OPC    C1B64234   9.602  18.054   6.846 -0.1706  0.0558  0.2289
    1OPC    D2B64235   9.415  18.023   6.490  0.1935  0.0690  0.0115
    1OPC    C3B64236   9.061  18.233   6.259 -0.2022 -0.0096  0.0029
    1OPC    C4B64237   8.839  18.139   5.928 -0.0786  0.3295 -0.0798
    1OPC    NC364238  18.130  18.447   7.262 -0.2732 -0.0635  0.1214
    1OPC    PO464239  18.534  18.549   7.238  0.0642  0.1186 -0.2491
    1OPC    GL164240  18.627  18.771   6.813  0.0480  0.0701 -0.0118
    1OPC    GL264241  18.815  18.784   6.570 -0.0733 -0.3290  0.2606
    1OPC    C1B64242  19.150  18.854   6.625 -0.0713 -0.2691 -0.4750
    1OPC    D2B64243  19.515  18.742   6.398 -0.1735  0.1271 -0.3903
    1OPC    C3B64244  19.397  18.408   6.059 -0.0756 -0.2318  0.0013
    1OPC    C4B64245  19.121  18.397   5.751 -0.1643  0.2215  0.1665
    1OPC    NC364246  13.771  16.917   7.523  0.0966 -0.0419  0.0709
    1OPC    PO464247  13.459  16.621   7.533  0.0207 -0.3179 -0.1371
    1OPC    GL164248  13.396  16.589   7.039  0.0592 -0.0348 -0.0142
    1OPC    GL264249  13.354  16.851   6.804 -0.0360  0.0600  0.3389
    1OPC    C1B64250  13.377  16.984   6.462 -0.0334 -0.0150 -0.0732
    1OPC    D2B64251  13.490  16.878   6.032 -0.1221 -0.1078 -0.0231
    1OPC    C3B64252  13.443  16.777   5.623  0.1330 -0.0293 -0.1759
    1OPC    C4B64253  13.626  16.956   5.305  0.3819 -0.0882  0.0010
    1OPC    NC364254  17.524   1.033   7.740  0.0900 -0.1105 -0.4668
    1OPC    PO464255  17.810   0.770   7.706  0.0572 -0.1331 -0.2653
    1OPC    GL164256  17.939   0.717   7.322 -0.1232  0.1970 -0.0972
    1OPC    GL264257  17.914   0.753   6.937 -0.2443 -0.0422  0.1872
    1OPC    C1B64258  17.697   0.741   6.597  0.3382 -0.2553  0.0987
    1OPC    D2B64259  17.666   0.941   6.216 -0.0270  0.0882 -0.1738
    1OPC    C3B64260  17.812   0.941   5.787  0.1414  0.1380  0.1019
    1OPC    C4B64261  17.874   0.742   5.383  0.2633 -0.0020 -0.0506
    1OPC    NC364262  22.837   9.524   6.999 -0.2879 -0.0698 -0.1570
    1OPC    PO464263  23.166   9.892   6.966 -0.1475  0.0608 -0.2462
    1OPC    GL164264  23.057   9.743   6.568 -0.2139  0.1234  0.1059
    1OPC    GL264265  22.994   9.739   6.240  0.0239  0.1808 -0.0736
    1OPC    C1B64266  22.875   9.943   5.843  0.0799 -0.2280 -0.2484
    1OPC    D2B64267  22.494  10.100   5.710 -0.3061  0.0365  0.0173
    1OPC    C3B64268  22.638   9.861   5.310  0.1557  0.0149  0.2715
    1OPC    C4B64269  22.622   9.469   4.995 -0.1067  0.1562 -0.4118
    1OPC    NC364270  25.821   5.836   6.609  0.3864  0.1562 -0.1663
    1OPC    PO464271  25.667   6.171   6.356 -0.0126  0.1135  0.0167
    1OPC    GL164272  25.347   6.446   6.409  0.1362 -0.2278  0.1538
    1OPC    GL264273  25.229   6.605   6.279 -0.2914 -0.2115 -0.0510
    1OPC    C1B64274  25.111   6.641   5.885  0.1603 -0.2683  0.3055
    1OPC    D2B64275  24.925   6.857   5.590 -0.1129  0.0382  0.0505
    1OPC    C3B64276  24.796   6.764   5.173 -0.2200  0.1119 -0.0260
    1OPC    C4B64277  24.646   6.415   5.056  0.0508 -0.1243 -0.1598
    1OPC    NC364278  23.332  15.321   6.860  0.2940 -0.1042 -0.1108
    1OPC    PO464279  22.983  14.921   6.954  0.2477 -0.2754  0.1739
    1OPC    GL164280  23.142  14.696   6.669  0.1462  0.2767  0.1942
    1OPC    GL264281  23.128  14.767   6.387  0.2352 -0.0617  0.0711
    1OPC    C1B64282  23.172  14.788   5.911  0.0232  0.0682  0.0847
    1OPC    D2B64283  23.232  14.550   5.460  0.0202 -0.2129  0.0625
    1OPC    C3B64284  23.033  14.144   5.378  0.3846  0.0352  0.4099
    1OPC    C4B64285  22.752  13.892   5.520  0.3836  0.1399 -0.1999
    1OPC    NC364286  23.605  14.642   6.816  0.2739 -0.2812  0.1168
    1OPC    PO464287  24.045  14.604   7.027 -0.2191  0.0899  0.1274
    1OPC    GL164288  24.228  14.231   6.977 -0.0938 -0.0707 -0.1101
    1OPC    GL264289  24.260  14.106   6.628 -0.0567 -0.1758  0.0705
    1OPC    C1B64290  23.950  13.860   6.361  0.0127  0.1978 -0.1705
    1OPC    D2B64291  23.596  13.518   6.391 -0.0187  0.0573 -0.1541
    1OPC    C3B64292  23.181  13.755   6.052 -0.2516  0.0801 -0.3314
    1OPC    C4B64293  22.760  13.815   6.048 -0.3655 -0.0860 -0.3328
    1OPC    NC364294  26.794   9.089   7.502  0.2132  0.2918  0.2277
    1OPC    PO464295  26.835   9.123   7.018 -0.2364  0.1201 -0.4776
    1OPC    GL164296  26.957   9.169   6.487 -0.3054  0.0242  0.1544
    1OPC    GL264297  26.870   9.140   6.159 -0.1926 -0.6112 -0.1004
    1OPC    C1B64298  26.748   9.039   5.684 -0.1441  0.0066 -0.3124
    1OPC    D2B64299  26.716   9.087   5.234  0.1460  0.2272 -0.0356
    1OPC    C3B64300  26.549   9.507   4.972 -0.1535 -0.0063  0.0583
    1OPC    C4B64301  26.217   9.371   4.847 -0.0612 -0.2431  0.3681
    1OPC    NC364302   4.809   3.105   6.870  0.0615  0.4118  0.0061
    1OPC    PO464303   4.819   3.059   6.455  0.0931  0.0142  0.1550
    1OPC    GL164304   4.656   3.329   6.170 -0.1805 -0.0969  0.0999
    1OPC    GL264305   4.819   3.500   5.919  0.0174  0.1129  0.0343
    1OPC    C1B64306   5.010   3.641   5.621  0.3123  0.3804 -0.0558
    1OPC    D2B64307   5.439   3.578   5.556  0.0545  0.1091  0.2621
    1OPC    C3B64308   5.607   3.484   5.232  0.0850  0.1648  0.1078
    1OPC    C4B64309   5.754   3.135   4.918  0.0390  0.2851 -0.0275
    1OPC    NC364310   2.220  21.451   6.872  0.1191  0.1361  0.0146
    1OPC    PO464311   1.858  21.384   6.712  0.1591  0.1586  0.0220
    1OPC    GL164312   1.645  21.310   6.379 -0.0092 -0.0128  0.2082
    1OPC    GL264313   1.614  21.182   6.067 -0.0938  0.1907  0.1474
    1OPC    C1B64314   1.308  20.854   5.898 -0.1413  0.0801  0.0259
    1OPC    D2B64315   1.066  20.829   5.540 -0.1814 -0.2408 -0.2495
    1OPC    C3B64316   1.088  20.799   5.133  0.4180 -0.3873  0.1221
    1OPC    C4B64317   1.181  20.664   4.859 -0.1010 -0.2161  0.2537
    1OPC    NC364318  22.052   5.425   7.031 -0.1440  0.2736  0.0005
    1OPC    PO464319  22.293   5.101   6.855 -0.2070  0.0742 -0.1684
    1OPC    GL164320  22.595   5.114   6.490 -0.0095  0.0049  0.1121
    1OPC    GL264321  22.500   5.256   6.150  0.1478  0.2395 -0.3580
    1OPC    C1B64322  22.496   5.274   5.598 -0.1215  0.1116 -0.4546
    1OPC    D2B64323  22.775   5.028   5.220  0.1483 -0.2260 -0.0706
    1OPC    C3B64324  23.307   5.106   5.067 -0.1870 -0.0458  0.5236
    1OPC    C4B64325  23.659   4.923   4.704  0.0424  0.2222  0.2200
    1OPC    NC364326  27.780  13.134   7.160 -0.1335  0.0619  0.1236
    1OPC    PO464327  27.741  13.364   6.816 -0.1391  0.2068 -0.5229
    1OPC    GL164328  27.560  13.386   6.378 -0.0497 -0.1302  0.1481
    1OPC    GL264329  27.471  13.585   6.043 -0.1932  0.1280 -0.2315
    1OPC    C1B64330  27.319  13.693   5.590 -0.2245 -0.0857  0.1365
    1OPC    D2B64331  27.559  13.885   5.206 -0.0631  0.1630 -0.1184
    1OPC    C3B64332  27.571  13.653   4.857  0.1988 -0.1000 -0.0893
    1OPC    C4B64333  27.270  13.496   4.468 -0.4031  0.1185 -0.3248
    1OPC    NC364334  25.179   2.431   7.399 -0.1636  0.1955  0.1696
    1OPC    PO464335  24.822   2.042   7.251  0.0390  0.2978  0.3313
    1OPC    GL164336  24.888   1.815   6.738 -0.2588 -0.0709  0.2339
    1OPC    GL264337  25.080   1.831   6.399  0.4037  0.1291 -0.1600
    1OPC    C1B64338  25.184   1.940   6.015  0.0644 -0.0441  0.1086
    1OPC    D2B64339  25.309   2.011   5.645  0.0446  0.2435  0.1633
    1OPC    C3B64340  25.200   2.197   5.206 -0.1385 -0.2583 -0.2280
    1OPC    C4B64341  24.872   2.038   4.775 -0.0029 -0.0053  0.0123
    1OPC    NC364342   4.342  25.060   7.142 -0.2819  0.0464 -0.1636
    1OPC    PO464343   4.185  24.625   6.921 -0.3238 -0.0417  0.3972
    1OPC    GL164344   4.185  24.580   6.535 -0.0291 -0.0208  0.2660
    1OPC    GL264345   4.122  24.418   6.278 -0.0343  0.3675 -0.0184
    1OPC    C1B64346   4.117  24.381   5.820 -0.0331  0.2448 -0.0778
    1OPC    D2B64347   4.229  24.229   5.444 -0.3025  0.1275 -0.3233
    1OPC    C3B64348   4.049  24.356   5.096  0.3007 -0.1351  0.0055
    1OPC    C4B64349   4.240  24.715   4.739  0.4222 -0.0420 -0.0453
    1OPC    NC364350  18.641  16.788   7.323  0.1801 -0.1189  0.0920
    1OPC    PO464351  19.044  16.826   7.120 -0.1009  0.1843  0.2357
    1OPC    GL164352  19.343  16.434   7.111 -0.0621 -0.1220  0.0182
    1OPC    GL264353  19.613  16.324   6.972 -0.2591 -0.1133  0.2039
    1OPC    C1B64354  19.659  16.117   6.664  0.0738  0.0253 -0.2699
    1OPC    D2B64355  19.727  15.857   6.329  0.0040 -0.2389  0.0022
    1OPC    C3B64356  19.945  15.597   5.971 -0.2231 -0.3166 -0.1552
    1OPC    C4B64357  19.796  15.233   5.719 -0.2857  0.1631 -0.1381
    1OPC    NC364358  15.114  12.424   7.927 -0.1228  0.1110 -0.1474
    1OPC    PO464359  14.751  12.761   8.063  0.1729  0.4020  0.0054
    1OPC    GL164360  14.897  12.836   7.645 -0.0291 -0.0837  0.2093
    1OPC    GL264361  14.909  12.889   7.249  0.0064 -0.2325 -0.0936
    1OPC    C1B64362  14.935  12.736   6.826  0.0189  0.0368  0.4520
    1OPC    D2B64363  14.813  12.524   6.471  0.2211 -0.0187 -0.1609
    1OPC    C3B64364  14.872  12.516   6.007 -0.0453  0.2132 -0.0920
    1OPC    C4B64365  15.160  12.726   5.753 -0.1076 -0.1252  0.0767
    1OPC    NC364366   9.992  22.917   7.300 -0.0255  0.3207 -0.2163
    1OPC    PO464367  10.382  22.968   7.288 -0.0377 -0.2263  0.2391
    1OPC    GL164368  10.509  23.053   6.889 -0.1699  0.1986  0.3330
    1OPC    GL264369  10.639  22.987   6.673  0.2061 -0.3243 -0.3515
    1OPC    C1B64370  10.954  22.924   6.436  0.0872  0.2882 -0.0173
    1OPC    D2B64371  10.883  23.050   5.994 -0.4197 -0.0863  0.4523
    1OPC    C3B64372  10.906  23.335   5.693 -0.2064  0.0486 -0.0828
    1OPC    C4B64373  10.761  23.398   5.216  0.0724  0.2982  0.0487
    1OPC    NC364374  27.372  12.669   7.317 -0.2858  0.0577 -0.3698
    1OPC    PO464375  27.287  12.442   6.969 -0.0288  0.0496  0.4671
    1OPC    GL164376  27.347  12.537   6.622  0.0443 -0.0887  0.0416
    1OPC    GL264377  27.485  12.501   6.381 -0.0415 -0.0999  0.2179
    1OPC    C1B64378  27.687  12.336   6.064  0.0533 -0.0946  0.0136
    1OPC    D2B64379  27.967  12.117   5.815  0.1987 -0.1868 -0.0538
    1OPC    C3B64380   0.119  12.473   5.760 -0.1795  0.0271 -0.1554
    1OPC    C4B64381   0.455  12.746   5.681 -0.0228  0.0821 -0.1045
    1OPC    NC364382   8.623   2.405   7.117 -0.0478  0.4953 -0.0573
    1OPC    PO464383   8.761   2.779   7.015 -0.1270 -0.1612 -0.3330
    1OPC    GL164384   8.982   2.665   6.822 -0.0037 -0.1434  0.0183
    1OPC    GL264385   9.231   2.635   6.682 -0.0603 -0.0813  0.0065
    1OPC    C1B64386   9.247   2.628   6.253  0.0110  0.0076  0.2472
    1OPC    D2B64387   9.462   2.464   5.947 -0.0744  0.0894  0.1145
    1OPC    C3B64388   9.860   2.692   5.830  0.2035  0.0446  0.2712
    1OPC    C4B64389  10.257   2.376   5.923 -0.0042 -0.1038  0.0406
    1OPC    NC364390  22.754   2.670   7.047 -0.0500 -0.1118 -0.0888
    1OPC    PO464391  23.162   2.531   6.970  0.0446  0.0601 -0.0756
    1OPC    GL164392  23.387   2.663   6.613  0.0774  0.1910 -0.1210
    1OPC    GL264393  23.322   2.590   6.334 -0.0771  0.0534  0.1115
    1OPC    C1B64394  23.389   2.406   6.001  0.2527 -0.1295  0.0982
    1OPC    D2B64395  23.591   2.286   5.541 -0.0551 -0.3111 -0.0194
    1OPC    C3B64396  23.664   2.617   5.216 -0.1711 -0.1804  0.3494
    1OPC    C4B64397  23.450   2.981   5.007  0.0101 -0.0115 -0.1554
    1OPC    NC364398  16.920  24.066   7.258  0.1094  0.3166 -0.1895
    1OPC    PO464399  17.334  24.224   7.151 -0.0232 -0.0945 -0.0495
    1OPC    GL164400  17.551  23.872   6.845 -0.2259 -0.0882 -0.1605
    1OPC    GL264401  17.817  23.583   6.572 -0.2701  0.1705  0.1014
    1OPC    C1B64402  18.067  23.340   6.232 -0.4058  0.0774 -0.2661
    1OPC    D2B64403  18.315  23.366   5.886 -0.0873 -0.2358 -0.1793
    1OPC    C3B64404  18.469  23.813   5.795  0.4822  0.2186  0.2146
    1OPC    C4B64405  18.482  24.081   5.396  0.3602  0.0827 -0.0689
    1OPC    NC364406   4.733  23.014   7.319  0.3007 -0.3320  0.3422
    1OPC    PO464407   4.820  23.462   7.073  0.1798 -0.1310  0.2868
    1OPC    GL164408   4.908  23.396   6.665 -0.1654  0.0172  0.1987
    1OPC    GL264409   4.897  23.574   6.314  0.0495 -0.0472 -0.0670
    1OPC    C1B64410   4.666  23.596   5.878  0.1033 -0.2351 -0.1004
    1OPC    D2B64411   4.622  23.537   5.421  0.0494  0.2134 -0.3864
    1OPC    C3B64412   4.345  23.753   5.234  0.2019  0.0972  0.3737
    1OPC    C4B64413   4.179  23.733   4.712 -0.0716  0.0429  0.1506
    1OPC    NC364414   0.811   1.116   6.659 -0.0762 -0.2726  0.1720
    1OPC    PO464415   1.045   1.179   6.319  0.0711  0.2925  0.1549
    1OPC    GL164416   0.820   1.430   6.073 -0.1946 -0.0750  0.0508
    1OPC    GL264417   0.598   1.486   5.835  0.1053  0.2672 -0.4093
    1OPC    C1B64418   0.458   1.304   5.435  0.0207 -0.3527 -0.0664
    1OPC    D2B64419   0.322   1.112   5.050  0.1402  0.0222 -0.1180
    1OPC    C3B64420  28.087   1.205   4.861 -0.3807 -0.1093 -0.3177
    1OPC    C4B64421  27.849   1.355   4.527 -0.2601  0.1313  0.1747
    1OPC    NC364422  23.543  19.840   7.038 -0.0582 -0.1820 -0.0917
    1OPC    PO464423  23.184  19.832   7.235  0.1728 -0.0426  0.0803
    1OPC    GL164424  23.056  19.938   6.805 -0.0879  0.1066  0.1285
    1OPC    GL264425  23.221  20.099   6.529 -0.2939 -0.0040 -0.2218
    1OPC    C1B64426  23.365  20.252   6.103  0.3532  0.3173 -0.1032
    1OPC    D2B64427  23.392  20.050   5.681  0.0476 -0.4068 -0.0849
    1OPC    C3B64428  23.559  20.283   5.455 -0.0408 -0.3984 -0.0743
    1OPC    C4B64429  23.789  20.371   5.045 -0.1679  0.2318 -0.1048
    1OPC    NC364430  20.738  23.486   7.063  0.2111 -0.0452  0.1859
    1OPC    PO464431  21.059  23.723   6.963  0.1193  0.1826 -0.1863
    1OPC    GL164432  21.111  24.098   6.877  0.0333 -0.0881 -0.1041
    1OPC    GL264433  21.155  24.439   6.723 -0.3366  0.1303 -0.1610
    1OPC    C1B64434  21.350  24.536   6.410  0.1186 -0.0675 -0.1632
    1OPC    D2B64435  21.833  24.754   6.326  0.0484 -0.0808  0.1438
    1OPC    C3B64436  22.005  25.030   6.012 -0.0921 -0.1165 -0.2110
    1OPC    C4B64437  21.845  24.981   5.614  0.0269 -0.1782 -0.2249
    1OPC    NC364438  20.118   0.128   7.419 -0.1149  0.0337 -0.2028
    1OPC    PO464439  20.417   0.329   7.349 -0.0236  0.0495 -0.1891
    1OPC    GL164440  20.265   0.481   6.875  0.0802  0.0041 -0.2104
    1OPC    GL264441  20.020   0.541   6.626  0.1258  0.1596 -0.1725
    1OPC    C1B64442  19.673   0.359   6.472 -0.0615 -0.0837 -0.1285
    1OPC    D2B64443  19.397  28.111   6.362  0.2363  0.2893 -0.4545
    1OPC    C3B64444  19.660  27.697   6.323  0.4098 -0.0720 -0.0889
    1OPC    C4B64445  19.910  27.246   6.229 -0.3485  0.1131  0.1676
    1OPC    NC364446  14.184  10.626   7.906 -0.0424  0.0502 -0.0994
    1OPC    PO464447  14.005  10.441   7.557 -0.1911 -0.1658  0.1858
    1OPC    GL164448  13.635  10.239   7.311  0.2130  0.1905  0.1664
    1OPC    GL264449  13.577  10.034   7.116 -0.1449  0.1336  0.1153
    1OPC    C1B64450  13.723   9.728   6.895  0.0496 -0.3532 -0.0769
    1OPC    D2B64451  13.781   9.381   6.607 -0.3100 -0.2177 -0.1311
    1OPC    C3B64452  13.534   9.231   6.850  0.1207  0.2240 -0.0817
    1OPC    C4B64453  13.060   9.181   6.849  0.0131 -0.0832  0.0888
    1OPC    NC364454  15.071   5.365   7.823 -0.0082 -0.0517  0.1529
    1OPC    PO464455  14.760   5.089   7.508 -0.2482 -0.0810 -0.2666
    1OPC    GL164456  14.602   4.992   7.171 -0.3285 -0.2216 -0.3112
    1OPC    GL264457  14.469   4.875   7.007  0.0918 -0.4057  0.0564
    1OPC    C1B64458  14.150   4.614   6.812  0.0320  0.3741 -0.0401
    1OPC    D2B64459  13.810   4.628   6.488  0.2647  0.0515 -0.1398
    1OPC    C3B64460  13.710   4.452   6.025  0.1703  0.0612 -0.1371
    1OPC    C4B64461  13.524   4.770   5.684 -0.0630 -0.2236  0.0530
    1OPC    NC364462  11.315  18.022   7.953  0.0191  0.1184  0.1510
    1OPC    PO464463  11.180  18.082   7.521  0.1195  0.1730 -0.1439
    1OPC    GL164464  11.403  17.845   7.171 -0.0096  0.0134 -0.0371
    1OPC    GL264465  11.649  17.771   7.055  0.0320  0.1338 -0.4179
    1OPC    C1B64466  11.763  17.834   6.603  0.0084 -0.1835  0.0624
    1OPC    D2B64467  11.856  18.055   6.195 -0.1741 -0.2868 -0.2353
    1OPC    C3B64468  11.855  17.829   5.807 -0.2858  0.1083  0.4618
    1OPC    C4B64469  11.909  17.339   5.709 -0.1291  0.0206  0.0448
    1OPC    NC364470   4.295   0.453   6.849  0.2042  0.0663  0.0654
    1OPC    PO464471   4.368   0.771   6.592 -0.1603 -0.1574 -0.3180
    1OPC    GL164472   4.431   0.524   6.253  0.2068  0.2117  0.0708
    1OPC    GL264473   4.382   0.547   5.933  0.1919  0.1708 -0.1412
    1OPC    C1B64474   4.325   0.839   5.682 -0.1356  0.0204 -0.1068
    1OPC    D2B64475   4.306   1.104   5.272  0.4168 -0.0333  0.2212
    1OPC    C3B64476   4.577   0.980   4.939 -0.1317  0.1453  0.0459
    1OPC    C4B64477   4.757   0.469   4.921  0.0543  0.6111  0.0122
    1OPC    NC364478  20.207  24.249   7.373 -0.2207 -0.1990  0.0936
    1OPC    PO464479  19.888  24.614   7.124  0.0500 -0.1904 -0.2778
    1OPC    GL164480  20.121  24.674   6.675 -0.0841  0.1585  0.2242
    1OPC    GL264481  20.021  24.948   6.444 -0.1889 -0.1803  0.1307
    1OPC    C1B64482  19.843  24.911   6.013 -0.1188 -0.0223  0.0054
    1OPC    D2B64483  19.682  24.780   5.633 -0.0128  0.1156 -0.1400
    1OPC    C3B64484  19.510  24.474   5.822 -0.1791  0.2327  0.0128
    1OPC    C4B64485  19.306  24.545   6.100  0.1207  0.1919  0.0177
    1OPC    NC364486   0.380  21.210   6.343 -0.2157 -0.0486  0.1983
    1OPC    PO464487   0.068  21.580   6.301 -0.0060 -0.2073  0.3939
    1OPC    GL164488   0.454  21.797   6.154  0.0876 -0.1192 -0.1008
    1OPC    GL264489   0.668  21.844   5.939 -0.0185  0.1183  0.1781
    1OPC    C1B64490   0.713  21.914   5.486  0.1178 -0.0894  0.0472
    1OPC    D2B64491   0.772  21.857   5.098 -0.1640 -0.1225  0.1090
    1OPC    C3B64492   0.893  22.224   4.904  0.2187 -0.1030 -0.0888
    1OPC    C4B64493   1.306  22.312   4.907 -0.0512 -0.4077  0.0083
    1OPC    NC364494  13.880  11.842   8.534  0.1520  0.2303  0.1162
    1OPC    PO464495  14.187  11.677   8.226 -0.0887  0.1489 -0.3099
    1OPC    GL164496  14.436  11.827   7.804 -0.0923  0.5905  0.5391
    1OPC    GL264497  14.620  11.553   7.449  0.0370 -0.1677 -0.1638
    1OPC    C1B64498  14.689  11.512   7.118  0.1369 -0.1175  0.0682
    1OPC    D2B64499  14.901  11.531   6.748 -0.1847  0.1959  0.0788
    1OPC    C3B64500  14.894  11.626   6.335 -0.1413  0.0683  0.2046
    1OPC    C4B64501  14.797  11.667   5.988 -0.3146 -0.1311  0.0571
    1OPC    NC364502  10.018  15.834   8.023  0.1546  0.0526 -0.5421
    1OPC    PO464503  10.220  15.773   7.550  0.0573 -0.0749  0.0107
    1OPC    GL164504  10.194  16.140   7.310 -0.0942 -0.2562 -0.3163
    1OPC    GL264505  10.199  16.355   7.030  0.0212  0.0511  0.0802
    1OPC    C1B64506  10.228  16.230   6.603  0.0582  0.4476 -0.0974
    1OPC    D2B64507  10.435  15.969   6.352 -0.0947 -0.0954  0.0388
    1OPC    C3B64508  10.363  15.913   5.883 -0.2705 -0.2451 -0.0143
    1OPC    C4B64509  10.530  15.564   5.531  0.1175 -0.3462 -0.1439
    1OPC    NC364510  19.509  19.470   7.573 -0.6643 -0.1510 -0.1198
    1OPC    PO464511  19.932  19.414   7.770  0.1908 -0.0039 -0.2258
    1OPC    GL164512  19.906  19.359   7.298 -0.1369  0.0740 -0.1036
    1OPC    GL264513  19.904  19.178   7.049  0.2273  0.0950 -0.2153
    1OPC    C1B64514  19.903  19.113   6.663  0.0548 -0.2821 -0.3608
    1OPC    D2B64515  19.747  19.183   6.293 -0.2996  0.2793  0.2049
    1OPC    C3B64516  19.873  19.280   5.930  0.0595 -0.0643  0.0114
    1OPC    C4B64517  19.909  19.369   5.518 -0.0591  0.0220  0.3333
    1OPC    NC364518  20.254  26.802   7.760 -0.2514  0.0541 -0.0794
    1OPC    PO464519  20.450  26.567   7.446 -0.0423 -0.1166 -0.1567
    1OPC    GL164520  20.093  26.567   7.332  0.1183  0.2749 -0.2695
    1OPC    GL264521  19.734  26.573   7.116  0.2085 -0.0472  0.1184
    1OPC    C1B64522  19.843  26.482   6.678  0.0030 -0.2313 -0.2902
    1OPC    D2B64523  19.651  26.282   6.358 -0.1941 -0.0880 -0.1794
    1OPC    C3B64524  19.403  26.512   5.967  0.1055  0.0137  0.5352
    1OPC    C4B64525  19.145  26.750   5.644 -0.2649 -0.0046 -0.0131
    1OPC    NC364526  25.855   8.606   6.858  0.2033  0.1390  0.1398
    1OPC    PO464527  25.915   8.186   6.699 -0.2084  0.0132  0.0041
    1OPC    GL164528  26.329   7.908   6.652 -0.0131 -0.1680  0.1273
    1OPC    GL264529  26.526   7.860   6.366  0.0527 -0.1510 -0.4440
    1OPC    C1B64530  26.592   7.579   6.021  0.1221  0.1561 -0.1391
    1OPC    D2B64531  26.434   7.294   5.722 -0.3907 -0.0123  0.0765
    1OPC    C3B64532  26.208   7.470   5.383  0.2486 -0.1501 -0.0894
    1OPC    C4B64533  26.458   7.633   4.965  0.1473 -0.2694  0.1718
    1OPC    NC364534  10.279  17.352   7.827 -0.0497  0.2109  0.3061
    1OPC    PO464535  10.372  16.866   7.741 -0.1776  0.1124  0.0982
    1OPC    GL164536  10.506  16.703   7.375 -0.2614 -0.0714  0.2076
    1OPC    GL264537  10.483  16.788   7.037 -0.2563 -0.2673 -0.1141
    1OPC    C1B64538  10.455  16.728   6.669  0.4015  0.1930  0.1322
    1OPC    D2B64539  10.558  16.554   6.216  0.0884 -0.0990 -0.1211
    1OPC    C3B64540  10.234  16.408   5.957 -0.4368  0.2639  0.5391
    1OPC    C4B64541   9.951  16.197   5.737 -0.0444 -0.3246  0.1488
    1OPC    NC364542  13.205  13.913   7.771 -0.0877  0.0538 -0.2159
    1OPC    PO464543  12.913  13.699   7.975  0.2446 -0.0427 -0.3850
    1OPC    GL164544  12.675  14.058   7.679 -0.0579  0.0141 -0.1230
    1OPC    GL264545  12.383  14.022   7.415  0.4017 -0.0764 -0.0028
    1OPC    C1B64546  12.206  13.820   7.107  0.2862  0.0486  0.0972
    1OPC    D2B64547  12.217  13.535   6.810 -0.1121 -0.0054 -0.2405
    1OPC    C3B64548  12.425  13.662   6.478  0.1307 -0.0456 -0.0918
    1OPC    C4B64549  12.651  14.040   6.405  0.1006  0.0276  0.2447
    1OPC    NC364550   4.086  14.048   7.626  0.4813 -0.1044  0.0937
    1OPC    PO464551   4.018  14.270   7.180 -0.0218 -0.1461 -0.2583
    1OPC    GL164552   4.041  14.383   6.705 -0.3841 -0.2853  0.0376
    1OPC    GL264553   3.926  14.346   6.397 -0.2684 -0.0286 -0.1356
    1OPC    C1B64554   3.780  14.232   5.928 -0.0421 -0.2511 -0.4326
    1OPC    D2B64555   3.514  14.600   5.805  0.2794  0.0714  0.0690
    1OPC    C3B64556   3.291  14.588   5.424 -0.2710  0.0187  0.1117
    1OPC    C4B64557   3.522  14.830   5.140 -0.4374  0.4083 -0.0215
    1OPC    NC364558  12.772  14.824   8.244  0.0179  0.2489 -0.2122
    1OPC    PO464559  12.997  14.527   8.092  0.0324 -0.0522  0.2013
    1OPC    GL164560  12.881  14.517   7.625 -0.0079 -0.2159 -0.0367
    1OPC    GL264561  12.965  14.553   7.266  0.0176 -0.0739  0.1636
    1OPC    C1B64562  12.893  14.513   6.844 -0.0592 -0.3410  0.1357
    1OPC    D2B64563  12.919  14.503   6.386 -0.2408  0.2070 -0.3371
    1OPC    C3B64564  12.715  14.262   5.986 -0.0429  0.0792  0.0914
    1OPC    C4B64565  12.468  13.951   5.826 -0.0988  0.3608 -0.2368
    1OPC    NC364566   4.802  17.965   7.376 -0.2346 -0.0419  0.1477
    1OPC    PO464567   4.742  17.541   7.267  0.0218 -0.1110  0.1632
    1OPC    GL164568   4.879  17.542   6.793 -0.0256  0.1320  0.1734
    1OPC    GL264569   4.985  17.348   6.543  0.1270  0.1062  0.1508
    1OPC    C1B64570   5.126  17.241   6.109  0.1567  0.0430 -0.0980
    1OPC    D2B64571   5.417  17.345   5.757  0.0906 -0.0212  0.2234
    1OPC    C3B64572   5.655  17.684   5.622 -0.1752  0.1380  0.0870
    1OPC    C4B64573   5.837  18.112   5.652 -0.2018 -0.1565  0.0831
    1OPC    NC364574  12.188  18.195   7.609 -0.1770  0.0281  0.0076
    1OPC    PO464575  12.084  17.895   7.310 -0.1601  0.0323 -0.1860
    1OPC    GL164576  12.217  17.859   6.827  0.0061  0.0432  0.2303
    1OPC    GL264577  12.334  17.807   6.539  0.2243  0.2025  0.2705
    1OPC    C1B64578  12.245  17.666   6.116 -0.0928  0.2051 -0.0146
    1OPC    D2B64579  12.270  17.656   5.670 -0.2151  0.3065 -0.1440
    1OPC    C3B64580  12.064  17.723   5.328  0.2417  0.3846  0.4600
    1OPC    C4B64581  11.765  17.851   4.984 -0.0897  0.0525 -0.3148
    1OPC    NC364582  17.584  14.494   7.768 -0.1459  0.0559 -0.0871
    1OPC    PO464583  17.702  14.838   7.531 -0.0064 -0.3496 -0.0213
    1OPC    GL164584  17.698  14.992   7.117  0.1026  0.4595 -0.0568
    1OPC    GL264585  17.655  15.178   6.832 -0.3691  0.3929  0.3462
    1OPC    C1B64586  18.005  15.296   6.544  0.0940  0.1037 -0.0144
    1OPC    D2B64587  17.948  15.468   6.156  0.2638  0.0107  0.0099
    1OPC    C3B64588  17.736  15.191   5.857 -0.0333  0.1721 -0.0299
    1OPC    C4B64589  17.542  15.106   5.479  0.0182 -0.2366 -0.0420
    1OPC    NC364590  23.605   5.129   7.246  0.0234 -0.3003 -0.0501
    1OPC    PO464591  23.433   4.796   7.017 -0.2207 -0.1675  0.1859
    1OPC    GL164592  23.341   4.657   6.695  0.0856  0.1252  0.0978
    1OPC    GL264593  23.265   4.722   6.494 -0.1382 -0.0609 -0.0415
    1OPC    C1B64594  23.189   4.533   6.054 -0.3131 -0.0709  0.2037
    1OPC    D2B64595  22.890   4.453   5.844  0.1398  0.1898 -0.0576
    1OPC    C3B64596  22.517   4.734   5.721 -0.0095 -0.0179  0.2135
    1OPC    C4B64597  22.283   4.905   5.344 -0.0748  0.0802  0.1344
    1OPC    NC364598  27.908  17.694   6.711  0.2205  0.1305  0.0623
    1OPC    PO464599  28.048  17.271   6.792  0.3053 -0.3518 -0.0895
    1OPC    GL164600  28.030  16.938   6.495  0.0515  0.2915  0.0288
    1OPC    GL264601  27.922  16.928   6.202  0.1388  0.1244  0.0871
    1OPC    C1B64602  27.634  17.007   5.857 -0.0270  0.1527 -0.2899
    1OPC    D2B64603  27.235  16.962   5.649 -0.0773  0.0646  0.0787
    1OPC    C3B64604  27.190  17.192   5.198  0.0929  0.0209  0.0926
    1OPC    C4B64605  27.241  17.169   4.666  0.0799  0.1163  0.2980
    1OPC    NC364606   8.525  11.367   7.102 -0.3127  0.0878  0.0185
    1OPC    PO464607   8.486  11.005   6.922 -0.3248  0.2728 -0.1616
    1OPC    GL164608   8.414  10.601   6.658 -0.2838  0.0160  0.1123
    1OPC    GL264609   8.362  10.423   6.414 -0.1198  0.2039  0.0282
    1OPC    C1B64610   8.380  10.182   6.036  0.1705 -0.0747 -0.1313
    1OPC    D2B64611   8.430   9.868   5.756  0.1194  0.3166 -0.1543
    1OPC    C3B64612   8.335  10.078   5.356 -0.1031 -0.0522  0.2705
    1OPC    C4B64613   8.103  10.152   4.971 -0.0788 -0.1487  0.0547
    1OPC    NC364614   3.621  25.434   7.326 -0.0980  0.2175  0.0975
    1OPC    PO464615   3.448  25.617   6.942  0.4012  0.1037  0.0342
    1OPC    GL164616   3.407  25.543   6.494 -0.1169 -0.1182 -0.3794
    1OPC    GL264617   3.454  25.558   6.121 -0.1359 -0.0308 -0.2193
    1OPC    C1B64618   3.465  25.523   5.728  0.2840 -0.0537  0.0999
    1OPC    D2B64619   3.179  25.295   5.626  0.0636  0.4288 -0.1477
    1OPC    C3B64620   3.025  24.964   5.856  0.1493  0.0141 -0.1258
    1OPC    C4B64621   2.676  24.626   6.056 -0.1181  0.1740 -0.0628
    1OPC    NC364622  15.088  13.758   8.078 -0.0985 -0.2418 -0.1922
    1OPC    PO464623  14.988  13.498   7.719 -0.1938  0.2523  0.0347
    1OPC    GL164624  14.917  13.353   7.150  0.2682  0.0255  0.1346
    1OPC    GL264625  15.120  13.208   6.931 -0.3018 -0.1588 -0.1328
    1OPC    C1B64626  15.407  13.010   6.675 -0.5841 -0.0071 -0.2514
    1OPC    D2B64627  15.246  12.865   6.284  0.1227  0.1670 -0.1424
    1OPC    C3B64628  15.381  13.115   5.947 -0.3210 -0.0490 -0.0460
    1OPC    C4B64629  15.234  13.484   5.884  0.1525 -0.1335 -0.0451
    1OPC    NC364630  13.295  27.246   6.993 -0.0385 -0.1138  0.1009
    1OPC    PO464631  13.505  27.662   6.979 -0.1732 -0.0680 -0.0111
    1OPC    GL164632  13.684  27.922   6.599 -0.1239 -0.0156 -0.0869
    1OPC    GL264633  13.874  27.902   6.385 -0.0156  0.1144 -0.2707
    1OPC    C1B64634  14.168  27.880   6.085  0.3132  0.0081  0.0961
    1OPC    D2B64635  14.210  27.941   5.695 -0.4373 -0.0490  0.1709
    1OPC    C3B64636  14.038   0.079   5.476  0.0841 -0.2812 -0.1062
    1OPC    C4B64637  13.985   0.449   5.219 -0.0296 -0.2257  0.1329
    1OPC    NC364638   1.260  24.161   7.068  0.0145  0.2210  0.1817
    1OPC    PO464639   1.570  23.917   6.877  0.1533 -0.1653  0.1841
    1OPC    GL164640   1.916  24.038   6.645  0.1132 -0.1681 -0.1992
    1OPC    GL264641   2.064  23.968   6.421  0.2916 -0.2376  0.1360
    1OPC    C1B64642   2.099  23.825   6.053  0.0186  0.2507  0.0184
    1OPC    D2B64643   1.979  23.704   5.645 -0.2301  0.0890 -0.1314
    1OPC    C3B64644   1.900  23.740   5.205 -0.0086 -0.0919 -0.0278
    1OPC    C4B64645   1.745  23.542   4.829  0.3008 -0.1567 -0.1895
    1OPC    NC364646  15.136  24.698   7.325  0.1108 -0.1346  0.0353
    1OPC    PO464647  15.018  24.438   7.139 -0.0009  0.1359  0.2927
    1OPC    GL164648  15.093  24.714   6.791  0.0090  0.3164 -0.3118
    1OPC    GL264649  15.009  24.736   6.478  0.2009 -0.0183 -0.0773
    1OPC    C1B64650  15.173  24.973   6.070  0.0510 -0.1379 -0.0434
    1OPC    D2B64651  15.276  25.030   5.638 -0.1213  0.1164 -0.0135
    1OPC    C3B64652  15.232  25.472   5.471  0.3189  0.2818 -0.0044
    1OPC    C4B64653  15.074  25.859   5.572 -0.0400 -0.0284  0.2224
    1OPC    NC364654   7.573  25.238   6.745  0.1413 -0.2059  0.2192
    1OPC    PO464655   7.176  25.417   6.901  0.0838  0.2143 -0.2749
    1OPC    GL164656   7.032  25.554   6.579  0.1376 -0.1980  0.3880
    1OPC    GL264657   7.007  25.668   6.269 -0.0754 -0.1248  0.3073
    1OPC    C1B64658   7.187  25.645   5.860 -0.1604 -0.4037 -0.0506
    1OPC    D2B64659   7.219  25.545   5.425  0.1222 -0.4239  0.0148
    1OPC    C3B64660   7.265  25.721   5.077  0.1934 -0.0111  0.3010
    1OPC    C4B64661   7.378  25.780   4.541 -0.0925 -0.3444  0.2087
    1OPC    NC364662  18.893  13.570   7.570  0.1286 -0.1136 -0.1102
    1OPC    PO464663  18.451  13.508   7.426 -0.0821  0.0653 -0.0691
    1OPC    GL164664  18.602  13.594   7.082 -0.0642  0.2515  0.0084
    1OPC    GL264665  18.696  13.782   6.830  0.1192  0.1663  0.2222
    1OPC    C1B64666  18.796  13.959   6.438  0.0926  0.0567  0.2053
    1OPC    D2B64667  18.717  14.142   6.003  0.0060 -0.2753  0.1197
    1OPC    C3B64668  18.541  13.906   5.628 -0.2606 -0.0405  0.1920
    1OPC    C4B64669  18.199  13.654   5.623 -0.4005 -0.1325  0.4093
    1OPC    NC364670   3.862   0.396   7.337 -0.2044 -0.0786  0.1091
    1OPC    PO464671   3.537   0.607   7.086  0.1165 -0.0826  0.0360
    1OPC    GL164672   3.444   0.448   6.709 -0.1379  0.1632  0.3027
    1OPC    GL264673   3.352   0.307   6.333  0.0650  0.1031 -0.0514
    1OPC    C1B64674   3.298   0.277   5.846 -0.0376 -0.1328 -0.0197
    1OPC    D2B64675   3.200   0.310   5.532 -0.1372 -0.0386 -0.2889
    1OPC    C3B64676   3.090   0.170   5.121 -0.3850  0.2029  0.0147
    1OPC    C4B64677   3.101   0.091   4.596  0.1940 -0.1641 -0.1122
    1OPC    NC364678  11.132  12.484   8.052 -0.0490  0.0767 -0.2838
    1OPC    PO464679  10.802  12.320   7.987  0.0700 -0.2389  0.0032
    1OPC    GL164680  10.764  12.537   7.636  0.0464  0.1065 -0.3462
    1OPC    GL264681  10.540  12.524   7.326  0.0424 -0.2084 -0.0648
    1OPC    C1B64682  10.345  12.720   7.016  0.1650  0.1510 -0.1164
    1OPC    D2B64683  10.235  12.874   6.589 -0.0732  0.0370  0.0104
    1OPC    C3B64684  10.497  13.092   6.542 -0.0351 -0.4274  0.0460
    1OPC    C4B64685  10.693  13.308   6.154  0.1346  0.0941  0.4168
    1OPC    NC364686   0.362   0.121   6.760 -0.3115 -0.1279  0.4918
    1OPC    PO464687   0.632   0.293   6.500 -0.2303  0.4038  0.0280
    1OPC    GL164688   1.023   0.206   6.332 -0.2734  0.2344  0.0517
    1OPC    GL264689   1.144   0.227   6.089  0.1172 -0.0718  0.1186
    1OPC    C1B64690   1.351   0.467   5.738  0.0325 -0.0153 -0.1300
    1OPC    D2B64691   1.564   0.518   5.334  0.0517 -0.2035  0.0474
    1OPC    C3B64692   1.700   0.474   4.943  0.4251  0.1855 -0.4315
    1OPC    C4B64693   1.714   0.188   4.504 -0.0469 -0.1586 -0.1205
    1OPC    NC364694  25.310  14.197   7.093 -0.2729 -0.1553 -0.2496
    1OPC    PO464695  25.171  14.336   6.741 -0.0892  0.0977  0.1911
    1OPC    GL164696  25.206  14.657   6.401 -0.1259  0.1363  0.1073
    1OPC    GL264697  25.188  14.755   6.160  0.2860  0.0145  0.0585
    1OPC    C1B64698  25.068  14.796   5.699  0.3167 -0.0565  0.2096
    1OPC    D2B64699  24.773  14.634   5.471  0.0313  0.0051 -0.0126
    1OPC    C3B64700  24.820  14.711   5.037  0.3005 -0.0119 -0.3398
    1OPC    C4B64701  24.796  15.144   4.874  0.0866  0.0391 -0.0955
    1OPC    NC364702  10.006  16.576   7.590 -0.0305 -0.1558  0.0667
    1OPC    PO464703   9.844  16.094   7.650  0.0582 -0.0493  0.2011
    1OPC    GL164704   9.639  16.335   7.353  0.0346 -0.4100  0.0637
    1OPC    GL264705   9.680  16.287   6.992 -0.2467 -0.0243 -0.0431
    1OPC    C1B64706   9.614  16.065   6.658  0.0088  0.0949  0.0054
    1OPC    D2B64707   9.451  15.915   6.263 -0.0043  0.2225 -0.3534
    1OPC    C3B64708   9.656  15.693   5.925 -0.3068 -0.2014 -0.0029
    1OPC    C4B64709   9.555  15.753   5.476  0.3498 -0.1680 -0.2176
    1OPC    NC364710   5.750  13.036   7.499  0.2276 -0.2948 -0.0557
    1OPC    PO464711   5.489  12.933   7.260  0.1214  0.1609  0.1446
    1OPC    GL164712   5.690  12.989   6.875  0.0728 -0.0073  0.4342
    1OPC    GL264713   5.914  13.042   6.664  0.0939 -0.2753  0.0555
    1OPC    C1B64714   6.066  13.224   6.242 -0.0875 -0.1774 -0.1019
    1OPC    D2B64715   5.862  13.236   5.753  0.1347 -0.1021 -0.0514
    1OPC    C3B64716   5.512  13.533   5.647 -0.3849  0.1575  0.3522
    1OPC    C4B64717   5.079  13.723   5.638 -0.0574 -0.2930  0.1361
    1OPC    NC364718  19.362   4.110   7.297  0.1037 -0.1296 -0.1107
    1OPC    PO464719  19.591   3.995   6.896  0.3155 -0.3138 -0.1782
    1OPC    GL164720  19.382   4.152   6.563 -0.1544  0.0235  0.0378
    1OPC    GL264721  19.156   4.165   6.368  0.1440 -0.1984  0.1434
    1OPC    C1B64722  19.080   4.188   5.957 -0.2374 -0.1046 -0.2412
    1OPC    D2B64723  19.330   4.210   5.527 -0.0257  0.2080  0.0077
    1OPC    C3B64724  19.445   3.856   5.117 -0.1771 -0.0494  0.5638
    1OPC    C4B64725  19.473   3.843   4.624 -0.3152  0.1286 -0.3061
    1OPC    NC364726  18.916   2.498   7.558  0.0632  0.0323 -0.0933
    1OPC    PO464727  18.496   2.528   7.725  0.1865  0.0586  0.1191
    1OPC    GL164728  18.402   2.702   7.442  0.0071  0.1983 -0.1753
    1OPC    GL264729  18.253   2.650   7.159 -0.1607  0.2898 -0.0823
    1OPC    C1B64730  17.972   2.577   6.812 -0.1148  0.2728 -0.1108
    1OPC    D2B64731  17.972   2.559   6.423 -0.1075 -0.3737  0.2307
    1OPC    C3B64732  17.673   2.530   6.178  0.0800  0.0696 -0.3602
    1OPC    C4B64733  17.237   2.462   5.974 -0.2122  0.0381  0.2371
    1OPC    NC364734   1.458  17.654   7.257 -0.0472  0.3519  0.1240
    1OPC    PO464735   1.331  17.381   6.887  0.1736 -0.1745  0.1141
    1OPC    GL164736   1.167  17.522   6.525  0.2559  0.3068  0.2183
    1OPC    GL264737   1.159  17.388   6.181  0.0052  0.1291 -0.0201
    1OPC    C1B64738   1.185  17.510   5.681 -0.0751  0.0325 -0.1577
    1OPC    D2B64739   1.126  17.617   5.261 -0.1512  0.1155 -0.1263
    1OPC    C3B64740   1.097  17.225   5.100 -0.1687  0.1391  0.3030
    1OPC    C4B64741   1.053  16.991   4.687 -0.1461 -0.1853 -0.0261
    1OPC    NC364742   0.973  26.757   7.033  0.2274 -0.1400  0.0497
    1OPC    PO464743   1.015  27.156   6.971  0.1001 -0.1646 -0.1498
    1OPC    GL164744   0.896  27.071   6.616  0.0226 -0.1337 -0.1192
    1OPC    GL264745   1.089  27.108   6.347  0.2960 -0.3099 -0.0678
    1OPC    C1B64746   1.433  27.067   5.877  0.0877 -0.1953 -0.2959
    1OPC    D2B64747   1.601  27.115   5.461  0.0488  0.2938  0.0264
    1OPC    C3B64748   1.337  27.294   5.137  0.0934 -0.0666  0.0619
    1OPC    C4B64749   1.407  27.505   4.867 -0.1222  0.1499 -0.1791
    1OPC    NC364750   0.041   7.276   6.187 -0.1633  0.0092  0.2067
    1OPC    PO464751  27.887   7.241   6.649 -0.2508 -0.0772 -0.2508
    1OPC    GL164752  27.634   7.234   6.210 -0.0003  0.2131 -0.0049
    1OPC    GL264753  27.714   7.315   5.892  0.1218 -0.1478  0.2345
    1OPC    C1B64754  27.633   7.283   5.463  0.1281  0.2650 -0.0800
    1OPC    D2B64755  27.683   7.258   5.099  0.1691  0.3871 -0.0023
    1OPC    C3B64756  27.559   7.417   4.672  0.2213 -0.0513 -0.1315
    1OPC    C4B64757  27.753   7.664   4.378  0.2487  0.0607 -0.0593
    1OPC    NC364758  21.317  26.963   7.525 -0.3294  0.1907  0.0307
    1OPC    PO464759  21.474  26.617   7.312  0.1366  0.1863  0.0033
    1OPC    GL164760  21.263  26.315   7.074 -0.2704 -0.0676  0.0473
    1OPC    GL264761  21.067  26.102   6.758 -0.0034 -0.3617  0.1325
    1OPC    C1B64762  20.763  26.035   6.408 -0.0637 -0.3430 -0.1876
    1OPC    D2B64763  20.474  25.821   6.251  0.1593 -0.1210  0.0718
    1OPC    C3B64764  20.198  25.769   5.816  0.0395  0.0366 -0.2073
    1OPC    C4B64765  20.041  26.005   5.547  0.1964  0.1451 -0.2841
    1OPC    NC364766   6.766  25.710   6.935  0.0242  0.0815 -0.0137
    1OPC    PO464767   6.429  26.075   7.032 -0.1070  0.1052  0.0571
    1OPC    GL164768   6.211  26.141   6.578  0.1360  0.2694  0.0833
    1OPC    GL264769   6.334  26.203   6.325  0.0142 -0.1707 -0.1029
    1OPC    C1B64770   6.332  26.105   5.893 -0.1925 -0.0040  0.0228
    1OPC    D2B64771   6.135  25.793   5.657 -0.3361  0.0647  0.3674
    1OPC    C3B64772   6.106  25.776   5.216 -0.2921  0.2606  0.1179
    1OPC    C4B64773   5.987  25.699   4.906  0.0542 -0.1795 -0.2144
    1OPC    NC364774   4.845   7.049   6.663  0.1391 -0.3321  0.1992
    1OPC    PO464775   4.675   6.730   6.493  0.0073 -0.0850 -0.1882
    1OPC    GL164776   4.542   7.051   6.219 -0.3671  0.1500  0.0614
    1OPC    GL264777   4.371   7.031   5.927 -0.0804  0.0725 -0.0430
    1OPC    C1B64778   4.296   6.994   5.465 -0.0233  0.1326 -0.1083
    1OPC    D2B64779   4.412   7.156   5.011 -0.1151  0.4246 -0.3190
    1OPC    C3B64780   4.205   7.040   4.575  0.1990  0.0827  0.1463
    1OPC    C4B64781   4.125   6.852   4.188  0.4060  0.1517 -0.1221
    1OPC    NC364782  19.462  20.767   7.817 -0.0038 -0.2842  0.4171
    1OPC    PO464783  19.224  21.043   7.620 -0.1679 -0.2288 -0.0611
    1OPC    GL164784  19.074  21.095   7.290 -0.1909  0.0816 -0.0262
    1OPC    GL264785  18.808  20.934   7.004  0.3425  0.1211 -0.1929
    1OPC    C1B64786  18.521  21.055   6.596 -0.0909 -0.0459  0.2383
    1OPC    D2B64787  18.225  21.341   6.417  0.1731  0.4052  0.4149
    1OPC    C3B64788  18.271  21.637   5.975 -0.1634  0.1523  0.2069
    1OPC    C4B64789  18.386  21.852   5.645  0.1552  0.1326  0.0666
    1OPC    NC364790  23.618   5.883   6.993 -0.1116 -0.0950 -0.0915
    1OPC    PO464791  23.845   5.582   7.258 -0.0158  0.0675  0.1367
    1OPC    GL164792  23.769   5.449   6.782 -0.2254 -0.2397 -0.1438
    1OPC    GL264793  23.686   5.591   6.440 -0.0647  0.0189 -0.0355
    1OPC    C1B64794  23.679   5.974   6.133 -0.3246  0.0620  0.2488
    1OPC    D2B64795  23.783   5.937   5.677  0.2916 -0.0026  0.1918
    1OPC    C3B64796  23.736   5.542   5.548 -0.0432 -0.0306  0.1418
    1OPC    C4B64797  23.899   5.126   5.695  0.1354 -0.2040  0.1562
    1OPC    NC364798  16.345   1.949   8.002 -0.0139  0.0501  0.2228
    1OPC    PO464799  16.619   2.341   8.091  0.1930  0.1241  0.1163
    1OPC    GL164800  16.700   2.382   7.689  0.1531 -0.2596  0.1143
    1OPC    GL264801  16.502   2.387   7.373 -0.1593 -0.3462 -0.1535
    1OPC    C1B64802  16.601   2.367   6.895  0.1979  0.0376 -0.2532
    1OPC    D2B64803  16.637   2.537   6.532 -0.2493 -0.2633 -0.1840
    1OPC    C3B64804  16.825   3.016   6.584 -0.0346  0.0225 -0.1000
    1OPC    C4B64805  16.516   3.391   6.598 -0.1943 -0.2022 -0.1307
    1OPC    NC364806  13.360   6.981   8.303  0.0373  0.2456 -0.4975
    1OPC    PO464807  13.544   6.534   8.027  0.2745  0.0768  0.1194
    1OPC    GL164808  13.431   6.423   7.641  0.0722 -0.0097  0.2572
    1OPC    GL264809  13.226   6.394   7.292  0.1591  0.4129 -0.2374
    1OPC    C1B64810  13.056   6.267   6.901  0.2164 -0.0516 -0.0422
    1OPC    D2B64811  13.342   6.150   6.457 -0.1087  0.0299  0.1603
    1OPC    C3B64812  13.212   5.918   6.092  0.0910 -0.3230 -0.0159
    1OPC    C4B64813  13.240   5.601   5.746 -0.1557 -0.1776  0.1866
    1OPC    NC364814  18.423  19.937   7.871  0.1344  0.1235 -0.0057
    1OPC    PO464815  18.361  20.071   7.436 -0.0506  0.0316 -0.0629
    1OPC    GL164816  18.021  20.028   7.086 -0.2056 -0.3232  0.0252
    1OPC    GL264817  17.919  19.852   6.786 -0.3391  0.0182 -0.2499
    1OPC    C1B64818  18.189  19.670   6.392 -0.0116  0.1036 -0.1261
    1OPC    D2B64819  18.502  19.505   6.141  0.0266 -0.2401  0.1085
    1OPC    C3B64820  18.563  19.375   5.774  0.3404  0.2704 -0.0658
    1OPC    C4B64821  18.504  19.234   5.286 -0.3415  0.1315  0.0027
    1OPC    NC364822   0.452   2.385   7.140  0.0540 -0.1324  0.0279
    1OPC    PO464823   0.668   2.517   6.796  0.2020 -0.3707  0.0183
    1OPC    GL164824   0.500   2.466   6.341 -0.3666 -0.0241  0.1378
    1OPC    GL264825   0.543   2.469   5.982  0.2366 -0.1034 -0.0559
    1OPC    C1B64826   0.615   2.251   5.596 -0.1520 -0.1326  0.2894
    1OPC    D2B64827   0.590   2.151   5.187  0.4158  0.0974 -0.0131
    1OPC    C3B64828   0.287   2.192   4.934  0.0702  0.1236  0.0392
    1OPC    C4B64829   0.010   2.486   4.846 -0.0303 -0.0339 -0.0568
    1OPC    NC364830  23.016  24.948   7.640  0.3101 -0.2318 -0.0815
    1OPC    PO464831  23.352  24.944   7.326 -0.1101  0.2327 -0.3721
    1OPC    GL164832  23.339  25.100   6.839 -0.3644 -0.0786 -0.0155
    1OPC    GL264833  23.125  25.070   6.589 -0.2062  0.0565  0.0496
    1OPC    C1B64834  23.012  25.157   6.072  0.0033 -0.0706 -0.0671
    1OPC    D2B64835  23.093  25.026   5.676 -0.0657  0.3742  0.1879
    1OPC    C3B64836  23.080  25.349   5.450 -0.1939 -0.0146  0.3649
    1OPC    C4B64837  23.054  25.700   5.443 -0.1086 -0.0672 -0.3389
    1OPC    NC364838  10.309   4.477   7.880  0.0357  0.0674  0.1263
    1OPC    PO464839  10.067   4.112   8.158  0.1498  0.2456  0.1619
    1OPC    GL164840  10.236   3.965   7.810 -0.1304  0.1366 -0.2302
    1OPC    GL264841  10.446   4.109   7.468 -0.2384 -0.1805  0.0165
    1OPC    C1B64842  10.605   4.212   7.020 -0.1912  0.3061  0.2802
    1OPC    D2B64843  10.579   4.200   6.623 -0.0494  0.0536  0.2409
    1OPC    C3B64844  10.634   4.482   6.312 -0.0700 -0.1074  0.2040
    1OPC    C4B64845  10.720   4.695   5.869  0.4375 -0.1938 -0.1095
    1OPC    NC364846  23.874  24.249   6.894 -0.2451  0.0142 -0.1339
    1OPC    PO464847  23.990  24.611   7.030  0.0293 -0.0839 -0.1769
    1OPC    GL164848  23.986  24.956   6.720  0.0591 -0.1327 -0.2440
    1OPC    GL264849  23.764  25.067   6.513 -0.0752 -0.1358 -0.1287
    1OPC    C1B64850  23.586  25.164   6.213 -0.2217  0.1036 -0.0146
    1OPC    D2B64851  23.432  25.380   5.873  0.2146 -0.2499  0.0030
    1OPC    C3B64852  23.654  25.696   5.611 -0.0583  0.3811 -0.1066
    1OPC    C4B64853  23.911  25.853   5.197 -0.0560  0.0832  0.0301
    1OPC    NC364854  27.295  27.510   6.964  0.2383 -0.2518 -0.0325
    1OPC    PO464855  26.918  27.271   6.955 -0.0246 -0.3428 -0.1928
    1OPC    GL164856  27.186  27.079   6.661 -0.1071 -0.1908 -0.1412
    1OPC    GL264857  27.385  26.987   6.355 -0.0760  0.0999 -0.0349
    1OPC    C1B64858  27.549  27.111   5.957 -0.2859 -0.1908 -0.3465
    1OPC    D2B64859  27.475  27.184   5.579  0.2562  0.0593 -0.1299
    1OPC    C3B64860  27.200  26.955   5.403  0.2442 -0.0570  0.0762
    1OPC    C4B64861  26.907  26.680   5.109  0.1662 -0.2956 -0.1146
    1OPC    NC364862   2.899  23.922   6.774 -0.0790  0.1458 -0.5227
    1OPC    PO464863   3.128  23.589   6.867 -0.3448 -0.0553  0.0139
    1OPC    GL164864   3.103  23.295   6.400  0.1927 -0.0976 -0.1332
    1OPC    GL264865   3.241  23.243   6.089  0.2052 -0.0494 -0.0691
    1OPC    C1B64866   3.369  23.467   5.730  0.1804 -0.0131 -0.1357
    1OPC    D2B64867   3.757  23.582   5.580  0.3358  0.1397 -0.1479
    1OPC    C3B64868   3.836  23.388   5.241  0.0236 -0.2863 -0.1020
    1OPC    C4B64869   3.604  23.384   4.807  0.0241 -0.2609 -0.4459
    1OPC    NC364870  18.421  17.282   7.662 -0.0302 -0.0912  0.3055
    1OPC    PO464871  18.261  17.084   7.358 -0.2313 -0.0317  0.1264
    1OPC    GL164872  17.798  17.262   7.104  0.0758  0.0504  0.1527
    1OPC    GL264873  17.666  17.096   6.878  0.1767  0.0845 -0.0074
    1OPC    C1B64874  17.764  17.240   6.584  0.2809 -0.3370 -0.2728
    1OPC    D2B64875  17.748  17.277   6.233 -0.1615  0.2627 -0.1500
    1OPC    C3B64876  18.125  17.507   6.206  0.3326  0.1641  0.0106
    1OPC    C4B64877  18.653  17.643   6.204  0.0506  0.3410 -0.2423
    1OPC    NC364878   6.637   3.671   6.784 -0.0955 -0.0740  0.2278
    1OPC    PO464879   6.919   3.424   6.702 -0.2461  0.5218  0.0139
    1OPC    GL164880   6.592   3.143   6.780 -0.1584 -0.2499  0.0231
    1OPC    GL264881   6.613   2.920   6.590 -0.2973  0.2417  0.0105
    1OPC    C1B64882   6.717   2.852   6.117  0.0802 -0.2019 -0.1164
    1OPC    D2B64883   6.622   2.436   5.851  0.0951  0.4000 -0.1457
    1OPC    C3B64884   6.670   2.466   5.394 -0.2321  0.0445 -0.1827
    1OPC    C4B64885   6.627   2.793   5.180  0.0560  0.3034 -0.1599
    1OPC    NC364886  15.448   1.541   8.047  0.4563 -0.0529  0.2607
    1OPC    PO464887  15.673   1.767   7.784 -0.1105  0.0697 -0.1992
    1OPC    GL164888  15.811   1.817   7.339  0.4615 -0.0128  0.1977
    1OPC    GL264889  15.795   1.865   6.947 -0.3187  0.3809 -0.0493
    1OPC    C1B64890  15.936   1.812   6.542  0.1600 -0.0200 -0.2698
    1OPC    D2B64891  16.030   1.761   6.103  0.1415  0.0048 -0.1441
    1OPC    C3B64892  16.357   1.890   5.820  0.1926 -0.1790 -0.1223
    1OPC    C4B64893  16.405   2.154   5.490  0.3522  0.3439 -0.1230
    1OPC    NC364894   7.888  24.763   7.467  0.1771 -0.0784 -0.2238
    1OPC    PO464895   8.205  24.561   7.055 -0.3973  0.0852 -0.0943
    1OPC    GL164896   8.390  24.771   6.729 -0.1212  0.2908 -0.1202
    1OPC    GL264897   8.369  25.015   6.546 -0.0404 -0.1841  0.0975
    1OPC    C1B64898   8.447  25.092   6.207 -0.1667 -0.1416 -0.3768
    1OPC    D2B64899   8.587  25.319   5.855  0.1499 -0.2552  0.0862
    1OPC    C3B64900   8.609  25.143   5.475 -0.1119 -0.0015  0.5100
    1OPC    C4B64901   8.759  24.826   5.237 -0.1323 -0.1105 -0.0063
    1OPC    NC364902  22.583  23.044   7.346 -0.1093 -0.3087  0.2174
    1OPC    PO464903  22.429  22.643   7.174 -0.0611  0.0710 -0.4921
    1OPC    GL164904  22.479  22.619   6.821 -0.1781  0.0462  0.0731
    1OPC    GL264905  22.665  22.733   6.527 -0.3787 -0.0880  0.0298
    1OPC    C1B64906  22.659  22.846   6.144 -0.0567 -0.0424  0.0835
    1OPC    D2B64907  22.551  22.739   5.679 -0.0209  0.0275  0.1316
    1OPC    C3B64908  22.281  22.541   5.651 -0.2275  0.1347 -0.3122
    1OPC    C4B64909  21.966  22.148   5.617 -0.1800 -0.1939 -0.0825
    1OPC    NC364910  23.901  12.036   6.734  0.1853 -0.0931 -0.1330
    1OPC    PO464911  24.147  11.770   6.976 -0.1660 -0.1010 -0.0031
    1OPC    GL164912  24.169  11.672   6.526  0.0008  0.1903  0.1489
    1OPC    GL264913  24.289  11.898   6.248 -0.0061  0.0684 -0.2822
    1OPC    C1B64914  24.248  12.158   5.856 -0.2683 -0.2332  0.0531
    1OPC    D2B64915  24.450  12.399   5.556  0.0462  0.0454  0.0979
    1OPC    C3B64916  24.316  12.605   5.211 -0.0354 -0.2677 -0.0148
    1OPC    C4B64917  23.996  12.642   5.060  0.2185  0.0127 -0.2158
    1OPC    NC364918  10.344  27.159   7.053 -0.0842  0.2328 -0.0497
    1OPC    PO464919  10.829  27.080   7.160  0.0375  0.1541 -0.0362
    1OPC    GL164920  10.753  27.197   6.705  0.2120 -0.0697 -0.0216
    1OPC    GL264921  10.766  27.124   6.436  0.4970 -0.2203 -0.0544
    1OPC    C1B64922  11.022  27.052   6.089 -0.4359 -0.0088  0.1195
    1OPC    D2B64923  11.425  27.019   5.893 -0.0242 -0.3611  0.0898
    1OPC    C3B64924  11.339  26.868   5.498 -0.1715  0.0248 -0.0195
    1OPC    C4B64925  11.423  27.052   5.121 -0.0831  0.0528  0.2576
    1OPC    NC364926   4.501   1.988   7.001 -0.1670  0.1992 -0.0834
    1OPC    PO464927   4.197   2.169   6.625  0.1843 -0.0298 -0.0171
    1OPC    GL164928   3.987   2.201   6.126  0.3039 -0.0416  0.1278
    1OPC    GL264929   3.689   2.337   5.993  0.0383  0.1430  0.0711
    1OPC    C1B64930   3.426   2.141   5.763  0.0527  0.1571  0.1534
    1OPC    D2B64931   3.655   1.781   5.430  0.0863  0.0965  0.1362
    1OPC    C3B64932   3.822   1.947   5.115  0.1709  0.1993 -0.0315
    1OPC    C4B64933   3.821   2.027   4.690  0.2166  0.0636  0.2439
    1OPC    NC364934  19.555   5.599   7.079  0.0618  0.0951 -0.0393
    1OPC    PO464935  19.831   5.297   7.399  0.1165  0.2315  0.0638
    1OPC    GL164936  20.037   5.574   7.063 -0.4836  0.4661  0.1127
    1OPC    GL264937  20.118   5.630   6.832 -0.0827 -0.2495 -0.3046
    1OPC    C1B64938  20.223   5.831   6.549  0.0919 -0.3321 -0.0540
    1OPC    D2B64939  20.391   6.147   6.257 -0.1450  0.0884  0.1278
    1OPC    C3B64940  20.163   6.257   6.053  0.2117 -0.2969  0.1964
    1OPC    C4B64941  20.022   6.640   6.074  0.1260 -0.1146 -0.2124
    1OPC    NC364942  22.848  27.311   7.526 -0.1344 -0.3863 -0.3293
    1OPC    PO464943  22.829  26.881   7.512 -0.0118  0.2634  0.1061
    1OPC    GL164944  22.794  27.060   7.075  0.0308 -0.1696 -0.2968
    1OPC    GL264945  22.627  27.152   6.759  0.2275  0.0842  0.0621
    1OPC    C1B64946  22.669  27.514   6.518 -0.1355 -0.2231 -0.0284
    1OPC    D2B64947  22.701  27.852   6.140  0.0249  0.2778  0.1657
    1OPC    C3B64948  22.639  27.870   5.701  0.0297 -0.0092  0.0399
    1OPC    C4B64949  22.908  28.082   5.336 -0.1806 -0.3643 -0.0866
    1OPC    NC364950  11.384   1.563   8.259 -0.1127  0.2436 -0.0277
    1OPC    PO464951  11.297   1.465   7.857 -0.1802 -0.2139 -0.2117
    1OPC    GL164952  11.382   1.554   7.426 -0.2756  0.1199 -0.0975
    1OPC    GL264953  11.558   1.621   7.129  0.0229 -0.0590 -0.2788
    1OPC    C1B64954  11.547   1.860   6.796 -0.0473  0.0785 -0.1754
    1OPC    D2B64955  11.615   1.870   6.361 -0.2249 -0.0014 -0.0381
    1OPC    C3B64956  11.632   2.124   5.973 -0.0612  0.2401  0.0548
    1OPC    C4B64957  11.650   2.414   5.799 -0.0476  0.1262 -0.0450
    1OPC    NC364958   8.425  24.174   7.934  0.4637  0.0374 -0.2256
    1OPC    PO464959   8.391  24.325   7.456  0.0981 -0.1852  0.0103
    1OPC    GL164960   8.498  24.144   7.028  0.1452 -0.2092 -0.2281
    1OPC    GL264961   8.562  24.251   6.680  0.2408 -0.0197  0.2128
    1OPC    C1B64962   8.619  24.284   6.245  0.1750 -0.1776 -0.2578
    1OPC    D2B64963   8.686  24.156   5.879 -0.0438 -0.0219 -0.0102
    1OPC    C3B64964   8.512  24.406   5.558  0.0275  0.0997 -0.1087
    1OPC    C4B64965   8.264  24.748   5.288  0.3847  0.2022 -0.1650
    1OPC    NC364966  17.233  22.712   7.479  0.3996  0.3856 -0.3006
    1OPC    PO464967  17.442  22.874   7.078  0.0237  0.0685  0.0820
    1OPC    GL164968  17.491  22.748   6.742  0.0851  0.4192 -0.3406
    1OPC    GL264969  17.286  22.623   6.505  0.0721 -0.0826  0.1849
    1OPC    C1B64970  17.214  22.793   6.126 -0.2957 -0.1610 -0.1974
    1OPC    D2B64971  17.323  23.167   5.799  0.0249  0.2923 -0.4816
    1OPC    C3B64972  17.195  23.511   5.983  0.0189 -0.0831 -0.3390
    1OPC    C4B64973  16.853  23.672   6.136 -0.2901 -0.1949 -0.2216
    1OPC    NC364974  14.603  14.310   8.764 -0.2268 -0.0351  0.2212
    1OPC    PO464975  14.337  14.281   8.412  0.2539  0.3921  0.2458
    1OPC    GL164976  14.490  14.333   8.007 -0.4461 -0.1686  0.3085
    1OPC    GL264977  14.660  14.327   7.708 -0.2298 -0.2844  0.1516
    1OPC    C1B64978  14.655  14.412   7.228  0.2415 -0.1105 -0.2756
    1OPC    D2B64979  14.825  14.282   6.840  0.0146  0.1278 -0.0105
    1OPC    C3B64980  14.371  14.275   6.607 -0.0892 -0.2112  0.2080
    1OPC    C4B64981  14.216  13.807   6.616  0.1838 -0.3094  0.0400
    1OPC    NC364982  12.348  21.637   6.904  0.3241  0.0208 -0.3146
    1OPC    PO464983  12.614  21.413   7.095 -0.2558  0.2586 -0.3046
    1OPC    GL164984  12.484  21.185   6.652  0.0415  0.0159  0.1136
    1OPC    GL264985  12.178  21.281   6.503  0.1223 -0.2374  0.2046
    1OPC    C1B64986  12.017  21.312   6.107  0.3849  0.0860 -0.0152
    1OPC    D2B64987  11.921  21.327   5.646 -0.0386  0.2791 -0.2637
    1OPC    C3B64988  12.259  21.349   5.383 -0.1124 -0.0002  0.1348
    1OPC    C4B64989  12.409  20.985   5.299  0.1326  0.2239  0.0360
    1OPC    NC364990  19.713  25.869   7.758 -0.2770  0.0172  0.0587
    1OPC    PO464991  19.581  25.873   7.228  0.0307  0.2456 -0.0699
    1OPC    GL164992  19.870  26.000   7.016  0.0984 -0.1364  0.0536
    1OPC    GL264993  19.940  26.046   6.732  0.0218 -0.1173 -0.3032
    1OPC    C1B64994  19.969  25.892   6.350  0.0924 -0.3324  0.2600
    1OPC    D2B64995  19.765  25.939   5.966 -0.1351 -0.1249  0.1760
    1OPC    C3B64996  19.393  25.703   6.018 -0.0210 -0.0112 -0.2455
    1OPC    C4B64997  19.044  25.568   5.771  0.0212 -0.0428 -0.2041
    1OPC    NC364998  18.670  20.825   7.516  0.0970  0.0785 -0.4042
    1OPC    PO464999  18.274  20.854   7.556  0.1506 -0.0588 -0.0588
    1OPC    GL165000  18.381  20.504   7.224  0.0084  0.0429 -0.1308
    1OPC    GL265001  18.713  20.397   7.169 -0.1453  0.1268  0.0406
    1OPC    C1B65002  18.974  20.170   6.808  0.2122 -0.1523  0.0662
    1OPC    D2B65003  19.226  19.891   6.605  0.0917 -0.3356 -0.1876
    1OPC    C3B65004  19.515  20.082   6.227 -0.1627  0.1649  0.0025
    1OPC    C4B65005  19.631  20.051   5.788 -0.0648 -0.0836 -0.1356
    1OPC    NC365006  18.190   2.918   8.087 -0.1662 -0.0549 -0.0903
    1OPC    PO465007  18.224   3.101   7.718 -0.3579 -0.1383  0.0714
    1OPC    GL165008  18.350   3.155   7.175 -0.0049  0.1499  0.2398
    1OPC    GL265009  18.441   3.208   6.904  0.0231 -0.0240  0.1243
    1OPC    C1B65010  18.494   2.879   6.734 -0.0061 -0.2832 -0.0844
    1OPC    D2B65011  18.367   2.843   6.426 -0.0540  0.1166  0.2744
    1OPC    C3B65012  18.040   3.081   6.183 -0.0857  0.0469  0.0500
    1OPC    C4B65013  17.838   3.364   5.910  0.2045 -0.0136  0.0301
    1OPC    NC365014   4.307  27.348   6.939 -0.1094 -0.0639 -0.2152
    1OPC    PO465015   4.189  26.842   6.955  0.0408 -0.0788 -0.0870
    1OPC    GL165016   4.468  26.742   6.557 -0.2182 -0.1071  0.0992
    1OPC    GL265017   4.716  26.968   6.451 -0.1501  0.1438  0.1305
    1OPC    C1B65018   4.840  27.182   6.104  0.2949  0.2626 -0.0393
    1OPC    D2B65019   4.615  27.033   5.704  0.0241 -0.4090  0.0081
    1OPC    C3B65020   4.829  27.246   5.461 -0.0317  0.2935  0.0354
    1OPC    C4B65021   5.095  27.271   5.236  0.1945  0.1946  0.0138
    1OPC    NC365022  23.667   9.098   6.885  0.1674 -0.2971  0.2608
    1OPC    PO465023  23.200   9.121   7.083  0.2060 -0.1801 -0.1533
    1OPC    GL165024  23.277   9.169   6.581 -0.2050  0.1402  0.2848
    1OPC    GL265025  23.151   9.250   6.241 -0.4625 -0.1784 -0.0198
    1OPC    C1B65026  22.864   9.345   5.917 -0.1356 -0.2794 -0.3892
    1OPC    D2B65027  22.807   9.405   5.484  0.0480 -0.1231 -0.1355
    1OPC    C3B65028  22.399   9.258   5.369 -0.0282  0.3993  0.0182
    1OPC    C4B65029  22.094   9.475   5.326 -0.0203  0.0634 -0.1314
    1OPC    NC365030  27.320  25.374   7.321  0.0914  0.2234 -0.1245
    1OPC    PO465031  27.303  25.263   6.842 -0.0476  0.0334  0.1200
    1OPC    GL165032  27.054  25.634   6.658 -0.3002 -0.2657  0.2570
    1OPC    GL265033  26.918  25.668   6.422  0.0153 -0.2890 -0.0112
    1OPC    C1B65034  26.604  25.401   6.203  0.2478  0.0098 -0.1157
    1OPC    D2B65035  26.383  25.317   5.924 -0.2549  0.2818 -0.1721
    1OPC    C3B65036  26.726  25.450   5.587 -0.0759 -0.0253  0.0102
    1OPC    C4B65037  27.059  25.272   5.568  0.1000  0.2227 -0.1685
    1OPC    NC365038  24.489  20.758   6.385  0.1683 -0.2471  0.0606
    1OPC    PO465039  24.557  20.431   6.832 -0.3972 -0.4395 -0.1302
    1OPC    GL165040  24.830  20.359   6.371 -0.2268  0.1312 -0.1099
    1OPC    GL265041  24.761  20.322   6.063 -0.1293 -0.0460  0.2102
    1OPC    C1B65042  24.974  20.259   5.725  0.2936 -0.0259  0.1222
    1OPC    D2B65043  24.928  20.167   5.205  0.0850  0.2658  0.0349
    1OPC    C3B65044  24.774  20.448   4.908 -0.0849 -0.1126  0.1894
    1OPC    C4B65045  24.473  20.640   4.598  0.1028 -0.3665  0.2242
    1OPC    NC365046  14.743  15.159   8.481 -0.0387  0.2817 -0.1926
    1OPC    PO465047  14.937  15.053   8.070 -0.2214  0.2845 -0.0616
    1OPC    GL165048  15.038  14.802   7.841 -0.1885  0.0096  0.1638
    1OPC    GL265049  15.069  14.869   7.559  0.0801  0.4393  0.0825
    1OPC    C1B65050  14.929  14.800   7.057 -0.1340 -0.0445 -0.0314
    1OPC    D2B65051  15.182  14.669   6.628  0.1938  0.1338 -0.2139
    1OPC    C3B65052  15.574  14.607   6.467  0.2852  0.5000 -0.2369
    1OPC    C4B65053  15.819  14.454   6.121  0.1974  0.1424 -0.0498
    1OPC    NC365054  24.504   1.657   7.484 -0.0935  0.0612 -0.0369
    1OPC    PO465055  24.095   1.604   7.448 -0.0628  0.0605  0.0421
    1OPC    GL165056  24.259   1.421   7.043 -0.0205  0.1767  0.0617
    1OPC    GL265057  24.381   1.136   6.840  0.1804 -0.4868  0.0206
    1OPC    C1B65058  24.246   1.121   6.378 -0.3129 -0.1065  0.0219
    1OPC    D2B65059  24.238   1.138   5.954  0.0236 -0.0253  0.3920
    1OPC    C3B65060  24.483   1.345   5.721 -0.1806 -0.0610  0.2983
    1OPC    C4B65061  24.719   1.281   5.349 -0.1241 -0.0918  0.0136
    1OPC    NC365062  10.465  25.258   7.707  0.0578  0.1375 -0.2441
    1OPC    PO465063  10.440  25.472   7.253 -0.0782  0.0649 -0.0421
    1OPC    GL165064  10.716  25.641   6.849 -0.1294 -0.0193  0.1066
    1OPC    GL265065  10.718  25.714   6.471 -0.0744 -0.1807  0.1162
    1OPC    C1B65066  10.801  25.829   6.071 -0.3224  0.0290  0.0940
    1OPC    D2B65067  10.907  25.959   5.680 -0.0186  0.1424 -0.0869
    1OPC    C3B65068  10.874  25.880   5.290  0.1117  0.2794  0.1320
    1OPC    C4B65069  10.652  26.139   4.942 -0.1761 -0.2311  0.0392
    1OPC    NC365070   6.310   1.119   6.802 -0.0061  0.1057  0.1278
    1OPC    PO465071   6.290   0.623   6.669 -0.0144 -0.0322 -0.1363
    1OPC    GL165072   6.204   0.334   6.361 -0.0268  0.1837 -0.0940
    1OPC    GL265073   6.080   0.136   6.049 -0.0678  0.0162 -0.1181
    1OPC    C1B65074   6.141  27.956   5.648 -0.3408 -0.1917 -0.3431
    1OPC    D2B65075   6.017  27.828   5.203  0.0661  0.0898  0.0793
    1OPC    C3B65076   6.126  27.404   5.049 -0.0310 -0.0084 -0.1608
    1OPC    C4B65077   6.107  27.002   4.783  0.2041  0.0554 -0.0415
    1OPC    NC365078  27.339   1.102   7.239 -0.2466  0.0132 -0.1287
    1OPC    PO465079  27.624   1.267   6.878 -0.0056  0.1401  0.2723
    1OPC    GL165080  27.384   1.387   6.435 -0.0947  0.1404  0.0482
    1OPC    GL265081  27.378   1.468   6.213  0.1227 -0.3190 -0.2658
    1OPC    C1B65082  27.273   1.378   5.892  0.0588 -0.1389  0.1412
    1OPC    D2B65083  27.120   1.332   5.553 -0.0377 -0.0110 -0.1929
    1OPC    C3B65084  27.195   0.964   5.447  0.1759 -0.2797 -0.1209
    1OPC    C4B65085  27.026   0.591   5.315  0.3689 -0.0890  0.1026
    1OPC    NC365086  25.745  13.519   6.534 -0.3777  0.0536  0.1181
    1OPC    PO465087  26.068  13.290   6.535 -0.3716  0.1549 -0.1611
    1OPC    GL165088  26.191  13.111   6.157 -0.0234  0.1264 -0.2518
    1OPC    GL265089  26.343  13.074   5.950 -0.1445  0.0161 -0.0550
    1OPC    C1B65090  26.489  13.122   5.542 -0.2801 -0.0353  0.2161
    1OPC    D2B65091  26.610  13.441   5.207 -0.1079 -0.2118 -0.0078
    1OPC    C3B65092  26.565  13.121   4.904 -0.0096  0.2331 -0.3321
    1OPC    C4B65093  26.310  13.150   4.487  0.1121 -0.0216 -0.2093
    1OPC    NC365094   1.632   0.852   6.726 -0.2634 -0.4263 -0.0600
    1OPC    PO465095   1.486   0.823   6.414 -0.0848 -0.4002  0.0406
    1OPC    GL165096   1.568   1.059   6.085  0.2608  0.1796  0.0953
    1OPC    GL265097   1.294   1.197   5.923  0.1355  0.0358  0.1102
    1OPC    C1B65098   1.020   1.329   5.565 -0.0930 -0.1200 -0.1024
    1OPC    D2B65099   0.827   1.125   5.220  0.0471  0.0936 -0.1798
    1OPC    C3B65100   0.787   1.283   4.871  0.2275  0.1308  0.2225
    1OPC    C4B65101   0.508   1.199   4.453  0.1667  0.1794  0.2937
    1OPC    NC365102  17.270  25.872   7.524  0.0217  0.0598 -0.1324
    1OPC    PO465103  17.095  26.203   7.309  0.1289 -0.0436 -0.1731
    1OPC    GL165104  17.112  25.961   6.876  0.3131 -0.1082 -0.0189
    1OPC    GL265105  16.986  25.997   6.623 -0.0090  0.3427  0.2125
    1OPC    C1B65106  17.173  25.775   6.363 -0.2889 -0.2467  0.2101
    1OPC    D2B65107  16.973  25.579   6.075 -0.0878  0.0810  0.1386
    1OPC    C3B65108  16.639  25.737   5.921 -0.1291  0.2772  0.0898
    1OPC    C4B65109  16.346  25.739   5.605 -0.0678  0.0689  0.3693
    1OPC    NC365110   9.015  15.492   7.969 -0.0015 -0.1138  0.4917
    1OPC    PO465111   8.524  15.690   7.801  0.2821  0.0067  0.2132
    1OPC    GL165112   8.785  15.828   7.548  0.0379  0.1247  0.0871
    1OPC    GL265113   8.826  15.781   7.221  0.1284  0.1704 -0.1706
    1OPC    C1B65114   8.823  15.800   6.855 -0.1186  0.0431  0.3766
    1OPC    D2B65115   8.877  15.527   6.493  0.0742  0.0530  0.3735
    1OPC    C3B65116   8.996  15.693   6.120  0.1131 -0.0587  0.0639
    1OPC    C4B65117   9.193  15.604   5.854 -0.2405 -0.2069  0.1147
    1OPC    NC365118  18.787  12.713   7.520 -0.2074 -0.0042  0.2437
    1OPC    PO465119  18.797  13.122   7.327 -0.1698  0.3936  0.0240
    1OPC    GL165120  18.818  13.121   6.977 -0.0429  0.1287 -0.1878
    1OPC    GL265121  18.812  13.277   6.734  0.3505 -0.0102  0.0184
    1OPC    C1B65122  18.574  13.258   6.328 -0.2753 -0.0990 -0.4319
    1OPC    D2B65123  18.841  13.222   5.915  0.2522  0.1157 -0.2259
    1OPC    C3B65124  18.628  13.335   5.495  0.3837  0.0607 -0.1269
    1OPC    C4B65125  18.138  13.333   5.245  0.1755  0.1454 -0.0803
    1OPC    NC365126  13.826  20.408   6.958 -0.1617  0.2277  0.0642
    1OPC    PO465127  13.817  19.924   6.965  0.2376 -0.2219  0.1947
    1OPC    GL165128  14.103  19.856   6.836 -0.0087 -0.0721  0.0484
    1OPC    GL265129  14.170  19.768   6.514 -0.1559  0.1442 -0.0525
    1OPC    C1B65130  14.371  19.779   6.114 -0.0393  0.0106 -0.0314
    1OPC    D2B65131  14.582  19.566   5.766  0.1147  0.0169  0.3153
    1OPC    C3B65132  14.484  19.765   5.357  0.1794 -0.1182 -0.2553
    1OPC    C4B65133  14.543  19.596   4.969 -0.0398  0.1207  0.2374
    1OPC    NC365134   9.972  15.174   8.285 -0.0195  0.1856 -0.3124
    1OPC    PO465135  10.120  14.897   7.861 -0.3176 -0.1479  0.1230
    1OPC    GL165136  10.290  14.894   7.425  0.2769  0.1688  0.1007
    1OPC    GL265137  10.383  15.108   7.180  0.2627  0.1225 -0.0251
    1OPC    C1B65138  10.711  15.047   6.991 -0.0677 -0.0981  0.0522
    1OPC    D2B65139  10.939  15.112   6.595 -0.1632  0.4336 -0.0496
    1OPC    C3B65140  10.864  14.893   6.194  0.0039  0.0943 -0.2707
    1OPC    C4B65141  11.090  14.914   5.813 -0.1674  0.2572  0.0526
    1OPC    NC365142  27.849  15.926   6.620 -0.2444  0.1367 -0.0558
    1OPC    PO465143  27.447  16.183   6.537  0.0168 -0.0312  0.1360
    1OPC    GL165144  27.485  16.652   6.350 -0.0627  0.3163 -0.1981
    1OPC    GL265145  27.315  16.888   6.214  0.1106  0.0991 -0.0346
    1OPC    C1B65146  27.152  17.276   6.015 -0.1294  0.1753 -0.1237
    1OPC    D2B65147  27.413  17.452   5.686 -0.2773 -0.0706 -0.1647
    1OPC    C3B65148  27.760  17.099   5.433  0.3135 -0.0959  0.1125
    1OPC    C4B65149  27.822  16.850   5.032 -0.1322  0.3338 -0.3474
    1OPC    NC365150  24.164   3.350   7.362 -0.0370  0.0072 -0.1086
    1OPC    PO465151  23.809   3.441   7.021 -0.3111  0.3505 -0.0292
    1OPC    GL165152  24.033   3.683   6.756 -0.2949  0.0114 -0.0793
    1OPC    GL265153  23.862   3.938   6.571  0.1109  0.0709 -0.1763
    1OPC    C1B65154  23.516   3.870   6.248 -0.1336 -0.1189  0.0035
    1OPC    D2B65155  23.229   3.976   5.895 -0.2166 -0.1781 -0.0313
    1OPC    C3B65156  23.092   3.660   5.540  0.0273 -0.0865 -0.3423
    1OPC    C4B65157  23.155   3.179   5.530 -0.3569  0.1794 -0.1583
    1OPC    NC365158  26.056  18.744   7.153  0.2175 -0.0325  0.2291
    1OPC    PO465159  25.902  19.185   7.082 -0.0273  0.1818 -0.0248
    1OPC    GL165160  25.980  19.242   6.588  0.0046  0.3641 -0.1469
    1OPC    GL265161  25.734  19.340   6.262 -0.0608  0.0598  0.0981
    1OPC    C1B65162  25.618  19.203   5.898  0.2087 -0.0043  0.2583
    1OPC    D2B65163  25.460  18.951   5.545  0.0867 -0.0530 -0.4065
    1OPC    C3B65164  25.690  18.806   5.138  0.1114 -0.1748 -0.1225
    1OPC    C4B65165  26.022  18.686   4.911 -0.1982  0.1211  0.3203
    1OPC    NC365166  26.132  19.598   7.036 -0.4259  0.0388  0.5491
    1OPC    PO465167  26.409  19.951   6.819  0.0247  0.3122 -0.0445
    1OPC    GL165168  26.147  19.733   6.495  0.3491  0.1410  0.0366
    1OPC    GL265169  26.232  19.583   6.240  0.4754 -0.1157  0.1547
    1OPC    C1B65170  26.100  19.455   5.914 -0.4419 -0.1603 -0.3052
    1OPC    D2B65171  25.943  19.419   5.520 -0.1433 -0.0165 -0.0084
    1OPC    C3B65172  25.759  19.279   5.160 -0.0604  0.0996 -0.2060
    1OPC    C4B65173  25.609  19.166   4.752 -0.3596  0.1750 -0.2349
    1OPC    NC365174  16.177  12.881   8.083 -0.1444  0.1193 -0.1085
    1OPC    PO465175  15.986  12.826   7.635  0.2067  0.2977 -0.0886
    1OPC    GL165176  16.282  12.684   7.320  0.0771  0.1382  0.0363
    1OPC    GL265177  16.442  12.927   7.151 -0.0544  0.2374 -0.1385
    1OPC    C1B65178  16.326  13.306   6.794  0.1833  0.0495 -0.2702
    1OPC    D2B65179  16.346  13.398   6.398 -0.3285  0.2397 -0.0524
    1OPC    C3B65180  16.408  13.893   6.148  0.1840  0.1619 -0.0937
    1OPC    C4B65181  16.313  14.300   6.100  0.0910  0.0077 -0.0072
    1OPC    NC365182  23.502   2.857   7.078  0.3518 -0.0654 -0.1357
    1OPC    PO465183  23.886   2.985   7.151  0.0320 -0.0583  0.1769
    1OPC    GL165184  23.992   2.657   6.890  0.2597 -0.2646 -0.2325
    1OPC    GL265185  23.930   2.579   6.581 -0.1232 -0.0264  0.1410
    1OPC    C1B65186  23.852   2.519   6.145 -0.0518 -0.3119 -0.3785
    1OPC    D2B65187  23.856   2.665   5.675 -0.1857 -0.0376 -0.3513
    1OPC    C3B65188  23.686   3.064   5.467  0.3606 -0.3691  0.2198
    1OPC    C4B65189  23.589   3.450   5.420  0.2551 -0.0777  0.0856
    1OPC    NC365190   9.723  22.059   7.597 -0.2578  0.2266  0.1128
    1OPC    PO465191  10.117  22.316   7.487  0.2638 -0.1410 -0.1739
    1OPC    GL165192   9.910  22.317   7.155 -0.1613 -0.1359  0.3246
    1OPC    GL265193   9.868  22.360   6.893  0.0586  0.0265 -0.1712
    1OPC    C1B65194   9.991  22.320   6.489  0.2167 -0.0683  0.1249
    1OPC    D2B65195  10.055  22.540   6.085  0.2532 -0.0361  0.0012
    1OPC    C3B65196   9.935  22.642   5.653  0.0259  0.1803 -0.0205
    1OPC    C4B65197   9.916  22.672   5.216 -0.1698 -0.1143  0.0053
    1OPC    NC365198   2.347  24.982   6.864 -0.0993  0.0460  0.1617
    1OPC    PO465199   1.934  25.208   6.840  0.1194 -0.1598  0.3761
    1OPC    GL165200   2.049  25.027   6.406 -0.2988 -0.1111 -0.1867
    1OPC    GL265201   2.110  25.064   6.087 -0.0558  0.1569  0.0738
    1OPC    C1B65202   2.063  25.310   5.701  0.0056 -0.0809  0.1276
    1OPC    D2B65203   1.881  25.328   5.310  0.0451 -0.2341  0.1459
    1OPC    C3B65204   1.484  25.155   5.190 -0.1173  0.1801 -0.2025
    1OPC    C4B65205   1.392  24.712   5.128 -0.1002  0.0932 -0.0894
    1OPC    NC365206  12.107  17.420   7.603  0.2249  0.0526  0.0851
    1OPC    PO465207  11.858  17.027   7.656 -0.1558 -0.1168 -0.0489
    1OPC    GL165208  11.906  16.894   7.247  0.0212 -0.0210  0.0448
    1OPC    GL265209  11.819  16.926   7.016 -0.0214  0.1074  0.0190
    1OPC    C1B65210  12.006  16.900   6.606  0.0939  0.0584  0.0315
    1OPC    D2B65211  11.914  17.066   6.197 -0.0104  0.1706  0.1092
    1OPC    C3B65212  11.784  17.545   6.170  0.0866  0.0536 -0.2330
    1OPC    C4B65213  11.494  17.523   5.938  0.4172 -0.0005  0.2668
    1OPC    NC365214   1.557  24.421   6.627  0.0741  0.1226 -0.1016
    1OPC    PO465215   1.541  24.731   6.726  0.0984 -0.0480  0.4430
    1OPC    GL165216   1.553  24.770   6.292 -0.0133  0.1515  0.2698
    1OPC    GL265217   1.543  24.648   6.078  0.1456  0.0939 -0.2417
    1OPC    C1B65218   1.498  24.502   5.593 -0.3968  0.1817  0.2172
    1OPC    D2B65219   1.729  24.382   5.288  0.0715  0.0049  0.1498
    1OPC    C3B65220   1.583  24.282   4.955 -0.0115  0.0436 -0.1278
    1OPC    C4B65221   1.719  24.047   4.562  0.1308  0.0152  0.0932
    1OPC    NC365222  12.809  23.184   7.191  0.1753  0.2533 -0.0810
    1OPC    PO465223  12.978  23.578   7.014  0.0361  0.1280 -0.1826
    1OPC    GL165224  13.228  23.682   6.668  0.0590 -0.1052  0.2912
    1OPC    GL265225  13.164  23.804   6.374  0.3561 -0.1723 -0.0015
    1OPC    C1B65226  13.095  23.797   5.940 -0.5351  0.3356 -0.2842
    1OPC    D2B65227  13.009  23.903   5.482 -0.0382 -0.0104  0.1987
    1OPC    C3B65228  13.069  24.186   5.250  0.1113  0.2029 -0.2582
    1OPC    C4B65229  13.182  24.474   4.955 -0.1038 -0.2425 -0.1158
    1OPC    NC365230  22.127  21.889   7.636  0.0215  0.0715  0.2758
    1OPC    PO465231  22.340  22.101   7.228 -0.2987 -0.2395  0.0048
    1OPC    GL165232  22.499  21.830   6.820  0.1295  0.1981  0.0950
    1OPC    GL265233  22.468  21.811   6.443 -0.0708 -0.2279  0.1158
    1OPC    C1B65234  22.293  21.947   5.996  0.1025  0.2221 -0.3260
    1OPC    D2B65235  22.246  21.746   5.565 -0.1758 -0.1359  0.0006
    1OPC    C3B65236  22.134  21.945   5.212 -0.1856 -0.3531 -0.1875
    1OPC    C4B65237  21.793  22.239   5.150  0.0636 -0.1873  0.0163
    1OPC    NC365238  18.692  12.099   7.895 -0.0400 -0.0240  0.4660
    1OPC    PO465239  19.048  12.235   7.517  0.0754  0.3562  0.0399
    1OPC    GL165240  18.917  12.167   7.131 -0.2987 -0.0200 -0.0123
    1OPC    GL265241  18.664  12.187   6.953 -0.1706 -0.0605  0.0429
    1OPC    C1B65242  18.698  12.081   6.500 -0.0465 -0.0482  0.0264
    1OPC    D2B65243  18.687  11.968   6.059 -0.1359  0.1626  0.2528
    1OPC    C3B65244  19.012  11.903   5.663  0.0126  0.0460  0.1482
    1OPC    C4B65245  19.292  12.045   5.268 -0.4411 -0.1239 -0.2920
    1OPC    NC365246  14.836  18.398   7.627  0.1565 -0.1459 -0.1087
    1OPC    PO465247  14.540  18.057   7.393 -0.0989  0.3487  0.1700
    1OPC    GL165248  14.410  17.677   7.158 -0.0380 -0.2416 -0.0598
    1OPC    GL265249  14.396  17.395   7.072 -0.2339  0.1862 -0.3487
    1OPC    C1B65250  14.272  17.325   6.694  0.1003  0.0131 -0.0632
    1OPC    D2B65251  13.964  17.126   6.392 -0.1385  0.3882 -0.2202
    1OPC    C3B65252  13.830  16.813   6.576  0.2772  0.1500  0.4924
    1OPC    C4B65253  13.878  16.408   6.943 -0.0216 -0.1434  0.1116
    1OPC    NC365254  24.067  18.950   6.650  0.0797 -0.2781  0.0650
    1OPC    PO465255  24.487  18.798   6.863  0.1013 -0.0948  0.2039
    1OPC    GL165256  24.348  18.562   6.562  0.0346 -0.0345 -0.0945
    1OPC    GL265257  24.331  18.697   6.239 -0.0507  0.0992 -0.0833
    1OPC    C1B65258  24.671  18.584   5.931  0.1795  0.1014  0.1564
    1OPC    D2B65259  25.057  18.662   5.734 -0.0357 -0.2638  0.1790
    1OPC    C3B65260  25.204  18.379   5.592  0.2799 -0.0552  0.0231
    1OPC    C4B65261  25.428  18.076   5.333 -0.2227  0.2666  0.1667
    1OPC    NC365262  26.929  19.367   7.185 -0.2290  0.1082 -0.1741
    1OPC    PO465263  26.685  19.548   6.907 -0.1927  0.0154 -0.0522
    1OPC    GL165264  26.490  19.315   6.574  0.1820 -0.1371 -0.1022
    1OPC    GL265265  26.476  19.038   6.303 -0.1700 -0.0249 -0.3114
    1OPC    C1B65266  26.489  19.051   5.840  0.2644  0.2842  0.1211
    1OPC    D2B65267  26.703  18.890   5.422 -0.1347  0.2411  0.1189
    1OPC    C3B65268  26.578  18.858   4.948  0.3268 -0.1313 -0.1624
    1OPC    C4B65269  26.502  18.611   4.663  0.1518 -0.2569 -0.2370
    1OPC    NC365270   1.716  21.843   6.627 -0.2649  0.2164  0.2178
    1OPC    PO465271   2.190  21.764   6.513  0.2307  0.0039  0.1308
    1OPC    GL165272   1.950  21.701   6.174 -0.1292  0.2661 -0.2247
    1OPC    GL265273   1.835  21.637   5.965 -0.0630 -0.0354 -0.1789
    1OPC    C1B65274   2.087  21.585   5.496  0.0832 -0.2326 -0.1143
    1OPC    D2B65275   2.162  21.468   5.054  0.0923 -0.1037 -0.3650
    1OPC    C3B65276   1.809  21.198   5.018  0.0820 -0.0945 -0.0119
    1OPC    C4B65277   1.327  21.176   4.991 -0.2544  0.0604 -0.1074
    1OPC    NC365278   5.872   2.547   7.419  0.2345 -0.2165  0.0295
    1OPC    PO465279   5.821   2.726   6.979  0.0470  0.2050  0.0663
    1OPC    GL165280   5.486   2.759   6.537  0.0563 -0.0228 -0.2054
    1OPC    GL265281   5.377   2.903   6.369  0.2225 -0.1667 -0.0139
    1OPC    C1B65282   5.448   3.145   5.953  0.0390 -0.0586 -0.0876
    1OPC    D2B65283   5.654   3.047   5.569 -0.0161  0.1697 -0.1105
    1OPC    C3B65284   5.971   2.899   5.348 -0.1024 -0.1049  0.2039
    1OPC    C4B65285   6.228   2.905   4.953 -0.0960  0.4256  0.0068
    1OPC    NC365286  16.860  14.829   8.021  0.0230  0.1840  0.0139
    1OPC    PO465287  16.565  14.601   7.772  0.0294  0.2672  0.0761
    1OPC    GL165288  16.430  14.662   7.277 -0.2643  0.0686  0.0701
    1OPC    GL265289  16.677  14.611   7.074  0.0721  0.2559  0.1246
    1OPC    C1B65290  16.826  14.571   6.696  0.0959  0.0336  0.0336
    1OPC    D2B65291  17.236  14.666   6.454 -0.2688 -0.1175 -0.0109
    1OPC    C3B65292  17.363  15.054   6.205  0.1782  0.0315 -0.0222
    1OPC    C4B65293  17.394  15.454   6.019  0.2590  0.1385 -0.1398
    1OPC    NC365294   3.815  21.993   7.129  0.1027  0.0256 -0.2346
    1OPC    PO465295   3.820  22.463   6.954  0.1197 -0.0492 -0.2856
    1OPC    GL165296   4.103  22.420   6.511  0.0281  0.2725 -0.1422
    1OPC    GL265297   4.126  22.304   6.221 -0.2927  0.0359 -0.1430
    1OPC    C1B65298   4.276  22.116   5.809  0.0948  0.0586  0.0862
    1OPC    D2B65299   4.667  21.913   5.699  0.1804 -0.0764 -0.2349
    1OPC    C3B65300   4.953  22.157   5.361 -0.0763  0.2443  0.0328
    1OPC    C4B65301   5.340  22.161   5.151 -0.1513  0.0663 -0.1418
    1OPC    NC365302  11.453  20.382   8.262 -0.1411  0.1455 -0.0718
    1OPC    PO465303  11.265  20.580   7.867  0.0914 -0.1595 -0.2720
    1OPC    GL165304  11.130  20.343   7.664 -0.2772 -0.3910  0.0688
    1OPC    GL265305  11.112  20.144   7.420  0.0896 -0.1466  0.0885
    1OPC    C1B65306  10.914  20.042   6.984  0.0340 -0.0159 -0.1129
    1OPC    D2B65307  10.511  19.935   6.620 -0.2076 -0.1191 -0.1583
    1OPC    C3B65308  10.500  20.314   6.361  0.3240 -0.3225 -0.0804
    1OPC    C4B65309  10.284  20.363   5.970  0.0226  0.0046 -0.3117
    1OPC    NC365310  22.674   4.253   7.382 -0.2994 -0.2732 -0.2587
    1OPC    PO465311  22.932   4.515   7.165 -0.1388 -0.0118 -0.1236
    1OPC    GL165312  22.900   4.440   6.719  0.2456  0.0460  0.0058
    1OPC    GL265313  22.767   4.609   6.463 -0.0910 -0.0589 -0.0127
    1OPC    C1B65314  22.810   4.887   6.076 -0.2971  0.0070 -0.0560
    1OPC    D2B65315  23.009   4.943   5.638  0.3209  0.2347  0.1533
    1OPC    C3B65316  23.467   4.897   5.607 -0.0859 -0.1372  0.0825
    1OPC    C4B65317  23.735   4.876   5.255  0.0164  0.1497 -0.1487
    1OPC    NC365318  23.261  21.243   7.091 -0.3647 -0.0184  0.3899
    1OPC    PO465319  23.314  21.111   7.513  0.0245 -0.0231 -0.3232
    1OPC    GL165320  23.176  20.747   7.308  0.0078  0.1297  0.0542
    1OPC    GL265321  23.119  20.754   6.978 -0.2338 -0.0989  0.1902
    1OPC    C1B65322  23.120  20.578   6.559 -0.0856 -0.0186 -0.2482
    1OPC    D2B65323  22.934  20.719   6.237  0.1052 -0.1150  0.0731
    1OPC    C3B65324  23.086  21.208   6.116 -0.3476 -0.1752  0.0373
    1OPC    C4B65325  23.035  21.508   6.370  0.0097 -0.1357 -0.0122
    1OPC    NC365326  15.662   7.943   7.414  0.3593  0.1064  0.1585
    1OPC    PO465327  15.307   7.924   7.180  0.1457  0.2064 -0.3136
    1OPC    GL165328  15.352   7.877   6.861  0.3097 -0.3621 -0.0532
    1OPC    GL265329  15.574   7.872   6.569 -0.0174 -0.2400  0.0620
    1OPC    C1B65330  15.760   7.584   6.203 -0.0178 -0.0540 -0.0724
    1OPC    D2B65331  15.608   7.379   5.926  0.0153  0.0336  0.0811
    1OPC    C3B65332  15.258   7.604   5.722 -0.2591  0.1654  0.0576
    1OPC    C4B65333  15.128   8.011   5.701  0.3987  0.0750  0.0352
    1OPC    NC365334   4.155  16.744   7.551  0.1244 -0.0203  0.0003
    1OPC    PO465335   3.865  16.501   7.327  0.0143 -0.1018  0.0002
    1OPC    GL165336   4.054  16.121   6.972 -0.0975 -0.0976 -0.0159
    1OPC    GL265337   3.998  16.151   6.628 -0.1415 -0.0185 -0.1210
    1OPC    C1B65338   4.215  16.031   6.317 -0.2636 -0.0182 -0.2476
    1OPC    D2B65339   4.157  15.964   5.843  0.0982 -0.0947  0.0439
    1OPC    C3B65340   3.863  15.725   5.706 -0.0981 -0.0572  0.0553
    1OPC    C4B65341   4.218  15.520   5.408  0.1442  0.1038  0.1203
    1OPC    NC365342  18.492  18.038   8.101 -0.0010  0.0962 -0.2170
    1OPC    PO465343  18.425  17.851   7.663  0.0182 -0.0155  0.2002
    1OPC    GL165344  18.476  18.025   7.298 -0.1729  0.1129 -0.0832
    1OPC    GL265345  18.438  18.070   7.033 -0.0942  0.2014  0.0648
    1OPC    C1B65346  18.399  18.060   6.537  0.4214  0.2528 -0.2132
    1OPC    D2B65347  18.317  18.177   6.069  0.1113 -0.0964  0.2907
    1OPC    C3B65348  18.180  17.878   5.833  0.0396  0.0209  0.3363
    1OPC    C4B65349  18.004  17.515   5.602  0.0691  0.1753  0.1291
    1OPC    NC365350  24.053  12.312   7.548  0.1957 -0.4803  0.0095
    1OPC    PO465351  24.110  12.374   7.107  0.0551  0.5323 -0.1823
    1OPC    GL165352  23.930  12.537   6.741 -0.0855  0.1688 -0.0922
    1OPC    GL265353  23.618  12.628   6.542  0.0781  0.2829  0.2737
    1OPC    C1B65354  23.620  12.693   6.132  0.0004  0.1707  0.1255
    1OPC    D2B65355  23.507  12.749   5.747  0.0286 -0.1579  0.2116
    1OPC    C3B65356  23.525  12.621   5.334 -0.1215 -0.1484 -0.1205
    1OPC    C4B65357  23.504  12.826   4.943  0.0287  0.3314  0.2552
    1OPC    NC365358   3.692  12.251   7.182 -0.2531  0.2716 -0.1225
    1OPC    PO465359   3.453  12.022   6.819  0.2351 -0.1789 -0.1710
    1OPC    GL165360   3.521  12.203   6.457 -0.0833 -0.0983  0.0787
    1OPC    GL265361   3.490  12.518   6.274 -0.2733  0.0602  0.0418
    1OPC    C1B65362   3.364  12.671   5.801 -0.1680 -0.1163 -0.0563
    1OPC    D2B65363   3.054  12.648   5.466 -0.1516 -0.0308  0.0584
    1OPC    C3B65364   3.229  12.847   5.056  0.0881  0.2398  0.0242
    1OPC    C4B65365   3.344  13.178   4.884  0.1526 -0.0456 -0.0056
    1OPC    NC365366   3.206  24.559   7.064 -0.2559 -0.0352 -0.1604
    1OPC    PO465367   2.895  24.417   6.710  0.0984 -0.3456 -0.0116
    1OPC    GL165368   3.182  24.696   6.520  0.3337 -0.2630 -0.1220
    1OPC    GL265369   3.170  24.842   6.307  0.2615  0.1238 -0.2156
    1OPC    C1B65370   3.493  25.048   6.073 -0.3596  0.5056 -0.2751
    1OPC    D2B65371   3.782  25.143   5.806  0.0072  0.2702 -0.1129
    1OPC    C3B65372   3.780  25.312   5.392  0.1552  0.0646  0.3146
    1OPC    C4B65373   4.061  25.407   5.077  0.3087  0.0054 -0.4434
    1OPC    NC365374  26.569   9.714   7.188  0.0240  0.0514 -0.1395
    1OPC    PO465375  26.211  10.045   7.056  0.1593  0.1805  0.1301
    1OPC    GL165376  26.027  10.258   6.740  0.0718 -0.0235 -0.1117
    1OPC    GL265377  25.863  10.309   6.442  0.0399  0.2628  0.0888
    1OPC    C1B65378  25.612  10.375   6.028  0.1050 -0.2206  0.0007
    1OPC    D2B65379  25.589  10.325   5.576  0.0549 -0.0328  0.0424
    1OPC    C3B65380  25.537  10.590   5.356 -0.4373  0.0602  0.2021
    1OPC    C4B65381  25.220  10.844   5.180 -0.0605  0.1518 -0.0377
    1OPC    NC365382  12.654  24.880   7.059  0.1726  0.0071  0.0972
    1OPC    PO465383  12.639  25.020   6.699  0.2623 -0.5822  0.1223
    1OPC    GL165384  12.914  25.030   6.388  0.1350  0.0460 -0.0527
    1OPC    GL265385  12.963  25.338   6.118  0.3540  0.1952  0.0114
    1OPC    C1B65386  12.893  25.418   5.695  0.0656  0.0211 -0.2006
    1OPC    D2B65387  12.962  25.385   5.206  0.2218  0.3084  0.1004
    1OPC    C3B65388  13.218  25.075   5.038  0.2442  0.2330  0.0641
    1OPC    C4B65389  13.388  25.180   4.671  0.1649  0.0502 -0.1202
    1OPC    NC365390   3.255   6.873   6.103  0.1726  0.0471  0.1840
    1OPC    PO465391   2.851   6.887   6.344  0.0730 -0.0819 -0.0801
    1OPC    GL165392   2.763   6.852   5.925  0.2759 -0.2947  0.1199
    1OPC    GL265393   2.907   6.764   5.692 -0.0845  0.1047  0.1861
    1OPC    C1B65394   2.956   6.527   5.355 -0.0333  0.1161 -0.2562
    1OPC    D2B65395   3.128   6.556   4.942  0.1936 -0.3067 -0.0626
    1OPC    C3B65396   3.512   6.642   4.793 -0.4148 -0.0150  0.0040
    1OPC    C4B65397   3.785   6.978   4.792  0.0622  0.0650  0.2484
    1OPC    NC365398  19.901   4.794   7.149 -0.0157 -0.0654 -0.1202
    1OPC    PO465399  19.573   4.539   7.104 -0.1310  0.2432  0.2011
    1OPC    GL165400  19.696   4.494   6.697  0.1712  0.4055 -0.0260
    1OPC    GL265401  19.844   4.295   6.446 -0.3314  0.0893  0.1273
    1OPC    C1B65402  19.607   4.212   6.035 -0.1113  0.2487  0.1836
    1OPC    D2B65403  19.772   3.989   5.690 -0.1277 -0.2556  0.1209
    1OPC    C3B65404  19.804   4.190   5.277  0.0350  0.1056  0.0438
    1OPC    C4B65405  19.678   4.194   4.878 -0.2375 -0.0062 -0.0057
    1OPC    NC365406  11.908  25.280   6.696  0.2453 -0.1124  0.0564
    1OPC    PO465407  12.243  25.385   6.656 -0.0730  0.0027  0.1269
    1OPC    GL165408  12.555  25.671   6.397  0.3930  0.1649 -0.0127
    1OPC    GL265409  12.595  25.712   6.020 -0.0254 -0.1407 -0.1919
    1OPC    C1B65410  12.807  25.899   5.681 -0.0881  0.1265 -0.0354
    1OPC    D2B65411  12.807  25.905   5.211 -0.0215  0.1885  0.0370
    1OPC    C3B65412  13.056  26.232   4.952  0.1305 -0.1720  0.0904
    1OPC    C4B65413  13.131  26.653   5.130  0.0764 -0.2623 -0.3727
    1OPC    NC365414   6.196   4.342   7.367 -0.1316 -0.1213 -0.0475
    1OPC    PO465415   6.382   4.066   7.044 -0.0100 -0.0652 -0.0002
    1OPC    GL165416   6.301   4.028   6.613 -0.0353 -0.0093 -0.2694
    1OPC    GL265417   6.450   3.985   6.375 -0.0377 -0.0174 -0.1462
    1OPC    C1B65418   6.361   3.712   5.922  0.1326  0.0401 -0.0299
    1OPC    D2B65419   6.431   3.685   5.457  0.1058 -0.0674  0.1396
    1OPC    C3B65420   6.526   3.307   5.289 -0.0445  0.0162 -0.0299
    1OPC    C4B65421   6.853   3.260   4.968  0.2576  0.0397 -0.1477
    1OPC    NC365422  10.897  25.233   7.167 -0.1136  0.2649  0.1040
    1OPC    PO465423  10.814  24.736   7.016 -0.0798 -0.1359  0.0536
    1OPC    GL165424  10.634  24.809   6.613  0.6469 -0.5239 -0.2448
    1OPC    GL265425  10.735  24.780   6.397 -0.2754 -0.4221  0.3776
    1OPC    C1B65426  10.900  24.709   5.989  0.1872  0.0986 -0.0206
    1OPC    D2B65427  10.724  24.717   5.644 -0.0271  0.0826  0.1356
    1OPC    C3B65428  10.828  24.501   5.204 -0.0951  0.4097 -0.2507
    1OPC    C4B65429  10.814  24.579   4.866  0.1283  0.2642  0.0915
    1OPC    NC365430  21.353   6.002   7.333 -0.2983 -0.1143  0.1082
    1OPC    PO465431  21.091   5.934   6.962  0.1726 -0.2010 -0.0167
    1OPC    GL165432  20.967   5.738   6.573  0.1568 -0.0298  0.1499
    1OPC    GL265433  20.750   5.746   6.425  0.0082 -0.0156 -0.2083
    1OPC    C1B65434  20.595   5.701   6.040  0.0011  0.2066 -0.4274
    1OPC    D2B65435  20.414   5.963   5.734  0.0766  0.4155  0.2104
    1OPC    C3B65436  19.972   5.943   5.766 -0.2798  0.0940 -0.2769
    1OPC    C4B65437  19.693   6.277   5.872  0.1912  0.1112  0.1620
    1OPC    NC365438  19.532   3.190   7.440  0.0094 -0.2291  0.1803
    1OPC    PO465439  19.290   2.976   7.096  0.0379  0.2045  0.0251
    1OPC    GL165440  19.024   3.063   6.747 -0.0348 -0.0786  0.2019
    1OPC    GL265441  18.880   3.273   6.572  0.1650 -0.2704  0.0093
    1OPC    C1B65442  18.613   3.248   6.201  0.0156 -0.0518 -0.0104
    1OPC    D2B65443  18.420   3.193   5.824  0.0927  0.1148  0.0684
    1OPC    C3B65444  18.749   3.020   5.522 -0.1888  0.2338 -0.3526
    1OPC    C4B65445  18.721   2.737   5.283  0.1153  0.3290  0.0063
    1OPC    NC365446  20.980  17.581   7.792 -0.0309  0.3681 -0.1989
    1OPC    PO465447  21.288  17.331   7.426 -0.0175 -0.1885 -0.1641
    1OPC    GL165448  21.018  17.349   7.104 -0.0983  0.1472  0.2577
    1OPC    GL265449  20.901  17.549   6.839  0.1209 -0.0401 -0.0537
    1OPC    C1B65450  20.814  17.936   6.525 -0.0715 -0.3665  0.0282
    1OPC    D2B65451  20.952  18.260   6.551 -0.0871  0.4856 -0.0443
    1OPC    C3B65452  20.720  18.393   6.203  0.0888 -0.3741 -0.2985
    1OPC    C4B65453  20.488  18.472   5.935 -0.0284  0.1024 -0.1178
    1OPC    NC365454  10.857   6.946   8.273 -0.3111  0.0186  0.0121
    1OPC    PO465455  10.604   6.903   7.937 -0.0161 -0.0516 -0.1774
    1OPC    GL165456  10.351   6.894   7.561 -0.0376 -0.1280 -0.0393
    1OPC    GL265457  10.268   6.778   7.238 -0.2099  0.0483  0.4611
    1OPC    C1B65458  10.391   6.726   6.870  0.0904 -0.1402  0.1408
    1OPC    D2B65459  10.569   6.828   6.555 -0.3508  0.1424 -0.1485
    1OPC    C3B65460  10.833   7.034   6.442 -0.2279  0.0010  0.2255
    1OPC    C4B65461  11.208   6.912   6.311  0.1193 -0.0084  0.0060
    1OPC    NC365462  13.113  25.687   7.044  0.3008 -0.3132  0.0701
    1OPC    PO465463  12.995  26.072   7.010 -0.3075  0.2184 -0.0072
    1OPC    GL165464  12.887  26.030   6.617 -0.3463 -0.1112 -0.0833
    1OPC    GL265465  12.956  25.946   6.299  0.2320 -0.0118 -0.0540
    1OPC    C1B65466  13.234  26.003   5.923 -0.0895  0.1533  0.1063
    1OPC    D2B65467  13.282  25.706   5.494 -0.1179 -0.0612 -0.0889
    1OPC    C3B65468  13.273  25.852   5.140  0.0997  0.1562 -0.1613
    1OPC    C4B65469  13.215  25.618   4.834  0.0239  0.0465  0.0588
    1OPC    NC365470   3.071  27.286   6.833 -0.0510  0.1445 -0.0196
    1OPC    PO465471   3.253  26.894   7.108 -0.0657 -0.0531  0.1104
    1OPC    GL165472   3.302  26.882   6.689  0.1898 -0.3777 -0.0630
    1OPC    GL265473   3.302  26.901   6.327 -0.2435  0.0040  0.0481
    1OPC    C1B65474   3.349  26.465   5.968  0.0229  0.0080 -0.1131
    1OPC    D2B65475   3.210  26.433   5.605  0.0162  0.0938  0.0369
    1OPC    C3B65476   3.152  26.803   5.376 -0.1184 -0.1846  0.0669
    1OPC    C4B65477   3.192  27.215   5.026  0.1402  0.0478 -0.3095
    1OPC    NC365478  12.924   3.311   8.301  0.2466  0.4014 -0.1136
    1OPC    PO465479  13.154   3.313   7.875  0.0632  0.1282  0.0467
    1OPC    GL165480  13.281   3.291   7.388 -0.1932  0.1212 -0.2127
    1OPC    GL265481  13.267   3.482   7.103  0.0091 -0.0002 -0.2145
    1OPC    C1B65482  13.356   3.660   6.752 -0.0031  0.1530  0.0912
    1OPC    D2B65483  13.552   3.789   6.457  0.1679 -0.1568  0.1586
    1OPC    C3B65484  13.830   4.111   6.522  0.0329  0.2162 -0.1513
    1OPC    C4B65485  14.225   4.172   6.701  0.3399  0.2123 -0.1259
    1OPC    NC365486  12.621  12.486   8.542  0.3746 -0.1472  0.2480
    1OPC    PO465487  12.467  12.244   8.199 -0.1519  0.2421  0.2877
    1OPC    GL165488  12.307  12.022   7.891  0.1502 -0.0639  0.0516
    1OPC    GL265489  12.160  11.966   7.640 -0.0487 -0.2134  0.0020
    1OPC    C1B65490  12.054  11.912   7.297 -0.1519  0.0527  0.1300
    1OPC    D2B65491  12.215  11.630   6.898  0.1179  0.1426 -0.1336
    1OPC    C3B65492  12.229  11.858   6.534  0.1897 -0.4465 -0.0693
    1OPC    C4B65493  12.132  12.075   6.211  0.0967 -0.3194  0.1768
    1OPC    NC365494   0.985  13.409   7.365  0.0050 -0.0236  0.2844
    1OPC    PO465495   1.025  13.286   6.993 -0.1447  0.1012 -0.2706
    1OPC    GL165496   0.997  13.451   6.527  0.0122 -0.0095 -0.2638
    1OPC    GL265497   0.999  13.546   6.212  0.2350  0.0066  0.6290
    1OPC    C1B65498   1.169  13.411   5.904  0.1839  0.0914  0.3851
    1OPC    D2B65499   1.195  13.288   5.581  0.1270  0.1509  0.1055
    1OPC    C3B65500   1.452  13.236   5.267  0.0955 -0.4474 -0.3081
    1OPC    C4B65501   1.814  13.176   4.942  0.0154 -0.0161 -0.3623
    1OPC    NC365502   6.165  15.709   7.411  0.0062  0.2418 -0.3753
    1OPC    PO465503   6.546  15.503   7.369 -0.0722 -0.1761 -0.0332
    1OPC    GL165504   6.498  15.374   6.945  0.1228  0.1823 -0.0043
    1OPC    GL265505   6.351  15.157   6.616 -0.1377 -0.0658  0.2641
    1OPC    C1B65506   6.094  15.381   6.196  0.1787  0.2518 -0.1069
    1OPC    D2B65507   6.108  15.371   5.770 -0.0592 -0.1101 -0.2398
    1OPC    C3B65508   6.503  15.598   5.609 -0.3096 -0.1583  0.0444
    1OPC    C4B65509   6.560  15.959   5.265 -0.0884  0.0428 -0.0458
    1OPC    NC365510   8.333  19.009   7.823  0.2918 -0.2652 -0.3018
    1OPC    PO465511   8.036  18.686   7.820  0.2144  0.0515  0.0525
    1OPC    GL165512   8.020  18.614   7.391 -0.1042 -0.3757  0.1203
    1OPC    GL265513   8.133  18.543   7.138  0.0310  0.1724  0.1187
    1OPC    C1B65514   7.932  18.628   6.825  0.0297 -0.3282 -0.2166
    1OPC    D2B65515   7.757  18.708   6.408  0.2260  0.1792  0.3085
    1OPC    C3B65516   7.834  18.612   5.975 -0.3719  0.0901  0.0854
    1OPC    C4B65517   8.176  18.592   5.673  0.0713 -0.2847  0.1344
    1OPC    NC365518   2.859  17.995   6.871 -0.3640  0.0259  0.0252
    1OPC    PO465519   3.282  18.013   7.008  0.1763 -0.1151 -0.4763
    1OPC    GL165520   3.554  18.041   6.614  0.0667  0.0354 -0.2192
    1OPC    GL265521   3.702  18.119   6.349  0.3446 -0.2554 -0.0404
    1OPC    C1B65522   3.526  17.927   6.026  0.2650  0.0185  0.1358
    1OPC    D2B65523   3.531  17.930   5.643 -0.0259  0.2714  0.2133
    1OPC    C3B65524   3.494  18.265   5.355 -0.1031 -0.2856  0.0411
    1OPC    C4B65525   3.519  18.564   5.016  0.2099  0.0368 -0.0248
    1OPC    NC365526  12.802  11.186   8.574  0.0224  0.2145  0.0198
    1OPC    PO465527  12.676  11.239   8.090 -0.0470 -0.1357 -0.1561
    1OPC    GL165528  12.850  11.194   7.650  0.0574 -0.1377  0.0216
    1OPC    GL265529  12.577  11.168   7.378 -0.1460 -0.0303  0.0906
    1OPC    C1B65530  12.506  11.278   6.958 -0.5008  0.0867  0.0920
    1OPC    D2B65531  12.640  11.624   6.672  0.3612 -0.3121 -0.3035
    1OPC    C3B65532  13.030  11.798   6.587 -0.1363 -0.1239  0.0739
    1OPC    C4B65533  13.367  11.918   6.409 -0.1229  0.2723  0.0124
    1OPC    NC365534  10.814  13.410   8.125  0.0765  0.2881 -0.2563
    1OPC    PO465535  11.028  13.738   8.289 -0.0088  0.0428  0.2408
    1OPC    GL165536  10.776  13.733   7.773  0.3149  0.1928  0.1216
    1OPC    GL265537  10.902  13.789   7.429 -0.0474 -0.4062  0.2256
    1OPC    C1B65538  10.800  13.627   7.002 -0.0930  0.0725 -0.1259
    1OPC    D2B65539  10.813  13.507   6.640 -0.1626  0.0174 -0.0186
    1OPC    C3B65540  10.911  13.788   6.245  0.0214  0.0206  0.2104
    1OPC    C4B65541  11.253  13.875   5.844  0.0591  0.1144 -0.2940
    1OPC    NC365542   2.190  22.724   7.130  0.1522 -0.1843  0.0288
    1OPC    PO465543   2.589  22.822   6.990 -0.0580 -0.1793  0.0955
    1OPC    GL165544   2.617  22.987   6.581  0.2755 -0.1680 -0.0928
    1OPC    GL265545   2.595  23.040   6.208  0.2786 -0.1773  0.0568
    1OPC    C1B65546   2.758  22.934   5.820  0.2473 -0.2154 -0.0347
    1OPC    D2B65547   2.790  22.922   5.425 -0.0675 -0.0367  0.0399
    1OPC    C3B65548   3.112  22.874   5.051  0.2344  0.1081 -0.2120
    1OPC    C4B65549   3.459  22.941   4.878 -0.0487 -0.0931  0.0442
    1OPC    NC365550  18.919   0.148   8.031  0.1434  0.0654  0.0577
    1OPC    PO465551  18.707   0.294   7.706 -0.0303 -0.0252 -0.3232
    1OPC    GL165552  18.909   0.398   7.284  0.1061 -0.2426 -0.0330
    1OPC    GL265553  18.846   0.335   6.992 -0.0206 -0.3271 -0.0742
    1OPC    C1B65554  18.897   0.365   6.517  0.2244 -0.0554 -0.5406
    1OPC    D2B65555  18.607   0.179   6.282 -0.1032 -0.0532  0.0735
    1OPC    C3B65556  18.686   0.010   5.893  0.2359  0.1461  0.0394
    1OPC    C4B65557  19.047  27.999   5.631  0.0314  0.1764  0.0918
    1OPC    NC365558   0.683   5.578   6.395  0.2102 -0.0865  0.1612
    1OPC    PO465559   0.199   5.466   6.192 -0.1999  0.0986 -0.1561
    1OPC    GL165560   0.276   5.318   5.795 -0.0281  0.1933  0.2224
    1OPC    GL265561   0.446   5.084   5.617  0.0906  0.0030 -0.3100
    1OPC    C1B65562   0.547   5.053   5.143 -0.0226 -0.2719  0.0413
    1OPC    D2B65563   0.352   5.052   4.716  0.1530 -0.0665 -0.2653
    1OPC    C3B65564   0.385   5.090   4.129 -0.0936  0.0058  0.2950
    1OPC    C4B65565   0.359   4.990   3.708  0.0931 -0.0921 -0.0583
    1OPC    NC365566   1.413  17.048   6.478 -0.0923 -0.2385 -0.1420
    1OPC    PO465567   0.935  16.988   6.626  0.0177 -0.1460 -0.2037
    1OPC    GL165568   0.847  16.996   6.245  0.0354 -0.0937  0.0248
    1OPC    GL265569   0.791  16.758   6.090 -0.2425  0.1289  0.3413
    1OPC    C1B65570   0.400  16.769   5.800  0.1340  0.1014 -0.0100
    1OPC    D2B65571   0.041  16.837   5.585 -0.0793  0.0838  0.0743
    1OPC    C3B65572  27.880  16.562   5.429  0.2695 -0.0367 -0.1853
    1OPC    C4B65573  27.737  16.359   4.983 -0.2368 -0.0022  0.1198
    1OPC    NC365574   8.538   6.530   7.997  0.0400  0.1051 -0.1217
    1OPC    PO465575   8.517   7.030   7.906  0.0353 -0.1607 -0.0907
    1OPC    GL165576   8.526   6.885   7.507 -0.3984  0.0449 -0.0591
    1OPC    GL265577   8.572   7.051   7.275  0.0276  0.3369 -0.0110
    1OPC    C1B65578   8.508   7.317   6.971  0.2824  0.2096 -0.0460
    1OPC    D2B65579   8.571   7.427   6.625 -0.0234  0.1043  0.1306
    1OPC    C3B65580   8.597   7.189   6.193  0.0863 -0.1989 -0.0544
    1OPC    C4B65581   8.591   6.797   5.939  0.0152  0.3225  0.1816
    1OPC    NC365582   5.921  25.181   6.966 -0.0488 -0.1494  0.1875
    1OPC    PO465583   5.772  25.650   6.943  0.3516  0.1365 -0.0746
    1OPC    GL165584   6.167  25.667   6.735 -0.0523  0.0076 -0.1928
    1OPC    GL265585   6.404  25.667   6.521  0.0397 -0.3132  0.1799
    1OPC    C1B65586   6.539  25.718   6.052 -0.1812  0.1802  0.0466
    1OPC    D2B65587   6.606  25.632   5.710 -0.3090 -0.1101  0.0985
    1OPC    C3B65588   6.716  25.673   5.252  0.1715  0.2470  0.1283
    1OPC    C4B65589   6.740  25.456   4.882  0.1374  0.1368  0.2385
    1OPC    NC365590  26.318   2.174   7.433 -0.1560 -0.2483  0.2849
    1OPC    PO465591  26.261   1.856   7.129 -0.0609 -0.1230 -0.1145
    1OPC    GL165592  26.133   1.846   6.752 -0.0900 -0.1315 -0.0568
    1OPC    GL265593  25.922   1.672   6.598  0.0052 -0.1574 -0.0810
    1OPC    C1B65594  25.831   1.724   6.190  0.2211 -0.0298 -0.1375
    1OPC    D2B65595  25.913   2.124   6.002 -0.0171  0.0979 -0.2112
    1OPC    C3B65596  25.789   2.159   5.552  0.2266 -0.1432 -0.1062
    1OPC    C4B65597  25.698   2.202   5.072  0.0077 -0.1851 -0.0753
    1OPC    NC365598  24.072  22.290   7.255 -0.0375 -0.0989  0.0495
    1OPC    PO465599  24.224  22.170   6.820  0.1248  0.0169 -0.0516
    1OPC    GL165600  24.032  22.494   6.566 -0.4643 -0.1434 -0.2196
    1OPC    GL265601  24.063  22.530   6.343  0.0815  0.0231  0.2583
    1OPC    C1B65602  23.969  22.369   5.989  0.1446  0.1556  0.0215
    1OPC    D2B65603  23.856  22.239   5.574  0.1284 -0.2759  0.3880
    1OPC    C3B65604  24.242  22.342   5.392  0.3787  0.1839 -0.0553
    1OPC    C4B65605  24.616  22.506   5.533 -0.1373 -0.0509 -0.0013
    1OPC    NC365606  26.554  16.475   6.640 -0.2943  0.0175 -0.1494
    1OPC    PO465607  26.863  16.660   6.401  0.1541  0.1610 -0.3022
    1OPC    GL165608  27.073  16.431   6.148 -0.0415 -0.1390 -0.1968
    1OPC    GL265609  27.001  16.413   5.889 -0.1730  0.2983 -0.2220
    1OPC    C1B65610  26.938  16.464   5.559  0.0086  0.0569  0.3254
    1OPC    D2B65611  26.826  16.416   5.106  0.2865 -0.0248 -0.0848
    1OPC    C3B65612  27.076  16.197   4.960  0.1112 -0.0666  0.2187
    1OPC    C4B65613  27.123  15.947   4.530 -0.1252 -0.2259 -0.0883
    1OPC    NC365614  12.286  22.609   7.358  0.0034  0.0761  0.0732
    1OPC    PO465615  12.407  22.947   7.182  0.2161  0.1414  0.1533
    1OPC    GL165616  12.298  23.283   6.863  0.0279 -0.0506  0.0494
    1OPC    GL265617  12.314  23.499   6.599 -0.0301 -0.0829  0.2427
    1OPC    C1B65618  12.346  23.367   6.194  0.2621  0.0293  0.0947
    1OPC    D2B65619  12.201  22.999   5.918 -0.0883  0.0353  0.0129
    1OPC    C3B65620  11.967  23.258   5.653  0.5380  0.0001  0.2800
    1OPC    C4B65621  11.718  23.220   5.339 -0.0145 -0.1071 -0.1660
    1OPC    NC365622  12.008   7.347   8.072 -0.2271  0.2508  0.0588
    1OPC    PO465623  11.668   7.606   7.958 -0.0437  0.1220 -0.2106
    1OPC    GL165624  11.398   7.492   7.655  0.1508 -0.1442  0.0329
    1OPC    GL265625  11.371   7.490   7.389 -0.1730 -0.2266 -0.0248
    1OPC    C1B65626  11.472   7.585   6.950 -0.2548  0.0811  0.0987
    1OPC    D2B65627  11.541   7.291   6.592 -0.0061 -0.0850 -0.2736
    1OPC    C3B65628  11.912   7.220   6.365 -0.0727  0.1941 -0.3463
    1OPC    C4B65629  12.162   7.224   5.990  0.0992 -0.0826 -0.3267
    1OPC    NC365630  17.247  18.118   7.272 -0.1126  0.1309  0.3447
    1OPC    PO465631  16.987  18.383   7.486  0.3991  0.3495 -0.3880
    1OPC    GL165632  17.152  18.607   7.216 -0.2596 -0.1608  0.1172
    1OPC    GL265633  17.158  18.593   6.916 -0.1524  0.2202 -0.0265
    1OPC    C1B65634  17.256  18.608   6.456  0.2154 -0.2332  0.0689
    1OPC    D2B65635  17.073  18.530   6.105  0.1966  0.1657 -0.1044
    1OPC    C3B65636  17.127  18.867   5.782  0.0796  0.2695 -0.0409
    1OPC    C4B65637  17.415  18.984   5.426 -0.0329 -0.1584  0.0068
    1OPC    NC365638  13.946   0.500   7.759 -0.0707 -0.2161 -0.2687
    1OPC    PO465639  13.648   0.518   7.460  0.0690  0.0632 -0.0304
    1OPC    GL165640  13.901   0.479   7.165 -0.1004  0.0827 -0.0146
    1OPC    GL265641  14.128   0.428   7.077 -0.0130 -0.1751 -0.1788
    1OPC    C1B65642  14.333   0.461   6.686 -0.2441 -0.1629 -0.1282
    1OPC    D2B65643  14.582   0.521   6.456  0.1114 -0.0960 -0.0101
    1OPC    C3B65644  14.529   0.722   5.993 -0.1124  0.0268 -0.0323
    1OPC    C4B65645  14.398   1.098   5.847 -0.1752 -0.1352 -0.1478
    1OPC    NC365646  19.154  25.133   7.421 -0.0836  0.0634 -0.1120
    1OPC    PO465647  18.893  24.823   7.245 -0.1637  0.1170 -0.2406
    1OPC    GL165648  18.974  24.782   6.796 -0.0081  0.0402 -0.1760
    1OPC    GL265649  18.931  24.613   6.422 -0.0931 -0.0627 -0.1573
    1OPC    C1B65650  18.865  24.672   6.025  0.2855  0.4222  0.0740
    1OPC    D2B65651  19.135  24.782   5.733 -0.1749 -0.1851  0.2219
    1OPC    C3B65652  19.075  25.058   5.418 -0.1293 -0.2360  0.0609
    1OPC    C4B65653  18.844  25.430   5.247  0.1238  0.0160 -0.2314
    1OPC    NC365654  27.267  13.539   6.807  0.0572 -0.1239 -0.0144
    1OPC    PO465655  27.283  13.806   6.466 -0.3399 -0.3083  0.0042
    1OPC    GL165656  27.020  13.782   6.093  0.3318 -0.1184 -0.1064
    1OPC    GL265657  26.810  13.794   5.956 -0.1391  0.3079  0.1807
    1OPC    C1B65658  26.518  13.624   5.661  0.1174 -0.0972 -0.3773
    1OPC    D2B65659  26.213  13.541   5.665  0.1284 -0.0261  0.1832
    1OPC    C3B65660  25.992  13.512   5.267  0.1349 -0.0947  0.3188
    1OPC    C4B65661  25.840  13.776   4.934 -0.2903  0.1011 -0.1119
    1OPC    NC365662  19.265  17.858   7.918  0.1632 -0.1737  0.2378
    1OPC    PO465663  19.455  18.184   7.615 -0.0173 -0.0102 -0.3667
    1OPC    GL165664  19.226  18.123   7.203 -0.3479 -0.1670 -0.2708
    1OPC    GL265665  19.359  17.869   6.862 -0.3440  0.1618 -0.2209
    1OPC    C1B65666  19.707  17.774   6.699 -0.2539 -0.2896 -0.1089
    1OPC    D2B65667  20.073  17.868   6.507 -0.0407  0.1407 -0.1374
    1OPC    C3B65668  20.429  17.597   6.449  0.0933 -0.4055  0.1784
    1OPC    C4B65669  20.923  17.418   6.352  0.1311 -0.1896  0.0179
    1OPC    NC365670   9.715   9.033   7.806  0.3161  0.1623  0.0151
    1OPC    PO465671   9.542   9.413   7.635  0.0409  0.1129  0.0709
    1OPC    GL165672   9.817   9.404   7.436  0.2334 -0.2423  0.0576
    1OPC    GL265673   9.847   9.651   7.135 -0.0034  0.1922  0.3331
    1OPC    C1B65674   9.955   9.878   6.719 -0.1472 -0.2073 -0.1931
    1OPC    D2B65675   9.896  10.324   6.421  0.2733  0.0259 -0.2105
    1OPC    C3B65676   9.815  10.156   6.017  0.0433 -0.1013 -0.2729
    1OPC    C4B65677   9.552   9.780   5.859 -0.0415  0.0910  0.0380
    1OPC    NC365678  13.785  24.501   7.426 -0.3069  0.0738 -0.2156
    1OPC    PO465679  13.540  24.493   7.150  0.2080  0.0871  0.3364
    1OPC    GL165680  13.864  24.329   6.833 -0.2515  0.2136  0.0375
    1OPC    GL265681  14.077  24.287   6.601 -0.0244  0.0172  0.2435
    1OPC    C1B65682  14.112  24.292   6.112  0.0264  0.2520  0.0199
    1OPC    D2B65683  14.239  24.152   5.817  0.0907  0.0830  0.2832
    1OPC    C3B65684  14.588  24.114   5.518  0.2010 -0.0550 -0.0109
    1OPC    C4B65685  14.846  23.932   5.226  0.0431 -0.0613 -0.2438
    1OPC    NC365686   7.600  25.985   7.223  0.1537  0.2648 -0.0681
    1OPC    PO465687   7.579  25.624   7.100  0.0311  0.0906  0.2678
    1OPC    GL165688   7.480  25.771   6.667 -0.1564 -0.1870 -0.1008
    1OPC    GL265689   7.596  25.733   6.483 -0.1602  0.0206  0.4330
    1OPC    C1B65690   7.688  25.611   6.117  0.0808 -0.2129 -0.0852
    1OPC    D2B65691   7.877  25.662   5.740  0.2002 -0.1146 -0.1450
    1OPC    C3B65692   7.742  25.576   5.370  0.2610 -0.2376  0.1766
    1OPC    C4B65693   7.506  25.291   5.064  0.0493 -0.0536 -0.1031
    1OPC    NC365694  18.283  14.013   7.670 -0.1031  0.3244  0.0097
    1OPC    PO465695  17.861  14.077   7.429  0.2654 -0.0559 -0.2008
    1OPC    GL165696  18.153  14.079   7.106  0.2556  0.0898 -0.1814
    1OPC    GL265697  18.422  14.200   7.058  0.2291  0.1809 -0.2414
    1OPC    C1B65698  18.896  14.204   6.916  0.2615  0.0768  0.0303
    1OPC    D2B65699  19.203  14.263   6.628 -0.1593  0.1432 -0.1144
    1OPC    C3B65700  19.037  14.442   6.318  0.0759  0.2087  0.1119
    1OPC    C4B65701  19.203  14.708   6.022  0.1540 -0.0690  0.1528
    1OPC    NC365702  10.779  16.654   7.929 -0.0031 -0.3569  0.1540
    1OPC    PO465703  10.979  16.192   7.737 -0.1881 -0.1988 -0.1786
    1OPC    GL165704  11.058  16.395   7.292  0.2306  0.0044  0.0526
    1OPC    GL265705  10.951  16.587   6.919  0.0698 -0.0017 -0.2283
    1OPC    C1B65706  10.949  16.602   6.489 -0.0971  0.1134 -0.0468
    1OPC    D2B65707  11.026  16.654   6.061 -0.2328 -0.2172 -0.1431
    1OPC    C3B65708  10.686  16.529   5.743 -0.0074  0.3081  0.1053
    1OPC    C4B65709  10.342  16.332   5.437 -0.1615 -0.1629 -0.1432
    1OPC    NC365710  21.602   4.692   6.242  0.1310 -0.1703 -0.1273
    1OPC    PO465711  21.108   4.839   6.188 -0.0259  0.1595  0.0026
    1OPC    GL165712  21.333   4.695   5.802  0.4030 -0.1018  0.1618
    1OPC    GL265713  21.215   4.582   5.594  0.3957  0.0386 -0.1980
    1OPC    C1B65714  20.750   4.618   5.512  0.1657 -0.1146 -0.2239
    1OPC    D2B65715  20.438   4.565   5.207  0.3243  0.0669  0.4344
    1OPC    C3B65716  20.277   4.808   4.912 -0.1080  0.2625  0.1172
    1OPC    C4B65717  20.238   5.066   4.586 -0.1700  0.1574  0.0269
    1OPC    NC365718  17.795   8.536   7.593  0.2405  0.2768 -0.0335
    1OPC    PO465719  17.605   8.235   7.496 -0.1829  0.0651  0.2019
    1OPC    GL165720  17.518   8.075   7.086  0.0811  0.1297  0.1794
    1OPC    GL265721  17.482   7.874   6.855  0.0174 -0.2160  0.1005
    1OPC    C1B65722  17.393   7.972   6.362  0.1509 -0.2742 -0.0634
    1OPC    D2B65723  17.042   8.155   6.127 -0.0821 -0.0144 -0.0802
    1OPC    C3B65724  16.901   8.439   5.825  0.0239  0.0407 -0.1137
    1OPC    C4B65725  17.070   8.833   5.759  0.3486  0.3785  0.0537
    1OPC    NC365726  13.160   9.793   7.882  0.3795  0.0972  0.0561
    1OPC    PO465727  12.800   9.725   7.665  0.0568  0.3612  0.2434
    1OPC    GL165728  12.872   9.391   7.451  0.2265 -0.0934  0.0836
    1OPC    GL265729  12.670   9.208   7.252 -0.0180  0.0987 -0.2532
    1OPC    C1B65730  12.639   8.968   6.874  0.1083 -0.3245 -0.0676
    1OPC    D2B65731  12.672   8.879   6.448  0.0116  0.1358  0.2402
    1OPC    C3B65732  12.688   9.011   6.037 -0.0688  0.0675 -0.3531
    1OPC    C4B65733  12.473   8.884   5.738  0.1473  0.0642  0.1847
    1OPC    NC365734  27.791  20.653   6.890  0.0512 -0.1074 -0.1873
    1OPC    PO465735  27.642  21.202   6.811 -0.0710 -0.1243  0.0245
    1OPC    GL165736  27.431  21.347   6.403 -0.2408 -0.2241  0.2154
    1OPC    GL265737  27.554  21.470   6.197 -0.1820 -0.2430  0.0042
    1OPC    C1B65738  27.723  21.220   5.791  0.1999 -0.1219  0.2086
    1OPC    D2B65739  27.807  21.419   5.345  0.1352 -0.4024 -0.1793
    1OPC    C3B65740  27.654  21.308   4.907  0.0828  0.0462  0.1288
    1OPC    C4B65741  27.566  21.486   4.643 -0.0305  0.0775  0.3583
    1OPC    NC365742   1.442  13.048   6.792  0.0469  0.0832  0.3663
    1OPC    PO465743   1.697  13.109   6.488  0.1395 -0.0725  0.1616
    1OPC    GL165744   1.698  13.411   6.133  0.2815 -0.1062  0.1914
    1OPC    GL265745   1.896  13.557   5.914  0.1949 -0.0907  0.0440
    1OPC    C1B65746   2.023  13.845   5.620  0.1063  0.2739  0.1096
    1OPC    D2B65747   2.135  13.949   5.181  0.1486  0.1807 -0.0256
    1OPC    C3B65748   2.333  13.707   4.976 -0.3038  0.0954  0.0734
    1OPC    C4B65749   2.522  13.521   4.664 -0.1401  0.4764  0.1328
    1OPC    NC365750  25.434   6.516   7.449  0.1143 -0.2475 -0.3305
    1OPC    PO465751  25.621   6.061   7.357 -0.0224 -0.0511 -0.0011
    1OPC    GL165752  25.555   6.131   6.861  0.2123 -0.0387 -0.2166
    1OPC    GL265753  25.280   5.978   6.704 -0.2653  0.0043  0.0875
    1OPC    C1B65754  24.973   5.872   6.533 -0.0737 -0.0056 -0.0352
    1OPC    D2B65755  24.537   5.958   6.439 -0.5211 -0.0743 -0.0535
    1OPC    C3B65756  24.423   6.245   6.205 -0.0265  0.1028 -0.0830
    1OPC    C4B65757  24.163   6.135   5.951 -0.0382  0.1214  0.4505
    1OPC    NC365758  18.367  19.116   7.995 -0.3491  0.2077  0.3060
    1OPC    PO465759  18.075  19.192   7.601 -0.1103 -0.1592 -0.1087
    1OPC    GL165760  17.853  19.275   7.237  0.0584 -0.0078 -0.1375
    1OPC    GL265761  17.678  19.385   6.953  0.0245 -0.0071  0.1552
    1OPC    C1B65762  17.654  19.595   6.477 -0.1984 -0.1288  0.2582
    1OPC    D2B65763  17.758  19.439   6.143 -0.3442  0.2338 -0.0261
    1OPC    C3B65764  18.080  19.246   5.897 -0.1506  0.1366 -0.2073
    1OPC    C4B65765  18.349  18.943   5.654  0.3734  0.1810 -0.2202
    1OPC    NC365766  24.948  13.859   7.177  0.1245  0.2335 -0.1964
    1OPC    PO465767  24.586  13.785   7.210  0.1653 -0.2427 -0.2166
    1OPC    GL165768  24.678  13.883   6.771  0.0917 -0.3517  0.0860
    1OPC    GL265769  24.890  13.927   6.539  0.2212  0.1366  0.2147
    1OPC    C1B65770  24.956  14.172   6.135  0.1374 -0.1128 -0.2389
    1OPC    D2B65771  24.752  14.441   5.961 -0.0167  0.2530 -0.2028
    1OPC    C3B65772  24.363  14.297   5.607  0.0428  0.0996  0.4194
    1OPC    C4B65773  24.072  14.163   5.242 -0.2537 -0.2570 -0.0645
    1OPC    NC365774  19.560   2.860   6.672  0.1591  0.1567 -0.0706
    1OPC    PO465775  20.026   2.834   6.699  0.0566 -0.1001  0.2327
    1OPC    GL165776  19.856   2.911   6.281  0.1703 -0.1178  0.1454
    1OPC    GL265777  19.684   2.808   5.970 -0.2049 -0.0676 -0.4837
    1OPC    C1B65778  19.656   2.817   5.500 -0.1007 -0.0185 -0.1129
    1OPC    D2B65779  19.984   2.783   5.202  0.0628  0.0975 -0.0863
    1OPC    C3B65780  20.249   3.238   5.112  0.2012  0.4037 -0.1284
    1OPC    C4B65781  20.681   3.356   5.087 -0.0131 -0.3110 -0.1334
    1OPC    NC365782  22.003  27.544   7.276  0.1494 -0.0528  0.0098
    1OPC    PO465783  22.064  27.243   6.964  0.0323  0.0787 -0.1555
    1OPC    GL165784  22.020  26.868   6.639  0.1627  0.0422  0.1272
    1OPC    GL265785  22.051  26.602   6.521 -0.0516 -0.0808  0.0407
    1OPC    C1B65786  21.763  26.413   6.234  0.1453  0.1057  0.1124
    1OPC    D2B65787  21.571  26.420   5.841 -0.2839  0.0435 -0.2436
    1OPC    C3B65788  21.543  26.839   5.653  0.0256  0.2686 -0.0172
    1OPC    C4B65789  21.397  26.969   5.330 -0.1746 -0.1149  0.1663
    1OPC    NC365790   1.663   9.464   7.064 -0.0256  0.3259 -0.1375
    1OPC    PO465791   1.507   9.303   6.614  0.1464 -0.1087 -0.0038
    1OPC    GL165792   1.506   9.306   6.191 -0.1992  0.1081 -0.0878
    1OPC    GL265793   1.592   9.533   5.890  0.0242 -0.2893 -0.2461
    1OPC    C1B65794   1.561  10.004   5.694 -0.0718  0.3708 -0.0657
    1OPC    D2B65795   1.267  10.322   5.627 -0.4300  0.1233  0.2019
    1OPC    C3B65796   1.394  10.688   5.754 -0.1498  0.4870 -0.0506
    1OPC    C4B65797   1.382  10.972   6.036  0.2457 -0.3016  0.1875
    1OPC    NC365798   1.390  15.413   6.970 -0.0165 -0.1474  0.0948
    1OPC    PO465799   1.751  15.511   6.628  0.2150 -0.0671 -0.2286
    1OPC    GL165800   1.564  15.556   6.238  0.1703  0.1153 -0.1183
    1OPC    GL265801   1.695  15.555   5.914  0.1296 -0.1084  0.1203
    1OPC    C1B65802   1.907  15.757   5.554  0.0164 -0.0852 -0.0776
    1OPC    D2B65803   1.902  15.714   5.201  0.1559 -0.1999 -0.0232
    1OPC    C3B65804   2.246  15.797   4.942  0.2212 -0.1769  0.2795
    1OPC    C4B65805   2.384  15.869   4.645 -0.2365  0.0655 -0.2781
    1OPC    NC365806  19.884  17.961   7.652  0.0259  0.2435  0.1592
    1OPC    PO465807  19.508  17.697   7.439 -0.0300 -0.1134  0.1646
    1OPC    GL165808  19.178  17.437   7.191 -0.1130  0.0674  0.1094
    1OPC    GL265809  19.262  17.292   6.850  0.2684  0.0155  0.2950
    1OPC    C1B65810  19.241  17.207   6.451 -0.0882  0.3073 -0.2910
    1OPC    D2B65811  19.442  17.120   6.139 -0.0670 -0.0907 -0.1787
    1OPC    C3B65812  19.647  17.405   5.828 -0.0317  0.1830  0.1733
    1OPC    C4B65813  19.918  17.336   5.525  0.4309  0.1511  0.0874
    1OPC    NC365814   8.419   1.812   7.121 -0.3542  0.0198  0.3252
    1OPC    PO465815   8.863   1.957   7.153 -0.3514 -0.0632 -0.0556
    1OPC    GL165816   9.164   2.174   6.869 -0.1431 -0.0481 -0.0233
    1OPC    GL265817   9.378   2.160   6.587  0.3731 -0.1270 -0.2310
    1OPC    C1B65818   9.317   2.041   6.133  0.1289  0.1495 -0.1719
    1OPC    D2B65819   9.182   1.953   5.710  0.2012 -0.3259  0.0722
    1OPC    C3B65820   8.938   2.194   5.462  0.1492 -0.3565  0.0279
    1OPC    C4B65821   8.867   2.545   5.260  0.1362  0.0153 -0.0597
    1OPC    NC365822   2.144  23.785   7.028  0.0201 -0.2590 -0.0285
    1OPC    PO465823   2.568  23.850   7.148  0.0141 -0.1372 -0.1083
    1OPC    GL165824   2.437  24.119   6.782 -0.3459  0.0451 -0.0866
    1OPC    GL265825   2.563  24.094   6.447  0.1155 -0.1773 -0.1450
    1OPC    C1B65826   2.690  24.041   6.005  0.0518 -0.2878 -0.1555
    1OPC    D2B65827   2.614  24.041   5.498 -0.0905  0.2006 -0.0650
    1OPC    C3B65828   2.836  23.871   5.241  0.3407 -0.0718 -0.0228
    1OPC    C4B65829   2.880  23.765   4.815  0.2202  0.1554  0.1075
    1OPC    NC365830  19.490  26.527   8.284 -0.3752  0.4012 -0.0476
    1OPC    PO465831  19.673  26.630   7.808  0.0255  0.0863 -0.0661
    1OPC    GL165832  19.356  26.661   7.530  0.0179  0.2283 -0.0108
    1OPC    GL265833  19.201  26.728   7.189  0.1947  0.0402  0.2244
    1OPC    C1B65834  19.001  26.955   6.958 -0.1667  0.0638 -0.0993
    1OPC    D2B65835  18.809  27.352   6.913 -0.2502 -0.0168 -0.0274
    1OPC    C3B65836  18.808  27.526   6.504 -0.2774  0.0701 -0.1504
    1OPC    C4B65837  18.928  27.914   6.361 -0.2668 -0.2550  0.1280
    1OPC    NC365838  14.609  21.496   7.232 -0.0981  0.0538  0.2288
    1OPC    PO465839  14.626  21.882   7.259 -0.1461  0.0293  0.1077
    1OPC    GL165840  14.769  21.718   6.824  0.1708 -0.3602 -0.0689
    1OPC    GL265841  14.831  21.558   6.594 -0.1164  0.2047  0.3316
    1OPC    C1B65842  14.738  21.607   6.081 -0.2543  0.1371 -0.1817
    1OPC    D2B65843  14.818  21.607   5.665  0.2855 -0.0491  0.1569
    1OPC    C3B65844  15.117  21.408   5.427  0.0393 -0.1707 -0.1205
    1OPC    C4B65845  15.511  21.512   5.311 -0.1211 -0.1331 -0.0263
    1OPC    NC365846   8.343   5.506   7.578 -0.4147 -0.0600 -0.0567
    1OPC    PO465847   8.624   5.858   7.439 -0.0409 -0.1825 -0.2996
    1OPC    GL165848   8.623   5.898   7.035 -0.3497  0.2696 -0.2212
    1OPC    GL265849   8.533   5.883   6.754  0.0457 -0.0804  0.2727
    1OPC    C1B65850   8.722   5.946   6.353 -0.0431  0.0852  0.0529
    1OPC    D2B65851   8.656   5.894   5.905  0.0580 -0.0127 -0.4217
    1OPC    C3B65852   8.948   5.547   5.689 -0.5205 -0.2435 -0.0384
    1OPC    C4B65853   9.292   5.444   5.434 -0.2208 -0.1809  0.1913
    1OPC    NC365854  26.162  14.329   6.663 -0.1639  0.0643 -0.0798
    1OPC    PO465855  25.970  14.731   6.861  0.1301  0.4218  0.2953
    1OPC    GL165856  26.081  14.730   6.440  0.0830  0.1425 -0.2667
    1OPC    GL265857  26.081  14.781   6.058 -0.2301  0.0817  0.0210
    1OPC    C1B65858  26.165  14.411   5.735  0.2791 -0.1990 -0.3464
    1OPC    D2B65859  26.482  14.151   5.516  0.2217 -0.3022  0.2024
    1OPC    C3B65860  26.314  13.947   5.085  0.0509 -0.1947 -0.0712
    1OPC    C4B65861  26.341  13.524   4.784 -0.1911  0.0434  0.2246
    1OPC    NC365862  10.222   6.618   7.992 -0.0341 -0.0249 -0.0523
    1OPC    PO465863   9.838   6.570   7.679 -0.1683  0.2500 -0.3855
    1OPC    GL165864   9.852   6.496   7.292  0.3310  0.2928  0.0043
    1OPC    GL265865   9.954   6.449   6.941  0.2179 -0.3295  0.1287
    1OPC    C1B65866  10.005   6.299   6.529  0.2224  0.0690 -0.1843
    1OPC    D2B65867   9.794   6.284   6.176  0.0032 -0.1245  0.2760
    1OPC    C3B65868   9.419   6.179   6.179 -0.0116  0.1918  0.0535
    1OPC    C4B65869   9.148   5.839   6.084 -0.0310 -0.2871 -0.1600
    1OPC    NC365870   8.813  11.273   7.515 -0.2132  0.1427 -0.2443
    1OPC    PO465871   9.253  10.993   7.352 -0.2201  0.2074  0.2554
    1OPC    GL165872   9.469  11.022   6.997  0.0090  0.0447  0.2628
    1OPC    GL265873   9.694  11.090   6.900  0.0384  0.0295  0.0273
    1OPC    C1B65874   9.915  11.305   6.604 -0.2043  0.1142  0.3309
    1OPC    D2B65875  10.047  11.398   6.267 -0.1091 -0.0752 -0.0111
    1OPC    C3B65876   9.913  11.791   6.012  0.1232 -0.2067 -0.2011
    1OPC    C4B65877   9.666  12.163   6.105 -0.1610 -0.1345  0.2249
    1OPC    NC365878   8.260  14.901   7.455  0.1211  0.1906 -0.3005
    1OPC    PO465879   8.637  14.967   7.371  0.1004 -0.1033  0.1689
    1OPC    GL165880   8.721  15.274   7.053  0.0443  0.1066  0.1286
    1OPC    GL265881   8.485  15.383   6.791 -0.2635 -0.2430 -0.1340
    1OPC    C1B65882   8.385  15.593   6.442 -0.1364 -0.3941 -0.0767
    1OPC    D2B65883   8.614  15.961   6.425  0.1301  0.0626  0.1744
    1OPC    C3B65884   8.650  16.324   5.988  0.1048 -0.2853  0.1143
    1OPC    C4B65885   8.612  16.545   5.564  0.0920  0.0330  0.0016
    1OPC    NC365886   1.680   8.056   7.267  0.2018  0.1866 -0.0760
    1OPC    PO465887   1.792   7.960   6.784  0.2634 -0.0067 -0.0937
    1OPC    GL165888   1.790   7.897   6.314  0.1048  0.2566 -0.1402
    1OPC    GL265889   1.836   7.588   5.994 -0.1082 -0.2174  0.0317
    1OPC    C1B65890   2.128   7.466   5.584 -0.3186  0.1351  0.0596
    1OPC    D2B65891   2.061   7.520   5.165 -0.0989  0.1827 -0.2431
    1OPC    C3B65892   1.926   7.674   4.848 -0.3111 -0.0163 -0.0595
    1OPC    C4B65893   2.019   8.110   4.880  0.1164 -0.3757  0.2303
    1OPC    NC365894   4.562  24.773   7.803  0.2186 -0.0788 -0.3070
    1OPC    PO465895   4.657  24.857   7.428 -0.0741  0.1800 -0.2335
    1OPC    GL165896   4.691  24.784   6.950 -0.1166  0.2288 -0.0322
    1OPC    GL265897   4.946  24.907   6.639 -0.1489  0.0456  0.0923
    1OPC    C1B65898   4.751  25.018   6.233 -0.0265 -0.1826  0.0922
    1OPC    D2B65899   4.554  25.164   5.901 -0.0141  0.0971  0.0854
    1OPC    C3B65900   4.679  25.101   5.458 -0.2619  0.1795  0.1107
    1OPC    C4B65901   4.895  25.030   5.192 -0.2018  0.3280 -0.2288
    1OPC    NC365902  27.211  15.992   7.292  0.1499 -0.2109  0.2199
    1OPC    PO465903  27.009  16.286   6.886  0.2019  0.0563 -0.0336
    1OPC    GL165904  26.888  16.077   6.530  0.0479  0.1774  0.0917
    1OPC    GL265905  26.841  15.976   6.268 -0.1308  0.1218 -0.4578
    1OPC    C1B65906  26.680  16.010   5.869 -0.1636  0.0629  0.3054
    1OPC    D2B65907  26.645  16.046   5.478 -0.0732  0.0885 -0.1937
    1OPC    C3B65908  26.370  16.269   5.203  0.0268  0.1662  0.1413
    1OPC    C4B65909  26.010  16.342   5.128 -0.3572  0.1187  0.0524
    1OPC    NC365910   8.351  17.434   7.869  0.1173 -0.1976 -0.2035
    1OPC    PO465911   8.485  17.023   7.801 -0.1099 -0.0254  0.2590
    1OPC    GL165912   8.519  16.916   7.338 -0.0479  0.0207 -0.0741
    1OPC    GL265913   8.706  16.678   7.127 -0.0142 -0.1101 -0.2536
    1OPC    C1B65914   8.954  16.621   6.806 -0.2907 -0.0198  0.0886
    1OPC    D2B65915   8.996  16.679   6.379 -0.0370 -0.0871 -0.0609
    1OPC    C3B65916   8.827  16.808   5.973 -0.0839  0.3137  0.2043
    1OPC    C4B65917   8.939  17.298   5.811  0.0418 -0.0117 -0.1028
    1OPC    NC365918  18.777  15.185   8.170  0.0357 -0.2008  0.1307
    1OPC    PO465919  18.974  14.764   7.896  0.3131 -0.1265  0.1250
    1OPC    GL165920  18.919  14.484   7.468 -0.1041  0.4023 -0.1255
    1OPC    GL265921  18.994  14.618   7.130 -0.1102 -0.1569 -0.1990
    1OPC    C1B65922  18.818  14.704   6.718 -0.0701  0.0690 -0.0249
    1OPC    D2B65923  18.595  14.401   6.529 -0.0888 -0.3515  0.3506
    1OPC    C3B65924  18.430  14.525   6.003 -0.1805 -0.0941 -0.1367
    1OPC    C4B65925  18.380  14.460   5.558  0.1980  0.2264  0.0532
    1OPC    NC365926  13.047  18.584   7.477 -0.1131  0.2644 -0.0424
    1OPC    PO465927  13.015  18.296   7.061  0.1162 -0.0464 -0.1618
    1OPC    GL165928  13.235  18.024   6.912 -0.1776  0.1896 -0.1373
    1OPC    GL265929  13.292  17.717   6.802  0.0310  0.2285  0.2699
    1OPC    C1B65930  13.198  17.441   6.500  0.1770  0.0233  0.1710
    1OPC    D2B65931  13.030  17.138   6.162  0.0073  0.1238  0.0872
    1OPC    C3B65932  13.071  17.211   5.745  0.0454 -0.0386 -0.0007
    1OPC    C4B65933  13.286  17.358   5.302  0.1725  0.0744  0.1519
    1OPC    NC365934   6.533   0.413   7.052 -0.0728  0.1405  0.3504
    1OPC    PO465935   6.812   0.461   6.714  0.0114 -0.0580  0.0791
    1OPC    GL165936   7.110   0.649   6.535  0.2477  0.4776  0.0303
    1OPC    GL265937   7.207   0.790   6.394  0.1259 -0.2742  0.1108
    1OPC    C1B65938   7.379   0.795   5.924  0.4141 -0.1764  0.0757
    1OPC    D2B65939   7.393   0.895   5.469  0.0651 -0.2359 -0.1275
    1OPC    C3B65940   7.023   0.963   5.189 -0.0099 -0.0413  0.0670
    1OPC    C4B65941   6.758   1.153   4.883  0.0631  0.0648 -0.4168
    1OPC    NC365942   5.744  20.700   7.868 -0.1349  0.1755  0.1039
    1OPC    PO465943   5.399  20.890   7.608 -0.1668 -0.2292 -0.1019
    1OPC    GL165944   5.354  20.976   7.168  0.0561  0.1917 -0.0437
    1OPC    GL265945   5.497  20.717   6.878 -0.1234 -0.0574 -0.1020
    1OPC    C1B65946   5.652  20.584   6.478 -0.2735  0.1468 -0.0125
    1OPC    D2B65947   5.765  20.656   6.082  0.3755  0.0310  0.1522
    1OPC    C3B65948   5.485  20.775   5.676 -0.0630  0.0166 -0.0249
    1OPC    C4B65949   5.278  20.490   5.290  0.1646  0.0382 -0.1209
    1OPC    NC365950   2.984  25.400   7.023  0.0560 -0.0671 -0.1364
    1OPC    PO465951   3.001  25.204   6.585 -0.1331  0.1624 -0.3494
    1OPC    GL165952   3.523  25.060   6.679 -0.0156 -0.0326 -0.0885
    1OPC    GL265953   3.806  25.045   6.481  0.0822  0.3416  0.1313
    1OPC    C1B65954   4.154  24.939   6.130 -0.1884 -0.1676 -0.1057
    1OPC    D2B65955   4.202  24.909   5.623  0.0274  0.1236 -0.0749
    1OPC    C3B65956   3.900  24.684   5.423 -0.0920  0.0229  0.1352
    1OPC    C4B65957   3.577  24.601   5.201  0.0050  0.0583  0.0339
    1OPC    NC365958  11.547   8.073   8.103 -0.1016 -0.1454 -0.1489
    1OPC    PO465959  11.278   8.454   8.059  0.1338 -0.0291 -0.0013
    1OPC    GL165960  11.215   8.138   7.648  0.0441 -0.0037 -0.4357
    1OPC    GL265961  11.260   7.955   7.372  0.1333  0.1136 -0.1455
    1OPC    C1B65962  11.196   8.028   6.955  0.0304  0.0368  0.0918
    1OPC    D2B65963  11.249   7.810   6.554 -0.2212  0.1311 -0.1413
    1OPC    C3B65964  11.610   7.701   6.360 -0.2273 -0.4462 -0.1053
    1OPC    C4B65965  11.806   7.616   6.060 -0.0799 -0.1138  0.1633
    1OPC    NC365966  19.043   8.166   7.957  0.2084  0.0609 -0.3955
    1OPC    PO465967  19.035   8.494   7.679  0.1690 -0.0862 -0.0242
    1OPC    GL165968  18.903   8.402   7.278 -0.0627 -0.1434  0.3157
    1OPC    GL265969  18.812   8.538   6.958  0.2318 -0.5506 -0.2802
    1OPC    C1B65970  18.766   8.519   6.531 -0.1654  0.2020  0.0717
    1OPC    D2B65971  18.853   8.611   6.135  0.4170  0.2023 -0.0557
    1OPC    C3B65972  18.663   8.735   5.740  0.1540 -0.2171 -0.1513
    1OPC    C4B65973  18.192   8.813   5.695 -0.1310  0.1861  0.0394
    1OPC    NC365974  21.632  14.735   7.467  0.0374 -0.2572  0.2677
    1OPC    PO465975  21.826  14.463   7.252 -0.0374  0.0075 -0.2289
    1OPC    GL165976  22.009  14.581   6.792 -0.3643  0.0946  0.2266
    1OPC    GL265977  22.117  14.821   6.551 -0.2766 -0.1502  0.3340
    1OPC    C1B65978  22.384  14.664   6.152 -0.0379 -0.0497  0.2976
    1OPC    D2B65979  22.639  14.857   5.964 -0.3292  0.0325 -0.2513
    1OPC    C3B65980  22.508  15.045   5.684  0.2102  0.1585  0.0279
    1OPC    C4B65981  22.173  15.218   5.454  0.2248 -0.1032 -0.1656
    1OPC    NC365982  12.592   5.656   7.772  0.0482  0.3515 -0.0826
    1OPC    PO465983  12.805   5.282   7.999  0.0030  0.0507  0.0133
    1OPC    GL165984  12.786   5.074   7.546 -0.0364  0.1900 -0.3016
    1OPC    GL265985  12.472   5.122   7.357  0.1154  0.1219  0.0151
    1OPC    C1B65986  12.290   5.462   7.100 -0.0763  0.0354  0.0344
    1OPC    D2B65987  12.484   5.504   6.694  0.2637  0.0432  0.1108
    1OPC    C3B65988  12.501   5.248   6.251  0.2330  0.1239  0.2381
    1OPC    C4B65989  12.391   5.210   5.767  0.2991  0.0921  0.0139
    1OPC    NC365990  17.828  24.923   7.389 -0.2588  0.2125  0.0769
    1OPC    PO465991  18.374  24.879   7.463 -0.2359  0.1115  0.0757
    1OPC    GL165992  18.338  25.146   6.994  0.2417 -0.1739  0.3320
    1OPC    GL265993  18.132  25.185   6.738 -0.3503  0.2948  0.0487
    1OPC    C1B65994  17.983  25.385   6.251  0.1930  0.0346 -0.1655
    1OPC    D2B65995  18.080  25.568   5.831  0.0931 -0.0410  0.2096
    1OPC    C3B65996  18.447  25.504   5.533 -0.0366  0.1703  0.0274
    1OPC    C4B65997  18.402  25.096   5.299 -0.2202  0.1022  0.1675
    1OPC    NC365998  12.327  11.060   7.792  0.2536  0.2150  0.3979
    1OPC    PO465999  12.341  11.473   7.705  0.0465 -0.1509 -0.0602
    1OPC    GL166000  12.515  11.635   7.359 -0.0426  0.1233 -0.1564
    1OPC    GL266001  12.518  11.956   7.327 -0.3751  0.0114  0.1871
    1OPC    C1B66002  12.473  12.316   7.007  0.1957  0.0070 -0.1788
    1OPC    D2B66003  12.271  12.412   6.602 -0.0775  0.1720  0.0428
    1OPC    C3B66004  11.990  12.711   6.237  0.1308  0.0897  0.0573
    1OPC    C4B66005  11.774  12.829   5.735  0.1049 -0.0185 -0.2580
    1OPC    NC366006   8.684  26.849   7.024  0.1223  0.0272  0.0485
    1OPC    PO466007   8.754  26.474   6.904  0.1913  0.2098 -0.0083
    1OPC    GL166008   8.689  26.613   6.517 -0.3665 -0.2320 -0.2953
    1OPC    GL266009   8.687  26.850   6.258 -0.0129  0.0838 -0.1909
    1OPC    C1B66010   8.868  27.114   5.985  0.2019  0.1498  0.1029
    1OPC    D2B66011   9.022  27.065   5.580  0.1671  0.1285  0.1822
    1OPC    C3B66012   9.111  27.051   5.205  0.0614  0.3583 -0.0401
    1OPC    C4B66013   8.942  27.004   4.829 -0.1369  0.1085 -0.1379
    1OPC    NC366014  10.117  27.323   7.473 -0.0638 -0.2097 -0.0458
    1OPC    PO466015   9.732  27.365   7.225 -0.4320 -0.1238  0.0300
    1OPC    GL166016   9.878  27.398   6.804 -0.2909 -0.1999  0.1838
    1OPC    GL266017   9.737  27.222   6.592 -0.1119  0.2895  0.0164
    1OPC    C1B66018   9.730  27.066   6.261  0.0915 -0.0590  0.1541
    1OPC    D2B66019  10.091  27.122   5.887  0.1069  0.2759  0.1656
    1OPC    C3B66020  10.286  26.706   5.747 -0.0600 -0.3252 -0.1507
    1OPC    C4B66021  10.422  26.422   5.395 -0.0094 -0.2810  0.0299
    1OPC    NC366022  24.222  12.914   7.027  0.1419  0.0099 -0.1030
    1OPC    PO466023  23.773  12.786   7.188  0.1846 -0.3266 -0.0644
    1OPC    GL166024  23.742  13.029   6.787  0.0486 -0.0627 -0.0491
    1OPC    GL266025  23.896  13.204   6.605  0.1049  0.3502 -0.0575
    1OPC    C1B66026  23.888  13.246   6.152 -0.1027 -0.1771  0.3203
    1OPC    D2B66027  23.745  13.213   5.769 -0.3513  0.0040 -0.0531
    1OPC    C3B66028  23.624  13.570   5.695 -0.2093 -0.0070  0.1022
    1OPC    C4B66029  23.182  13.661   5.561 -0.1360 -0.1747  0.1363
    1OPC    NC366030  12.025  27.922   7.408  0.1683 -0.1286  0.0413
    1OPC    PO466031  12.227  27.535   7.178 -0.0720 -0.1840 -0.0480
    1OPC    GL166032  12.518  27.371   6.998 -0.1022 -0.0846 -0.0874
    1OPC    GL266033  12.688  27.209   6.786 -0.1631  0.1066 -0.2047
    1OPC    C1B66034  12.807  27.339   6.361 -0.2107  0.0084  0.0672
    1OPC    D2B66035  13.021  27.391   5.929  0.0728  0.0973  0.2949
    1OPC    C3B66036  13.167  27.246   5.702 -0.1335 -0.1243  0.1101
    1OPC    C4B66037  13.272  26.840   5.553  0.1133  0.0090 -0.4060
    1OPC    NC366038   5.682  17.795   7.264 -0.1345  0.0645  0.1908
    1OPC    PO466039   5.303  17.995   7.313 -0.0066 -0.1294  0.4108
    1OPC    GL166040   5.270  17.754   6.955  0.2202  0.2165  0.1622
    1OPC    GL266041   5.467  17.531   6.807  0.4612  0.0503 -0.1151
    1OPC    C1B66042   5.478  17.434   6.362  0.0280 -0.1588 -0.1401
    1OPC    D2B66043   5.774  17.111   6.269  0.1082 -0.0080 -0.1346
    1OPC    C3B66044   5.716  16.855   5.875  0.3585 -0.2586  0.3941
    1OPC    C4B66045   5.485  16.784   5.581 -0.1220 -0.0727  0.0886
    1OPC    NC366046   3.741  26.655   7.057 -0.1127  0.0510 -0.1079
    1OPC    PO466047   3.586  26.229   7.058 -0.1252 -0.0020  0.1025
    1OPC    GL166048   3.507  26.019   6.643  0.1659  0.1065  0.1215
    1OPC    GL266049   3.447  26.035   6.325 -0.0501 -0.5016  0.2917
    1OPC    C1B66050   3.587  26.045   5.904 -0.0949  0.0416  0.0682
    1OPC    D2B66051   3.757  25.896   5.461  0.0688  0.1289  0.0217
    1OPC    C3B66052   3.645  25.790   5.009 -0.2245 -0.0590  0.0380
    1OPC    C4B66053   3.609  25.285   4.834 -0.0183  0.1599  0.1370
    1OPC    NC366054   5.763  11.128   6.984 -0.0302 -0.3764  0.2920
    1OPC    PO466055   5.727  10.810   7.245  0.0828 -0.1795 -0.0241
    1OPC    GL166056   5.343  10.864   7.042 -0.0497 -0.2020  0.2677
    1OPC    GL266057   5.076  10.949   6.894  0.3078 -0.1842  0.1653
    1OPC    C1B66058   4.946  10.733   6.556  0.1905  0.1712  0.2034
    1OPC    D2B66059   4.547  10.647   6.366 -0.2791  0.1573  0.0944
    1OPC    C3B66060   4.593  10.553   5.883 -0.0552  0.4790 -0.1849
    1OPC    C4B66061   4.457  10.529   5.390  0.0382 -0.2542  0.0735
    1OPC    NC366062   8.808  25.975   6.889 -0.0934  0.2063 -0.0653
    1OPC    PO466063   8.433  25.787   6.814 -0.1431  0.1065 -0.1104
    1OPC    GL166064   8.544  25.501   6.636 -0.0271  0.2095 -0.0815
    1OPC    GL266065   8.606  25.608   6.371 -0.0190 -0.0883 -0.0092
    1OPC    C1B66066   8.816  25.702   6.014 -0.1219  0.1158 -0.2577
    1OPC    D2B66067   9.008  25.704   5.642 -0.0775 -0.1981 -0.1190
    1OPC    C3B66068   8.785  25.655   5.252  0.5477 -0.1868 -0.3267
    1OPC    C4B66069   8.672  25.242   4.996  0.4080  0.0963 -0.2567
    1OPC    NC366070  21.399   1.075   7.298  0.2054  0.0093 -0.0678
    1OPC    PO466071  20.976   0.937   7.213 -0.2166 -0.1412  0.0178
    1OPC    GL166072  21.127   1.010   6.821  0.0544 -0.0971 -0.0406
    1OPC    GL266073  21.022   1.156   6.620  0.0350 -0.0285 -0.0387
    1OPC    C1B66074  21.297   1.140   6.246  0.0809  0.3780  0.1894
    1OPC    D2B66075  21.681   1.096   5.903 -0.1447  0.2220 -0.1319
    1OPC    C3B66076  21.835   1.451   5.640 -0.1301  0.0114 -0.0573
    1OPC    C4B66077  21.886   1.748   5.302  0.2825  0.0254 -0.1252
    1OPC    NC366078  13.493   2.017   8.029  0.0681  0.1687 -0.1654
    1OPC    PO466079  13.093   2.064   7.808  0.1710 -0.0054 -0.0337
    1OPC    GL166080  12.972   2.049   7.308 -0.0679  0.3264  0.1230
    1OPC    GL266081  12.881   2.254   7.057 -0.2421  0.0915  0.2641
    1OPC    C1B66082  12.614   2.169   6.740  0.2330 -0.0930 -0.1332
    1OPC    D2B66083  12.422   1.971   6.301  0.2262  0.0229 -0.0576
    1OPC    C3B66084  12.567   1.656   6.029  0.0197  0.1926  0.1912
    1OPC    C4B66085  12.681   1.281   5.816 -0.0730  0.2383  0.1100
    1OPC    NC366086  24.944   9.882   7.958  0.0561 -0.3077  0.0058
    1OPC    PO466087  25.051   9.754   7.496  0.0470 -0.5643  0.0826
    1OPC    GL166088  24.743   9.874   7.120 -0.1827 -0.0528  0.1418
    1OPC    GL266089  24.727   9.841   6.812 -0.1534  0.1607  0.3419
    1OPC    C1B66090  24.442   9.904   6.430  0.4045  0.1679 -0.0420
    1OPC    D2B66091  24.305   9.980   5.965 -0.1352 -0.1793  0.1075
    1OPC    C3B66092  24.526  10.086   5.625  0.1538 -0.4173 -0.4883
    1OPC    C4B66093  24.643  10.170   5.205  0.1850  0.0517 -0.0658
    1OPC    NC366094  26.156   6.244   6.497 -0.0346  0.1951  0.1216
    1OPC    PO466095  26.321   5.793   6.593 -0.0213  0.4558 -0.2977
    1OPC    GL166096  26.168   5.891   6.184 -0.1825 -0.0208 -0.0633
    1OPC    GL266097  25.914   5.976   5.968 -0.1335 -0.1221 -0.1721
    1OPC    C1B66098  25.579   5.780   5.797 -0.0555  0.0358  0.1063
    1OPC    D2B66099  25.306   5.751   5.473  0.1716 -0.0928  0.1167
    1OPC    C3B66100  24.871   5.627   5.696  0.0491  0.0774 -0.1495
    1OPC    C4B66101  24.625   5.987   5.854 -0.2993  0.1245 -0.1260
    1OPC    NC366102  22.808  15.694   7.613  0.0334 -0.1320  0.0751
    1OPC    PO466103  22.454  15.468   7.650 -0.0174  0.1012  0.0260
    1OPC    GL166104  22.235  15.442   7.267  0.1190 -0.1046  0.0002
    1OPC    GL266105  22.117  15.581   6.990  0.2052  0.2385 -0.0548
    1OPC    C1B66106  21.866  15.834   6.540  0.2726  0.1322  0.0289
    1OPC    D2B66107  21.774  15.976   6.095  0.1465 -0.1189 -0.2387
    1OPC    C3B66108  22.039  16.325   5.963  0.1560  0.1875 -0.0235
    1OPC    C4B66109  22.233  16.649   5.825 -0.0989 -0.2911 -0.0166
    1OPC    NC366110  23.424  13.770   7.399  0.2178 -0.5994  0.2151
    1OPC    PO466111  23.117  14.007   7.176  0.0362 -0.0691 -0.0254
    1OPC    GL166112  23.220  14.156   6.750 -0.0545 -0.1038  0.0370
    1OPC    GL266113  23.338  14.014   6.468 -0.0174  0.4638  0.1693
    1OPC    C1B66114  23.601  13.983   6.061 -0.1623  0.1125 -0.1137
    1OPC    D2B66115  23.468  14.126   5.690 -0.0648  0.1995 -0.0986
    1OPC    C3B66116  23.622  13.934   5.290  0.0466 -0.0322  0.1132
    1OPC    C4B66117  23.858  13.781   4.928  0.0738 -0.3375 -0.2645
    1OPC    NC366118   9.213   2.080   7.587  0.1418  0.2830  0.1745
    1OPC    PO466119   9.535   2.466   7.512  0.0155 -0.2264 -0.1923
    1OPC    GL166120   9.543   2.607   7.143  0.0060 -0.0475  0.2180
    1OPC    GL266121   9.675   2.564   6.900  0.3070 -0.3117 -0.0845
    1OPC    C1B66122   9.746   2.495   6.531  0.2251 -0.1885 -0.1348
    1OPC    D2B66123  10.007   2.566   6.282  0.0925  0.0317 -0.1465
    1OPC    C3B66124  10.041   3.017   6.149 -0.4735  0.2125 -0.3944
    1OPC    C4B66125  10.293   3.342   6.347 -0.1457  0.0665  0.2032
    1OPC    NC366126  20.176  21.079   7.738 -0.1692  0.1769  0.2650
    1OPC    PO466127  20.079  20.786   7.387  0.0617  0.1103 -0.0958
    1OPC    GL166128  20.008  20.904   6.936  0.2896 -0.1070 -0.2152
    1OPC    GL266129  19.925  20.779   6.606  0.0434 -0.3262 -0.2077
    1OPC    C1B66130  19.900  20.947   6.205 -0.1904  0.1258 -0.1644
    1OPC    D2B66131  20.074  21.209   5.938  0.2780  0.1793 -0.3523
    1OPC    C3B66132  19.903  21.221   5.524 -0.0561 -0.0895  0.0419
    1OPC    C4B66133  19.823  21.337   5.054 -0.0751 -0.0764 -0.2090
    1OPC    NC366134   2.540  15.960   7.065 -0.0382 -0.0173 -0.2682
    1OPC    PO466135   2.751  15.674   7.035  0.1513 -0.2988  0.2092
    1OPC    GL166136   2.781  15.740   6.601 -0.0365  0.3438 -0.0313
    1OPC    GL266137   2.935  15.855   6.387  0.1567  0.0981  0.3545
    1OPC    C1B66138   3.099  15.872   5.929 -0.1031  0.0659 -0.2235
    1OPC    D2B66139   3.235  16.107   5.600  0.3491  0.1168  0.2186
    1OPC    C3B66140   3.125  16.330   5.285 -0.0793 -0.1156  0.0089
    1OPC    C4B66141   2.733  16.417   5.054 -0.0855 -0.1634 -0.0067
    1OPC    NC366142  21.107  25.589   7.645 -0.2059 -0.2959  0.1872
    1OPC    PO466143  20.684  25.650   7.504  0.0300 -0.3516 -0.1594
    1OPC    GL166144  20.584  25.630   7.087 -0.0006  0.0014  0.2686
    1OPC    GL266145  20.431  25.893   6.824  0.1717  0.2478  0.0518
    1OPC    C1B66146  20.324  26.319   6.442  0.3478 -0.2216 -0.0278
    1OPC    D2B66147  20.584  26.363   6.030 -0.1312  0.1590 -0.2103
    1OPC    C3B66148  20.486  26.204   5.694 -0.0665  0.1357  0.0683
    1OPC    C4B66149  20.524  25.875   5.441 -0.3178 -0.0667 -0.2024
    1OPC    NC366150  25.344   4.065   6.887  0.0035 -0.0398  0.1952
    1OPC    PO466151  24.950   4.241   6.846 -0.1654 -0.0370  0.3687
    1OPC    GL166152  25.198   4.257   6.469  0.0852 -0.0751 -0.0184
    1OPC    GL266153  25.187   4.315   6.215 -0.1037 -0.4142 -0.3476
    1OPC    C1B66154  25.065   4.402   5.959 -0.2955  0.1702  0.2256
    1OPC    D2B66155  25.087   4.604   5.545 -0.2522  0.0860  0.1263
    1OPC    C3B66156  24.839   4.591   5.241 -0.3219  0.2322 -0.1098
    1OPC    C4B66157  24.434   4.669   5.333  0.0170  0.0249  0.1536
    1OPC    NC366158  18.129  22.724   7.433  0.0735 -0.2402  0.0876
    1OPC    PO466159  18.441  23.045   7.236  0.0373  0.1812 -0.1272
    1OPC    GL166160  18.739  23.253   6.932 -0.1786 -0.0940  0.2092
    1OPC    GL266161  18.958  23.302   6.702 -0.0470 -0.2157 -0.0669
    1OPC    C1B66162  19.096  23.107   6.365 -0.2434  0.0669  0.0553
    1OPC    D2B66163  19.136  23.072   5.938 -0.1769 -0.0615  0.1280
    1OPC    C3B66164  19.217  22.929   5.616 -0.0916 -0.2677  0.1356
    1OPC    C4B66165  19.160  23.016   5.157  0.1605  0.4281  0.0025
    1OPC    NC366166  19.389   3.469   6.668  0.0126  0.3279  0.0703
    1OPC    PO466167  19.359   3.212   6.327  0.0553 -0.1845  0.0064
    1OPC    GL166168  19.678   3.430   6.044 -0.2531  0.1234 -0.0639
    1OPC    GL266169  19.548   3.587   5.861 -0.1154 -0.0792  0.1114
    1OPC    C1B66170  19.188   3.711   5.585  0.0081  0.1030 -0.0978
    1OPC    D2B66171  18.840   4.069   5.516  0.0533  0.3240  0.2643
    1OPC    C3B66172  18.776   4.360   5.209  0.0054  0.0491 -0.0802
    1OPC    C4B66173  18.908   4.619   4.808 -0.2726 -0.0287 -0.0873
    1OPC    NC366174  10.735   9.666   7.250 -0.0282  0.1469  0.0047
    1OPC    PO466175  10.274   9.529   7.330  0.0576 -0.1411  0.0739
    1OPC    GL166176  10.225   9.303   7.082 -0.2612  0.0888  0.2330
    1OPC    GL266177  10.160   9.360   6.725  0.1145  0.0168 -0.0429
    1OPC    C1B66178  10.254   9.436   6.243 -0.0569  0.0193  0.0622
    1OPC    D2B66179  10.080   9.621   5.841 -0.4035  0.1298  0.2105
    1OPC    C3B66180  10.402   9.730   5.530 -0.1053 -0.0093 -0.1283
    1OPC    C4B66181  10.696  10.072   5.251  0.1504 -0.0363 -0.1332
    1OPC    NC366182  26.569  18.655   7.434  0.0837  0.0930  0.3674
    1OPC    PO466183  26.853  18.671   7.071  0.0449  0.3288 -0.2701
    1OPC    GL166184  26.680  18.478   6.605 -0.2487  0.0364  0.2680
    1OPC    GL266185  26.820  18.472   6.280 -0.1103  0.0935  0.2727
    1OPC    C1B66186  26.714  18.608   5.863  0.1880  0.0096 -0.1282
    1OPC    D2B66187  26.913  18.360   5.552  0.0417  0.1615 -0.0493
    1OPC    C3B66188  26.987  18.581   5.124 -0.1548 -0.1286  0.0571
    1OPC    C4B66189  27.081  18.576   4.631  0.0519 -0.0030 -0.1267
    1OPC    NC366190  28.070  19.716   7.171 -0.0641  0.0850 -0.2503
    1OPC    PO466191   0.010  19.544   6.751 -0.1927  0.1616  0.0461
    1OPC    GL166192   0.118  19.444   6.329  0.0426  0.0891 -0.1473
    1OPC    GL266193   0.191  19.257   6.129 -0.0726  0.2690  0.3089
    1OPC    C1B66194   0.233  19.032   5.890 -0.3284 -0.1899  0.1675
    1OPC    D2B66195   0.050  19.175   5.462 -0.3279  0.1081 -0.2126
    1OPC    C3B66196   0.024  18.870   5.018  0.0751  0.1121 -0.1253
    1OPC    C4B66197   0.380  18.747   4.841 -0.0709 -0.0297  0.0202
    1OPC    NC366198  24.165  28.056   7.905 -0.3063  0.2880  0.1027
    1OPC    PO466199  23.884   0.075   7.481  0.0134 -0.1745  0.0689
    1OPC    GL166200  24.074   0.212   7.128 -0.0014 -0.0837  0.2887
    1OPC    GL266201  24.129   0.211   6.792 -0.1481  0.0965 -0.2841
    1OPC    C1B66202  24.195   0.180   6.302 -0.0768  0.1237  0.0739
    1OPC    D2B66203  24.171   0.081   5.911  0.0872  0.0491 -0.1185
    1OPC    C3B66204  23.946   0.366   5.610 -0.1740 -0.2859  0.0111
    1OPC    C4B66205  23.696   0.511   5.311 -0.1142  0.2129 -0.0517
    1OPC    NC366206   0.017  25.371   7.066  0.0782 -0.2552  0.0140
    1OPC    PO466207   0.258  25.534   6.694 -0.0125  0.0132 -0.0598
    1OPC    GL166208  28.060  25.291   6.545 -0.0688 -0.1817 -0.0035
    1OPC    GL266209  27.907  25.222   6.261 -0.0299  0.1016 -0.0844
    1OPC    C1B66210  27.588  25.180   6.035 -0.1173 -0.0628  0.1961
    1OPC    D2B66211  27.517  25.486   5.713  0.2763  0.0774  0.0578
    1OPC    C3B66212  27.296  25.676   5.295 -0.0825  0.4537 -0.1695
    1OPC    C4B66213  27.195  25.835   4.932  0.0620 -0.0178  0.2177
    1OPC    NC366214   7.290   9.410   7.073  0.1084  0.1641 -0.0822
    1OPC    PO466215   7.143   8.945   6.843 -0.0186  0.1261 -0.2185
    1OPC    GL166216   7.504   8.934   6.484 -0.2046 -0.0921  0.0385
    1OPC    GL266217   7.643   8.653   6.380 -0.1660 -0.1716 -0.0886
    1OPC    C1B66218   7.775   8.423   6.208 -0.0727  0.0095  0.1984
    1OPC    D2B66219   7.876   8.391   5.865  0.0888 -0.1127  0.0787
    1OPC    C3B66220   8.213   8.148   5.831  0.0790  0.1335 -0.0652
    1OPC    C4B66221   8.540   8.019   5.595 -0.0177 -0.1625  0.0508
    1OPC    NC366222  18.944  19.410   7.374  0.2555 -0.1931  0.5060
    1OPC    PO466223  18.893  19.816   7.533  0.2138 -0.0768 -0.2410
    1OPC    GL166224  18.709  19.846   7.130  0.0646  0.0869 -0.3324
    1OPC    GL266225  18.478  19.951   6.970 -0.0101 -0.0712  0.0963
    1OPC    C1B66226  18.258  20.156   6.601 -0.1383  0.0008  0.1238
    1OPC    D2B66227  18.310  20.488   6.307 -0.2111  0.4205 -0.1268
    1OPC    C3B66228  18.578  20.519   5.943 -0.0486 -0.4365  0.0368
    1OPC    C4B66229  18.768  20.352   5.624  0.0183 -0.3940  0.1826
    1OPC    NC366230   4.727  21.985   7.365  0.0168 -0.5169 -0.2829
    1OPC    PO466231   4.334  21.803   7.148 -0.2651  0.0812  0.1930
    1OPC    GL166232   4.493  21.859   6.797  0.0343  0.0573 -0.1167
    1OPC    GL266233   4.464  22.023   6.539 -0.0424 -0.1562 -0.0828
    1OPC    C1B66234   4.269  21.844   6.228 -0.2781  0.2454  0.0663
    1OPC    D2B66235   4.135  21.633   5.840  0.1738 -0.2941  0.0680
    1OPC    C3B66236   3.838  21.943   5.711  0.0371  0.1346  0.0470
    1OPC    C4B66237   3.390  21.959   5.715 -0.1160 -0.1102 -0.0139
    1OPC    NC366238   0.195   2.873   6.335 -0.4458 -0.1230  0.0231
    1OPC    PO466239  28.014   2.573   6.277  0.0129 -0.4185 -0.6388
    1OPC    GL166240   0.045   2.513   5.840  0.1006  0.0175 -0.3404
    1OPC    GL266241   0.157   2.396   5.685  0.0270  0.0871  0.0793
    1OPC    C1B66242   0.163   2.589   5.290  0.0316  0.2902  0.3963
    1OPC    D2B66243   0.250   2.945   5.084 -0.1029  0.1669  0.0695
    1OPC    C3B66244   0.139   3.195   4.765 -0.2074 -0.2109  0.1305
    1OPC    C4B66245   0.162   3.240   4.339  0.1351 -0.2185 -0.0932
    1OPC    NC366246  17.588  19.826   7.157 -0.2184  0.2087  0.1241
    1OPC    PO466247  17.579  20.328   7.092  0.2541  0.4270 -0.2346
    1OPC    GL166248  17.393  20.404   6.688  0.0054  0.3038  0.1167
    1OPC    GL266249  17.327  20.085   6.461 -0.1224  0.1582 -0.2434
    1OPC    C1B66250  17.325  19.823   6.105  0.1166 -0.0090 -0.0354
    1OPC    D2B66251  17.205  19.598   5.759  0.2720  0.0506  0.0841
    1OPC    C3B66252  17.340  19.566   5.353  0.0857 -0.1067 -0.1724
    1OPC    C4B66253  17.562  19.312   5.068 -0.0789 -0.1350 -0.1311
    1OPC    NC366254   7.425  16.564   8.086 -0.0524 -0.0360 -0.2868
    1OPC    PO466255   7.647  16.807   7.810 -0.0795 -0.0111 -0.1371
    1OPC    GL166256   7.593  16.638   7.330  0.0963 -0.1655  0.0424
    1OPC    GL266257   7.694  16.510   7.150  0.1919  0.0667 -0.0526
    1OPC    C1B66258   7.866  16.511   6.837  0.2350 -0.2607 -0.0287
    1OPC    D2B66259   8.039  16.753   6.438  0.1734  0.2780 -0.1074
    1OPC    C3B66260   7.774  16.702   6.099  0.1329  0.0413  0.0049
    1OPC    C4B66261   7.675  16.540   5.707  0.1968 -0.3438  0.0632
    1OPC    NC366262  25.494   8.195   7.534  0.0044 -0.0822  0.0703
    1OPC    PO466263  25.424   8.168   6.924 -0.0483 -0.0591  0.3541
    1OPC    GL166264  25.498   8.365   6.518 -0.0796  0.1544  0.3100
    1OPC    GL266265  25.520   8.238   6.213  0.0030  0.0043  0.1427
    1OPC    C1B66266  25.509   8.155   5.823  0.3025  0.1336 -0.0749
    1OPC    D2B66267  25.267   8.308   5.556 -0.1334  0.0582  0.1809
    1OPC    C3B66268  25.319   8.387   5.117 -0.3361 -0.1999 -0.0283
    1OPC    C4B66269  25.551   8.838   5.023  0.2355 -0.0297 -0.0355
    1OPC    NC366270  28.074  19.915   6.392  0.1205  0.1338  0.2831
    1OPC    PO466271  27.867  20.173   6.693  0.1008 -0.2348  0.0714
    1OPC    GL166272  27.601  20.005   6.279 -0.0446 -0.0377  0.0356
    1OPC    GL266273  27.460  19.935   6.019 -0.2949  0.0495 -0.4393
    1OPC    C1B66274  27.496  19.944   5.494  0.1129  0.1049 -0.4248
    1OPC    D2B66275  27.709  20.176   5.247 -0.0701 -0.1685  0.2014
    1OPC    C3B66276  27.794  20.593   5.397 -0.1949 -0.0344  0.0488
    1OPC    C4B66277  27.530  20.981   5.364  0.1167  0.0722 -0.0725
    1OPC    NC366278  13.443   8.132   8.044 -0.0535  0.1457  0.2369
    1OPC    PO466279  13.609   7.785   7.879  0.1056  0.1158 -0.0073
    1OPC    GL166280  13.295   7.921   7.628  0.1704 -0.2175 -0.0944
    1OPC    GL266281  13.252   8.118   7.332  0.2549 -0.2268  0.1607
    1OPC    C1B66282  13.300   8.226   6.851  0.0267 -0.1990  0.0804
    1OPC    D2B66283  13.307   8.363   6.419  0.0066 -0.2363  0.1784
    1OPC    C3B66284  13.608   8.370   6.150  0.0962 -0.1407 -0.0184
    1OPC    C4B66285  13.886   8.506   5.901  0.2026  0.1611  0.1744
    1OPC    NC366286   2.264   5.803   6.622  0.0241  0.2454  0.0559
    1OPC    PO466287   2.423   5.973   6.247  0.0696 -0.1992 -0.0385
    1OPC    GL166288   2.192   6.126   5.924  0.0332  0.4938  0.2358
    1OPC    GL266289   2.108   6.147   5.561  0.1169 -0.1086  0.1760
    1OPC    C1B66290   2.034   6.196   5.118 -0.0591  0.2516  0.0294
    1OPC    D2B66291   1.960   6.198   4.690  0.1484 -0.0939  0.0772
    1OPC    C3B66292   2.242   6.401   4.381  0.3934  0.0211  0.0447
    1OPC    C4B66293   2.135   6.498   3.910  0.1673  0.1334  0.0603
    1OPC    NC366294   4.327  16.049   7.675 -0.2147  0.0523  0.2473
    1OPC    PO466295   4.350  15.600   7.664 -0.1701 -0.0754  0.2729
    1OPC    GL166296   4.557  15.362   7.357 -0.0691 -0.0859 -0.0983
    1OPC    GL266297   4.444  15.219   7.062 -0.1930  0.5799  0.1307
    1OPC    C1B66298   4.333  15.247   6.579 -0.1473  0.2886  0.0845
    1OPC    D2B66299   4.201  15.492   6.230  0.1861  0.0791  0.1064
    1OPC    C3B66300   4.563  15.561   5.866 -0.2334 -0.1497  0.0956
    1OPC    C4B66301   4.804  15.661   5.554  0.0762 -0.2048  0.2170
    1OPC    NC366302  24.782   6.108   8.003 -0.2800  0.0804  0.0612
    1OPC    PO466303  24.534   5.744   7.786 -0.1817  0.0721  0.0119
    1OPC    GL166304  24.360   5.551   7.428  0.2153  0.1213 -0.1102
    1OPC    GL266305  24.320   5.539   7.065 -0.2785  0.1016 -0.0045
    1OPC    C1B66306  24.408   5.467   6.598 -0.3597 -0.2293  0.1279
    1OPC    D2B66307  24.513   5.514   6.087  0.3299  0.0557  0.2892
    1OPC    C3B66308  24.287   5.677   5.636 -0.1438  0.0057 -0.2062
    1OPC    C4B66309  24.170   5.734   5.196 -0.0209 -0.0723 -0.0217
    1OPC    NC366310   0.606  22.787   6.829 -0.0053  0.0869  0.1489
    1OPC    PO466311   0.312  22.596   6.616  0.1849  0.4212 -0.1570
    1OPC    GL166312   0.214  23.032   6.435 -0.0718  0.2466  0.0597
    1OPC    GL266313   0.121  23.196   6.177  0.1081  0.0590 -0.1291
    1OPC    C1B66314   0.239  23.334   5.880  0.1189  0.2464 -0.1269
    1OPC    D2B66315   0.164  23.346   5.383  0.0108  0.0542 -0.1226
    1OPC    C3B66316   0.174  23.816   5.208 -0.1743 -0.0750 -0.1400
    1OPC    C4B66317   0.041  24.269   5.140  0.0675 -0.0717  0.0182
    1OPC    NC366318  15.886  13.821   8.019 -0.0616 -0.0219 -0.2386
    1OPC    PO466319  15.524  13.904   7.975 -0.1459  0.1971 -0.2927
    1OPC    GL166320  15.480  13.694   7.609  0.1867 -0.3021  0.0968
    1OPC    GL266321  15.412  13.625   7.278 -0.0123  0.0590 -0.2066
    1OPC    C1B66322  15.485  13.746   6.772  0.0761 -0.1656  0.1226
    1OPC    D2B66323  15.465  13.521   6.402  0.1932  0.1476  0.3073
    1OPC    C3B66324  15.144  13.383   6.416 -0.1108 -0.1369  0.0462
    1OPC    C4B66325  14.766  13.158   6.631 -0.0745  0.2938  0.2901
    1OPC    NC366326  12.631  15.345   8.150 -0.1061 -0.0513 -0.2484
    1OPC    PO466327  12.678  15.091   7.800  0.0294  0.0932 -0.0861
    1OPC    GL166328  12.703  14.950   7.411 -0.2594  0.1421 -0.1444
    1OPC    GL266329  12.678  14.981   7.158 -0.1712  0.1690  0.0282
    1OPC    C1B66330  12.377  14.750   6.819 -0.2843  0.0939  0.0643
    1OPC    D2B66331  12.406  14.497   6.441  0.1248 -0.3778  0.1455
    1OPC    C3B66332  12.557  14.765   6.068  0.0913 -0.1538 -0.1461
    1OPC    C4B66333  12.470  15.035   5.712 -0.0619  0.0368  0.0742
    1OPC    NC366334  26.012   5.188   7.132 -0.1186  0.3351 -0.1088
    1OPC    PO466335  26.338   4.919   6.845 -0.1265  0.0456 -0.0914
    1OPC    GL166336  26.117   4.717   6.542  0.0945  0.4571  0.3939
    1OPC    GL266337  26.070   4.471   6.238  0.0266 -0.0599  0.1289
    1OPC    C1B66338  25.602   4.441   5.961  0.0460  0.0471  0.2541
    1OPC    D2B66339  25.435   4.279   5.627 -0.1360  0.0638 -0.1374
    1OPC    C3B66340  25.049   4.102   5.522  0.0089 -0.4173  0.4363
    1OPC    C4B66341  24.684   4.120   5.362  0.1836 -0.1172 -0.1166
    1OPC    NC366342   6.805  20.955   7.998  0.2393 -0.0645  0.0898
    1OPC    PO466343   6.651  20.560   7.904 -0.2557  0.0320  0.1608
    1OPC    GL166344   6.771  20.599   7.529 -0.2056 -0.1053  0.3790
    1OPC    GL266345   6.821  20.566   7.300 -0.2898 -0.0555  0.3357
    1OPC    C1B66346   6.834  20.094   7.094  0.3940 -0.1203  0.0625
    1OPC    D2B66347   6.830  19.805   6.726  0.3981  0.1582  0.0737
    1OPC    C3B66348   6.966  19.771   6.354  0.2909  0.1222  0.0443
    1OPC    C4B66349   7.163  19.387   6.180 -0.0476  0.0128 -0.0940
    1OPC    NC366350  23.731  27.219   7.376 -0.0889 -0.0683 -0.4250
    1OPC    PO466351  24.101  26.905   7.248 -0.4180  0.2557  0.2279
    1OPC    GL166352  23.957  27.070   6.962  0.0474 -0.0500  0.1240
    1OPC    GL266353  23.818  26.860   6.662  0.0792  0.0958 -0.1092
    1OPC    C1B66354  23.786  26.914   6.196 -0.2433  0.0015  0.1388
    1OPC    D2B66355  23.559  26.786   5.846 -0.0730 -0.2242 -0.2820
    1OPC    C3B66356  23.581  26.684   5.336 -0.4457 -0.0069 -0.0011
    1OPC    C4B66357  23.839  26.625   5.187 -0.0142  0.1152  0.0790
    1OPC    NC366358  24.370  23.369   6.879 -0.1646  0.1900 -0.2913
    1OPC    PO466359  24.538  23.031   6.706  0.2727  0.0217  0.0225
    1OPC    GL166360  24.116  22.991   6.627 -0.2357 -0.0704  0.2368
    1OPC    GL266361  23.799  22.971   6.428 -0.3340  0.4669 -0.0161
    1OPC    C1B66362  23.635  22.777   6.071  0.1029 -0.1208  0.0774
    1OPC    D2B66363  23.414  22.905   5.695 -0.0409 -0.1167  0.0077
    1OPC    C3B66364  23.511  23.071   5.231  0.0955 -0.3508  0.0442
    1OPC    C4B66365  23.370  23.356   4.955 -0.0923 -0.1382 -0.0864
    1OPC    NC366366  20.629   4.942   6.796  0.3445  0.1691  0.3934
    1OPC    PO466367  20.383   4.641   7.000  0.1335 -0.2546  0.0322
    1OPC    GL166368  20.175   4.731   6.658 -0.2592  0.0032 -0.0644
    1OPC    GL266369  20.018   4.830   6.498  0.0199 -0.1013 -0.2495
    1OPC    C1B66370  19.863   5.148   6.297  0.0874  0.2261  0.1291
    1OPC    D2B66371  19.760   5.548   6.450 -0.0341  0.0157  0.1247
    1OPC    C3B66372  19.847   5.922   6.300 -0.0458 -0.1843  0.4158
    1OPC    C4B66373  19.699   6.348   6.389  0.0968 -0.3042 -0.1787
    1OPC    NC366374   6.519   4.893   7.283 -0.3214 -0.1634  0.2149
    1OPC    PO466375   6.802   4.844   7.050 -0.0662  0.0261  0.1028
    1OPC    GL166376   6.876   5.131   6.657 -0.0748 -0.0831 -0.3405
    1OPC    GL266377   7.029   5.094   6.372 -0.0903  0.1842 -0.2529
    1OPC    C1B66378   7.253   5.004   6.013  0.0260 -0.1585  0.0233
    1OPC    D2B66379   7.291   4.958   5.529  0.3620  0.2260 -0.0101
    1OPC    C3B66380   7.730   5.113   5.376 -0.2619 -0.1561  0.1536
    1OPC    C4B66381   8.040   5.296   5.120 -0.0733 -0.0303 -0.0227
    1OPC    NC366382  11.509  26.581   6.951 -0.3402 -0.0494  0.0910
    1OPC    PO466383  11.218  26.425   6.653 -0.0019 -0.0348  0.0873
    1OPC    GL166384  11.591  26.721   6.508  0.1617  0.1588  0.1986
    1OPC    GL266385  11.815  26.825   6.239  0.3828 -0.0235  0.2266
    1OPC    C1B66386  12.041  26.846   5.764  0.2034 -0.3062 -0.3115
    1OPC    D2B66387  12.107  26.760   5.328 -0.3674  0.0418  0.0866
    1OPC    C3B66388  11.905  26.874   5.119  0.0488 -0.0789  0.1222
    1OPC    C4B66389  11.837  27.005   4.644  0.1651  0.3575  0.1375
    1OPC    NC366390   1.431  16.764   6.875  0.2137 -0.1949  0.4906
    1OPC    PO466391   1.645  16.422   7.024 -0.1439 -0.1822 -0.1762
    1OPC    GL166392   1.723  16.472   6.532  0.1545 -0.3316  0.1579
    1OPC    GL266393   1.719  16.634   6.199  0.0211  0.2078 -0.4627
    1OPC    C1B66394   1.894  16.668   5.821 -0.0670 -0.2369 -0.0026
    1OPC    D2B66395   1.923  16.699   5.393 -0.2516  0.1009  0.5009
    1OPC    C3B66396   2.016  17.049   5.221 -0.4298 -0.2276  0.0467
    1OPC    C4B66397   2.077  17.361   4.919 -0.2952  0.0174  0.2127
    1OPC    NC366398  12.445   9.138   8.011  0.0355 -0.1108 -0.1487
    1OPC    PO466399  12.489   9.166   7.705  0.0944 -0.2224 -0.0382
    1OPC    GL166400  12.210   9.071   7.451  0.1169 -0.0449  0.1357
    1OPC    GL266401  12.236   8.960   7.148  0.2241 -0.0947  0.0526
    1OPC    C1B66402  12.018   8.635   6.894 -0.1752  0.2071 -0.0993
    1OPC    D2B66403  12.234   8.599   6.444  0.0710  0.2283 -0.0549
    1OPC    C3B66404  12.194   8.659   6.070  0.1126 -0.0344  0.1381
    1OPC    C4B66405  11.859   8.683   5.679 -0.1637 -0.1200 -0.1070
    1OPC    NC366406   1.743   6.176   6.235  0.0212 -0.2254 -0.3050
    1OPC    PO466407   1.529   5.846   6.364 -0.1238  0.2857  0.0669
    1OPC    GL166408   1.493   5.758   5.977 -0.1285 -0.3559 -0.0570
    1OPC    GL266409   1.312   5.747   5.613  0.0935 -0.3561 -0.5570
    1OPC    C1B66410   1.266   5.859   5.234 -0.1315 -0.0193  0.0402
    1OPC    D2B66411   1.048   6.107   5.032  0.4106 -0.1143  0.1100
    1OPC    C3B66412   1.098   6.244   4.625 -0.0016  0.0380  0.0098
    1OPC    C4B66413   1.356   6.210   4.285  0.1922  0.1183 -0.1007
    1OPC    NC366414  16.456   2.883   7.497 -0.1771  0.0594 -0.0456
    1OPC    PO466415  16.819   3.214   7.352 -0.0340  0.0729  0.0434
    1OPC    GL166416  16.989   3.319   7.017  0.1599 -0.1203 -0.2142
    1OPC    GL266417  16.989   3.555   6.793 -0.0089  0.3462 -0.0743
    1OPC    C1B66418  16.934   3.760   6.358 -0.0426  0.1298 -0.0372
    1OPC    D2B66419  16.559   3.642   6.098  0.0483 -0.1145  0.1698
    1OPC    C3B66420  16.371   3.901   5.777  0.1324  0.0381  0.2021
    1OPC    C4B66421  16.301   4.044   5.383 -0.2168 -0.5257 -0.1665
    1OPC    NC366422   4.677   4.924   5.994 -0.0034 -0.1407  0.1056
    1OPC    PO466423   4.349   4.597   6.017 -0.2022  0.1564  0.2235
    1OPC    GL166424   4.287   4.814   5.632  0.0516 -0.2239  0.2614
    1OPC    GL266425   4.313   5.001   5.429 -0.0337 -0.5555  0.0146
    1OPC    C1B66426   4.411   4.958   4.973 -0.1980  0.0983  0.0588
    1OPC    D2B66427   4.378   4.988   4.471  0.3885  0.1377  0.2763
    1OPC    C3B66428   4.428   5.085   4.080 -0.1466  0.2129  0.1929
    1OPC    C4B66429   4.172   5.448   3.927 -0.3458 -0.3349 -0.0375
    1OPC    NC366430   3.899   3.037   6.743  0.0999 -0.4031  0.1173
    1OPC    PO466431   3.849   2.650   6.777 -0.3510 -0.1783  0.1249
    1OPC    GL166432   3.974   2.659   6.427 -0.0749  0.0066  0.3125
    1OPC    GL266433   4.082   2.733   6.142  0.1394  0.2962 -0.0709
    1OPC    C1B66434   4.047   2.794   5.684  0.3412  0.2716  0.1672
    1OPC    D2B66435   4.026   2.679   5.280 -0.1626  0.0894 -0.0897
    1OPC    C3B66436   3.705   2.430   5.087 -0.0631 -0.4468  0.0284
    1OPC    C4B66437   3.333   2.652   5.080  0.1764  0.0376 -0.2266
    1OPC    NC366438   2.130   3.674   6.633 -0.2464  0.0483  0.1750
    1OPC    PO466439   1.884   3.818   6.258 -0.0656  0.1404 -0.1185
    1OPC    GL166440   1.711   3.975   5.879  0.0417 -0.2762 -0.1438
    1OPC    GL266441   1.742   4.032   5.547 -0.1676  0.0262 -0.0524
    1OPC    C1B66442   1.774   3.852   5.181 -0.1715 -0.1024  0.2854
    1OPC    D2B66443   1.922   3.573   4.993  0.0415  0.1512 -0.0249
    1OPC    C3B66444   1.964   3.719   4.558 -0.3527 -0.1529  0.1510
    1OPC    C4B66445   2.111   3.922   4.291  0.1632 -0.1411 -0.0949
    1OPC    NC366446   7.115   5.303   7.036 -0.0559 -0.2477 -0.2948
    1OPC    PO466447   7.522   5.100   6.838  0.4241  0.1418  0.4074
    1OPC    GL166448   7.516   5.333   6.503 -0.0524 -0.0837 -0.0094
    1OPC    GL266449   7.642   5.300   6.220 -0.0297  0.0045 -0.2274
    1OPC    C1B66450   7.872   5.259   5.857  0.1153  0.0789  0.0358
    1OPC    D2B66451   8.128   5.564   5.655 -0.2008  0.2283  0.1848
    1OPC    C3B66452   8.165   5.910   5.598  0.1572 -0.1863  0.1727
    1OPC    C4B66453   8.330   6.200   5.299  0.2228  0.0667 -0.2134
    1OPC    NC366454  24.132  11.332   7.327  0.3001 -0.1653 -0.0256
    1OPC    PO466455  23.741  11.439   7.125 -0.0754  0.1868  0.2729
    1OPC    GL166456  23.859  11.266   6.672  0.1089  0.2790 -0.1851
    1OPC    GL266457  23.831  11.216   6.284 -0.1722  0.2637  0.0152
    1OPC    C1B66458  24.105  11.021   5.946 -0.5299 -0.0489  0.2258
    1OPC    D2B66459  24.335  11.125   5.567 -0.0512 -0.0287  0.0738
    1OPC    C3B66460  24.356  11.419   5.292  0.2246 -0.0809 -0.0496
    1OPC    C4B66461  24.503  11.293   4.971  0.0311  0.2106 -0.0303
    1OPC    NC366462   6.319   2.716   6.922 -0.0387  0.0898 -0.1311
    1OPC    PO466463   6.432   2.321   6.762 -0.0014 -0.0430  0.1253
    1OPC    GL166464   6.862   2.476   6.603 -0.5426  0.0642  0.0933
    1OPC    GL266465   7.077   2.531   6.202 -0.2527 -0.4232  0.0216
    1OPC    C1B66466   7.117   2.441   5.690  0.1147 -0.0905 -0.3464
    1OPC    D2B66467   7.124   2.085   5.489 -0.0167 -0.2831 -0.3257
    1OPC    C3B66468   7.162   2.053   5.101 -0.1646  0.0905 -0.1427
    1OPC    C4B66469   6.839   1.933   4.715 -0.4357  0.2208 -0.3438
    1OPC    NC366470  18.422  11.329   7.490  0.0236  0.0348  0.0705
    1OPC    PO466471  18.402  11.876   7.508 -0.2612 -0.0798 -0.2627
    1OPC    GL166472  18.572  11.713   7.110  0.2552  0.1114  0.0216
    1OPC    GL266473  18.465  11.714   6.776 -0.1278  0.1766 -0.2192
    1OPC    C1B66474  18.482  11.554   6.371  0.1232 -0.1989 -0.0722
    1OPC    D2B66475  18.305  11.622   5.986 -0.1123 -0.1600 -0.2886
    1OPC    C3B66476  18.115  11.302   5.738 -0.0361  0.1907 -0.0630
    1OPC    C4B66477  17.881  10.923   5.883  0.2735 -0.1919 -0.2063
    1OPC    NC366478  12.666  26.251   7.323 -0.2348 -0.0514 -0.1881
    1OPC    PO466479  12.176  26.399   7.123  0.3029 -0.0913  0.0493
    1OPC    GL166480  12.122  26.489   6.700 -0.0604 -0.2126  0.0759
    1OPC    GL266481  11.951  26.364   6.385  0.0581  0.0446 -0.1895
    1OPC    C1B66482  12.148  26.176   6.023  0.0239  0.0787 -0.2396
    1OPC    D2B66483  12.121  25.868   5.791  0.0958  0.3394 -0.1284
    1OPC    C3B66484  12.429  25.577   5.521  0.1355  0.2568 -0.0044
    1OPC    C4B66485  12.515  25.215   5.224  0.0820  0.0302 -0.3144
    1OPC    NC366486  20.305  17.936   7.865 -0.2145 -0.0407 -0.3202
    1OPC    PO466487  20.552  17.708   7.554 -0.2040  0.2550  0.0582
    1OPC    GL166488  20.288  17.790   7.364  0.1152 -0.0076 -0.0689
    1OPC    GL266489  20.196  17.765   7.118 -0.3064 -0.2117  0.0179
    1OPC    C1B66490  20.143  17.405   6.764 -0.0882 -0.1622 -0.1787
    1OPC    D2B66491  20.170  17.081   6.522 -0.1162  0.3887  0.1063
    1OPC    C3B66492  19.933  16.903   6.217  0.0046  0.0440 -0.3820
    1OPC    C4B66493  19.742  16.891   5.777  0.1783 -0.0115 -0.2569
    1OPC    NC366494  26.032   3.510   7.320 -0.3069 -0.1320 -0.2945
    1OPC    PO466495  26.127   3.879   7.070  0.3401  0.0912  0.3957
    1OPC    GL166496  26.104   4.038   6.561  0.3610  0.1863  0.0504
    1OPC    GL266497  26.218   4.011   6.171  0.2857  0.0111  0.0761
    1OPC    C1B66498  26.451   3.878   5.628  0.1896 -0.0336  0.0528
    1OPC    D2B66499  26.363   3.811   5.208 -0.1934 -0.4366 -0.2029
    1OPC    C3B66500  25.881   3.692   5.104 -0.2524  0.1438 -0.0917
    1OPC    C4B66501  25.486   3.833   5.305  0.2465 -0.0593  0.2013
    1OPC    NC366502  25.533   1.281   6.629  0.1455 -0.1405  0.1170
    1OPC    PO466503  25.444   1.682   6.714  0.0014 -0.2936 -0.1044
    1OPC    GL166504  25.517   1.994   6.470  0.1313 -0.0312 -0.1241
    1OPC    GL266505  25.477   2.306   6.366 -0.0682  0.1296 -0.1938
    1OPC    C1B66506  25.475   2.460   5.865  0.0182  0.0203 -0.1165
    1OPC    D2B66507  25.494   2.849   5.723  0.2208  0.1415  0.0102
    1OPC    C3B66508  25.908   3.080   5.771  0.0652  0.0657 -0.0439
    1OPC    C4B66509  26.215   3.389   5.972 -0.4473 -0.1305 -0.1671
    1OPC    NC366510  11.190   4.837   7.617 -0.2687  0.0096  0.2671
    1OPC    PO466511  10.996   5.217   7.700  0.0032  0.1609 -0.1130
    1OPC    GL166512  10.752   5.512   7.441  0.2674 -0.0938 -0.1773
    1OPC    GL266513  10.848   5.621   7.175 -0.1744 -0.0364 -0.0186
    1OPC    C1B66514  10.738   5.719   6.862  0.1341 -0.1774 -0.1183
    1OPC    D2B66515  10.669   5.570   6.400  0.0389 -0.0745  0.1142
    1OPC    C3B66516  11.008   5.295   6.157 -0.1626  0.0394  0.0863
    1OPC    C4B66517  11.161   5.093   5.822  0.0111 -0.1243  0.1255
    1OPC    NC366518   1.882   2.127   6.200  0.3179 -0.0350 -0.1207
    1OPC    PO466519   2.291   2.377   6.122  0.1939  0.0390 -0.1683
    1OPC    GL166520   2.175   2.549   5.695  0.0755 -0.1238  0.1407
    1OPC    GL266521   1.974   2.650   5.457 -0.0774  0.4746  0.2829
    1OPC    C1B66522   1.937   2.699   4.967 -0.1415  0.0781  0.0897
    1OPC    D2B66523   1.846   2.608   4.545  0.0399 -0.0984  0.2610
    1OPC    C3B66524   1.901   2.259   4.490  0.1420  0.1947 -0.2328
    1OPC    C4B66525   2.005   1.967   4.769  0.1333 -0.2319  0.1081
    1OPC    NC366526  11.469   9.241   7.678 -0.3390 -0.2512  0.0353
    1OPC    PO466527  11.567   8.787   7.698 -0.3544  0.1516  0.2752
    1OPC    GL166528  11.509   8.979   7.251  0.1515  0.0190  0.0132
    1OPC    GL266529  11.604   8.911   7.014  0.2131  0.0830  0.0890
    1OPC    C1B66530  11.697   8.856   6.546  0.2673  0.2293  0.3487
    1OPC    D2B66531  11.610   8.624   6.255  0.1828  0.2147  0.0217
    1OPC    C3B66532  11.258   8.547   5.951 -0.2624 -0.0885  0.0812
    1OPC    C4B66533  11.134   8.115   5.797 -0.2747 -0.0494  0.0168
    1OPC    NC366534   0.683  20.602   7.094  0.0553 -0.1395 -0.0635
    1OPC    PO466535   0.505  21.018   6.781 -0.0590  0.0353  0.0119
    1OPC    GL166536   0.569  20.689   6.532  0.0821  0.0841  0.2217
    1OPC    GL266537   0.748  20.720   6.357 -0.0634  0.1251 -0.0586
    1OPC    C1B66538   0.799  20.845   5.966 -0.1921  0.0243 -0.1541
    1OPC    D2B66539   0.523  20.915   5.661 -0.1534  0.2411 -0.0197
    1OPC    C3B66540   0.634  20.871   5.221 -0.0031  0.2723 -0.1431
    1OPC    C4B66541   0.671  20.821   4.764 -0.0026 -0.0546  0.1356
    1OPC    NC366542   6.954  27.736   7.015 -0.2129  0.0334 -0.1777
    1OPC    PO466543   6.741  27.330   7.048  0.2098  0.0760 -0.2708
    1OPC    GL166544   6.736  27.095   6.638  0.0287  0.2325 -0.1132
    1OPC    GL266545   6.875  27.154   6.276  0.0255 -0.1303 -0.1229
    1OPC    C1B66546   6.751  26.889   5.940 -0.0805 -0.1637 -0.2019
    1OPC    D2B66547   6.796  26.779   5.524 -0.0002  0.2166 -0.0242
    1OPC    C3B66548   6.683  26.445   5.279 -0.3101  0.0905  0.0718
    1OPC    C4B66549   6.476  26.080   5.263 -0.0072 -0.2258 -0.1096
    1OPC    NC366550  25.519   0.339   7.565 -0.1621  0.0299  0.2795
    1OPC    PO466551  25.273   0.440   7.203  0.1608  0.1235 -0.0314
    1OPC    GL166552  25.393   0.322   6.835  0.0819  0.0570  0.1404
    1OPC    GL266553  25.417   0.322   6.477  0.2122 -0.2545  0.0579
    1OPC    C1B66554  25.681   0.352   6.011 -0.0471  0.0024  0.0611
    1OPC    D2B66555  25.818   0.536   5.588 -0.1661  0.0055  0.0088
    1OPC    C3B66556  26.161   0.358   5.240  0.2098 -0.0682 -0.1250
    1OPC    C4B66557  26.339  28.041   5.162 -0.2858 -0.1277 -0.1915
    1OPC    NC366558  23.032  24.545   3.374 -0.0905  0.0278 -0.2095
    1OPC    PO466559  23.440  24.374   3.461  0.0760  0.1347 -0.1152
    1OPC    GL166560  23.473  24.345   3.928 -0.0718 -0.0303 -0.1826
    1OPC    GL266561  23.446  24.441   4.179  0.0490  0.1222 -0.0774
    1OPC    C1B66562  23.313  24.476   4.566 -0.1850 -0.0201 -0.1533
    1OPC    D2B66563  23.198  24.767   4.674  0.4465  0.2071 -0.0117
    1OPC    C3B66564  23.427  25.093   4.444 -0.2243  0.3138 -0.0715
    1OPC    C4B66565  23.444  25.547   4.511 -0.0294  0.2380 -0.3057
    1OPC    NC366566   8.777   6.592   2.624  0.2799  0.3538  0.0421
    1OPC    PO466567   8.577   6.324   2.955  0.1596  0.2008  0.1744
    1OPC    GL166568   8.331   6.120   3.283 -0.2153  0.3593  0.3440
    1OPC    GL266569   8.311   6.174   3.598 -0.1473  0.0232  0.2148
    1OPC    C1B66570   8.209   6.278   4.014  0.0146 -0.0875 -0.1208
    1OPC    D2B66571   8.193   5.996   4.401  0.0431 -0.0986 -0.1050
    1OPC    C3B66572   8.590   5.755   4.513  0.2435 -0.0563 -0.1138
    1OPC    C4B66573   8.878   5.501   4.790  0.1949 -0.1346 -0.1815
    1OPC    NC366574   0.107   0.805   2.448  0.1631  0.1269  0.1673
    1OPC    PO466575  27.920   0.711   2.613  0.2438 -0.0226  0.2290
    1OPC    GL166576  27.633   1.082   2.769  0.0096  0.1489 -0.1477
    1OPC    GL266577  27.789   1.154   3.065  0.2220 -0.2852  0.0020
    1OPC    C1B66578  27.922   1.214   3.532 -0.0159 -0.0613 -0.2603
    1OPC    D2B66579   0.227   1.385   3.819 -0.4321 -0.1312 -0.1902
    1OPC    C3B66580   0.555   1.367   3.575  0.1935  0.0542  0.1324
    1OPC    C4B66581   0.760   1.250   3.183  0.1495  0.2071 -0.0668
    1OPC    NC366582  26.374   8.321   2.453  0.1801  0.1016 -0.1249
    1OPC    PO466583  26.795   8.231   2.583  0.0827  0.0524 -0.4357
    1OPC    GL166584  26.821   8.041   2.915 -0.0398 -0.0950  0.2343
    1OPC    GL266585  26.712   8.010   3.265  0.0226  0.2822 -0.1472
    1OPC    C1B66586  26.534   8.182   3.594  0.1380  0.1944 -0.1435
    1OPC    D2B66587  26.616   8.339   4.011  0.4140 -0.2681  0.0280
    1OPC    C3B66588  26.994   8.509   4.069 -0.0703  0.0452 -0.1295
    1OPC    C4B66589  27.374   8.577   3.986 -0.2063 -0.1772 -0.3884
    1OPC    NC366590   0.918  17.045   2.394 -0.0477  0.1679 -0.1592
    1OPC    PO466591   0.591  16.660   2.334 -0.0204  0.0266 -0.0368
    1OPC    GL166592   0.676  16.802   2.759  0.1453 -0.0035  0.0147
    1OPC    GL266593   0.576  16.647   3.076 -0.1306 -0.1169  0.2279
    1OPC    C1B66594   0.631  16.627   3.425 -0.2179  0.0327  0.1870
    1OPC    D2B66595   0.826  16.984   3.740  0.2522  0.6344 -0.0825
    1OPC    C3B66596   1.185  17.023   3.983  0.0351 -0.1115 -0.0709
    1OPC    C4B66597   1.409  16.898   4.306  0.0985  0.0121 -0.3251
    1OPC    NC366598   5.852   0.041   1.718  0.0370 -0.1849 -0.0357
    1OPC    PO466599   5.798   0.252   2.074 -0.1604  0.3646 -0.1014
    1OPC    GL166600   5.589   0.406   2.391 -0.2117 -0.3052  0.2213
    1OPC    GL266601   5.556   0.366   2.657 -0.0352 -0.0573  0.1731
    1OPC    C1B66602   5.738   0.452   3.062  0.1101 -0.3779 -0.2161
    1OPC    D2B66603   5.953   0.426   3.498  0.0504  0.1401 -0.0097
    1OPC    C3B66604   5.760   0.531   3.873  0.1635 -0.1935 -0.1090
    1OPC    C4B66605   5.630   0.938   4.016 -0.1298 -0.0349  0.3986
    1OPC    NC366606  25.761  13.714   2.657  0.0304 -0.0125 -0.5318
    1OPC    PO466607  25.829  14.135   2.613 -0.1491  0.0819 -0.1001
    1OPC    GL166608  26.049  14.318   2.849  0.1208  0.0544  0.0536
    1OPC    GL266609  26.146  14.443   3.126 -0.2439  0.1022  0.0952
    1OPC    C1B66610  26.190  14.681   3.463 -0.0660  0.1055 -0.1107
    1OPC    D2B66611  26.339  14.771   3.863  0.1313  0.0153 -0.0592
    1OPC    C3B66612  26.798  14.767   4.070 -0.2817  0.0928 -0.1590
    1OPC    C4B66613  26.665  15.114   4.300  0.1602  0.1008 -0.3212
    1OPC    NC366614  19.478  10.621   3.566  0.0689 -0.3374 -0.0923
    1OPC    PO466615  19.577  10.252   3.652  0.2228 -0.0717  0.2235
    1OPC    GL166616  19.277  10.181   4.035  0.1791 -0.1337  0.0914
    1OPC    GL266617  19.228  10.227   4.311  0.0255  0.1018  0.0406
    1OPC    C1B66618  19.361  10.357   4.685 -0.0012 -0.2860 -0.2013
    1OPC    D2B66619  19.352  10.558   5.041  0.0001 -0.0147 -0.0605
    1OPC    C3B66620  19.246  11.037   5.031 -0.2759 -0.3574 -0.1053
    1OPC    C4B66621  19.247  11.431   4.810 -0.3715 -0.1090  0.1947
    1OPC    NC366622  14.488  10.350   3.092  0.0675  0.0172 -0.2282
    1OPC    PO466623  14.526  10.318   3.569  0.0594  0.0633  0.3164
    1OPC    GL166624  14.459  10.219   3.967 -0.1710 -0.2211  0.1580
    1OPC    GL266625  14.295  10.370   4.227  0.2652  0.2627  0.0835
    1OPC    C1B66626  14.338  10.230   4.578 -0.3199  0.0288 -0.1819
    1OPC    D2B66627  14.214  10.046   4.917  0.5026  0.0370 -0.0284
    1OPC    C3B66628  13.926   9.673   4.842 -0.1769 -0.2060  0.1604
    1OPC    C4B66629  13.574   9.503   5.135 -0.1187  0.2282 -0.0148
    1OPC    NC366630  19.546  19.103   3.331 -0.0637  0.0516  0.2563
    1OPC    PO466631  19.204  19.444   3.334 -0.1923 -0.0149  0.1685
    1OPC    GL166632  19.400  19.498   3.678  0.3043  0.3284  0.1236
    1OPC    GL266633  19.500  19.230   3.978 -0.5597 -0.0364  0.1773
    1OPC    C1B66634  19.297  18.912   4.190  0.1632  0.0453 -0.3067
    1OPC    D2B66635  19.355  18.764   4.638  0.1112 -0.2690  0.1106
    1OPC    C3B66636  19.015  18.758   4.881  0.4475 -0.3461 -0.3423
    1OPC    C4B66637  18.692  18.736   5.277 -0.0872  0.1296 -0.1327
    1OPC    NC366638  15.201  11.853   3.481  0.0654 -0.0420 -0.0599
    1OPC    PO466639  15.407  11.497   3.717 -0.3249 -0.0265 -0.0863
    1OPC    GL166640  15.327  11.565   4.123  0.2180  0.1552 -0.1228
    1OPC    GL266641  15.377  11.621   4.329  0.1914  0.0744  0.0252
    1OPC    C1B66642  15.682  11.413   4.511 -0.3049 -0.2459 -0.1325
    1OPC    D2B66643  16.179  11.491   4.539  0.3852 -0.2406  0.2386
    1OPC    C3B66644  16.387  11.736   4.861 -0.2610 -0.3338  0.1133
    1OPC    C4B66645  16.350  11.705   5.254  0.0276  0.0122  0.0836
    1OPC    NC366646  12.532  17.159   2.570  0.0681 -0.3021  0.0580
    1OPC    PO466647  12.713  17.632   2.641 -0.3563  0.4376  0.0669
    1OPC    GL166648  12.704  18.006   2.924  0.2005 -0.0682 -0.1452
    1OPC    GL266649  12.846  18.292   3.186  0.3317  0.4342 -0.1931
    1OPC    C1B66650  13.067  18.465   3.422 -0.1604  0.0675  0.0925
    1OPC    D2B66651  13.280  18.286   3.691 -0.1486 -0.3422  0.1411
    1OPC    C3B66652  13.005  18.283   4.075  0.1246  0.1427  0.4111
    1OPC    C4B66653  12.885  18.381   4.423  0.3538 -0.0857 -0.0930
    1OPC    NC366654   7.117   2.704   2.559  0.0109 -0.0808  0.1260
    1OPC    PO466655   7.105   3.183   2.692 -0.0336  0.1977 -0.1620
    1OPC    GL166656   7.188   3.352   3.086 -0.0214 -0.2253  0.3792
    1OPC    GL266657   7.293   3.270   3.354 -0.2860 -0.0101 -0.1963
    1OPC    C1B66658   7.246   3.144   3.762  0.0265  0.0359 -0.0602
    1OPC    D2B66659   6.958   3.084   4.184  0.1157  0.0103  0.0822
    1OPC    C3B66660   7.138   3.051   4.607  0.1376  0.0116  0.1697
    1OPC    C4B66661   7.359   3.059   4.989 -0.1994 -0.2342 -0.0270
    1OPC    NC366662  12.450  20.334   2.653  0.0796  0.0151  0.2133
    1OPC    PO466663  12.596  19.848   2.738 -0.2153  0.0785 -0.2788
    1OPC    GL166664  12.537  19.775   3.233  0.5276 -0.1489  0.0795
    1OPC    GL266665  12.738  19.594   3.528 -0.0942 -0.2122 -0.1256
    1OPC    C1B66666  12.538  19.431   3.980  0.2150  0.3492  0.1025
    1OPC    D2B66667  12.329  19.751   4.270 -0.0183  0.1486 -0.3071
    1OPC    C3B66668  12.350  19.769   4.708  0.0544 -0.0730  0.1012
    1OPC    C4B66669  12.267  19.457   5.016 -0.2887 -0.2484  0.2331
    1OPC    NC366670  16.338   5.570   3.675 -0.2217  0.0400  0.0518
    1OPC    PO466671  16.235   5.166   3.464  0.1234 -0.0541  0.1774
    1OPC    GL166672  15.971   5.202   3.816 -0.0928 -0.1076  0.0765
    1OPC    GL266673  15.972   5.143   4.053  0.1058 -0.0981 -0.1209
    1OPC    C1B66674  16.053   5.211   4.459  0.1416 -0.4686 -0.1117
    1OPC    D2B66675  15.978   5.482   4.794 -0.2084 -0.0819  0.1152
    1OPC    C3B66676  15.566   5.558   4.927  0.1380  0.3468  0.0878
    1OPC    C4B66677  15.354   5.205   5.160  0.0261  0.1716  0.1729
    1OPC    NC366678  14.182  21.775   3.024 -0.2039  0.0089 -0.1071
    1OPC    PO466679  14.665  21.850   3.104  0.1671  0.1226 -0.0776
    1OPC    GL166680  14.815  22.067   3.507  0.2049 -0.1562  0.1224
    1OPC    GL266681  14.724  21.967   3.839  0.0031  0.1352  0.0220
    1OPC    C1B66682  14.824  21.802   4.282  0.0375  0.0845 -0.1255
    1OPC    D2B66683  14.952  21.493   4.565 -0.2093 -0.0632  0.0987
    1OPC    C3B66684  15.295  21.507   4.843 -0.1399  0.3244  0.2317
    1OPC    C4B66685  15.728  21.696   4.814  0.0880 -0.0696 -0.1779
    1OPC    NC366686  11.219  11.997   3.164  0.1801 -0.0700  0.2479
    1OPC    PO466687  11.098  12.131   3.600  0.0863  0.0134 -0.0369
    1OPC    GL166688  11.252  12.126   4.044 -0.0929 -0.1094 -0.1610
    1OPC    GL266689  11.271  12.089   4.335  0.0700  0.0012 -0.0524
    1OPC    C1B66690  11.425  11.869   4.660 -0.0813  0.0432 -0.1406
    1OPC    D2B66691  11.633  11.707   5.022  0.0361 -0.2224  0.2450
    1OPC    C3B66692  11.481  11.815   5.336 -0.0319 -0.3489 -0.1835
    1OPC    C4B66693  11.343  11.694   5.645 -0.0454 -0.1783 -0.1168
    1OPC    NC366694   5.979   2.531   2.428 -0.1970  0.2747  0.0079
    1OPC    PO466695   6.180   2.870   2.594 -0.2452  0.2160 -0.4156
    1OPC    GL166696   6.075   3.123   2.887 -0.2654 -0.0191  0.2585
    1OPC    GL266697   5.999   3.419   2.909 -0.0090 -0.0807 -0.0726
    1OPC    C1B66698   5.979   3.760   3.211 -0.1761  0.0086  0.0063
    1OPC    D2B66699   6.190   3.696   3.584 -0.0664 -0.1036  0.0467
    1OPC    C3B66700   6.499   4.076   3.700  0.0999  0.1075  0.0682
    1OPC    C4B66701   6.585   4.549   3.713  0.1361 -0.0758 -0.2347
    1OPC    NC366702  19.068   8.009   3.759  0.1235  0.0315  0.3702
    1OPC    PO466703  19.454   7.752   3.671 -0.1191 -0.1564  0.3812
    1OPC    GL166704  19.474   7.985   4.088 -0.0017  0.1327  0.0827
    1OPC    GL266705  19.152   8.084   4.237 -0.0095  0.2950 -0.2333
    1OPC    C1B66706  18.748   8.189   4.420  0.1014  0.0289 -0.0471
    1OPC    D2B66707  18.307   8.412   4.364  0.2257 -0.1176 -0.1648
    1OPC    C3B66708  18.226   8.539   4.704  0.0955  0.2052 -0.0998
    1OPC    C4B66709  18.342   8.669   5.118 -0.0167  0.0042 -0.4380
    1OPC    NC366710  28.111   6.098   1.313 -0.1852 -0.0126 -0.1193
    1OPC    PO466711   0.008   6.031   1.787 -0.0705 -0.2916  0.0686
    1OPC    GL166712   0.033   5.947   2.237  0.2080 -0.2456  0.0652
    1OPC    GL266713  27.972   6.064   2.462  0.0262 -0.1454 -0.2582
    1OPC    C1B66714   0.029   5.964   2.762  0.1657 -0.0738  0.1260
    1OPC    D2B66715   0.278   6.157   3.074 -0.0413  0.0067  0.0794
    1OPC    C3B66716   0.358   6.159   3.454  0.0316 -0.1053 -0.1070
    1OPC    C4B66717   0.617   6.344   3.693 -0.0941  0.0394  0.1356
    1OPC    NC366718  13.044  24.219   3.177  0.0432 -0.3507  0.2370
    1OPC    PO466719  12.730  24.244   2.979  0.2116 -0.1564  0.0607
    1OPC    GL166720  12.543  23.922   3.152  0.0354  0.3214 -0.1438
    1OPC    GL266721  12.595  23.803   3.416  0.4124 -0.3325 -0.2223
    1OPC    C1B66722  12.371  23.910   3.820  0.1375  0.0106  0.0453
    1OPC    D2B66723  12.338  23.892   4.246  0.2084 -0.2588  0.0265
    1OPC    C3B66724  11.915  23.693   4.355  0.3046  0.3486  0.0922
    1OPC    C4B66725  11.595  23.982   4.530  0.2835 -0.2042  0.0604
    1OPC    NC366726  12.431  17.605   3.536 -0.3136 -0.1981 -0.2218
    1OPC    PO466727  12.725  17.194   3.519 -0.0728 -0.2061 -0.0351
    1OPC    GL166728  13.019  17.399   3.746  0.1251 -0.0617  0.1860
    1OPC    GL266729  13.185  17.681   3.848  0.1604 -0.1290  0.0896
    1OPC    C1B66730  12.958  17.828   4.182 -0.1496  0.0226  0.1342
    1OPC    D2B66731  12.896  17.943   4.615 -0.2537 -0.1418 -0.0378
    1OPC    C3B66732  12.756  18.295   4.969  0.2708 -0.2817 -0.1485
    1OPC    C4B66733  12.532  18.367   5.394 -0.0084  0.1011  0.5009
    1OPC    NC366734   4.543  27.815   1.998 -0.1934 -0.1326 -0.1298
    1OPC    PO466735   4.726   0.109   1.987  0.0379  0.0894  0.0585
    1OPC    GL166736   4.863   0.016   2.381  0.2475  0.0237 -0.0731
    1OPC    GL266737   5.012   0.183   2.666 -0.1402 -0.1887  0.2264
    1OPC    C1B66738   5.304   0.098   3.115 -0.1710  0.0539 -0.0270
    1OPC    D2B66739   5.325   0.092   3.440 -0.0154 -0.1187 -0.0435
    1OPC    C3B66740   5.390   0.492   3.530  0.0649 -0.1232 -0.0662
    1OPC    C4B66741   5.231   0.953   3.648 -0.0278  0.0119  0.0366
    1OPC    NC366742   7.920   9.065   3.544  0.2450  0.2013  0.0806
    1OPC    PO466743   7.445   9.104   3.549  0.1729 -0.1053 -0.0410
    1OPC    GL166744   7.484   9.019   3.898  0.1299 -0.1309 -0.2907
    1OPC    GL266745   7.401   8.735   4.171 -0.3874 -0.2338 -0.0514
    1OPC    C1B66746   7.519   8.713   4.618 -0.2590 -0.1917  0.3750
    1OPC    D2B66747   7.376   8.449   5.064  0.0218  0.0998  0.1154
    1OPC    C3B66748   7.454   8.085   4.997  0.2347 -0.2011  0.0671
    1OPC    C4B66749   7.639   7.814   4.880 -0.2208 -0.2131 -0.2276
    1OPC    NC366750  21.075   7.139   2.780  0.1125  0.0454  0.0719
    1OPC    PO466751  21.148   7.605   2.955 -0.2667  0.4081 -0.1865
    1OPC    GL166752  21.144   7.628   3.316  0.0677  0.0798  0.0852
    1OPC    GL266753  21.304   7.545   3.532 -0.1531 -0.1496  0.1771
    1OPC    C1B66754  21.665   7.487   3.932  0.0078  0.0113 -0.0035
    1OPC    D2B66755  21.792   7.258   4.303  0.1411  0.0359  0.2051
    1OPC    C3B66756  21.707   7.435   4.763  0.1300 -0.1978 -0.1112
    1OPC    C4B66757  21.907   7.525   5.071  0.5948  0.1292  0.2675
    1OPC    NC366758  24.982   7.361   2.308  0.3692  0.0680 -0.1246
    1OPC    PO466759  25.169   7.209   2.576  0.0797  0.3352 -0.0129
    1OPC    GL166760  25.622   7.296   2.742  0.4778  0.0600  0.0014
    1OPC    GL266761  25.808   7.370   2.920  0.0799 -0.2259 -0.3111
    1OPC    C1B66762  25.951   7.341   3.381 -0.0724 -0.0960 -0.2120
    1OPC    D2B66763  26.015   7.398   3.850 -0.0344  0.0337  0.0735
    1OPC    C3B66764  25.866   7.204   4.172  0.0307 -0.4657  0.2449
    1OPC    C4B66765  25.824   7.205   4.616  0.0404  0.3536 -0.0395
    1OPC    NC366766  25.970  24.286   3.176 -0.0874  0.1828  0.0963
    1OPC    PO466767  26.172  23.951   2.984  0.0971 -0.3888  0.2193
    1OPC    GL166768  26.282  23.678   3.222 -0.1356  0.3777 -0.2143
    1OPC    GL266769  26.074  23.511   3.392 -0.0320  0.2008  0.3275
    1OPC    C1B66770  26.217  23.395   3.841  0.1878 -0.1915  0.2509
    1OPC    D2B66771  26.382  23.685   4.107 -0.2454 -0.0099 -0.0430
    1OPC    C3B66772  26.591  23.540   4.479 -0.2109 -0.1296  0.0052
    1OPC    C4B66773  26.650  23.198   4.756 -0.1516 -0.0524 -0.0989
    1OPC    NC366774  18.334  18.375   3.275 -0.1902  0.2336  0.4011
    1OPC    PO466775  18.273  18.478   3.756 -0.1833  0.1163  0.2164
    1OPC    GL166776  18.094  18.168   4.010  0.0284 -0.2316 -0.2465
    1OPC    GL266777  18.090  17.963   4.332 -0.0121 -0.3802 -0.0462
    1OPC    C1B66778  18.512  17.830   4.469 -0.0620  0.0195  0.3117
    1OPC    D2B66779  18.923  17.839   4.684 -0.2751  0.1822 -0.3658
    1OPC    C3B66780  19.273  17.546   4.610 -0.2380  0.1068  0.0648
    1OPC    C4B66781  19.360  17.062   4.696  0.1998  0.4822 -0.1036
    1OPC    NC366782   7.569  18.629   3.442  0.0614 -0.1345 -0.1584
    1OPC    PO466783   7.575  18.336   3.798 -0.1472  0.1878  0.2740
    1OPC    GL166784   7.827  18.175   4.068  0.3017 -0.0614  0.1057
    1OPC    GL266785   8.077  18.266   4.274  0.2552 -0.0679 -0.0777
    1OPC    C1B66786   8.196  18.311   4.761  0.0075 -0.2711 -0.0228
    1OPC    D2B66787   8.234  18.383   5.174  0.2237 -0.2753 -0.2494
    1OPC    C3B66788   7.799  18.482   5.325 -0.0891 -0.0410 -0.1565
    1OPC    C4B66789   7.363  18.486   5.227  0.1479  0.1394  0.2105
    1OPC    NC366790   2.805  15.002   2.606 -0.0680  0.0723 -0.1744
    1OPC    PO466791   2.746  15.155   3.018 -0.0679  0.1477  0.0481
    1OPC    GL166792   2.785  14.918   3.406  0.1914 -0.2425  0.0007
    1OPC    GL266793   2.691  14.761   3.574  0.2612  0.1824 -0.1656
    1OPC    C1B66794   2.849  14.660   3.955  0.2859  0.1826 -0.3719
    1OPC    D2B66795   2.538  14.714   4.316 -0.0009  0.0643 -0.1713
    1OPC    C3B66796   2.213  14.408   4.516 -0.0455  0.0738 -0.0255
    1OPC    C4B66797   1.911  14.038   4.741  0.0265  0.1322  0.2002
    1OPC    NC366798  20.783  19.310   3.522  0.0518 -0.2193  0.0137
    1OPC    PO466799  21.208  19.591   3.562  0.0820  0.0318 -0.0172
    1OPC    GL166800  20.866  19.619   3.932  0.1724  0.1678 -0.1136
    1OPC    GL266801  20.939  19.905   4.043 -0.0213 -0.0076  0.0770
    1OPC    C1B66802  21.018  20.063   4.390  0.0056 -0.1991  0.1642
    1OPC    D2B66803  20.812  20.173   4.761 -0.1196  0.0248  0.1436
    1OPC    C3B66804  20.857  20.202   5.164 -0.0731 -0.2292 -0.2363
    1OPC    C4B66805  21.048  20.430   5.553 -0.0846  0.0222  0.0238
    1OPC    NC366806  17.296  26.423   2.450 -0.4750  0.1779 -0.2529
    1OPC    PO466807  17.590  26.150   2.733  0.3906 -0.0399  0.0778
    1OPC    GL166808  17.953  26.137   3.074 -0.2322  0.0779  0.0156
    1OPC    GL266809  17.986  25.876   3.348 -0.1809  0.0975 -0.2375
    1OPC    C1B66810  18.037  25.518   3.688 -0.2412 -0.1054 -0.2225
    1OPC    D2B66811  18.156  25.345   4.092  0.0840 -0.1647  0.0395
    1OPC    C3B66812  18.306  25.753   4.213  0.0373 -0.3242 -0.2642
    1OPC    C4B66813  18.709  26.036   4.148 -0.1401  0.1643 -0.0764
    1OPC    NC366814   7.971   0.561   2.157  0.0190 -0.2746  0.0551
    1OPC    PO466815   7.690   0.252   2.276 -0.0290  0.2584 -0.0002
    1OPC    GL166816   7.753   0.184   2.770 -0.0511  0.1612  0.0058
    1OPC    GL266817   7.827  28.069   2.989  0.0549  0.0401  0.1201
    1OPC    C1B66818   7.790  28.044   3.481 -0.2541 -0.0749 -0.2390
    1OPC    D2B66819   7.563   0.239   3.861  0.1237  0.1302  0.1099
    1OPC    C3B66820   7.355   0.329   4.174 -0.2748 -0.1879  0.1432
    1OPC    C4B66821   7.306   0.323   4.614  0.2529  0.0822  0.1563
    1OPC    NC366822  24.459  11.928   2.959 -0.0435 -0.0717  0.1992
    1OPC    PO466823  24.634  12.358   3.001  0.0758 -0.0296  0.2082
    1OPC    GL166824  24.371  12.737   3.197 -0.0535  0.1362 -0.1228
    1OPC    GL266825  24.180  12.743   3.449 -0.0213 -0.3237 -0.1659
    1OPC    C1B66826  24.247  13.124   3.668  0.0740  0.0091  0.1749
    1OPC    D2B66827  24.479  13.259   4.049  0.1794  0.0028 -0.0234
    1OPC    C3B66828  24.359  13.121   4.432  0.2407  0.1247 -0.0557
    1OPC    C4B66829  24.309  12.750   4.681 -0.1796  0.2941 -0.3498
    1OPC    NC366830  16.411  17.383   3.209  0.3279 -0.0680  0.1761
    1OPC    PO466831  16.603  17.257   3.558 -0.1960 -0.0884 -0.0589
    1OPC    GL166832  16.525  17.166   3.980  0.0435  0.0247  0.0494
    1OPC    GL266833  16.824  17.183   4.171 -0.0500  0.3238  0.2707
    1OPC    C1B66834  16.838  17.295   4.648  0.2181  0.1504 -0.0492
    1OPC    D2B66835  16.868  17.544   4.979 -0.2531 -0.2160  0.1840
    1OPC    C3B66836  16.749  17.516   5.274 -0.4663  0.0871  0.1618
    1OPC    C4B66837  16.550  17.921   5.419 -0.0727  0.1333  0.2421
    1OPC    NC366838  12.108  18.359   3.682  0.1480  0.0554 -0.1835
    1OPC    PO466839  12.019  17.949   3.622 -0.1859  0.1241  0.0823
    1OPC    GL166840  12.078  18.030   4.032 -0.1784 -0.2171  0.0804
    1OPC    GL266841  12.083  18.153   4.417  0.2255 -0.4297 -0.0342
    1OPC    C1B66842  11.908  18.282   4.770  0.1113 -0.1973  0.1655
    1OPC    D2B66843  11.698  18.637   4.941  0.0019 -0.0993 -0.0930
    1OPC    C3B66844  11.635  18.674   5.419  0.1962 -0.0195 -0.0476
    1OPC    C4B66845  11.773  19.018   5.645 -0.1569 -0.0473  0.0682
    1OPC    NC366846   5.570   8.843   3.297 -0.1795  0.1771  0.0332
    1OPC    PO466847   5.344   9.201   3.094  0.3452 -0.1277  0.2575
    1OPC    GL166848   5.157   9.469   3.399  0.0399  0.0522 -0.0800
    1OPC    GL266849   5.054   9.458   3.699  0.2601 -0.0948  0.0955
    1OPC    C1B66850   5.051   9.033   4.042 -0.0729  0.2105  0.0566
    1OPC    D2B66851   5.121   8.689   4.303  0.3857  0.3297 -0.2937
    1OPC    C3B66852   4.848   8.556   4.637 -0.0389  0.1337 -0.1448
    1OPC    C4B66853   4.446   8.322   4.654 -0.0558  0.0766 -0.4855
    1OPC    NC366854   8.452  10.910   2.700 -0.2079 -0.1308 -0.2179
    1OPC    PO466855   8.114  10.640   3.002  0.0516  0.1643 -0.2181
    1OPC    GL166856   7.959  10.799   3.437  0.1761 -0.3210 -0.3005
    1OPC    GL266857   7.999  10.766   3.744 -0.2275  0.1300 -0.0537
    1OPC    C1B66858   7.872  10.780   4.070  0.0246 -0.1639 -0.2098
    1OPC    D2B66859   7.835  11.056   4.465  0.2503 -0.1786 -0.1751
    1OPC    C3B66860   8.085  10.991   4.792 -0.0809  0.0869  0.2475
    1OPC    C4B66861   8.031  10.700   5.099 -0.2283  0.0707  0.0179
    1OPC    NC366862  24.029   6.593   3.224 -0.2207  0.0573  0.1159
    1OPC    PO466863  23.619   6.476   3.039  0.0381 -0.3286 -0.2425
    1OPC    GL166864  23.680   6.348   3.452 -0.0351  0.2067  0.0018
    1OPC    GL266865  23.634   6.288   3.758  0.3693  0.0691 -0.1532
    1OPC    C1B66866  23.475   6.437   4.088 -0.2941 -0.2690 -0.0831
    1OPC    D2B66867  23.335   6.727   4.469 -0.0441 -0.1843 -0.2004
    1OPC    C3B66868  23.076   6.932   4.646  0.3669  0.1296 -0.2466
    1OPC    C4B66869  22.824   7.329   4.676  0.1368 -0.0377 -0.0448
    1OPC    NC366870  27.773   9.724   3.017 -0.3725 -0.0131  0.0668
    1OPC    PO466871   0.137   9.784   3.191 -0.0613 -0.1289 -0.0859
    1OPC    GL166872  28.064   9.638   3.444  0.2833  0.1956  0.0996
    1OPC    GL266873  27.950   9.482   3.715 -0.0444  0.0573 -0.1131
    1OPC    C1B66874  27.696   9.502   4.123 -0.0611  0.1604  0.2044
    1OPC    D2B66875  27.538   9.269   4.467 -0.2093  0.1644 -0.2880
    1OPC    C3B66876  27.649   9.270   4.878  0.1940 -0.0499  0.0856
    1OPC    C4B66877  27.926   9.376   5.148  0.0297  0.1491  0.0411
    1OPC    NC366878   6.369   7.372   2.855  0.2471 -0.1609 -0.0741
    1OPC    PO466879   6.212   7.036   2.678 -0.1433  0.0901  0.2286
    1OPC    GL166880   6.231   7.039   3.223 -0.0061  0.2852 -0.0661
    1OPC    GL266881   6.228   6.928   3.525  0.1800  0.1812 -0.2382
    1OPC    C1B66882   6.071   6.619   3.893  0.3018 -0.0461 -0.0235
    1OPC    D2B66883   5.919   6.263   4.182 -0.0258  0.2349 -0.1327
    1OPC    C3B66884   5.994   5.897   4.049  0.3254 -0.1768  0.3902
    1OPC    C4B66885   6.076   5.418   4.047  0.1203 -0.1231 -0.0204
    1OPC    NC366886  12.766  11.356   3.377  0.3114 -0.0322 -0.0122
    1OPC    PO466887  12.337  11.197   3.569 -0.2698 -0.0938 -0.4331
    1OPC    GL166888  12.504  11.374   3.882  0.1509 -0.0298  0.3870
    1OPC    GL266889  12.552  11.385   4.110 -0.0564 -0.1583 -0.0460
    1OPC    C1B66890  12.485  11.117   4.415  0.0737  0.0950  0.1443
    1OPC    D2B66891  12.364  11.488   4.678 -0.2329 -0.3666  0.0609
    1OPC    C3B66892  12.362  11.291   5.041 -0.0222  0.1618 -0.3320
    1OPC    C4B66893  12.256  11.075   5.440  0.3377  0.1771 -0.0531
    1OPC    NC366894   6.348   6.298   2.344 -0.1704 -0.0800  0.0513
    1OPC    PO466895   6.242   6.036   2.671  0.1328  0.2588  0.2366
    1OPC    GL166896   6.221   5.752   2.922 -0.3300  0.0198 -0.1529
    1OPC    GL266897   6.310   5.565   3.202 -0.2075  0.0176 -0.2587
    1OPC    C1B66898   6.529   5.463   3.604  0.0005  0.1612  0.0629
    1OPC    D2B66899   6.439   5.129   3.983  0.1542  0.1132 -0.2841
    1OPC    C3B66900   6.153   4.749   3.973 -0.0242  0.0415 -0.0550
    1OPC    C4B66901   5.632   4.583   3.927  0.2134  0.1438 -0.2346
    1OPC    NC366902  20.067  18.298   3.708  0.2343  0.0191  0.2444
    1OPC    PO466903  19.687  18.332   3.362 -0.0217 -0.3562  0.0760
    1OPC    GL166904  19.576  18.290   3.735  0.1044  0.2366  0.2537
    1OPC    GL266905  19.692  18.256   4.065 -0.0173 -0.1746 -0.2854
    1OPC    C1B66906  19.690  18.474   4.412  0.0893  0.1383 -0.2877
    1OPC    D2B66907  19.689  18.421   4.871  0.2438 -0.0367  0.1394
    1OPC    C3B66908  20.044  18.498   5.100 -0.0551  0.0827  0.0145
    1OPC    C4B66909  20.191  18.466   5.536  0.0645 -0.0423 -0.1018
    1OPC    NC366910  18.923   5.151   2.685  0.0782  0.0652  0.2979
    1OPC    PO466911  18.576   4.900   2.768  0.0280 -0.2224  0.0760
    1OPC    GL166912  18.718   5.057   3.227  0.0551 -0.1167 -0.2212
    1OPC    GL266913  18.696   5.034   3.503  0.0749  0.1688 -0.0686
    1OPC    C1B66914  18.759   4.873   3.915  0.2959  0.1953  0.0501
    1OPC    D2B66915  18.796   4.791   4.344  0.4804  0.3336  0.1227
    1OPC    C3B66916  18.595   4.458   4.432  0.0108 -0.0181  0.1277
    1OPC    C4B66917  18.637   4.199   4.724  0.0075 -0.0405  0.0157
    1OPC    NC366918  20.123  19.956   3.410  0.1225  0.1350 -0.0124
    1OPC    PO466919  20.436  19.758   3.773 -0.0540 -0.1814  0.1533
    1OPC    GL166920  19.957  19.661   4.000 -0.2340  0.1209 -0.0037
    1OPC    GL266921  19.907  19.483   4.259 -0.2994  0.1611 -0.2657
    1OPC    C1B66922  20.139  19.573   4.633  0.0146  0.0717  0.5042
    1OPC    D2B66923  20.130  19.622   5.015 -0.0055 -0.0962 -0.2855
    1OPC    C3B66924  20.422  19.683   5.317 -0.1248  0.0076  0.1598
    1OPC    C4B66925  20.727  19.859   5.514 -0.2626 -0.2208  0.1077
    1OPC    NC366926  15.586  10.938   3.738 -0.0788  0.0994  0.3257
    1OPC    PO466927  15.137  11.046   3.461  0.0902 -0.0676  0.0052
    1OPC    GL166928  15.083  11.064   3.913  0.0307 -0.1632  0.2066
    1OPC    GL266929  15.052  11.108   4.142  0.1155 -0.1168  0.2947
    1OPC    C1B66930  15.196  11.161   4.513  0.0528 -0.2805 -0.1270
    1OPC    D2B66931  15.192  11.362   4.868 -0.4961  0.2392 -0.2361
    1OPC    C3B66932  15.550  11.527   5.042 -0.1247  0.0024 -0.3198
    1OPC    C4B66933  15.817  11.748   4.974  0.1834 -0.3493  0.6178
    1OPC    NC366934   5.913   2.860   2.021  0.0501  0.0982 -0.0268
    1OPC    PO466935   5.858   3.191   2.302 -0.0246 -0.0578 -0.0990
    1OPC    GL166936   5.647   3.033   2.573 -0.1392  0.1785 -0.2214
    1OPC    GL266937   5.513   3.065   2.890  0.0179  0.0271 -0.1728
    1OPC    C1B66938   5.466   2.839   3.365 -0.2204 -0.3596 -0.0518
    1OPC    D2B66939   5.470   2.696   3.703  0.3750 -0.0302  0.3374
    1OPC    C3B66940   5.219   3.004   4.012 -0.1749  0.3257 -0.2065
    1OPC    C4B66941   5.029   3.385   4.303  0.2301  0.1578  0.0466
    1OPC    NC366942   2.473   6.677   1.289  0.2133 -0.5070  0.0561
    1OPC    PO466943   2.277   6.306   1.605  0.1222  0.0967 -0.1228
    1OPC    GL166944   2.181   6.370   2.094  0.0369  0.0180 -0.2506
    1OPC    GL266945   1.796   6.205   2.255  0.0028  0.1882  0.0621
    1OPC    C1B66946   1.661   6.180   2.639 -0.1093  0.1939  0.0464
    1OPC    D2B66947   1.612   6.065   3.125 -0.1194  0.2742  0.0421
    1OPC    C3B66948   1.702   6.309   3.437 -0.0053  0.2953 -0.2214
    1OPC    C4B66949   1.629   6.259   3.891 -0.1050  0.0524 -0.0026
    1OPC    NC366950   6.661   5.028   2.389 -0.0051 -0.0430 -0.1730
    1OPC    PO466951   6.656   4.755   2.670 -0.3202 -0.1100  0.1096
    1OPC    GL166952   6.403   4.638   2.842  0.0163  0.0609 -0.0727
    1OPC    GL266953   6.100   4.618   3.091 -0.0442  0.0914  0.0279
    1OPC    C1B66954   5.999   4.514   3.551  0.1944  0.0588 -0.1726
    1OPC    D2B66955   5.962   4.144   3.800 -0.2231 -0.2820  0.0127
    1OPC    C3B66956   6.218   3.907   4.054  0.3181 -0.0168  0.2735
    1OPC    C4B66957   6.195   3.658   4.320  0.0082  0.1687  0.0045
    1OPC    NC366958  25.964   4.886   1.929  0.0203 -0.0669 -0.1550
    1OPC    PO466959  26.050   5.082   2.346 -0.2011  0.1739 -0.5676
    1OPC    GL166960  26.348   5.181   2.625  0.1223  0.1071  0.1355
    1OPC    GL266961  26.365   5.230   2.963  0.1520  0.3041  0.0080
    1OPC    C1B66962  26.241   5.129   3.433 -0.3506 -0.0181  0.0132
    1OPC    D2B66963  26.391   5.254   3.826  0.2327 -0.0315 -0.2828
    1OPC    C3B66964  26.443   5.602   4.028  0.1018  0.1370  0.2215
    1OPC    C4B66965  26.646   5.912   4.241 -0.0061 -0.3041  0.1444
    1OPC    NC366966  27.993   7.815   2.064  0.1389  0.0523  0.2437
    1OPC    PO466967   0.075   7.390   2.343  0.1428  0.1999 -0.1066
    1OPC    GL166968   0.199   6.958   2.336  0.1532 -0.0244 -0.5350
    1OPC    GL266969   0.068   6.733   2.442  0.0315 -0.3847  0.1268
    1OPC    C1B66970  28.080   6.466   2.869 -0.2507  0.0772  0.2012
    1OPC    D2B66971  27.954   6.514   3.207  0.0081 -0.2676 -0.1856
    1OPC    C3B66972  27.634   6.465   3.424 -0.0463 -0.0247 -0.0302
    1OPC    C4B66973  27.332   6.628   3.545 -0.2245 -0.1329  0.1002
    1OPC    NC366974  15.450  19.762   2.953 -0.0212  0.0708 -0.0093
    1OPC    PO466975  14.934  19.888   2.912 -0.0332  0.0302 -0.2186
    1OPC    GL166976  14.684  19.859   3.369 -0.0754  0.0183  0.0666
    1OPC    GL266977  14.724  19.613   3.617  0.3804  0.0616  0.3128
    1OPC    C1B66978  14.471  19.430   4.022 -0.1826 -0.2408 -0.2239
    1OPC    D2B66979  14.427  19.495   4.479 -0.3080  0.1337  0.2012
    1OPC    C3B66980  14.253  19.213   4.787 -0.1014 -0.2452  0.0613
    1OPC    C4B66981  14.273  18.895   5.110  0.1113 -0.0989  0.0967
    1OPC    NC366982   2.937   4.079   1.403  0.1201 -0.4525 -0.1657
    1OPC    PO466983   2.841   4.045   1.902  0.3260 -0.0261  0.1452
    1OPC    GL166984   2.934   4.177   2.222  0.1242 -0.1607 -0.0859
    1OPC    GL266985   2.980   4.053   2.501 -0.4251 -0.0983 -0.1228
    1OPC    C1B66986   2.626   3.996   2.761 -0.0591  0.1376  0.2271
    1OPC    D2B66987   2.459   4.158   3.032  0.2372 -0.3540  0.0511
    1OPC    C3B66988   2.662   4.306   3.315 -0.0783 -0.0275 -0.0966
    1OPC    C4B66989   3.058   4.360   3.426  0.0078 -0.1615  0.3318
    1OPC    NC366990   7.009  20.991   3.286  0.1245 -0.0031 -0.3167
    1OPC    PO466991   6.538  21.137   3.400  0.3350 -0.0069  0.1753
    1OPC    GL166992   6.362  20.992   3.748 -0.3039 -0.3126  0.1206
    1OPC    GL266993   6.374  20.826   4.119 -0.0772  0.0229 -0.1807
    1OPC    C1B66994   6.036  20.741   4.543 -0.4060  0.0151 -0.1318
    1OPC    D2B66995   5.818  20.753   4.926 -0.0143  0.2666  0.2292
    1OPC    C3B66996   5.861  20.659   5.386  0.0076  0.2512 -0.1678
    1OPC    C4B66997   5.921  20.389   5.689 -0.0015  0.2526 -0.1146
    1OPC    NC366998   8.093   5.279   2.982 -0.1468 -0.0350 -0.0855
    1OPC    PO466999   7.671   5.312   3.071 -0.1531 -0.0607  0.1289
    1OPC    GL167000   7.317   5.081   3.060 -0.1898  0.4208  0.2034
    1OPC    GL267001   7.183   4.904   3.286 -0.1784 -0.0463  0.2192
    1OPC    C1B67002   7.278   4.718   3.787 -0.0735  0.1437  0.0970
    1OPC    D2B67003   7.250   4.676   4.280 -0.0781 -0.2508  0.0144
    1OPC    C3B67004   7.465   4.553   4.683  0.0118 -0.1339  0.1773
    1OPC    C4B67005   7.328   4.223   4.921  0.1972 -0.0449 -0.0169
    1OPC    NC367006   1.591   7.970   2.586  0.1434 -0.0814 -0.2035
    1OPC    PO467007   1.941   8.151   2.493 -0.0799 -0.0965  0.1412
    1OPC    GL167008   2.082   7.891   2.789 -0.0718  0.2052  0.0553
    1OPC    GL267009   2.170   7.671   3.053 -0.2201 -0.1248 -0.2765
    1OPC    C1B67010   2.439   7.729   3.405  0.0053  0.2932  0.1456
    1OPC    D2B67011   2.547   7.540   3.739 -0.0038  0.0956  0.0902
    1OPC    C3B67012   2.960   7.599   4.023 -0.4540 -0.1971 -0.2004
    1OPC    C4B67013   3.109   8.003   4.290  0.0119  0.2733  0.0397
    1OPC    NC367014  26.966   0.749   2.021 -0.0846 -0.0778 -0.3685
    1OPC    PO467015  26.791   0.291   2.299 -0.1941 -0.2224  0.1623
    1OPC    GL167016  26.944   0.249   2.688 -0.0625 -0.3643 -0.5035
    1OPC    GL267017  27.030   0.317   3.001 -0.0649 -0.0611 -0.0530
    1OPC    C1B67018  27.370   0.380   3.387 -0.1725  0.0347  0.2507
    1OPC    D2B67019  27.400   0.466   3.813  0.0323  0.2612  0.1576
    1OPC    C3B67020  27.511   0.886   3.951  0.0580 -0.2343  0.1871
    1OPC    C4B67021  27.371   1.172   4.129 -0.1001 -0.2391 -0.1101
    1OPC    NC367022   3.342  17.144   3.419 -0.0965  0.0118 -0.0875
    1OPC    PO467023   2.951  17.134   3.143  0.0275  0.2879 -0.0343
    1OPC    GL167024   2.589  16.938   3.294 -0.0072 -0.1057 -0.0876
    1OPC    GL267025   2.403  16.773   3.525 -0.2627 -0.1641 -0.0456
    1OPC    C1B67026   2.199  16.676   3.980 -0.1224  0.1251  0.2828
    1OPC    D2B67027   1.802  16.716   4.175  0.1698  0.1012 -0.5271
    1OPC    C3B67028   1.380  16.547   3.987 -0.3827 -0.1063 -0.1516
    1OPC    C4B67029   1.178  16.286   3.734 -0.2363 -0.0648  0.0118
    1OPC    NC367030  18.026  10.377   3.924 -0.0326  0.1273  0.1094
    1OPC    PO467031  17.880  10.223   3.593  0.1301  0.0313 -0.1333
    1OPC    GL167032  17.824   9.950   3.928  0.0470  0.2376 -0.0722
    1OPC    GL267033  18.005   9.931   4.175 -0.1146 -0.3757  0.0394
    1OPC    C1B67034  18.227   9.800   4.349 -0.0177  0.1130  0.1286
    1OPC    D2B67035  18.444   9.870   4.708 -0.2323  0.0467  0.0509
    1OPC    C3B67036  18.462   9.476   5.012  0.1040  0.1433  0.1543
    1OPC    C4B67037  18.345   9.154   5.287 -0.0793  0.0487  0.1415
    1OPC    NC367038   0.187   3.489   2.373 -0.2498 -0.1189 -0.1329
    1OPC    PO467039   0.555   3.278   2.076  0.3092 -0.0771 -0.0396
    1OPC    GL167040   0.770   3.309   2.395  0.0602  0.0314 -0.0027
    1OPC    GL267041   0.911   3.260   2.681 -0.2045  0.3815 -0.0303
    1OPC    C1B67042   1.186   3.415   2.961 -0.0430 -0.0565  0.0629
    1OPC    D2B67043   1.505   3.264   3.230 -0.0160  0.0773  0.1609
    1OPC    C3B67044   1.607   3.344   3.678 -0.0111  0.0171  0.1156
    1OPC    C4B67045   1.421   3.355   4.030  0.0256 -0.0670  0.2826
    1OPC    NC367046  15.188  20.696   3.013 -0.2175  0.0117  0.2851
    1OPC    PO467047  15.264  20.261   2.938  0.2951 -0.0095 -0.2010
    1OPC    GL167048  15.186  20.044   3.350 -0.0287  0.0364  0.0588
    1OPC    GL267049  14.951  20.188   3.727  0.0240  0.2919 -0.1272
    1OPC    C1B67050  15.050  20.279   4.161 -0.0082 -0.1579  0.2412
    1OPC    D2B67051  15.095  20.263   4.602  0.0804  0.1405  0.0902
    1OPC    C3B67052  15.519  20.394   4.778  0.3709  0.0929  0.1031
    1OPC    C4B67053  15.910  20.301   5.024  0.1142 -0.0369 -0.1219
    1OPC    NC367054  18.627  12.910   3.196 -0.4414 -0.1211  0.1953
    1OPC    PO467055  18.951  12.777   3.567 -0.0206 -0.2397  0.1980
    1OPC    GL167056  19.171  12.942   3.796 -0.2631  0.0557  0.1803
    1OPC    GL267057  19.282  12.883   4.048  0.2132 -0.0424  0.0362
    1OPC    C1B67058  19.345  12.546   4.303  0.1766  0.0626 -0.0081
    1OPC    D2B67059  19.264  12.424   4.763 -0.1275  0.1769 -0.1500
    1OPC    C3B67060  19.347  12.570   5.117 -0.1877  0.1404  0.2844
    1OPC    C4B67061  19.741  12.597   5.308 -0.0491 -0.0612  0.0597
    1OPC    NC367062   2.308  15.117   3.256  0.0438 -0.0204  0.2080
    1OPC    PO467063   2.238  15.459   3.070  0.1899  0.2215 -0.1145
    1OPC    GL167064   2.003  15.429   3.485  0.1184  0.4559  0.1858
    1OPC    GL267065   1.889  15.721   3.683  0.2046  0.0520  0.2775
    1OPC    C1B67066   1.877  15.798   4.207 -0.3829  0.0290 -0.2228
    1OPC    D2B67067   1.903  15.909   4.599  0.1360  0.2623  0.1661
    1OPC    C3B67068   1.723  16.223   4.958 -0.1046  0.0182  0.0407
    1OPC    C4B67069   1.792  16.219   5.415  0.1730  0.1738 -0.1051
    1OPC    NC367070   1.117   6.154   1.231 -0.3377 -0.3497  0.1909
    1OPC    PO467071   1.333   6.158   1.465 -0.1622 -0.3306 -0.1455
    1OPC    GL167072   1.344   6.253   1.949  0.1589  0.0887 -0.0081
    1OPC    GL267073   1.262   6.105   2.271 -0.0829 -0.3554 -0.0149
    1OPC    C1B67074   1.172   6.171   2.721  0.1237 -0.1242 -0.1735
    1OPC    D2B67075   1.121   5.934   3.114 -0.2368 -0.0062 -0.0897
    1OPC    C3B67076   1.248   5.945   3.476  0.2088 -0.2502  0.2893
    1OPC    C4B67077   1.648   5.767   3.561  0.3355  0.1783  0.0144
    1OPC    NC367078  20.926  20.017   3.572 -0.1314  0.2128  0.0851
    1OPC    PO467079  21.299  20.151   3.467  0.1392 -0.2056  0.1643
    1OPC    GL167080  21.417  20.017   3.877 -0.3210  0.1244 -0.0044
    1OPC    GL267081  21.481  19.818   4.137  0.1140  0.0523  0.0354
    1OPC    C1B67082  21.305  19.648   4.447  0.0723  0.0679  0.2719
    1OPC    D2B67083  21.392  19.394   4.744 -0.0607  0.2101  0.0084
    1OPC    C3B67084  21.678  19.574   5.035 -0.3182  0.0482  0.0077
    1OPC    C4B67085  22.088  19.401   5.233 -0.0433 -0.3660 -0.2407
    1OPC    NC367086  11.589   3.807   3.585 -0.1631 -0.2873  0.0291
    1OPC    PO467087  11.985   4.088   3.503  0.0425 -0.3252 -0.0157
    1OPC    GL167088  11.715   4.289   3.795  0.2439  0.2758 -0.0083
    1OPC    GL267089  11.457   4.398   3.954 -0.3021  0.1904  0.1896
    1OPC    C1B67090  11.331   4.591   4.420  0.0065  0.1797  0.4152
    1OPC    D2B67091  11.515   4.856   4.656  0.1737  0.5997 -0.0876
    1OPC    C3B67092  11.333   4.996   5.031 -0.0674  0.0071 -0.0270
    1OPC    C4B67093  11.097   5.196   5.297  0.1423 -0.2283 -0.1010
    1OPC    NC367094   5.042  22.589   2.511  0.0847  0.1107 -0.0295
    1OPC    PO467095   4.669  22.627   2.660 -0.1174 -0.7052  0.0626
    1OPC    GL167096   4.839  22.582   3.033 -0.1133  0.3311  0.0603
    1OPC    GL267097   4.712  22.670   3.283 -0.1373  0.2754 -0.0120
    1OPC    C1B67098   4.723  23.004   3.519  0.0797 -0.1438  0.0502
    1OPC    D2B67099   4.817  23.181   3.914  0.2197  0.0682 -0.0089
    1OPC    C3B67100   4.638  23.145   4.358  0.0043  0.1488  0.0264
    1OPC    C4B67101   4.503  23.316   4.864 -0.0419  0.0409  0.1915
    1OPC    NC367102  24.975  20.779   2.601 -0.0129 -0.2619 -0.0096
    1OPC    PO467103  25.020  21.168   2.472 -0.0800  0.0503  0.1644
    1OPC    GL167104  24.915  21.540   2.740  0.2478  0.2119  0.3505
    1OPC    GL267105  24.910  21.519   2.936 -0.2987  0.4801  0.1597
    1OPC    C1B67106  24.834  21.270   3.255 -0.1811  0.0072  0.2129
    1OPC    D2B67107  24.896  20.981   3.607  0.1900  0.0926  0.0738
    1OPC    C3B67108  25.178  20.604   3.771  0.0265 -0.1009  0.0739
    1OPC    C4B67109  25.255  20.477   4.043  0.1387 -0.0112 -0.1150
    1OPC    NC367110   9.310   4.259   2.882 -0.2137  0.0961  0.3472
    1OPC    PO467111   9.098   4.339   3.291  0.1468 -0.1556  0.1333
    1OPC    GL167112   9.374   4.590   3.619 -0.5184 -0.0450 -0.0211
    1OPC    GL267113   9.503   4.744   3.865 -0.0871 -0.0039  0.2474
    1OPC    C1B67114   9.459   4.930   4.290 -0.1416 -0.1072 -0.1842
    1OPC    D2B67115   9.420   4.770   4.584 -0.0380  0.2274  0.2636
    1OPC    C3B67116   9.537   4.828   5.030 -0.1540 -0.2865 -0.0951
    1OPC    C4B67117   9.426   4.929   5.478  0.0442 -0.0218  0.2807
    1OPC    NC367118   3.810   7.009   2.000 -0.2789 -0.0312  0.0044
    1OPC    PO467119   3.689   7.242   2.445  0.0365 -0.0386 -0.2464
    1OPC    GL167120   3.277   7.126   2.650  0.1465 -0.0154 -0.0353
    1OPC    GL267121   3.007   6.871   2.899  0.1527  0.1758  0.0276
    1OPC    C1B67122   3.041   6.786   3.334  0.1574 -0.0464 -0.0669
    1OPC    D2B67123   3.133   6.693   3.737 -0.2200  0.0579 -0.0301
    1OPC    C3B67124   3.199   6.451   4.075  0.1972 -0.1731 -0.1802
    1OPC    C4B67125   3.168   6.343   4.454 -0.2007 -0.0457  0.0961
    1OPC    NC367126  27.360   5.221   1.832 -0.0531 -0.0631 -0.1282
    1OPC    PO467127  26.974   5.180   2.022 -0.1925 -0.1994  0.0672
    1OPC    GL167128  26.933   5.216   2.405 -0.1586 -0.0755  0.1158
    1OPC    GL267129  26.853   5.227   2.686 -0.0190 -0.1833 -0.4326
    1OPC    C1B67130  26.915   5.299   3.145 -0.1097  0.0621  0.3123
    1OPC    D2B67131  26.731   5.135   3.543  0.0582  0.3344  0.0156
    1OPC    C3B67132  26.960   5.200   3.858 -0.3265 -0.1767  0.3020
    1OPC    C4B67133  27.372   5.186   4.014  0.1207  0.0822  0.2479
    1OPC    NC367134  23.707  27.465   2.642  0.0829 -0.0916 -0.2335
    1OPC    PO467135  23.962  27.184   3.010  0.4968 -0.0100  0.2021
    1OPC    GL167136  23.976  27.441   3.477 -0.0512  0.0872 -0.0605
    1OPC    GL267137  24.161  27.469   3.767 -0.0234  0.0368  0.2208
    1OPC    C1B67138  24.174  27.345   4.166 -0.1682  0.1333 -0.2397
    1OPC    D2B67139  24.345  27.047   4.514 -0.0287 -0.1225  0.0116
    1OPC    C3B67140  24.483  27.363   4.790 -0.2691 -0.0324  0.0876
    1OPC    C4B67141  24.840  27.451   5.062  0.1513  0.0079 -0.3653
    1OPC    NC367142   2.294  19.921   2.872  0.1043 -0.1167  0.2268
    1OPC    PO467143   2.087  19.560   2.963  0.1678 -0.2397 -0.0087
    1OPC    GL167144   1.936  19.931   3.221  0.2932 -0.0912 -0.1483
    1OPC    GL267145   1.616  20.033   3.314 -0.1093  0.2169 -0.2026
    1OPC    C1B67146   1.394  19.916   3.639  0.0277 -0.1636 -0.0943
    1OPC    D2B67147   1.419  19.977   4.034  0.1092  0.0610  0.0565
    1OPC    C3B67148   1.181  19.685   4.310 -0.4307  0.0120 -0.0065
    1OPC    C4B67149   0.719  19.571   4.253 -0.1260  0.1119 -0.3613
    1OPC    NC367150   4.382  20.074   3.158  0.1754 -0.1398  0.0897
    1OPC    PO467151   4.700  20.327   3.247  0.0162  0.0186 -0.2027
    1OPC    GL167152   4.935  20.335   3.599 -0.0448  0.0385 -0.2467
    1OPC    GL267153   4.804  20.278   3.983  0.0572  0.1780 -0.0767
    1OPC    C1B67154   4.887  20.129   4.452 -0.0728  0.0890 -0.0909
    1OPC    D2B67155   4.823  19.912   4.829 -0.1107 -0.1478 -0.3528
    1OPC    C3B67156   5.076  19.518   4.955  0.0229 -0.0107 -0.1882
    1OPC    C4B67157   5.209  19.229   4.631  0.3587  0.0785 -0.0328
    1OPC    NC367158   5.845  22.533   2.653 -0.0011 -0.0282 -0.1087
    1OPC    PO467159   6.124  22.825   2.704  0.0998 -0.2003  0.1041
    1OPC    GL167160   6.064  23.198   2.861 -0.0861 -0.1282 -0.2657
    1OPC    GL267161   6.007  23.270   3.145 -0.0161 -0.0682 -0.2457
    1OPC    C1B67162   6.051  23.531   3.503 -0.1269 -0.2534  0.0351
    1OPC    D2B67163   6.116  23.895   3.791  0.0459 -0.0516  0.1654
    1OPC    C3B67164   5.990  23.813   4.174 -0.3149  0.1826  0.0640
    1OPC    C4B67165   5.640  23.764   4.334 -0.2882  0.2285  0.1730
    1OPC    NC367166   5.390  14.773   3.008  0.2335  0.0147  0.1577
    1OPC    PO467167   5.401  15.068   3.319 -0.3006 -0.3046 -0.0407
    1OPC    GL167168   5.416  14.912   3.727 -0.2141  0.0019  0.0787
    1OPC    GL267169   5.607  14.695   3.876 -0.0961 -0.1457  0.3298
    1OPC    C1B67170   5.687  14.502   4.230 -0.1301 -0.2850  0.3610
    1OPC    D2B67171   5.876  14.417   4.657  0.0739 -0.0801 -0.0382
    1OPC    C3B67172   5.676  14.663   5.036 -0.1790 -0.0337  0.2580
    1OPC    C4B67173   5.453  14.857   4.753  0.2964  0.0009  0.2426
    1OPC    NC367174   4.535  22.205   2.348 -0.3318  0.2613  0.2862
    1OPC    PO467175   4.201  22.543   2.454 -0.3451 -0.0786  0.1769
    1OPC    GL167176   4.044  22.517   2.927 -0.1198 -0.0393  0.1291
    1OPC    GL267177   4.118  22.467   3.241 -0.0732  0.0998 -0.1992
    1OPC    C1B67178   4.360  22.466   3.581 -0.1529 -0.0196 -0.1018
    1OPC    D2B67179   4.536  22.728   3.911 -0.3327  0.0104  0.0261
    1OPC    C3B67180   4.640  22.577   4.275 -0.0103  0.2572  0.1472
    1OPC    C4B67181   4.582  22.316   4.668  0.0230 -0.0029  0.1931
    1OPC    NC367182   7.873  23.251   3.241 -0.0043 -0.0132  0.1264
    1OPC    PO467183   8.030  22.792   3.272  0.1011 -0.0624 -0.2962
    1OPC    GL167184   7.766  22.860   3.568 -0.0918 -0.0525  0.1831
    1OPC    GL267185   7.708  22.651   3.737  0.2692  0.1269 -0.0681
    1OPC    C1B67186   7.887  22.612   4.029 -0.1491  0.0608  0.0483
    1OPC    D2B67187   7.861  22.683   4.506  0.0426  0.1239  0.2930
    1OPC    C3B67188   7.500  22.626   4.694 -0.3638 -0.0497 -0.1302
    1OPC    C4B67189   7.360  22.841   5.132  0.0696  0.2084 -0.2462
    1OPC    NC367190  15.207  26.923   3.079 -0.1253 -0.1135 -0.2240
    1OPC    PO467191  15.401  26.945   3.523  0.0529  0.0698  0.3989
    1OPC    GL167192  15.482  26.647   3.769  0.2606 -0.1444  0.0204
    1OPC    GL267193  15.365  26.449   3.992 -0.2489 -0.0442 -0.0674
    1OPC    C1B67194  15.174  26.302   4.378 -0.0474 -0.4712  0.3325
    1OPC    D2B67195  14.985  26.189   4.821 -0.0946 -0.3113  0.0018
    1OPC    C3B67196  15.324  26.204   5.166 -0.3804 -0.1072 -0.1325
    1OPC    C4B67197  15.473  26.119   5.581 -0.1027  0.1299 -0.0918
    1OPC    NC367198  24.374   6.590   2.230  0.1080  0.1986  0.0775
    1OPC    PO467199  24.182   6.879   2.396  0.1618 -0.0888 -0.1757
    1OPC    GL167200  24.222   6.962   2.834  0.1751  0.1883  0.0568
    1OPC    GL267201  24.160   7.146   3.116 -0.0437  0.1171 -0.3167
    1OPC    C1B67202  24.099   7.166   3.503 -0.2710  0.2191  0.1135
    1OPC    D2B67203  24.093   7.317   3.807  0.1636 -0.2536  0.3156
    1OPC    C3B67204  24.246   7.328   4.268  0.2067 -0.0684 -0.0186
    1OPC    C4B67205  24.120   7.469   4.706  0.0929 -0.1863  0.0914
    1OPC    NC367206   7.313  14.580   2.849 -0.3003  0.0369  0.0677
    1OPC    PO467207   7.131  14.689   3.079  0.0135  0.0961 -0.3024
    1OPC    GL167208   7.067  14.838   3.511 -0.0637 -0.0111 -0.1162
    1OPC    GL267209   6.942  14.937   3.716  0.0521 -0.0572 -0.2789
    1OPC    C1B67210   6.710  15.013   4.106  0.1171 -0.0922  0.0593
    1OPC    D2B67211   6.530  15.093   4.525 -0.3179 -0.2839 -0.2542
    1OPC    C3B67212   6.738  14.971   4.969 -0.0384  0.1013  0.1753
    1OPC    C4B67213   6.954  14.766   5.251 -0.1060 -0.2415  0.1542
    1OPC    NC367214  26.161   4.107   2.660  0.3619 -0.0901  0.0125
    1OPC    PO467215  26.367   3.782   3.014 -0.0593  0.2836 -0.0686
    1OPC    GL167216  26.730   3.638   3.168  0.1804  0.0127 -0.1095
    1OPC    GL267217  27.061   3.632   3.195  0.2360 -0.2259 -0.2276
    1OPC    C1B67218  27.309   3.708   3.573  0.1670 -0.1032 -0.2130
    1OPC    D2B67219  27.220   3.949   4.012  0.0305 -0.0660 -0.0809
    1OPC    C3B67220  26.971   4.339   3.924  0.2255 -0.0321  0.0047
    1OPC    C4B67221  26.786   4.351   4.348  0.2740 -0.1696  0.1945
    1OPC    NC367222  12.234   0.988   2.651  0.2837  0.0022  0.3473
    1OPC    PO467223  12.320   0.801   3.097 -0.3303 -0.0378  0.4054
    1OPC    GL167224  11.995   0.927   3.270 -0.1067  0.0362  0.0550
    1OPC    GL267225  11.899   0.789   3.598  0.0292  0.0940  0.0701
    1OPC    C1B67226  11.909   0.901   4.114 -0.1123 -0.2964  0.2145
    1OPC    D2B67227  12.083   1.035   4.429 -0.0054 -0.0367  0.1142
    1OPC    C3B67228  12.081   0.982   4.833  0.1942 -0.0549  0.2538
    1OPC    C4B67229  12.323   0.681   5.196  0.1156  0.1017 -0.0096
    1OPC    NC367230   1.895  15.386   2.592  0.0413 -0.1834  0.1064
    1OPC    PO467231   1.459  15.408   2.621 -0.2104  0.5265 -0.2258
    1OPC    GL167232   1.214  15.215   2.956  0.0053 -0.3729  0.1071
    1OPC    GL267233   1.215  15.406   3.265 -0.0040  0.1180  0.2045
    1OPC    C1B67234   1.490  15.442   3.671 -0.1479 -0.1615  0.1450
    1OPC    D2B67235   1.668  15.376   4.010  0.1352  0.2302 -0.3476
    1OPC    C3B67236   1.444  15.613   4.205  0.1974 -0.1348 -0.1602
    1OPC    C4B67237   1.150  16.064   4.275  0.0369 -0.2867 -0.0049
    1OPC    NC367238  12.801  26.554   3.522 -0.1518 -0.1933 -0.0121
    1OPC    PO467239  12.613  26.134   3.254  0.1317 -0.1567  0.3042
    1OPC    GL167240  12.344  25.929   3.538 -0.1293  0.0602  0.3235
    1OPC    GL267241  12.316  25.588   3.637  0.2710  0.1558 -0.0650
    1OPC    C1B67242  12.167  25.282   3.883  0.3227 -0.1650  0.1316
    1OPC    D2B67243  12.061  24.920   4.148  0.4659  0.2841  0.4071
    1OPC    C3B67244  11.922  24.923   4.596 -0.3903 -0.0359 -0.1887
    1OPC    C4B67245  11.671  24.724   4.791 -0.1933 -0.1982 -0.3019
    1OPC    NC367246   9.752  12.728   3.009  0.3211  0.1837  0.0862
    1OPC    PO467247   9.627  12.691   3.383 -0.3310  0.0275  0.1215
    1OPC    GL167248   9.487  12.980   3.702 -0.1617 -0.0720  0.2436
    1OPC    GL267249   9.491  12.982   4.006  0.0497  0.3217  0.0117
    1OPC    C1B67250   9.582  12.929   4.403 -0.0147  0.0944  0.2540
    1OPC    D2B67251   9.737  12.841   4.812 -0.1903 -0.0029 -0.0231
    1OPC    C3B67252   9.569  12.490   5.092 -0.2962 -0.0341 -0.0944
    1OPC    C4B67253   9.562  12.205   5.559  0.1765 -0.1913 -0.2052
    1OPC    NC367254  24.059  10.884   2.261  0.2453  0.1352 -0.0470
    1OPC    PO467255  23.782  10.662   2.496  0.1576 -0.1939  0.1875
    1OPC    GL167256  23.630  10.841   2.856  0.1637 -0.0052  0.0316
    1OPC    GL267257  23.684  10.853   3.208  0.1684  0.0393 -0.1684
    1OPC    C1B67258  23.776  10.695   3.639 -0.2412 -0.0598  0.1300
    1OPC    D2B67259  23.895  10.773   4.001 -0.0495 -0.1101  0.1955
    1OPC    C3B67260  23.666  10.905   4.334 -0.0486  0.0617  0.0648
    1OPC    C4B67261  23.246  10.747   4.377  0.0898 -0.1136 -0.3673
    1OPC    NC367262  11.371  26.126   3.217 -0.0582  0.1958 -0.1872
    1OPC    PO467263  11.637  25.768   3.192  0.1558  0.6308  0.0862
    1OPC    GL167264  11.835  25.916   3.533 -0.2524  0.1509 -0.0845
    1OPC    GL267265  11.985  26.184   3.765 -0.2849  0.1695  0.1132
    1OPC    C1B67266  12.261  26.077   4.034  0.3954 -0.2532  0.4385
    1OPC    D2B67267  12.353  26.309   4.452 -0.3448  0.1657  0.1937
    1OPC    C3B67268  12.364  26.111   4.805  0.0529 -0.1968 -0.1603
    1OPC    C4B67269  12.343  25.781   5.041 -0.1875  0.0095 -0.0540
    1OPC    NC367270  17.602   8.903   3.283  0.2595  0.3234  0.0986
    1OPC    PO467271  17.567   8.613   3.627  0.1615  0.2292  0.3313
    1OPC    GL167272  17.620   8.583   4.153  0.0009 -0.1596 -0.3516
    1OPC    GL267273  17.813   8.431   4.466 -0.1473  0.1335  0.0065
    1OPC    C1B67274  17.898   8.072   4.686  0.3345 -0.1586 -0.3426
    1OPC    D2B67275  17.856   7.857   5.007 -0.2653  0.3125 -0.1364
    1OPC    C3B67276  18.104   7.741   5.320 -0.1804  0.0706  0.3446
    1OPC    C4B67277  18.297   7.879   5.654  0.4524  0.1485  0.2705
    1OPC    NC367278  21.287  27.150   2.901  0.1627 -0.1670 -0.0830
    1OPC    PO467279  21.687  27.105   3.204  0.0696  0.1015 -0.0718
    1OPC    GL167280  21.562  27.091   3.648 -0.3393 -0.2738  0.1565
    1OPC    GL267281  21.484  27.168   3.903 -0.1677 -0.2473 -0.0263
    1OPC    C1B67282  21.466  27.204   4.324 -0.1026 -0.2820  0.1194
    1OPC    D2B67283  21.552  27.151   4.830  0.1455 -0.3271 -0.2365
    1OPC    C3B67284  21.803  27.190   5.096 -0.1998  0.1592 -0.2059
    1OPC    C4B67285  22.170  27.420   5.192  0.0207 -0.0427  0.1946
    1OPC    NC367286  15.046  27.990   3.524  0.0255  0.1706  0.4814
    1OPC    PO467287  15.222   0.157   3.533 -0.2389  0.2955 -0.0937
    1OPC    GL167288  15.109   0.457   3.681  0.0002  0.0430 -0.2617
    1OPC    GL267289  14.824   0.404   3.915  0.3216 -0.2972  0.0393
    1OPC    C1B67290  14.605   0.347   4.346  0.2539  0.0972  0.2504
    1OPC    D2B67291  14.365  28.061   4.180  0.0608  0.1995  0.2757
    1OPC    C3B67292  14.080  27.799   4.508  0.1487  0.1423 -0.2623
    1OPC    C4B67293  13.774  27.793   4.793 -0.2072  0.1501 -0.1256
    1OPC    NC367294   0.235  19.938   2.877 -0.0812 -0.0398 -0.1122
    1OPC    PO467295   0.278  19.491   2.801 -0.0598  0.1425  0.3248
    1OPC    GL167296   0.195  19.469   3.190  0.1096 -0.1624 -0.1323
    1OPC    GL267297  28.055  19.525   3.409  0.3283  0.1165 -0.2439
    1OPC    C1B67298  27.809  19.818   3.686  0.0726  0.1476  0.2381
    1OPC    D2B67299  27.801  20.154   3.715  0.2526 -0.0979 -0.0643
    1OPC    C3B67300  27.721  20.278   4.112  0.1547 -0.0554  0.1770
    1OPC    C4B67301  27.726  20.128   4.483  0.0490 -0.2542 -0.0613
    1OPC    NC367302  13.787   4.215   3.168 -0.2369  0.1870 -0.1552
    1OPC    PO467303  13.386   4.343   3.407 -0.3566 -0.2240  0.1135
    1OPC    GL167304  13.300   4.647   3.789 -0.0002 -0.0348 -0.0356
    1OPC    GL267305  13.070   4.728   4.071  0.1250  0.1092  0.1409
    1OPC    C1B67306  12.988   4.463   4.531 -0.1484 -0.0223 -0.0173
    1OPC    D2B67307  12.853   4.328   4.903 -0.1210  0.0680 -0.0315
    1OPC    C3B67308  12.742   4.521   5.253 -0.0761 -0.1341 -0.1345
    1OPC    C4B67309  12.554   4.743   5.589 -0.1219 -0.0867 -0.5401
    1OPC    NC367310  24.549  14.196   2.727 -0.1094  0.0961 -0.1529
    1OPC    PO467311  24.477  13.759   2.470  0.2656  0.0624  0.1862
    1OPC    GL167312  24.481  13.729   2.920 -0.0135  0.1027  0.1121
    1OPC    GL267313  24.413  13.653   3.249  0.3286 -0.2603  0.0550
    1OPC    C1B67314  24.553  13.597   3.665 -0.1902  0.0818  0.1459
    1OPC    D2B67315  24.895  13.509   3.933 -0.2721 -0.2826 -0.1639
    1OPC    C3B67316  24.895  13.311   4.320  0.1847 -0.0084 -0.1076
    1OPC    C4B67317  24.693  13.391   4.695  0.1044 -0.1924 -0.2148
    1OPC    NC367318   1.172   7.758   1.978  0.0854 -0.2836 -0.1025
    1OPC    PO467319   0.809   7.552   2.211 -0.0110 -0.0489 -0.1039
    1OPC    GL167320   0.566   7.370   2.498 -0.1090 -0.3203  0.0855
    1OPC    GL267321   0.413   7.349   2.762  0.3808 -0.0455 -0.1929
    1OPC    C1B67322   0.247   7.414   3.261 -0.1703  0.0673  0.0369
    1OPC    D2B67323   0.304   7.192   3.495  0.0435  0.0459 -0.2148
    1OPC    C3B67324   0.416   7.249   3.833  0.2214  0.2131  0.1714
    1OPC    C4B67325   0.145   7.394   4.154  0.2121 -0.2111  0.1828
    1OPC    NC367326  24.601  27.463   2.795 -0.0094  0.5535  0.4184
    1OPC    PO467327  24.996  27.580   2.933 -0.0850  0.2068 -0.2638
    1OPC    GL167328  25.157  27.477   3.227 -0.0662  0.1529 -0.0922
    1OPC    GL267329  25.219  27.583   3.474 -0.0290 -0.1295 -0.0798
    1OPC    C1B67330  25.314  27.605   3.855 -0.0184 -0.2038  0.1992
    1OPC    D2B67331  25.320  27.687   4.300 -0.0825  0.0065  0.2770
    1OPC    C3B67332  25.219  27.451   4.663 -0.0617  0.0303  0.0811
    1OPC    C4B67333  25.248  27.145   4.992 -0.0928 -0.1182 -0.3905
    1OPC    NC367334  11.193   9.048   2.884  0.0414  0.2781  0.1917
    1OPC    PO467335  10.889   8.957   3.084 -0.1808  0.2843  0.0226
    1OPC    GL167336  11.206   8.839   3.397 -0.0301  0.0052 -0.2780
    1OPC    GL267337  11.385   8.948   3.653 -0.0398  0.0761  0.2091
    1OPC    C1B67338  11.403   9.117   4.048 -0.3030  0.1321  0.0203
    1OPC    D2B67339  11.599   9.337   4.357 -0.1064  0.3767  0.1762
    1OPC    C3B67340  11.482   9.456   4.741  0.3179 -0.0433  0.1926
    1OPC    C4B67341  11.305   9.726   5.061  0.1152 -0.3361  0.1934
    1OPC    NC367342  12.272   6.999   3.203 -0.1809 -0.2114  0.2588
    1OPC    PO467343  12.690   6.916   3.484 -0.1300  0.0059 -0.1385
    1OPC    GL167344  12.879   7.241   3.692 -0.1799  0.0278 -0.0892
    1OPC    GL267345  12.824   7.457   3.909 -0.0134 -0.0524 -0.1738
    1OPC    C1B67346  12.591   7.406   4.259 -0.0389 -0.1950  0.3185
    1OPC    D2B67347  12.219   7.466   4.308 -0.2684  0.0041  0.3905
    1OPC    C3B67348  12.257   7.603   4.773 -0.0251  0.3270 -0.1147
    1OPC    C4B67349  12.261   7.538   5.215  0.0746 -0.0699 -0.2501
    1OPC    NC367350  24.088   8.335   2.673  0.0439 -0.1758  0.1886
    1OPC    PO467351  23.661   8.269   2.915  0.0549 -0.0158  0.3167
    1OPC    GL167352  23.740   8.097   3.327  0.0658 -0.0832  0.0821
    1OPC    GL267353  23.636   8.269   3.602  0.1163 -0.0884 -0.2531
    1OPC    C1B67354  23.535   8.529   3.973 -0.0132  0.1335  0.0011
    1OPC    D2B67355  23.344   8.584   4.527 -0.1087 -0.0665  0.3509
    1OPC    C3B67356  23.350   8.659   4.951  0.1008 -0.1563 -0.3010
    1OPC    C4B67357  23.514   8.607   5.261  0.2369  0.1634  0.3724
    1OPC    NC367358  15.065  24.236   2.933 -0.1501 -0.1531 -0.0750
    1OPC    PO467359  15.343  24.473   3.279  0.0580 -0.1576 -0.0269
    1OPC    GL167360  15.333  24.500   3.737 -0.1770  0.1041  0.1587
    1OPC    GL267361  15.472  24.384   3.889 -0.3434 -0.0147  0.4059
    1OPC    C1B67362  15.635  24.154   4.207  0.0891  0.0260 -0.2406
    1OPC    D2B67363  15.702  23.883   4.637  0.0062 -0.0227  0.0245
    1OPC    C3B67364  15.783  24.266   4.920  0.3179 -0.0814  0.1558
    1OPC    C4B67365  15.952  24.662   4.736  0.2085  0.1824  0.0915
    1OPC    NC367366  10.391   0.583   3.080 -0.2211  0.0122  0.0494
    1OPC    PO467367  10.515   0.946   3.282 -0.3623 -0.1814 -0.3202
    1OPC    GL167368  10.683   1.104   3.691 -0.0931 -0.2747 -0.0976
    1OPC    GL267369  10.643   1.164   4.068 -0.1269  0.0910 -0.3621
    1OPC    C1B67370  10.578   1.031   4.423 -0.1665 -0.3354  0.0164
    1OPC    D2B67371  10.413   1.240   4.713  0.0381 -0.2975 -0.0202
    1OPC    C3B67372  10.197   1.090   5.051  0.1510 -0.1041  0.1972
    1OPC    C4B67373   9.957   1.133   5.397 -0.1701  0.3271 -0.1593
    1OPC    NC367374  10.712  10.749   2.920  0.1710 -0.2134 -0.0152
    1OPC    PO467375  10.446  10.403   2.890  0.1578  0.0557  0.0165
    1OPC    GL167376  10.352  10.422   3.279 -0.3620  0.1005  0.0305
    1OPC    GL267377  10.497  10.351   3.603  0.0726 -0.4006 -0.1813
    1OPC    C1B67378  10.576  10.379   3.987 -0.3683  0.3313 -0.1202
    1OPC    D2B67379  10.512  10.296   4.391  0.2243 -0.0131 -0.0598
    1OPC    C3B67380  10.448  10.013   4.764  0.1172 -0.1381 -0.1046
    1OPC    C4B67381  10.314   9.646   4.957 -0.0684 -0.0495  0.3350
    1OPC    NC367382   5.859  16.023   3.146  0.0203 -0.0666 -0.1965
    1OPC    PO467383   6.012  15.656   3.209  0.2182 -0.3417  0.2416
    1OPC    GL167384   6.173  15.489   3.634 -0.0043  0.0664  0.3161
    1OPC    GL267385   6.206  15.382   3.928 -0.2163  0.0514 -0.0401
    1OPC    C1B67386   6.134  15.376   4.307 -0.0766  0.5998  0.0336
    1OPC    D2B67387   5.996  15.472   4.726  0.2310  0.1744  0.2388
    1OPC    C3B67388   5.597  15.737   4.709  0.2042  0.1845  0.2368
    1OPC    C4B67389   5.165  15.853   4.662  0.1516 -0.0763 -0.0820
    1OPC    NC367390   5.545  13.846   3.132  0.2097 -0.3697 -0.0672
    1OPC    PO467391   5.540  14.320   3.113 -0.0189 -0.0972  0.3857
    1OPC    GL167392   5.439  14.028   3.594  0.0407  0.0361  0.1181
    1OPC    GL267393   5.358  14.172   3.859  0.2276  0.0705 -0.0317
    1OPC    C1B67394   5.364  14.071   4.288  0.1224 -0.0427  0.1222
    1OPC    D2B67395   5.395  14.357   4.656 -0.0169 -0.1113  0.1600
    1OPC    C3B67396   5.655  14.207   5.016 -0.3327  0.2200  0.0222
    1OPC    C4B67397   5.705  13.822   5.261 -0.1270  0.0300 -0.0363
    1OPC    NC367398  10.164   4.427   3.431  0.2773  0.0469 -0.0567
    1OPC    PO467399  10.279   4.946   3.311 -0.0025 -0.0268 -0.1947
    1OPC    GL167400  10.391   5.296   3.636 -0.0405  0.0386  0.0640
    1OPC    GL267401  10.341   5.442   3.886  0.0681 -0.2184 -0.3275
    1OPC    C1B67402  10.037   5.604   3.908 -0.1691 -0.1189 -0.2748
    1OPC    D2B67403   9.797   5.827   4.183 -0.0908 -0.2899  0.0994
    1OPC    C3B67404   9.664   5.776   4.573 -0.2745 -0.0513  0.0915
    1OPC    C4B67405   9.845   5.690   4.935  0.2534  0.4290 -0.0998
    1OPC    NC367406  14.770   5.156   3.680 -0.0025  0.0908 -0.2275
    1OPC    PO467407  14.467   5.394   3.891  0.0890 -0.0120  0.2571
    1OPC    GL167408  14.288   5.032   4.010  0.3089 -0.2666  0.1340
    1OPC    GL267409  14.212   4.916   4.333  0.0309  0.2616  0.2231
    1OPC    C1B67410  14.196   4.804   4.919 -0.1455  0.0758  0.1732
    1OPC    D2B67411  14.350   4.999   5.182 -0.3840  0.1364  0.3598
    1OPC    C3B67412  14.058   5.150   5.333  0.4402 -0.0867  0.1823
    1OPC    C4B67413  13.835   5.246   5.725 -0.0825  0.1834 -0.0460
    1OPC    NC367414   9.789   0.074   3.401 -0.0624 -0.0170  0.1478
    1OPC    PO467415  10.219   0.228   3.410 -0.0500 -0.6040 -0.1139
    1OPC    GL167416  10.559   0.143   3.890  0.0177  0.0498 -0.0443
    1OPC    GL267417  10.471   0.222   4.169 -0.1315  0.2480 -0.0084
    1OPC    C1B67418  10.206   0.180   4.411 -0.2095  0.3020  0.0432
    1OPC    D2B67419  10.216  28.008   4.834  0.2928  0.1004  0.0491
    1OPC    C3B67420  10.280  27.974   5.272  0.1446 -0.2528 -0.1395
    1OPC    C4B67421  10.412  28.118   5.591  0.0582  0.0058 -0.2316
    1OPC    NC367422  11.180  13.856   3.942  0.1731  0.0310  0.2207
    1OPC    PO467423  11.400  14.126   3.529  0.2772 -0.0571 -0.0818
    1OPC    GL167424  11.255  14.420   3.843  0.0631  0.0914  0.1470
    1OPC    GL267425  11.288  14.559   4.164 -0.0605 -0.0834 -0.2206
    1OPC    C1B67426  11.244  14.515   4.609  0.4219 -0.0462 -0.2082
    1OPC    D2B67427  11.184  14.265   5.022 -0.0227  0.2469  0.0887
    1OPC    C3B67428  10.930  14.436   5.390  0.4179 -0.0264  0.2301
    1OPC    C4B67429  10.712  14.625   5.736 -0.2675 -0.0047 -0.0596
    1OPC    NC367430  10.555   8.561   3.046 -0.0216  0.2090  0.0539
    1OPC    PO467431  10.386   8.343   3.398 -0.1274 -0.1337  0.5257
    1OPC    GL167432  10.142   8.481   3.604 -0.1937 -0.2568 -0.2919
    1OPC    GL267433   9.878   8.427   3.839  0.1786  0.0532  0.0497
    1OPC    C1B67434   9.873   8.316   4.230  0.0377 -0.0457  0.1942
    1OPC    D2B67435   9.839   8.185   4.663  0.1474  0.0852 -0.0854
    1OPC    C3B67436  10.041   8.504   4.974 -0.2065  0.0102  0.0113
    1OPC    C4B67437  10.064   8.629   5.477  0.0325  0.0702  0.2740
    1OPC    NC367438  24.754  12.126   2.575 -0.3817  0.0649 -0.1732
    1OPC    PO467439  25.023  12.534   2.472 -0.1422  0.1986  0.0382
    1OPC    GL167440  25.096  12.592   2.858  0.1755  0.2976  0.0899
    1OPC    GL267441  24.984  12.702   3.258 -0.2553  0.0544  0.0742
    1OPC    C1B67442  25.146  12.744   3.620 -0.0723  0.2752  0.2445
    1OPC    D2B67443  25.295  13.101   3.985 -0.0130  0.0794  0.0059
    1OPC    C3B67444  25.364  12.955   4.440 -0.0418  0.1273  0.0930
    1OPC    C4B67445  25.548  13.017   4.820 -0.1132 -0.0839  0.1986
    1OPC    NC367446   7.400  12.965   3.170 -0.1004  0.3105  0.1866
    1OPC    PO467447   7.267  12.735   3.473 -0.0890 -0.0139 -0.0838
    1OPC    GL167448   7.185  13.146   3.623 -0.1656  0.1763  0.1448
    1OPC    GL267449   7.148  13.371   3.877 -0.1103 -0.3548  0.1191
    1OPC    C1B67450   6.815  13.680   3.964  0.0630  0.1293  0.1799
    1OPC    D2B67451   6.529  13.555   4.341  0.2679  0.0558  0.1429
    1OPC    C3B67452   6.511  13.315   4.746  0.0300  0.0242 -0.2356
    1OPC    C4B67453   6.515  13.165   5.209  0.0922 -0.1452  0.1732
    1OPC    NC367454  14.926  18.477   3.094  0.2014 -0.3638  0.3447
    1OPC    PO467455  15.151  18.055   3.297 -0.1360  0.2982  0.1837
    1OPC    GL167456  15.076  18.342   3.631  0.0188 -0.0161 -0.1753
    1OPC    GL267457  15.225  18.586   3.815  0.0118 -0.0547  0.0720
    1OPC    C1B67458  15.039  19.050   3.906  0.2791 -0.0841 -0.1641
    1OPC    D2B67459  14.901  19.260   4.174 -0.2523  0.1955  0.0548
    1OPC    C3B67460  14.909  19.357   4.611  0.2826 -0.2768 -0.1047
    1OPC    C4B67461  15.060  19.537   4.962 -0.3009 -0.0745  0.2240
    1OPC    NC367462   3.403  25.410   3.048 -0.1858 -0.0959 -0.3266
    1OPC    PO467463   3.505  25.849   3.165  0.0526  0.3604 -0.0843
    1OPC    GL167464   3.182  26.068   3.267  0.0681  0.0322  0.2301
    1OPC    GL267465   2.999  26.345   3.345  0.1181  0.0247  0.2223
    1OPC    C1B67466   3.036  26.488   3.678 -0.0846 -0.0584  0.2280
    1OPC    D2B67467   3.129  26.492   4.077 -0.0749 -0.0398  0.0575
    1OPC    C3B67468   3.484  26.251   4.247 -0.0470  0.3043  0.3629
    1OPC    C4B67469   3.774  26.001   4.244 -0.1279 -0.2836 -0.0550
    1OPC    NC367470  13.154  13.694   3.652 -0.0258 -0.0025  0.0969
    1OPC    PO467471  13.553  13.496   3.678  0.0028 -0.0590 -0.1144
    1OPC    GL167472  13.698  13.601   4.029  0.1461  0.1065 -0.0239
    1OPC    GL267473  13.650  13.786   4.370  0.2773 -0.0135  0.1002
    1OPC    C1B67474  13.509  14.151   4.670  0.1327  0.2153  0.2040
    1OPC    D2B67475  13.135  14.261   4.926  0.1610  0.0767 -0.0391
    1OPC    C3B67476  12.974  14.057   5.281 -0.1728 -0.1069 -0.0559
    1OPC    C4B67477  12.991  14.341   5.583  0.2649 -0.0800  0.2913
    1OPC    NC367478  16.904  10.232   3.926  0.2017  0.2051 -0.0304
    1OPC    PO467479  17.042  10.578   3.808 -0.1696  0.0760 -0.2615
    1OPC    GL167480  17.291  10.751   4.165 -0.2559 -0.0126  0.1221
    1OPC    GL267481  17.385  10.784   4.496  0.2164  0.0991  0.0604
    1OPC    C1B67482  17.456  10.892   4.999  0.0626 -0.0925  0.0219
    1OPC    D2B67483  17.667  10.921   5.365 -0.1639 -0.1084  0.3529
    1OPC    C3B67484  18.120  10.934   5.372 -0.2969  0.0153 -0.1372
    1OPC    C4B67485  18.386  10.847   5.594  0.3052  0.1250  0.1860
    1OPC    NC367486   9.452  16.664   3.035 -0.2346 -0.1867  0.0942
    1OPC    PO467487   9.831  16.481   3.129 -0.0585 -0.0674  0.1623
    1OPC    GL167488  10.056  16.760   3.318  0.0700 -0.2834 -0.0028
    1OPC    GL267489  10.081  16.825   3.606 -0.0746 -0.0853  0.2661
    1OPC    C1B67490  10.324  16.822   4.081  0.1441 -0.1150  0.1063
    1OPC    D2B67491  10.215  16.645   4.467  0.1694  0.1379 -0.1784
    1OPC    C3B67492  10.224  16.837   4.886 -0.1876  0.1206 -0.0243
    1OPC    C4B67493  10.396  16.841   5.251 -0.1422  0.4177  0.0825
    1OPC    NC367494  27.139  26.875   2.954  0.2602 -0.0386  0.0165
    1OPC    PO467495  27.123  27.206   2.681 -0.0110  0.2753  0.1243
    1OPC    GL167496  27.055  27.433   3.001 -0.1602 -0.3832 -0.1093
    1OPC    GL267497  27.175  27.461   3.302 -0.0684  0.0299  0.2489
    1OPC    C1B67498  27.362  27.579   3.678 -0.2393 -0.1323 -0.0527
    1OPC    D2B67499  27.401  27.747   4.050  0.2847  0.0191 -0.2843
    1OPC    C3B67500  27.531  27.688   4.361 -0.1345 -0.0126 -0.0100
    1OPC    C4B67501  27.767  27.537   4.789 -0.4019 -0.0033  0.0252
    1OPC    NC367502  24.551   4.016   2.248 -0.0368  0.0329 -0.0610
    1OPC    PO467503  24.659   3.918   2.752 -0.6514 -0.1774  0.2566
    1OPC    GL167504  24.829   4.056   3.138 -0.2695  0.2740  0.0216
    1OPC    GL267505  24.993   4.084   3.389 -0.2067 -0.4686 -0.0290
    1OPC    C1B67506  25.139   4.123   3.878 -0.2105  0.1922  0.4082
    1OPC    D2B67507  24.955   4.221   4.260  0.2182 -0.0095 -0.1111
    1OPC    C3B67508  24.980   4.140   4.619  0.3484 -0.2018 -0.0398
    1OPC    C4B67509  24.591   4.214   4.878  0.4722  0.0839 -0.1084
    1OPC    NC367510   4.608  27.592   2.853 -0.0776  0.1151  0.1935
    1OPC    PO467511   4.360  27.943   2.526  0.3504 -0.1519  0.1458
    1OPC    GL167512   4.193  27.862   2.890 -0.1891  0.1192  0.0158
    1OPC    GL267513   4.181  27.697   3.167 -0.2681  0.0764 -0.0556
    1OPC    C1B67514   4.124  27.604   3.662  0.0054  0.1005  0.1551
    1OPC    D2B67515   4.239  27.731   4.038  0.0156 -0.2881  0.1498
    1OPC    C3B67516   4.331  27.828   4.467  0.1920 -0.1126  0.4797
    1OPC    C4B67517   4.217   0.037   4.752 -0.1025  0.1873 -0.0928
    1OPC    NC367518  22.678   3.049   3.026  0.0449 -0.0691  0.1082
    1OPC    PO467519  23.035   2.905   2.762 -0.2253 -0.2216 -0.0726
    1OPC    GL167520  23.103   3.093   3.240 -0.0507  0.2231 -0.4109
    1OPC    GL267521  23.137   2.994   3.484 -0.1629 -0.0145 -0.0338
    1OPC    C1B67522  23.085   2.895   3.921  0.2890  0.1184  0.1107
    1OPC    D2B67523  22.965   3.013   4.260 -0.0524 -0.0249  0.0299
    1OPC    C3B67524  22.698   3.293   4.438 -0.1311 -0.2246 -0.0375
    1OPC    C4B67525  22.488   3.356   4.934 -0.2402  0.1563 -0.3450
    1OPC    NC367526  16.099   7.324   3.073 -0.1133  0.2939 -0.0498
    1OPC    PO467527  16.286   7.412   3.506  0.0181 -0.1495  0.4041
    1OPC    GL167528  16.113   7.704   3.781  0.0513  0.0507 -0.1997
    1OPC    GL267529  16.089   7.807   4.050 -0.0945 -0.0464  0.0450
    1OPC    C1B67530  16.080   7.726   4.566  0.2244  0.0071  0.0281
    1OPC    D2B67531  16.290   7.486   4.836 -0.3712 -0.0445  0.1320
    1OPC    C3B67532  16.000   7.311   5.205  0.1772 -0.2786 -0.2941
    1OPC    C4B67533  15.739   7.107   5.538 -0.0377 -0.0438 -0.2519
    1OPC    NC367534   6.001   7.916   2.375 -0.0877  0.0186 -0.0851
    1OPC    PO467535   5.930   7.547   2.597 -0.1774  0.2236 -0.0503
    1OPC    GL167536   5.878   7.421   3.031  0.1020  0.1082  0.1059
    1OPC    GL267537   5.782   7.095   3.342 -0.2312 -0.0253 -0.0807
    1OPC    C1B67538   5.621   6.808   3.768 -0.2067 -0.0366  0.1386
    1OPC    D2B67539   5.368   6.648   4.070  0.0550  0.2767  0.0163
    1OPC    C3B67540   5.271   6.821   4.511  0.3579  0.1323  0.0066
    1OPC    C4B67541   4.866   6.600   4.740  0.3405 -0.0387 -0.4088
    1OPC    NC367542   9.241   1.298   2.939 -0.1095 -0.1007 -0.2414
    1OPC    PO467543   8.949   0.941   3.087  0.0518  0.1959 -0.0383
    1OPC    GL167544   8.618   1.008   3.341  0.2240 -0.0473  0.1463
    1OPC    GL267545   8.532   0.787   3.523  0.1347  0.0941 -0.1508
    1OPC    C1B67546   8.208   0.568   3.654  0.2195  0.1823  0.1182
    1OPC    D2B67547   8.064   0.212   3.898 -0.0526 -0.0653  0.0483
    1OPC    C3B67548   7.983   0.208   4.319  0.1868  0.0791  0.2153
    1OPC    C4B67549   7.579  28.074   4.444 -0.0636  0.1904 -0.0016
    1OPC    NC367550   8.814   2.387   2.419 -0.1799 -0.2184 -0.0200
    1OPC    PO467551   9.092   2.274   2.652 -0.0975 -0.1494 -0.2970
    1OPC    GL167552   9.030   2.297   3.121 -0.2675 -0.0378  0.1445
    1OPC    GL267553   9.098   2.164   3.421  0.2210  0.0673 -0.2325
    1OPC    C1B67554   9.029   1.850   3.747 -0.6673 -0.1667 -0.0207
    1OPC    D2B67555   9.169   1.724   4.150 -0.0515 -0.0096  0.2825
    1OPC    C3B67556   9.485   1.551   4.483 -0.0518 -0.1713 -0.0806
    1OPC    C4B67557   9.622   1.773   4.836  0.2325 -0.2434 -0.0615
    1OPC    NC367558  25.259  17.163   2.180 -0.1064 -0.1275 -0.0507
    1OPC    PO467559  25.335  16.818   2.467 -0.1706  0.1977 -0.1060
    1OPC    GL167560  25.503  16.741   2.849 -0.0202  0.0037 -0.3428
    1OPC    GL267561  25.695  16.660   2.988 -0.3520 -0.3574 -0.2730
    1OPC    C1B67562  25.895  16.625   3.389  0.2963 -0.3045 -0.0668
    1OPC    D2B67563  25.821  16.751   3.800 -0.5766 -0.0289 -0.1199
    1OPC    C3B67564  25.637  16.683   4.256 -0.2153 -0.3149  0.0049
    1OPC    C4B67565  25.766  16.464   4.623  0.1526  0.1117  0.2716
    1OPC    NC367566  16.428  23.117   2.933  0.0220  0.2888  0.1652
    1OPC    PO467567  16.176  23.534   3.116 -0.0085  0.1659 -0.1060
    1OPC    GL167568  16.415  23.331   3.430  0.1791 -0.1566  0.1177
    1OPC    GL267569  16.559  23.529   3.720  0.0928 -0.2488 -0.3680
    1OPC    C1B67570  16.415  23.662   4.114  0.2308  0.0385 -0.0258
    1OPC    D2B67571  16.764  23.948   4.263  0.0613  0.1998 -0.3008
    1OPC    C3B67572  16.818  23.821   4.613 -0.0918 -0.0989  0.1845
    1OPC    C4B67573  17.100  23.878   4.926  0.3622 -0.0507 -0.0573
    1OPC    NC367574  12.697  12.233   4.040 -0.1098  0.1643 -0.0179
    1OPC    PO467575  12.916  12.650   3.985  0.1320 -0.1136 -0.3459
    1OPC    GL167576  12.716  12.638   4.404  0.4525 -0.1786  0.3308
    1OPC    GL267577  12.509  12.614   4.714 -0.1115 -0.0847 -0.1569
    1OPC    C1B67578  12.486  12.557   5.115 -0.0261  0.1675  0.0092
    1OPC    D2B67579  12.453  12.276   5.379  0.0056  0.0274  0.0558
    1OPC    C3B67580  11.993  12.089   5.434 -0.0136  0.2754  0.1146
    1OPC    C4B67581  11.568  12.268   5.579  0.1755 -0.1517 -0.1886
    1OPC    NC367582  14.878   0.677   3.200  0.3502  0.1205 -0.2374
    1OPC    PO467583  15.028   0.924   3.530  0.0347  0.2481 -0.3022
    1OPC    GL167584  15.158   0.820   4.003 -0.0597  0.1205 -0.0569
    1OPC    GL267585  15.346   0.829   4.252 -0.2591 -0.1661 -0.1877
    1OPC    C1B67586  15.378   0.881   4.623  0.0570  0.1108  0.0813
    1OPC    D2B67587  15.316   0.659   5.009  0.1799  0.0158 -0.0719
    1OPC    C3B67588  15.550   0.369   5.097  0.1210 -0.0806 -0.2229
    1OPC    C4B67589  15.462   0.103   5.266  0.0125 -0.0249  0.2218
    1OPC    NC367590   7.361   5.015   2.282 -0.1387 -0.0934 -0.0758
    1OPC    PO467591   7.082   5.056   2.626 -0.0013 -0.0097 -0.1161
    1OPC    GL167592   6.803   5.142   2.921 -0.3892 -0.0488  0.1369
    1OPC    GL267593   6.835   5.236   3.282  0.2175  0.4347 -0.1586
    1OPC    C1B67594   6.827   4.974   3.700 -0.0847 -0.0314  0.0258
    1OPC    D2B67595   6.823   4.800   4.109 -0.1258 -0.1266  0.0506
    1OPC    C3B67596   6.693   5.045   4.463 -0.0122 -0.1376 -0.0038
    1OPC    C4B67597   6.706   5.213   4.873 -0.2957  0.1534  0.0443
    1OPC    NC367598  10.314  24.986   3.099  0.1673  0.0453  0.2577
    1OPC    PO467599  10.579  25.244   2.862  0.1595  0.1425 -0.1264
    1OPC    GL167600  10.649  25.331   3.245  0.1475 -0.0875 -0.2848
    1OPC    GL267601  10.833  25.402   3.461 -0.1190 -0.0996  0.4589
    1OPC    C1B67602  11.149  25.735   3.643  0.0804  0.1674  0.1172
    1OPC    D2B67603  11.429  26.033   3.739  0.3928  0.0258 -0.0124
    1OPC    C3B67604  11.578  26.039   4.118 -0.1548  0.0109 -0.2870
    1OPC    C4B67605  11.544  25.634   4.415 -0.2542  0.3663 -0.1134
    1OPC    NC367606  27.376  17.301   2.057  0.0254  0.2537  0.0425
    1OPC    PO467607  27.133  17.303   2.532  0.2021  0.2159 -0.1710
    1OPC    GL167608  26.967  17.342   2.995  0.0433 -0.1732  0.0732
    1OPC    GL267609  26.795  17.485   3.289 -0.0279 -0.0229 -0.1264
    1OPC    C1B67610  26.952  17.478   3.645 -0.1839 -0.0229  0.0319
    1OPC    D2B67611  27.050  17.420   4.085 -0.1438  0.1046 -0.1156
    1OPC    C3B67612  27.402  17.360   4.262  0.2512  0.1917  0.1083
    1OPC    C4B67613  27.733  17.156   4.493  0.3361  0.1278 -0.2812
    1OPC    NC367614   3.682  13.117   2.618 -0.0500  0.3044  0.2087
    1OPC    PO467615   4.017  13.039   2.599 -0.2116  0.1544 -0.0177
    1OPC    GL167616   4.121  13.195   2.949 -0.0168 -0.0672  0.0104
    1OPC    GL267617   4.151  13.172   3.214  0.0999  0.0285  0.0333
    1OPC    C1B67618   4.161  13.007   3.624 -0.3918 -0.2397 -0.1677
    1OPC    D2B67619   3.950  12.735   3.851 -0.3228 -0.1032  0.1214
    1OPC    C3B67620   3.657  12.772   4.236  0.0718  0.0872  0.2638
    1OPC    C4B67621   3.299  13.043   4.349  0.4545  0.1594 -0.1778
    1OPC    NC367622  26.697  27.986   2.530  0.1029 -0.1327  0.1541
    1OPC    PO467623  27.043  27.881   2.889 -0.0946 -0.0269  0.0589
    1OPC    GL167624  27.424  28.026   3.092 -0.3261  0.0489 -0.0621
    1OPC    GL267625  27.546  28.035   3.408  0.0620 -0.1040 -0.0899
    1OPC    C1B67626  27.569  28.121   3.742 -0.4488  0.1560  0.0584
    1OPC    D2B67627  27.679   0.030   4.154  0.0705 -0.0461  0.3671
    1OPC    C3B67628  28.017  27.779   4.298  0.2742  0.0255 -0.1089
    1OPC    C4B67629   0.336  27.618   4.471  0.0018 -0.1919  0.0451
    1OPC    NC367630  27.318  17.647   2.828 -0.2416  0.1220 -0.2505
    1OPC    PO467631  27.460  18.026   2.785 -0.0664 -0.0842 -0.2598
    1OPC    GL167632  27.698  18.055   3.133 -0.1757  0.1148 -0.4609
    1OPC    GL267633  27.586  18.242   3.433  0.2693  0.1028 -0.2654
    1OPC    C1B67634  27.441  18.472   3.865  0.2880 -0.2442  0.0197
    1OPC    D2B67635  27.434  18.471   4.245  0.3314  0.0745  0.3052
    1OPC    C3B67636  27.485  18.223   4.476 -0.1122 -0.0249 -0.0283
    1OPC    C4B67637  27.304  18.083   4.837  0.1363  0.2430  0.2234
    1OPC    NC367638  19.258  14.265   3.362  0.2117 -0.0606 -0.0647
    1OPC    PO467639  19.631  14.127   3.219  0.1836  0.2479  0.1618
    1OPC    GL167640  19.767  13.746   3.200 -0.0119  0.0451  0.0741
    1OPC    GL267641  19.840  13.615   3.463  0.1002  0.0350  0.1799
    1OPC    C1B67642  19.845  13.663   3.907  0.1025  0.1453  0.1869
    1OPC    D2B67643  19.553  13.442   4.173  0.1274 -0.0352 -0.0718
    1OPC    C3B67644  19.044  13.366   4.234 -0.1261  0.4830 -0.2831
    1OPC    C4B67645  18.870  13.438   4.559  0.1252 -0.1228  0.1511
    1OPC    NC367646  20.143   7.485   2.380 -0.0084 -0.0181 -0.3080
    1OPC    PO467647  20.287   7.507   2.790 -0.0551  0.1179 -0.0390
    1OPC    GL167648  20.164   7.279   3.165 -0.3131  0.1794 -0.1884
    1OPC    GL267649  20.258   6.972   3.368  0.0517 -0.3060  0.0124
    1OPC    C1B67650  20.189   6.635   3.735 -0.0612 -0.0042 -0.1386
    1OPC    D2B67651  20.108   6.441   4.206 -0.4600  0.2184 -0.1841
    1OPC    C3B67652  20.052   6.054   3.960 -0.1066  0.2324  0.0651
    1OPC    C4B67653  20.305   5.645   3.792  0.1893  0.3440 -0.1750
    1OPC    NC367654  25.398   4.231   2.232 -0.1012 -0.2333 -0.2806
    1OPC    PO467655  25.365   4.395   2.592 -0.3662 -0.0844  0.1165
    1OPC    GL167656  25.784   4.385   2.837  0.1232  0.1207  0.0261
    1OPC    GL267657  25.866   4.425   3.115 -0.1316 -0.0840 -0.1020
    1OPC    C1B67658  25.852   4.189   3.456  0.2592  0.0795 -0.2144
    1OPC    D2B67659  25.604   3.948   3.828 -0.3619 -0.3080  0.0160
    1OPC    C3B67660  25.611   3.544   3.978  0.0131 -0.5650 -0.1423
    1OPC    C4B67661  25.661   3.246   4.226  0.3339 -0.1361 -0.1622
    1OPC    NC367662   2.064   7.798   2.232 -0.1387  0.1608  0.0120
    1OPC    PO467663   1.666   7.565   2.091 -0.0557  0.3367  0.2761
    1OPC    GL167664   1.765   7.486   2.592  0.2263  0.0192 -0.0187
    1OPC    GL267665   1.771   7.355   2.956  0.1823  0.1503 -0.3155
    1OPC    C1B67666   1.741   7.058   3.239  0.3250 -0.0988  0.2410
    1OPC    D2B67667   1.776   6.815   3.600 -0.0605  0.2593  0.1848
    1OPC    C3B67668   1.562   6.776   3.937  0.0648 -0.0411 -0.1085
    1OPC    C4B67669   1.760   6.496   4.289  0.1562  0.0894  0.1836
    1OPC    NC367670   6.705  16.480   2.993 -0.2137 -0.2131  0.0776
    1OPC    PO467671   6.704  16.167   3.351 -0.0789  0.0952 -0.1177
    1OPC    GL167672   6.674  16.375   3.747  0.0451 -0.2751 -0.1283
    1OPC    GL267673   6.602  16.275   4.003  0.1434  0.1977 -0.1935
    1OPC    C1B67674   6.464  15.807   4.000  0.1738 -0.0319 -0.1122
    1OPC    D2B67675   6.594  15.573   4.271 -0.0099  0.0906  0.0442
    1OPC    C3B67676   6.495  15.548   4.756  0.2030  0.2194  0.0591
    1OPC    C4B67677   6.635  15.502   5.145  0.4865  0.1257  0.2049
    1OPC    NC367678  19.009   3.488   2.977 -0.1378  0.0453 -0.2241
    1OPC    PO467679  19.483   3.474   2.947 -0.0483 -0.0163 -0.1934
    1OPC    GL167680  19.468   3.611   3.412  0.2706 -0.0471 -0.1242
    1OPC    GL267681  19.604   3.606   3.659  0.0430 -0.0344  0.0283
    1OPC    C1B67682  20.002   3.573   3.853  0.1060  0.3038  0.0616
    1OPC    D2B67683  19.891   3.528   4.225 -0.0130 -0.2269 -0.1200
    1OPC    C3B67684  19.984   3.879   4.501  0.1628  0.2151  0.1843
    1OPC    C4B67685  20.130   4.326   4.693  0.1837  0.1687  0.0243
    1OPC    NC367686  17.254   8.926   3.974  0.4040  0.0888  0.0793
    1OPC    PO467687  17.387   9.344   3.602 -0.0712  0.3130 -0.1549
    1OPC    GL167688  17.492   9.595   3.997  0.0747  0.0705  0.0150
    1OPC    GL267689  17.615   9.620   4.349 -0.1069  0.1013 -0.0193
    1OPC    C1B67690  17.873   9.807   4.663  0.0043 -0.0526 -0.0023
    1OPC    D2B67691  18.101   9.935   5.095  0.1222 -0.1928  0.0512
    1OPC    C3B67692  18.149   9.598   5.439 -0.1716 -0.0814  0.0720
    1OPC    C4B67693  18.568   9.505   5.673 -0.0034 -0.0535 -0.3286
    1OPC    NC367694  19.803   3.893   2.948 -0.0419 -0.0089 -0.0737
    1OPC    PO467695  19.965   3.532   3.125 -0.2232 -0.1529  0.0944
    1OPC    GL167696  20.013   3.839   3.429  0.3041  0.1300 -0.2321
    1OPC    GL267697  19.823   4.102   3.394 -0.1283  0.3507  0.0260
    1OPC    C1B67698  19.932   4.558   3.396 -0.0261 -0.2917  0.4179
    1OPC    D2B67699  19.941   5.011   3.601  0.0503 -0.1025 -0.1193
    1OPC    C3B67700  19.946   5.209   3.986 -0.1427 -0.1102  0.2787
    1OPC    C4B67701  19.859   5.600   4.057 -0.2723  0.4799 -0.0050
    1OPC    NC367702  13.673  26.430   2.593  0.1511  0.1113 -0.0209
    1OPC    PO467703  13.785  26.823   2.923  0.0514 -0.1574 -0.0305
    1OPC    GL167704  13.881  26.629   3.367 -0.2745  0.1074  0.1511
    1OPC    GL267705  13.925  26.642   3.713 -0.4170  0.2040  0.2728
    1OPC    C1B67706  13.798  26.653   4.104 -0.2304  0.0208 -0.1159
    1OPC    D2B67707  13.669  26.404   4.329  0.1737  0.1611 -0.3942
    1OPC    C3B67708  13.573  26.445   4.738  0.0607  0.3128  0.1124
    1OPC    C4B67709  13.548  26.348   5.147  0.1999 -0.0897 -0.1308
    1OPC    NC367710  11.100  21.289   2.758  0.1503 -0.0442 -0.2888
    1OPC    PO467711  11.225  21.218   3.172  0.3102 -0.2207  0.0928
    1OPC    GL167712  11.101  21.396   3.535 -0.0544  0.1116  0.1267
    1OPC    GL267713  11.070  21.262   3.924  0.1568  0.1553  0.1414
    1OPC    C1B67714  10.993  21.134   4.312 -0.2240 -0.0132  0.1617
    1OPC    D2B67715  11.112  20.808   4.657  0.2776  0.1372 -0.1731
    1OPC    C3B67716  10.872  20.500   4.785 -0.1346 -0.0186  0.1979
    1OPC    C4B67717  10.923  20.074   5.000 -0.1891  0.0629 -0.0958
    1OPC    NC367718   8.905   0.237   2.292  0.1115  0.1087  0.1486
    1OPC    PO467719   9.002   0.125   2.750 -0.1792 -0.0054  0.0790
    1OPC    GL167720   8.588   0.088   2.843 -0.0795  0.0498 -0.0585
    1OPC    GL267721   8.303   0.184   2.869 -0.1721  0.1520 -0.0962
    1OPC    C1B67722   7.946   0.384   3.236 -0.1062  0.3330 -0.0419
    1OPC    D2B67723   7.633   0.533   3.481  0.0220 -0.4945 -0.1994
    1OPC    C3B67724   7.837   0.743   3.854  0.0502 -0.1126  0.0447
    1OPC    C4B67725   7.719   0.684   4.311  0.1394  0.1704  0.1503
    1OPC    NC367726  18.621   7.306   3.456  0.2421  0.1291 -0.1295
    1OPC    PO467727  19.026   7.549   3.584  0.2074 -0.1016  0.0803
    1OPC    GL167728  19.172   7.574   4.026 -0.5417 -0.3088  0.2286
    1OPC    GL267729  19.220   7.570   4.286  0.5041  0.2366 -0.2419
    1OPC    C1B67730  19.306   7.475   4.736 -0.2218 -0.0182  0.0286
    1OPC    D2B67731  19.385   7.120   4.953  0.2629 -0.1329 -0.0228
    1OPC    C3B67732  19.642   7.093   5.343 -0.1139  0.0130  0.2693
    1OPC    C4B67733  19.963   6.867   5.599  0.0410 -0.1038  0.0063
    1OPC    NC367734  18.077  14.141   3.287 -0.0644 -0.2431  0.1013
    1OPC    PO467735  18.084  13.744   3.137  0.2111 -0.2175  0.0578
    1OPC    GL167736  17.890  13.802   3.616 -0.1683 -0.1462 -0.2818
    1OPC    GL267737  17.716  13.748   3.957 -0.1207  0.2128 -0.2790
    1OPC    C1B67738  17.751  13.646   4.371 -0.0073  0.2214  0.1118
    1OPC    D2B67739  17.589  13.561   4.780 -0.2497 -0.0430 -0.1517
    1OPC    C3B67740  17.223  13.905   5.057  0.0672  0.0247  0.0073
    1OPC    C4B67741  16.945  13.860   5.370  0.0663  0.0668 -0.4566
    1OPC    NC367742  27.898  13.894   2.757 -0.2292  0.0801  0.1155
    1OPC    PO467743   0.135  14.189   2.870 -0.0517  0.0263  0.0625
    1OPC    GL167744  28.044  13.946   3.251 -0.0550  0.0859 -0.0399
    1OPC    GL267745   0.085  13.817   3.556  0.0172  0.0333  0.0226
    1OPC    C1B67746   0.030  13.582   3.909 -0.2102 -0.1897 -0.0816
    1OPC    D2B67747   0.141  13.356   4.112 -0.2024  0.1080  0.2082
    1OPC    C3B67748   0.042  13.234   4.424 -0.1464  0.2868 -0.2760
    1OPC    C4B67749   0.210  12.904   4.665  0.1179  0.3965  0.1397
    1OPC    NC367750   2.229   2.331   1.968  0.0680  0.1565  0.1409
    1OPC    PO467751   2.096   1.958   2.197  0.1038 -0.1483 -0.0140
    1OPC    GL167752   1.869   1.952   2.546 -0.2437  0.0695  0.0023
    1OPC    GL267753   1.995   1.993   2.854 -0.0485 -0.2568 -0.1277
    1OPC    C1B67754   2.060   1.927   3.382 -0.3618 -0.0449 -0.0515
    1OPC    D2B67755   2.244   1.913   3.743  0.0696 -0.0567 -0.0564
    1OPC    C3B67756   2.013   1.828   4.122  0.3171  0.4804 -0.2245
    1OPC    C4B67757   1.628   1.942   4.231 -0.1289  0.0783 -0.0023
    1OPC    NC367758  11.737  10.648   3.050  0.0858  0.0636  0.1707
    1OPC    PO467759  12.187  10.585   3.282  0.0184  0.0693  0.0497
    1OPC    GL167760  12.325  10.704   3.687 -0.0154  0.1834 -0.1207
    1OPC    GL267761  12.270  10.838   3.985  0.0768 -0.1962 -0.0418
    1OPC    C1B67762  12.041  10.848   4.308 -0.2558  0.0609  0.0422
    1OPC    D2B67763  11.769  10.721   4.686  0.1058  0.1130 -0.2014
    1OPC    C3B67764  11.917  10.845   5.166 -0.3436  0.0787  0.2253
    1OPC    C4B67765  11.768  10.880   5.544  0.1836  0.2329 -0.2045
    1OPC    NC367766   5.235  20.203   3.222  0.0715 -0.1664 -0.0171
    1OPC    PO467767   5.277  20.617   3.349 -0.2674  0.3897  0.1279
    1OPC    GL167768   5.342  20.729   3.838  0.2470 -0.2697  0.2649
    1OPC    GL267769   5.190  20.531   4.070 -0.1534 -0.2216  0.2957
    1OPC    C1B67770   4.857  20.705   4.356 -0.4289 -0.1482 -0.1603
    1OPC    D2B67771   4.468  20.868   4.326 -0.0410 -0.0338 -0.0327
    1OPC    C3B67772   4.381  20.958   4.775 -0.0864 -0.2361 -0.0645
    1OPC    C4B67773   4.216  21.182   5.195 -0.3051 -0.1730  0.3470
    1OPC    NC367774  14.091  15.723   3.210  0.0477  0.0670 -0.0228
    1OPC    PO467775  13.745  15.609   3.140  0.1800  0.0514  0.3471
    1OPC    GL167776  13.793  15.469   3.590 -0.0031  0.0183 -0.0169
    1OPC    GL267777  13.679  15.465   3.930 -0.2908  0.1080 -0.1772
    1OPC    C1B67778  13.618  15.096   4.253 -0.0912  0.1484 -0.0821
    1OPC    D2B67779  13.673  15.117   4.722  0.1900 -0.0562  0.0448
    1OPC    C3B67780  13.508  14.980   5.127  0.3975 -0.1033  0.2699
    1OPC    C4B67781  13.490  14.865   5.560 -0.1156  0.0097  0.2016
    1OPC    NC367782   7.375  13.786   2.527  0.1132 -0.0332 -0.1390
    1OPC    PO467783   7.746  13.893   2.861  0.3673 -0.0157  0.0555
    1OPC    GL167784   7.593  13.919   3.277 -0.1519  0.1495 -0.1635
    1OPC    GL267785   7.418  13.948   3.594 -0.0019  0.0143 -0.1838
    1OPC    C1B67786   7.333  13.816   3.915 -0.3941 -0.1722  0.0150
    1OPC    D2B67787   7.263  13.702   4.343 -0.1748 -0.2980  0.0914
    1OPC    C3B67788   7.167  13.804   4.779 -0.1028  0.2483  0.2555
    1OPC    C4B67789   6.974  13.547   5.023 -0.0345  0.0318 -0.0429
    1OPC    NC367790   7.953   3.521   2.402 -0.3718  0.1106 -0.0982
    1OPC    PO467791   8.003   3.450   2.917 -0.1850  0.2138 -0.0017
    1OPC    GL167792   7.762   3.214   3.146  0.1456  0.0417 -0.0123
    1OPC    GL267793   7.799   3.063   3.396 -0.2493 -0.2182 -0.3632
    1OPC    C1B67794   7.554   2.766   3.736  0.1046  0.0567  0.0891
    1OPC    D2B67795   7.339   2.336   3.714  0.1130 -0.2356  0.3226
    1OPC    C3B67796   7.282   2.102   4.063  0.0023  0.0337 -0.0166
    1OPC    C4B67797   7.299   2.052   4.493  0.0437  0.1645 -0.2329
    1OPC    NC367798  24.697   2.112   2.887 -0.0891  0.1655 -0.1317
    1OPC    PO467799  24.953   1.742   3.101  0.2049 -0.0944  0.0646
    1OPC    GL167800  24.666   1.851   3.416 -0.2649 -0.2323  0.4024
    1OPC    GL267801  24.585   1.876   3.736 -0.1497  0.1153  0.0364
    1OPC    C1B67802  24.530   1.976   4.173 -0.1467 -0.1634 -0.1164
    1OPC    D2B67803  24.425   2.166   4.540 -0.0436 -0.0138 -0.0914
    1OPC    C3B67804  24.159   2.496   4.500 -0.1705 -0.2170 -0.0843
    1OPC    C4B67805  23.771   2.682   4.691 -0.0372  0.1832 -0.0700
    1OPC    NC367806  21.331  10.254   3.097 -0.0153 -0.1565  0.2300
    1OPC    PO467807  21.010   9.886   3.073 -0.1453 -0.1488 -0.0290
    1OPC    GL167808  20.953   9.597   3.434 -0.3314  0.0787  0.1299
    1OPC    GL267809  20.805   9.443   3.831 -0.2401 -0.1117 -0.0441
    1OPC    C1B67810  20.623   9.674   4.240 -0.0839  0.1536 -0.0543
    1OPC    D2B67811  20.557  10.030   4.481  0.1659  0.2674  0.0762
    1OPC    C3B67812  20.824  10.398   4.652 -0.1156  0.1981  0.2357
    1OPC    C4B67813  21.049  10.738   4.488 -0.2490  0.0635  0.1826
    1OPC    NC367814   1.470  20.060   2.415 -0.0842 -0.1958  0.1805
    1OPC    PO467815   1.045  19.900   2.315 -0.0920 -0.2634 -0.1949
    1OPC    GL167816   1.101  19.918   2.764 -0.0595  0.0577  0.1636
    1OPC    GL267817   1.153  19.980   3.145 -0.0147 -0.1697 -0.0415
    1OPC    C1B67818   0.867  20.034   3.435  0.0938 -0.2007  0.1595
    1OPC    D2B67819   0.643  19.650   3.531 -0.1872 -0.1024 -0.1688
    1OPC    C3B67820   0.526  19.591   3.853 -0.0073 -0.1736  0.1037
    1OPC    C4B67821   0.209  19.498   4.137 -0.1559 -0.0147 -0.2076
    1OPC    NC367822   7.447  10.335   2.798 -0.1688  0.3535 -0.0861
    1OPC    PO467823   7.144  10.654   2.959  0.0882  0.3644 -0.0797
    1OPC    GL167824   7.456  10.865   3.335 -0.1204 -0.2186  0.4263
    1OPC    GL267825   7.428  10.915   3.695 -0.0375  0.1437  0.0329
    1OPC    C1B67826   7.437  11.118   4.120 -0.0239 -0.0875 -0.0179
    1OPC    D2B67827   7.277  11.173   4.529 -0.1029  0.3545 -0.2322
    1OPC    C3B67828   7.533  11.379   4.831 -0.1145  0.0833  0.0588
    1OPC    C4B67829   7.817  11.633   5.081 -0.3808  0.1109 -0.1108
    1OPC    NC367830   5.881   1.693   2.228 -0.1214 -0.1406 -0.3075
    1OPC    PO467831   5.694   2.131   2.377  0.2324  0.0490  0.0732
    1OPC    GL167832   5.995   2.132   2.690  0.0003 -0.0185  0.0691
    1OPC    GL267833   6.020   2.173   3.009 -0.1691  0.1350 -0.2427
    1OPC    C1B67834   5.893   2.341   3.426  0.0465  0.2537 -0.3144
    1OPC    D2B67835   5.819   2.436   3.881  0.2710  0.2002  0.0276
    1OPC    C3B67836   5.777   2.111   4.259 -0.3592  0.0860 -0.1570
    1OPC    C4B67837   5.683   2.110   4.629 -0.0172 -0.1696 -0.0986
    1OPC    NC367838  12.669   1.663   3.211  0.1278  0.0812 -0.1137
    1OPC    PO467839  12.954   1.505   3.118 -0.0251  0.1283  0.1334
    1OPC    GL167840  13.203   1.452   3.480  0.0118  0.2416  0.0162
    1OPC    GL267841  13.338   1.427   3.834 -0.0155  0.0266 -0.4711
    1OPC    C1B67842  13.361   1.393   4.271 -0.0659  0.2237 -0.2739
    1OPC    D2B67843  13.031   1.417   4.659  0.0407  0.0956 -0.1300
    1OPC    C3B67844  13.031   1.475   5.174  0.2515  0.0935 -0.0202
    1OPC    C4B67845  12.792   1.683   5.477 -0.0431  0.1725  0.0434
    1OPC    NC367846  16.901   8.296   3.743 -0.0679  0.2152 -0.0788
    1OPC    PO467847  16.950   8.668   3.764  0.1517  0.1505 -0.1994
    1OPC    GL167848  17.048   8.539   4.196  0.1262  0.2198  0.0080
    1OPC    GL267849  16.847   8.263   4.411  0.1114  0.1026  0.0330
    1OPC    C1B67850  16.859   8.107   4.800 -0.0534  0.3046  0.1123
    1OPC    D2B67851  17.115   8.159   5.219  0.2236 -0.0010 -0.1710
    1OPC    C3B67852  17.352   8.602   5.313 -0.1361 -0.1147 -0.0125
    1OPC    C4B67853  17.617   8.809   5.653  0.2712 -0.0756  0.1529
    1OPC    NC367854  19.164   3.910   2.096 -0.2600  0.3009  0.1602
    1OPC    PO467855  19.001   4.244   2.409  0.1654  0.1158 -0.1158
    1OPC    GL167856  18.996   4.581   2.780 -0.2005 -0.3717  0.0134
    1OPC    GL267857  18.790   4.612   3.065 -0.1867 -0.1422 -0.0042
    1OPC    C1B67858  18.852   4.391   3.514 -0.3304 -0.1658  0.1192
    1OPC    D2B67859  18.815   4.410   4.034  0.2008 -0.2895  0.1142
    1OPC    C3B67860  19.301   4.449   4.042 -0.0683  0.0714 -0.2379
    1OPC    C4B67861  19.591   4.252   4.378 -0.3902  0.1271 -0.1299
    1OPC    NC367862  14.865   8.022   3.245 -0.4175  0.2763 -0.0895
    1OPC    PO467863  15.011   8.393   3.500  0.0199 -0.1386  0.0855
    1OPC    GL167864  14.791   8.302   3.977 -0.3081 -0.0780 -0.1198
    1OPC    GL267865  14.808   8.274   4.293 -0.3029  0.0489  0.0182
    1OPC    C1B67866  14.685   8.358   4.709 -0.3303  0.0635 -0.0669
    1OPC    D2B67867  14.683   8.186   5.196 -0.1680 -0.3111  0.1317
    1OPC    C3B67868  14.516   7.781   5.145 -0.2409  0.1573  0.2129
    1OPC    C4B67869  14.245   7.506   5.459  0.0697  0.1530 -0.1028
    1OPC    NC367870   4.896   2.690   2.113 -0.1986  0.0297  0.1823
    1OPC    PO467871   4.637   2.576   2.424 -0.2406  0.1269  0.0392
    1OPC    GL167872   4.474   2.656   2.815  0.0768  0.0715 -0.1444
    1OPC    GL267873   4.421   2.808   3.158  0.0630  0.0160  0.1154
    1OPC    C1B67874   4.447   2.800   3.558  0.1006 -0.0961 -0.0142
    1OPC    D2B67875   4.425   2.758   4.001  0.1670 -0.1625  0.3792
    1OPC    C3B67876   4.854   2.744   4.147 -0.1516  0.1538 -0.2942
    1OPC    C4B67877   5.170   2.446   3.993  0.0494 -0.1846 -0.1565
    1OPC    NC367878   2.717   9.963   2.154 -0.0866  0.0831  0.3660
    1OPC    PO467879   2.894   9.766   2.567  0.1797 -0.0173 -0.4415
    1OPC    GL167880   2.690   9.908   2.935 -0.1463 -0.2432  0.1890
    1OPC    GL267881   2.502   9.726   3.093  0.1369  0.2383 -0.0817
    1OPC    C1B67882   2.492   9.595   3.633 -0.2466 -0.5212 -0.0067
    1OPC    D2B67883   2.626   9.448   4.046  0.1782  0.1604  0.1524
    1OPC    C3B67884   2.553   9.612   4.406 -0.1543  0.2047 -0.0778
    1OPC    C4B67885   2.575   9.856   4.776  0.1914 -0.2105 -0.2052
    1OPC    NC367886  11.238  23.371   2.954  0.0466 -0.0013  0.0156
    1OPC    PO467887  10.779  23.183   2.798  0.4161  0.2021  0.0589
    1OPC    GL167888  10.935  23.152   3.322 -0.1676 -0.3125 -0.0972
    1OPC    GL267889  11.266  23.255   3.506  0.1828  0.0857 -0.1966
    1OPC    C1B67890  11.623  23.179   3.760  0.0347  0.1159 -0.2988
    1OPC    D2B67891  11.836  23.104   4.114  0.0791 -0.0264 -0.1912
    1OPC    C3B67892  11.674  23.263   4.486 -0.2314 -0.2191 -0.2139
    1OPC    C4B67893  11.952  23.204   4.897  0.2543 -0.1626 -0.0665
    1OPC    NC367894  21.479  21.156   3.210 -0.2966  0.1182 -0.1048
    1OPC    PO467895  21.137  21.379   3.065 -0.1571 -0.0782 -0.1608
    1OPC    GL167896  21.081  21.607   3.488 -0.3161 -0.1787 -0.0308
    1OPC    GL267897  20.996  21.456   3.810 -0.0388 -0.1779  0.2973
    1OPC    C1B67898  20.976  21.396   4.259  0.1123  0.2326  0.1304
    1OPC    D2B67899  21.190  21.071   4.467  0.1507  0.0800  0.0584
    1OPC    C3B67900  21.370  21.131   4.912 -0.1609 -0.2646 -0.0661
    1OPC    C4B67901  21.102  21.055   5.294  0.2148  0.0955  0.2092
    1OPC    NC367902  22.182   4.422   3.265 -0.0767  0.2560 -0.0603
    1OPC    PO467903  22.447   4.378   2.934 -0.1576 -0.0951 -0.2313
    1OPC    GL167904  22.648   4.211   3.286 -0.1137 -0.4692  0.2393
    1OPC    GL267905  22.641   3.874   3.378  0.0884  0.1703  0.0241
    1OPC    C1B67906  22.590   3.668   3.858  0.1440 -0.1304  0.3028
    1OPC    D2B67907  22.746   3.777   4.269  0.2172  0.1120  0.1510
    1OPC    C3B67908  22.432   3.869   4.588 -0.0365 -0.4426 -0.1559
    1OPC    C4B67909  22.225   4.053   4.917  0.0557  0.0774 -0.0481
    1OPC    NC367910  15.543   0.307   3.903  0.1568  0.0586  0.0304
    1OPC    PO467911  16.007   0.016   3.949  0.1050 -0.0473  0.0917
    1OPC    GL167912  16.213  27.920   4.234  0.1121  0.2277  0.1075
    1OPC    GL267913  16.162  27.843   4.499  0.1483 -0.2510 -0.2106
    1OPC    C1B67914  16.101  27.723   4.974  0.0250  0.1526 -0.0706
    1OPC    D2B67915  15.752  27.729   5.242  0.3721 -0.0872 -0.1051
    1OPC    C3B67916  15.925  27.410   5.476 -0.2902  0.0252 -0.1058
    1OPC    C4B67917  15.756  26.973   5.552 -0.2209  0.0726  0.3674
    1OPC    NC367918  13.064  19.796   2.882 -0.0698  0.0305 -0.1718
    1OPC    PO467919  13.398  20.000   3.131  0.1119  0.1536  0.2156
    1OPC    GL167920  13.655  20.208   3.305  0.1082 -0.0908  0.2708
    1OPC    GL267921  13.682  20.284   3.600  0.1440 -0.1464 -0.0888
    1OPC    C1B67922  13.814  20.185   4.005 -0.1407  0.1857 -0.1204
    1OPC    D2B67923  13.742  20.048   4.406 -0.0721  0.1742 -0.2846
    1OPC    C3B67924  13.399  19.822   4.503  0.0434  0.0907 -0.2868
    1OPC    C4B67925  13.163  19.585   4.825 -0.1395  0.1793  0.2344
    1OPC    NC367926   7.775  24.679   2.764 -0.2796 -0.1087  0.2704
    1OPC    PO467927   7.424  24.705   2.995  0.3292  0.0819 -0.2577
    1OPC    GL167928   7.526  24.931   3.271  0.0222  0.2158 -0.3773
    1OPC    GL267929   7.322  25.016   3.560  0.0428 -0.1181  0.2294
    1OPC    C1B67930   7.485  24.954   3.960 -0.2238 -0.1985 -0.2044
    1OPC    D2B67931   7.653  24.553   4.236 -0.1918 -0.0483  0.1610
    1OPC    C3B67932   7.490  24.574   4.600  0.0463 -0.0822 -0.1966
    1OPC    C4B67933   7.253  24.848   4.835  0.2639  0.2313 -0.0392
    1OPC    NC367934  13.865  27.760   2.741  0.1168  0.2222  0.1021
    1OPC    PO467935  14.002  27.550   3.187  0.1319 -0.3615  0.0799
    1OPC    GL167936  14.141  27.820   3.609 -0.0678 -0.5187  0.0956
    1OPC    GL267937  14.090  27.722   3.933  0.2948  0.1560  0.1915
    1OPC    C1B67938  14.301  27.384   4.246  0.0239 -0.1365 -0.3268
    1OPC    D2B67939  14.366  27.267   4.629 -0.0327  0.2437 -0.1224
    1OPC    C3B67940  14.221  27.552   4.943  0.1944  0.0342 -0.2849
    1OPC    C4B67941  13.978  27.774   5.249  0.4965  0.1815 -0.0850
    1OPC    NC367942   5.349  27.483   1.798 -0.2924  0.0163 -0.0933
    1OPC    PO467943   5.155  27.625   2.176  0.0592 -0.0652 -0.1044
    1OPC    GL167944   4.950  27.716   2.548 -0.0559 -0.0026  0.0979
    1OPC    GL267945   5.071  27.829   2.815  0.0769  0.1246  0.1971
    1OPC    C1B67946   5.102  27.769   3.261  0.4296 -0.2144 -0.3485
    1OPC    D2B67947   5.276  27.790   3.757  0.0870  0.0496  0.0551
    1OPC    C3B67948   5.212   0.077   3.980 -0.0528 -0.3028  0.1637
    1OPC    C4B67949   5.486   0.316   4.218 -0.2768  0.1369  0.2036
    1OPC    NC367950   4.704   3.754   2.084  0.2267 -0.2567 -0.0013
    1OPC    PO467951   4.900   3.391   2.311 -0.0260  0.0150 -0.1602
    1OPC    GL167952   5.098   3.415   2.720  0.4107 -0.1618 -0.1794
    1OPC    GL267953   5.076   3.281   3.043 -0.0199 -0.0174  0.3224
    1OPC    C1B67954   4.948   2.961   3.457  0.2215  0.1781 -0.0453
    1OPC    D2B67955   4.755   3.170   3.833  0.0269 -0.0857 -0.1726
    1OPC    C3B67956   4.348   3.325   3.687  0.1216 -0.0023  0.2829
    1OPC    C4B67957   4.056   3.656   3.799 -0.4986 -0.2309 -0.0750
    1OPC    NC367958  16.579  27.413   2.910  0.0438  0.1887  0.2615
    1OPC    PO467959  16.702  26.950   3.110 -0.0878  0.1057  0.1324
    1OPC    GL167960  16.587  26.635   3.408  0.0169  0.0955  0.3132
    1OPC    GL267961  16.662  26.429   3.638 -0.0049 -0.0006 -0.0435
    1OPC    C1B67962  16.978  26.285   4.044  0.0014 -0.0725  0.2919
    1OPC    D2B67963  16.998  25.903   4.334  0.2115 -0.2989 -0.3327
    1OPC    C3B67964  17.346  25.714   4.005 -0.2602  0.0792  0.1783
    1OPC    C4B67965  17.788  25.728   4.154 -0.1346  0.1341  0.2617
    1OPC    NC367966  22.184  20.717   3.100 -0.2349 -0.1591  0.0388
    1OPC    PO467967  22.485  20.457   2.933  0.2431  0.2127 -0.0300
    1OPC    GL167968  22.363  20.208   3.295  0.2849  0.1476  0.1406
    1OPC    GL267969  22.413  19.958   3.585  0.2257  0.2317  0.1127
    1OPC    C1B67970  22.650  19.864   4.009  0.2840 -0.0482  0.1917
    1OPC    D2B67971  22.798  19.812   4.458  0.3091 -0.3488  0.0076
    1OPC    C3B67972  23.041  19.556   4.757 -0.1182 -0.1265 -0.1188
    1OPC    C4B67973  23.213  19.297   4.947  0.0250  0.0866  0.2847
    1OPC    NC367974  24.638  25.218   3.287  0.0221  0.0207 -0.3518
    1OPC    PO467975  25.079  25.116   3.223 -0.2508  0.0793 -0.2574
    1OPC    GL167976  25.353  24.920   3.506  0.1056 -0.0065 -0.2521
    1OPC    GL267977  25.617  24.855   3.723 -0.1641  0.1306 -0.2113
    1OPC    C1B67978  25.966  24.788   3.954 -0.0561 -0.0414 -0.1909
    1OPC    D2B67979  26.236  24.873   4.338 -0.0461  0.0493 -0.1029
    1OPC    C3B67980  26.147  25.142   4.590  0.2601  0.0417 -0.1591
    1OPC    C4B67981  25.992  25.117   4.948 -0.0551  0.2559  0.0479
    1OPC    NC367982   5.611  21.799   3.289 -0.0485  0.0958  0.0711
    1OPC    PO467983   5.721  22.160   2.966  0.1750 -0.3219 -0.2566
    1OPC    GL167984   5.594  22.299   3.290 -0.1901 -0.2795  0.1079
    1OPC    GL267985   5.443  22.269   3.619 -0.0577 -0.1727  0.0519
    1OPC    C1B67986   5.523  22.349   4.115  0.0886  0.1136 -0.3350
    1OPC    D2B67987   5.503  22.616   4.491 -0.1792  0.0268 -0.0893
    1OPC    C3B67988   5.540  23.052   4.483 -0.1227 -0.0067 -0.0225
    1OPC    C4B67989   5.438  23.416   4.693 -0.1011  0.0935  0.1497
    1OPC    NC367990  24.840   8.994   2.201  0.1801 -0.0871  0.0575
    1OPC    PO467991  24.923   9.230   2.594 -0.1173  0.3103 -0.3336
    1OPC    GL167992  25.176   9.053   2.981 -0.0156  0.2887  0.2374
    1OPC    GL267993  25.358   9.135   3.230  0.0283 -0.1017  0.2473
    1OPC    C1B67994  25.520   9.010   3.625 -0.3585  0.2551  0.1173
    1OPC    D2B67995  25.603   8.760   4.021 -0.1272 -0.1070  0.1894
    1OPC    C3B67996  25.771   8.847   4.346 -0.0077 -0.0999  0.0194
    1OPC    C4B67997  25.816   9.189   4.608  0.2811 -0.0832  0.1080
    1OPC    NC367998  10.109   7.458   3.419 -0.1074 -0.0977  0.1573
    1OPC    PO467999  10.235   7.879   3.268 -0.0668 -0.0473  0.0007
    1OPC    GL168000  10.064   7.993   3.600 -0.3553  0.1762  0.0621
    1OPC    GL268001   9.882   7.937   3.869 -0.2162 -0.4735 -0.0171
    1OPC    C1B68002   9.744   7.782   4.332 -0.0838 -0.1058  0.3696
    1OPC    D2B68003   9.647   7.739   4.785 -0.1769 -0.0626  0.1519
    1OPC    C3B68004   9.629   7.976   5.147 -0.2073  0.1083  0.0046
    1OPC    C4B68005   9.733   7.790   5.587 -0.2137  0.0186 -0.0635
    1OPC    NC368006  12.594  10.877   3.257 -0.1591 -0.2478  0.0840
    1OPC    PO468007  12.992  10.919   3.423 -0.4284 -0.1071 -0.0469
    1OPC    GL168008  12.791  10.958   3.761  0.3941 -0.0078 -0.0024
    1OPC    GL268009  12.848  11.014   3.998 -0.1602 -0.0474  0.1368
    1OPC    C1B68010  13.040  10.805   4.327 -0.2585  0.0931  0.0357
    1OPC    D2B68011  13.277  10.935   4.732  0.1795 -0.2848 -0.1142
    1OPC    C3B68012  13.108  10.769   5.084  0.0154  0.0234 -0.0459
    1OPC    C4B68013  12.783  10.858   5.296 -0.0370  0.1151 -0.0330
    1OPC    NC368014  27.003   2.347   1.665  0.1530  0.4136  0.0226
    1OPC    PO468015  27.044   2.576   2.067  0.0470  0.0271  0.1602
    1OPC    GL168016  27.083   2.615   2.593  0.0645  0.4921 -0.1636
    1OPC    GL268017  27.244   2.450   2.865  0.0742  0.1677  0.2467
    1OPC    C1B68018  27.516   2.537   3.261  0.0218  0.3389 -0.0255
    1OPC    D2B68019  27.615   2.641   3.773  0.0847 -0.1621  0.0559
    1OPC    C3B68020  27.423   2.798   4.065 -0.1390  0.1305  0.1242
    1OPC    C4B68021  27.621   3.144   4.282  0.1349 -0.1016 -0.1316
    1OPC    NC368022  13.275  15.877   3.240 -0.0752  0.2071  0.2300
    1OPC    PO468023  12.838  15.727   3.479 -0.2567  0.0412  0.1759
    1OPC    GL168024  13.225  15.597   3.677  0.0919 -0.1071 -0.1385
    1OPC    GL268025  13.240  15.609   4.028 -0.0136 -0.1021 -0.0502
    1OPC    C1B68026  13.360  15.475   4.429  0.2404 -0.2664  0.0675
    1OPC    D2B68027  13.293  15.599   4.832  0.2420  0.4619  0.2528
    1OPC    C3B68028  13.637  15.542   5.103 -0.1752  0.0712 -0.2148
    1OPC    C4B68029  13.695  15.358   5.474 -0.0042 -0.1531 -0.1211
    1OPC    NC368030  23.557  13.384   2.262 -0.0163 -0.1050  0.0556
    1OPC    PO468031  23.507  13.588   2.692 -0.1565  0.3503 -0.1133
    1OPC    GL168032  23.477  13.438   3.102  0.0579 -0.1234 -0.2174
    1OPC    GL268033  23.552  13.257   3.353  0.1541  0.0626  0.1754
    1OPC    C1B68034  23.725  12.993   3.675  0.0859 -0.0245  0.1608
    1OPC    D2B68035  24.006  12.937   4.079 -0.2118  0.0888  0.0237
    1OPC    C3B68036  24.415  12.747   3.940 -0.1830 -0.0862 -0.2931
    1OPC    C4B68037  24.654  12.660   3.593  0.2718 -0.0096 -0.1066
    1OPC    NC368038  26.886   3.348   1.963  0.3513  0.1873  0.1402
    1OPC    PO468039  26.853   3.598   2.271 -0.0632 -0.0430 -0.1540
    1OPC    GL168040  27.196   3.801   2.437  0.2045 -0.0466 -0.0517
    1OPC    GL268041  27.243   3.951   2.824 -0.0122  0.1266 -0.0753
    1OPC    C1B68042  27.481   3.935   3.147  0.0757  0.1691 -0.0490
    1OPC    D2B68043  27.857   3.757   3.235 -0.0586 -0.2237  0.0873
    1OPC    C3B68044  27.843   3.676   3.635  0.3445  0.0684  0.0297
    1OPC    C4B68045  27.776   3.599   4.081 -0.2184 -0.4046  0.2261
    1OPC    NC368046   9.618  21.391   3.290  0.1939  0.0869  0.0330
    1OPC    PO468047   9.288  21.662   3.064  0.1536 -0.0165 -0.1143
    1OPC    GL168048   9.257  21.567   3.561  0.4107 -0.1047 -0.1788
    1OPC    GL268049   9.243  21.474   3.964  0.0508  0.0338  0.1145
    1OPC    C1B68050   9.345  21.490   4.320 -0.0389  0.0616  0.0783
    1OPC    D2B68051   9.418  21.574   4.718  0.1212 -0.0865  0.1135
    1OPC    C3B68052   9.400  21.324   5.077 -0.1386 -0.2807  0.0986
    1OPC    C4B68053   9.507  20.988   5.406  0.2741 -0.0373 -0.0946
    1OPC    NC368054  16.321   2.185   4.111  0.1068 -0.0195  0.1883
    1OPC    PO468055  15.949   2.304   3.804 -0.0121 -0.1624 -0.3652
    1OPC    GL168056  15.784   2.023   4.062 -0.1461 -0.1173  0.1250
    1OPC    GL268057  15.918   1.917   4.424  0.1448  0.2290  0.2795
    1OPC    C1B68058  16.156   1.690   4.729 -0.0334 -0.1925 -0.0194
    1OPC    D2B68059  16.278   1.383   4.885 -0.3324 -0.0739 -0.0596
    1OPC    C3B68060  16.748   1.466   5.168 -0.0437  0.3413  0.3764
    1OPC    C4B68061  16.700   1.695   5.503 -0.2673  0.1320 -0.3067
    1OPC    NC368062   2.025  11.693   2.484 -0.4390  0.3965 -0.3385
    1OPC    PO468063   2.211  11.570   2.833  0.2424  0.0475 -0.0939
    1OPC    GL168064   2.338  11.904   3.109 -0.0277  0.0717 -0.0177
    1OPC    GL268065   2.333  11.955   3.362  0.1050  0.4483  0.2147
    1OPC    C1B68066   2.228  12.135   3.806 -0.1058 -0.1157 -0.1472
    1OPC    D2B68067   2.202  12.381   4.242 -0.3264  0.1013 -0.0062
    1OPC    C3B68068   2.061  12.333   4.678  0.0136 -0.1117 -0.1958
    1OPC    C4B68069   1.625  12.272   4.832 -0.0806  0.1868  0.0174
    1OPC    NC368070  13.434   9.383   3.075  0.0115 -0.1247 -0.1925
    1OPC    PO468071  13.158   9.029   3.346 -0.1634  0.1230  0.1591
    1OPC    GL168072  13.074   8.988   3.795  0.3568 -0.0484  0.1555
    1OPC    GL268073  13.056   8.946   4.104  0.0889  0.0147  0.1369
    1OPC    C1B68074  13.116   8.633   4.479  0.2453 -0.0979  0.3425
    1OPC    D2B68075  13.303   8.718   4.974 -0.0114 -0.1319  0.0356
    1OPC    C3B68076  13.128   8.641   5.275  0.0434 -0.1173 -0.2423
    1OPC    C4B68077  12.821   8.518   5.649 -0.3664  0.1866  0.1646
    1OPC    NC368078  17.737  25.203   2.460 -0.1413  0.2913  0.0318
    1OPC    PO468079  17.717  25.162   2.923  0.2067 -0.0380  0.0547
    1OPC    GL168080  17.932  24.993   3.221 -0.2372 -0.0313 -0.1156
    1OPC    GL268081  18.094  24.965   3.551  0.0632 -0.1274  0.2448
    1OPC    C1B68082  17.984  24.860   3.981  0.2586  0.2510  0.0247
    1OPC    D2B68083  18.004  24.908   4.317  0.0364  0.3326 -0.0017
    1OPC    C3B68084  17.984  25.279   4.587 -0.1763 -0.1598  0.0863
    1OPC    C4B68085  18.228  25.566   4.772  0.1444 -0.0297  0.3207
    1OPC    NC368086   7.925  20.647   3.000 -0.0589  0.1254  0.1219
    1OPC    PO468087   8.270  20.673   3.252  0.0656  0.3811  0.1777
    1OPC    GL168088   8.380  20.853   3.580  0.1181 -0.1275 -0.0666
    1OPC    GL268089   8.528  20.767   3.938  0.3727  0.2125 -0.1737
    1OPC    C1B68090   8.707  20.684   4.339 -0.1385 -0.0200  0.0807
    1OPC    D2B68091   8.613  20.750   4.816 -0.2823  0.1277  0.1441
    1OPC    C3B68092   8.410  21.005   5.232  0.2550  0.2929 -0.0691
    1OPC    C4B68093   8.029  21.209   5.192  0.0038 -0.1305 -0.3990
    1OPC    NC368094   5.237  10.378   2.468 -0.2496  0.0118 -0.1884
    1OPC    PO468095   5.305  10.502   2.853 -0.3851 -0.2615 -0.1349
    1OPC    GL168096   5.487  10.472   3.315  0.0346  0.0663  0.0527
    1OPC    GL268097   5.427  10.440   3.672  0.0655 -0.0776 -0.1577
    1OPC    C1B68098   5.110  10.441   4.063  0.1499  0.4712  0.0011
    1OPC    D2B68099   5.023  10.253   4.410 -0.1596  0.0856 -0.1169
    1OPC    C3B68100   5.002  10.004   4.822 -0.1196 -0.1598  0.0846
    1OPC    C4B68101   5.267   9.785   5.002  0.1379  0.1011 -0.1467
    1OPC    NC368102  19.493   0.533   2.857  0.0051  0.0415  0.1711
    1OPC    PO468103  19.759   0.779   3.058  0.0675 -0.1086  0.3969
    1OPC    GL168104  19.907   0.962   3.352 -0.4053 -0.2761  0.0386
    1OPC    GL268105  20.210   0.902   3.542 -0.4367  0.1554 -0.1583
    1OPC    C1B68106  20.448   0.672   3.753 -0.3734 -0.0944 -0.0043
    1OPC    D2B68107  20.650   0.847   4.184 -0.1744  0.1086  0.1846
    1OPC    C3B68108  20.487   1.078   4.506 -0.0501  0.0116 -0.4438
    1OPC    C4B68109  20.048   1.295   4.558  0.1151 -0.2452  0.0320
    1OPC    NC368110  19.178   1.711   2.510 -0.1970 -0.0066 -0.1519
    1OPC    PO468111  19.325   1.514   2.900  0.0533 -0.3624  0.0536
    1OPC    GL168112  19.463   1.172   3.336  0.0620 -0.1104 -0.2102
    1OPC    GL268113  19.437   1.047   3.660 -0.0452 -0.3558  0.0443
    1OPC    C1B68114  19.385   1.002   4.127  0.3332  0.2031 -0.2746
    1OPC    D2B68115  19.523   1.288   4.410  0.1262 -0.0316  0.0436
    1OPC    C3B68116  19.415   1.304   4.771 -0.0627 -0.1375  0.1520
    1OPC    C4B68117  19.334   1.339   5.130 -0.0257 -0.3028  0.0214
    1OPC    NC368118   8.694   5.816   2.883 -0.0056 -0.0031  0.0599
    1OPC    PO468119   8.254   5.742   2.770 -0.1940  0.1206  0.0181
    1OPC    GL168120   8.019   5.760   3.070 -0.1168 -0.0935  0.1107
    1OPC    GL268121   7.945   5.739   3.362 -0.0629 -0.1887 -0.2087
    1OPC    C1B68122   8.304   5.683   3.675  0.0564 -0.0169  0.1199
    1OPC    D2B68123   8.431   5.817   4.014 -0.1833  0.0755  0.3046
    1OPC    C3B68124   8.832   5.701   4.095  0.0327  0.0439 -0.1203
    1OPC    C4B68125   9.123   5.562   3.852 -0.0433 -0.0138 -0.3681
    1OPC    NC368126  27.409  22.140   2.489  0.2021  0.1889  0.0330
    1OPC    PO468127  27.860  22.125   2.691 -0.3464  0.0795  0.2913
    1OPC    GL168128  27.533  21.959   2.951  0.0387  0.0463  0.1367
    1OPC    GL268129  27.399  22.093   3.139 -0.0088 -0.2673 -0.1327
    1OPC    C1B68130  27.380  22.021   3.546 -0.1676  0.3767  0.1945
    1OPC    D2B68131  27.354  22.052   3.966  0.0234  0.1261  0.1477
    1OPC    C3B68132  27.526  21.825   4.298 -0.1731  0.0018 -0.0363
    1OPC    C4B68133  27.624  21.964   4.661  0.0138 -0.0882  0.1741
    1OPC    NC368134  15.599   4.775   3.835  0.2874  0.1481 -0.4350
    1OPC    PO468135  15.186   4.943   3.867  0.2627 -0.1238 -0.1033
    1OPC    GL168136  14.771   5.003   4.145 -0.0386  0.3482 -0.1529
    1OPC    GL268137  14.771   4.971   4.418  0.0066  0.2824 -0.1674
    1OPC    C1B68138  14.819   5.066   4.844 -0.0698 -0.0979  0.0547
    1OPC    D2B68139  14.891   5.090   5.305  0.0458  0.2054 -0.1069
    1OPC    C3B68140  14.937   4.829   5.588 -0.2029 -0.1436 -0.1361
    1OPC    C4B68141  14.910   4.380   5.574  0.1887 -0.0450 -0.0886
    1OPC    NC368142  27.859  25.938   2.157  0.4088 -0.0438 -0.1956
    1OPC    PO468143  27.608  25.685   2.518 -0.1223  0.0812 -0.0280
    1OPC    GL168144  27.861  25.867   2.819 -0.0663  0.3512  0.1119
    1OPC    GL268145  28.119  25.623   3.088  0.1079  0.1988  0.1026
    1OPC    C1B68146   0.143  25.528   3.443  0.0902 -0.0298 -0.1960
    1OPC    D2B68147   0.293  25.425   3.797 -0.2345  0.2782 -0.1124
    1OPC    C3B68148   0.146  25.013   3.975  0.0800  0.0543 -0.1160
    1OPC    C4B68149   0.277  24.542   4.134 -0.1427  0.0650 -0.1152
    1OPC    NC368150  24.345  24.635   3.336 -0.1700  0.3068  0.1116
    1OPC    PO468151  24.367  25.000   3.599  0.2353  0.0410  0.0548
    1OPC    GL168152  24.530  24.985   3.898 -0.1096  0.0182  0.2427
    1OPC    GL268153  24.512  25.052   4.172 -0.0115  0.0723  0.0219
    1OPC    C1B68154  24.567  25.241   4.564 -0.0016 -0.2256 -0.0326
    1OPC    D2B68155  24.599  25.404   5.113 -0.0043  0.2040  0.2849
    1OPC    C3B68156  25.012  25.417   5.219 -0.1971  0.0985 -0.2034
    1OPC    C4B68157  25.380  25.543   4.996 -0.0386  0.1086  0.1121
    1OPC    NC368158  27.364   0.828   2.312  0.0463 -0.0884  0.0998
    1OPC    PO468159  27.425   0.514   2.674 -0.1162  0.0855 -0.0698
    1OPC    GL168160  27.240   0.814   2.877  0.0173  0.2769  0.1308
    1OPC    GL268161  26.987   0.776   3.198  0.0602  0.3433 -0.3431
    1OPC    C1B68162  27.051   0.698   3.602 -0.0601 -0.0010 -0.1883
    1OPC    D2B68163  27.085   0.745   4.090  0.0966  0.1057 -0.2127
    1OPC    C3B68164  27.377   0.657   4.361  0.1214 -0.1397  0.0544
    1OPC    C4B68165  27.644   0.397   4.534  0.1046  0.1189  0.1415
    1OPC    NC368166   9.017  14.661   3.630  0.1573 -0.3294 -0.0957
    1OPC    PO468167   8.801  14.305   3.621 -0.2327 -0.1791 -0.1798
    1OPC    GL168168   8.686  14.358   3.995 -0.0718  0.0016  0.0619
    1OPC    GL268169   8.751  14.621   4.202 -0.1245  0.2199  0.1351
    1OPC    C1B68170   8.766  14.840   4.607  0.0048  0.0198  0.0948
    1OPC    D2B68171   8.547  15.168   4.844 -0.4597 -0.3213  0.2282
    1OPC    C3B68172   8.527  15.268   5.211 -0.1630 -0.0499 -0.0020
    1OPC    C4B68173   8.260  15.583   5.441  0.2974  0.1604 -0.1463
    1OPC    NC368174  10.168  23.634   3.336  0.3938 -0.2644 -0.4274
    1OPC    PO468175   9.764  23.639   3.118 -0.1592 -0.5221 -0.1151
    1OPC    GL168176   9.680  23.597   3.479  0.1066 -0.2772 -0.1498
    1OPC    GL268177   9.519  23.608   3.751  0.2296 -0.0657  0.1753
    1OPC    C1B68178   9.349  23.786   4.147 -0.1014 -0.0501  0.0094
    1OPC    D2B68179   9.455  23.746   4.551  0.0179 -0.2998  0.0027
    1OPC    C3B68180   9.501  24.118   4.881  0.1086 -0.1860  0.3135
    1OPC    C4B68181   9.429  24.518   5.053  0.0474  0.0453 -0.2540
    1OPC    NC368182  28.127   4.644   2.250  0.0247 -0.4380  0.1648
    1OPC    PO468183  27.875   4.308   2.092  0.0140  0.2339 -0.1554
    1OPC    GL168184  27.924   4.023   2.423  0.0917  0.1012  0.0703
    1OPC    GL268185  28.123   3.872   2.615 -0.0673 -0.0571  0.0157
    1OPC    C1B68186   0.250   3.829   3.022 -0.0371 -0.1076 -0.1284
    1OPC    D2B68187   0.205   3.730   3.399  0.3646 -0.0146  0.0202
    1OPC    C3B68188   0.236   3.888   3.792 -0.1097  0.0124  0.0184
    1OPC    C4B68189   0.269   4.226   3.953  0.1096  0.2059  0.2429
    1OPC    NC368190  22.948  14.473   2.896  0.0511 -0.0722 -0.0895
    1OPC    PO468191  22.851  14.022   3.151  0.0815 -0.1671 -0.0296
    1OPC    GL168192  23.031  13.869   3.502  0.2321 -0.0943  0.0456
    1OPC    GL268193  23.217  13.627   3.542 -0.1749 -0.2119  0.0357
    1OPC    C1B68194  23.426  13.434   3.826 -0.1721  0.0752  0.0709
    1OPC    D2B68195  23.430  13.361   4.301 -0.2323 -0.0496 -0.0179
    1OPC    C3B68196  23.527  13.603   4.576  0.1991  0.0109  0.1947
    1OPC    C4B68197  23.292  13.912   4.814 -0.2185 -0.0183 -0.0678
    1OPC    NC368198   8.592  24.180   2.988  0.1465  0.3311  0.0144
    1OPC    PO468199   8.120  24.259   2.880 -0.0283  0.1805 -0.3944
    1OPC    GL168200   8.203  24.224   3.291 -0.2042 -0.2084  0.1232
    1OPC    GL268201   8.191  24.268   3.586  0.1095  0.0205  0.3887
    1OPC    C1B68202   7.916  24.113   4.059 -0.2217 -0.0940  0.1719
    1OPC    D2B68203   7.561  23.980   4.374  0.0344 -0.1384  0.3929
    1OPC    C3B68204   7.617  24.015   4.843 -0.0067  0.0352 -0.0406
    1OPC    C4B68205   7.621  23.944   5.304 -0.2758  0.1490  0.3863
    1OPC    NC368206  11.191  17.332   3.246 -0.1291  0.2016  0.4473
    1OPC    PO468207  11.473  17.334   3.564  0.1100 -0.0244  0.0326
    1OPC    GL168208  11.289  17.131   3.943 -0.2452  0.0092 -0.2030
    1OPC    GL268209  11.456  16.894   4.140  0.0147  0.0388 -0.0530
    1OPC    C1B68210  11.577  16.887   4.453 -0.1649 -0.0609  0.1007
    1OPC    D2B68211  11.744  16.885   4.864 -0.1611 -0.2561  0.1226
    1OPC    C3B68212  11.618  16.707   5.391  0.0218 -0.1260  0.0114
    1OPC    C4B68213  11.143  16.649   5.599 -0.0866 -0.1472 -0.0558
    1OPC    NC368214  21.646   5.793   2.346 -0.1442 -0.1987  0.1620
    1OPC    PO468215  21.555   6.041   2.637  0.0854  0.4022 -0.1262
    1OPC    GL168216  21.636   6.102   3.036 -0.0177  0.0359  0.0074
    1OPC    GL268217  21.556   6.265   3.354 -0.3668 -0.1973 -0.0822
    1OPC    C1B68218  21.782   6.448   3.693  0.2608 -0.0491  0.1394
    1OPC    D2B68219  21.800   6.042   4.053 -0.0973 -0.3435 -0.2344
    1OPC    C3B68220  22.121   5.954   4.363 -0.3367 -0.3215  0.1190
    1OPC    C4B68221  22.352   6.247   4.631  0.2132  0.1188  0.5708
    1OPC    NC368222  12.375   3.424   3.157  0.1395 -0.0856  0.2336
    1OPC    PO468223  12.302   3.033   3.409  0.0761  0.2666 -0.0246
    1OPC    GL168224  12.484   2.789   3.690  0.2353 -0.0590  0.1328
    1OPC    GL268225  12.591   2.820   3.971 -0.3460  0.2654  0.4203
    1OPC    C1B68226  12.438   2.993   4.411  0.1996  0.0256 -0.2121
    1OPC    D2B68227  12.246   3.168   4.803  0.2691  0.0565  0.2259
    1OPC    C3B68228  12.157   3.648   4.626 -0.0591  0.1509  0.0928
    1OPC    C4B68229  12.293   3.823   4.274 -0.0816  0.0735 -0.0170
    1OPC    NC368230   6.536   3.364   1.661 -0.0311  0.0669 -0.1384
    1OPC    PO468231   6.858   3.181   1.929  0.1062  0.0100 -0.2006
    1OPC    GL168232   6.726   3.036   2.399 -0.1089 -0.0242  0.0649
    1OPC    GL268233   6.634   2.997   2.735  0.3032 -0.1618  0.0243
    1OPC    C1B68234   6.549   2.960   3.120  0.1185  0.2108  0.2985
    1OPC    D2B68235   6.457   2.894   3.462  0.1550 -0.0070 -0.0732
    1OPC    C3B68236   6.453   3.142   3.809  0.1573 -0.0215 -0.2264
    1OPC    C4B68237   6.117   3.351   3.917 -0.0784 -0.0674  0.1809
    1OPC    NC368238   7.930  22.811   2.344 -0.0794 -0.3286  0.2243
    1OPC    PO468239   7.669  22.803   2.736  0.0772 -0.0522 -0.0043
    1OPC    GL168240   7.487  22.832   3.157  0.0792  0.1109  0.0218
    1OPC    GL268241   7.288  22.815   3.492  0.0211  0.0629 -0.0299
    1OPC    C1B68242   7.272  22.437   3.722  0.1406 -0.1669 -0.1666
    1OPC    D2B68243   6.917  22.337   4.018 -0.3247  0.2225 -0.0217
    1OPC    C3B68244   6.652  22.708   4.080 -0.1136 -0.2612 -0.1290
    1OPC    C4B68245   6.324  22.959   4.161 -0.2758  0.1290  0.0547
    1OPC    NC368246  16.545  11.984   3.724  0.1024 -0.0151 -0.0577
    1OPC    PO468247  16.739  12.437   3.832 -0.1800 -0.0647  0.2228
    1OPC    GL168248  16.740  12.247   4.162 -0.1096  0.3043 -0.3147
    1OPC    GL268249  16.905  11.992   4.346 -0.1553  0.0630  0.1066
    1OPC    C1B68250  16.783  11.650   4.585  0.1816  0.0923  0.0619
    1OPC    D2B68251  16.859  11.661   4.983  0.0330  0.2586 -0.1970
    1OPC    C3B68252  16.747  11.386   5.347  0.1070  0.0617  0.0450
    1OPC    C4B68253  16.912  11.436   5.757  0.0635  0.2161 -0.1088
    1OPC    NC368254   9.495  26.358   3.345 -0.0235  0.0191 -0.1324
    1OPC    PO468255   9.604  26.123   3.015  0.0340  0.2977  0.0075
    1OPC    GL168256   9.975  26.014   3.244  0.1786 -0.3205 -0.3524
    1OPC    GL268257  10.189  26.029   3.468 -0.2200  0.0916 -0.3390
    1OPC    C1B68258  10.319  26.035   3.855  0.2089 -0.4475  0.0568
    1OPC    D2B68259  10.553  26.225   4.130  0.2477  0.0117 -0.0757
    1OPC    C3B68260  10.824  26.315   4.456  0.3344 -0.0850 -0.1606
    1OPC    C4B68261  11.019  26.548   4.732 -0.0023  0.2276  0.1268
    1OPC    NC368262  18.533  11.054   3.378 -0.0204 -0.0191  0.0783
    1OPC    PO468263  18.835  11.187   3.684  0.0271 -0.3143  0.2728
    1OPC    GL168264  19.136  11.286   4.044  0.1546 -0.1473 -0.0460
    1OPC    GL268265  19.379  11.335   4.249 -0.0596  0.2598  0.2480
    1OPC    C1B68266  19.493  11.605   4.429  0.0621  0.2932 -0.0409
    1OPC    D2B68267  19.710  11.710   4.824  0.1753  0.3742 -0.0811
    1OPC    C3B68268  19.749  11.377   5.098  0.0341  0.0030  0.2170
    1OPC    C4B68269  19.501  11.282   5.428  0.4606 -0.0136  0.1516
    1OPC    NC368270  15.699  13.476   3.618 -0.2510  0.1430 -0.2996
    1OPC    PO468271  15.728  13.592   3.978 -0.0445  0.3142  0.0913
    1OPC    GL168272  16.085  13.875   4.154  0.0017 -0.2461  0.1358
    1OPC    GL268273  15.897  14.179   4.457  0.0477 -0.1884 -0.1083
    1OPC    C1B68274  15.850  14.368   4.865  0.0402 -0.0873  0.1229
    1OPC    D2B68275  16.140  14.513   5.245 -0.0012 -0.1825  0.2689
    1OPC    C3B68276  16.123  14.249   5.592  0.2088 -0.0036 -0.1597
    1OPC    C4B68277  16.041  13.963   5.827 -0.2490 -0.0306  0.6354
    1OPC    NC368278   4.570  18.727   2.955  0.0366 -0.3463 -0.0047
    1OPC    PO468279   4.202  18.317   3.096 -0.2103 -0.2532 -0.0375
    1OPC    GL168280   4.052  18.186   3.536  0.0140  0.0849  0.3094
    1OPC    GL268281   3.860  18.242   3.858  0.1164  0.0872 -0.1395
    1OPC    C1B68282   3.620  18.143   4.185  0.0538 -0.3084 -0.1477
    1OPC    D2B68283   3.457  18.091   4.650 -0.3290  0.2438 -0.2619
    1OPC    C3B68284   3.705  18.149   4.855 -0.1202  0.1153 -0.1443
    1OPC    C4B68285   3.913  18.264   5.068 -0.1810 -0.1708  0.0683
    1OPC    NC368286   0.677   9.238   2.629  0.2966  0.1509 -0.1393
    1OPC    PO468287   0.252   9.131   2.655 -0.0298  0.2234  0.0217
    1OPC    GL168288   0.181   9.256   3.132  0.3062  0.0482 -0.1586
    1OPC    GL268289   0.198   9.260   3.317 -0.0244 -0.2777 -0.0931
    1OPC    C1B68290   0.177   9.160   3.731  0.2012 -0.0393  0.2240
    1OPC    D2B68291   0.224   9.299   4.146  0.0419 -0.0486 -0.1104
    1OPC    C3B68292   0.344   9.082   4.517  0.1764  0.0770  0.0313
    1OPC    C4B68293   0.181   9.203   4.945  0.0703  0.1048 -0.1621
    1OPC    NC368294   0.554   1.931   1.703  0.1573 -0.1423  0.0204
    1OPC    PO468295   0.980   2.095   1.849  0.1027 -0.1582 -0.4546
    1OPC    GL168296   0.794   2.367   2.108  0.0823 -0.0017  0.0785
    1OPC    GL268297   0.818   2.409   2.485 -0.3503 -0.0695  0.2710
    1OPC    C1B68298   0.762   2.790   2.809  0.1763  0.0475  0.6185
    1OPC    D2B68299   0.496   3.089   2.973 -0.0755 -0.1281 -0.1765
    1OPC    C3B68300   0.786   3.423   3.268 -0.0222  0.0307 -0.1247
    1OPC    C4B68301   0.692   3.683   3.608 -0.0802 -0.0271 -0.2128
    1OPC    NC368302  10.461  21.410   3.424 -0.2974  0.0479  0.1993
    1OPC    PO468303  10.011  21.268   3.637  0.1029  0.0565 -0.0637
    1OPC    GL168304   9.725  21.625   3.762  0.2258  0.0551 -0.0219
    1OPC    GL268305   9.669  21.783   4.004  0.0259 -0.3733  0.0697
    1OPC    C1B68306   9.717  21.913   4.431  0.2528  0.2393  0.2800
    1OPC    D2B68307  10.076  22.095   4.684 -0.1456 -0.0582  0.1344
    1OPC    C3B68308  10.071  22.230   5.113  0.1477  0.3062  0.0168
    1OPC    C4B68309  10.392  22.486   5.299 -0.2309  0.2531  0.0204
    1OPC    NC368310   9.873  18.953   3.511  0.0546  0.0995  0.0226
    1OPC    PO468311   9.516  18.779   3.503 -0.0361  0.0629 -0.4567
    1OPC    GL168312   9.469  18.809   3.932  0.1171 -0.0680 -0.0035
    1OPC    GL268313   9.326  18.915   4.149 -0.1370 -0.1442  0.3906
    1OPC    C1B68314   9.300  19.077   4.562  0.0612  0.0994  0.0265
    1OPC    D2B68315   9.083  19.279   4.987 -0.0781 -0.0654 -0.1228
    1OPC    C3B68316   8.852  19.049   5.312  0.1551  0.1599 -0.0182
    1OPC    C4B68317   8.941  18.736   5.529 -0.1032 -0.2878  0.2386
    1OPC    NC368318  18.553  13.484   3.428  0.1612 -0.0883  0.0087
    1OPC    PO468319  18.581  13.125   3.769  0.1419  0.0462 -0.1041
    1OPC    GL168320  18.323  12.947   3.934  0.3677 -0.0195 -0.1052
    1OPC    GL268321  18.076  12.790   4.133 -0.2773  0.0252  0.1874
    1OPC    C1B68322  17.986  12.670   4.520 -0.0875  0.1186  0.4626
    1OPC    D2B68323  17.988  12.647   4.999  0.2797  0.0079 -0.1301
    1OPC    C3B68324  17.859  12.786   5.460  0.1420 -0.2071 -0.0770
    1OPC    C4B68325  17.752  13.239   5.510  0.1865  0.0108 -0.0869
    1OPC    NC368326   5.945  15.098   3.485 -0.2064 -0.1875  0.2070
    1OPC    PO468327   6.214  14.822   3.226 -0.0817 -0.2027 -0.0144
    1OPC    GL168328   6.640  14.658   3.353  0.1925  0.0190 -0.2033
    1OPC    GL268329   6.702  14.453   3.549 -0.1974 -0.0982 -0.4425
    1OPC    C1B68330   6.765  14.509   3.882  0.0117 -0.1501 -0.0312
    1OPC    D2B68331   6.654  14.529   4.260  0.0480 -0.2073 -0.0627
    1OPC    C3B68332   6.968  14.754   4.489 -0.0577  0.1374 -0.1920
    1OPC    C4B68333   7.412  14.659   4.459 -0.2989 -0.1026  0.1899
    1OPC    NC368334  10.300   2.453   3.256  0.4287  0.1342 -0.0319
    1OPC    PO468335  10.645   2.782   3.304 -0.0417 -0.0251  0.0577
    1OPC    GL168336  10.701   2.966   3.690  0.2985 -0.0985 -0.1948
    1OPC    GL268337  10.771   2.893   3.871  0.0955 -0.0418 -0.1382
    1OPC    C1B68338  10.981   2.765   4.178  0.0422  0.0334 -0.0173
    1OPC    D2B68339  10.969   2.612   4.562 -0.2583  0.1680 -0.3383
    1OPC    C3B68340  10.989   2.753   5.028 -0.2846 -0.0898  0.3332
    1OPC    C4B68341  11.094   2.762   5.447  0.0858 -0.4977 -0.0447
    1OPC    NC368342   1.511   2.293   1.932  0.0735 -0.0412 -0.1667
    1OPC    PO468343   1.833   2.500   1.672  0.0181  0.0265 -0.0483
    1OPC    GL168344   1.601   2.833   1.945  0.0259 -0.1048 -0.0681
    1OPC    GL268345   1.400   3.008   2.245  0.0090 -0.0137 -0.1957
    1OPC    C1B68346   1.428   3.085   2.707  0.1625 -0.2128  0.2976
    1OPC    D2B68347   1.315   2.716   2.910 -0.1849  0.0596  0.2201
    1OPC    C3B68348   1.343   2.653   3.355 -0.0072 -0.1123 -0.0640
    1OPC    C4B68349   1.476   2.832   3.808  0.0844  0.0953  0.2467
    1OPC    NC368350  25.461   1.936   3.084  0.0791  0.1263 -0.3669
    1OPC    PO468351  25.226   2.187   2.831  0.0972  0.2956  0.1224
    1OPC    GL168352  25.055   2.223   3.221  0.2547  0.1346  0.1883
    1OPC    GL268353  24.962   2.279   3.470  0.0227  0.0509  0.2268
    1OPC    C1B68354  24.731   2.331   3.857 -0.0407 -0.2955  0.0007
    1OPC    D2B68355  24.445   2.693   4.082  0.2754  0.1248 -0.1136
    1OPC    C3B68356  24.278   3.005   4.411  0.0030 -0.0753 -0.1571
    1OPC    C4B68357  24.507   3.291   4.676  0.1039 -0.2349 -0.2247
    1OPC    NC368358  10.419  17.098   3.368  0.3054 -0.2405  0.2436
    1OPC    PO468359  10.775  16.823   3.199 -0.0787 -0.0716 -0.3283
    1OPC    GL168360  10.600  16.719   3.591  0.3377 -0.0365 -0.1496
    1OPC    GL268361  10.417  16.420   3.779  0.0575 -0.0130 -0.1666
    1OPC    C1B68362  10.035  16.264   4.068 -0.1886  0.3407 -0.0645
    1OPC    D2B68363   9.674  16.367   4.276  0.1972 -0.0333  0.1559
    1OPC    C3B68364   9.290  16.251   4.552  0.1512  0.4154 -0.0247
    1OPC    C4B68365   8.938  16.052   4.855  0.1257 -0.0098  0.3078
    1OPC    NC368366   6.934   5.542   2.618  0.0422 -0.2861 -0.0940
    1OPC    PO468367   6.710   5.736   2.896 -0.0139 -0.0075  0.0158
    1OPC    GL168368   7.093   5.642   3.064 -0.0942  0.1201 -0.0015
    1OPC    GL268369   7.366   5.689   3.209  0.0985  0.2719  0.0611
    1OPC    C1B68370   7.526   5.645   3.604 -0.1170  0.0331 -0.1063
    1OPC    D2B68371   7.347   5.676   4.102 -0.1251 -0.3397  0.1187
    1OPC    C3B68372   7.079   5.875   4.294  0.0450  0.0731  0.2123
    1OPC    C4B68373   6.696   5.824   4.539 -0.2711 -0.0712  0.1230
    1OPC    NC368374  11.833  27.377   2.752  0.2127  0.1670  0.2046
    1OPC    PO468375  11.719  26.958   2.836 -0.1171 -0.1512  0.1069
    1OPC    GL168376  11.684  27.064   3.198  0.2421 -0.0493  0.2652
    1OPC    GL268377  11.369  27.121   3.443  0.1835 -0.0626 -0.1601
    1OPC    C1B68378  11.244  27.055   3.904 -0.1504  0.3911 -0.1000
    1OPC    D2B68379  11.137  27.065   4.402  0.1043  0.3104  0.0331
    1OPC    C3B68380  11.403  26.879   4.665 -0.0011 -0.0786 -0.1450
    1OPC    C4B68381  11.466  26.580   4.930 -0.4576 -0.0313  0.3323
    1OPC    NC368382  21.470   0.326   2.459  0.1191  0.0808  0.2659
    1OPC    PO468383  21.691   0.495   2.583 -0.0453 -0.0199  0.0064
    1OPC    GL168384  21.705   0.619   3.017 -0.1084  0.0940  0.0643
    1OPC    GL268385  21.552   0.835   3.320 -0.0418  0.2260 -0.0695
    1OPC    C1B68386  21.318   0.844   3.627 -0.1690 -0.0524  0.0535
    1OPC    D2B68387  21.040   1.096   3.784 -0.1414  0.1588 -0.1808
    1OPC    C3B68388  20.603   1.210   3.743  0.0635  0.0350 -0.0321
    1OPC    C4B68389  20.340   1.308   4.006 -0.1388 -0.0952 -0.3208
    1OPC    NC368390  25.575   6.220   1.812 -0.2699 -0.2607 -0.0655
    1OPC    PO468391  25.685   6.522   2.114 -0.0555  0.1859  0.0079
    1OPC    GL168392  25.849   6.876   2.467  0.1413 -0.0116 -0.2071
    1OPC    GL268393  26.006   6.939   2.718  0.0108 -0.2062 -0.0297
    1OPC    C1B68394  25.954   6.906   3.176  0.0649 -0.0353  0.1306
    1OPC    D2B68395  26.196   6.674   3.527  0.2061 -0.0822 -0.2718
    1OPC    C3B68396  26.114   6.774   3.991  0.0379 -0.4655 -0.2114
    1OPC    C4B68397  26.020   6.814   4.404 -0.1645  0.1877 -0.2087
    1OPC    NC368398   5.393   3.472   2.142  0.0594 -0.0131  0.0944
    1OPC    PO468399   5.278   3.037   2.264  0.1100  0.1502  0.1073
    1OPC    GL168400   5.128   2.730   2.639 -0.1953 -0.3302 -0.4066
    1OPC    GL268401   5.156   2.624   2.964  0.1473  0.0540 -0.1246
    1OPC    C1B68402   5.108   2.450   3.461  0.0699 -0.2318 -0.0489
    1OPC    D2B68403   4.788   2.486   3.740  0.1453 -0.0486  0.0184
    1OPC    C3B68404   4.663   2.254   4.048  0.2429 -0.1632 -0.2536
    1OPC    C4B68405   4.162   2.308   4.173 -0.0395  0.2635 -0.0474
    1OPC    NC368406  11.324   4.116   2.711 -0.4388 -0.0630  0.1729
    1OPC    PO468407  11.133   4.275   3.162  0.3402  0.2545 -0.0577
    1OPC    GL168408  11.175   4.091   3.607  0.0354 -0.1259  0.2057
    1OPC    GL268409  11.170   3.894   3.869 -0.1224 -0.4447 -0.0551
    1OPC    C1B68410  11.148   3.747   4.254 -0.2338  0.0801 -0.2363
    1OPC    D2B68411  10.788   3.642   4.591  0.2145  0.0190  0.3041
    1OPC    C3B68412  10.812   3.399   4.847 -0.0145  0.1257 -0.1337
    1OPC    C4B68413  10.882   3.231   5.152 -0.0497  0.0071 -0.4170
    1OPC    NC368414   9.523  17.618   2.983  0.2564 -0.0726  0.1726
    1OPC    PO468415   9.760  17.728   3.344  0.1522  0.1645 -0.0518
    1OPC    GL168416  10.062  17.352   3.577 -0.1288 -0.1181 -0.0949
    1OPC    GL268417  10.310  17.230   3.805  0.1068 -0.2887 -0.0657
    1OPC    C1B68418  10.529  17.272   4.082 -0.0004  0.3021 -0.1341
    1OPC    D2B68419  10.442  17.149   4.474  0.0348  0.1293  0.0537
    1OPC    C3B68420  10.509  17.318   4.876  0.0088 -0.0026  0.1769
    1OPC    C4B68421  10.627  17.680   5.026  0.0187  0.1697 -0.3184
    1OPC    NC368422  16.728   3.899   3.299  0.1209  0.4306  0.3287
    1OPC    PO468423  16.986   3.674   3.509 -0.0977  0.1318 -0.0060
    1OPC    GL168424  16.628   3.595   3.739 -0.0596  0.1123  0.3544
    1OPC    GL268425  16.329   3.507   3.867  0.4249 -0.0758  0.1902
    1OPC    C1B68426  15.940   3.604   4.133  0.2452 -0.0380 -0.1212
    1OPC    D2B68427  15.633   3.590   4.529  0.0708 -0.4256 -0.0421
    1OPC    C3B68428  15.570   3.283   4.870  0.4204  0.1180  0.0049
    1OPC    C4B68429  15.441   3.063   5.176  0.1943 -0.0332 -0.2114
    1OPC    NC368430   2.448  26.383   2.719 -0.1845  0.0546 -0.2172
    1OPC    PO468431   2.727  26.182   2.963 -0.0948 -0.1944  0.0544
    1OPC    GL168432   2.296  25.969   3.059  0.0804  0.1870 -0.2243
    1OPC    GL268433   2.098  25.895   3.308 -0.2608 -0.0722 -0.3803
    1OPC    C1B68434   2.106  25.933   3.672 -0.3150 -0.2333 -0.1590
    1OPC    D2B68435   2.171  25.917   4.076  0.0890 -0.2693 -0.1814
    1OPC    C3B68436   2.077  26.270   4.315  0.0288  0.0174  0.2388
    1OPC    C4B68437   2.101  26.727   4.017  0.1100 -0.3518  0.2991
    1OPC    NC368438  24.468  16.646   3.000 -0.0391 -0.3475 -0.3910
    1OPC    PO468439  24.222  16.420   3.276  0.0685 -0.2072  0.0840
    1OPC    GL168440  24.240  16.243   3.608 -0.0024 -0.1179  0.0699
    1OPC    GL268441  24.434  16.116   3.794  0.3244  0.1535  0.1982
    1OPC    C1B68442  24.318  15.882   4.228  0.1011 -0.3086  0.1118
    1OPC    D2B68443  24.246  16.146   4.624  0.2878  0.1436 -0.1878
    1OPC    C3B68444  23.893  16.462   4.664  0.2295  0.2686 -0.0708
    1OPC    C4B68445  23.539  16.698   4.653  0.1778  0.2670  0.1762
    1OPC    NC368446  18.029  22.052   2.630  0.5041 -0.3233  0.1493
    1OPC    PO468447  18.116  22.584   2.793  0.1176 -0.2282 -0.0378
    1OPC    GL168448  18.025  22.675   3.272 -0.0612  0.0411  0.2218
    1OPC    GL268449  17.768  22.664   3.456  0.0507  0.0933 -0.0062
    1OPC    C1B68450  17.710  22.268   3.633 -0.0730 -0.2985  0.3542
    1OPC    D2B68451  17.565  21.836   3.795 -0.0033  0.1373  0.3029
    1OPC    C3B68452  17.591  21.835   4.203  0.0557  0.0029  0.0555
    1OPC    C4B68453  17.632  21.752   4.590  0.1241  0.6179  0.1477
    1OPC    NC368454  11.066  25.258   2.914 -0.1106 -0.0861 -0.1511
    1OPC    PO468455  11.461  25.475   2.774 -0.1397 -0.0710 -0.3809
    1OPC    GL168456  11.372  25.331   3.307  0.0473  0.0049 -0.2699
    1OPC    GL268457  11.283  25.165   3.616  0.0370 -0.1709 -0.0501
    1OPC    C1B68458  11.186  25.446   4.078 -0.0656  0.2865  0.1000
    1OPC    D2B68459  11.014  25.337   4.501  0.1378  0.0763 -0.0385
    1OPC    C3B68460  10.691  25.078   4.601  0.2360 -0.3560 -0.2093
    1OPC    C4B68461  10.345  24.828   4.659 -0.0371  0.1980  0.2099
    1OPC    NC368462   8.191  27.679   2.091  0.0923 -0.0502  0.2107
    1OPC    PO468463   8.369  27.629   2.549  0.2659 -0.1588  0.1827
    1OPC    GL168464   8.471  27.692   2.978 -0.2029 -0.1838 -0.0418
    1OPC    GL268465   8.306  27.926   3.237  0.2903 -0.0311 -0.4061
    1OPC    C1B68466   8.299   0.078   3.486 -0.2577  0.0914  0.0825
    1OPC    D2B68467   8.552   0.285   3.801 -0.1198  0.0794  0.0037
    1OPC    C3B68468   8.489   0.095   4.242  0.0513 -0.1810 -0.1456
    1OPC    C4B68469   8.337   0.020   4.664  0.1204 -0.0290 -0.1757
    1OPC    NC368470   2.230   6.804   1.804 -0.0240  0.0874  0.0371
    1OPC    PO468471   2.550   6.977   2.061  0.1760 -0.1402 -0.0210
    1OPC    GL168472   2.419   6.730   2.389  0.0585 -0.2080 -0.2301
    1OPC    GL268473   2.516   6.660   2.681 -0.0885  0.1948 -0.0400
    1OPC    C1B68474   2.607   6.463   3.099  0.2244  0.0497 -0.1963
    1OPC    D2B68475   2.583   6.653   3.564 -0.3065 -0.0002  0.1756
    1OPC    C3B68476   2.596   6.556   3.997 -0.0115  0.0779 -0.1333
    1OPC    C4B68477   2.671   6.640   4.402 -0.1920 -0.2510  0.2869
    1OPC    NC368478  13.034  11.460   3.803  0.0502  0.1493 -0.0386
    1OPC    PO468479  13.089  11.857   3.983 -0.3285 -0.1113 -0.0425
    1OPC    GL168480  13.172  11.814   4.341  0.1505  0.2031  0.1386
    1OPC    GL268481  13.267  11.861   4.756 -0.1998  0.0227  0.2539
    1OPC    C1B68482  13.213  11.879   5.177 -0.0071  0.4800 -0.1377
    1OPC    D2B68483  13.157  11.740   5.549  0.3482  0.1525 -0.0664
    1OPC    C3B68484  13.558  11.800   5.880  0.2848 -0.3436 -0.1106
    1OPC    C4B68485  13.845  11.907   6.171 -0.0613  0.1149  0.1023
    1OPC    NC368486  23.177   8.326   2.265 -0.0676 -0.0448  0.2288
    1OPC    PO468487  23.221   8.299   2.681  0.1246 -0.0291  0.0683
    1OPC    GL168488  22.991   8.070   2.971 -0.1283  0.3787  0.0801
    1OPC    GL268489  22.890   7.863   3.167 -0.1478  0.0411  0.0862
    1OPC    C1B68490  22.891   7.604   3.554 -0.0538  0.0850 -0.0046
    1OPC    D2B68491  23.206   7.533   3.868  0.2342  0.0109 -0.0496
    1OPC    C3B68492  22.950   7.712   4.108 -0.0930 -0.0741  0.4224
    1OPC    C4B68493  22.715   7.793   4.434  0.2884 -0.1072  0.1517
    1OPC    NC368494  17.584   6.396   3.039  0.0524  0.0881  0.2543
    1OPC    PO468495  17.787   6.001   3.366 -0.1451  0.1164 -0.1203
    1OPC    GL168496  18.193   5.896   3.434 -0.2321  0.0952 -0.0180
    1OPC    GL268497  18.341   5.947   3.768 -0.0234  0.1027  0.0523
    1OPC    C1B68498  18.559   5.818   4.145 -0.0112 -0.4113 -0.2369
    1OPC    D2B68499  18.457   5.758   4.550 -0.3756 -0.0680  0.1035
    1OPC    C3B68500  18.020   5.762   4.627 -0.0884  0.0862  0.0446
    1OPC    C4B68501  17.622   5.682   4.365 -0.1751 -0.0099 -0.3781
    1OPC    NC368502  16.792  23.902   2.407  0.1747  0.1271  0.0077
    1OPC    PO468503  16.812  24.056   2.867  0.3979 -0.2801 -0.1669
    1OPC    GL168504  16.793  24.294   3.252  0.2240  0.1762  0.2040
    1OPC    GL268505  16.718  24.551   3.388 -0.3095 -0.1418  0.0395
    1OPC    C1B68506  16.742  24.763   3.769 -0.0487 -0.3447 -0.1248
    1OPC    D2B68507  17.019  24.911   4.005 -0.4962  0.0531 -0.0507
    1OPC    C3B68508  17.140  24.756   4.326 -0.1793 -0.0949 -0.1154
    1OPC    C4B68509  17.333  24.678   4.734  0.1411  0.1056 -0.2223
    1OPC    NC368510   7.485  16.951   2.591 -0.0012  0.0631  0.0606
    1OPC    PO468511   7.419  16.884   3.055  0.0881 -0.1083 -0.0347
    1OPC    GL168512   7.402  17.158   3.414  0.1232  0.0228  0.0583
    1OPC    GL268513   7.200  16.998   3.724 -0.0670  0.1487 -0.2829
    1OPC    C1B68514   7.404  16.827   4.031 -0.1160 -0.1176 -0.0481
    1OPC    D2B68515   7.708  16.723   4.310  0.3840  0.1493 -0.0206
    1OPC    C3B68516   7.642  16.807   4.800 -0.1203 -0.0264 -0.0438
    1OPC    C4B68517   7.857  16.871   5.232  0.1986 -0.1385  0.3708
    1OPC    NC368518  24.605  25.672   3.108  0.0538 -0.2527  0.3360
    1OPC    PO468519  24.666  25.756   3.483  0.2432 -0.0831  0.1284
    1OPC    GL168520  24.909  25.785   3.777  0.1250  0.2250  0.0552
    1OPC    GL268521  25.260  25.722   3.812 -0.0480  0.0604 -0.3515
    1OPC    C1B68522  25.408  25.288   3.924  0.0442 -0.2776  0.1115
    1OPC    D2B68523  25.696  25.069   4.251  0.1179  0.1920 -0.1092
    1OPC    C3B68524  25.452  25.141   4.699 -0.1402 -0.2558 -0.0943
    1OPC    C4B68525  25.349  25.080   5.084  0.0412  0.2398  0.3452
    1OPC    NC368526   8.528  17.442   2.987 -0.2296 -0.0474 -0.2557
    1OPC    PO468527   8.436  17.222   3.249 -0.0859  0.2951  0.3493
    1OPC    GL168528   8.708  16.992   3.608 -0.2154  0.1200 -0.0192
    1OPC    GL268529   8.625  17.004   4.018 -0.4366  0.0676  0.2857
    1OPC    C1B68530   8.749  17.008   4.492 -0.0105  0.3032 -0.1389
    1OPC    D2B68531   8.836  16.961   4.889 -0.0366 -0.1386  0.2805
    1OPC    C3B68532   9.111  16.647   5.009 -0.0810 -0.1684  0.0880
    1OPC    C4B68533   9.392  16.564   5.246  0.1918  0.2742  0.1379
    1OPC    NC368534   6.858  24.944   2.758 -0.0415  0.0693  0.0496
    1OPC    PO468535   6.458  24.738   2.695  0.2204 -0.0968  0.0010
    1OPC    GL168536   6.417  25.033   3.009 -0.1862 -0.0483  0.0360
    1OPC    GL268537   6.408  25.178   3.330 -0.2305 -0.4114 -0.0394
    1OPC    C1B68538   6.527  25.114   3.758  0.1206  0.1794 -0.1607
    1OPC    D2B68539   6.661  25.008   4.181  0.1273 -0.1078 -0.0951
    1OPC    C3B68540   6.787  25.272   4.412 -0.4093 -0.0780 -0.0393
    1OPC    C4B68541   7.192  25.326   4.686 -0.1582 -0.0579 -0.0588
    1OPC    NC368542  24.636  17.953   3.081 -0.2113  0.0152  0.2308
    1OPC    PO468543  24.141  17.884   3.129 -0.0208 -0.1069 -0.0428
    1OPC    GL168544  23.829  17.854   3.392 -0.0912  0.0349  0.1020
    1OPC    GL268545  23.715  17.839   3.748  0.1503 -0.0069  0.0193
    1OPC    C1B68546  23.504  18.081   4.127  0.1141  0.3181  0.0734
    1OPC    D2B68547  23.516  18.426   4.499  0.1501 -0.0497  0.2475
    1OPC    C3B68548  23.393  18.534   4.899  0.1650 -0.0886  0.0050
    1OPC    C4B68549  23.571  18.397   5.253  0.1234 -0.2177  0.2386
    1OPC    NC368550  26.020   0.512   2.866  0.1851 -0.4203 -0.1442
    1OPC    PO468551  26.099   0.951   2.861 -0.1749 -0.3573  0.2008
    1OPC    GL168552  26.161   0.747   3.244 -0.3014 -0.1181  0.2657
    1OPC    GL268553  26.395   0.640   3.446  0.0034  0.0152  0.0741
    1OPC    C1B68554  26.588   0.545   3.764 -0.0952 -0.3369 -0.1797
    1OPC    D2B68555  26.592   0.679   4.185 -0.1473 -0.0645  0.1189
    1OPC    C3B68556  26.864   0.598   4.519 -0.0665 -0.0949 -0.1267
    1OPC    C4B68557  27.165   0.740   4.769  0.0016 -0.0431 -0.3532
    1OPC    NC368558  19.463  12.971   2.797 -0.0213  0.2572 -0.0534
    1OPC    PO468559  19.808  12.792   2.933  0.1555  0.0335 -0.1465
    1OPC    GL168560  19.931  12.639   3.282 -0.2671 -0.2680 -0.0836
    1OPC    GL268561  19.830  12.611   3.634 -0.3469  0.2564  0.1757
    1OPC    C1B68562  19.911  12.524   4.071  0.0475 -0.0976  0.2405
    1OPC    D2B68563  20.098  12.533   4.544 -0.1162 -0.2691 -0.3334
    1OPC    C3B68564  20.244  12.185   4.841 -0.3869  0.0761  0.3839
    1OPC    C4B68565  20.528  12.092   5.137 -0.0509 -0.3099 -0.1205
    1OPC    NC368566  15.855  17.873   2.809  0.1216 -0.1552  0.1848
    1OPC    PO468567  16.003  17.647   3.181 -0.1232  0.2191  0.3350
    1OPC    GL168568  15.851  17.897   3.605  0.0410  0.0053 -0.1412
    1OPC    GL268569  15.794  17.941   3.935  0.0603 -0.1196  0.1645
    1OPC    C1B68570  15.899  18.009   4.333  0.2164  0.0200 -0.0215
    1OPC    D2B68571  15.951  18.022   4.772  0.1634 -0.0620  0.0125
    1OPC    C3B68572  16.017  18.367   5.147 -0.1521 -0.1943  0.1533
    1OPC    C4B68573  15.723  18.545   5.438 -0.2673  0.2419 -0.1814
    1OPC    NC368574   1.412   4.878   1.320 -0.0797 -0.1805 -0.0914
    1OPC    PO468575   0.996   4.912   1.523  0.2450  0.3438  0.0946
    1OPC    GL168576   1.271   4.738   1.877 -0.2304 -0.1070 -0.2591
    1OPC    GL268577   1.562   4.733   2.051  0.2739 -0.3117  0.0938
    1OPC    C1B68578   1.853   4.628   2.482 -0.1468  0.0329 -0.0009
    1OPC    D2B68579   2.148   4.359   2.650  0.1821  0.0657 -0.1722
    1OPC    C3B68580   2.094   3.891   2.819 -0.0495  0.0247  0.1826
    1OPC    C4B68581   2.281   3.514   2.654  0.1801 -0.2017  0.0358
    1OPC    NC368582  19.236  18.172   3.381 -0.0512 -0.0740  0.2577
    1OPC    PO468583  18.837  17.914   3.353 -0.3689 -0.2515 -0.1062
    1OPC    GL168584  18.879  18.178   3.678  0.2462  0.0269  0.0951
    1OPC    GL268585  18.909  18.188   4.002  0.1963  0.0940 -0.2635
    1OPC    C1B68586  19.136  17.879   4.240 -0.4220  0.2026 -0.1123
    1OPC    D2B68587  19.482  17.957   4.458  0.3180 -0.3077 -0.0147
    1OPC    C3B68588  19.455  17.970   4.914 -0.2129 -0.0381  0.2260
    1OPC    C4B68589  19.167  17.842   5.169  0.0574 -0.2012  0.0037
    1OPC    NC368590  17.153   0.333   3.620  0.1113 -0.4057  0.0488
    1OPC    PO468591  17.135   0.598   3.957 -0.2756  0.3014 -0.2067
    1OPC    GL168592  17.140   0.325   4.200 -0.1243  0.5068  0.0068
    1OPC    GL268593  17.056   0.000   4.419 -0.0859 -0.0229 -0.0083
    1OPC    C1B68594  17.145  28.072   4.848  0.1704  0.0809 -0.0164
    1OPC    D2B68595  17.233   0.224   5.122 -0.1538 -0.2100  0.0002
    1OPC    C3B68596  17.268   0.213   5.473 -0.3145 -0.2342  0.2524
    1OPC    C4B68597  17.222   0.141   5.988  0.1719 -0.0208 -0.2601
    1OPC    NC368598  23.544   7.530   2.603 -0.2895  0.3447 -0.1492
    1OPC    PO468599  23.714   7.350   2.937 -0.3928  0.1724  0.0302
    1OPC    GL168600  23.757   7.598   3.272 -0.1504  0.1750  0.0079
    1OPC    GL268601  23.985   7.792   3.612  0.0447 -0.1642 -0.1482
    1OPC    C1B68602  24.064   7.760   4.054 -0.0921 -0.0112  0.1787
    1OPC    D2B68603  23.865   7.769   4.438 -0.2167 -0.0341  0.2542
    1OPC    C3B68604  24.133   7.961   4.739  0.1198  0.0528  0.0269
    1OPC    C4B68605  24.437   8.305   4.654 -0.0702  0.0838 -0.1895
    1OPC    NC368606  12.997   5.707   3.397 -0.2939  0.1608  0.1679
    1OPC    PO468607  12.462   5.853   3.304  0.2793  0.0899  0.1167
    1OPC    GL168608  12.541   5.923   3.716  0.0698 -0.2370 -0.1491
    1OPC    GL268609  12.424   5.959   3.945  0.0972  0.1221 -0.1270
    1OPC    C1B68610  12.416   5.981   4.361 -0.1684  0.2608 -0.3364
    1OPC    D2B68611  12.560   6.079   4.791  0.1416 -0.2509 -0.0895
    1OPC    C3B68612  12.478   5.828   5.177 -0.0307 -0.2107 -0.1341
    1OPC    C4B68613  12.324   5.454   5.293  0.0265 -0.1574  0.1664
    1OPC    NC368614   8.113  14.399   2.750 -0.0053 -0.1132 -0.2446
    1OPC    PO468615   7.789  14.805   2.734  0.3555 -0.0250  0.1738
    1OPC    GL168616   7.741  14.888   3.106  0.0451  0.0456  0.2022
    1OPC    GL268617   7.562  14.763   3.357  0.0736  0.0545  0.1446
    1OPC    C1B68618   7.544  14.694   3.859  0.0483 -0.2656 -0.1790
    1OPC    D2B68619   7.415  14.367   3.999  0.1968  0.1493  0.3745
    1OPC    C3B68620   7.118  14.303   4.231 -0.2884 -0.0132 -0.2537
    1OPC    C4B68621   6.896  14.023   4.404 -0.2626 -0.3440 -0.0729
    1OPC    NC368622   9.936  13.954   3.975 -0.1510  0.1188  0.0028
    1OPC    PO468623   9.843  14.322   3.742 -0.0654 -0.2300 -0.1348
    1OPC    GL168624   9.897  14.819   3.865  0.2183  0.0046  0.1046
    1OPC    GL268625   9.803  14.940   4.072  0.1141 -0.0801  0.0112
    1OPC    C1B68626   9.648  14.989   4.438  0.1417 -0.2097 -0.0375
    1OPC    D2B68627   9.704  14.974   4.872 -0.0815 -0.1412 -0.0026
    1OPC    C3B68628   9.510  14.883   5.296 -0.1007 -0.2746  0.1390
    1OPC    C4B68629   9.266  14.825   5.596 -0.1376 -0.1929  0.4233
    1OPC    NC368630  12.983  14.646   3.561  0.2404  0.1324 -0.1031
    1OPC    PO468631  12.548  14.792   3.649  0.1257 -0.0348 -0.0064
    1OPC    GL168632  12.841  14.865   4.003  0.0621  0.0119 -0.0820
    1OPC    GL268633  13.015  14.703   4.198 -0.0632  0.1197  0.1582
    1OPC    C1B68634  13.212  14.889   4.498 -0.0093  0.2622  0.1333
    1OPC    D2B68635  13.015  15.113   4.846 -0.0327 -0.1503  0.1273
    1OPC    C3B68636  13.084  15.300   5.202 -0.4031  0.1008 -0.1323
    1OPC    C4B68637  13.089  15.599   5.497  0.2848 -0.0994  0.0920
    1OPC    NC368638  19.153  12.173   2.859 -0.0498  0.2160 -0.1555
    1OPC    PO468639  19.240  11.721   2.821 -0.0011 -0.0318  0.1210
    1OPC    GL168640  19.398  11.878   3.167 -0.2674 -0.2134 -0.0670
    1OPC    GL268641  19.428  11.960   3.549  0.0819  0.2433  0.2316
    1OPC    C1B68642  19.565  12.035   4.006  0.1177  0.2951  0.1125
    1OPC    D2B68643  19.757  12.187   4.516 -0.1825  0.1522 -0.2145
    1OPC    C3B68644  19.753  12.240   4.978 -0.1815 -0.2170  0.1424
    1OPC    C4B68645  19.783  12.087   5.328  0.2375 -0.1105 -0.1477
    1OPC    NC368646  12.942   9.520   3.117 -0.1916  0.0407 -0.4914
    1OPC    PO468647  13.218   9.871   3.360  0.0094  0.0748 -0.0744
    1OPC    GL168648  13.241  10.138   3.740  0.2197  0.0751  0.1318
    1OPC    GL268649  13.268  10.102   4.022 -0.0653 -0.0070  0.1077
    1OPC    C1B68650  13.301   9.995   4.451 -0.0915 -0.0266 -0.0327
    1OPC    D2B68651  13.653  10.114   4.772 -0.0507 -0.0790  0.3109
    1OPC    C3B68652  13.777  10.112   5.178  0.2339  0.0069  0.3282
    1OPC    C4B68653  14.193  10.203   5.477  0.2302 -0.1057  0.0242
    1OPC    NC368654   5.299   6.925   1.687  0.1182  0.2309  0.2103
    1OPC    PO468655   5.217   6.967   2.141  0.1149 -0.1872 -0.0452
    1OPC    GL168656   5.123   6.952   2.571 -0.2565 -0.1568 -0.0804
    1OPC    GL268657   5.044   6.730   2.755 -0.3400 -0.1174 -0.1144
    1OPC    C1B68658   4.843   6.527   3.117 -0.1965  0.1326 -0.1261
    1OPC    D2B68659   4.761   6.165   3.266  0.0935  0.1931 -0.2528
    1OPC    C3B68660   4.570   6.036   3.683  0.0694 -0.1660 -0.1084
    1OPC    C4B68661   4.474   5.811   4.070  0.4039  0.0278 -0.2538
    1OPC    NC368662   4.336  11.160   3.121  0.4085  0.1819  0.2025
    1OPC    PO468663   3.924  11.181   2.889  0.0012 -0.0219 -0.2796
    1OPC    GL168664   3.591  11.131   3.220  0.0501  0.2520 -0.1066
    1OPC    GL268665   3.510  11.287   3.548 -0.2136 -0.1227  0.2316
    1OPC    C1B68666   3.353  11.383   3.973  0.4099  0.3685 -0.2338
    1OPC    D2B68667   3.292  11.514   4.396 -0.1439 -0.0044  0.1975
    1OPC    C3B68668   3.519  11.430   4.654  0.1893  0.1769  0.4112
    1OPC    C4B68669   3.748  11.264   4.886  0.1518 -0.0352 -0.1473
    1OPC    NC368670   8.714  16.420   2.841 -0.0408  0.1357  0.0546
    1OPC    PO468671   9.020  16.407   3.105 -0.0867  0.1933 -0.1908
    1OPC    GL168672   8.878  16.492   3.432  0.1318  0.0293 -0.0095
    1OPC    GL268673   9.031  16.536   3.756  0.2334  0.0823  0.0698
    1OPC    C1B68674   9.110  16.402   4.128 -0.1280  0.1589  0.1219
    1OPC    D2B68675   8.977  16.601   4.449  0.2428 -0.0423  0.0431
    1OPC    C3B68676   8.732  16.520   4.722  0.1884  0.0418 -0.1733
    1OPC    C4B68677   8.593  16.404   5.078  0.0777  0.1517  0.0275
    1OPC    NC368678  15.808  12.525   3.935  0.1104  0.0597 -0.1952
    1OPC    PO468679  15.767  13.001   3.845  0.2401  0.0428  0.0955
    1OPC    GL168680  15.704  13.134   4.253  0.1737  0.0615 -0.4426
    1OPC    GL268681  15.514  12.820   4.373  0.0523 -0.1905  0.0374
    1OPC    C1B68682  15.301  12.584   4.771 -0.4592  0.0329  0.2663
    1OPC    D2B68683  15.097  12.531   5.148  0.0484 -0.0835 -0.0600
    1OPC    C3B68684  15.458  12.502   5.344 -0.1952  0.1387  0.0540
    1OPC    C4B68685  15.727  12.589   5.723  0.0222  0.0212  0.0248
    1OPC    NC368686  14.645  12.492   3.346  0.1083  0.0493 -0.0232
    1OPC    PO468687  14.842  12.340   3.748  0.3022  0.0964  0.3412
    1OPC    GL168688  14.915  12.440   4.084  0.3088  0.1232 -0.2208
    1OPC    GL268689  14.721  12.442   4.321  0.1102  0.0915  0.0627
    1OPC    C1B68690  14.767  12.903   4.697  0.0180 -0.0035  0.0593
    1OPC    D2B68691  14.967  13.005   5.113 -0.0601 -0.0101  0.0052
    1OPC    C3B68692  14.759  13.025   5.572 -0.0235 -0.3432  0.0524
    1OPC    C4B68693  14.892  13.137   6.050 -0.0158 -0.2001  0.0902
    1OPC    NC368694  26.345  17.492   2.571  0.3086 -0.0610 -0.2215
    1OPC    PO468695  26.355  17.858   2.854  0.0263 -0.2627 -0.3011
    1OPC    GL168696  26.316  17.845   3.201  0.0814 -0.2544 -0.0639
    1OPC    GL268697  26.363  17.575   3.537  0.1897  0.0992 -0.0529
    1OPC    C1B68698  26.491  17.308   3.844 -0.2525  0.0948  0.2250
    1OPC    D2B68699  26.587  17.171   4.116  0.1133 -0.1546 -0.2607
    1OPC    C3B68700  26.785  17.386   4.545 -0.0772 -0.0295  0.1113
    1OPC    C4B68701  26.748  17.135   4.864  0.1913  0.0717 -0.0814
    1OPC    NC368702  18.897  27.606   3.346 -0.0439  0.0103  0.0419
    1OPC    PO468703  18.558  27.498   3.552 -0.0673  0.0226 -0.0057
    1OPC    GL168704  18.684  27.463   3.956 -0.2668 -0.1000 -0.0933
    1OPC    GL268705  18.507  27.532   4.246  0.0103  0.1668  0.1059
    1OPC    C1B68706  18.542  27.818   4.614 -0.0195 -0.1100 -0.0321
    1OPC    D2B68707  18.592  27.971   5.068 -0.1328 -0.0462  0.0409
    1OPC    C3B68708  18.803   0.167   5.318 -0.0824 -0.1096  0.0169
    1OPC    C4B68709  18.938   0.525   5.555  0.0276  0.1064 -0.0702
    1OPC    NC368710  24.720  12.904   2.779 -0.3006 -0.1412  0.1103
    1OPC    PO468711  24.339  13.136   2.708 -0.2836  0.2933  0.1921
    1OPC    GL168712  24.506  13.184   3.124 -0.1669  0.1908 -0.0012
    1OPC    GL268713  24.637  13.159   3.381 -0.2981 -0.3127 -0.3277
    1OPC    C1B68714  24.865  13.100   3.699  0.4148  0.1472  0.1674
    1OPC    D2B68715  24.854  12.797   4.121  0.2369  0.1663  0.1745
    1OPC    C3B68716  24.789  12.913   4.558 -0.1503 -0.1183  0.0160
    1OPC    C4B68717  25.057  13.075   4.820  0.0907  0.0882  0.0055
    1OPC    NC368718  12.328  15.208   3.636 -0.1219 -0.1525  0.0144
    1OPC    PO468719  12.116  15.480   4.024 -0.1678  0.0748  0.0735
    1OPC    GL168720  11.949  15.306   4.436  0.2439 -0.0992 -0.2362
    1OPC    GL268721  11.992  15.487   4.781  0.1463 -0.2048 -0.1824
    1OPC    C1B68722  12.221  15.857   4.966 -0.0859  0.1689  0.0174
    1OPC    D2B68723  12.172  16.166   5.290  0.0825 -0.1234  0.0435
    1OPC    C3B68724  12.077  16.686   5.266  0.1435  0.0582  0.0912
    1OPC    C4B68725  12.024  17.091   5.292 -0.1618 -0.1687  0.1162
    1OPC    NC368726  15.397  14.890   3.779 -0.0788 -0.1183  0.0306
    1OPC    PO468727  15.648  14.887   4.048 -0.0962  0.2071  0.1795
    1OPC    GL168728  15.352  14.932   4.273  0.1102  0.3862 -0.1962
    1OPC    GL268729  15.216  14.905   4.464  0.1508  0.2565  0.0604
    1OPC    C1B68730  15.114  15.026   4.767 -0.0170  0.3247  0.1661
    1OPC    D2B68731  15.061  14.947   5.145 -0.2170 -0.1860 -0.0310
    1OPC    C3B68732  15.089  15.210   5.402  0.1548 -0.0957 -0.0626
    1OPC    C4B68733  15.258  15.566   5.668  0.1749 -0.0029  0.1965
    1OPC    NC368734   5.490  24.985   1.939  0.5368 -0.1308 -0.1289
    1OPC    PO468735   5.540  24.725   2.324 -0.0994  0.2875  0.1517
    1OPC    GL168736   5.542  24.688   2.769  0.2056  0.1374  0.1915
    1OPC    GL268737   5.714  24.788   3.082  0.3187 -0.1637 -0.0565
    1OPC    C1B68738   5.872  24.681   3.420 -0.2190  0.0703  0.0330
    1OPC    D2B68739   6.023  24.379   3.703  0.1732  0.1035  0.3628
    1OPC    C3B68740   5.891  24.399   4.160 -0.1840  0.1672 -0.0195
    1OPC    C4B68741   5.901  24.192   4.502 -0.1187 -0.1259  0.3220
    1OPC    NC368742  10.073   1.288   2.876  0.0388  0.0457 -0.0313
    1OPC    PO468743   9.679   1.129   3.117 -0.1968 -0.0945 -0.1803
    1OPC    GL168744   9.360   0.906   3.398  0.0491 -0.2293 -0.0974
    1OPC    GL268745   9.176   0.643   3.464  0.1070 -0.1412 -0.0423
    1OPC    C1B68746   9.104   0.541   3.948  0.1033  0.1838 -0.0658
    1OPC    D2B68747   8.934   0.316   4.224  0.1617  0.1158  0.0031
    1OPC    C3B68748   8.672   0.482   4.559  0.1936  0.3859  0.3401
    1OPC    C4B68749   8.318   0.523   4.765 -0.3363  0.4115  0.0123
    1OPC    NC368750  15.114  16.256   3.779  0.3177  0.0696 -0.2654
    1OPC    PO468751  14.736  16.009   3.776 -0.2484  0.0396  0.1702
    1OPC    GL168752  14.595  15.873   4.019  0.1992  0.0356 -0.0735
    1OPC    GL268753  14.617  15.720   4.250  0.3583  0.0652  0.1920
    1OPC    C1B68754  14.537  15.631   4.579  0.0108  0.2730 -0.1977
    1OPC    D2B68755  14.593  15.719   4.971  0.2655  0.1102 -0.0285
    1OPC    C3B68756  14.270  15.555   5.251 -0.2080  0.1280 -0.1521
    1OPC    C4B68757  13.995  15.820   5.562 -0.0292 -0.0783  0.2194
    1OPC    NC368758   8.591  25.630   2.333  0.1826  0.2047  0.5389
    1OPC    PO468759   8.242  25.918   2.343  0.1443  0.3336 -0.1295
    1OPC    GL168760   7.976  25.989   2.626 -0.1074 -0.2755  0.1424
    1OPC    GL268761   7.759  26.150   2.930  0.0679  0.1095  0.1137
    1OPC    C1B68762   7.450  25.950   3.300 -0.2016  0.3793  0.1388
    1OPC    D2B68763   7.103  25.727   3.300  0.0601  0.0154 -0.1148
    1OPC    C3B68764   6.783  25.659   3.586 -0.1699 -0.0623 -0.4230
    1OPC    C4B68765   6.638  25.572   3.999 -0.0931  0.0194 -0.0751
    1OPC    NC368766  21.677  26.600   3.300 -0.4719 -0.3506 -0.0853
    1OPC    PO468767  22.185  26.565   3.163 -0.1913  0.1138 -0.1157
    1OPC    GL168768  22.104  26.635   3.549 -0.2174 -0.1289 -0.1599
    1OPC    GL268769  21.956  26.839   3.774 -0.1896  0.0893  0.1908
    1OPC    C1B68770  22.006  27.157   4.178  0.3718  0.4328  0.0434
    1OPC    D2B68771  21.921  27.406   4.566  0.0618 -0.0539  0.0209
    1OPC    C3B68772  22.127  27.707   4.773 -0.2433  0.6487  0.0135
    1OPC    C4B68773  22.364  28.062   4.869  0.0314  0.1486  0.0553
    1OPC    NC368774  16.209  20.858   2.781 -0.1029 -0.0010 -0.0132
    1OPC    PO468775  15.740  20.923   3.039 -0.0324  0.0574  0.2336
    1OPC    GL168776  15.829  20.823   3.470 -0.0392 -0.0565 -0.4110
    1OPC    GL268777  15.909  20.553   3.709  0.0960 -0.1960  0.3650
    1OPC    C1B68778  15.863  20.142   3.988  0.5104 -0.0236 -0.1043
    1OPC    D2B68779  15.495  19.937   4.140 -0.0194 -0.1017  0.1693
    1OPC    C3B68780  15.324  19.736   4.485  0.3514  0.1483  0.3351
    1OPC    C4B68781  15.281  19.984   4.947  0.1287  0.1004  0.2566
    1OPC    NC368782  24.321   8.218   2.132  0.2227  0.0391 -0.0171
    1OPC    PO468783  24.665   7.840   2.178  0.2422 -0.3335  0.1950
    1OPC    GL168784  24.988   7.882   2.499  0.3269 -0.0709  0.1360
    1OPC    GL268785  25.133   7.681   2.817  0.0615 -0.4458  0.1832
    1OPC    C1B68786  25.415   7.538   3.180  0.0535 -0.0606 -0.4214
    1OPC    D2B68787  25.484   7.272   3.547 -0.0312  0.1427  0.0448
    1OPC    C3B68788  25.134   7.069   3.813 -0.3738 -0.0729  0.0977
    1OPC    C4B68789  24.842   6.711   3.928  0.0130 -0.1586 -0.0283
    1OPC    NC368790   0.500   4.033   1.774  0.0024 -0.4543 -0.0407
    1OPC    PO468791   0.855   4.010   1.517 -0.2603  0.2177 -0.0286
    1OPC    GL168792   1.113   4.155   1.999  0.0354  0.2092  0.1102
    1OPC    GL268793   1.246   4.349   2.151 -0.1654  0.0845  0.0262
    1OPC    C1B68794   1.385   4.400   2.596 -0.0722  0.1362 -0.0516
    1OPC    D2B68795   1.406   4.574   3.006 -0.1085 -0.1113  0.3284
    1OPC    C3B68796   1.354   4.361   3.344  0.0744 -0.1143 -0.0266
    1OPC    C4B68797   1.572   4.077   3.563  0.0648 -0.0560  0.0524
    1OPC    NC368798  10.574  14.761   3.134  0.1224 -0.1846 -0.0910
    1OPC    PO468799  10.808  15.186   3.276  0.1574 -0.5665  0.0725
    1OPC    GL168800  10.905  15.351   3.698  0.1540 -0.2005  0.0625
    1OPC    GL268801  10.737  15.262   3.879 -0.1102  0.1400 -0.0872
    1OPC    C1B68802  10.625  15.415   4.259  0.1613  0.3869 -0.0206
    1OPC    D2B68803  10.709  15.674   4.543  0.0932 -0.1411 -0.0343
    1OPC    C3B68804  10.517  15.597   4.804 -0.2481  0.0296 -0.0088
    1OPC    C4B68805  10.792  15.328   4.974  0.0506 -0.0466  0.0845
    1OPC    NC368806   1.527  11.264   2.800 -0.0046 -0.1940 -0.0720
    1OPC    PO468807   1.357  11.436   3.116  0.1019 -0.0666  0.1448
    1OPC    GL168808   1.440  11.606   3.466  0.2773  0.2248  0.1616
    1OPC    GL268809   1.582  11.463   3.756 -0.0454  0.2504  0.1624
    1OPC    C1B68810   1.626  11.197   4.091 -0.1852  0.2647 -0.0481
    1OPC    D2B68811   1.459  10.866   4.321  0.0920  0.0440  0.0882
    1OPC    C3B68812   1.185  10.887   4.669  0.1193  0.1879  0.3192
    1OPC    C4B68813   1.231  11.111   5.009 -0.1253  0.0374 -0.2415
    1OPC    NC368814  20.269  27.304   2.866 -0.0292 -0.1626  0.2870
    1OPC    PO468815  20.317  27.189   3.270 -0.3340  0.0659 -0.3234
    1OPC    GL168816  20.526  27.220   3.602 -0.0512 -0.1976 -0.0612
    1OPC    GL268817  20.509  27.359   3.849  0.0356  0.0791 -0.2866
    1OPC    C1B68818  20.325  27.320   4.296 -0.2132  0.0802 -0.1399
    1OPC    D2B68819  20.112  27.173   4.768  0.0908  0.1628 -0.1142
    1OPC    C3B68820  20.050  26.770   4.905 -0.4379  0.0776  0.0253
    1OPC    C4B68821  19.695  26.765   5.093 -0.0330 -0.3588  0.0644
    1OPC    NC368822  16.495  19.351   2.894 -0.0112  0.2300  0.1082
    1OPC    PO468823  16.542  19.013   3.225  0.3676  0.1710  0.3289
    1OPC    GL168824  16.409  18.853   3.599 -0.1002  0.0588  0.0281
    1OPC    GL268825  16.485  18.660   3.865 -0.2186  0.0247  0.3630
    1OPC    C1B68826  16.720  18.611   4.239 -0.0517 -0.1119  0.5293
    1OPC    D2B68827  17.105  18.802   4.535 -0.3059  0.1313 -0.1041
    1OPC    C3B68828  17.146  19.178   4.761 -0.1527  0.3792 -0.0422
    1OPC    C4B68829  17.021  19.335   5.114 -0.1686 -0.2403 -0.0074
    1OPC    NC368830  17.676   8.129   3.672 -0.0639 -0.1817 -0.0673
    1OPC    PO468831  17.365   8.254   3.917  0.4942 -0.0832  0.1124
    1OPC    GL168832  17.414   8.141   4.289  0.0172 -0.1146 -0.0661
    1OPC    GL268833  17.341   8.234   4.707  0.0291  0.0456 -0.0794
    1OPC    C1B68834  17.638   8.388   4.954 -0.0772 -0.1517  0.0908
    1OPC    D2B68835  17.882   8.606   5.229 -0.3089 -0.1069 -0.1666
    1OPC    C3B68836  17.965   8.317   5.644  0.1989 -0.1415 -0.1145
    1OPC    C4B68837  18.163   8.392   5.978 -0.0165  0.0883 -0.1348
    1OPC    NC368838  22.925  17.412   3.552  0.2841  0.2427 -0.0991
    1OPC    PO468839  23.138  17.755   3.291 -0.2880 -0.4080  0.0412
    1OPC    GL168840  23.144  17.850   3.698 -0.0841 -0.2438 -0.0005
    1OPC    GL268841  23.032  17.898   4.064 -0.1976 -0.0444 -0.0709
    1OPC    C1B68842  22.889  17.644   4.451  0.1772 -0.1862 -0.2496
    1OPC    D2B68843  22.619  17.399   4.563 -0.0566 -0.2387  0.2041
    1OPC    C3B68844  22.709  17.239   4.922  0.1748  0.2664  0.0049
    1OPC    C4B68845  22.714  16.951   5.172 -0.0321 -0.4307  0.1018
    1OPC    NC368846   2.902  24.874   2.711  0.2045 -0.1851  0.2564
    1OPC    PO468847   3.290  24.886   2.920 -0.0365 -0.3105 -0.0476
    1OPC    GL168848   3.027  24.681   3.225 -0.2543 -0.0794  0.3166
    1OPC    GL268849   2.966  24.568   3.466 -0.0745 -0.0101 -0.3542
    1OPC    C1B68850   2.947  24.269   3.781 -0.1847 -0.1298 -0.1578
    1OPC    D2B68851   3.133  23.971   4.048  0.0105  0.3666 -0.1194
    1OPC    C3B68852   2.884  23.654   4.307 -0.1210  0.3100  0.2341
    1OPC    C4B68853   2.914  23.230   4.192 -0.0691 -0.0411  0.4090
    1OPC    NC368854   0.109  20.766   2.533  0.0279 -0.2686 -0.0029
    1OPC    PO468855  28.060  21.124   2.628  0.0115  0.1941  0.1784
    1OPC    GL168856   0.045  21.386   2.988 -0.3023 -0.1451  0.3381
    1OPC    GL268857   0.047  21.456   3.298 -0.1036  0.1556  0.1276
    1OPC    C1B68858   0.377  21.737   3.397  0.3679 -0.2177 -0.2152
    1OPC    D2B68859   0.453  22.072   3.682 -0.2849 -0.1641 -0.0631
    1OPC    C3B68860   0.721  22.357   3.447 -0.2802 -0.2324  0.0828
    1OPC    C4B68861   1.134  22.519   3.545 -0.1546  0.1930 -0.3370
    1OPC    NC368862   7.225  23.587   2.808 -0.3957 -0.2807  0.1385
    1OPC    PO468863   6.848  23.760   2.738 -0.0041  0.0551 -0.1093
    1OPC    GL168864   6.647  24.006   2.986  0.3671 -0.0698  0.0014
    1OPC    GL268865   6.642  24.209   3.254 -0.0016  0.2057 -0.3284
    1OPC    C1B68866   6.521  24.206   3.596 -0.3245  0.0477 -0.3221
    1OPC    D2B68867   6.361  24.157   4.117 -0.0936  0.1848 -0.0527
    1OPC    C3B68868   6.569  23.979   4.391 -0.0277 -0.0407  0.3477
    1OPC    C4B68869   6.778  23.822   4.707 -0.1634  0.4811  0.1539
    1OPC    NC368870  19.746   9.318   3.034 -0.2932  0.1493 -0.0726
    1OPC    PO468871  19.707   9.025   3.216  0.1630 -0.0293 -0.1112
    1OPC    GL168872  19.542   8.889   3.594  0.0945 -0.2114 -0.4443
    1OPC    GL268873  19.492   8.983   3.979 -0.2519 -0.1266  0.0761
    1OPC    C1B68874  19.663   9.014   4.371  0.0728  0.0588 -0.3146
    1OPC    D2B68875  19.760   8.943   4.707  0.0860  0.0895  0.0697
    1OPC    C3B68876  20.100   9.235   4.839  0.0605 -0.0766  0.1875
    1OPC    C4B68877  20.203   9.691   4.885  0.2154 -0.1093 -0.2758
    1OPC    NC368878  10.506  12.259   3.625 -0.4890  0.3215 -0.0432
    1OPC    PO468879  10.004  12.249   3.622 -0.0128  0.0620 -0.0583
    1OPC    GL168880   9.868  12.036   3.986  0.0269  0.1946  0.2242
    1OPC    GL268881  10.002  12.013   4.388 -0.2591  0.2782 -0.1417
    1OPC    C1B68882  10.009  11.974   4.827 -0.1757  0.0741 -0.2968
    1OPC    D2B68883  10.075  11.861   5.243  0.1604 -0.0855 -0.0560
    1OPC    C3B68884   9.852  11.735   5.530 -0.1727  0.2262  0.0400
    1OPC    C4B68885   9.406  11.797   5.818  0.3302 -0.1463  0.4159
    1OPC    NC368886  24.250  26.479   3.554  0.0264  0.1557 -0.2112
    1OPC    PO468887  24.159  25.969   3.460 -0.1296  0.2143  0.0589
    1OPC    GL168888  24.212  26.062   3.819  0.0625 -0.1304 -0.1425
    1OPC    GL268889  24.229  25.908   4.098 -0.1858  0.1681  0.1118
    1OPC    C1B68890  24.440  25.766   4.448  0.1072  0.2863  0.1505
    1OPC    D2B68891  24.770  25.736   4.638 -0.2149  0.1287  0.4134
    1OPC    C3B68892  25.039  25.419   4.673  0.0931  0.1870  0.3036
    1OPC    C4B68893  24.902  25.031   4.855  0.0449  0.0330 -0.4586
    1OPC    NC368894  24.334  22.977   3.275  0.0061  0.0726 -0.1210
    1OPC    PO468895  24.020  23.269   3.382 -0.3288 -0.1038 -0.2358
    1OPC    GL168896  24.277  23.541   3.652 -0.1783 -0.4475 -0.1657
    1OPC    GL268897  24.434  23.537   3.949  0.2009 -0.0601  0.0030
    1OPC    C1B68898  24.361  23.645   4.390 -0.0320  0.3590  0.0429
    1OPC    D2B68899  24.236  23.730   4.783 -0.1220  0.2464  0.1060
    1OPC    C3B68900  23.971  23.534   4.960  0.2578 -0.2860 -0.1311
    1OPC    C4B68901  23.814  23.365   5.504 -0.3649 -0.0307  0.1725
    1OPC    NC368902   3.189   0.223   1.942  0.3486 -0.0544  0.0490
    1OPC    PO468903   3.318  28.071   2.255 -0.1365  0.2997 -0.2330
    1OPC    GL168904   3.396   0.063   2.624  0.2453  0.1360 -0.5869
    1OPC    GL268905   3.273   0.323   2.913  0.0948  0.2401  0.0206
    1OPC    C1B68906   3.367   0.729   3.140 -0.2400  0.0163 -0.0937
    1OPC    D2B68907   3.271   0.979   3.400 -0.0650  0.3145 -0.1504
    1OPC    C3B68908   2.804   1.043   3.459 -0.0372 -0.1712  0.0872
    1OPC    C4B68909   2.621   1.280   3.909  0.1655  0.5987  0.2214
    1OPC    NC368910   2.879  13.188   2.218 -0.3426  0.0517 -0.2534
    1OPC    PO468911   3.127  12.916   2.534 -0.0453  0.2532 -0.3419
    1OPC    GL168912   3.194  13.166   2.876 -0.1488 -0.0033  0.1512
    1OPC    GL268913   3.202  13.402   3.047 -0.0858  0.0894 -0.1195
    1OPC    C1B68914   3.385  13.387   3.500  0.0300 -0.3578  0.1363
    1OPC    D2B68915   3.535  13.491   3.887 -0.0050 -0.1110 -0.0480
    1OPC    C3B68916   3.367  13.522   4.213  0.1612 -0.4063  0.1874
    1OPC    C4B68917   3.274  13.596   4.553 -0.1654 -0.0909 -0.3436
    1OPC    NC368918  23.895  14.516   3.203  0.1187  0.0943  0.0409
    1OPC    PO468919  23.559  14.451   2.917 -0.1593  0.2898 -0.2244
    1OPC    GL168920  23.314  14.504   3.267 -0.2266  0.3152 -0.0242
    1OPC    GL268921  23.246  14.303   3.543 -0.2349  0.1070 -0.1531
    1OPC    C1B68922  23.022  14.122   3.951  0.0243  0.1836 -0.2007
    1OPC    D2B68923  23.056  13.974   4.362  0.0672  0.2249 -0.2833
    1OPC    C3B68924  22.838  14.177   4.716 -0.0570  0.1332  0.0316
    1OPC    C4B68925  22.572  14.160   5.111 -0.3487  0.2450  0.1777
    1OPC    NC368926   5.138  13.086   2.951  0.1476  0.1289  0.3132
    1OPC    PO468927   5.135  13.582   3.014  0.3476  0.0332 -0.3082
    1OPC    GL168928   5.038  13.919   3.282 -0.0098  0.0178 -0.1130
    1OPC    GL268929   4.930  14.009   3.552  0.3531  0.1034  0.0253
    1OPC    C1B68930   4.696  14.144   3.862  0.1609 -0.0775  0.0299
    1OPC    D2B68931   4.548  14.380   4.283  0.0655  0.1284 -0.0830
    1OPC    C3B68932   4.890  14.431   4.560 -0.1688  0.1041 -0.0739
    1OPC    C4B68933   4.969  14.480   4.974  0.0696 -0.1413 -0.0255
    1OPC    NC368934  17.451  26.178   3.247  0.1076 -0.2546 -0.1057
    1OPC    PO468935  17.567  26.633   3.455 -0.0626 -0.1098  0.0283
    1OPC    GL168936  17.230  26.604   3.720 -0.0995 -0.4051 -0.0204
    1OPC    GL268937  17.420  26.676   3.916  0.0989 -0.2274 -0.1611
    1OPC    C1B68938  17.647  26.526   4.317  0.0201 -0.0117 -0.0783
    1OPC    D2B68939  17.449  26.720   4.734 -0.0648 -0.0914 -0.1399
    1OPC    C3B68940  17.511  26.520   5.164  0.0125  0.2961 -0.2475
    1OPC    C4B68941  17.289  26.400   5.579 -0.0054 -0.5672  0.1705
    1OPC    NC368942  18.446  20.006   2.972  0.0808  0.1769 -0.0211
    1OPC    PO468943  18.500  20.273   3.365 -0.0542  0.0867  0.0909
    1OPC    GL168944  18.183  20.220   3.757 -0.0983  0.0094 -0.0563
    1OPC    GL268945  18.072  20.118   4.082  0.1744  0.1414  0.1669
    1OPC    C1B68946  17.905  19.905   4.487 -0.0138 -0.0305 -0.1234
    1OPC    D2B68947  17.815  19.679   4.852  0.1799 -0.0308 -0.1240
    1OPC    C3B68948  17.744  19.867   5.158  0.0194 -0.0074  0.0259
    1OPC    C4B68949  17.537  20.262   5.224 -0.0203  0.1131  0.1062
    1OPC    NC368950  16.467   7.461   3.998  0.0777 -0.0476 -0.0524
    1OPC    PO468951  16.944   7.412   3.935  0.2801  0.1121  0.2755
    1OPC    GL168952  17.106   7.513   4.360  0.3530  0.3889 -0.2660
    1OPC    GL268953  17.160   7.804   4.545 -0.4258 -0.0032 -0.0790
    1OPC    C1B68954  17.361   7.763   4.857  0.1405 -0.0021  0.0897
    1OPC    D2B68955  17.585   7.535   5.168  0.1934 -0.0545  0.1265
    1OPC    C3B68956  17.617   7.244   5.466  0.1193  0.0231 -0.0056
    1OPC    C4B68957  17.803   6.852   5.462  0.1373  0.0561  0.0297
    1OPC    NC368958  24.663  14.187   2.215 -0.0941 -0.2929 -0.0740
    1OPC    PO468959  25.007  14.264   2.586  0.4125  0.1193  0.2038
    1OPC    GL168960  25.319  14.024   2.800 -0.2589 -0.2011 -0.0768
    1OPC    GL268961  25.480  14.114   3.059 -0.3592 -0.0366 -0.1914
    1OPC    C1B68962  25.343  14.318   3.423  0.2840  0.1567  0.0343
    1OPC    D2B68963  25.397  14.546   3.861 -0.0871  0.1225 -0.5095
    1OPC    C3B68964  25.091  14.541   4.254  0.0245  0.1151  0.1075
    1OPC    C4B68965  25.179  14.348   4.638  0.3031  0.2209  0.3251
    1OPC    NC368966  13.930   9.029   3.460  0.0166 -0.1288 -0.0196
    1OPC    PO468967  13.974   8.588   3.679 -0.3584  0.0592  0.1619
    1OPC    GL168968  14.172   8.284   3.977  0.1287 -0.0396  0.1494
    1OPC    GL268969  14.326   8.259   4.319 -0.0147 -0.0945  0.0714
    1OPC    C1B68970  14.197   8.218   4.832  0.0331 -0.1618 -0.1740
    1OPC    D2B68971  14.141   8.126   5.240  0.1089  0.1563 -0.0788
    1OPC    C3B68972  14.019   8.021   5.666  0.2705  0.1538 -0.1140
    1OPC    C4B68973  13.947   8.025   6.059 -0.3148 -0.0457 -0.1785
    1OPC    NC368974   2.571  27.225   2.601  0.1773  0.3062 -0.1398
    1OPC    PO468975   2.728  26.824   2.655  0.0161 -0.0798 -0.0016
    1OPC    GL168976   2.347  27.018   3.062  0.2071  0.1102 -0.2096
    1OPC    GL268977   2.356  27.154   3.343 -0.0880 -0.2936 -0.0235
    1OPC    C1B68978   2.371  27.111   3.778 -0.0416 -0.1292  0.0646
    1OPC    D2B68979   2.715  27.303   4.114  0.0182 -0.0428  0.1422
    1OPC    C3B68980   2.858  27.380   4.538 -0.2418  0.0081  0.0342
    1OPC    C4B68981   2.786  27.514   4.980 -0.1841 -0.2383  0.1183
    1OPC    NC368982  10.728   5.657   3.569  0.1836 -0.1201  0.0496
    1OPC    PO468983  10.745   6.016   3.350 -0.0982 -0.1159  0.1321
    1OPC    GL168984  10.654   6.067   3.788  0.0021 -0.0676 -0.1865
    1OPC    GL268985  10.741   5.899   4.162  0.2374 -0.1932  0.1645
    1OPC    C1B68986  10.718   5.862   4.592  0.0297  0.0419 -0.0425
    1OPC    D2B68987  10.785   5.896   5.087 -0.3478  0.1280 -0.0389
    1OPC    C3B68988  10.656   5.471   5.298  0.0161 -0.0306  0.0952
    1OPC    C4B68989  10.743   5.235   5.634 -0.3629 -0.0958  0.0278
    1OPC    NC368990  27.111  13.726   2.388  0.0532  0.0163  0.1375
    1OPC    PO468991  26.813  14.023   2.734 -0.0381  0.4431  0.0773
    1OPC    GL168992  26.745  14.198   3.106 -0.3098  0.3055 -0.2639
    1OPC    GL268993  26.535  14.189   3.405 -0.1905  0.0703  0.0855
    1OPC    C1B68994  26.249  14.249   3.773 -0.0730  0.2295 -0.1652
    1OPC    D2B68995  26.203  14.026   4.238  0.2422  0.0455  0.0361
    1OPC    C3B68996  26.594  13.725   4.298  0.2597  0.1405 -0.1390
    1OPC    C4B68997  27.058  13.892   4.377  0.1262 -0.0715  0.2551
    1OPC    NC368998   7.065   4.570   2.929  0.1692  0.1385 -0.0247
    1OPC    PO468999   7.488   4.564   3.238 -0.1187 -0.0142 -0.0805
    1OPC    GL169000   7.711   4.886   3.448  0.0893  0.2039 -0.1267
    1OPC    GL269001   7.609   5.170   3.551  0.0129 -0.0653  0.1745
    1OPC    C1B69002   7.588   5.084   3.982 -0.0383  0.0423  0.0899
    1OPC    D2B69003   7.464   5.270   4.356  0.1442 -0.0392 -0.2923
    1OPC    C3B69004   7.205   4.997   4.671 -0.1965 -0.2322  0.3615
    1OPC    C4B69005   7.249   5.212   5.098 -0.1080  0.1330 -0.4629
    1OPC    NC369006  25.695   7.890   1.888 -0.2663 -0.0745 -0.2902
    1OPC    PO469007  25.409   8.183   2.110 -0.4664  0.0450 -0.1636
    1OPC    GL169008  25.323   8.245   2.582  0.0048 -0.0521  0.0780
    1OPC    GL269009  25.147   8.313   2.967 -0.1105  0.2171 -0.1160
    1OPC    C1B69010  25.275   8.525   3.354  0.1366 -0.1728 -0.0902
    1OPC    D2B69011  25.625   8.485   3.599 -0.0774  0.2394 -0.0282
    1OPC    C3B69012  25.614   8.211   3.994 -0.0588 -0.1859  0.1649
    1OPC    C4B69013  25.912   8.314   4.330 -0.0721 -0.3524 -0.2420
    1OPC    NC369014  11.666  18.773   2.970  0.1568 -0.3924  0.0737
    1OPC    PO469015  11.376  19.048   3.039  0.2064  0.3098 -0.0593
    1OPC    GL169016  11.333  19.110   3.524  0.2415  0.0965  0.0761
    1OPC    GL269017  11.028  19.057   3.696 -0.1180 -0.2541 -0.0284
    1OPC    C1B69018  10.678  19.068   4.001 -0.1713 -0.0536 -0.0632
    1OPC    D2B69019  10.603  19.151   4.465  0.1064 -0.1645  0.1126
    1OPC    C3B69020  10.820  19.481   4.697 -0.0045  0.0134 -0.1243
    1OPC    C4B69021  10.888  19.594   5.147 -0.0038 -0.0244  0.1714
    1OPC    NC369022   5.029   1.026   1.691 -0.1654 -0.1636 -0.1481
    1OPC    PO469023   4.681   0.955   2.056  0.1281  0.1976  0.1778
    1OPC    GL169024   4.492   0.962   2.469  0.2950  0.2261 -0.1924
    1OPC    GL269025   4.381   0.949   2.825  0.1190  0.1570 -0.0232
    1OPC    C1B69026   4.280   1.168   3.197  0.2660  0.0217  0.2680
    1OPC    D2B69027   4.200   1.201   3.618 -0.1254 -0.1738 -0.2692
    1OPC    C3B69028   3.911   1.532   3.870  0.1190 -0.3651 -0.1921
    1OPC    C4B69029   3.850   1.877   4.208 -0.2239  0.3232 -0.0614
    1OPC    NC369030   7.305  26.152   2.752  0.2389  0.3365  0.1704
    1OPC    PO469031   7.061  25.857   2.797 -0.0092  0.0864 -0.1447
    1OPC    GL169032   6.681  25.976   3.101  0.3331 -0.0849 -0.2732
    1OPC    GL269033   6.527  26.108   3.223 -0.4073 -0.1821 -0.0766
    1OPC    C1B69034   6.489  26.095   3.661 -0.0901 -0.4020  0.0692
    1OPC    D2B69035   6.386  26.270   4.080 -0.1318 -0.1246 -0.0466
    1OPC    C3B69036   6.666  26.364   4.437  0.1943  0.2561 -0.3791
    1OPC    C4B69037   7.080  26.389   4.665 -0.1753 -0.1149  0.3373
    1OPC    NC369038  26.999   6.809   2.370  0.0888 -0.0837 -0.2571
    1OPC    PO469039  27.023   6.586   1.993 -0.3207  0.1879  0.3076
    1OPC    GL169040  27.393   6.520   2.281  0.1921  0.0085  0.2321
    1OPC    GL269041  27.615   6.461   2.562 -0.0126  0.1172  0.1327
    1OPC    C1B69042  27.689   6.179   2.923 -0.1930 -0.1269  0.2410
    1OPC    D2B69043  27.985   6.015   3.334 -0.1087  0.0117 -0.0547
    1OPC    C3B69044  27.792   6.059   3.629  0.0042  0.0643 -0.0942
    1OPC    C4B69045  27.784   6.033   4.116  0.0089  0.0109  0.0715
    1OPC    NC369046  11.976   8.788   3.131  0.0785  0.3253  0.0909
    1OPC    PO469047  11.608   9.096   3.209  0.1120 -0.2183 -0.0222
    1OPC    GL169048  11.888   9.059   3.565  0.2402  0.1605  0.0237
    1OPC    GL269049  11.892   9.131   3.777  0.1173 -0.2881  0.2326
    1OPC    C1B69050  11.988   9.450   3.995  0.2456 -0.1732 -0.3143
    1OPC    D2B69051  11.966   9.920   4.119  0.2378  0.0116  0.0519
    1OPC    C3B69052  11.960   9.823   4.497  0.3660  0.3277 -0.1040
    1OPC    C4B69053  11.667  10.020   4.779 -0.1798 -0.1608  0.1756
    1OPC    NC369054   0.144  16.485   2.285  0.2013  0.0477 -0.0864
    1OPC    PO469055  27.753  16.499   2.403 -0.1721 -0.1157 -0.0087
    1OPC    GL169056  27.724  16.666   2.768  0.0999 -0.2535  0.0566
    1OPC    GL269057  27.810  16.649   3.150  0.1215 -0.0485 -0.2586
    1OPC    C1B69058  27.795  16.808   3.659 -0.4447 -0.0889  0.2062
    1OPC    D2B69059  27.804  16.883   4.024 -0.0339  0.0092  0.0824
    1OPC    C3B69060  27.388  16.852   4.312  0.1722  0.0266 -0.0908
    1OPC    C4B69061  26.954  16.903   4.338  0.0782  0.0183  0.0022
    1OPC    NC369062   2.050   4.406   0.819 -0.3198 -0.3256 -0.1829
    1OPC    PO469063   2.205   4.193   1.274  0.4279 -0.1367 -0.2875
    1OPC    GL169064   2.023   4.280   1.674  0.0080 -0.2795  0.0188
    1OPC    GL269065   2.015   4.376   2.024  0.1248  0.0582  0.0292
    1OPC    C1B69066   1.805   4.135   2.370  0.3198  0.0903  0.0764
    1OPC    D2B69067   1.688   4.107   2.916 -0.0915  0.0667  0.0392
    1OPC    C3B69068   2.002   4.147   3.254  0.1003 -0.2173  0.2267
    1OPC    C4B69069   2.217   4.503   3.455  0.1897  0.2290 -0.2372
    1OPC    NC369070   4.507  23.994   2.213  0.3431  0.0048 -0.3164
    1OPC    PO469071   4.348  23.916   2.682  0.1843  0.2425  0.2768
    1OPC    GL169072   4.662  23.647   2.797  0.0470 -0.0927 -0.1623
    1OPC    GL269073   4.759  23.702   3.130  0.0249  0.2219 -0.0380
    1OPC    C1B69074   4.730  23.600   3.656 -0.0322 -0.2427  0.0387
    1OPC    D2B69075   4.831  23.680   4.077 -0.0290  0.0383 -0.0560
    1OPC    C3B69076   5.238  23.820   3.943 -0.1554 -0.0202 -0.1788
    1OPC    C4B69077   5.586  23.713   3.797  0.2158  0.1828  0.0591
    1OPC    NC369078   7.190  11.524   2.762  0.0624 -0.0329 -0.2171
    1OPC    PO469079   7.095  11.941   3.046 -0.0818 -0.0261 -0.0863
    1OPC    GL169080   7.094  12.120   3.501 -0.0895  0.2775  0.0435
    1OPC    GL269081   7.126  12.025   3.787 -0.0487 -0.0980 -0.2932
    1OPC    C1B69082   7.206  12.192   4.192 -0.0127  0.2643 -0.1240
    1OPC    D2B69083   7.221  12.294   4.654  0.0238 -0.0252 -0.0883
    1OPC    C3B69084   6.966  12.529   4.877 -0.0060  0.2603  0.4693
    1OPC    C4B69085   6.558  12.806   4.902 -0.0828 -0.1855 -0.0177
    1OPC    NC369086  11.444  15.693   3.345  0.2479 -0.0048 -0.4368
    1OPC    PO469087  11.400  16.091   3.528 -0.0747 -0.1916 -0.2182
    1OPC    GL169088  11.183  15.897   3.782 -0.0710  0.0572 -0.3691
    1OPC    GL269089  11.160  15.860   4.094 -0.0359 -0.3045  0.2338
    1OPC    C1B69090  10.948  16.049   4.302  0.0457 -0.1972 -0.2134
    1OPC    D2B69091  10.981  16.160   4.694 -0.0323  0.1872  0.1853
    1OPC    C3B69092  10.853  16.011   5.086  0.0432 -0.1128 -0.1036
    1OPC    C4B69093  10.727  16.014   5.498 -0.1679  0.0971  0.4405
    1OPC    NC369094   0.195   2.831   2.080 -0.0877 -0.1309  0.1899
    1OPC    PO469095  28.026   2.600   2.319  0.2966  0.1399  0.1252
    1OPC    GL169096  27.946   2.289   2.546  0.1214 -0.1117  0.1625
    1OPC    GL269097  27.842   2.261   2.958  0.2585  0.0728  0.0560
    1OPC    C1B69098  27.843   2.155   3.386 -0.1992  0.1048 -0.0019
    1OPC    D2B69099  27.797   2.191   3.865 -0.1969  0.0988  0.0852
    1OPC    C3B69100  27.845   2.543   4.163  0.0753 -0.1184  0.0501
    1OPC    C4B69101  27.949   2.785   4.511  0.4385  0.1622  0.0504
    1OPC    NC369102   6.244  18.461   3.372  0.0681  0.0179 -0.0036
    1OPC    PO469103   5.956  18.162   3.530 -0.1621  0.0417 -0.0061
    1OPC    GL169104   6.100  18.054   3.905  0.1568 -0.0251 -0.0531
    1OPC    GL269105   6.295  18.155   4.073  0.1942  0.2849  0.1730
    1OPC    C1B69106   6.199  18.211   4.446  0.2465 -0.1248 -0.2850
    1OPC    D2B69107   6.061  18.420   4.879  0.0120 -0.0737  0.1117
    1OPC    C3B69108   6.287  18.706   5.189  0.4023 -0.1296 -0.2540
    1OPC    C4B69109   6.175  19.051   5.461  0.2557 -0.1942 -0.0844
    1OPC    NC369110   9.114   7.553   2.789 -0.0016 -0.0721 -0.1925
    1OPC    PO469111   8.712   7.666   3.060  0.0991  0.0328  0.0200
    1OPC    GL169112   8.483   7.593   3.401 -0.2512 -0.1989  0.0053
    1OPC    GL269113   8.615   7.703   3.659 -0.2638  0.0898  0.1299
    1OPC    C1B69114   8.913   7.615   3.988 -0.1523 -0.0317 -0.0177
    1OPC    D2B69115   8.948   7.701   4.381  0.0854  0.1288 -0.4485
    1OPC    C3B69116   8.695   7.868   4.651  0.0490 -0.0743 -0.2726
    1OPC    C4B69117   8.440   7.969   5.048 -0.1016  0.4231 -0.2480
    1OPC    NC369118  28.014   9.308   2.384  0.0228 -0.0948 -0.0396
    1OPC    PO469119  27.858   9.225   2.862 -0.2827  0.0120 -0.1447
    1OPC    GL169120  27.837   9.179   3.258  0.1722 -0.0574 -0.1151
    1OPC    GL269121  27.963   8.910   3.482 -0.1409 -0.0227  0.0182
    1OPC    C1B69122  28.052   8.680   3.812 -0.0173 -0.2775  0.1055
    1OPC    D2B69123   0.274   8.804   4.054  0.1645 -0.3324 -0.1372
    1OPC    C3B69124   0.392   8.581   4.386  0.0232  0.0221 -0.1473
    1OPC    C4B69125   0.230   8.426   4.850 -0.1094  0.2333  0.2254
    1OPC    NC369126  13.393  11.380   3.421  0.1093 -0.3855  0.2436
    1OPC    PO469127  13.612  11.045   3.696 -0.0915  0.1411 -0.0568
    1OPC    GL169128  13.292  10.831   3.815  0.1923 -0.2958  0.3523
    1OPC    GL269129  13.163  10.575   3.916  0.1536 -0.0491 -0.0341
    1OPC    C1B69130  12.886  10.324   4.134  0.1418 -0.0812 -0.0673
    1OPC    D2B69131  12.622  10.095   4.389 -0.1034  0.2437 -0.2705
    1OPC    C3B69132  12.188  10.268   4.485 -0.2237 -0.1131 -0.0019
    1OPC    C4B69133  11.744  10.357   4.317 -0.1208  0.2362  0.3242
    1OPC    NC369134   6.939   1.258   2.294  0.3599  0.1391  0.0447
    1OPC    PO469135   6.822   1.497   2.592  0.1030  0.0797  0.0272
    1OPC    GL169136   6.574   1.894   2.680  0.0618 -0.0134  0.0051
    1OPC    GL269137   6.719   2.166   2.887  0.1928 -0.0660 -0.0017
    1OPC    C1B69138   6.565   2.418   3.289 -0.2854  0.1061  0.0949
    1OPC    D2B69139   6.397   2.510   3.781  0.2326 -0.1386  0.0447
    1OPC    C3B69140   6.117   2.838   4.104 -0.0303  0.3229 -0.2075
    1OPC    C4B69141   6.036   3.084   4.489 -0.1097 -0.1804  0.0778
    1OPC    NC369142  20.095  15.839   3.344  0.1667 -0.4166  0.0771
    1OPC    PO469143  20.269  15.449   3.253  0.0118 -0.2184 -0.0739
    1OPC    GL169144  20.374  15.636   3.652 -0.0261  0.0797  0.3379
    1OPC    GL269145  20.304  15.494   3.863  0.0031 -0.2487  0.0236
    1OPC    C1B69146  20.296  15.418   4.228  0.1587 -0.1939  0.0402
    1OPC    D2B69147  20.365  15.124   4.661  0.1399  0.2174 -0.1041
    1OPC    C3B69148  20.035  14.932   4.784 -0.3394 -0.1289  0.1842
    1OPC    C4B69149  20.008  14.745   5.115  0.0777  0.1660 -0.2279
    1OPC    NC369150  17.281  23.179   3.141 -0.1949  0.1002  0.3301
    1OPC    PO469151  16.852  23.346   3.111 -0.0421  0.0403  0.2895
    1OPC    GL169152  17.048  23.414   3.520  0.0938  0.3179 -0.2670
    1OPC    GL269153  16.994  23.261   3.711 -0.2542  0.0397 -0.2719
    1OPC    C1B69154  17.079  23.160   4.066  0.0402 -0.0969  0.1161
    1OPC    D2B69155  16.930  22.911   4.457 -0.0738  0.1953  0.0849
    1OPC    C3B69156  16.697  23.020   4.925  0.1446  0.0407 -0.1891
    1OPC    C4B69157  16.493  23.216   5.264 -0.1969 -0.0194  0.1294
    1OPC    NC369158  20.565   4.943   2.636  0.0835 -0.0963 -0.0804
    1OPC    PO469159  20.409   4.765   2.934 -0.0714 -0.1103 -0.3973
    1OPC    GL169160  20.480   5.006   3.270  0.3604  0.0158 -0.0537
    1OPC    GL269161  20.470   5.259   3.407 -0.1445  0.2076 -0.0091
    1OPC    C1B69162  20.751   5.471   3.754 -0.1784  0.0820  0.1208
    1OPC    D2B69163  20.830   5.609   4.141 -0.0784  0.0893  0.1432
    1OPC    C3B69164  20.755   5.261   4.433 -0.0859 -0.0318 -0.0372
    1OPC    C4B69165  20.725   4.785   4.615 -0.3181  0.1322 -0.2172
    1OPC    NC369166   9.648   6.824   3.127  0.3114 -0.0421 -0.1450
    1OPC    PO469167   9.243   6.681   2.837  0.2973 -0.1983  0.0333
    1OPC    GL169168   9.065   6.289   3.046 -0.0360 -0.2684 -0.2019
    1OPC    GL269169   8.891   6.243   3.350 -0.2124 -0.0476 -0.3353
    1OPC    C1B69170   8.810   6.077   3.747  0.1119  0.1301 -0.3400
    1OPC    D2B69171   8.811   6.249   4.133 -0.0628 -0.0901 -0.0119
    1OPC    C3B69172   8.591   6.280   4.466  0.0596 -0.1475 -0.2866
    1OPC    C4B69173   8.299   6.268   4.803 -0.0373  0.2581  0.3804
    1OPC    NC369174   5.462   6.562   2.300  0.1444  0.0565  0.0656
    1OPC    PO469175   5.050   6.424   2.268 -0.0788  0.2563 -0.1863
    1OPC    GL169176   5.219   6.164   2.573  0.1124  0.1899  0.0620
    1OPC    GL269177   5.206   6.162   2.851  0.0987  0.0558 -0.0321
    1OPC    C1B69178   5.308   5.932   3.160  0.1700 -0.0700 -0.2586
    1OPC    D2B69179   5.036   5.788   3.461  0.0216  0.0323  0.1378
    1OPC    C3B69180   4.990   5.928   3.870 -0.0266 -0.0145  0.1360
    1OPC    C4B69181   4.971   6.327   3.788  0.1919  0.2311 -0.0823
    1OPC    NC369182   2.661  20.434   2.287 -0.1355 -0.1709 -0.0348
    1OPC    PO469183   2.187  20.388   2.404 -0.4099  0.0137 -0.0483
    1OPC    GL169184   1.918  20.319   2.678  0.3564 -0.0126  0.2156
    1OPC    GL269185   1.942  20.352   2.970  0.0165  0.0964 -0.2992
    1OPC    C1B69186   1.815  20.438   3.434 -0.0192 -0.1512  0.1257
    1OPC    D2B69187   1.741  20.343   3.802  0.1808  0.0693 -0.0116
    1OPC    C3B69188   1.820  20.423   4.223  0.3140 -0.2180  0.1607
    1OPC    C4B69189   1.870  20.512   4.617 -0.1665  0.1578  0.0831
    1OPC    NC369190  13.371   4.830   3.390 -0.1660  0.0402 -0.0758
    1OPC    PO469191  13.831   4.732   3.309  0.1516  0.0980  0.0613
    1OPC    GL169192  13.761   4.876   3.767  0.0728  0.0854  0.0819
    1OPC    GL269193  13.855   4.762   4.036  0.2070 -0.1539 -0.0909
    1OPC    C1B69194  13.788   4.709   4.551 -0.1366  0.0318  0.0819
    1OPC    D2B69195  13.719   4.788   5.073  0.1661  0.1222  0.1877
    1OPC    C3B69196  13.902   4.654   5.407  0.2810  0.0167 -0.1863
    1OPC    C4B69197  14.063   4.799   5.737  0.0425 -0.3314  0.2570
    1OPC    NC369198   5.859  10.633   2.931 -0.0306 -0.1503 -0.3360
    1OPC    PO469199   5.938  10.952   3.281  0.2583 -0.0695  0.0379
    1OPC    GL169200   6.107  11.271   3.633  0.1570  0.1748 -0.0683
    1OPC    GL269201   6.105  11.515   3.887 -0.0847 -0.2854  0.3081
    1OPC    C1B69202   5.818  11.875   4.012 -0.2197 -0.1314  0.1643
    1OPC    D2B69203   5.664  12.049   4.402  0.0921  0.0769  0.0135
    1OPC    C3B69204   5.945  12.431   4.406  0.0407  0.0127  0.0716
    1OPC    C4B69205   6.142  12.547   4.743 -0.0627  0.0059  0.3219
    1OPC    NC369206  15.012   4.292   3.465 -0.1452  0.2424 -0.1524
    1OPC    PO469207  15.388   4.415   3.521 -0.1911 -0.1887 -0.1786
    1OPC    GL169208  15.231   4.422   3.963  0.0234 -0.0234 -0.1173
    1OPC    GL269209  15.395   4.411   4.224  0.0396  0.1799 -0.0194
    1OPC    C1B69210  15.416   4.058   4.617 -0.3477 -0.1111  0.0579
    1OPC    D2B69211  15.528   3.891   4.947 -0.3908 -0.0108 -0.0522
    1OPC    C3B69212  15.459   4.101   5.301  0.1784  0.1230  0.1489
    1OPC    C4B69213  15.351   4.116   5.701  0.0286  0.1852 -0.0231
    1OPC    NC369214  10.651  17.458   2.663  0.2803  0.4079 -0.0846
    1OPC    PO469215  10.727  17.397   3.025  0.1669 -0.5608  0.2214
    1OPC    GL169216  10.643  17.550   3.502 -0.0410 -0.1282  0.1650
    1OPC    GL269217  10.640  17.636   3.732 -0.1312 -0.0924  0.1516
    1OPC    C1B69218  10.267  17.724   4.008  0.1689  0.2252  0.0382
    1OPC    D2B69219  10.084  17.863   4.349  0.0338 -0.1227 -0.3078
    1OPC    C3B69220  10.131  17.800   4.812  0.2338 -0.0543 -0.0688
    1OPC    C4B69221   9.833  17.661   5.215  0.3325  0.1016  0.4041
    1OPC    NC369222   8.213   7.404   3.038  0.0577 -0.1745  0.3234
    1OPC    PO469223   8.669   7.202   3.189 -0.0901  0.1974 -0.1856
    1OPC    GL169224   8.880   7.257   3.593 -0.4188 -0.1501 -0.4997
    1OPC    GL269225   9.069   7.132   3.872  0.1665 -0.0674 -0.2670
    1OPC    C1B69226   9.016   7.129   4.288 -0.0963  0.0231 -0.0493
    1OPC    D2B69227   8.935   7.156   4.755  0.3806 -0.1996  0.2350
    1OPC    C3B69228   9.047   6.842   5.034  0.4632  0.1340 -0.1990
    1OPC    C4B69229   8.795   6.709   5.410  0.0892  0.1962 -0.1328
    1OPC    NC369230  20.822   2.775   3.168  0.1168 -0.1997 -0.1757
    1OPC    PO469231  20.628   3.152   3.300 -0.1798 -0.0046 -0.0101
    1OPC    GL169232  20.628   3.553   3.407 -0.2832 -0.3250  0.1558
    1OPC    GL269233  20.442   3.768   3.604 -0.1473  0.1774 -0.0927
    1OPC    C1B69234  20.457   3.870   4.060  0.0042 -0.0901  0.2806
    1OPC    D2B69235  20.495   3.944   4.550  0.0332  0.1080 -0.0367
    1OPC    C3B69236  20.716   4.327   4.828  0.2141 -0.1580 -0.3071
    1OPC    C4B69237  20.943   4.296   5.203  0.0294 -0.0698 -0.3273
    1OPC    NC369238   4.883  17.814   3.148 -0.2520 -0.2443  0.4126
    1OPC    PO469239   5.153  18.018   3.393 -0.2664  0.0541  0.3998
    1OPC    GL169240   5.084  18.163   3.771  0.0698 -0.1716  0.3144
    1OPC    GL269241   4.868  18.131   4.014  0.2148 -0.0100 -0.3537
    1OPC    C1B69242   4.823  17.919   4.398 -0.1928  0.1057 -0.4102
    1OPC    D2B69243   4.724  17.534   4.271  0.1153 -0.1910  0.1840
    1OPC    C3B69244   4.722  17.271   4.679  0.1201 -0.1403  0.2395
    1OPC    C4B69245   4.778  17.280   5.151  0.2287  0.0422 -0.0160
    1OPC    NC369246   0.837  12.011   2.919 -0.2791  0.2380  0.0877
    1OPC    PO469247   1.244  12.218   2.907  0.0593 -0.0824 -0.1868
    1OPC    GL169248   1.478  12.033   3.190 -0.1524 -0.2150  0.0844
    1OPC    GL269249   1.729  12.093   3.456  0.3401  0.1639  0.1628
    1OPC    C1B69250   1.646  12.063   3.796  0.1989 -0.1769 -0.2740
    1OPC    D2B69251   1.785  12.124   4.189 -0.1795  0.1993 -0.2932
    1OPC    C3B69252   1.648  11.793   4.546  0.4274  0.0110  0.0289
    1OPC    C4B69253   1.449  11.319   4.579 -0.0805  0.0752 -0.0524
    1OPC    NC369254   9.521  20.062   3.462  0.1153  0.3984  0.3020
    1OPC    PO469255   9.377  19.580   3.693 -0.1816  0.5439 -0.0732
    1OPC    GL169256   9.592  19.388   3.952  0.1398 -0.1045 -0.1738
    1OPC    GL269257   9.594  19.385   4.298 -0.0138  0.2224 -0.2773
    1OPC    C1B69258   9.763  19.606   4.632 -0.0733 -0.1060 -0.1015
    1OPC    D2B69259   9.912  19.728   5.037 -0.0065 -0.2267 -0.2706
    1OPC    C3B69260   9.808  19.564   5.484 -0.3043 -0.1839  0.0194
    1OPC    C4B69261   9.560  19.350   5.688  0.3395  0.1452  0.0584
    1OPC    NC369262  26.908  16.835   1.466  0.0619  0.0307 -0.0350
    1OPC    PO469263  27.185  16.882   1.867  0.0379 -0.2019 -0.0254
    1OPC    GL169264  26.979  16.862   2.265  0.2218  0.0227 -0.0388
    1OPC    GL269265  27.040  16.818   2.593 -0.2206 -0.2595 -0.1413
    1OPC    C1B69266  27.006  16.780   3.058 -0.1029  0.1510 -0.1538
    1OPC    D2B69267  26.854  16.475   3.268  0.4310 -0.0582  0.0084
    1OPC    C3B69268  27.005  16.443   3.687 -0.1301  0.3947 -0.2149
    1OPC    C4B69269  27.093  16.470   4.200  0.0273  0.1174 -0.0511
    1OPC    NC369270  19.838  14.309   2.690 -0.0598 -0.0710 -0.2668
    1OPC    PO469271  19.936  14.449   3.035  0.1093  0.0509  0.1184
    1OPC    GL169272  20.167  14.493   3.468  0.1691 -0.2017  0.1895
    1OPC    GL269273  20.329  14.476   3.750 -0.2825  0.1634 -0.0316
    1OPC    C1B69274  20.692  14.424   4.195  0.0848  0.2290  0.0527
    1OPC    D2B69275  20.753  14.274   4.611  0.2643  0.4628 -0.0564
    1OPC    C3B69276  20.648  14.367   4.989 -0.1342  0.1048 -0.3870
    1OPC    C4B69277  20.323  14.427   5.338  0.0624 -0.3411  0.1052
    1OPC    NC369278   1.239  24.637   2.111 -0.2704  0.1993 -0.0255
    1OPC    PO469279   1.504  24.799   2.436  0.1486 -0.1285 -0.1532
    1OPC    GL169280   1.265  24.764   2.887 -0.1536 -0.1407 -0.3830
    1OPC    GL269281   1.121  24.771   3.250  0.0566  0.0317  0.1844
    1OPC    C1B69282   1.071  24.775   3.748 -0.2817  0.0258 -0.0867
    1OPC    D2B69283   0.947  24.715   4.146  0.0805 -0.2251 -0.0263
    1OPC    C3B69284   1.108  25.070   4.315  0.0476 -0.0274 -0.1864
    1OPC    C4B69285   1.342  25.139   4.719  0.1057  0.2298 -0.2426
    1OPC    NC369286   9.209  11.790   2.767  0.1835  0.0762  0.0578
    1OPC    PO469287   9.308  11.790   3.272 -0.1622 -0.1490 -0.1223
    1OPC    GL169288   9.467  11.507   3.587 -0.1891  0.2243 -0.2505
    1OPC    GL269289   9.679  11.441   3.861  0.1576  0.0791  0.1978
    1OPC    C1B69290   9.649  11.233   4.189  0.0855  0.2780 -0.4020
    1OPC    D2B69291   9.835  10.948   4.482 -0.0561  0.0045  0.1535
    1OPC    C3B69292  10.193  11.121   4.608  0.3456  0.0677  0.1172
    1OPC    C4B69293  10.542  11.104   4.684  0.0553 -0.0366  0.2296
    1OPC    NC369294   4.059   6.395   1.851  0.2219 -0.1365 -0.2974
    1OPC    PO469295   3.606   6.578   1.808 -0.1723 -0.3012 -0.0117
    1OPC    GL169296   3.620   6.527   2.257  0.1649 -0.3397  0.0426
    1OPC    GL269297   3.633   6.755   2.574 -0.2679  0.0101  0.0793
    1OPC    C1B69298   3.404   6.667   3.027 -0.0256  0.0492 -0.2080
    1OPC    D2B69299   3.417   6.429   3.473 -0.2748  0.1578 -0.0371
    1OPC    C3B69300   3.473   6.125   3.789 -0.1195 -0.3048 -0.1489
    1OPC    C4B69301   3.656   6.072   4.107  0.2188 -0.0595  0.0255
    1OPC    NC369302  10.088  11.326   2.915 -0.0671  0.1804  0.0118
    1OPC    PO469303  10.202  10.960   3.204  0.0510 -0.2208  0.0586
    1OPC    GL169304  10.310  10.841   3.558 -0.0470 -0.0836 -0.3552
    1OPC    GL269305  10.482  10.896   3.855 -0.0161 -0.0498  0.1104
    1OPC    C1B69306  10.406  10.822   4.215 -0.4033 -0.1848 -0.1802
    1OPC    D2B69307  10.333  10.628   4.695  0.0324  0.5523  0.2008
    1OPC    C3B69308  10.136  10.865   5.040  0.0118 -0.1603  0.1769
    1OPC    C4B69309  10.205  10.839   5.570 -0.1963 -0.0112 -0.1961
    1OPC    NC369310  26.038   9.554   2.599 -0.0411 -0.2029 -0.0820
    1OPC    PO469311  25.763   9.759   2.947 -0.4868  0.0123 -0.0890
    1OPC    GL169312  25.920   9.889   3.307  0.1140 -0.0925 -0.1396
    1OPC    GL269313  26.017  10.220   3.433 -0.0267  0.0222  0.0494
    1OPC    C1B69314  26.063  10.358   3.779 -0.1015 -0.0879 -0.0945
    1OPC    D2B69315  26.206  10.531   4.206 -0.0136 -0.1002  0.1106
    1OPC    C3B69316  26.342  10.925   4.295  0.1391 -0.0535  0.1792
    1OPC    C4B69317  26.638  11.245   4.412  0.0816 -0.3796  0.0966
    1OPC    NC369318   2.533   7.483   2.155 -0.3377  0.0191 -0.1062
    1OPC    PO469319   2.707   7.870   2.265 -0.1191  0.1734  0.4701
    1OPC    GL169320   2.706   8.033   2.701  0.2467  0.1277  0.0389
    1OPC    GL269321   2.605   8.199   3.067  0.0817 -0.1925  0.0113
    1OPC    C1B69322   2.211   8.174   3.329  0.0182  0.0250 -0.1707
    1OPC    D2B69323   2.266   8.126   3.753  0.1049  0.1585  0.0372
    1OPC    C3B69324   2.017   8.025   4.062  0.0400  0.1259 -0.2683
    1OPC    C4B69325   1.749   7.607   4.165 -0.1479 -0.0018  0.1520
    1OPC    NC369326   4.942  11.774   2.976  0.5309 -0.0562 -0.0650
    1OPC    PO469327   5.043  12.235   2.874  0.2194  0.0547 -0.0537
    1OPC    GL169328   5.241  12.090   3.280 -0.0623  0.3416  0.0524
    1OPC    GL269329   5.107  12.217   3.548 -0.1662  0.1465  0.0973
    1OPC    C1B69330   4.874  12.217   3.878 -0.0537 -0.0201 -0.2409
    1OPC    D2B69331   4.615  12.272   4.212  0.0617  0.0021 -0.0728
    1OPC    C3B69332   4.760  12.277   4.677  0.1620 -0.0195 -0.1819
    1OPC    C4B69333   5.058  12.149   4.819 -0.2267  0.2713 -0.4243
    1OPC    NC369334  20.199  13.546   3.143 -0.0091 -0.1674  0.1380
    1OPC    PO469335  20.590  13.687   3.291  0.2914  0.1853 -0.1452
    1OPC    GL169336  20.312  13.727   3.615  0.1281 -0.0723 -0.1389
    1OPC    GL269337  20.268  13.998   3.957  0.2027  0.0083 -0.0184
    1OPC    C1B69338  20.168  14.333   4.319  0.0184  0.1018  0.1139
    1OPC    D2B69339  19.889  14.284   4.630 -0.2054  0.0681  0.1700
    1OPC    C3B69340  19.631  13.998   4.717 -0.1856 -0.1103  0.0065
    1OPC    C4B69341  19.374  13.837   4.438 -0.0004  0.2265 -0.0376
    1OPC    NC369342  17.884  25.696   2.727  0.0807 -0.3765  0.1694
    1OPC    PO469343  18.368  25.750   2.705 -0.1341  0.1705 -0.1874
    1OPC    GL169344  18.517  25.967   3.032  0.1539  0.1635  0.3071
    1OPC    GL269345  18.566  25.839   3.379  0.0487  0.0199  0.1468
    1OPC    C1B69346  18.566  25.725   3.789  0.0577  0.1410  0.1930
    1OPC    D2B69347  18.712  25.498   4.239 -0.0636 -0.1035 -0.2517
    1OPC    C3B69348  18.971  25.709   4.490 -0.1044 -0.1717  0.1678
    1OPC    C4B69349  18.741  25.787   4.868  0.0311  0.0935  0.1162
    1OPC    NC369350  16.655   8.601   3.325  0.2211  0.0089  0.1550
    1OPC    PO469351  16.405   8.653   3.757 -0.4152 -0.0035  0.0651
    1OPC    GL169352  16.515   8.632   4.273  0.0859 -0.2113  0.2221
    1OPC    GL269353  16.507   8.659   4.585 -0.1254  0.0724 -0.1124
    1OPC    C1B69354  16.385   8.497   5.014 -0.0119  0.3982  0.0366
    1OPC    D2B69355  16.287   8.702   5.252 -0.1603 -0.1184  0.0772
    1OPC    C3B69356  15.989   8.700   5.541  0.0406  0.0919 -0.0131
    1OPC    C4B69357  15.595   8.850   5.725  0.1000  0.1845 -0.0372
    1OPC    NC369358   6.001  26.770   2.540 -0.4229 -0.2052  0.0171
    1OPC    PO469359   6.491  26.888   2.749  0.3641  0.3466 -0.1022
    1OPC    GL169360   6.453  26.753   3.192 -0.2401 -0.0487 -0.0427
    1OPC    GL269361   6.596  26.540   3.423  0.2090  0.0620 -0.1880
    1OPC    C1B69362   6.718  26.584   3.841  0.0856  0.1254 -0.4402
    1OPC    D2B69363   7.073  26.654   4.000 -0.1154 -0.2122 -0.1035
    1OPC    C3B69364   6.927  26.778   4.380 -0.2519  0.3029  0.2159
    1OPC    C4B69365   6.714  26.680   4.838  0.2634  0.0152  0.0999
    1OPC    NC369366  22.798   9.855   2.745  0.1081  0.5084 -0.0568
    1OPC    PO469367  23.115  10.139   2.814 -0.0146  0.0924 -0.2697
    1OPC    GL169368  23.245  10.088   3.210  0.1334 -0.3231 -0.2557
    1OPC    GL269369  23.316   9.910   3.437 -0.4978 -0.1629  0.0285
    1OPC    C1B69370  23.648   9.757   3.631  0.5523  0.0613 -0.1242
    1OPC    D2B69371  23.796  10.179   3.766 -0.1255 -0.2706 -0.0324
    1OPC    C3B69372  24.221  10.469   3.703 -0.1311 -0.0966  0.1845
    1OPC    C4B69373  24.314  10.841   3.739  0.1783  0.0035 -0.1706
    1OPC    NC369374   2.863  14.180   2.213 -0.1945 -0.0178 -0.3850
    1OPC    PO469375   3.032  14.486   2.535 -0.2851 -0.1824 -0.2372
    1OPC    GL169376   2.855  14.339   2.885  0.1366  0.0126 -0.1844
    1OPC    GL269377   2.863  14.368   3.178  0.2000 -0.5920  0.0056
    1OPC    C1B69378   2.984  14.277   3.577  0.1602 -0.2463 -0.0171
    1OPC    D2B69379   3.359  14.370   3.790  0.1174 -0.2657 -0.0343
    1OPC    C3B69380   3.274  14.322   4.234 -0.1155 -0.2170  0.2802
    1OPC    C4B69381   3.399  14.085   4.523 -0.2465  0.0856 -0.0574
    1OPC    NC369382   3.754  24.905   3.175 -0.0273  0.3780 -0.4352
    1OPC    PO469383   3.982  24.550   3.293  0.1882 -0.1727 -0.0320
    1OPC    GL169384   4.113  24.350   3.655 -0.0307  0.1004  0.2313
    1OPC    GL269385   4.062  24.483   3.860 -0.1100  0.2789 -0.2798
    1OPC    C1B69386   3.842  24.508   4.289 -0.1367 -0.0639 -0.0292
    1OPC    D2B69387   3.722  24.689   4.649  0.0244 -0.3199 -0.0338
    1OPC    C3B69388   3.865  24.930   4.966 -0.2357  0.0373 -0.2441
    1OPC    C4B69389   4.219  25.003   5.193 -0.2511 -0.0203 -0.2969
    1OPC    NC369390   7.731  22.379   3.073 -0.2027  0.0317 -0.1496
    1OPC    PO469391   8.042  22.131   3.095 -0.2097  0.1229  0.0412
    1OPC    GL169392   8.059  22.317   3.421 -0.3445 -0.1141 -0.3772
    1OPC    GL269393   8.167  22.346   3.669  0.0804 -0.1127  0.0133
    1OPC    C1B69394   8.444  22.415   4.109  0.3765 -0.1825 -0.0342
    1OPC    D2B69395   8.624  22.650   4.444 -0.1253  0.2885  0.0572
    1OPC    C3B69396   8.721  22.304   4.801  0.0306 -0.1257  0.2685
    1OPC    C4B69397   8.939  22.273   5.154 -0.2083  0.2510 -0.0901
    1OPC    NC369398  22.594  18.904   3.432 -0.0943 -0.1607 -0.4315
    1OPC    PO469399  22.321  19.236   3.276 -0.1973 -0.0820 -0.4414
    1OPC    GL169400  22.129  19.503   3.618 -0.0452 -0.1284 -0.2291
    1OPC    GL269401  22.125  19.657   3.976 -0.1359 -0.0472  0.3047
    1OPC    C1B69402  22.298  19.672   4.448  0.0641 -0.0117 -0.1543
    1OPC    D2B69403  22.312  19.423   4.789 -0.1744  0.2366 -0.3274
    1OPC    C3B69404  22.567  19.648   4.918 -0.0139 -0.0303 -0.3620
    1OPC    C4B69405  22.618  19.951   5.285  0.0862 -0.1370  0.2351
    1OPC    NC369406  13.195  27.411   3.258  0.0182  0.0456 -0.0462
    1OPC    PO469407  13.057  26.879   3.228  0.0317 -0.0588 -0.0499
    1OPC    GL169408  13.004  27.056   3.652 -0.2974 -0.1207 -0.4362
    1OPC    GL269409  12.953  26.973   3.991 -0.0033 -0.0912 -0.0048
    1OPC    C1B69410  12.933  26.730   4.361 -0.1961  0.2192  0.1426
    1OPC    D2B69411  12.794  26.509   4.683 -0.2585  0.1095 -0.2337
    1OPC    C3B69412  12.585  26.442   5.171 -0.2783  0.0235  0.1494
    1OPC    C4B69413  12.378  26.065   5.461 -0.1004 -0.0667  0.1077
    1OPC    NC369414   3.678   6.162   1.494 -0.2348 -0.1432  0.1179
    1OPC    PO469415   4.053   6.012   1.518 -0.2330 -0.1441 -0.1936
    1OPC    GL169416   3.902   5.860   1.853  0.1507  0.1740  0.2467
    1OPC    GL269417   4.043   5.626   2.047  0.2307 -0.0019 -0.2052
    1OPC    C1B69418   3.830   5.348   2.282  0.0166  0.0778 -0.1753
    1OPC    D2B69419   3.432   5.182   2.239  0.1634  0.0668 -0.1403
    1OPC    C3B69420   3.501   4.808   2.597 -0.1224  0.0914  0.2145
    1OPC    C4B69421   3.572   4.298   2.544 -0.1066  0.1275 -0.0052
    1OPC    NC369422   6.216  12.174   3.137  0.1063 -0.4118 -0.0467
    1OPC    PO469423   6.012  11.760   2.886  0.2720  0.2373 -0.0948
    1OPC    GL169424   5.756  12.013   3.301  0.0433  0.1654 -0.2387
    1OPC    GL269425   5.608  11.989   3.609 -0.1985 -0.1343  0.2424
    1OPC    C1B69426   5.471  12.217   3.907  0.1587 -0.1293  0.0715
    1OPC    D2B69427   5.480  12.640   4.199 -0.1177 -0.1794 -0.0068
    1OPC    C3B69428   5.414  12.492   4.651  0.0403  0.0860  0.1170
    1OPC    C4B69429   5.145  12.585   4.962 -0.1513 -0.0060  0.0991
    1OPC    NC369430  23.253   5.281   2.733 -0.3401  0.0080 -0.1115
    1OPC    PO469431  23.513   5.669   2.942 -0.0206 -0.1953 -0.0984
    1OPC    GL169432  23.397   5.473   3.193  0.0689  0.5551  0.0335
    1OPC    GL269433  23.176   5.480   3.444 -0.0136 -0.0474 -0.0164
    1OPC    C1B69434  22.993   5.684   3.861  0.4508  0.2044  0.1232
    1OPC    D2B69435  23.032   5.579   4.360  0.4096 -0.0355  0.2611
    1OPC    C3B69436  23.268   5.892   4.582 -0.3965  0.1232  0.2320
    1OPC    C4B69437  23.345   6.247   4.612 -0.0292  0.0920 -0.2930
    1OPC    NC369438  20.030  24.040   3.102  0.3295 -0.0307  0.3818
    1OPC    PO469439  19.775  23.623   3.191 -0.0939  0.3750 -0.1333
    1OPC    GL169440  19.970  23.366   3.486 -0.1694  0.0008 -0.1192
    1OPC    GL269441  19.879  23.241   3.743  0.1219  0.2123  0.2621
    1OPC    C1B69442  19.903  23.190   4.188 -0.0881  0.2554 -0.0430
    1OPC    D2B69443  19.807  23.245   4.570 -0.0481 -0.0236  0.0868
    1OPC    C3B69444  20.039  23.495   4.932 -0.0824 -0.0576 -0.0791
    1OPC    C4B69445  20.351  23.515   5.374 -0.1599  0.2713  0.4264
    1OPC    NC369446   2.411   3.971   1.687 -0.2830 -0.3122 -0.4124
    1OPC    PO469447   2.168   3.837   1.934  0.2342 -0.0646  0.2383
    1OPC    GL169448   1.682   3.888   1.991 -0.0522 -0.0534 -0.1010
    1OPC    GL269449   1.436   3.866   2.214  0.1726 -0.1526 -0.1204
    1OPC    C1B69450   1.253   3.926   2.651  0.0113  0.1049 -0.0055
    1OPC    D2B69451   1.155   3.947   3.020  0.0730 -0.1244 -0.1843
    1OPC    C3B69452   0.714   3.960   3.186 -0.0044  0.2355  0.3863
    1OPC    C4B69453   0.368   4.198   3.391  0.1267 -0.0868  0.0288
    1OPC    NC369454   1.978  21.555   2.353 -0.2477  0.1129  0.1634
    1OPC    PO469455   2.141  21.253   2.581 -0.3431  0.0181  0.2435
    1OPC    GL169456   2.079  21.210   3.043 -0.0130  0.3123 -0.2014
    1OPC    GL269457   2.094  21.269   3.360  0.1398  0.3224  0.1507
    1OPC    C1B69458   1.814  21.297   3.717 -0.2479 -0.3064  0.0459
    1OPC    D2B69459   1.667  21.397   4.119 -0.0320 -0.0571  0.0782
    1OPC    C3B69460   1.369  21.259   4.288  0.2066  0.0778 -0.1553
    1OPC    C4B69461   1.033  21.033   4.533  0.0614  0.0921  0.2431
    1OPC    NC369462   7.235  20.065   3.274 -0.1068 -0.0971 -0.1908
    1OPC    PO469463   7.588  19.902   3.359  0.1948  0.1987  0.2725
    1OPC    GL169464   7.703  20.000   3.744 -0.0267 -0.0590  0.1579
    1OPC    GL269465   7.780  20.079   4.081 -0.1400  0.2941  0.0867
    1OPC    C1B69466   7.828  20.155   4.513  0.0591 -0.1625  0.0318
    1OPC    D2B69467   7.769  20.166   5.011  0.0253 -0.0936 -0.1195
    1OPC    C3B69468   7.346  20.112   5.066 -0.3805  0.1212 -0.0659
    1OPC    C4B69469   7.025  20.147   5.378 -0.0526 -0.0317  0.0694
    1OPC    NC369470  26.054  23.057   2.548 -0.0363  0.0660 -0.0489
    1OPC    PO469471  26.545  23.234   2.537 -0.0843  0.1690 -0.1689
    1OPC    GL169472  26.477  23.167   2.909 -0.2262  0.1262 -0.1855
    1OPC    GL269473  26.382  23.077   3.257 -0.1880 -0.2758 -0.3063
    1OPC    C1B69474  26.269  22.934   3.719 -0.0319  0.1146 -0.0183
    1OPC    D2B69475  26.049  22.743   4.026  0.0946  0.0471  0.2202
    1OPC    C3B69476  25.934  23.065   4.287  0.1474 -0.1065  0.1099
    1OPC    C4B69477  26.142  23.215   4.696  0.2263 -0.0864 -0.3531
    1OPC    NC369478  16.435  13.885   3.301  0.0138  0.0517  0.1738
    1OPC    PO469479  16.231  13.835   3.669 -0.3233  0.0450  0.0568
    1OPC    GL169480  16.519  13.701   4.093 -0.0413 -0.0072  0.3314
    1OPC    GL269481  16.709  13.785   4.324  0.1671  0.0418 -0.0768
    1OPC    C1B69482  16.696  13.705   4.867  0.0032  0.1563 -0.0542
    1OPC    D2B69483  16.445  13.454   5.224  0.1070 -0.0601 -0.3377
    1OPC    C3B69484  16.138  13.225   5.269 -0.2837  0.1473  0.0642
    1OPC    C4B69485  15.886  13.067   5.546 -0.0255  0.1693  0.1023
    1OPC    NC369486  23.771  11.693   2.523 -0.0734  0.1817  0.1110
    1OPC    PO469487  24.205  11.517   2.783  0.4592 -0.2807 -0.1938
    1OPC    GL169488  23.888  11.321   3.122 -0.0842  0.1036 -0.3715
    1OPC    GL269489  23.928  11.280   3.546  0.0937 -0.1512  0.1425
    1OPC    C1B69490  23.839  11.324   3.971  0.0625  0.0683 -0.0539
    1OPC    D2B69491  23.787  11.451   4.456 -0.0282 -0.1544 -0.1523
    1OPC    C3B69492  23.985  11.151   4.847  0.0293  0.0800  0.1626
    1OPC    C4B69493  23.907  11.322   5.250 -0.1414  0.0661  0.0118
    1OPC    NC369494  20.257  17.047   3.717  0.1384 -0.0404 -0.1701
    1OPC    PO469495  20.175  17.425   3.847 -0.2352 -0.0639 -0.0638
    1OPC    GL169496  19.770  17.382   3.933 -0.2788 -0.0462 -0.0815
    1OPC    GL269497  19.775  17.517   4.189 -0.0269 -0.0983 -0.0821
    1OPC    C1B69498  19.858  17.512   4.617  0.1088  0.0594  0.0619
    1OPC    D2B69499  20.025  17.855   4.766  0.1256 -0.0898 -0.2630
    1OPC    C3B69500  20.062  18.007   5.286 -0.2686 -0.1693 -0.2077
    1OPC    C4B69501  19.940  17.806   5.731  0.1951  0.0243  0.0252
    1OPC    NC369502   0.980  23.137   2.729  0.1530  0.1794 -0.0097
    1OPC    PO469503   1.097  22.694   2.671 -0.0557 -0.0194  0.0615
    1OPC    GL169504   1.407  22.716   2.965  0.0175 -0.2132 -0.5692
    1OPC    GL269505   1.567  22.705   3.327 -0.0568  0.1398  0.0486
    1OPC    C1B69506   1.549  22.751   3.709 -0.0693 -0.1398 -0.1125
    1OPC    D2B69507   1.413  23.080   4.017 -0.1144 -0.4941  0.2178
    1OPC    C3B69508   0.937  23.041   4.263  0.2288 -0.0941 -0.3095
    1OPC    C4B69509   0.710  22.983   4.648 -0.1981 -0.0925 -0.4661
    1OPC    NC369510  22.133   4.019   2.960 -0.2675 -0.2106  0.0176
    1OPC    PO469511  21.738   4.307   3.009  0.0441  0.0710 -0.0350
    1OPC    GL169512  21.691   4.612   3.315 -0.2258  0.0817  0.1810
    1OPC    GL269513  21.881   4.631   3.660  0.0485 -0.0061  0.1519
    1OPC    C1B69514  22.134   4.676   3.994  0.1306 -0.0204 -0.1402
    1OPC    D2B69515  21.970   4.673   4.517 -0.2331 -0.1120  0.1417
    1OPC    C3B69516  21.605   4.412   4.652  0.1047 -0.0075 -0.1454
    1OPC    C4B69517  21.287   4.118   4.806 -0.1822  0.1166  0.2140
    1OPC    NC369518  24.070  18.816   3.395 -0.0274 -0.1576 -0.0429
    1OPC    PO469519  23.832  18.487   3.268 -0.0863 -0.0724  0.2336
    1OPC    GL169520  24.040  18.279   3.607  0.2546  0.2772  0.0930
    1OPC    GL269521  24.238  18.315   3.851  0.0827 -0.1965 -0.3351
    1OPC    C1B69522  24.436  18.323   4.272 -0.0624 -0.1404 -0.1322
    1OPC    D2B69523  24.543  18.313   4.724 -0.1261 -0.0332 -0.1231
    1OPC    C3B69524  24.469  18.558   5.059  0.3253  0.2921 -0.1134
    1OPC    C4B69525  24.806  18.682   5.284  0.0645 -0.4642  0.0476
    1OPC    NC369526   0.588  24.850   2.308 -0.4197  0.2071  0.0081
    1OPC    PO469527   0.983  24.860   2.522  0.1084 -0.1169 -0.2008
    1OPC    GL169528   0.801  25.010   2.864 -0.1393  0.1704 -0.2664
    1OPC    GL269529   0.660  24.968   3.142 -0.1501 -0.0121 -0.0796
    1OPC    C1B69530   0.736  25.185   3.595 -0.0325  0.0183  0.0207
    1OPC    D2B69531   0.724  25.225   4.026  0.1657  0.0750 -0.0682
    1OPC    C3B69532   0.549  25.229   4.311  0.2021  0.0371  0.1716
    1OPC    C4B69533   0.138  25.038   4.456  0.3321 -0.1591  0.1968
    1OPC    NC369534   2.255  25.312   2.306 -0.1608  0.0397 -0.0365
    1OPC    PO469535   2.502  24.944   2.455 -0.2762  0.1259  0.0747
    1OPC    GL169536   2.546  24.693   2.918 -0.2336  0.0585  0.1195
    1OPC    GL269537   2.573  24.691   3.180 -0.0599  0.1785 -0.2016
    1OPC    C1B69538   2.621  24.891   3.612 -0.0133 -0.0639  0.1000
    1OPC    D2B69539   2.493  25.014   4.031 -0.1631 -0.2886 -0.0358
    1OPC    C3B69540   2.621  25.344   4.355 -0.1665  0.2350 -0.0751
    1OPC    C4B69541   2.645  25.613   4.729  0.1693 -0.1736 -0.1646
    1OPC    NC369542  23.747   9.624   2.516 -0.1076  0.1646  0.1549
    1OPC    PO469543  23.554   9.783   2.856 -0.3355 -0.1078  0.0422
    1OPC    GL169544  23.763   9.838   3.154  0.1119 -0.0291 -0.0744
    1OPC    GL269545  24.065   9.820   3.332  0.2511 -0.1461  0.2758
    1OPC    C1B69546  24.167   9.800   3.757  0.3124 -0.1247  0.0197
    1OPC    D2B69547  24.173  10.058   4.176  0.2133 -0.3895  0.1686
    1OPC    C3B69548  24.351  10.494   4.172 -0.2053 -0.1638  0.2891
    1OPC    C4B69549  24.401  10.742   4.551  0.1098 -0.3707  0.1801
    1OPC    NC369550  24.649  18.983   2.508 -0.0023  0.1942  0.0803
    1OPC    PO469551  24.855  18.779   2.853 -0.3757  0.0092 -0.0367
    1OPC    GL169552  24.988  19.155   2.981 -0.0091  0.1133  0.1397
    1OPC    GL269553  25.081  19.192   3.229  0.1230 -0.0165 -0.0682
    1OPC    C1B69554  25.031  19.475   3.644  0.2027 -0.0736  0.0706
    1OPC    D2B69555  24.676  19.549   3.929 -0.0116 -0.4338  0.1115
    1OPC    C3B69556  24.689  19.649   4.340  0.1275  0.1659  0.1969
    1OPC    C4B69557  24.487  19.679   4.668  0.0528  0.1401 -0.0957
    1OPC    NC369558  13.692   5.470   2.785 -0.1748 -0.0081 -0.0507
    1OPC    PO469559  13.578   5.254   3.168  0.0770 -0.2636  0.2019
    1OPC    GL169560  13.381   5.302   3.627  0.0643 -0.0349 -0.0492
    1OPC    GL269561  13.387   5.156   3.931  0.1259 -0.1467  0.2352
    1OPC    C1B69562  13.569   5.136   4.328  0.1308 -0.0817 -0.2474
    1OPC    D2B69563  13.745   5.219   4.797  0.1031  0.3879  0.0377
    1OPC    C3B69564  13.564   5.199   5.216  0.2507 -0.2735 -0.0502
    1OPC    C4B69565  13.414   5.226   5.475 -0.1369  0.0434  0.0765
    1OPC    NC369566  25.761  20.231   2.292 -0.1220 -0.2224 -0.2798
    1OPC    PO469567  25.540  19.920   2.597  0.1266 -0.0631  0.1445
    1OPC    GL169568  25.214  19.865   2.853 -0.0108 -0.3011 -0.2380
    1OPC    GL269569  25.006  19.712   3.188 -0.0027  0.1574 -0.2609
    1OPC    C1B69570  24.863  19.950   3.656  0.0321  0.0488 -0.2411
    1OPC    D2B69571  24.863  20.131   4.089  0.2878  0.2595  0.1207
    1OPC    C3B69572  24.654  20.144   4.501 -0.0498  0.0758 -0.1502
    1OPC    C4B69573  24.964  19.899   4.661 -0.1091  0.1932  0.1937
    1OPC    NC369574  15.472   6.514   3.427 -0.0626  0.3397 -0.1136
    1OPC    PO469575  15.654   6.122   3.546 -0.1176 -0.1742 -0.0396
    1OPC    GL169576  15.516   5.947   3.835 -0.1813 -0.0913 -0.0681
    1OPC    GL269577  15.496   5.995   4.214 -0.0534  0.2207 -0.0649
    1OPC    C1B69578  15.319   6.250   4.461  0.4421 -0.2571 -0.0593
    1OPC    D2B69579  15.320   6.758   4.466  0.0718  0.1133  0.0062
    1OPC    C3B69580  15.133   6.839   4.909  0.4006 -0.2539  0.0275
    1OPC    C4B69581  14.792   6.773   5.281  0.1162 -0.2511  0.4287
    1OPC    NC369582  17.846   0.331   3.457  0.1699 -0.1228 -0.1789
    1OPC    PO469583  17.601  28.112   3.490  0.2305  0.4294 -0.0497
    1OPC    GL169584  17.640   0.262   3.975  0.0229  0.0354 -0.0294
    1OPC    GL269585  17.642   0.282   4.273 -0.0595  0.2423  0.2080
    1OPC    C1B69586  17.423   0.338   4.615  0.0336 -0.1216  0.1817
    1OPC    D2B69587  17.629   0.510   4.948 -0.2177 -0.0422  0.0314
    1OPC    C3B69588  17.279   0.724   5.332  0.1216  0.0366 -0.1792
    1OPC    C4B69589  16.928   0.760   5.519 -0.0611  0.0119  0.3198
    1OPC    NC369590  14.476  27.308   3.106 -0.0334  0.0839 -0.0903
    1OPC    PO469591  14.668  26.965   2.999 -0.0358 -0.2419  0.0924
    1OPC    GL169592  14.903  26.843   3.439 -0.2657  0.4190  0.0370
    1OPC    GL269593  14.946  26.728   3.665  0.0864 -0.1303 -0.0176
    1OPC    C1B69594  14.721  26.529   4.037 -0.2645 -0.1515  0.2597
    1OPC    D2B69595  14.681  26.497   4.507  0.1139 -0.0673  0.0842
    1OPC    C3B69596  14.512  26.785   4.798 -0.3425  0.1414 -0.0710
    1OPC    C4B69597  14.195  27.014   5.046 -0.0164  0.4063 -0.1311
    1OPC    NC369598   1.331   8.510   2.249  0.0327 -0.3167 -0.2043
    1OPC    PO469599   1.113   8.046   2.363 -0.0293  0.0684 -0.0423
    1OPC    GL169600   1.087   8.254   2.783 -0.0613 -0.0442  0.5584
    1OPC    GL269601   0.922   8.279   3.084 -0.1175 -0.0960  0.3914
    1OPC    C1B69602   0.689   8.177   3.406  0.0101 -0.0964  0.0321
    1OPC    D2B69603   0.490   7.984   3.730 -0.0450 -0.1545 -0.3355
    1OPC    C3B69604   0.663   7.723   3.982 -0.2131 -0.0863 -0.0269
    1OPC    C4B69605   0.729   7.761   4.430 -0.0536 -0.1401  0.1179
    1OPC    NC369606   6.226   4.543   1.832  0.2803  0.1354  0.0576
    1OPC    PO469607   5.856   4.765   2.073  0.0769 -0.0803 -0.2220
    1OPC    GL169608   5.540   4.829   2.439  0.1628  0.0161 -0.0256
    1OPC    GL269609   5.380   5.094   2.585  0.2040  0.1055  0.0843
    1OPC    C1B69610   5.416   5.171   3.063 -0.0496  0.1185  0.0854
    1OPC    D2B69611   5.478   5.393   3.452 -0.3183  0.0779 -0.1787
    1OPC    C3B69612   5.530   5.755   3.606 -0.0477  0.2341 -0.1514
    1OPC    C4B69613   5.866   5.823   3.349  0.1231 -0.1642  0.1362
    1OPC    NC369614  11.535  24.088   2.470 -0.0832  0.3775  0.1675
    1OPC    PO469615  11.575  23.560   2.659 -0.1829  0.0322  0.1138
    1OPC    GL169616  11.606  23.722   3.093  0.1654 -0.0653  0.1590
    1OPC    GL269617  11.554  23.720   3.307 -0.0170 -0.0783  0.1376
    1OPC    C1B69618  11.387  23.662   3.743 -0.0089 -0.0232  0.3588
    1OPC    D2B69619  11.408  23.620   4.218  0.0150  0.1431  0.2140
    1OPC    C3B69620  11.179  23.497   4.533 -0.4068 -0.0687 -0.1582
    1OPC    C4B69621  10.811  23.320   4.666  0.1451 -0.0447  0.0683
    1OPC    NC369622  22.675  15.272   2.740  0.1644  0.1734 -0.0636
    1OPC    PO469623  22.576  14.856   2.932 -0.1116 -0.0358 -0.0991
    1OPC    GL169624  22.783  14.549   3.343  0.1308  0.0853 -0.1620
    1OPC    GL269625  22.613  14.312   3.570 -0.0010 -0.1551 -0.3375
    1OPC    C1B69626  22.598  13.865   3.869 -0.2227  0.1185 -0.0485
    1OPC    D2B69627  22.605  13.655   4.258 -0.1395 -0.3405 -0.3539
    1OPC    C3B69628  22.887  13.585   4.598  0.0515 -0.2081  0.0576
    1OPC    C4B69629  23.175  13.335   4.750 -0.1590  0.0176  0.0181
    1OPC    NC369630  19.255  13.604   3.071  0.0918 -0.1313 -0.1058
    1OPC    PO469631  19.463  13.337   3.329  0.1431 -0.1403  0.0373
    1OPC    GL169632  19.558  13.172   3.708 -0.0259 -0.1291 -0.5485
    1OPC    GL269633  19.740  13.068   3.948 -0.1189 -0.5204 -0.1058
    1OPC    C1B69634  19.706  12.908   4.401  0.0789 -0.0290 -0.0525
    1OPC    D2B69635  19.700  12.737   4.812 -0.0185  0.0532 -0.4068
    1OPC    C3B69636  19.956  13.044   5.114 -0.2685  0.0400 -0.0138
    1OPC    C4B69637  20.009  13.119   5.599 -0.2360  0.1153  0.1786
    1OPC    NC369638  11.793  23.036   2.440  0.2575 -0.0285 -0.0155
    1OPC    PO469639  11.570  23.009   2.800  0.2334  0.3060 -0.2070
    1OPC    GL169640  11.786  23.264   3.103 -0.0758  0.0480  0.0926
    1OPC    GL269641  11.870  23.368   3.386  0.3589  0.4588 -0.4641
    1OPC    C1B69642  12.191  23.215   3.660 -0.1421 -0.4344 -0.0271
    1OPC    D2B69643  12.489  23.011   3.992 -0.1711  0.0747 -0.0387
    1OPC    C3B69644  12.748  23.290   4.250 -0.4184  0.4881 -0.2836
    1OPC    C4B69645  12.967  23.360   4.585  0.2213 -0.1452  0.2937
    1OPC    NC369646  20.697  27.619   3.160  0.0350 -0.0447 -0.0492
    1OPC    PO469647  20.809  27.169   3.194  0.0161 -0.0358  0.1327
    1OPC    GL169648  21.011  27.161   3.614  0.3265  0.0954  0.0034
    1OPC    GL269649  20.946  27.153   4.003  0.1805  0.1704 -0.1801
    1OPC    C1B69650  20.830  27.423   4.350 -0.0104 -0.2467  0.0575
    1OPC    D2B69651  21.075  27.743   4.651  0.1347  0.0877  0.1191
    1OPC    C3B69652  20.818  27.991   4.855  0.1083  0.0015 -0.1345
    1OPC    C4B69653  20.787   0.084   5.253 -0.2766  0.3556  0.3272
    1OPC    NC369654  19.266  25.073   2.959  0.0267 -0.2631 -0.1308
    1OPC    PO469655  19.713  25.323   2.812 -0.0095 -0.1416 -0.0627
    1OPC    GL169656  19.535  25.451   3.280 -0.3894 -0.0831 -0.1894
    1OPC    GL269657  19.571  25.628   3.392 -0.0478  0.0830 -0.0957
    1OPC    C1B69658  19.625  25.804   3.714 -0.0541 -0.0787  0.1315
    1OPC    D2B69659  19.762  25.901   4.179 -0.0530 -0.1195 -0.2050
    1OPC    C3B69660  19.863  25.570   4.357 -0.1350  0.0297 -0.0888
    1OPC    C4B69661  20.272  25.398   4.594  0.1423  0.0485 -0.1046
    1OPC    NC369662  16.546  20.707   3.056 -0.0876  0.1803  0.1229
    1OPC    PO469663  16.090  20.559   3.158  0.0116 -0.0290 -0.1852
    1OPC    GL169664  16.340  20.663   3.534 -0.2556  0.0699  0.0801
    1OPC    GL269665  16.414  20.598   3.845  0.1491 -0.2320 -0.2593
    1OPC    C1B69666  16.190  20.559   4.169 -0.2727 -0.2124 -0.1622
    1OPC    D2B69667  15.958  20.301   4.433 -0.1850  0.3999  0.0992
    1OPC    C3B69668  15.815  20.046   4.565  0.1081 -0.3603  0.2920
    1OPC    C4B69669  15.793  19.811   4.989  0.2191 -0.3608 -0.0718
    1OPC    NC369670  25.960  12.106   3.201 -0.1017 -0.0691  0.2096
    1OPC    PO469671  25.503  12.175   3.130 -0.0832 -0.0955  0.1707
    1OPC    GL169672  25.544  12.458   3.427  0.3125 -0.1139  0.1179
    1OPC    GL269673  25.755  12.364   3.690  0.1990  0.1456 -0.1372
    1OPC    C1B69674  25.816  12.358   4.089  0.0220 -0.0147 -0.0058
    1OPC    D2B69675  25.664  12.538   4.569 -0.2030  0.0778 -0.2334
    1OPC    C3B69676  25.998  12.764   4.774 -0.0238 -0.0545 -0.3540
    1OPC    C4B69677  26.036  13.144   4.994 -0.0974  0.0950 -0.0532
    1OPC    NC369678   3.717  24.788   2.592 -0.0657 -0.0929  0.2877
    1OPC    PO469679   3.776  25.243   2.775  0.3263 -0.0873 -0.3386
    1OPC    GL169680   3.922  25.474   3.058 -0.1395 -0.4880 -0.1478
    1OPC    GL269681   4.024  25.609   3.294 -0.0185  0.1887 -0.2026
    1OPC    C1B69682   4.144  25.607   3.792 -0.4365 -0.0251  0.1771
    1OPC    D2B69683   4.462  25.771   4.065  0.1020  0.0672  0.0080
    1OPC    C3B69684   4.439  25.612   4.373 -0.0880  0.2011 -0.0294
    1OPC    C4B69685   4.409  25.771   4.758  0.0553  0.0825  0.1342
    1OPC    NC369686  27.390   1.581   2.307 -0.0992  0.3855  0.2157
    1OPC    PO469687  27.731   1.198   2.302  0.0510 -0.1078  0.3202
    1OPC    GL169688  27.866   1.695   2.502 -0.2348  0.1109  0.3036
    1OPC    GL269689  27.946   1.768   2.841  0.0600 -0.0309 -0.0148
    1OPC    C1B69690  27.699   1.686   3.189 -0.1243  0.0005  0.2001
    1OPC    D2B69691  27.420   1.486   3.294 -0.1817  0.1777  0.0927
    1OPC    C3B69692  27.470   1.357   3.710  0.2776  0.0516 -0.1727
    1OPC    C4B69693  27.844   1.252   4.044 -0.2906 -0.2069 -0.1974
    1OPC    NC369694  26.642  24.223   2.893 -0.3646 -0.1064 -0.1573
    1OPC    PO469695  27.150  24.309   2.857  0.0091  0.2062 -0.1053
    1OPC    GL169696  26.948  24.407   3.328  0.3234 -0.0005  0.2224
    1OPC    GL269697  27.044  24.285   3.612  0.2474 -0.4928  0.2392
    1OPC    C1B69698  27.102  24.349   4.017 -0.1097  0.2781  0.1547
    1OPC    D2B69699  27.119  24.491   4.455  0.1891 -0.0165  0.2283
    1OPC    C3B69700  27.209  24.926   4.593  0.2388 -0.0649 -0.2611
    1OPC    C4B69701  27.193  25.193   4.950 -0.1636  0.1121 -0.3992
    1OPC    NC369702   2.489  23.926   2.518 -0.2129  0.0700  0.3063
    1OPC    PO469703   2.684  24.180   2.828  0.2367  0.0548 -0.3850
    1OPC    GL169704   2.641  24.208   3.334 -0.2745  0.1484  0.1780
    1OPC    GL269705   2.364  24.300   3.546 -0.1415 -0.0084  0.1973
    1OPC    C1B69706   2.461  24.505   3.969 -0.2259  0.0268 -0.0462
    1OPC    D2B69707   2.898  24.590   4.178  0.2660 -0.1167 -0.1250
    1OPC    C3B69708   2.955  24.287   4.475  0.0880 -0.0514 -0.0372
    1OPC    C4B69709   3.306  23.888   4.557  0.1678 -0.0350 -0.3003
    1OPC    NC369710   2.049  14.241   2.394 -0.3256  0.3602  0.3586
    1OPC    PO469711   1.881  14.015   2.724  0.2736 -0.2565  0.0765
    1OPC    GL169712   1.925  14.186   3.164  0.1579  0.0972  0.1470
    1OPC    GL269713   1.952  14.141   3.443  0.0256  0.0195  0.1423
    1OPC    C1B69714   2.122  13.960   3.785  0.1528 -0.2075 -0.1840
    1OPC    D2B69715   2.038  13.958   4.164 -0.1127 -0.0008  0.0131
    1OPC    C3B69716   1.737  13.705   4.254  0.2485  0.5279 -0.0804
    1OPC    C4B69717   1.355  13.502   4.386  0.2067 -0.1962 -0.0459
    1OPC    NC369718   2.154   1.570   2.689 -0.2268 -0.1616 -0.0504
    1OPC    PO469719   2.291   1.504   2.295 -0.6293 -0.0348  0.1131
    1OPC    GL169720   2.590   1.798   2.586  0.5159 -0.1191  0.0485
    1OPC    GL269721   2.513   1.982   2.798 -0.4830  0.3077 -0.1758
    1OPC    C1B69722   2.392   2.190   3.150 -0.0096  0.1738  0.1109
    1OPC    D2B69723   2.309   2.364   3.558  0.1943 -0.0190 -0.2499
    1OPC    C3B69724   2.317   2.864   3.697 -0.1140 -0.0797 -0.0133
    1OPC    C4B69725   2.326   3.228   3.769  0.2601  0.0777  0.0640
    1OPC    NC369726  26.912   7.744   2.513  0.2158  0.2401  0.0828
    1OPC    PO469727  26.423   7.798   2.564  0.2071 -0.1868 -0.1823
    1OPC    GL169728  26.129   7.773   2.904 -0.1151  0.2246  0.1867
    1OPC    GL269729  26.251   7.600   3.138  0.0482 -0.1233 -0.2579
    1OPC    C1B69730  26.355   7.723   3.597 -0.1541  0.1489  0.0937
    1OPC    D2B69731  26.481   7.820   4.023  0.4439 -0.0047  0.0054
    1OPC    C3B69732  26.377   8.089   4.386  0.0625  0.1762  0.0677
    1OPC    C4B69733  26.377   8.240   4.792  0.2392  0.0816  0.0262
    1OPC    NC369734  15.022  13.276   3.016  0.0636  0.0084  0.2222
    1OPC    PO469735  15.280  13.372   3.376 -0.1443 -0.1850  0.2022
    1OPC    GL169736  15.253  13.283   3.787  0.0690  0.3280 -0.0034
    1OPC    GL269737  15.205  13.462   4.112  0.1860 -0.2220  0.2107
    1OPC    C1B69738  14.956  13.581   4.449  0.3112 -0.2173 -0.1005
    1OPC    D2B69739  14.876  13.920   4.909  0.1826 -0.1812 -0.1183
    1OPC    C3B69740  14.785  13.976   5.399 -0.1665 -0.0349 -0.0977
    1OPC    C4B69741  15.134  13.939   5.563  0.0484  0.0490  0.0878
    1OPC    NC369742  24.116   0.587   2.918  0.2745  0.0537  0.4344
    1OPC    PO469743  24.109   0.174   3.098  0.0864 -0.3211 -0.0067
    1OPC    GL169744  24.189  28.036   3.478  0.0536 -0.3273  0.2987
    1OPC    GL269745  24.319  27.943   3.794  0.3886  0.4827 -0.1711
    1OPC    C1B69746  24.181  27.863   4.201 -0.2147  0.3834 -0.2899
    1OPC    D2B69747  23.946  27.773   4.530  0.3633  0.0967  0.3302
    1OPC    C3B69748  23.929  27.317   4.707 -0.0871 -0.2496  0.0737
    1OPC    C4B69749  24.071  27.007   4.975 -0.1781 -0.0775 -0.2175
    1OPC    NC369750   9.485  24.049   3.066  0.3541 -0.0402 -0.1750
    1OPC    PO469751   9.137  24.192   3.227  0.1545  0.3673  0.3649
    1OPC    GL169752   9.178  24.076   3.674 -0.0121 -0.0887 -0.2755
    1OPC    GL269753   9.125  24.194   3.932  0.0310  0.0671 -0.2098
    1OPC    C1B69754   9.048  24.321   4.417 -0.0669  0.1700 -0.0309
    1OPC    D2B69755   8.985  24.474   4.803 -0.3641  0.1260  0.0067
    1OPC    C3B69756   8.550  24.359   5.062  0.0559 -0.3139 -0.1598
    1OPC    C4B69757   8.126  24.262   5.108 -0.2121 -0.1286  0.1397
    1OPC    NC369758   7.440   3.733   2.003  0.0386  0.1068 -0.0302
    1OPC    PO469759   7.478   3.669   2.428 -0.0348 -0.1953  0.1684
    1OPC    GL169760   7.558   3.665   2.887 -0.0101 -0.1329  0.0604
    1OPC    GL269761   7.477   3.769   3.214  0.3348  0.2215 -0.1299
    1OPC    C1B69762   7.608   3.596   3.683  0.0843 -0.1916 -0.0739
    1OPC    D2B69763   7.754   3.319   4.004 -0.0240  0.3587 -0.1026
    1OPC    C3B69764   7.451   2.936   4.144 -0.1277 -0.0525  0.1380
    1OPC    C4B69765   7.206   2.602   4.235  0.1895  0.2601 -0.1448
    1OPC    NC369766  15.761  26.110   2.810  0.1564  0.2620 -0.2039
    1OPC    PO469767  15.762  26.158   3.250 -0.1968  0.1099 -0.2318
    1OPC    GL169768  15.691  26.194   3.614  0.0027 -0.0184  0.0802
    1OPC    GL269769  15.662  26.032   3.858 -0.2714  0.2673  0.0578
    1OPC    C1B69770  15.978  25.941   4.258 -0.1897 -0.1397 -0.1005
    1OPC    D2B69771  16.154  25.825   4.684 -0.0002  0.0426  0.0367
    1OPC    C3B69772  16.521  25.551   4.717  0.2089 -0.2436 -0.1012
    1OPC    C4B69773  16.753  25.279   5.052  0.0872  0.2380 -0.0948
    1OPC    NC369774   1.989  20.973   2.185 -0.2687  0.1623 -0.1069
    1OPC    PO469775   1.702  21.033   2.391 -0.1803  0.0799 -0.1720
    1OPC    GL169776   1.503  20.629   2.659 -0.0813  0.2143  0.0263
    1OPC    GL269777   1.433  20.418   2.856  0.2251  0.0848 -0.0720
    1OPC    C1B69778   1.334  20.488   3.334  0.1705 -0.3783 -0.0069
    1OPC    D2B69779   1.229  20.406   3.788  0.0752 -0.2099 -0.0743
    1OPC    C3B69780   1.036  20.398   4.069 -0.1187 -0.0728  0.1142
    1OPC    C4B69781   0.790  20.566   4.365  0.0172 -0.0826 -0.0863
    1OPC    NC369782   3.240  23.530   2.653  0.0398  0.0536 -0.1064
    1OPC    PO469783   3.431  24.000   2.758  0.0001  0.1721 -0.1402
    1OPC    GL169784   3.616  23.916   3.165  0.5015 -0.1374 -0.1472
    1OPC    GL269785   3.755  24.093   3.388 -0.1006 -0.2057  0.0377
    1OPC    C1B69786   3.643  24.097   3.774  0.0139  0.1205 -0.0908
    1OPC    D2B69787   3.625  24.089   4.216  0.2142 -0.0196  0.1707
    1OPC    C3B69788   3.848  23.683   4.354  0.0386 -0.0251  0.2784
    1OPC    C4B69789   3.911  23.262   4.398  0.1547 -0.1012  0.3141
    1OPC    NC369790  18.181  16.814   3.345  0.3481  0.2371 -0.2941
    1OPC    PO469791  18.301  16.370   3.329 -0.3215 -0.2433  0.1096
    1OPC    GL169792  18.052  16.468   3.660  0.1178 -0.1197 -0.0663
    1OPC    GL269793  17.904  16.444   3.910 -0.0382 -0.0086 -0.1708
    1OPC    C1B69794  18.001  16.708   4.231  0.2492  0.1535 -0.2458
    1OPC    D2B69795  18.049  16.749   4.665 -0.2279 -0.0638 -0.2573
    1OPC    C3B69796  18.198  17.048   4.901 -0.0657 -0.0081 -0.1600
    1OPC    C4B69797  18.222  17.227   5.311  0.2494 -0.0679  0.1726
    1OPC    NC369798   2.363   8.700   2.446 -0.3272 -0.1048  0.2714
    1OPC    PO469799   2.702   8.873   2.280 -0.0083  0.2095 -0.1494
    1OPC    GL169800   2.435   9.161   2.598  0.0184 -0.1076  0.0183
    1OPC    GL269801   2.535   9.109   2.907  0.2127  0.2374 -0.1373
    1OPC    C1B69802   2.399   9.205   3.296 -0.1836  0.1886 -0.2781
    1OPC    D2B69803   2.534   9.103   3.662 -0.3149  0.2688 -0.1764
    1OPC    C3B69804   2.268   9.086   3.960  0.0790 -0.2253 -0.1930
    1OPC    C4B69805   2.276   9.191   4.352 -0.4527 -0.1722 -0.1944
    1OPC    NC369806  23.447  10.958   2.377 -0.0116  0.1923 -0.3123
    1OPC    PO469807  23.350  11.413   2.572 -0.4593 -0.3063 -0.0096
    1OPC    GL169808  23.223  11.112   2.835 -0.0207  0.1211 -0.1121
    1OPC    GL269809  23.276  11.063   3.155  0.0196 -0.1398 -0.1814
    1OPC    C1B69810  23.438  11.138   3.525 -0.2764 -0.1706  0.0536
    1OPC    D2B69811  23.442  11.002   3.898 -0.0892 -0.0225 -0.1508
    1OPC    C3B69812  23.421  10.513   4.006  0.0592  0.0959 -0.0130
    1OPC    C4B69813  23.660  10.269   4.314  0.1249 -0.0081 -0.0211
    1OPC    NC369814  17.799   3.383   3.471  0.0426  0.1081  0.1539
    1OPC    PO469815  17.560   3.728   3.238 -0.0991 -0.0981  0.0752
    1OPC    GL169816  17.438   3.656   3.696 -0.2685 -0.2272 -0.0686
    1OPC    GL269817  17.365   3.854   3.810 -0.2026  0.0795 -0.2288
    1OPC    C1B69818  17.271   4.058   4.079  0.0876 -0.3250 -0.0193
    1OPC    D2B69819  17.187   4.201   4.519  0.0471  0.0758  0.1668
    1OPC    C3B69820  17.533   4.189   4.815 -0.2120 -0.3004 -0.2454
    1OPC    C4B69821  17.646   4.265   5.153 -0.1183 -0.0609  0.2688
    1OPC    NC369822   5.343   2.066   2.783 -0.0053 -0.0332  0.2541
    1OPC    PO469823   5.592   2.455   2.749  0.3332 -0.0197  0.2480
    1OPC    GL169824   5.817   2.636   2.958  0.1825  0.0823  0.2116
    1OPC    GL269825   6.048   2.717   3.198  0.1237 -0.0510 -0.2153
    1OPC    C1B69826   5.998   2.802   3.649 -0.4352  0.3333  0.0407
    1OPC    D2B69827   5.714   3.124   3.847 -0.2550  0.0120  0.2077
    1OPC    C3B69828   5.624   2.846   4.239 -0.1279  0.0690  0.2306
    1OPC    C4B69829   5.461   2.519   4.416  0.0909  0.1706 -0.1654
    1OPC    NC369830  26.732  11.739   3.013  0.2546 -0.0899 -0.2575
    1OPC    PO469831  26.477  12.128   3.186  0.3243 -0.2228  0.0443
    1OPC    GL169832  26.311  11.750   3.551 -0.2337 -0.1035 -0.2311
    1OPC    GL269833  26.420  11.816   3.840 -0.2414 -0.1411 -0.2301
    1OPC    C1B69834  26.738  11.715   4.174 -0.1256 -0.1144 -0.1988
    1OPC    D2B69835  27.034  11.722   4.540  0.0717  0.1107 -0.1891
    1OPC    C3B69836  26.849  11.626   4.890  0.1783  0.5180  0.0548
    1OPC    C4B69837  26.518  11.766   5.190  0.0342 -0.0797 -0.2951
    1OPC    NC369838  18.597  25.282   2.113  0.0088  0.0739  0.0098
    1OPC    PO469839  18.292  25.290   2.485  0.1334 -0.0690  0.0677
    1OPC    GL169840  18.261  25.305   2.988  0.0407 -0.2802  0.2306
    1OPC    GL269841  18.287  25.361   3.259 -0.2172  0.1135 -0.0606
    1OPC    C1B69842  18.490  25.265   3.725 -0.1785  0.1556  0.2119
    1OPC    D2B69843  18.585  24.990   4.032 -0.4468 -0.0502 -0.0274
    1OPC    C3B69844  18.480  25.152   4.438  0.0460 -0.0178  0.0413
    1OPC    C4B69845  18.709  25.244   4.793 -0.0745 -0.2278  0.1526
    1OPC    NC369846  24.117   2.605   3.108 -0.0078 -0.2688  0.2631
    1OPC    PO469847  24.313   2.418   2.779  0.0617 -0.4702 -0.2948
    1OPC    GL169848  24.360   2.206   3.211 -0.2207 -0.0026  0.1488
    1OPC    GL269849  24.179   2.260   3.558  0.0149  0.0685 -0.2603
    1OPC    C1B69850  24.169   2.270   4.053 -0.0012 -0.1795 -0.1278
    1OPC    D2B69851  23.923   2.041   4.358 -0.1451 -0.1796 -0.0149
    1OPC    C3B69852  23.825   2.152   4.721  0.0572  0.2424  0.0767
    1OPC    C4B69853  23.839   2.071   5.163 -0.2448 -0.3708 -0.0945
    1OPC    NC369854  25.595  23.232   3.098 -0.0636  0.2603 -0.0852
    1OPC    PO469855  25.915  23.309   2.953 -0.0254  0.0535 -0.1245
    1OPC    GL169856  25.896  22.863   3.257  0.1212 -0.1419 -0.0044
    1OPC    GL269857  25.857  22.656   3.542  0.2431  0.1369 -0.1617
    1OPC    C1B69858  25.475  22.563   3.833  0.2173  0.1650  0.1960
    1OPC    D2B69859  25.222  22.575   4.192  0.0093  0.0593  0.5166
    1OPC    C3B69860  25.204  22.553   4.533  0.0248  0.1656 -0.1374
    1OPC    C4B69861  25.123  22.266   4.842  0.1133 -0.3318  0.2505
    1OPC    NC369862  23.054  20.644   2.955  0.0714  0.1775  0.1307
    1OPC    PO469863  23.377  20.397   2.863 -0.0194  0.0158 -0.2084
    1OPC    GL169864  23.384  20.052   3.103 -0.0685 -0.0192  0.2800
    1OPC    GL269865  23.661  19.921   3.356 -0.0674 -0.1817 -0.2644
    1OPC    C1B69866  23.912  20.009   3.768 -0.0064  0.1392 -0.2513
    1OPC    D2B69867  23.852  19.756   4.105 -0.1910  0.0798  0.1503
    1OPC    C3B69868  24.032  19.643   4.394 -0.2950 -0.0279  0.2340
    1OPC    C4B69869  24.036  19.427   4.678 -0.1140 -0.4844 -0.0932
    1OPC    NC369870   3.538  14.431   2.602  0.0721  0.1529 -0.2958
    1OPC    PO469871   3.465  14.374   3.016  0.0643  0.1678  0.1198
    1OPC    GL169872   3.362  14.566   3.341 -0.2465 -0.0629 -0.0314
    1OPC    GL269873   3.252  14.764   3.525  0.0971  0.0407 -0.0635
    1OPC    C1B69874   3.179  15.130   3.680 -0.2162  0.0521  0.0376
    1OPC    D2B69875   3.277  15.495   4.054 -0.2020  0.1475  0.1640
    1OPC    C3B69876   3.527  15.438   4.330  0.0102  0.1013 -0.3036
    1OPC    C4B69877   4.010  15.717   4.300 -0.0654  0.1178  0.3195
    1OPC    NC369878  25.634   2.698   2.767 -0.1473 -0.2991 -0.0608
    1OPC    PO469879  25.687   2.390   3.153  0.1520 -0.2896  0.3803
    1OPC    GL169880  25.969   1.991   3.242  0.1043 -0.2998 -0.2695
    1OPC    GL269881  25.837   1.664   3.332  0.2360 -0.0591  0.2708
    1OPC    C1B69882  25.830   1.534   3.803 -0.1259 -0.0132  0.1517
    1OPC    D2B69883  25.741   1.847   4.159  0.2989 -0.0648 -0.2727
    1OPC    C3B69884  26.026   2.022   4.243  0.0289 -0.0333 -0.1303
    1OPC    C4B69885  26.523   2.063   4.228  0.2309  0.2731 -0.2877
    1OPC    NC369886   1.570  18.341   2.896  0.1837  0.2025 -0.0322
    1OPC    PO469887   1.858  18.692   2.733  0.2055  0.0554 -0.0659
    1OPC    GL169888   1.787  18.666   3.204 -0.1058  0.1469  0.0336
    1OPC    GL269889   1.752  18.312   3.415  0.3072  0.2045 -0.0784
    1OPC    C1B69890   1.583  18.104   3.708  0.1254  0.1208  0.2080
    1OPC    D2B69891   1.304  18.048   4.057 -0.2190  0.1141 -0.0892
    1OPC    C3B69892   1.224  17.898   4.366  0.1563 -0.0793 -0.1030
    1OPC    C4B69893   1.062  17.509   4.518  0.2806  0.0012 -0.0280
    1OPC    NC369894  23.898  18.617   2.756  0.0322  0.1117  0.1269
    1OPC    PO469895  23.701  18.977   2.932  0.2671  0.4991 -0.2442
    1OPC    GL169896  23.960  19.215   3.131  0.2697  0.0276 -0.0285
    1OPC    GL269897  24.117  19.348   3.360 -0.1985 -0.0218 -0.2132
    1OPC    C1B69898  24.182  19.518   3.754 -0.1635 -0.2511  0.0594
    1OPC    D2B69899  24.350  19.929   3.989  0.4010  0.1132 -0.0202
    1OPC    C3B69900  24.150  20.183   4.293 -0.2295  0.2330  0.0999
    1OPC    C4B69901  23.958  20.501   4.543 -0.2242  0.0242 -0.0221
    1OPC    NC369902   3.701  16.129   3.143  0.3619  0.0490 -0.2139
    1OPC    PO469903   3.602  15.666   3.149 -0.0512  0.0278  0.0519
    1OPC    GL169904   3.434  15.555   3.530 -0.3216  0.0525 -0.1730
    1OPC    GL269905   3.110  15.761   3.740 -0.3178 -0.0790 -0.0846
    1OPC    C1B69906   2.807  15.840   4.080  0.2784  0.2731  0.2105
    1OPC    D2B69907   2.891  15.660   4.490  0.1197 -0.3139 -0.1671
    1OPC    C3B69908   3.251  15.617   4.713  0.0321 -0.0704 -0.0603
    1OPC    C4B69909   3.292  15.836   5.148  0.2474  0.0280  0.0431
    1OPC    NC369910   8.069  14.764   3.526 -0.0843 -0.2028  0.1100
    1OPC    PO469911   8.235  14.422   3.238 -0.0597  0.0437  0.2176
    1OPC    GL169912   8.321  14.323   3.636 -0.0020 -0.0832 -0.1112
    1OPC    GL269913   8.197  14.207   3.922 -0.2119  0.0572  0.3873
    1OPC    C1B69914   7.868  14.047   4.167 -0.0725  0.1393  0.3483
    1OPC    D2B69915   7.519  14.113   4.473 -0.1326  0.0240 -0.2105
    1OPC    C3B69916   7.663  14.016   4.897 -0.1814 -0.0612 -0.2166
    1OPC    C4B69917   7.457  13.868   5.253  0.1576  0.0548 -0.1378
    1OPC    NC369918  25.289  11.639   3.072 -0.1722 -0.0395 -0.1128
    1OPC    PO469919  25.109  11.748   2.684 -0.0483 -0.0852 -0.0385
    1OPC    GL169920  25.024  12.044   2.966  0.0199  0.0045 -0.1782
    1OPC    GL269921  24.899  11.993   3.282  0.0840 -0.3761  0.1310
    1OPC    C1B69922  24.657  11.841   3.626 -0.1585 -0.0979  0.0595
    1OPC    D2B69923  24.797  11.489   3.974  0.3099  0.0185 -0.0714
    1OPC    C3B69924  24.618  11.058   4.039  0.0465  0.0444 -0.1570
    1OPC    C4B69925  24.211  11.110   4.260 -0.0442 -0.0682  0.0587
    1OPC    NC369926  20.046  16.568   2.885  0.0952 -0.0223  0.2443
    1OPC    PO469927  20.351  16.288   3.176  0.1170  0.3420 -0.1521
    1OPC    GL169928  20.380  16.194   3.620 -0.1904 -0.0609 -0.0594
    1OPC    GL269929  20.290  16.060   3.943 -0.0945 -0.1162  0.3546
    1OPC    C1B69930  20.124  16.049   4.494  0.1363 -0.1200 -0.1357
    1OPC    D2B69931  19.761  15.924   4.694 -0.0466  0.0339 -0.0930
    1OPC    C3B69932  19.570  16.045   5.094  0.1881 -0.1332 -0.0323
    1OPC    C4B69933  19.268  16.025   5.447  0.0681 -0.3375  0.1673
    1OPC    NC369934  18.969   1.342   3.298 -0.3065  0.2218  0.0096
    1OPC    PO469935  19.014   0.980   3.479  0.0728  0.2272  0.0719
    1OPC    GL169936  18.926   0.741   3.843 -0.2034  0.0515  0.0033
    1OPC    GL269937  18.908   0.930   4.119 -0.0905  0.0098 -0.2607
    1OPC    C1B69938  19.060   0.913   4.519  0.0644 -0.1737 -0.1557
    1OPC    D2B69939  19.147   0.854   4.909  0.0802 -0.1570  0.1142
    1OPC    C3B69940  19.180   0.467   5.119  0.0846 -0.1514 -0.5252
    1OPC    C4B69941  19.364   0.251   5.464 -0.0968  0.1377  0.1816
    1OPC    NC369942  11.137   0.373   3.140  0.2941  0.1687  0.0743
    1OPC    PO469943  10.797   0.341   3.400  0.1088 -0.1596  0.0063
    1OPC    GL169944  10.922   0.605   3.775 -0.0601  0.1363  0.1437
    1OPC    GL269945  10.856   0.658   4.169  0.2828 -0.0980  0.0441
    1OPC    C1B69946  10.595   0.515   4.534 -0.0344  0.3112  0.1914
    1OPC    D2B69947  10.304   0.714   4.721  0.0939 -0.2058 -0.1463
    1OPC    C3B69948   9.907   0.603   4.721  0.0064  0.2717 -0.0769
    1OPC    C4B69949   9.569   0.411   4.870  0.1666  0.0559 -0.0863
    1OPC    NC369950  25.695   4.814   2.595 -0.4027  0.0157  0.0210
    1OPC    PO469951  25.974   4.506   2.323 -0.0475 -0.3402  0.2079
    1OPC    GL169952  26.197   4.703   2.731 -0.0821  0.0623  0.0252
    1OPC    GL269953  26.262   4.720   3.039  0.3252  0.3897 -0.4406
    1OPC    C1B69954  26.336   4.522   3.484  0.0982  0.0500 -0.1168
    1OPC    D2B69955  26.174   4.272   3.817  0.0607 -0.3847 -0.2598
    1OPC    C3B69956  26.342   4.395   4.155 -0.1069  0.0385 -0.0329
    1OPC    C4B69957  26.369   4.519   4.578 -0.0538 -0.0731 -0.0101
    1OPC    NC369958  15.809   5.353   3.081 -0.3234 -0.0618  0.1229
    1OPC    PO469959  15.393   5.171   3.161  0.3299 -0.2934  0.3867
    1OPC    GL169960  15.468   5.303   3.629  0.3603  0.0859 -0.1633
    1OPC    GL269961  15.565   5.449   3.932 -0.1326 -0.0418  0.1320
    1OPC    C1B69962  15.615   5.399   4.400 -0.2716 -0.1651 -0.0244
    1OPC    D2B69963  15.687   5.092   4.785  0.2742  0.1622 -0.0656
    1OPC    C3B69964  16.140   4.961   4.877  0.3002 -0.1388 -0.1024
    1OPC    C4B69965  16.369   4.691   4.981 -0.2724  0.0488  0.2353
    1OPC    NC369966  23.502  12.362   2.096  0.1824  0.2289 -0.0302
    1OPC    PO469967  23.411  12.707   2.533  0.1752  0.0164 -0.0887
    1OPC    GL169968  23.459  12.834   3.006  0.0334  0.0204  0.0649
    1OPC    GL269969  23.438  12.760   3.252  0.1428 -0.1212  0.3265
    1OPC    C1B69970  23.539  12.440   3.572 -0.0797  0.2279 -0.0706
    1OPC    D2B69971  23.551  12.368   3.999 -0.0164 -0.1371 -0.0109
    1OPC    C3B69972  23.322  12.043   4.255 -0.0632 -0.0521 -0.0503
    1OPC    C4B69973  23.171  11.866   4.590  0.2403  0.0391  0.0242
    1OPC    NC369974  14.837  17.060   3.368  0.0848  0.0390 -0.3361
    1OPC    PO469975  14.805  16.642   3.609 -0.1945  0.1254 -0.2469
    1OPC    GL169976  14.759  16.526   4.119 -0.1584  0.0416  0.0733
    1OPC    GL269977  14.819  16.229   4.311  0.0847  0.0185  0.0670
    1OPC    C1B69978  14.828  16.018   4.649  0.0812 -0.3729 -0.0565
    1OPC    D2B69979  14.994  16.043   4.895 -0.0755 -0.2152 -0.1114
    1OPC    C3B69980  14.835  16.228   5.203  0.1389 -0.1233  0.2047
    1OPC    C4B69981  15.007  16.681   5.152  0.0758 -0.1661 -0.3360
    1OPC    NC369982   5.994   0.143   2.537  0.0338  0.0892  0.1606
    1OPC    PO469983   6.374   0.032   2.436  0.1657  0.2360  0.1442
    1OPC    GL169984   6.407  28.007   2.887 -0.0916 -0.0971  0.0790
    1OPC    GL269985   6.275  27.804   3.076 -0.3502  0.1206  0.1586
    1OPC    C1B69986   6.306  27.737   3.462 -0.1004  0.1794 -0.1017
    1OPC    D2B69987   6.076  27.680   3.827 -0.3021 -0.4785  0.0975
    1OPC    C3B69988   6.279  27.801   4.205 -0.2930  0.0073 -0.1226
    1OPC    C4B69989   6.442  28.056   4.494 -0.1041  0.0851 -0.2281
    1OPC    NC369990  15.392  13.861   3.371  0.0208 -0.2719 -0.1389
    1OPC    PO469991  14.988  13.758   3.250  0.0215  0.1372 -0.1723
    1OPC    GL169992  14.944  13.742   3.692 -0.2128  0.2517  0.1857
    1OPC    GL269993  14.921  13.906   3.994  0.1700 -0.2099  0.0399
    1OPC    C1B69994  14.922  14.094   4.352 -0.1747  0.0378 -0.3975
    1OPC    D2B69995  14.898  14.520   4.475  0.1308  0.2081  0.0410
    1OPC    C3B69996  14.961  14.485   4.921 -0.0667  0.3371  0.1907
    1OPC    C4B69997  15.024  14.484   5.328  0.0747  0.1960  0.0156
    1OPC    NC369998  14.572  14.830   3.674 -0.0928  0.2128  0.1409
    1OPC    PO469999  14.863  14.453   3.869  0.0910 -0.3319  0.0723
    1OPC    GL170000  14.572  14.309   4.096 -0.0375 -0.1633  0.2029
    1OPC    GL270001  14.474  14.211   4.451  0.2214  0.0297  0.0604
    1OPC    C1B70002  14.426  14.219   4.950  0.4856 -0.1498  0.1995
    1OPC    D2B70003  14.210  14.251   5.280 -0.0261  0.2375 -0.0408
    1OPC    C3B70004  14.439  14.224   5.645  0.0907 -0.1814 -0.0080
    1OPC    C4B70005  14.916  14.333   5.802 -0.1349 -0.3021 -0.0442
    1OPC    NC370006  22.587  26.849   3.246 -0.1577 -0.0341  0.0390
    1OPC    PO470007  22.492  26.921   3.650 -0.1390 -0.1541  0.0548
    1OPC    GL170008  22.341  26.561   4.016  0.1829 -0.2031 -0.0646
    1OPC    GL270009  22.220  26.399   4.275 -0.0631  0.1737 -0.3468
    1OPC    C1B70010  22.184  26.666   4.631  0.5032 -0.2176 -0.0716
    1OPC    D2B70011  22.123  27.058   4.784 -0.1448 -0.0760  0.4341
    1OPC    C3B70012  22.531  27.053   5.004  0.2001  0.0351 -0.4244
    1OPC    C4B70013  22.924  27.104   5.048 -0.0474  0.0194 -0.0371
    1OPC    NC370014   3.844  26.600   2.342 -0.2346  0.0911  0.1077
    1OPC    PO470015   3.558  26.229   2.568  0.2626  0.1296 -0.1307
    1OPC    GL170016   3.801  26.302   2.940  0.0770  0.4356  0.0010
    1OPC    GL270017   3.587  26.359   3.154  0.3233 -0.0090 -0.1682
    1OPC    C1B70018   3.541  26.498   3.634 -0.1772  0.1958 -0.0326
    1OPC    D2B70019   3.907  26.401   3.950  0.0080 -0.3857  0.1360
    1OPC    C3B70020   3.868  26.534   4.412 -0.0256 -0.1751 -0.1107
    1OPC    C4B70021   4.071  26.612   4.863 -0.1382  0.2606 -0.0253
    1OPC    NC370022  13.074   3.302   3.419 -0.2189 -0.0852 -0.5937
    1OPC    PO470023  12.781   3.153   3.221  0.1077  0.2602  0.2570
    1OPC    GL170024  12.602   3.330   3.671  0.2105 -0.2651  0.0615
    1OPC    GL270025  12.269   3.315   3.880  0.2045 -0.1709  0.1682
    1OPC    C1B70026  12.013   3.282   4.313 -0.2585 -0.1981  0.0858
    1OPC    D2B70027  11.827   3.093   4.576  0.1079 -0.0552  0.3523
    1OPC    C3B70028  11.788   3.450   4.892 -0.0301  0.0380 -0.2410
    1OPC    C4B70029  11.649   3.689   5.302  0.1357 -0.1192  0.2514
    1OPC    NC370030   1.367  15.844   2.409  0.1884 -0.1501  0.3075
    1OPC    PO470031   0.986  16.042   2.569 -0.2791  0.2393 -0.0045
    1OPC    GL170032   0.872  16.226   2.951  0.0788 -0.0743 -0.0300
    1OPC    GL270033   1.136  16.202   3.200 -0.3727  0.0643  0.2175
    1OPC    C1B70034   1.435  16.562   3.364  0.3606  0.0629  0.1491
    1OPC    D2B70035   1.378  16.961   3.548  0.0100 -0.2902  0.0003
    1OPC    C3B70036   1.659  17.023   3.839  0.1620 -0.0921  0.1946
    1OPC    C4B70037   1.999  17.180   3.948 -0.2489 -0.7150  0.0715
    1OPC    NC370038  17.377  13.849   3.586 -0.1097 -0.2545  0.0886
    1OPC    PO470039  17.174  14.347   3.634 -0.0584 -0.2470  0.1369
    1OPC    GL170040  17.308  14.205   3.979 -0.0770  0.1194 -0.0308
    1OPC    GL270041  17.478  14.233   4.173 -0.0044 -0.1515 -0.0891
    1OPC    C1B70042  17.690  14.170   4.539  0.0311  0.0052 -0.0533
    1OPC    D2B70043  17.618  14.134   4.935  0.1345 -0.0022 -0.1188
    1OPC    C3B70044  17.354  14.448   5.120 -0.0216 -0.0827  0.1334
    1OPC    C4B70045  17.563  14.521   5.527  0.1133  0.0173  0.0770
    1OPC    NC370046   5.958  17.199   3.627 -0.0097  0.0667  0.2752
    1OPC    PO470047   5.496  17.342   3.691  0.0154  0.1639  0.3310
    1OPC    GL170048   5.463  17.385   4.137  0.0652  0.4334 -0.0998
    1OPC    GL270049   5.443  17.140   4.378  0.1753 -0.0278 -0.2811
    1OPC    C1B70050   5.472  16.884   4.825  0.0574  0.0616 -0.1564
    1OPC    D2B70051   5.784  16.601   5.135 -0.1341 -0.0405  0.2681
    1OPC    C3B70052   6.144  16.787   5.117 -0.3002  0.0500 -0.0057
    1OPC    C4B70053   6.389  17.137   5.217  0.4351 -0.1401  0.1764
    1OPC    NC370054   9.500  13.505   2.599 -0.2279  0.2074 -0.0099
    1OPC    PO470055   9.490  13.412   3.053 -0.2899  0.1765 -0.1351
    1OPC    GL170056   9.347  13.413   3.455  0.0448  0.1498  0.1227
    1OPC    GL270057   9.234  13.403   3.786  0.1198  0.2575 -0.4222
    1OPC    C1B70058   9.259  13.699   4.214  0.2214  0.2859 -0.1374
    1OPC    D2B70059   9.440  13.439   4.520  0.0421 -0.0208 -0.1971
    1OPC    C3B70060   9.336  13.103   4.796  0.2016 -0.1116 -0.0122
    1OPC    C4B70061   9.172  12.747   4.985 -0.1449 -0.1967  0.0371
    1OPC    NC370062   3.087  27.817   2.589 -0.0277 -0.0404 -0.0790
    1OPC    PO470063   3.011  27.464   2.530  0.1320  0.2413 -0.1416
    1OPC    GL170064   3.318  27.466   2.889 -0.1881  0.0207 -0.0730
    1OPC    GL270065   3.244  27.514   3.220  0.1122  0.2031  0.1119
    1OPC    C1B70066   3.164  27.511   3.620 -0.0296 -0.0848 -0.2540
    1OPC    D2B70067   3.199  27.348   3.954  0.0957 -0.3673  0.0218
    1OPC    C3B70068   3.175  27.615   4.229  0.1887 -0.0007  0.1533
    1OPC    C4B70069   3.449  27.821   4.318  0.1046  0.3940 -0.1155
    1OPC    NC370070  21.490   1.282   3.002  0.0584  0.1610  0.1359
    1OPC    PO470071  21.682   1.714   2.914  0.0447  0.2013 -0.0353
    1OPC    GL170072  21.671   1.707   3.331 -0.2719 -0.2028 -0.3115
    1OPC    GL270073  21.716   1.697   3.657 -0.2657 -0.1125  0.0642
    1OPC    C1B70074  21.705   1.721   4.158  0.2138 -0.0379 -0.0875
    1OPC    D2B70075  21.503   1.761   4.493 -0.0945  0.1101 -0.2140
    1OPC    C3B70076  21.812   1.456   4.785  0.2306 -0.4560  0.0641
    1OPC    C4B70077  21.922   1.246   5.184  0.0423 -0.0067 -0.2191
    1OPC    NC370078  17.306  24.310   3.063 -0.0560 -0.0228  0.1464
    1OPC    PO470079  17.719  24.061   3.329 -0.2838 -0.3282  0.0495
    1OPC    GL170080  17.533  24.039   3.745  0.1519 -0.3230  0.3028
    1OPC    GL270081  17.575  24.091   4.100  0.0608 -0.2586  0.1294
    1OPC    C1B70082  17.503  24.089   4.486  0.0896  0.1652  0.3390
    1OPC    D2B70083  17.630  24.135   4.928  0.0876  0.1471  0.1811
    1OPC    C3B70084  17.512  23.800   5.236 -0.2497 -0.0614  0.1052
    1OPC    C4B70085  17.497  23.432   5.426 -0.3117 -0.3031 -0.0946
    1OPC    NC370086   6.212  11.970   2.473 -0.4868 -0.0753  0.0420
    1OPC    PO470087   5.863  12.256   2.724  0.0700  0.0173 -0.3249
    1OPC    GL170088   5.893  12.520   3.171 -0.1332  0.0276 -0.1631
    1OPC    GL270089   5.789  12.571   3.471  0.4503  0.3442 -0.1326
    1OPC    C1B70090   5.831  12.578   3.859 -0.0921  0.1480  0.0846
    1OPC    D2B70091   5.885  12.945   4.188 -0.0907 -0.1856 -0.2175
    1OPC    C3B70092   5.774  12.870   4.636  0.1325  0.0232  0.1482
    1OPC    C4B70093   5.625  12.749   5.031  0.2002  0.2376  0.0530
    1OPC    NC370094  13.799   4.927   2.884  0.1300 -0.2020 -0.1743
    1OPC    PO470095  14.118   5.258   3.066  0.0380 -0.0568  0.2585
    1OPC    GL170096  14.025   5.228   3.512  0.1675  0.1684 -0.5227
    1OPC    GL270097  13.881   5.320   3.879  0.0229  0.1713 -0.0817
    1OPC    C1B70098  13.989   5.342   4.366  0.0811 -0.1860  0.0432
    1OPC    D2B70099  14.234   5.300   4.771  0.2722 -0.0438 -0.0416
    1OPC    C3B70100  13.935   5.581   5.078  0.2615 -0.0775 -0.0322
    1OPC    C4B70101  13.673   5.650   5.494 -0.0099  0.3861  0.2120
    1OPC    NC370102   3.879   2.534   1.876 -0.3274  0.2641  0.0593
    1OPC    PO470103   3.795   2.763   2.254  0.6101  0.0763 -0.3039
    1OPC    GL170104   3.896   2.574   2.659 -0.2082 -0.1130 -0.4944
    1OPC    GL270105   4.114   2.338   2.953  0.6071  0.0730 -0.0169
    1OPC    C1B70106   4.217   1.936   3.141 -0.0902 -0.0459  0.0577
    1OPC    D2B70107   4.222   1.644   3.339  0.3712  0.1076  0.0665
    1OPC    C3B70108   4.626   1.500   3.510  0.1303 -0.2443 -0.0853
    1OPC    C4B70109   4.861   1.388   3.869 -0.1055  0.2647  0.2014
    1OPC    NC370110  15.945   6.209   4.016 -0.0664 -0.0701  0.1351
    1OPC    PO470111  16.300   6.516   3.983  0.0899  0.1504  0.3233
    1OPC    GL170112  16.231   6.694   4.364 -0.1042 -0.0023 -0.2936
    1OPC    GL270113  16.219   6.402   4.750  0.2113  0.2237  0.0983
    1OPC    C1B70114  16.143   6.172   5.113  0.0357 -0.0896 -0.0155
    1OPC    D2B70115  15.718   6.048   5.176  0.0309 -0.2852  0.0669
    1OPC    C3B70116  15.241   6.007   5.040  0.1736  0.0736 -0.1122
    1OPC    C4B70117  14.810   6.244   5.195 -0.1125 -0.0541 -0.0333
    1OPC    NC370118  27.063  19.536   2.210 -0.0575 -0.0377 -0.1953
    1OPC    PO470119  27.438  19.265   2.273 -0.3754 -0.0561  0.1484
    1OPC    GL170120  27.440  19.237   2.685 -0.1747 -0.1052 -0.1310
    1OPC    GL270121  27.192  19.194   3.071  0.0571  0.1185 -0.2016
    1OPC    C1B70122  27.336  18.798   3.394  0.2947 -0.0893  0.0421
    1OPC    D2B70123  27.102  18.845   3.816 -0.1255 -0.0892  0.2357
    1OPC    C3B70124  27.175  18.911   4.242  0.0318 -0.1900 -0.0537
    1OPC    C4B70125  26.868  18.962   4.562  0.2304 -0.1315 -0.2279
    1OPC    NC370126   9.002   3.239   2.570  0.1722  0.1422  0.0545
    1OPC    PO470127   8.668   3.192   2.878 -0.0932 -0.2228 -0.2560
    1OPC    GL170128   8.661   2.845   3.156 -0.0864 -0.3084 -0.1596
    1OPC    GL270129   8.659   2.635   3.215  0.1357  0.1607  0.0584
    1OPC    C1B70130   8.495   2.552   3.600 -0.1047  0.2470 -0.1107
    1OPC    D2B70131   8.300   2.497   3.998  0.0679  0.0331 -0.1302
    1OPC    C3B70132   8.313   2.445   4.383 -0.0924 -0.0505 -0.5413
    1OPC    C4B70133   8.148   2.301   4.718  0.0424 -0.2222  0.2726
    1OPC    NC370134  18.360  15.750   3.172 -0.0236 -0.1524 -0.0316
    1OPC    PO470135  18.582  15.862   3.485 -0.0957  0.1668  0.3177
    1OPC    GL170136  18.480  16.269   3.759 -0.3377 -0.1960 -0.0477
    1OPC    GL270137  18.379  16.313   4.058  0.2851  0.2967 -0.1202
    1OPC    C1B70138  18.281  16.394   4.392  0.0045 -0.0255  0.4336
    1OPC    D2B70139  18.149  16.260   4.729  0.1865  0.1136 -0.0213
    1OPC    C3B70140  18.082  16.540   5.138 -0.0896  0.2031 -0.1872
    1OPC    C4B70141  17.967  16.815   5.369 -0.2699 -0.2577 -0.2091
    1OPC    NC370142  26.393  25.730   2.597  0.2838  0.0999  0.1833
    1OPC    PO470143  26.138  26.014   2.917  0.0513  0.0174 -0.0049
    1OPC    GL170144  26.197  25.952   3.378  0.0845  0.1533 -0.2134
    1OPC    GL270145  26.300  25.927   3.710  0.0059  0.1182  0.0019
    1OPC    C1B70146  26.164  26.078   4.166  0.0806  0.2536 -0.0809
    1OPC    D2B70147  25.682  26.077   4.286  0.1861 -0.0342  0.0129
    1OPC    C3B70148  25.525  26.354   4.601  0.0741  0.4887 -0.4064
    1OPC    C4B70149  25.279  26.678   4.775  0.0652 -0.6004  0.2599
    1OPC    NC370150  24.394   2.873   2.821 -0.4472  0.0949 -0.2564
    1OPC    PO470151  24.020   3.137   2.845 -0.0220  0.1851  0.1552
    1OPC    GL170152  23.884   3.040   3.237 -0.0457 -0.0143  0.0867
    1OPC    GL270153  23.613   3.170   3.374 -0.0436 -0.0474 -0.1410
    1OPC    C1B70154  23.476   3.243   3.808  0.2480 -0.1589  0.1011
    1OPC    D2B70155  23.629   3.555   4.209 -0.0418  0.1149  0.3167
    1OPC    C3B70156  23.719   3.758   4.594  0.1778  0.1573 -0.1380
    1OPC    C4B70157  24.130   3.911   4.755  0.0490 -0.0527  0.1186
    1OPC    NC370158   2.267  18.620   2.519 -0.1967 -0.0345 -0.0498
    1OPC    PO470159   2.606  18.827   2.778  0.2115 -0.0721  0.1336
    1OPC    GL170160   2.290  18.722   3.187  0.0350 -0.1947 -0.4774
    1OPC    GL270161   2.240  18.700   3.504 -0.0000 -0.2588  0.0473
    1OPC    C1B70162   1.869  18.674   3.800  0.2152 -0.2390  0.0519
    1OPC    D2B70163   1.720  18.856   4.277 -0.1161  0.1696 -0.1843
    1OPC    C3B70164   1.495  19.113   4.654 -0.0494 -0.1311  0.3040
    1OPC    C4B70165   1.242  19.429   4.905  0.1770  0.0713  0.0382
    1OPC    NC370166  27.152  10.823   2.696 -0.1224  0.0696 -0.0833
    1OPC    PO470167  26.928  11.048   3.005 -0.2767 -0.2743  0.2940
    1OPC    GL170168  26.888  10.985   3.457  0.2592  0.1194  0.1346
    1OPC    GL270169  27.088  10.932   3.642 -0.0782 -0.2552  0.0640
    1OPC    C1B70170  26.963  11.063   4.031  0.2884  0.0533  0.2345
    1OPC    D2B70171  27.027  10.927   4.501  0.1509  0.3196  0.0730
    1OPC    C3B70172  27.145  11.163   4.796 -0.2178  0.0553  0.1039
    1OPC    C4B70173  27.504  11.155   4.974  0.2170  0.0434 -0.0824
    1OPC    NC370174   4.121   9.748   2.366 -0.0617  0.1237 -0.0917
    1OPC    PO470175   4.322   9.935   2.599 -0.1960 -0.0997 -0.0750
    1OPC    GL170176   4.248  10.040   3.022  0.0888  0.0981  0.1067
    1OPC    GL270177   4.456  10.085   3.304 -0.1344 -0.0836  0.0362
    1OPC    C1B70178   4.493   9.823   3.640 -0.0307 -0.2682  0.0161
    1OPC    D2B70179   4.636   9.613   3.987 -0.0968  0.1288  0.2392
    1OPC    C3B70180   4.723   9.282   4.318  0.1827  0.2069 -0.1512
    1OPC    C4B70181   4.559   9.101   4.806 -0.1327  0.0738 -0.1359
    1OPC    NC370182  22.277  24.971   2.826 -0.0960  0.0829  0.3412
    1OPC    PO470183  21.926  25.270   3.055  0.2077 -0.1139  0.1426
    1OPC    GL170184  21.806  25.222   3.513  0.3247  0.0674 -0.2062
    1OPC    GL270185  21.640  25.298   3.864 -0.1841  0.0708 -0.1030
    1OPC    C1B70186  21.466  25.436   4.276  0.1429  0.1243  0.0362
    1OPC    D2B70187  21.627  25.365   4.643  0.0438 -0.1969 -0.0757
    1OPC    C3B70188  21.628  25.640   5.112 -0.1993  0.0427  0.2602
    1OPC    C4B70189  21.560  26.000   5.424  0.1653  0.0363  0.1319
    1OPC    NC370190   9.573  14.648   3.539 -0.1138 -0.2575 -0.0697
    1OPC    PO470191   9.381  14.990   3.620  0.0354 -0.0946 -0.2437
    1OPC    GL170192   9.370  15.369   3.907 -0.1724 -0.2617  0.1380
    1OPC    GL270193   9.493  15.391   4.199 -0.0027 -0.0842  0.2469
    1OPC    C1B70194   9.497  15.404   4.640 -0.1910 -0.1180  0.1870
    1OPC    D2B70195   9.590  15.380   5.154  0.0150 -0.0216 -0.0712
    1OPC    C3B70196   9.193  15.348   5.286 -0.3878  0.0474  0.0116
    1OPC    C4B70197   8.942  15.591   5.386  0.0496  0.0544  0.3582
    1OPC    NC370198  20.878   3.362   2.930 -0.4126 -0.1940 -0.1873
    1OPC    PO470199  21.305   3.530   2.859  0.2977  0.0946 -0.0090
    1OPC    GL170200  21.265   3.572   3.259  0.0223  0.1418 -0.0340
    1OPC    GL270201  21.095   3.709   3.489 -0.0259 -0.2336 -0.1507
    1OPC    C1B70202  20.975   3.512   3.901 -0.1034  0.4306  0.2079
    1OPC    D2B70203  21.076   3.420   4.279 -0.0813  0.0525 -0.3112
    1OPC    C3B70204  20.940   3.674   4.680 -0.5053  0.1989 -0.1735
    1OPC    C4B70205  20.729   3.834   5.083 -0.2180  0.3236 -0.1971
  28.12757  28.12757  10.36340
